FOO
135168
    1MOL0     O    1   0.241   7.294   1.806 -0.2415  0.4031  0.2923
    1MOL0     C    2   0.310   7.293   1.910 -0.4824 -0.1356  0.0082
    1MOL0     O    3   0.405   7.378   1.937 -0.5255 -0.3635 -0.2212
    1MOL0     C    4   0.441   7.478   1.849 -0.1095  0.5175  0.1433
    1MOL0     C    5   0.472   7.604   1.890  0.2875  0.1757  0.1511
    1MOL0     C    6   0.547   7.695   1.811  0.9123  0.6562 -0.3647
    1MOL0     C    7   0.573   7.653   1.677  0.1814  0.8791  0.0584
    1MOL0     O    8   0.644   7.722   1.592  0.2734 -0.6962 -0.6863
    1MOL0     C    9   0.666   7.859   1.608 -0.6984 -0.2679 -0.0310
    1MOL0     C   10   0.666   7.943   1.466  0.3270 -0.2733 -1.3300
    1MOL0     C   11   0.529   8.011   1.435  0.0274 -0.0648  0.4599
    1MOL0     C   12   0.550   8.116   1.330 -0.2146  0.3516 -0.1449
    1MOL0     C   13   0.410   8.173   1.302 -0.2582  0.0959  0.3355
    1MOL0     C   14   0.333   8.096   1.194 -0.0871 -0.7357  0.8301
    1MOL0     C   15   0.203   8.169   1.183  0.3945  0.7119 -0.7159
    1MOL0     C   16   0.099   8.112   1.094  0.3399 -0.0579 -0.5048
    1MOL0     N   17  -0.018   8.212   1.074  0.1661  0.3379  0.4279
    1MOL0     C   18  -0.105   8.254   1.171  0.6744  0.7214  0.4115
    1MOL0     C   19  -0.205   8.330   1.116  0.5282 -0.1376 -0.3189
    1MOL0     C   20  -0.323   8.394   1.171 -0.5203 -0.9433  0.3161
    1MOL0     C   21  -0.297   8.441   1.314  0.1007  0.3263  0.4733
    1MOL0     C   22  -0.431   8.491   1.366 -0.2279  0.1314 -0.3406
    1MOL0     C   23  -0.482   8.614   1.304  0.4678  0.4457  0.9266
    1MOL0     O   24  -0.386   8.712   1.250  0.8799 -0.5069  0.0311
    1MOL0     C   25  -0.431   8.804   1.164 -0.1847  0.4093  0.3848
    1MOL0     C   26  -0.459   8.761   1.037  0.5512 -0.0248  0.1269
    1MOL0     C   27  -0.528   8.844   0.953  0.2167 -0.9087  0.6194
    1MOL0     C   28  -0.553   8.980   0.982  0.5198  0.0192 -0.6660
    1MOL0     C   29  -0.619   9.077   0.895  0.1628 -0.1588 -0.1711
    1MOL0     O   30  -0.682   9.176   0.964  0.1008  0.2882 -0.2536
    1MOL0     C   31  -0.765   9.274   0.911 -0.0730  0.5546 -0.1021
    1MOL0     C   32  -0.839   9.266   0.793 -0.1911  0.0152 -0.5825
    1MOL0     C   33  -0.923   9.364   0.759  0.0271 -0.0034  0.1861
    1MOL0     C   34  -0.916   9.490   0.822 -0.0775 -0.0999  0.5369
    1MOL0     O   35  -0.970   9.607   0.766  0.3442 -0.6640  0.0285
    1MOL0     C   36  -1.074   9.590   0.669 -0.1214  0.1857 -0.5447
    1MOL0     C   37  -1.140   9.726   0.663 -0.5516  0.4429  0.3601
    1MOL0     C   38  -1.254   9.707   0.555  0.9421 -0.5665  0.6637
    1MOL0     C   39  -1.346   9.828   0.555 -0.7699  0.7599 -0.2121
    1MOL0     C   40  -1.416   9.836   0.417  0.7592  0.0067  0.3237
    1MOL0     C   41  -1.535   9.934   0.429 -0.2160  0.0467 -0.1419
    1MOL0     C   42  -1.497  10.086   0.453 -1.2937  0.6654 -0.3517
    1MOL0     C   43  -1.609  10.173   0.490  0.5834  1.0474 -0.9604
    1MOL0    Cl   44  -1.731  10.187   0.367  0.6351 -0.2803 -0.1487
    1MOL0     C   45  -0.866   9.491   0.959  0.6106  0.2396  0.6304
    1MOL0     C   46  -0.790   9.381   1.003 -0.7145 -0.2485 -0.0774
    1MOL0     O   47  -0.620   9.061   0.774  0.1936 -0.6016 -0.0113
    1MOL0     C   48  -0.513   9.021   1.110 -0.0249  0.4171 -0.5091
    1MOL0     C   49  -0.449   8.936   1.199 -0.5816 -0.0299 -0.2970
    1MOL0     N   50  -0.170   8.341   0.985  0.4331  0.6549  0.8324
    1MOL0     N   51  -0.068   8.266   0.962  0.0667 -0.4828 -0.6125
    1MOL0     C   52   0.554   7.517   1.637  0.2153 -0.3778 -0.4068
    1MOL0     C   53   0.484   7.431   1.723  0.3202 -0.4598 -0.8675
    1MOL0     C   54   0.280   7.177   1.999 -1.7885 -0.4004 -0.0621
    1MOL0     C   55   0.274   7.200   2.137  0.1972 -1.1478  1.5374
    1MOL0     C   56   0.253   7.095   2.229  0.1037  0.3378 -0.4671
    1MOL0     C   57   0.245   6.970   2.182  0.4162 -0.2389 -0.7996
    1MOL0     O   58   0.227   6.877   2.280 -0.3309 -0.2099  0.1273
    1MOL0     C   59   0.160   6.754   2.256 -0.2247 -0.5595  0.7063
    1MOL0     C   60   0.013   6.785   2.224  0.0020 -0.1322  0.1029
    1MOL0     C   61  -0.055   6.654   2.178 -0.0239 -0.6611 -0.0848
    1MOL0     C   62  -0.043   6.527   2.265 -0.2450 -0.3812  0.1733
    1MOL0     C   63  -0.102   6.563   2.392  0.2953  0.5628 -0.5175
    1MOL0     C   64  -0.165   6.577   2.500 -0.4625 -0.3565  0.6124
    1MOL0     C   65   0.256   6.935   2.050 -0.0468 -0.3064  0.6753
    1MOL0     C   66   0.274   7.047   1.950 -1.2671  0.7232  0.4117
    1MOL0     H   67   0.457   7.655   1.984  1.8067  5.3680 -2.0757
    1MOL0     H   68   0.575   7.787   1.861 -0.6096 -0.7248  3.3976
    1MOL0     H   69   0.762   7.881   1.655  1.2210 -5.6094 -0.7436
    1MOL0     H   70   0.590   7.904   1.673 -0.9373  0.2026 -0.6231
    1MOL0     H   71   0.696   7.886   1.377  2.2125 -0.6032 -0.5366
    1MOL0     H   72   0.745   8.019   1.468  0.1937 -0.0789  1.8598
    1MOL0     H   73   0.502   8.072   1.522 -3.5425  1.5613 -1.5834
    1MOL0     H   74   0.460   7.928   1.415  2.1886 -2.0781  0.9355
    1MOL0     H   75   0.628   8.187   1.359  0.7403  0.1105 -1.9742
    1MOL0     H   76   0.576   8.065   1.237 -1.7032  3.4129 -2.3917
    1MOL0     H   77   0.417   8.271   1.255 -1.6078  0.2345  0.3703
    1MOL0     H   78   0.342   8.172   1.388 -1.7994 -1.7505 -0.8363
    1MOL0     H   79   0.321   7.999   1.242  1.6931 -0.0992  2.7105
    1MOL0     H   80   0.392   8.082   1.103 -1.9017  1.3747 -0.7736
    1MOL0     H   81   0.157   8.185   1.281  0.8186  2.6267 -0.7893
    1MOL0     H   82   0.224   8.267   1.138 -0.4576  0.0344 -2.7123
    1MOL0     H   83   0.064   8.016   1.133  1.3947 -0.3498 -0.2591
    1MOL0     H   84   0.142   8.088   0.996 -1.1212 -3.6780 -0.4319
    1MOL0     H   85  -0.090   8.233   1.277  3.3402 -0.3161 -0.1149
    1MOL0     H   86  -0.413   8.332   1.172 -1.4993  0.4158  0.2702
    1MOL0     H   87  -0.327   8.484   1.109  2.1846 -1.0596 -0.1197
    1MOL0     H   88  -0.212   8.509   1.321  1.3965 -1.0976 -0.6748
    1MOL0     H   89  -0.269   8.353   1.374 -0.9520 -2.9265 -3.3418
    1MOL0     H   90  -0.502   8.407   1.364 -0.9128  0.6160 -3.9983
    1MOL0     H   91  -0.410   8.525   1.468 -2.2722  0.1049  0.1242
    1MOL0     H   92  -0.538   8.665   1.383 -1.5805 -0.9052  0.4422
    1MOL0     H   93  -0.552   8.589   1.224 -1.8162 -0.3992  3.0471
    1MOL0     H   94  -0.422   8.663   1.011 -1.0240  0.0474 -2.8042
    1MOL0     H   95  -0.544   8.803   0.854 -0.3351 -2.6018  1.3585
    1MOL0     H   96  -0.839   9.177   0.730  3.3287 -1.0098  0.6243
    1MOL0     H   97  -0.972   9.339   0.666  2.3797 -0.0511 -1.0928
    1MOL0     H   98  -1.139   9.507   0.696  2.3130 -1.4209  0.7488
    1MOL0     H   99  -1.035   9.579   0.567 -1.4940 -0.1221 -1.0600
    1MOL0     H  100  -1.064   9.797   0.628 -1.5440  0.3894 -2.1785
    1MOL0     H  101  -1.191   9.758   0.754 -1.3093  1.4383 -0.3801
    1MOL0     H  102  -1.310   9.617   0.583  1.9833 -1.5490 -0.3290
    1MOL0     H  103  -1.212   9.684   0.456  0.5685 -2.5362  0.9109
    1MOL0     H  104  -1.413   9.820   0.641 -0.0379  3.6152  0.7193
    1MOL0     H  105  -1.294   9.923   0.568  0.2165  0.4528 -1.6684
    1MOL0     H  106  -1.451   9.737   0.385 -1.2419 -0.3478  3.2269
    1MOL0     H  107  -1.352   9.864   0.332 -0.9173 -4.1818 -2.6922
    1MOL0     H  108  -1.611   9.899   0.501  0.3334 -0.8267  0.0315
    1MOL0     H  109  -1.587   9.941   0.333 -0.2182 -3.1316 -0.4958
    1MOL0     H  110  -1.425  10.099   0.534 -2.5230  2.3992  0.5125
    1MOL0     H  111  -1.462  10.127   0.357 -1.4276 -0.0367 -0.7094
    1MOL0     H  112  -1.575  10.270   0.527 -0.6458  0.4261  2.0887
    1MOL0     H  113  -1.653  10.123   0.576  1.5721 -0.1544 -1.1196
    1MOL0     H  114  -0.897   9.572   1.024 -0.2460  1.9133 -1.7503
    1MOL0     H  115  -0.752   9.366   1.104  1.6016 -0.3193 -0.9082
    1MOL0     H  116  -0.530   9.123   1.144 -2.3306  0.5681 -1.8668
    1MOL0     H  117  -0.412   8.964   1.297  1.8885  4.0719 -2.0969
    1MOL0     H  118   0.596   7.490   1.541  1.4734 -1.2119  0.3576
    1MOL0     H  119   0.470   7.333   1.678 -1.8847  0.3423 -2.0839
    1MOL0     H  120   0.276   7.302   2.175  0.5347 -0.6268  0.1734
    1MOL0     H  121   0.237   7.103   2.336 -0.6704 -4.0001 -0.0715
    1MOL0     H  122   0.163   6.687   2.342  4.5166 -0.7312  0.6729
    1MOL0     H  123   0.212   6.695   2.179 -2.6033 -1.2862 -0.4184
    1MOL0     H  124  -0.033   6.821   2.316  0.9034 -1.9423  1.3156
    1MOL0     H  125  -0.007   6.862   2.148  0.1214  0.8865  1.0813
    1MOL0     H  126  -0.013   6.640   2.078  0.8350  3.2139 -0.4516
    1MOL0     H  127  -0.161   6.678   2.179 -0.2794 -1.7459  0.7514
    1MOL0     H  128  -0.093   6.441   2.219  1.5509 -1.9597  1.0736
    1MOL0     H  129   0.056   6.482   2.273 -0.9680 -2.5369 -1.7048
    1MOL0     H  130  -0.221   6.583   2.591 -4.8227  2.5405 -1.8901
    1MOL0     H  131   0.244   6.833   2.015  1.0981 -0.4485  0.6385
    1MOL0     H  132   0.293   7.037   1.844  2.3034  1.0742  0.9134
    2MOL0     O  133   8.069   3.374   8.058 -0.0381 -0.1164 -0.1472
    2MOL0     C  134   8.106   3.330   8.172 -0.1258 -0.8841  0.3183
    2MOL0     O  135   8.026   3.305   8.277 -0.3162  1.0286  0.2512
    2MOL0     C  136   7.891   3.285   8.271 -0.2399  0.2752 -0.0604
    2MOL0     C  137   7.815   3.338   8.371 -0.3128 -0.2982 -0.6985
    2MOL0     C  138   7.676   3.317   8.368  0.2547  0.4369  0.1595
    2MOL0     C  139   7.615   3.231   8.278 -0.5597 -0.3033 -0.1447
    2MOL0     O  140   7.486   3.209   8.279  0.2096 -0.7444 -1.2439
    2MOL0     C  141   7.417   3.246   8.162  0.2458 -0.0407 -1.1670
    2MOL0     C  142   7.288   3.170   8.181  0.9395 -0.5212 -0.0027
    2MOL0     C  143   7.163   3.238   8.135  1.1862 -0.9839 -0.3567
    2MOL0     C  144   7.056   3.219   8.240  0.5600  0.2572  0.0396
    2MOL0     C  145   6.949   3.308   8.198 -0.0764 -0.4005 -0.1213
    2MOL0     C  146   6.824   3.289   8.284 -0.1801 -0.5148  0.5584
    2MOL0     C  147   6.699   3.363   8.231 -0.2171  0.1071  0.6101
    2MOL0     C  148   6.596   3.371   8.335  0.1368 -0.6422 -0.4354
    2MOL0     N  149   6.465   3.405   8.279  0.2543 -0.8418  0.0605
    2MOL0     C  150   6.388   3.325   8.212 -0.5679  1.1962  0.3226
    2MOL0     C  151   6.265   3.387   8.191 -0.1976 -0.0901  1.2517
    2MOL0     C  152   6.163   3.309   8.106 -1.4011  0.1271 -0.3826
    2MOL0     C  153   6.077   3.206   8.191  0.4567  0.4038  0.6793
    2MOL0     C  154   5.943   3.187   8.117  0.2735  0.4017 -0.1204
    2MOL0     C  155   5.840   3.301   8.154 -0.8112  0.3929 -1.1223
    2MOL0     O  156   5.822   3.316   8.297  0.1402 -0.5830 -0.4047
    2MOL0     C  157   5.778   3.437   8.352 -0.0820  0.7265  0.5905
    2MOL0     C  158   5.663   3.494   8.295 -0.4253  1.1497  0.6372
    2MOL0     C  159   5.610   3.610   8.350  0.1545  0.2308  0.7795
    2MOL0     C  160   5.676   3.672   8.448 -0.7553 -0.7877 -0.3116
    2MOL0     C  161   5.618   3.794   8.505  0.6012  0.4160 -0.7302
    2MOL0     O  162   5.654   3.814   8.638  0.2741  0.0032  0.3488
    2MOL0     C  163   5.593   3.911   8.719 -0.5881 -1.0602  0.4933
    2MOL0     C  164   5.665   3.943   8.834 -0.4618 -0.1190 -1.2356
    2MOL0     C  165   5.625   4.061   8.922  0.2370  0.7908  0.0141
    2MOL0     C  166   5.511   4.134   8.884 -0.4424  0.2224 -0.2576
    2MOL0     O  167   5.480   4.233   8.977  0.5774  0.4684  0.1127
    2MOL0     C  168   5.398   4.331   8.917  0.2350 -0.9435 -0.5737
    2MOL0     C  169   5.410   4.467   9.009 -0.5013  0.0321 -0.6690
    2MOL0     C  170   5.308   4.467   9.120 -0.2658 -0.4962 -1.0853
    2MOL0     C  171   5.298   4.608   9.193  0.4576  0.7450 -0.0446
    2MOL0     C  172   5.401   4.644   9.304 -0.0431  0.7354  0.8311
    2MOL0     C  173   5.358   4.764   9.381  0.2283 -0.5331  0.6515
    2MOL0     C  174   5.259   4.746   9.497 -0.3111 -2.2049 -0.2839
    2MOL0     C  175   5.193   4.874   9.530  0.3916 -0.1148 -0.4055
    2MOL0    Cl  176   5.285   4.978   9.638 -0.2737  0.0283  0.4357
    2MOL0     C  177   5.432   4.094   8.772  0.5956  0.4719  0.0579
    2MOL0     C  178   5.472   3.983   8.695 -1.2959  0.0826 -0.9485
    2MOL0     O  179   5.525   3.853   8.447  0.6050 -0.4583 -0.0624
    2MOL0     C  180   5.795   3.614   8.493 -0.1721 -0.2108 -0.7937
    2MOL0     C  181   5.855   3.500   8.445 -0.2287  0.3477  0.5968
    2MOL0     N  182   6.269   3.508   8.245  0.2367  0.9367  0.1122
    2MOL0     N  183   6.395   3.527   8.285  0.0408  0.0726  0.0302
    2MOL0     C  184   7.695   3.162   8.194 -0.1590 -0.2740 -0.9454
    2MOL0     C  185   7.836   3.184   8.198  0.2847 -0.5116  0.1451
    2MOL0     C  186   8.249   3.312   8.190  0.1688  0.5723 -0.4973
    2MOL0     C  187   8.316   3.282   8.074 -0.0948  0.0063  0.8679
    2MOL0     C  188   8.444   3.236   8.068  0.9209  1.0051  0.4383
    2MOL0     C  189   8.518   3.238   8.190 -0.2773  1.5975  0.9222
    2MOL0     O  190   8.657   3.211   8.199  0.2659 -0.0562  0.8792
    2MOL0     C  191   8.696   3.108   8.108 -0.4415  0.0263  0.3778
    2MOL0     C  192   8.823   3.055   8.155 -0.0593  0.0439 -0.8863
    2MOL0     C  193   8.947   3.149   8.168 -0.6696 -0.9916  1.3269
    2MOL0     C  194   8.986   3.198   8.031  0.4432 -0.0191  0.7362
    2MOL0     C  195   9.051   3.095   7.956 -0.1445  0.6853 -0.0263
    2MOL0     C  196   9.103   3.022   7.875  0.2417  0.1274 -0.2560
    2MOL0     C  197   8.464   3.289   8.298 -1.1213  0.6490 -0.7285
    2MOL0     C  198   8.325   3.326   8.309  0.6895 -0.2585 -0.2806
    2MOL0     H  199   7.871   3.405   8.436  0.0174  1.5444 -2.7630
    2MOL0     H  200   7.609   3.368   8.436  0.2567  1.7631 -0.7984
    2MOL0     H  201   7.479   3.223   8.076  0.3015 -2.1370 -0.6126
    2MOL0     H  202   7.397   3.354   8.159  0.9018  0.1642  0.4456
    2MOL0     H  203   7.276   3.127   8.281  3.3663  1.1111  1.0832
    2MOL0     H  204   7.308   3.075   8.130  0.4765 -0.7626  0.2544
    2MOL0     H  205   7.134   3.188   8.043 -1.7677 -2.4358  1.2144
    2MOL0     H  206   7.184   3.346   8.137 -4.2360  0.3962 -1.3149
    2MOL0     H  207   7.019   3.117   8.250 -1.5124  1.1951  4.1925
    2MOL0     H  208   7.089   3.237   8.343  1.7644 -2.3911  0.1946
    2MOL0     H  209   6.916   3.285   8.096 -1.7255  0.8832  0.0758
    2MOL0     H  210   6.991   3.409   8.196 -1.3781  0.1407 -1.1696
    2MOL0     H  211   6.839   3.333   8.383 -1.0199  1.4709 -0.1502
    2MOL0     H  212   6.808   3.182   8.298  1.6060 -0.6765  1.7386
    2MOL0     H  213   6.727   3.465   8.208 -2.2701  0.3050 -1.3378
    2MOL0     H  214   6.672   3.306   8.142  1.7743  0.8160 -0.4842
    2MOL0     H  215   6.625   3.440   8.415  2.8476 -1.2516 -0.8202
    2MOL0     H  216   6.588   3.272   8.381  0.3551  1.1890  4.1572
    2MOL0     H  217   6.414   3.222   8.193 -1.1329  1.1781 -0.4069
    2MOL0     H  218   6.206   3.260   8.019  0.1921 -1.8639  1.4167
    2MOL0     H  219   6.098   3.392   8.077 -0.9358  0.7800  0.4049
    2MOL0     H  220   6.062   3.249   8.291  1.0939  2.0163  0.1267
    2MOL0     H  221   6.126   3.109   8.202 -2.2386 -1.3501 -1.4712
    2MOL0     H  222   5.952   3.186   8.008  0.7601  0.6415 -0.0843
    2MOL0     H  223   5.906   3.088   8.143  0.9017  0.1189 -0.2857
    2MOL0     H  224   5.746   3.253   8.126 -2.5011  0.9099  2.9532
    2MOL0     H  225   5.857   3.394   8.100  2.2172 -0.9329 -2.6595
    2MOL0     H  226   5.616   3.432   8.219  1.1743 -1.7706  1.8601
    2MOL0     H  227   5.521   3.659   8.313 -1.4931 -0.8179  3.1487
    2MOL0     H  228   5.744   3.881   8.875  1.4793  3.2468  0.6089
    2MOL0     H  229   5.697   4.086   9.000  0.3574  0.7569 -0.0858
    2MOL0     H  230   5.298   4.299   8.888  0.2219 -1.0193 -0.4449
    2MOL0     H  231   5.440   4.377   8.827 -0.7686  1.9138  0.3182
    2MOL0     H  232   5.402   4.556   8.946 -2.8788  0.4927  0.1876
    2MOL0     H  233   5.516   4.468   9.037 -0.8086  1.0968  0.5263
    2MOL0     H  234   5.333   4.383   9.186  1.6376  0.3590 -0.6670
    2MOL0     H  235   5.212   4.448   9.070 -0.3820 -1.0857 -0.6554
    2MOL0     H  236   5.317   4.675   9.109 -1.5624 -1.9248 -2.8506
    2MOL0     H  237   5.200   4.616   9.241  0.8186 -2.6433  1.5461
    2MOL0     H  238   5.493   4.658   9.245  0.8380 -3.0243  1.0253
    2MOL0     H  239   5.418   4.557   9.368  1.7675  1.1541  0.9776
    2MOL0     H  240   5.309   4.831   9.310 -1.3499 -1.7481  0.5457
    2MOL0     H  241   5.441   4.818   9.428  0.5700  0.0990 -0.6400
    2MOL0     H  242   5.183   4.679   9.456 -2.2205 -0.6084  0.4735
    2MOL0     H  243   5.306   4.693   9.580 -3.4126 -0.9261  2.5374
    2MOL0     H  244   5.114   4.842   9.599  2.3776  0.2025  2.1591
    2MOL0     H  245   5.167   4.930   9.439  0.0175 -0.6939 -0.6645
    2MOL0     H  246   5.336   4.144   8.760 -0.2023 -0.5282  1.9382
    2MOL0     H  247   5.399   3.955   8.620  0.6507 -2.9001 -1.9152
    2MOL0     H  248   5.859   3.664   8.565  2.9608 -2.6372 -1.6831
    2MOL0     H  249   5.951   3.469   8.485 -0.8712 -0.5348  1.4999
    2MOL0     H  250   7.661   3.093   8.117 -2.3891 -1.8925  1.3385
    2MOL0     H  251   7.890   3.134   8.118 -0.9669 -4.2516  1.4192
    2MOL0     H  252   8.260   3.270   7.981  1.1127  1.0213 -0.0157
    2MOL0     H  253   8.484   3.212   7.970 -4.0248 -2.8832 -1.0200
    2MOL0     H  254   8.722   3.144   8.008  1.7263 -0.4653  0.7175
    2MOL0     H  255   8.618   3.034   8.090  0.4889 -1.5441  2.3836
    2MOL0     H  256   8.790   3.005   8.247  2.4855 -0.9890 -0.4658
    2MOL0     H  257   8.839   2.979   8.079 -1.0726  0.8501 -1.9411
    2MOL0     H  258   9.032   3.092   8.206 -0.7718 -2.5336 -0.5841
    2MOL0     H  259   8.924   3.241   8.222  1.0736  1.4549 -1.7348
    2MOL0     H  260   8.903   3.247   7.979 -0.5334 -0.1359  2.1136
    2MOL0     H  261   9.058   3.280   8.035 -2.6161  2.8502  1.1949
    2MOL0     H  262   9.151   2.952   7.809  2.1163  1.4352 -0.3408
    2MOL0     H  263   8.531   3.302   8.383 -1.5909  2.0881 -0.5491
    2MOL0     H  264   8.294   3.361   8.407 -2.8082 -0.9593 -1.0173
    3MOL0     O  265   5.625   4.378   0.036  0.1237  1.0267  0.6778
    3MOL0     C  266   5.657   4.290   0.120  0.5138 -0.1638 -0.3310
    3MOL0     O  267   5.647   4.165   0.093  0.1222 -0.2163 -0.3724
    3MOL0     C  268   5.583   4.105  -0.017 -0.5092  0.0278  0.0287
    3MOL0     C  269   5.635   4.001  -0.098  0.1074  0.1616  0.2307
    3MOL0     C  270   5.566   3.965  -0.210  0.1960 -0.4554 -1.1983
    3MOL0     C  271   5.434   4.020  -0.240  0.4494 -0.1619  0.1444
    3MOL0     O  272   5.350   3.978  -0.341 -0.0906  0.0987  0.3649
    3MOL0     C  273   5.421   3.925  -0.464  0.4637  0.3164 -0.7452
    3MOL0     C  274   5.326   3.959  -0.588 -0.4139 -0.3090  0.0438
    3MOL0     C  275   5.344   3.877  -0.719  0.0300  0.4318 -0.5087
    3MOL0     C  276   5.484   3.915  -0.773  0.2627  1.0266  0.5633
    3MOL0     C  277   5.488   3.874  -0.928  0.1210  0.2326  0.5036
    3MOL0     C  278   5.631   3.833  -0.952 -0.4179  0.6482  0.3804
    3MOL0     C  279   5.645   3.816  -1.106  0.3610 -0.4518 -0.0205
    3MOL0     C  280   5.749   3.913  -1.162  1.0947 -0.7507  0.2179
    3MOL0     N  281   5.745   3.903  -1.314  1.2663  1.1224 -0.1242
    3MOL0     C  282   5.814   3.819  -1.391  0.3973  0.6982 -0.5602
    3MOL0     C  283   5.769   3.819  -1.518  0.4310 -0.4668 -0.2097
    3MOL0     C  284   5.820   3.740  -1.634  0.1742 -0.4923 -0.8654
    3MOL0     C  285   5.963   3.776  -1.663 -0.2048 -0.2538  1.2889
    3MOL0     C  286   5.998   3.919  -1.706 -0.1788 -0.1761 -0.5855
    3MOL0     C  287   5.953   3.950  -1.853 -0.3414  1.1485  0.3499
    3MOL0     O  288   6.020   3.861  -1.951 -0.1505  0.6544 -0.2862
    3MOL0     C  289   6.029   3.918  -2.073  0.1409 -0.1072  1.3161
    3MOL0     C  290   6.153   3.924  -2.126 -0.4326 -0.0140 -0.2191
    3MOL0     C  291   6.158   3.989  -2.251  0.2543  0.3464  0.8059
    3MOL0     C  292   6.050   4.054  -2.310 -0.9497  0.4404 -0.2883
    3MOL0     C  293   6.071   4.138  -2.431  0.3786 -0.5941  0.2678
    3MOL0     O  294   6.204   4.176  -2.451  0.2655  0.8002  0.1949
    3MOL0     C  295   6.229   4.257  -2.561  1.0196  0.0065 -0.6684
    3MOL0     C  296   6.255   4.200  -2.689  0.2567  0.4495  0.6679
    3MOL0     C  297   6.278   4.276  -2.800 -0.8281  0.6852  0.4266
    3MOL0     C  298   6.301   4.411  -2.789  0.2385 -0.0675  0.4431
    3MOL0     O  299   6.341   4.496  -2.896 -0.1413  0.2512 -0.0601
    3MOL0     C  300   6.277   4.473  -3.015  0.3525  0.7994  0.7588
    3MOL0     C  301   6.383   4.433  -3.106  0.9405 -0.4568  0.6759
    3MOL0     C  302   6.333   4.466  -3.256 -0.7941 -0.1383 -1.0184
    3MOL0     C  303   6.443   4.428  -3.359 -0.4652 -0.2985 -0.1472
    3MOL0     C  304   6.428   4.512  -3.484 -0.9826 -0.4958  0.5551
    3MOL0     C  305   6.318   4.458  -3.585 -0.5617 -1.1230  0.2493
    3MOL0     C  306   6.180   4.501  -3.546 -0.0793 -0.6657  0.6267
    3MOL0     C  307   6.100   4.515  -3.681 -0.0435  0.3383  0.2507
    3MOL0    Cl  308   6.059   4.345  -3.741 -0.1156 -0.1046  0.3656
    3MOL0     C  309   6.295   4.467  -2.654  0.5447  0.5759 -0.4638
    3MOL0     C  310   6.252   4.392  -2.539 -1.2978 -0.0121  0.2564
    3MOL0     O  311   5.969   4.204  -2.468  0.4734  0.9142 -0.2270
    3MOL0     C  312   5.920   4.030  -2.256  1.2021 -0.0888  0.5096
    3MOL0     C  313   5.913   3.951  -2.146  0.5509 -0.3449 -1.3786
    3MOL0     N  314   5.669   3.914  -1.520  0.2559  0.1722  0.1663
    3MOL0     N  315   5.654   3.966  -1.399 -0.0552  0.5797  0.9805
    3MOL0     C  316   5.378   4.112  -0.148  0.6368  0.9936 -0.5000
    3MOL0     C  317   5.457   4.152  -0.044 -1.0906  0.3577  0.1927
    3MOL0     C  318   5.696   4.335   0.254  0.3698 -0.0883  0.0259
    3MOL0     C  319   5.711   4.237   0.355 -0.4145 -0.1895  0.3865
    3MOL0     C  320   5.766   4.259   0.477 -0.5496 -1.0828 -0.0254
    3MOL0     C  321   5.782   4.394   0.517 -0.7093 -0.0780 -0.9145
    3MOL0     O  322   5.817   4.412   0.649  0.8586  0.3890 -0.6821
    3MOL0     C  323   5.855   4.542   0.701 -0.0101 -0.6126  0.0461
    3MOL0     C  324   5.884   4.530   0.852 -0.1539 -0.2872  0.7549
    3MOL0     C  325   5.899   4.673   0.921  0.0956 -0.6930 -0.3452
    3MOL0     C  326   5.859   4.665   1.070 -0.1482 -0.5752  1.0892
    3MOL0     C  327   5.850   4.802   1.125  0.3123 -0.6179  0.3576
    3MOL0     C  328   5.833   4.920   1.170 -0.4656 -0.1851 -0.8504
    3MOL0     C  329   5.767   4.497   0.422  0.2886 -0.2467  1.5071
    3MOL0     C  330   5.715   4.468   0.296  0.2941 -1.5617  0.1753
    3MOL0     H  331   5.719   3.944  -0.061 -0.6507 -1.1962 -0.0703
    3MOL0     H  332   5.610   3.880  -0.262 -0.9706 -1.8068 -0.0581
    3MOL0     H  333   5.425   3.817  -0.447  2.1355  0.6458  1.3914
    3MOL0     H  334   5.519   3.971  -0.482  0.9664  0.0246  1.1042
    3MOL0     H  335   5.336   4.064  -0.615  3.5726 -0.8523 -1.1511
    3MOL0     H  336   5.225   3.933  -0.555 -1.8008  1.3171 -2.5490
    3MOL0     H  337   5.267   3.901  -0.794 -0.2222  1.9255  0.1929
    3MOL0     H  338   5.323   3.773  -0.694 -1.8017  0.7962 -0.3383
    3MOL0     H  339   5.501   4.022  -0.766 -1.1927  1.1673  5.4978
    3MOL0     H  340   5.554   3.852  -0.718 -0.9442 -1.8226 -0.9139
    3MOL0     H  341   5.466   3.966  -0.984 -0.8495 -1.6301 -2.4033
    3MOL0     H  342   5.422   3.790  -0.949  0.7978 -0.0991 -0.3782
    3MOL0     H  343   5.656   3.735  -0.911 -4.3550 -1.1460 -1.0715
    3MOL0     H  344   5.702   3.909  -0.917 -2.3918  3.2281 -0.8294
    3MOL0     H  345   5.696   3.722  -1.126 -2.7489 -1.8538 -2.0403
    3MOL0     H  346   5.549   3.824  -1.157  0.5760 -2.3024 -0.7836
    3MOL0     H  347   5.851   3.889  -1.131  2.1462  2.3634 -0.4588
    3MOL0     H  348   5.721   4.015  -1.136 -4.6964 -1.6592 -0.8733
    3MOL0     H  349   5.896   3.755  -1.362  0.1218  1.5379  2.4816
    3MOL0     H  350   5.747   3.765  -1.712 -0.9786  1.8520  0.8121
    3MOL0     H  351   5.819   3.633  -1.612  2.8602  0.0228  2.6650
    3MOL0     H  352   5.997   3.705  -1.738 -0.4652 -3.9516  4.3803
    3MOL0     H  353   6.017   3.749  -1.571  2.5183  1.4840  0.3117
    3MOL0     H  354   5.956   3.982  -1.627  2.4192  0.1070  0.6872
    3MOL0     H  355   6.107   3.927  -1.708 -0.2425  1.3592  0.5304
    3MOL0     H  356   5.971   4.054  -1.880  1.5223 -0.3216 -5.4415
    3MOL0     H  357   5.844   3.948  -1.859 -0.2930  0.0511 -0.3900
    3MOL0     H  358   6.240   3.893  -2.069 -1.1004  3.2876  2.9663
    3MOL0     H  359   6.251   4.005  -2.305  1.6682  1.9819  3.5286
    3MOL0     H  360   6.247   4.093  -2.705 -0.4773  0.7663 -1.3462
    3MOL0     H  361   6.301   4.234  -2.898  4.1875 -1.3203  2.1240
    3MOL0     H  362   6.230   4.564  -3.054 -0.6271  1.2951  2.9315
    3MOL0     H  363   6.193   4.403  -3.009  1.9835 -1.9817 -3.8201
    3MOL0     H  364   6.401   4.325  -3.101  0.4340 -1.0254 -4.2485
    3MOL0     H  365   6.472   4.491  -3.078  1.1886 -0.4172 -0.1610
    3MOL0     H  366   6.295   4.568  -3.270 -1.9895 -0.6128 -1.3024
    3MOL0     H  367   6.250   4.398  -3.274 -0.3431 -1.2933  0.9251
    3MOL0     H  368   6.544   4.420  -3.319 -0.6331  0.6463  0.4807
    3MOL0     H  369   6.414   4.324  -3.380 -3.7717  0.7020 -1.1028
    3MOL0     H  370   6.514   4.478  -3.542 -2.3347 -3.9903  0.3473
    3MOL0     H  371   6.430   4.618  -3.456 -0.6263 -0.4111  0.2305
    3MOL0     H  372   6.318   4.349  -3.589 -0.2800 -1.4199  4.1168
    3MOL0     H  373   6.341   4.502  -3.683 -2.9520  1.1737  0.6040
    3MOL0     H  374   6.138   4.422  -3.484 -0.6336  0.3547  1.5927
    3MOL0     H  375   6.192   4.594  -3.488  1.1612 -2.1567  2.9117
    3MOL0     H  376   6.150   4.579  -3.755  3.7532 -2.8955 -0.3303
    3MOL0     H  377   6.003   4.566  -3.673 -0.4103 -0.5333  1.7760
    3MOL0     H  378   6.304   4.575  -2.643  0.6240  0.6793 -1.4473
    3MOL0     H  379   6.236   4.420  -2.436 -2.7950 -0.2711  0.1216
    3MOL0     H  380   5.828   4.076  -2.291  0.8297  0.2065  1.8103
    3MOL0     H  381   5.820   3.952  -2.090  2.1750 -1.3903  1.6009
    3MOL0     H  382   5.285   4.168  -0.152  0.6662  0.9788 -1.5596
    3MOL0     H  383   5.415   4.225   0.025  2.8834  1.3778  1.8302
    3MOL0     H  384   5.697   4.134   0.325 -2.3985 -0.1681  1.1403
    3MOL0     H  385   5.787   4.179   0.548 -0.2075 -1.8240 -0.9380
    3MOL0     H  386   5.780   4.620   0.685 -0.1084 -0.0562  2.7006
    3MOL0     H  387   5.936   4.580   0.637 -3.4757  1.9321 -3.3532
    3MOL0     H  388   5.801   4.476   0.898 -0.4693 -0.2464  0.2407
    3MOL0     H  389   5.978   4.476   0.871  1.1299  1.8020  0.7305
    3MOL0     H  390   5.843   4.753   0.872 -4.2161 -1.1601  3.1903
    3MOL0     H  391   6.003   4.706   0.928 -0.5883  1.2595  1.7223
    3MOL0     H  392   5.772   4.600   1.082  0.4650 -1.3689  1.4526
    3MOL0     H  393   5.934   4.601   1.119 -0.8077 -1.7405  0.6052
    3MOL0     H  394   5.833   5.021   1.207  1.0896 -0.5370  0.2177
    3MOL0     H  395   5.776   4.600   0.454 -2.7086  0.9809 -1.1488
    3MOL0     H  396   5.682   4.540   0.222 -0.5126 -0.3699  1.6441
    4MOL0     O  397  11.429   9.212   1.183  0.2696 -0.1269 -0.1451
    4MOL0     C  398  11.360   9.145   1.111  0.8110  0.3913  0.5348
    4MOL0     O  399  11.347   9.007   1.108  0.2959 -0.2584 -0.0517
    4MOL0     C  400  11.429   8.917   1.173 -0.2303 -0.2670 -0.3200
    4MOL0     C  401  11.527   8.946   1.260 -0.5503 -0.1583 -0.5764
    4MOL0     C  402  11.594   8.840   1.326  0.6813  0.0232  0.2413
    4MOL0     C  403  11.583   8.701   1.291 -0.5935 -0.2558  0.0515
    4MOL0     O  404  11.644   8.597   1.350 -0.1499  0.4904 -0.4666
    4MOL0     C  405  11.782   8.613   1.385  0.1511  1.1738  0.4081
    4MOL0     C  406  11.867   8.570   1.262  0.4527 -0.7111  0.7445
    4MOL0     C  407  12.005   8.533   1.300  0.3984 -0.2083  0.2497
    4MOL0     C  408  12.060   8.619   1.408 -0.1654 -0.9253 -0.3751
    4MOL0     C  409  12.210   8.602   1.425  0.0731  0.1674 -0.8099
    4MOL0     C  410  12.265   8.703   1.525 -0.9248  0.0339  0.3437
    4MOL0     C  411  12.281   8.850   1.461 -0.0728  0.4354 -0.5703
    4MOL0     C  412  12.303   8.955   1.568 -0.1634  0.6322 -0.4706
    4MOL0     N  413  12.386   8.901   1.688 -0.4165 -0.0585  0.1150
    4MOL0     C  414  12.341   8.858   1.809  0.0733 -0.7652 -0.2283
    4MOL0     C  415  12.450   8.846   1.892 -0.4436  0.7036  1.0074
    4MOL0     C  416  12.449   8.790   2.032 -0.1183 -0.0697 -0.2087
    4MOL0     C  417  12.593   8.754   2.092 -0.4239  0.2640  0.1026
    4MOL0     C  418  12.691   8.871   2.087  0.5407 -0.2745  0.8093
    4MOL0     C  419  12.783   8.873   2.207  1.0405  0.6198  0.1738
    4MOL0     O  420  12.900   8.813   2.176  0.1128 -0.1818  0.2107
    4MOL0     C  421  12.997   8.812   2.271  0.6561  1.2282  0.3887
    4MOL0     C  422  13.121   8.755   2.235  0.6046 -0.4451 -0.9857
    4MOL0     C  423  13.222   8.752   2.326  0.8019 -0.0598 -0.1056
    4MOL0     C  424  13.216   8.794   2.460  1.0660 -0.4111 -0.0775
    4MOL0     C  425  13.317   8.759   2.554  0.4540 -1.0452 -1.5892
    4MOL0     O  426  13.322   8.827   2.675  0.4732 -0.0626 -0.3071
    4MOL0     C  427  13.420   8.786   2.764  0.6431 -0.6370  1.2317
    4MOL0     C  428  13.444   8.655   2.800 -0.1648  0.6984 -0.3688
    4MOL0     C  429  13.529   8.624   2.910 -0.1044 -0.3558 -0.3876
    4MOL0     C  430  13.592   8.728   2.990 -0.4974  0.3720  1.4035
    4MOL0     O  431  13.667   8.682   3.097  0.1612 -0.2385  0.6382
    4MOL0     C  432  13.743   8.779   3.173  0.6607 -0.2019  0.6636
    4MOL0     C  433  13.841   8.708   3.280  0.0021 -0.7181 -0.1889
    4MOL0     C  434  13.907   8.814   3.362 -0.0248  0.1066 -0.2341
    4MOL0     C  435  14.013   8.894   3.282 -0.6330  0.1616 -0.4744
    4MOL0     C  436  14.138   8.923   3.368  0.4146 -0.1857  0.7045
    4MOL0     C  437  14.112   9.017   3.492  0.2909  0.7881 -0.4754
    4MOL0     C  438  14.238   8.999   3.592  0.0523 -0.0509  0.2974
    4MOL0     C  439  14.260   8.858   3.658 -0.3633  0.7397  0.4892
    4MOL0    Cl  440  14.119   8.779   3.732  0.3935  0.2598 -0.0160
    4MOL0     C  441  13.568   8.864   2.947 -0.8103  0.4747  0.1161
    4MOL0     C  442  13.484   8.881   2.829  0.0444 -0.1206 -0.2148
    4MOL0     O  443  13.388   8.666   2.526  0.1243 -0.3725 -0.3243
    4MOL0     C  444  13.087   8.848   2.500 -0.8124  0.0576 -0.0907
    4MOL0     C  445  12.984   8.868   2.404  0.4176  1.1868 -0.3496
    4MOL0     N  446  12.557   8.897   1.817 -0.1681  0.1091 -0.6800
    4MOL0     N  447  12.519   8.923   1.695  0.4911  0.3947  0.3720
    4MOL0     C  448  11.479   8.674   1.202  0.3356 -0.1559 -0.9129
    4MOL0     C  449  11.405   8.779   1.144  0.3182 -0.2127  0.3441
    4MOL0     C  450  11.263   9.213   1.008 -0.2673  0.3381 -0.2299
    4MOL0     C  451  11.199   9.143   0.909 -0.3289 -0.1909 -0.3357
    4MOL0     C  452  11.120   9.207   0.819 -0.9050 -0.1784 -0.1169
    4MOL0     C  453  11.095   9.349   0.821 -0.3352 -0.4543  0.0944
    4MOL0     O  454  11.019   9.422   0.737  0.1858 -0.1684 -0.4448
    4MOL0     C  455  10.988   9.358   0.616  0.0704 -0.1030  0.3962
    4MOL0     C  456  10.940   9.462   0.525 -0.1067 -0.2154 -0.6738
    4MOL0     C  457  10.799   9.507   0.579  0.1447 -1.4183 -0.0796
    4MOL0     C  458  10.753   9.611   0.479  0.1650  0.2408  0.3960
    4MOL0     C  459  10.712   9.545   0.353  1.1891 -0.0313 -0.6467
    4MOL0     C  460  10.694   9.492   0.246  0.8413 -0.1513  0.8309
    4MOL0     C  461  11.153   9.416   0.925  0.0415  0.3367 -0.8724
    4MOL0     C  462  11.239   9.352   1.017  0.8173  0.0354  0.7950
    4MOL0     H  463  11.565   9.048   1.268 -0.4514 -0.2547  0.2221
    4MOL0     H  464  11.653   8.870   1.412 -2.3781  2.0133  1.7989
    4MOL0     H  465  11.806   8.541   1.464  2.2583  1.5362  0.1612
    4MOL0     H  466  11.810   8.712   1.420 -1.9991  1.1553  2.3991
    4MOL0     H  467  11.872   8.659   1.198  1.5322 -0.2098  1.5103
    4MOL0     H  468  11.830   8.489   1.198  1.8925 -1.6722  1.0827
    4MOL0     H  469  12.067   8.543   1.210  0.6709  2.4153  0.6671
    4MOL0     H  470  12.015   8.429   1.331  2.5414  0.3835  1.6850
    4MOL0     H  471  12.037   8.721   1.377  0.7155  0.4782  3.1950
    4MOL0     H  472  12.015   8.597   1.505 -0.5102 -0.7701 -0.4962
    4MOL0     H  473  12.249   8.623   1.325 -0.3346  1.3712 -0.7398
    4MOL0     H  474  12.232   8.500   1.457 -0.5413  0.2949  0.0713
    4MOL0     H  475  12.361   8.663   1.558 -0.1853 -2.1002 -3.6799
    4MOL0     H  476  12.203   8.708   1.614 -1.5058  1.6204 -0.1118
    4MOL0     H  477  12.370   8.849   1.398  1.3993 -0.6047  1.4278
    4MOL0     H  478  12.196   8.882   1.400 -2.0075 -0.5229  1.4588
    4MOL0     H  479  12.201   8.971   1.602  0.7498 -0.2237  3.0215
    4MOL0     H  480  12.350   9.044   1.525  3.1350  0.1340  1.7093
    4MOL0     H  481  12.238   8.836   1.832  0.0116  0.8522  1.2744
    4MOL0     H  482  12.383   8.703   2.026 -2.7007  1.8581 -3.9276
    4MOL0     H  483  12.394   8.855   2.101 -1.7751 -0.8507 -0.7456
    4MOL0     H  484  12.627   8.664   2.039 -3.7929 -0.2309 -1.5481
    4MOL0     H  485  12.582   8.728   2.198  1.3242  3.0514  1.0684
    4MOL0     H  486  12.746   8.860   1.993 -2.8705 -0.8381 -1.2592
    4MOL0     H  487  12.642   8.969   2.083  1.2670  0.1163  1.2453
    4MOL0     H  488  12.743   8.810   2.287  0.8481 -0.6816 -0.9247
    4MOL0     H  489  12.793   8.976   2.243  0.6973 -0.6652  4.5809
    4MOL0     H  490  13.143   8.718   2.136  1.5249 -0.4698 -0.7790
    4MOL0     H  491  13.315   8.712   2.286  3.1497  4.1383  0.5848
    4MOL0     H  492  13.399   8.570   2.750  0.6749  1.8823 -3.3665
    4MOL0     H  493  13.554   8.522   2.937 -0.3966 -0.6085 -1.0559
    4MOL0     H  494  13.673   8.842   3.229  1.5511  3.5883 -2.0646
    4MOL0     H  495  13.792   8.848   3.105 -0.9419  1.8635  1.4960
    4MOL0     H  496  13.900   8.634   3.225 -0.8030 -0.9045 -0.8221
    4MOL0     H  497  13.779   8.644   3.345  0.2634  0.1023  0.9042
    4MOL0     H  498  13.963   8.761   3.439  1.2270 -0.9988 -1.8305
    4MOL0     H  499  13.834   8.867   3.424  0.0822  0.2576 -0.2362
    4MOL0     H  500  14.049   8.836   3.197  0.9800  0.5694 -0.1250
    4MOL0     H  501  13.980   8.995   3.257  0.7926  0.3907 -1.5916
    4MOL0     H  502  14.223   8.966   3.315  1.0984  2.0689  3.4110
    4MOL0     H  503  14.168   8.820   3.388  2.7350 -0.9197 -4.6723
    4MOL0     H  504  14.014   9.004   3.538 -1.6339  0.7530 -4.2292
    4MOL0     H  505  14.125   9.116   3.447  5.4562 -0.4442 -2.4152
    4MOL0     H  506  14.331   9.028   3.542 -1.9819  5.8726 -0.7685
    4MOL0     H  507  14.215   9.057   3.681 -2.2709 -0.4155 -0.0112
    4MOL0     H  508  14.337   8.871   3.734  0.3966 -2.2045  0.3610
    4MOL0     H  509  14.298   8.795   3.577  0.0992  0.4391  0.9356
    4MOL0     H  510  13.602   8.946   3.010 -1.0291  1.6177 -1.1975
    4MOL0     H  511  13.459   8.983   2.803  1.4151 -0.2052 -2.0537
    4MOL0     H  512  13.073   8.888   2.600 -0.1191 -0.4551  0.2146
    4MOL0     H  513  12.885   8.896   2.440 -0.2418 -1.7724  0.4503
    4MOL0     H  514  11.453   8.575   1.166  1.7361 -0.8278 -0.1711
    4MOL0     H  515  11.315   8.760   1.087 -0.6948  1.5050  1.3069
    4MOL0     H  516  11.219   9.036   0.912  0.5482 -0.0457 -0.6457
    4MOL0     H  517  11.064   9.149   0.746 -2.0211  0.3580  0.3047
    4MOL0     H  518  10.916   9.278   0.637 -0.8811 -0.5771 -3.8888
    4MOL0     H  519  11.074   9.309   0.569 -2.3217 -0.9993 -3.4585
    4MOL0     H  520  11.017   9.539   0.514 -1.5997  1.3381 -0.7961
    4MOL0     H  521  10.924   9.414   0.428 -1.3396 -1.4470  0.0952
    4MOL0     H  522  10.793   9.551   0.679 -5.8469  1.9658 -1.4372
    4MOL0     H  523  10.722   9.430   0.576 -2.9324  1.4390 -0.4771
    4MOL0     H  524  10.662   9.656   0.519 -0.7674 -2.5114  1.6274
    4MOL0     H  525  10.828   9.688   0.459 -0.0038  0.3018 -0.0210
    4MOL0     H  526  10.694   9.450   0.147  3.9260 -1.1597  1.1445
    4MOL0     H  527  11.113   9.515   0.943 -0.9787 -0.1348 -0.5002
    4MOL0     H  528  11.285   9.418   1.089 -0.0024  1.2888  0.2046
    5MOL0     O  529   8.738   0.689   8.436  0.2610  0.1524  0.4574
    5MOL0     C  530   8.687   0.767   8.357  0.0234  0.5517  0.7228
    5MOL0     O  531   8.716   0.904   8.356  0.0250  0.1623 -0.6485
    5MOL0     C  532   8.790   0.954   8.461  1.4415 -0.6259  0.5229
    5MOL0     C  533   8.907   1.030   8.427 -0.3901 -0.5838  0.0152
    5MOL0     C  534   8.977   1.098   8.531  0.4635  0.4937 -0.2150
    5MOL0     C  535   8.931   1.096   8.662 -0.2718  0.2131  0.1825
    5MOL0     O  536   9.034   1.148   8.745 -0.1679  0.5103 -0.0518
    5MOL0     C  537   9.003   1.176   8.884 -0.0167  0.5351 -0.3273
    5MOL0     C  538   9.107   1.275   8.924  0.6140  1.0223 -0.5316
    5MOL0     C  539   9.121   1.288   9.073  0.6403  0.5952 -0.6495
    5MOL0     C  540   9.228   1.392   9.112 -0.2336  0.6637  0.1097
    5MOL0     C  541   9.261   1.400   9.256 -0.2066  0.1369  1.2033
    5MOL0     C  542   9.359   1.522   9.271 -0.6547 -0.9841 -0.7425
    5MOL0     C  543   9.377   1.548   9.423  0.0063  0.3875 -0.0046
    5MOL0     C  544   9.251   1.579   9.497  0.1705  0.6266  0.5872
    5MOL0     N  545   9.273   1.604   9.637  0.1020  0.2133 -0.1974
    5MOL0     C  546   9.310   1.726   9.702  0.0212 -0.2781  0.3830
    5MOL0     C  547   9.329   1.690   9.830 -1.2608 -0.4824  0.2260
    5MOL0     C  548   9.373   1.777   9.947 -0.3488  0.1956 -0.4047
    5MOL0     C  549   9.509   1.836   9.933  0.5598 -0.2408 -0.4947
    5MOL0     C  550   9.614   1.712   9.924  0.1976  0.2426 -0.1589
    5MOL0     C  551   9.742   1.767   9.879  0.3556 -0.1238 -0.0491
    5MOL0     O  552   9.730   1.792   9.737  0.8949 -1.0726  0.5166
    5MOL0     C  553   9.718   1.913   9.683  0.5896  0.4591  0.0460
    5MOL0     C  554   9.801   2.013   9.727 -0.3201 -0.6978 -1.0011
    5MOL0     C  555   9.796   2.139   9.657 -0.9245 -0.0352  0.6929
    5MOL0     C  556   9.707   2.162   9.551 -0.1483 -1.0810  0.7009
    5MOL0     C  557   9.702   2.298   9.495  0.2857 -0.5917 -0.3336
    5MOL0     O  558   9.749   2.407   9.565 -0.3274 -0.1655  0.2846
    5MOL0     C  559   9.776   2.517   9.490 -0.3818 -0.9091 -0.0674
    5MOL0     C  560   9.894   2.539   9.400  0.0615 -0.3618 -0.3092
    5MOL0     C  561   9.906   2.658   9.322 -0.0632  0.4649  0.7924
    5MOL0     C  562   9.813   2.757   9.345  0.9214 -0.6485  0.1470
    5MOL0     O  563   9.829   2.866   9.267 -0.1721  0.6807 -0.6224
    5MOL0     C  564   9.727   2.956   9.228 -0.1639  1.3018  0.7870
    5MOL0     C  565   9.801   3.078   9.181 -0.3595  0.3234  0.5130
    5MOL0     C  566   9.867   3.070   9.041  0.1299  0.0106  0.3464
    5MOL0     C  567   9.971   3.178   9.007 -0.2620 -0.0231 -0.5433
    5MOL0     C  568  10.014   3.185   8.865  0.2461 -0.1973  0.1823
    5MOL0     C  569   9.909   3.267   8.775 -1.0198  0.8905 -0.7541
    5MOL0     C  570   9.937   3.243   8.629  0.0215  0.4192 -0.0147
    5MOL0     C  571   9.918   3.100   8.580  0.0704  0.9733  0.4055
    5MOL0    Cl  572   9.740   3.050   8.585 -0.5243 -0.2080  0.0086
    5MOL0     C  573   9.698   2.735   9.429 -0.6121  0.1290  0.3818
    5MOL0     C  574   9.679   2.620   9.501  0.2025 -0.7317 -0.0627
    5MOL0     O  575   9.667   2.300   9.384  0.1841 -0.3285  0.1764
    5MOL0     C  576   9.617   2.063   9.522 -0.2148  0.8037  0.1244
    5MOL0     C  577   9.621   1.938   9.584  0.0720  0.5246 -0.7684
    5MOL0     N  578   9.300   1.557   9.847  0.1586  0.8298 -0.5813
    5MOL0     N  579   9.264   1.502   9.732 -0.5454 -0.3486 -0.1034
    5MOL0     C  580   8.811   1.030   8.693  0.7747  0.0752 -0.7142
    5MOL0     C  581   8.749   0.963   8.593  0.3481 -0.8848 -1.1368
    5MOL0     C  582   8.584   0.718   8.256  0.7699 -0.0600  0.0368
    5MOL0     C  583   8.510   0.594   8.287 -0.6409 -0.0452  0.3011
    5MOL0     C  584   8.401   0.544   8.206  0.8228 -0.1974 -0.7243
    5MOL0     C  585   8.352   0.624   8.104 -0.0310  0.2919  0.9408
    5MOL0     O  586   8.247   0.596   8.023  0.6015  0.0354  0.1187
    5MOL0     C  587   8.229   0.447   8.018 -0.1702  0.2878 -0.6410
    5MOL0     C  588   8.128   0.402   7.909 -0.5866 -0.1976 -0.6579
    5MOL0     C  589   7.988   0.393   7.965 -0.4141 -0.3837  0.4134
    5MOL0     C  590   7.931   0.533   7.996  0.3441 -0.6607  0.8778
    5MOL0     C  591   7.789   0.530   8.039  0.3526 -1.4085  0.8354
    5MOL0     C  592   7.675   0.520   8.083 -0.4336 -0.8168 -0.6364
    5MOL0     C  593   8.417   0.743   8.070 -1.1173  0.1674 -1.3711
    5MOL0     C  594   8.530   0.790   8.147 -0.2813 -0.4384  0.6705
    5MOL0     H  595   8.934   1.037   8.322  2.7252  4.3193  0.8365
    5MOL0     H  596   9.071   1.147   8.511  0.3186  1.4097  1.1679
    5MOL0     H  597   9.002   1.087   8.947  0.4974  0.8635  0.1489
    5MOL0     H  598   8.904   1.222   8.882 -1.1405 -1.5134  2.2838
    5MOL0     H  599   9.093   1.370   8.871 -0.4230  4.0614  4.5407
    5MOL0     H  600   9.212   1.253   8.904  0.4472  2.7540 -4.3606
    5MOL0     H  601   9.147   1.188   9.106 -0.0612 -0.3873 -2.8470
    5MOL0     H  602   9.031   1.326   9.124  0.9326  0.3615  0.0475
    5MOL0     H  603   9.321   1.383   9.054 -0.5862  2.2788 -0.7634
    5MOL0     H  604   9.192   1.484   9.066 -2.3465 -0.2783 -0.2523
    5MOL0     H  605   9.307   1.306   9.287 -1.2283 -0.9084 -0.3050
    5MOL0     H  606   9.162   1.404   9.303 -0.3922  1.5397  0.7544
    5MOL0     H  607   9.303   1.606   9.229 -2.8818  0.2679  4.1260
    5MOL0     H  608   9.449   1.503   9.211  1.4684 -1.3147  2.2932
    5MOL0     H  609   9.430   1.461   9.463 -0.8359 -1.1472 -2.0912
    5MOL0     H  610   9.437   1.638   9.440 -1.2323  1.2287  0.0846
    5MOL0     H  611   9.176   1.500   9.486 -0.8551  1.9346 -3.4834
    5MOL0     H  612   9.214   1.675   9.459 -1.4492  0.0941  0.7481
    5MOL0     H  613   9.316   1.826   9.659 -0.0254  1.6593  4.3515
    5MOL0     H  614   9.355   1.734  10.046 -0.4746  1.7312  0.2697
    5MOL0     H  615   9.309   1.866   9.942 -1.9322 -0.9408 -1.5054
    5MOL0     H  616   9.527   1.880  10.032 -0.5536 -1.1628  0.1462
    5MOL0     H  617   9.512   1.906   9.850  1.2937  0.0893 -0.1957
    5MOL0     H  618   9.614   1.667  10.023 -2.8392 -0.8007 -0.5172
    5MOL0     H  619   9.578   1.645   9.845  3.8285  0.8604 -2.6341
    5MOL0     H  620   9.823   1.696   9.894 -2.3386 -3.6766 -1.1342
    5MOL0     H  621   9.759   1.858   9.938 -3.2174  1.6766 -1.4827
    5MOL0     H  622   9.883   2.003   9.796 -0.8683 -1.3460 -0.4369
    5MOL0     H  623   9.849   2.228   9.689 -2.0824  2.2268 -3.0428
    5MOL0     H  624   9.966   2.460   9.385  0.8819  0.2641  0.2448
    5MOL0     H  625   9.984   2.666   9.248 -0.6144 -0.1730  0.1340
    5MOL0     H  626   9.664   2.993   9.309 -0.5846 -1.1501  1.6856
    5MOL0     H  627   9.664   2.908   9.153 -2.2949  1.1268  2.5795
    5MOL0     H  628   9.877   3.102   9.256 -1.2341 -1.1523  1.9477
    5MOL0     H  629   9.729   3.160   9.188 -2.5777 -1.5940  1.3212
    5MOL0     H  630   9.787   3.046   8.970 -0.2527 -2.9169  1.6231
    5MOL0     H  631   9.929   2.980   9.042 -2.2321 -1.7285 -0.1233
    5MOL0     H  632   9.925   3.270   9.046 -2.8653  0.0520 -3.3191
    5MOL0     H  633  10.061   3.170   9.067  0.4214  0.5085 -1.4641
    5MOL0     H  634  10.051   3.086   8.835 -1.7585 -1.1401  0.5929
    5MOL0     H  635  10.097   3.255   8.870 -1.1872  1.6011  5.5106
    5MOL0     H  636   9.904   3.372   8.803 -1.5061  0.4552  0.9000
    5MOL0     H  637   9.809   3.222   8.783 -1.9968  1.9689 -4.7080
    5MOL0     H  638   9.890   3.316   8.563 -2.9077 -1.1999  0.0877
    5MOL0     H  639  10.044   3.254   8.610 -0.2609 -0.6455 -2.8886
    5MOL0     H  640   9.970   3.025   8.639 -0.8743  0.4807  0.6381
    5MOL0     H  641   9.942   3.097   8.473  0.5469 -2.0631  0.5040
    5MOL0     H  642   9.619   2.809   9.441  1.0024  1.8217  1.1994
    5MOL0     H  643   9.596   2.586   9.561  0.9445 -1.6200  0.4995
    5MOL0     H  644   9.539   2.082   9.449 -3.0157  0.6391  2.8782
    5MOL0     H  645   9.547   1.865   9.554 -1.1644  1.0566  0.8297
    5MOL0     H  646   8.790   1.022   8.799  0.3943  2.7794 -0.5150
    5MOL0     H  647   8.664   0.906   8.630  0.4253 -0.4241 -0.2179
    5MOL0     H  648   8.538   0.540   8.376  2.4282 -0.2184 -0.6742
    5MOL0     H  649   8.343   0.476   8.267 -0.7688  1.4795 -0.2984
    5MOL0     H  650   8.192   0.416   8.116 -1.6560  2.9450 -0.2430
    5MOL0     H  651   8.319   0.388   7.998 -0.2786 -0.7124  1.4934
    5MOL0     H  652   8.128   0.466   7.820 -5.0273  2.4909  0.9620
    5MOL0     H  653   8.164   0.307   7.868  0.8159 -1.8743  3.9041
    5MOL0     H  654   7.986   0.317   8.043 -1.7439 -2.4378 -1.5044
    5MOL0     H  655   7.923   0.340   7.894 -1.1248  1.0368 -0.0562
    5MOL0     H  656   7.984   0.588   8.074 -0.4795  0.7501  0.4864
    5MOL0     H  657   7.940   0.596   7.907 -1.0911 -1.0154  0.4570
    5MOL0     H  658   7.581   0.507   8.132  0.4278 -4.4164  0.3661
    5MOL0     H  659   8.398   0.796   7.977  1.9109 -0.7528 -2.6317
    5MOL0     H  660   8.586   0.881   8.124 -0.1715 -0.5962  0.3021
    6MOL0     O  661   2.071   8.616   1.462  0.2307  0.2464  0.2714
    6MOL0     C  662   2.053   8.496   1.447  0.2297  0.4302  0.5265
    6MOL0     O  663   1.934   8.436   1.417 -0.3920  0.5660  0.2712
    6MOL0     C  664   1.838   8.518   1.354 -0.2697  0.3606  0.5818
    6MOL0     C  665   1.840   8.521   1.220  0.3806 -0.2268  0.9217
    6MOL0     C  666   1.749   8.600   1.151  0.0137 -0.0729  0.6528
    6MOL0     C  667   1.674   8.700   1.221  0.1005  0.0070 -0.3452
    6MOL0     O  668   1.576   8.778   1.170 -0.5813  0.2948  0.5180
    6MOL0     C  669   1.531   8.748   1.038  0.5571 -0.0624  0.7842
    6MOL0     C  670   1.443   8.864   0.988  0.0395 -0.5176 -0.6539
    6MOL0     C  671   1.514   8.932   0.876 -0.6496 -0.1800  0.0243
    6MOL0     C  672   1.425   9.028   0.796 -0.6024 -0.2493  0.2598
    6MOL0     C  673   1.509   9.122   0.717  0.6759  0.1757  0.1038
    6MOL0     C  674   1.609   9.075   0.618  0.7630  0.5339  0.1927
    6MOL0     C  675   1.717   9.185   0.590  0.0950  0.2831  0.3552
    6MOL0     C  676   1.831   9.193   0.692 -0.6553  0.3934 -0.3727
    6MOL0     N  677   1.868   9.328   0.723  0.3130 -1.0806  0.0617
    6MOL0     C  678   1.837   9.393   0.830  0.2830  0.2718  0.1702
    6MOL0     C  679   1.904   9.509   0.838 -0.6137  0.3351  0.0985
    6MOL0     C  680   1.908   9.625   0.936 -0.1354  1.3131 -0.6216
    6MOL0     C  681   1.776   9.698   0.941  0.6202  0.4057  0.6320
    6MOL0     C  682   1.768   9.816   1.053  0.3622 -0.0677 -0.7087
    6MOL0     C  683   1.649   9.909   1.040 -0.2808  0.4992  0.5047
    6MOL0     O  684   1.542   9.854   0.966  1.0559 -0.2649 -0.1813
    6MOL0     C  685   1.435   9.817   1.046 -0.0192 -0.8835  0.0567
    6MOL0     C  686   1.309   9.853   0.996  0.2978 -0.0072 -0.0325
    6MOL0     C  687   1.195   9.806   1.067 -0.6282 -0.3247  0.9641
    6MOL0     C  688   1.204   9.741   1.183  0.2683 -1.6169 -0.1269
    6MOL0     C  689   1.079   9.684   1.259 -0.9704  0.0151  0.7552
    6MOL0     O  690   0.950   9.715   1.203  0.1335  0.5984 -1.0878
    6MOL0     C  691   0.828   9.682   1.263 -0.0807  0.2938 -0.5793
    6MOL0     C  692   0.798   9.555   1.322 -1.2225  0.4923 -0.0049
    6MOL0     C  693   0.672   9.533   1.375 -0.9089 -0.6648 -0.1323
    6MOL0     C  694   0.576   9.640   1.381 -0.3302 -0.3222  0.5369
    6MOL0     O  695   0.451   9.621   1.433  0.1818  0.3555  0.7382
    6MOL0     C  696   0.432   9.574   1.575 -1.2476  0.2703  0.2736
    6MOL0     C  697   0.474   9.670   1.686  0.2679  0.5673 -0.1736
    6MOL0     C  698   0.435   9.604   1.819 -0.1800  0.2938 -0.3753
    6MOL0     C  699   0.492   9.689   1.932 -0.1568  1.1776  0.6449
    6MOL0     C  700   0.417   9.666   2.060 -0.2260 -0.3427  0.9753
    6MOL0     C  701   0.367   9.522   2.093  0.2070 -0.4800 -0.6148
    6MOL0     C  702   0.288   9.548   2.215 -0.0914 -0.2381 -1.3144
    6MOL0     C  703   0.356   9.576   2.354 -0.1795  0.1346 -0.4269
    6MOL0    Cl  704   0.457   9.438   2.400 -0.2718  0.0635 -0.0467
    6MOL0     C  705   0.601   9.765   1.325 -0.7183  0.2104  0.5080
    6MOL0     C  706   0.724   9.778   1.256 -0.5285 -0.5186  0.3316
    6MOL0     O  707   1.100   9.646   1.368 -0.4315 -0.0268 -0.0616
    6MOL0     C  708   1.331   9.717   1.240  0.4988  0.4588  0.4392
    6MOL0     C  709   1.449   9.751   1.171  0.6804 -0.4269  0.1909
    6MOL0     N  710   1.960   9.524   0.713 -1.5176  0.4086  0.7205
    6MOL0     N  711   1.936   9.416   0.647  0.2326  0.1628  0.7022
    6MOL0     C  712   1.688   8.707   1.362  0.6891  0.1574  0.4246
    6MOL0     C  713   1.756   8.605   1.429 -0.8855  0.2318  0.4031
    6MOL0     C  714   2.163   8.406   1.472  0.3973 -0.0861 -0.4840
    6MOL0     C  715   2.160   8.276   1.424 -0.2932 -0.4600 -0.8367
    6MOL0     C  716   2.274   8.197   1.457 -0.2589  0.0752  0.3209
    6MOL0     C  717   2.382   8.247   1.517  0.5920 -0.7732 -0.2764
    6MOL0     O  718   2.492   8.161   1.532  0.0115 -0.5840 -0.5306
    6MOL0     C  719   2.583   8.172   1.649 -0.3633 -0.1409  0.0839
    6MOL0     C  720   2.598   8.050   1.731  0.1265  0.3280 -0.2101
    6MOL0     C  721   2.643   7.933   1.649 -0.8905 -0.3290  0.2005
    6MOL0     C  722   2.641   7.804   1.738 -0.0695 -0.3730 -0.1121
    6MOL0     C  723   2.740   7.818   1.843  0.6213 -0.2826 -1.2053
    6MOL0     C  724   2.800   7.835   1.947 -1.0063 -0.1906  0.1413
    6MOL0     C  725   2.387   8.375   1.555  0.1670 -0.0190 -0.2957
    6MOL0     C  726   2.277   8.460   1.531  0.0731 -0.8558  0.1429
    6MOL0     H  727   1.902   8.454   1.162 -0.5063  1.3993 -2.1310
    6MOL0     H  728   1.747   8.591   1.043 -3.6002  1.3658  0.4639
    6MOL0     H  729   1.487   8.648   1.034  0.0789  0.0671  2.1605
    6MOL0     H  730   1.607   8.728   0.962  0.2602 -3.4236  1.2132
    6MOL0     H  731   1.403   8.922   1.071  2.4085  0.0101  0.2083
    6MOL0     H  732   1.351   8.815   0.955 -0.9402 -0.8962  2.3608
    6MOL0     H  733   1.541   8.847   0.812  4.2500 -2.2619  4.1619
    6MOL0     H  734   1.598   8.990   0.918 -1.6780  0.2255  1.5820
    6MOL0     H  735   1.376   8.971   0.717 -0.7365  0.2940 -0.0563
    6MOL0     H  736   1.356   9.087   0.857 -0.7627  1.7911 -1.7678
    6MOL0     H  737   1.567   9.177   0.791 -0.3909 -1.2455  2.0746
    6MOL0     H  738   1.436   9.185   0.666  1.0450  0.1024 -0.5334
    6MOL0     H  739   1.563   9.059   0.520 -1.0090 -0.8287  1.1761
    6MOL0     H  740   1.654   8.984   0.659 -1.3331 -0.3875  0.5791
    6MOL0     H  741   1.768   9.171   0.495 -1.3718  0.5133 -0.5002
    6MOL0     H  742   1.663   9.280   0.588  0.2466  0.3974  1.1763
    6MOL0     H  743   1.910   9.127   0.654  1.1115  3.0701 -1.6596
    6MOL0     H  744   1.798   9.140   0.782  2.7079 -0.7335  0.3514
    6MOL0     H  745   1.784   9.345   0.912  1.3408  2.6203  2.3801
    6MOL0     H  746   1.985   9.690   0.894 -1.3997  3.1802 -0.1747
    6MOL0     H  747   1.938   9.584   1.033 -0.9027  1.6130 -0.2520
    6MOL0     H  748   1.706   9.620   0.971 -1.1065  0.4583 -2.8207
    6MOL0     H  749   1.743   9.740   0.846 -4.1880  1.2130  2.3639
    6MOL0     H  750   1.764   9.762   1.149 -4.9648 -1.2317 -1.2775
    6MOL0     H  751   1.859   9.876   1.056 -1.0397  2.1651 -0.1487
    6MOL0     H  752   1.679   9.997   0.983 -0.3236  1.5896  2.1332
    6MOL0     H  753   1.613   9.948   1.135  0.4739 -1.7384  1.7972
    6MOL0     H  754   1.300   9.917   0.909  3.1395 -0.0905 -0.4662
    6MOL0     H  755   1.101   9.837   1.022  1.3848  1.9194 -2.1578
    6MOL0     H  756   0.883   9.488   1.314  0.2946  2.4245 -1.0141
    6MOL0     H  757   0.652   9.432   1.409  1.4954 -1.2036 -0.0893
    6MOL0     H  758   0.488   9.481   1.584  0.1568  0.7118 -2.5134
    6MOL0     H  759   0.323   9.565   1.575 -1.3045 -1.0740 -3.6710
    6MOL0     H  760   0.429   9.769   1.682 -0.8341  0.1029 -4.7979
    6MOL0     H  761   0.583   9.683   1.693  0.6673  2.2391 -5.2765
    6MOL0     H  762   0.493   9.511   1.821  0.0048  0.3907  2.5164
    6MOL0     H  763   0.328   9.580   1.814 -0.3087  1.1585 -2.7642
    6MOL0     H  764   0.598   9.670   1.951 -0.2525 -1.2252 -0.7568
    6MOL0     H  765   0.478   9.796   1.912 -1.9945  1.4452  2.8996
    6MOL0     H  766   0.332   9.734   2.045 -1.1891 -1.1827  2.4007
    6MOL0     H  767   0.484   9.701   2.139 -0.0282  1.0637  0.2242
    6MOL0     H  768   0.453   9.455   2.106  0.2626  0.1286  2.8477
    6MOL0     H  769   0.303   9.468   2.022 -5.3939  1.2588  2.5239
    6MOL0     H  770   0.207   9.618   2.192 -2.4486 -1.4402  2.3683
    6MOL0     H  771   0.230   9.456   2.223 -2.4872  1.1845 -1.4970
    6MOL0     H  772   0.272   9.596   2.422 -1.7338  2.0801 -2.7274
    6MOL0     H  773   0.407   9.673   2.346 -0.2448  0.1038 -1.2954
    6MOL0     H  774   0.535   9.851   1.327 -0.8185  0.6389 -5.0735
    6MOL0     H  775   0.734   9.877   1.213  0.1302 -1.3920 -1.6353
    6MOL0     H  776   1.339   9.665   1.335  0.2813 -0.7769 -0.1992
    6MOL0     H  777   1.547   9.739   1.215  0.3956 -1.4046  0.5896
    6MOL0     H  778   1.623   8.777   1.413 -2.5523 -0.9709 -1.8249
    6MOL0     H  779   1.754   8.612   1.537 -0.9152  0.3856  0.3938
    6MOL0     H  780   2.073   8.228   1.380 -0.0620 -2.0328  0.3266
    6MOL0     H  781   2.289   8.092   1.438  0.3308  0.1907  0.1381
    6MOL0     H  782   2.553   8.253   1.716 -1.2039 -1.2863  1.1409
    6MOL0     H  783   2.680   8.194   1.605  0.8800 -3.4780  0.8104
    6MOL0     H  784   2.679   8.078   1.800  0.2727  1.5028 -0.8372
    6MOL0     H  785   2.506   8.018   1.780 -0.4622  2.1520 -0.0606
    6MOL0     H  786   2.738   7.961   1.604 -0.5062 -0.1948  1.0621
    6MOL0     H  787   2.571   7.913   1.570 -0.8484 -1.9547  0.5242
    6MOL0     H  788   2.546   7.780   1.785  0.8176 -2.7033  0.6192
    6MOL0     H  789   2.682   7.719   1.684  1.5677 -0.7053  1.5531
    6MOL0     H  790   2.869   7.869   2.022 -0.4822  1.1879 -0.9076
    6MOL0     H  791   2.473   8.417   1.607  0.1638 -1.2450  0.7627
    6MOL0     H  792   2.271   8.556   1.582  0.3994 -1.5249  1.4844
    7MOL0     O  793   0.673   2.847   3.610  0.0908  0.1551 -0.3738
    7MOL0     C  794   0.579   2.777   3.662  0.7937 -0.2560  0.1845
    7MOL0     O  795   0.526   2.806   3.777  0.2034 -0.3487  0.0818
    7MOL0     C  796   0.550   2.926   3.835 -0.0151  0.4648 -0.4831
    7MOL0     C  797   0.617   2.937   3.960  0.1609 -0.0244  0.4026
    7MOL0     C  798   0.634   3.059   4.025  0.0062  0.0457  0.6418
    7MOL0     C  799   0.598   3.177   3.957 -0.6815  1.1373 -0.8829
    7MOL0     O  800   0.600   3.298   4.009  0.2899  0.5817 -0.5709
    7MOL0     C  801   0.713   3.329   4.076 -0.0926 -0.4717  0.7618
    7MOL0     C  802   0.690   3.467   4.146 -0.0786  1.0462 -0.7057
    7MOL0     C  803   0.834   3.531   4.170  0.2912 -0.1067  0.4978
    7MOL0     C  804   0.820   3.688   4.173 -0.0158  0.2204 -0.2885
    7MOL0     C  805   0.953   3.776   4.170 -0.0756 -0.7801 -0.6066
    7MOL0     C  806   0.999   3.823   4.031 -0.8683  0.8835 -0.0580
    7MOL0     C  807   1.102   3.931   4.057 -0.4871  1.2091  0.6157
    7MOL0     C  808   1.120   4.015   3.931  0.2225  0.0736 -0.2924
    7MOL0     N  809   1.233   4.100   3.944  0.1467 -0.5293  0.1154
    7MOL0     C  810   1.357   4.071   3.882 -0.5342 -0.2749 -0.3326
    7MOL0     C  811   1.435   4.181   3.900  0.8962  0.1442  0.3835
    7MOL0     C  812   1.572   4.202   3.854 -0.5164  0.2429  0.6566
    7MOL0     C  813   1.666   4.097   3.926  0.0069 -1.2107  0.5122
    7MOL0     C  814   1.824   4.134   3.902 -0.0161  0.6134  0.0806
    7MOL0     C  815   1.924   4.026   3.953 -0.1458  0.2039 -0.0127
    7MOL0     O  816   1.922   4.022   4.095 -0.7058 -0.7854 -0.2825
    7MOL0     C  817   1.966   4.134   4.164  0.3454  0.1008  0.6300
    7MOL0     C  818   2.041   4.234   4.109  0.4145  0.2417  0.4233
    7MOL0     C  819   2.086   4.336   4.187 -1.2375 -0.6762  0.2990
    7MOL0     C  820   2.061   4.345   4.328 -0.7549  0.1541  0.2782
    7MOL0     C  821   2.110   4.464   4.397  0.4019  1.2559  0.1191
    7MOL0     O  822   2.178   4.565   4.338 -0.0688  0.1029 -0.2670
    7MOL0     C  823   2.241   4.662   4.406  0.1529  0.0580 -0.1715
    7MOL0     C  824   2.380   4.670   4.397 -0.6194 -0.1308 -1.0827
    7MOL0     C  825   2.449   4.774   4.468 -0.3652  0.8415 -1.1899
    7MOL0     C  826   2.381   4.867   4.540 -0.4196  0.5783  0.2275
    7MOL0     O  827   2.437   4.971   4.608  0.5567  0.1267  0.5648
    7MOL0     C  828   2.391   5.003   4.743  0.3312  0.0324 -1.2185
    7MOL0     C  829   2.504   5.073   4.818 -0.2721  0.5041 -0.6290
    7MOL0     C  830   2.616   4.971   4.826  0.6762 -0.1789 -0.9364
    7MOL0     C  831   2.739   5.019   4.909  0.2985 -0.2037 -0.7031
    7MOL0     C  832   2.732   4.982   5.058  0.8892 -0.7746 -0.4862
    7MOL0     C  833   2.840   5.070   5.125  0.3757 -0.1417  0.7283
    7MOL0     C  834   2.862   5.042   5.278 -0.2747  0.3422  0.7573
    7MOL0     C  835   2.945   5.141   5.356 -1.1962  0.4227 -0.3247
    7MOL0    Cl  836   3.097   5.172   5.279 -0.4931 -0.4207  0.0664
    7MOL0     C  837   2.242   4.851   4.544 -0.1428  0.1018 -0.9348
    7MOL0     C  838   2.170   4.746   4.488  0.0081 -0.0022  1.0069
    7MOL0     O  839   2.086   4.466   4.517 -0.5224  0.1503 -0.7782
    7MOL0     C  840   1.992   4.236   4.385 -0.5152 -0.6945  0.0658
    7MOL0     C  841   1.942   4.142   4.301 -0.0495  0.5877  1.0483
    7MOL0     N  842   1.354   4.282   3.956 -0.7490  0.3100 -0.0581
    7MOL0     N  843   1.244   4.227   3.982  1.0530 -1.0492  0.7038
    7MOL0     C  844   0.526   3.165   3.832  1.3174 -0.0930  0.0153
    7MOL0     C  845   0.511   3.043   3.765 -0.4362 -0.3793  0.0285
    7MOL0     C  846   0.535   2.665   3.573  0.1525 -0.5845 -0.2684
    7MOL0     C  847   0.533   2.663   3.433  0.2931  0.2273  0.1664
    7MOL0     C  848   0.460   2.574   3.352  1.4463  1.0415  0.5467
    7MOL0     C  849   0.383   2.470   3.417 -1.3133 -0.0842 -0.4944
    7MOL0     O  850   0.318   2.379   3.332  0.0296  0.1035  0.2071
    7MOL0     C  851   0.246   2.273   3.394  1.5181  0.0763 -0.4454
    7MOL0     C  852   0.176   2.185   3.286 -1.2319  0.2406  0.0135
    7MOL0     C  853   0.102   2.071   3.358  0.4942 -0.6204 -0.7335
    7MOL0     C  854  -0.001   2.002   3.270 -0.0373  0.4733  0.5033
    7MOL0     C  855  -0.087   1.919   3.348 -0.3646  0.2397 -0.6087
    7MOL0     C  856  -0.152   1.843   3.419 -0.1313  0.0690  0.4056
    7MOL0     C  857   0.391   2.466   3.556  0.0740 -0.4078 -0.1065
    7MOL0     C  858   0.468   2.565   3.631  0.5411 -0.1953 -0.8405
    7MOL0     H  859   0.649   2.839   3.993 -2.9838 -1.5370 -0.6091
    7MOL0     H  860   0.692   3.059   4.117  1.1174  0.6837 -0.0350
    7MOL0     H  861   0.790   3.329   3.999 -1.7438 -3.1484 -1.0541
    7MOL0     H  862   0.742   3.254   4.149  3.5412 -2.0565 -2.0392
    7MOL0     H  863   0.635   3.457   4.240 -0.5839  1.9665 -0.8885
    7MOL0     H  864   0.644   3.526   4.067 -1.6402  0.4331 -0.2924
    7MOL0     H  865   0.910   3.503   4.097  0.9827 -0.1234  1.2094
    7MOL0     H  866   0.871   3.499   4.268 -2.9620 -3.0750  0.9372
    7MOL0     H  867   0.763   3.738   4.094  1.2268  0.0661 -1.3267
    7MOL0     H  868   0.765   3.710   4.264  0.5471  1.7479 -0.2849
    7MOL0     H  869   1.024   3.727   4.236 -0.4400 -3.7407 -2.2342
    7MOL0     H  870   0.925   3.868   4.223 -1.7003 -1.8086  0.4230
    7MOL0     H  871   0.915   3.855   3.969  0.5796  0.5808 -2.2920
    7MOL0     H  872   1.057   3.744   3.981  0.7993  0.7872  1.8638
    7MOL0     H  873   1.073   3.993   4.142  3.1680  0.2993  2.7159
    7MOL0     H  874   1.198   3.886   4.083 -2.4543 -2.8559  1.5964
    7MOL0     H  875   1.023   4.064   3.921 -1.8264 -3.4549  0.7266
    7MOL0     H  876   1.137   3.943   3.850  1.9913 -1.4307  1.3196
    7MOL0     H  877   1.384   3.975   3.841  0.6492  0.0946 -0.4364
    7MOL0     H  878   1.615   4.301   3.873  1.0656 -0.1195 -0.7797
    7MOL0     H  879   1.574   4.198   3.745  0.2868 -0.3178  0.6854
    7MOL0     H  880   1.621   4.000   3.903 -2.7809  0.2740 -0.8257
    7MOL0     H  881   1.654   4.108   4.034  0.2089  0.7889  0.3686
    7MOL0     H  882   1.844   4.129   3.795  0.3260  3.2801 -0.0544
    7MOL0     H  883   1.852   4.238   3.925  0.9162  0.8383 -1.9270
    7MOL0     H  884   2.027   4.049   3.923 -1.0237  3.4195 -0.9785
    7MOL0     H  885   1.894   3.929   3.913 -0.7408  0.9769 -1.4902
    7MOL0     H  886   2.066   4.228   4.004  2.0082 -2.7967  0.8552
    7MOL0     H  887   2.145   4.414   4.140  1.3230 -1.6404  1.6713
    7MOL0     H  888   2.437   4.615   4.323  0.5982  3.3067 -2.9346
    7MOL0     H  889   2.555   4.793   4.460 -0.0052 -0.4695  0.2153
    7MOL0     H  890   2.353   4.914   4.795 -0.0909  0.6319 -0.4713
    7MOL0     H  891   2.305   5.070   4.753  1.6464  1.4298  3.8968
    7MOL0     H  892   2.481   5.090   4.924  2.0104 -2.8201  0.5926
    7MOL0     H  893   2.525   5.168   4.769  1.8807 -0.0754 -0.9232
    7MOL0     H  894   2.643   4.947   4.723 -1.4017 -0.5448 -1.4349
    7MOL0     H  895   2.571   4.882   4.869  1.1452 -0.3536 -0.7982
    7MOL0     H  896   2.833   4.984   4.864 -0.4611  0.6594 -3.1543
    7MOL0     H  897   2.751   5.127   4.911  0.7097 -0.2371 -1.0312
    7MOL0     H  898   2.752   4.879   5.089  1.6270 -0.4123  0.2616
    7MOL0     H  899   2.639   5.014   5.106  1.7943  0.5016  0.4548
    7MOL0     H  900   2.814   5.176   5.116  0.5788  0.0039  1.7474
    7MOL0     H  901   2.927   5.048   5.062  0.3040 -0.8591  0.8787
    7MOL0     H  902   2.765   5.033   5.328 -0.5365 -0.8497  0.0832
    7MOL0     H  903   2.903   4.941   5.287  2.9700  1.3604 -0.9020
    7MOL0     H  904   2.952   5.094   5.454  0.2976  0.0162 -0.5953
    7MOL0     H  905   2.899   5.240   5.362 -0.7419  0.5885  0.5130
    7MOL0     H  906   2.175   4.911   4.606 -0.3247  1.1592 -2.1233
    7MOL0     H  907   2.061   4.740   4.491 -0.2638  1.9419 -1.6378
    7MOL0     H  908   1.979   4.225   4.492 -0.0264  0.4242  0.2599
    7MOL0     H  909   1.872   4.073   4.347  0.4215 -1.1500 -0.6794
    7MOL0     H  910   0.508   3.266   3.796  1.0596  0.3626  1.3278
    7MOL0     H  911   0.468   3.032   3.667 -1.5368  0.8931  0.3558
    7MOL0     H  912   0.580   2.751   3.390  0.9244 -0.1810  0.0196
    7MOL0     H  913   0.452   2.595   3.246  3.7026  1.9369  0.5079
    7MOL0     H  914   0.165   2.304   3.460 -2.1773  0.6706 -4.7984
    7MOL0     H  915   0.313   2.215   3.458 -1.9435 -0.2467  3.3091
    7MOL0     H  916   0.114   2.237   3.213  0.5627 -1.9044 -3.2705
    7MOL0     H  917   0.253   2.144   3.219  2.4518  2.9599  2.1829
    7MOL0     H  918   0.048   2.102   3.448  3.6191  1.5109  0.6257
    7MOL0     H  919   0.181   2.000   3.383  1.3526  0.1708 -1.1441
    7MOL0     H  920  -0.058   2.074   3.209 -0.0173 -2.0017 -2.6906
    7MOL0     H  921   0.052   1.945   3.194 -2.1592  1.7722 -2.1308
    7MOL0     H  922  -0.201   1.767   3.478 -3.2973 -1.1440 -3.3171
    7MOL0     H  923   0.325   2.397   3.607  1.8807 -1.2238  1.2786
    7MOL0     H  924   0.460   2.556   3.739  2.3754 -1.0724 -0.7488
    8MOL0     O  925  10.127   6.190   5.550  0.5125 -0.0212 -0.0934
    8MOL0     C  926  10.192   6.293   5.535  0.3129  0.1751 -0.6445
    8MOL0     O  927  10.223   6.381   5.639  0.9416  0.8003  0.6197
    8MOL0     C  928  10.142   6.383   5.742  0.0613  0.5949  0.6964
    8MOL0     C  929  10.001   6.393   5.736 -0.3131  0.7006 -0.5950
    8MOL0     C  930   9.923   6.422   5.846 -0.2140 -0.6304  0.7034
    8MOL0     C  931   9.977   6.453   5.978 -0.2669 -0.4775 -0.0933
    8MOL0     O  932   9.891   6.484   6.075  0.1456 -0.1332 -0.3347
    8MOL0     C  933   9.940   6.488   6.208  0.2676  0.5834 -0.1662
    8MOL0     C  934   9.831   6.543   6.299 -0.7394 -0.0844  0.2743
    8MOL0     C  935   9.705   6.456   6.297  0.0419 -0.6948 -0.6037
    8MOL0     C  936   9.601   6.489   6.406  0.4312  0.9434  0.1086
    8MOL0     C  937   9.480   6.393   6.373  0.4235  0.3798 -0.2004
    8MOL0     C  938   9.486   6.249   6.435  0.9120 -0.2975 -0.0820
    8MOL0     C  939   9.479   6.234   6.592  0.1469 -0.8923 -0.0912
    8MOL0     C  940   9.336   6.249   6.637  0.4944  0.9952  0.0292
    8MOL0     N  941   9.302   6.218   6.776  0.1200  0.4726  0.2891
    8MOL0     C  942   9.183   6.238   6.838  0.1483 -0.9754 -0.2100
    8MOL0     C  943   9.212   6.202   6.969 -0.9532 -0.8981  1.4589
    8MOL0     C  944   9.108   6.200   7.083 -0.2560  0.3016  0.5340
    8MOL0     C  945   9.020   6.072   7.102  0.3784 -0.6226  0.3454
    8MOL0     C  946   8.940   6.035   6.977 -1.1965  1.1371 -0.2889
    8MOL0     C  947   8.851   5.918   6.988  0.4727 -0.0516  0.9385
    8MOL0     O  948   8.734   5.948   7.072 -0.3310  1.0200 -0.3992
    8MOL0     C  949   8.649   5.835   7.086  0.3731 -0.3605  1.0666
    8MOL0     C  950   8.637   5.723   7.014 -0.1568  0.6084 -0.6865
    8MOL0     C  951   8.539   5.632   7.054  0.1272  0.7088  0.8893
    8MOL0     C  952   8.448   5.658   7.153  0.6021  0.4891  0.5752
    8MOL0     C  953   8.346   5.559   7.179  0.8339  0.4029 -0.0519
    8MOL0     O  954   8.285   5.569   7.300  0.2268 -0.1205  0.2665
    8MOL0     C  955   8.195   5.472   7.352 -0.2259 -0.5344 -0.5250
    8MOL0     C  956   8.106   5.530   7.445 -0.1129 -0.2078 -0.0968
    8MOL0     C  957   8.018   5.451   7.518 -0.4721  0.0513 -0.7496
    8MOL0     C  958   8.028   5.310   7.499 -0.0493  0.2808  0.0345
    8MOL0     O  959   7.965   5.218   7.587 -0.3256  0.0314 -0.6136
    8MOL0     C  960   7.885   5.251   7.700  0.1110 -0.1933  1.0339
    8MOL0     C  961   7.744   5.276   7.662  0.3385  0.3470 -0.0135
    8MOL0     C  962   7.669   5.336   7.785 -0.8479  0.3152  0.4152
    8MOL0     C  963   7.546   5.421   7.742  0.2643 -0.3968  0.1614
    8MOL0     C  964   7.490   5.525   7.851  0.2872  0.1144 -0.9408
    8MOL0     C  965   7.404   5.450   7.955  0.2385 -0.6771 -0.4313
    8MOL0     C  966   7.349   5.565   8.047 -0.3250  0.5611 -0.2513
    8MOL0     C  967   7.266   5.509   8.159  0.3810 -1.6182 -0.9661
    8MOL0    Cl  968   7.200   5.650   8.256  0.1692  0.5029 -0.2567
    8MOL0     C  969   8.114   5.251   7.401 -1.1675  0.2356  0.7509
    8MOL0     C  970   8.206   5.337   7.336 -0.6742  1.6087 -0.5905
    8MOL0     O  971   8.329   5.469   7.101  0.2461  0.9148 -0.5445
    8MOL0     C  972   8.457   5.774   7.222  0.2679 -0.6966  0.5990
    8MOL0     C  973   8.561   5.862   7.185  0.9368  0.2181  0.7980
    8MOL0     N  974   9.339   6.154   6.974 -0.2786 -1.0872 -0.5248
    8MOL0     N  975   9.394   6.157   6.859 -0.6604 -0.1585 -0.6566
    8MOL0     C  976  10.112   6.429   5.992  0.7981 -0.3529 -0.5346
    8MOL0     C  977  10.189   6.403   5.871 -0.7370  0.0034 -0.7565
    8MOL0     C  978  10.220   6.368   5.412  0.0765  0.4348  1.1443
    8MOL0     C  979  10.207   6.303   5.292  0.7930  0.0838  0.2904
    8MOL0     C  980  10.216   6.369   5.171  0.8545  0.2786 -0.2347
    8MOL0     C  981  10.241   6.513   5.163  0.3964  0.1095 -0.6364
    8MOL0     O  982  10.246   6.588   5.048 -0.3626  0.0786  0.6018
    8MOL0     C  983  10.181   6.532   4.926  0.4743 -0.7097  0.9336
    8MOL0     C  984  10.152   6.642   4.824  0.2359 -0.1400  0.2836
    8MOL0     C  985  10.087   6.597   4.692 -0.7253  0.5608 -0.6543
    8MOL0     C  986   9.939   6.547   4.709 -0.2012  0.7380  0.0367
    8MOL0     C  987   9.845   6.643   4.766 -0.4298  0.3293 -0.3174
    8MOL0     C  988   9.779   6.715   4.838 -0.0408  0.0709  0.5642
    8MOL0     C  989  10.254   6.575   5.287  0.0404  0.0232  0.5258
    8MOL0     C  990  10.252   6.502   5.410  0.0288  0.5473 -0.0141
    8MOL0     H  991   9.959   6.381   5.637  1.1710 -1.8176 -1.0200
    8MOL0     H  992   9.816   6.429   5.829  0.2134  1.1630 -1.7268
    8MOL0     H  993  10.024   6.557   6.216 -3.3272  5.3586  0.3565
    8MOL0     H  994   9.962   6.384   6.234 -2.1867 -0.1429 -0.7756
    8MOL0     H  995   9.808   6.646   6.271 -0.8273 -0.7418 -2.3851
    8MOL0     H  996   9.870   6.545   6.401  2.3969 -1.2883 -0.8023
    8MOL0     H  997   9.733   6.355   6.328  1.9751 -0.2260 -0.6978
    8MOL0     H  998   9.663   6.449   6.196 -3.9411 -1.1312  0.8854
    8MOL0     H  999   9.640   6.467   6.505 -1.5210 -1.4704  0.4427
    8MOL0     H 1000   9.585   6.597   6.398 -1.5855  0.6286 -1.1410
    8MOL0     H 1001   9.474   6.379   6.264 -0.3886 -2.8819  0.1639
    8MOL0     H 1002   9.388   6.440   6.409  1.2818 -1.5620  5.4665
    8MOL0     H 1003   9.571   6.198   6.387  1.0223 -1.9100  1.6722
    8MOL0     H 1004   9.400   6.201   6.388  1.7776 -1.0238 -0.9944
    8MOL0     H 1005   9.512   6.136   6.628 -2.1086 -2.3340 -1.6944
    8MOL0     H 1006   9.536   6.316   6.637 -0.0029 -1.6367  1.5090
    8MOL0     H 1007   9.284   6.169   6.584 -1.1238 -1.5558  4.9198
    8MOL0     H 1008   9.291   6.348   6.623 -0.6014  0.6460  0.9280
    8MOL0     H 1009   9.091   6.285   6.805  0.4650  0.1663  0.4799
    8MOL0     H 1010   9.042   6.286   7.066 -0.3779  0.4939  1.8963
    8MOL0     H 1011   9.168   6.210   7.173  1.8032 -1.5082 -0.5348
    8MOL0     H 1012   8.965   6.097   7.193  0.0363 -2.2670  0.6317
    8MOL0     H 1013   9.079   5.985   7.132 -0.7827 -1.1040  1.2772
    8MOL0     H 1014   8.883   6.124   6.947 -2.4312  0.4483 -0.0393
    8MOL0     H 1015   9.004   6.013   6.891 -0.4580  2.3578 -0.0766
    8MOL0     H 1016   8.908   5.831   7.021  4.1736  2.3069  1.3671
    8MOL0     H 1017   8.817   5.902   6.885  1.2291 -2.0129  0.9578
    8MOL0     H 1018   8.710   5.700   6.937  1.5292 -0.7377  1.2277
    8MOL0     H 1019   8.553   5.537   7.003 -2.6648  0.2422  0.8694
    8MOL0     H 1020   8.104   5.633   7.478  1.1424  0.1679 -1.0835
    8MOL0     H 1021   7.968   5.501   7.600  2.4672  1.1954  0.4866
    8MOL0     H 1022   7.926   5.339   7.752  1.9902 -1.2475  1.4488
    8MOL0     H 1023   7.883   5.170   7.773 -3.5134 -1.6660 -0.5123
    8MOL0     H 1024   7.693   5.185   7.627  1.0553  0.5611 -1.7060
    8MOL0     H 1025   7.727   5.352   7.586 -2.1924 -0.1144 -0.0036
    8MOL0     H 1026   7.743   5.393   7.842 -2.0107  1.1845  1.0899
    8MOL0     H 1027   7.636   5.246   7.838 -0.7111 -0.5415 -0.8882
    8MOL0     H 1028   7.585   5.486   7.662  1.1619 -3.1369 -1.7703
    8MOL0     H 1029   7.470   5.355   7.699 -0.4372 -0.4649  1.4624
    8MOL0     H 1030   7.432   5.600   7.796  1.3774 -0.4326 -2.9707
    8MOL0     H 1031   7.577   5.570   7.898 -1.0995  0.2948  1.6170
    8MOL0     H 1032   7.470   5.377   8.002 -0.3089 -1.3459 -0.6835
    8MOL0     H 1033   7.324   5.393   7.907 -2.4894  0.0406  2.8284
    8MOL0     H 1034   7.433   5.623   8.085  1.8320 -3.0029  0.8425
    8MOL0     H 1035   7.296   5.627   7.974 -1.1334 -1.1570 -1.1870
    8MOL0     H 1036   7.335   5.452   8.221  0.8666  0.5410  0.6088
    8MOL0     H 1037   7.183   5.446   8.127 -1.4265 -0.2339  0.7533
    8MOL0     H 1038   8.108   5.143   7.393 -1.8276  0.3878 -1.3772
    8MOL0     H 1039   8.294   5.297   7.286 -1.0692  0.1468 -0.1737
    8MOL0     H 1040   8.388   5.816   7.294  0.2145  1.2773 -0.5183
    8MOL0     H 1041   8.572   5.952   7.245 -0.8458 -0.5577  2.3898
    8MOL0     H 1042  10.161   6.446   6.087  0.6996  1.0161 -0.7060
    8MOL0     H 1043  10.296   6.416   5.876 -0.2237 -3.5458  0.4550
    8MOL0     H 1044  10.176   6.200   5.294 -0.1959  0.2312 -2.5481
    8MOL0     H 1045  10.190   6.309   5.085  2.3613  0.2392 -0.6892
    8MOL0     H 1046  10.082   6.492   4.948 -1.5134  2.1813 -1.8862
    8MOL0     H 1047  10.239   6.463   4.865 -1.3889 -2.1232  0.6773
    8MOL0     H 1048  10.091   6.720   4.870  1.5728  0.7469  0.6296
    8MOL0     H 1049  10.250   6.688   4.809  0.8530 -0.1514  3.5472
    8MOL0     H 1050  10.148   6.524   4.638 -0.6679 -2.2448  2.8274
    8MOL0     H 1051  10.090   6.694   4.641  1.3745  0.4771 -0.7625
    8MOL0     H 1052   9.893   6.498   4.624  0.7058 -0.9568  0.4746
    8MOL0     H 1053   9.949   6.474   4.790  0.7140  2.3284  1.4274
    8MOL0     H 1054   9.715   6.773   4.901 -2.2297 -1.4541 -0.1462
    8MOL0     H 1055  10.274   6.682   5.283  0.6107 -0.1223 -2.3951
    8MOL0     H 1056  10.283   6.555   5.499 -0.6324  0.4731  0.2630
    9MOL0     O 1057   0.032   8.623   3.357 -0.8322 -0.8829 -0.2903
    9MOL0     C 1058   0.081   8.736   3.349 -0.1464  0.5061 -0.2493
    9MOL0     O 1059   0.185   8.788   3.436  0.1585 -0.3489  0.2258
    9MOL0     C 1060   0.247   8.716   3.538 -0.1551 -0.0005  0.8847
    9MOL0     C 1061   0.250   8.569   3.543  0.5919 -0.1110 -0.5478
    9MOL0     C 1062   0.334   8.503   3.639 -0.5328  0.2702 -0.0622
    9MOL0     C 1063   0.411   8.570   3.728 -0.5731  0.5323 -0.1229
    9MOL0     O 1064   0.488   8.503   3.826  0.3424  0.4905 -1.3012
    9MOL0     C 1065   0.492   8.554   3.961 -0.6309 -0.2598 -1.0548
    9MOL0     C 1066   0.542   8.436   4.037  0.5291  1.1085  0.6803
    9MOL0     C 1067   0.688   8.400   3.999 -0.3428  0.1246 -1.0445
    9MOL0     C 1068   0.741   8.295   4.104  0.5834 -0.3492 -0.3765
    9MOL0     C 1069   0.885   8.255   4.078 -1.8172  0.4688 -0.9072
    9MOL0     C 1070   0.977   8.377   4.081 -0.4648 -0.1274  0.5487
    9MOL0     C 1071   1.121   8.329   4.034  0.5895  0.7236  0.3731
    9MOL0     C 1072   1.233   8.432   4.071  0.9954 -0.0125 -0.3720
    9MOL0     N 1073   1.272   8.416   4.213 -0.6207  0.5595  0.4789
    9MOL0     C 1074   1.402   8.438   4.254 -0.3828 -1.2560  0.5027
    9MOL0     C 1075   1.413   8.387   4.376  0.6799 -0.3754  0.2694
    9MOL0     C 1076   1.522   8.375   4.484 -0.2066  0.3081 -0.5114
    9MOL0     C 1077   1.481   8.437   4.614 -0.5262 -0.0241  0.0006
    9MOL0     C 1078   1.432   8.582   4.603  0.0574 -0.5732  0.1166
    9MOL0     C 1079   1.532   8.681   4.548  0.7958 -0.0100 -0.3766
    9MOL0     O 1080   1.603   8.732   4.664  0.6026 -0.3135  0.0072
    9MOL0     C 1081   1.735   8.764   4.652  0.0168  0.5488  0.6602
    9MOL0     C 1082   1.811   8.721   4.761  0.7228  0.2455  0.9625
    9MOL0     C 1083   1.946   8.757   4.764 -0.3130 -0.7993  0.4343
    9MOL0     C 1084   2.011   8.837   4.668  0.7766 -0.4665 -0.6430
    9MOL0     C 1085   2.155   8.866   4.680 -0.5868  0.2624  0.7564
    9MOL0     O 1086   2.217   8.857   4.802 -0.3767 -0.6638  0.9933
    9MOL0     C 1087   2.343   8.917   4.795  0.4081 -0.3002  0.4050
    9MOL0     C 1088   2.350   9.060   4.802 -0.1127 -0.9736  0.2886
    9MOL0     C 1089   2.482   9.103   4.823 -1.6749  0.4141 -0.2740
    9MOL0     C 1090   2.592   9.020   4.821  0.1082  0.1002  1.2946
    9MOL0     O 1091   2.712   9.086   4.857  0.9233  0.3978  0.4623
    9MOL0     C 1092   2.821   9.053   4.774 -0.0354 -0.8971  0.4822
    9MOL0     C 1093   2.956   9.103   4.842  0.9436 -0.0256  0.9366
    9MOL0     C 1094   2.989   9.037   4.974  1.2706  0.0034 -0.8650
    9MOL0     C 1095   3.127   9.070   5.034 -0.5346  0.1051  1.0664
    9MOL0     C 1096   3.141   9.030   5.173 -0.6340  0.1722  0.1714
    9MOL0     C 1097   3.298   9.039   5.214 -0.0795  0.8897 -0.2566
    9MOL0     C 1098   3.317   9.053   5.366 -1.0571  0.6158  0.5279
    9MOL0     C 1099   3.275   9.199   5.417 -0.3750  0.1994 -0.2800
    9MOL0    Cl 1100   3.408   9.315   5.365 -0.0381 -0.1350 -0.0118
    9MOL0     C 1101   2.584   8.883   4.806 -0.0415  0.4453 -0.6924
    9MOL0     C 1102   2.451   8.829   4.801  0.1191  0.2077  0.2946
    9MOL0     O 1103   2.205   8.931   4.584  0.0889  0.2465 -0.6764
    9MOL0     C 1104   1.930   8.875   4.553 -0.4943 -0.3524  0.2425
    9MOL0     C 1105   1.794   8.838   4.547 -0.3614  0.5238  0.3896
    9MOL0     N 1106   1.291   8.333   4.408 -0.5509  0.6402  0.3567
    9MOL0     N 1107   1.206   8.355   4.317 -0.0201  1.4110  0.0204
    9MOL0     C 1108   0.406   8.713   3.722  0.1134 -0.1606  0.1572
    9MOL0     C 1109   0.324   8.780   3.632  0.0311  0.3119 -0.6441
    9MOL0     C 1110   0.014   8.816   3.244 -0.5736  0.5348  0.1010
    9MOL0     C 1111   0.057   8.954   3.223 -0.9278  1.2295 -0.6850
    9MOL0     C 1112   0.007   9.024   3.121  0.1194 -0.2711  0.7171
    9MOL0     C 1113  -0.092   8.969   3.036  0.1561 -0.1339  0.2899
    9MOL0     O 1114  -0.146   9.056   2.953 -0.2081  0.0745 -0.2671
    9MOL0     C 1115  -0.281   9.034   2.896 -0.0839 -0.5966 -0.7410
    9MOL0     C 1116  -0.400   9.057   2.988 -0.4299 -1.1521 -0.7447
    9MOL0     C 1117  -0.396   9.193   3.056  1.1091  0.1835 -0.5029
    9MOL0     C 1118  -0.514   9.205   3.150 -0.0672 -0.8254 -0.1587
    9MOL0     C 1119  -0.523   9.336   3.222 -0.7455 -0.2708  0.3010
    9MOL0     C 1120  -0.543   9.456   3.260  0.3163  0.4118 -0.7952
    9MOL0     C 1121  -0.157   8.843   3.075  0.4517 -0.4118  1.0218
    9MOL0     C 1122  -0.088   8.761   3.164 -0.0075  0.6573 -0.0560
    9MOL0     H 1123   0.206   8.503   3.469  1.1547 -1.2136  0.0655
    9MOL0     H 1124   0.334   8.397   3.658  0.3878  0.4260  0.8894
    9MOL0     H 1125   0.389   8.571   3.997 -1.1020 -0.3191 -2.3330
    9MOL0     H 1126   0.552   8.644   3.980 -1.0829  0.2092 -1.7675
    9MOL0     H 1127   0.474   8.352   4.020  2.6059 -0.2109 -1.8775
    9MOL0     H 1128   0.539   8.476   4.139 -0.8639  1.8364  0.3860
    9MOL0     H 1129   0.741   8.493   4.022  0.1245 -0.9424  2.8159
    9MOL0     H 1130   0.708   8.366   3.897  1.4512 -0.3614 -0.5514
    9MOL0     H 1131   0.729   8.332   4.206  5.7280  3.5773 -0.8151
    9MOL0     H 1132   0.683   8.204   4.085 -2.0321  0.1300  3.9647
    9MOL0     H 1133   0.880   8.209   3.979  1.3062 -2.1654 -0.0053
    9MOL0     H 1134   0.917   8.180   4.151 -3.6322  1.2088  0.7284
    9MOL0     H 1135   0.989   8.411   4.184  1.2625  2.6987 -0.4312
    9MOL0     H 1136   0.943   8.468   4.030 -1.7709 -0.5842  0.5812
    9MOL0     H 1137   1.150   8.233   4.077  0.4114  0.2797 -0.4962
    9MOL0     H 1138   1.115   8.313   3.926  3.0628  2.5407 -0.1230
    9MOL0     H 1139   1.189   8.532   4.062 -0.5641 -0.6738 -0.5671
    9MOL0     H 1140   1.313   8.423   3.997 -1.9171  1.0044 -3.9333
    9MOL0     H 1141   1.480   8.471   4.187 -1.1224 -3.3291 -1.5334
    9MOL0     H 1142   1.622   8.408   4.452 -0.4168  1.3247 -0.1578
    9MOL0     H 1143   1.538   8.268   4.498  1.9213  0.8276  1.6274
    9MOL0     H 1144   1.569   8.425   4.679 -0.6787 -1.5262 -0.0216
    9MOL0     H 1145   1.404   8.372   4.657  1.2989 -2.7290 -0.5189
    9MOL0     H 1146   1.338   8.585   4.547  0.9385  2.2201 -1.4227
    9MOL0     H 1147   1.398   8.621   4.700 -4.3640  3.0010 -2.4561
    9MOL0     H 1148   1.478   8.760   4.496 -2.1606 -2.3051 -1.0533
    9MOL0     H 1149   1.603   8.626   4.485  1.7506 -0.4937  1.0681
    9MOL0     H 1150   1.769   8.655   4.835 -1.0809  0.7822  0.4801
    9MOL0     H 1151   2.011   8.714   4.840 -0.5067  1.0314  1.6852
    9MOL0     H 1152   2.279   9.137   4.778  3.5297  2.9722  0.8819
    9MOL0     H 1153   2.507   9.208   4.829  0.1433  0.1399 -1.9985
    9MOL0     H 1154   2.813   9.096   4.673 -1.6843 -1.8544  0.1732
    9MOL0     H 1155   2.817   8.945   4.756 -0.7487 -0.8787  0.5026
    9MOL0     H 1156   2.961   9.213   4.848  0.2833  0.3125 -2.4571
    9MOL0     H 1157   3.031   9.081   4.765  0.7752  2.0747  0.0941
    9MOL0     H 1158   2.984   8.928   4.965  4.7165 -0.1527 -3.3288
    9MOL0     H 1159   2.912   9.073   5.041  1.7814  1.1707 -0.8813
    9MOL0     H 1160   3.193   9.008   4.973 -2.2329 -0.3499 -0.3982
    9MOL0     H 1161   3.153   9.175   5.020  2.1651 -0.7656 -1.2996
    9MOL0     H 1162   3.107   8.926   5.177  2.3523 -1.1341 -3.1707
    9MOL0     H 1163   3.081   9.101   5.231 -2.3712  0.3877 -1.7656
    9MOL0     H 1164   3.352   9.122   5.165  2.9896 -1.0084 -0.3519
    9MOL0     H 1165   3.351   8.953   5.172 -1.9948 -0.2252 -0.5334
    9MOL0     H 1166   3.256   8.982   5.424  3.4076 -3.2906  1.1233
    9MOL0     H 1167   3.421   9.026   5.389 -1.5110 -2.9305 -0.9284
    9MOL0     H 1168   3.252   9.199   5.524  1.8516  0.4216  0.2634
    9MOL0     H 1169   3.191   9.229   5.355  1.6379  1.4259 -2.5828
    9MOL0     H 1170   2.666   8.812   4.816  2.2483  2.9725 -0.2494
    9MOL0     H 1171   2.427   8.723   4.800  0.6289  0.0137 -2.8550
    9MOL0     H 1172   1.976   8.922   4.467  3.6835 -2.2032  1.2161
    9MOL0     H 1173   1.724   8.848   4.464 -0.8229  3.1150  0.9872
    9MOL0     H 1174   0.482   8.766   3.778  1.7396 -1.0945 -1.0809
    9MOL0     H 1175   0.341   8.887   3.634  1.6584  0.0668  0.6146
    9MOL0     H 1176   0.137   8.998   3.282 -2.3143 -1.0940  3.3302
    9MOL0     H 1177   0.025   9.130   3.112 -1.0085  0.2531  3.6075
    9MOL0     H 1178  -0.294   8.931   2.861 -0.8899 -1.2618  1.3954
    9MOL0     H 1179  -0.290   9.097   2.807  3.1014  1.4161  0.1924
    9MOL0     H 1180  -0.488   9.060   2.924 -0.6722 -0.3047 -0.3865
    9MOL0     H 1181  -0.415   8.980   3.065 -2.3346 -1.1310 -1.0286
    9MOL0     H 1182  -0.398   9.272   2.981 -0.1851  3.0803  2.3165
    9MOL0     H 1183  -0.302   9.202   3.110  0.7582 -3.5659  1.0475
    9MOL0     H 1184  -0.608   9.201   3.095 -1.0665 -0.1882  1.4641
    9MOL0     H 1185  -0.513   9.133   3.232 -0.2246  1.8281  2.3008
    9MOL0     H 1186  -0.576   9.556   3.275  0.3764  0.7334 -2.5726
    9MOL0     H 1187  -0.251   8.817   3.027 -1.3609  2.3724  2.7434
    9MOL0     H 1188  -0.121   8.658   3.175  0.3700  0.4636 -0.6852
   10MOL0     O 1189   4.585   5.742   9.148 -0.3678 -1.1307 -0.6156
   10MOL0     C 1190   4.678   5.768   9.230  0.1652 -0.3828  0.4542
   10MOL0     O 1191   4.758   5.668   9.284 -0.8961  0.3164 -0.2034
   10MOL0     C 1192   4.787   5.550   9.218 -0.2019 -0.5925  0.9139
   10MOL0     C 1193   4.810   5.423   9.275  0.5652 -0.0689  0.0448
   10MOL0     C 1194   4.817   5.306   9.206 -0.1146 -0.1210  0.2804
   10MOL0     C 1195   4.833   5.307   9.068 -0.5979 -0.5127 -0.2509
   10MOL0     O 1196   4.869   5.193   8.997  0.4445  0.1804  0.3445
   10MOL0     C 1197   4.846   5.172   8.856  0.2611 -0.1653  0.1665
   10MOL0     C 1198   4.878   5.020   8.825  0.1448  0.5681 -0.1797
   10MOL0     C 1199   4.783   4.922   8.900 -0.3180 -0.1259  0.2919
   10MOL0     C 1200   4.642   4.926   8.835  1.0110  0.3300 -0.2870
   10MOL0     C 1201   4.570   4.792   8.873 -0.1038  0.3765  0.4818
   10MOL0     C 1202   4.436   4.781   8.807 -0.1858 -0.0810 -0.1365
   10MOL0     C 1203   4.379   4.646   8.836 -0.0812 -0.7133 -0.4049
   10MOL0     C 1204   4.228   4.648   8.785  1.2031 -1.0924 -0.0038
   10MOL0     N 1205   4.131   4.717   8.883 -0.1799  0.0203  0.6325
   10MOL0     C 1206   4.129   4.850   8.933 -0.5399  0.2515 -0.1580
   10MOL0     C 1207   4.018   4.838   9.012 -1.0271  1.1131 -0.1227
   10MOL0     C 1208   3.986   4.949   9.109 -0.2213 -0.7198  0.2988
   10MOL0     C 1209   3.835   4.991   9.103  0.0174  0.8200  0.8271
   10MOL0     C 1210   3.838   5.120   9.185 -0.0678  0.0943 -0.0191
   10MOL0     C 1211   3.706   5.186   9.192  0.1750  0.0840 -0.1216
   10MOL0     O 1212   3.686   5.272   9.078  0.4011  0.2751  0.3327
   10MOL0     C 1213   3.567   5.247   9.007  0.3504  0.1469  0.4098
   10MOL0     C 1214   3.569   5.297   8.877 -0.4548  0.2503  0.0442
   10MOL0     C 1215   3.445   5.307   8.817  0.6029  0.0139  0.0260
   10MOL0     C 1216   3.328   5.257   8.870 -1.0118 -0.4948 -0.2262
   10MOL0     C 1217   3.201   5.276   8.808 -0.4824  0.4155 -0.7667
   10MOL0     O 1218   3.178   5.235   8.679  0.2284  0.3423  0.0922
   10MOL0     C 1219   3.051   5.259   8.627  0.6333  1.0183 -0.9445
   10MOL0     C 1220   2.969   5.156   8.597 -0.5905  0.5409  0.2422
   10MOL0     C 1221   2.848   5.188   8.532  0.1349  0.2624 -0.1660
   10MOL0     C 1222   2.826   5.318   8.476  0.0950 -0.7989 -0.3615
   10MOL0     O 1223   2.709   5.357   8.404  0.3566  0.3410  0.3550
   10MOL0     C 1224   2.664   5.272   8.302 -0.2150 -0.0081  0.7623
   10MOL0     C 1225   2.548   5.199   8.366  0.2874  0.3199 -0.4168
   10MOL0     C 1226   2.460   5.139   8.253  0.3036  0.8843 -0.1979
   10MOL0     C 1227   2.351   5.220   8.222  0.1626  0.4829 -0.1237
   10MOL0     C 1228   2.246   5.142   8.142  0.0146 -0.9258 -0.3503
   10MOL0     C 1229   2.311   5.089   8.011  0.8362 -0.2539  0.1938
   10MOL0     C 1230   2.216   5.060   7.897 -0.2903  0.4974 -0.2513
   10MOL0     C 1231   2.192   5.180   7.811 -0.3612  1.1293  0.0253
   10MOL0    Cl 1232   2.161   5.142   7.647  0.0520 -0.6685 -0.1177
   10MOL0     C 1233   2.929   5.413   8.496  0.0534 -0.4512 -0.8978
   10MOL0     C 1234   3.037   5.383   8.578  1.3138  0.1537 -0.6861
   10MOL0     O 1235   3.114   5.327   8.871  0.1001  0.0097 -0.0361
   10MOL0     C 1236   3.327   5.215   9.005  0.0761 -0.6842  0.4955
   10MOL0     C 1237   3.446   5.222   9.072 -0.1705 -0.6575  0.9120
   10MOL0     N 1238   3.953   4.716   9.006  0.3445  0.6512 -0.2482
   10MOL0     N 1239   4.029   4.642   8.928  0.1844 -0.6524  0.2373
   10MOL0     C 1240   4.840   5.434   9.011 -0.4938 -0.4476  0.4586
   10MOL0     C 1241   4.813   5.554   9.077 -0.2513  0.9513 -0.7368
   10MOL0     C 1242   4.703   5.912   9.279  0.0564 -0.2314 -0.8945
   10MOL0     C 1243   4.646   6.019   9.210  0.6258 -0.5549 -0.5787
   10MOL0     C 1244   4.658   6.149   9.254 -0.3690 -0.4324  0.4617
   10MOL0     C 1245   4.740   6.179   9.361  0.0033  0.0594 -0.8866
   10MOL0     O 1246   4.746   6.313   9.394  0.2171 -0.3740 -0.1875
   10MOL0     C 1247   4.816   6.357   9.518  0.0522 -0.4182 -0.4009
   10MOL0     C 1248   4.963   6.366   9.502 -0.6354 -0.6657  0.6715
   10MOL0     C 1249   5.015   6.443   9.380 -0.1925  1.0431  1.2642
   10MOL0     C 1250   5.172   6.460   9.372  0.6051  0.1677 -0.4213
   10MOL0     C 1251   5.229   6.487   9.243  0.5295 -0.2430 -0.0852
   10MOL0     C 1252   5.272   6.518   9.138  0.3501  0.3884 -0.6570
   10MOL0     C 1253   4.806   6.071   9.424  0.0167  0.1124 -0.4285
   10MOL0     C 1254   4.791   5.939   9.396  0.2654  0.1690  0.7567
   10MOL0     H 1255   4.798   5.409   9.382  0.0756  0.4107  0.0550
   10MOL0     H 1256   4.824   5.222   9.274 -3.0295  1.2662  2.5036
   10MOL0     H 1257   4.925   5.227   8.804 -0.3407 -1.4314 -2.2836
   10MOL0     H 1258   4.747   5.198   8.817 -0.2815 -1.5878  0.5382
   10MOL0     H 1259   4.978   5.010   8.868  1.5562 -3.2307 -3.7754
   10MOL0     H 1260   4.876   4.997   8.719  1.2426 -1.5103  0.2163
   10MOL0     H 1261   4.773   4.943   9.007 -0.0391 -3.0655  0.9745
   10MOL0     H 1262   4.829   4.823   8.889  0.1610  0.3530 -2.6678
   10MOL0     H 1263   4.584   5.011   8.872 -0.1031  0.2898 -1.8727
   10MOL0     H 1264   4.653   4.938   8.727  4.0695 -0.7663 -0.2144
   10MOL0     H 1265   4.558   4.788   8.982 -0.3708  1.4055  0.4985
   10MOL0     H 1266   4.633   4.704   8.854 -0.0018 -0.1664  2.9708
   10MOL0     H 1267   4.449   4.788   8.699  1.0750  1.5826  0.0874
   10MOL0     H 1268   4.363   4.858   8.832 -1.3035 -1.2200  0.1885
   10MOL0     H 1269   4.432   4.572   8.776 -1.1069 -2.9987  1.3468
   10MOL0     H 1270   4.371   4.623   8.942 -0.2591  3.2162  0.6097
   10MOL0     H 1271   4.197   4.546   8.764  2.8972 -2.0343  1.7045
   10MOL0     H 1272   4.205   4.702   8.693  2.1075  2.4330  1.6568
   10MOL0     H 1273   4.192   4.939   8.934  0.5143 -0.3680 -2.7693
   10MOL0     H 1274   4.056   5.031   9.092 -0.9979  0.2287  1.4771
   10MOL0     H 1275   3.996   4.914   9.213  0.4313 -0.3959  0.3456
   10MOL0     H 1276   3.767   4.912   9.135  0.0218  0.5725  0.2495
   10MOL0     H 1277   3.794   5.007   9.002 -3.2406  0.6838  2.0264
   10MOL0     H 1278   3.868   5.095   9.287  0.3893 -0.2765 -0.2429
   10MOL0     H 1279   3.909   5.195   9.148 -0.3940  0.9663  1.0678
   10MOL0     H 1280   3.703   5.253   9.279  1.1726  0.2613 -0.2144
   10MOL0     H 1281   3.625   5.112   9.203 -0.2897  0.4718 -0.8525
   10MOL0     H 1282   3.668   5.332   8.848  0.0320  0.9168  2.2733
   10MOL0     H 1283   3.430   5.349   8.718 -0.3130 -0.8257 -0.2075
   10MOL0     H 1284   2.997   5.053   8.615 -0.3723 -0.1562 -3.3919
   10MOL0     H 1285   2.772   5.112   8.513  2.6280 -2.3580 -0.3252
   10MOL0     H 1286   2.750   5.208   8.278 -1.1866 -1.0227 -0.1088
   10MOL0     H 1287   2.642   5.332   8.214  2.5294  2.7729  1.7658
   10MOL0     H 1288   2.483   5.253   8.437  0.9311  0.1427  0.3178
   10MOL0     H 1289   2.588   5.111   8.417  0.2968 -1.4882 -3.3595
   10MOL0     H 1290   2.414   5.049   8.294  2.3432  0.6336  1.7182
   10MOL0     H 1291   2.523   5.112   8.168  2.2831 -0.4882  1.5950
   10MOL0     H 1292   2.313   5.270   8.311 -0.6046 -0.5251  0.1367
   10MOL0     H 1293   2.376   5.312   8.168 -1.3665  0.5946 -0.6989
   10MOL0     H 1294   2.169   5.204   8.096  1.1899 -1.9262 -4.0073
   10MOL0     H 1295   2.195   5.069   8.206 -0.8988  0.6040  0.7584
   10MOL0     H 1296   2.385   5.012   8.034  1.3461  0.6510  1.7214
   10MOL0     H 1297   2.376   5.167   7.971 -0.3841 -0.0317 -1.4662
   10MOL0     H 1298   2.265   4.986   7.833 -2.1282 -0.5936 -0.4625
   10MOL0     H 1299   2.121   5.023   7.938 -0.0546 -0.4026 -0.5032
   10MOL0     H 1300   2.283   5.240   7.809 -1.3994  3.0746  3.3628
   10MOL0     H 1301   2.107   5.240   7.846 -3.7473 -3.2862  0.3528
   10MOL0     H 1302   2.910   5.514   8.463 -0.5601 -0.7502 -1.4898
   10MOL0     H 1303   3.116   5.457   8.582  0.6555  0.8419 -0.0684
   10MOL0     H 1304   3.232   5.203   9.056 -1.7521 -0.4887 -2.6140
   10MOL0     H 1305   3.448   5.195   9.177  2.2603  1.0640  1.3847
   10MOL0     H 1306   4.843   5.467   8.908 -5.0511  4.3368  1.3724
   10MOL0     H 1307   4.802   5.646   9.021 -1.1159 -0.0280 -2.2556
   10MOL0     H 1308   4.577   5.987   9.133  0.4055 -1.5002 -0.0070
   10MOL0     H 1309   4.605   6.228   9.201  1.6987  1.9978  1.7653
   10MOL0     H 1310   4.797   6.286   9.599  2.0070 -1.5385 -0.8767
   10MOL0     H 1311   4.781   6.458   9.543  3.2621  1.0376 -1.2847
   10MOL0     H 1312   5.005   6.422   9.586  0.4332 -1.0953  0.4427
   10MOL0     H 1313   5.004   6.265   9.495 -2.1115 -1.2422 -0.2297
   10MOL0     H 1314   4.970   6.541   9.363  1.5835  1.4366 -2.1853
   10MOL0     H 1315   4.989   6.390   9.288  0.2481 -1.8692  2.6839
   10MOL0     H 1316   5.201   6.534   9.446 -0.2435 -0.4914  0.6024
   10MOL0     H 1317   5.210   6.371   9.423  0.7883  0.4160 -0.1242
   10MOL0     H 1318   5.311   6.536   9.039 -0.8510  1.3707 -0.9723
   10MOL0     H 1319   4.880   6.098   9.499  0.3830  3.9210 -1.9550
   10MOL0     H 1320   4.819   5.852   9.454 -2.0984  0.4687  2.5075
   11MOL0     O 1321  10.423  11.274  10.566  0.7510 -0.0535  0.3161
   11MOL0     C 1322  10.366  11.175  10.609 -0.2863 -0.5631  0.7965
   11MOL0     O 1323  10.285  11.094  10.528 -0.1777  0.0834  0.2431
   11MOL0     C 1324  10.300  11.097  10.389 -0.2201  0.6495 -0.3514
   11MOL0     C 1325  10.264  11.210  10.313 -0.0063  0.0538  0.3756
   11MOL0     C 1326  10.268  11.212  10.174 -0.0111  0.0238  0.1059
   11MOL0     C 1327  10.288  11.098  10.101 -0.1824  0.1590  0.3099
   11MOL0     O 1328  10.272  11.104   9.962 -0.2176  0.4376  0.3149
   11MOL0     C 1329  10.315  10.997   9.876 -0.3795  0.1442  0.3844
   11MOL0     C 1330  10.452  11.042   9.798  0.6408  0.0158 -0.9511
   11MOL0     C 1331  10.487  10.958   9.669  0.1111 -0.3198 -0.1688
   11MOL0     C 1332  10.641  10.949   9.643 -0.1075  0.7256  0.7302
   11MOL0     C 1333  10.687  10.815   9.702 -0.5200 -0.5897  0.4293
   11MOL0     C 1334  10.842  10.810   9.705  0.1861  0.0376 -0.6782
   11MOL0     C 1335  10.887  10.668   9.736 -0.3380  0.0173  0.3296
   11MOL0     C 1336  11.037  10.638   9.782 -0.3796  0.1598  0.0654
   11MOL0     N 1337  11.063  10.498   9.817  0.0389 -0.5873 -0.1572
   11MOL0     C 1338  11.068  10.402   9.711 -0.3913  0.3691 -0.7079
   11MOL0     C 1339  11.121  10.295   9.787 -0.9522  0.0767 -0.0104
   11MOL0     C 1340  11.170  10.167   9.723  0.1832 -0.3618 -0.2363
   11MOL0     C 1341  11.319  10.160   9.689 -0.5134 -0.9486 -0.8311
   11MOL0     C 1342  11.376  10.283   9.604 -0.3273 -0.1764  0.0520
   11MOL0     C 1343  11.531  10.269   9.577  1.1578 -0.3729  0.0700
   11MOL0     O 1344  11.594  10.399   9.559 -0.8488 -0.5963 -1.3208
   11MOL0     C 1345  11.691  10.424   9.658 -0.3981  0.0615 -0.1310
   11MOL0     C 1346  11.830  10.424   9.622  0.6266  0.2739 -0.1025
   11MOL0     C 1347  11.928  10.419   9.716  0.8345  0.0389  0.7970
   11MOL0     C 1348  11.895  10.441   9.848  1.0941  0.7592  0.0857
   11MOL0     C 1349  12.000  10.439   9.950  0.8126 -0.3297  1.0900
   11MOL0     O 1350  11.972  10.488  10.076 -0.4537 -0.1998 -1.4513
   11MOL0     C 1351  12.075  10.502  10.166 -0.0577  0.0436  0.3359
   11MOL0     C 1352  12.128  10.389  10.235 -0.0630  0.4316  0.0293
   11MOL0     C 1353  12.230  10.390  10.329 -0.4350 -0.3565  0.3477
   11MOL0     C 1354  12.284  10.519  10.371  0.6392  0.1706 -0.1879
   11MOL0     O 1355  12.385  10.528  10.461 -0.0091  0.1598 -0.3239
   11MOL0     C 1356  12.413  10.410  10.544  0.1299  0.0103  0.0651
   11MOL0     C 1357  12.532  10.442  10.637  0.3462 -0.0083  0.3991
   11MOL0     C 1358  12.589  10.321  10.723  0.4113 -0.0997 -0.3579
   11MOL0     C 1359  12.671  10.380  10.840 -1.0191 -0.2653 -0.4573
   11MOL0     C 1360  12.724  10.262  10.926  0.0007 -0.0791 -0.2405
   11MOL0     C 1361  12.834  10.301  11.029 -0.1776  0.2567 -0.0931
   11MOL0     C 1362  12.780  10.425  11.110  0.1760  0.3381 -0.7768
   11MOL0     C 1363  12.840  10.558  11.078 -0.0186 -0.9422  0.3285
   11MOL0    Cl 1364  12.733  10.679  11.132  0.4304 -0.0465  0.0549
   11MOL0     C 1365  12.231  10.633  10.312  0.1582 -0.6351 -0.1494
   11MOL0     C 1366  12.123  10.623  10.213 -0.9788 -0.8422 -0.4382
   11MOL0     O 1367  12.109  10.393   9.921  0.1436 -0.2902  0.7047
   11MOL0     C 1368  11.757  10.441   9.887 -0.5284  0.2231  0.0483
   11MOL0     C 1369  11.654  10.425   9.795 -0.2098 -0.8260  0.2561
   11MOL0     N 1370  11.134  10.325   9.922 -0.2104  0.4528  0.3266
   11MOL0     N 1371  11.103  10.444   9.936  0.9944 -0.5605 -0.7230
   11MOL0     C 1372  10.319  10.988  10.177 -0.7521  0.4506 -0.4357
   11MOL0     C 1373  10.326  10.981  10.319  0.0696 -0.0815  0.3054
   11MOL0     C 1374  10.380  11.159  10.753 -0.5266  0.4316 -0.0758
   11MOL0     C 1375  10.440  11.264  10.838 -0.0992  0.0010  0.4119
   11MOL0     C 1376  10.452  11.228  10.977  0.6605  0.6002 -0.2659
   11MOL0     C 1377  10.402  11.104  11.034 -0.6393  0.6112  0.1759
   11MOL0     O 1378  10.406  11.082  11.166  0.5371  0.1016  0.1528
   11MOL0     C 1379  10.302  11.028  11.228  0.1046  0.2608 -0.6148
   11MOL0     C 1380  10.250  11.132  11.329 -0.8187  0.6584 -0.4287
   11MOL0     C 1381  10.367  11.152  11.429 -0.1546 -0.2764 -0.2466
   11MOL0     C 1382  10.313  11.226  11.556  0.8658  0.0907  0.1184
   11MOL0     C 1383  10.353  11.172  11.684  0.5984 -0.9346  0.0817
   11MOL0     C 1384  10.357  11.145  11.805 -0.1183 -0.3009 -0.3581
   11MOL0     C 1385  10.369  10.999  10.944 -0.6573 -0.7130 -0.2457
   11MOL0     C 1386  10.361  11.033  10.808 -0.6511  0.4909 -0.6937
   11MOL0     H 1387  10.234  11.302  10.361 -1.4776 -0.4716  0.5262
   11MOL0     H 1388  10.242  11.301  10.118  0.3466  0.0713  0.0071
   11MOL0     H 1389  10.248  10.986   9.790  1.9002 -1.5669 -1.3232
   11MOL0     H 1390  10.316  10.898   9.924 -1.9349 -0.1425 -0.1281
   11MOL0     H 1391  10.533  11.025   9.869 -0.8320 -0.2969  0.7023
   11MOL0     H 1392  10.456  11.149   9.774 -0.7031  0.3210  0.0524
   11MOL0     H 1393  10.439  11.009   9.585  0.6326  3.9318  1.8904
   11MOL0     H 1394  10.442  10.859   9.680  2.6738 -1.6573 -0.7404
   11MOL0     H 1395  10.660  10.950   9.536 -1.6466 -1.2719  0.3864
   11MOL0     H 1396  10.690  11.039   9.683 -2.5138  2.0001  0.9555
   11MOL0     H 1397  10.647  10.740   9.634 -0.7133  0.5736 -0.7832
   11MOL0     H 1398  10.653  10.796   9.804  0.7392  1.2091  1.2477
   11MOL0     H 1399  10.887  10.878   9.778 -2.6799 -0.8430  2.1350
   11MOL0     H 1400  10.873  10.826   9.601 -1.9175 -3.1294 -1.9484
   11MOL0     H 1401  10.828  10.613   9.811  1.3594 -2.2837  0.0879
   11MOL0     H 1402  10.877  10.601   9.650  1.2991  1.0267 -0.6875
   11MOL0     H 1403  11.078  10.700   9.862  2.2120  1.0658 -1.8380
   11MOL0     H 1404  11.101  10.666   9.698  0.0052  2.0710  0.9369
   11MOL0     H 1405  11.055  10.409   9.604 -0.0036 -1.2609 -0.8827
   11MOL0     H 1406  11.112  10.152   9.631 -0.8447  2.5270 -0.1467
   11MOL0     H 1407  11.155  10.087   9.796 -0.0438 -0.1482 -0.0503
   11MOL0     H 1408  11.327  10.062   9.641  0.9023 -1.4326  0.3159
   11MOL0     H 1409  11.379  10.172   9.780  1.2564  1.1902 -2.1845
   11MOL0     H 1410  11.316  10.312   9.517 -1.5657  0.9220  1.2205
   11MOL0     H 1411  11.360  10.369   9.670 -1.4580 -1.5986  1.7312
   11MOL0     H 1412  11.544  10.211   9.484  2.1264  0.6379 -0.4534
   11MOL0     H 1413  11.580  10.206   9.651 -1.6586 -1.9953  0.7143
   11MOL0     H 1414  11.852  10.427   9.515  0.6663  1.1169 -0.0747
   11MOL0     H 1415  12.035  10.418   9.697  1.5235  3.1986  3.5424
   11MOL0     H 1416  12.092  10.291  10.207  1.3479 -0.4902  1.2647
   11MOL0     H 1417  12.266  10.296  10.368 -0.3296 -1.1420 -1.5171
   11MOL0     H 1418  12.434  10.321  10.484 -0.0275 -0.8129  1.1944
   11MOL0     H 1419  12.324  10.397  10.608 -1.6154  2.5432 -1.6626
   11MOL0     H 1420  12.500  10.524  10.702 -0.2543 -0.9685  1.3653
   11MOL0     H 1421  12.619  10.471  10.578 -0.1847 -0.2467 -0.5186
   11MOL0     H 1422  12.650  10.248  10.669  2.0420 -1.6384  3.2334
   11MOL0     H 1423  12.510  10.259  10.767  1.4092 -0.2445  1.2905
   11MOL0     H 1424  12.757  10.442  10.811 -0.3474 -0.7026  0.5376
   11MOL0     H 1425  12.603  10.450  10.888  0.8802  1.3640  0.0212
   11MOL0     H 1426  12.783  10.191  10.867  1.7026 -1.5879  2.9897
   11MOL0     H 1427  12.638  10.207  10.965 -3.3074  2.7386 -2.9168
   11MOL0     H 1428  12.932  10.330  10.988 -0.8807  0.2455 -1.8626
   11MOL0     H 1429  12.855  10.218  11.097 -3.1578 -1.7733 -1.4603
   11MOL0     H 1430  12.671  10.430  11.103  0.1215 -1.3251 -1.6129
   11MOL0     H 1431  12.804  10.408  11.215 -0.2389  0.1127 -0.7158
   11MOL0     H 1432  12.854  10.569  10.970  1.1126 -4.6113 -0.0261
   11MOL0     H 1433  12.940  10.568  11.121  0.9718 -1.8100 -1.6481
   11MOL0     H 1434  12.278  10.726  10.342 -2.4473  1.4826 -2.1601
   11MOL0     H 1435  12.114  10.726  10.178 -1.2749 -0.5311  0.5246
   11MOL0     H 1436  11.740  10.452   9.994  1.5920 -2.5816  0.7928
   11MOL0     H 1437  11.552  10.404   9.827 -0.1541  1.4149  2.1384
   11MOL0     H 1438  10.340  10.900  10.119  3.4018  0.7313  0.3744
   11MOL0     H 1439  10.374  10.901  10.374 -1.8122 -1.9681 -0.6658
   11MOL0     H 1440  10.463  11.359  10.790  0.2648 -0.2079  0.1698
   11MOL0     H 1441  10.481  11.314  11.037  0.5209  1.4004 -1.3042
   11MOL0     H 1442  10.344  10.937  11.272  0.5785  0.0314 -1.5229
   11MOL0     H 1443  10.213  10.998  11.170 -0.5827  0.2295  0.4338
   11MOL0     H 1444  10.235  11.232  11.288  0.4458  0.7610 -0.6690
   11MOL0     H 1445  10.173  11.087  11.392  2.8321 -0.1409  4.0517
   11MOL0     H 1446  10.458  11.195  11.386  1.5787 -1.3315  2.1181
   11MOL0     H 1447  10.399  11.050  11.452 -0.8747 -0.9619 -2.1118
   11MOL0     H 1448  10.320  11.335  11.547 -0.1102  0.0942 -0.8734
   11MOL0     H 1449  10.206  11.202  11.548  0.2838  2.6678 -0.5763
   11MOL0     H 1450  10.374  11.113  11.906  2.0343  0.4367 -0.4452
   11MOL0     H 1451  10.361  10.900  10.987 -0.1135 -0.8796 -0.5060
   11MOL0     H 1452  10.348  10.948  10.742  1.1117  0.2056 -0.7170
   12MOL0     O 1453   3.140   7.054   8.736 -0.6619  0.0831  0.0399
   12MOL0     C 1454   3.245   7.089   8.672 -0.2226 -0.2244 -0.1127
   12MOL0     O 1455   3.272   7.054   8.536 -0.4188 -0.5611 -0.1595
   12MOL0     C 1456   3.200   6.961   8.473  0.6677  0.0969 -0.1704
   12MOL0     C 1457   3.140   6.959   8.340 -0.0568  0.4131 -0.0248
   12MOL0     C 1458   3.079   6.845   8.288  0.4161 -0.7184  0.3451
   12MOL0     C 1459   3.061   6.728   8.358 -0.1523 -0.1038 -0.5766
   12MOL0     O 1460   3.013   6.616   8.312 -0.4706 -0.1324 -0.2886
   12MOL0     C 1461   3.037   6.486   8.366 -0.0814 -0.1832  0.0358
   12MOL0     C 1462   2.955   6.397   8.274  0.5614  0.1820 -0.9639
   12MOL0     C 1463   3.036   6.318   8.172 -0.1883 -0.6347  0.6641
   12MOL0     C 1464   3.161   6.391   8.117 -0.4197 -0.5839 -0.2852
   12MOL0     C 1465   3.219   6.316   7.988 -0.0801  0.0759 -0.6213
   12MOL0     C 1466   3.367   6.339   7.977 -0.0353 -0.5569  0.5906
   12MOL0     C 1467   3.441   6.230   7.892 -0.5886  0.8254  0.2897
   12MOL0     C 1468   3.443   6.245   7.750 -0.2250  0.1236  0.8355
   12MOL0     N 1469   3.446   6.120   7.673 -0.9652  0.0319  0.1018
   12MOL0     C 1470   3.530   6.012   7.671 -1.2808 -0.9397 -0.4566
   12MOL0     C 1471   3.485   5.929   7.579 -0.4179  0.2623  0.0224
   12MOL0     C 1472   3.526   5.785   7.556 -0.0281 -0.4988 -0.6579
   12MOL0     C 1473   3.642   5.766   7.457 -0.1766 -0.7503 -0.8640
   12MOL0     C 1474   3.670   5.619   7.434  0.0516  0.2818 -0.4982
   12MOL0     C 1475   3.797   5.600   7.365 -0.4298 -0.2095  0.8004
   12MOL0     O 1476   3.775   5.525   7.241  0.6823  0.3665 -0.0667
   12MOL0     C 1477   3.741   5.584   7.119  0.5313  0.4519  0.2480
   12MOL0     C 1478   3.702   5.718   7.091 -0.3330  0.8265  0.0720
   12MOL0     C 1479   3.661   5.754   6.966  0.0858 -0.2927  0.2112
   12MOL0     C 1480   3.653   5.665   6.858  0.4814 -0.0530 -0.8250
   12MOL0     C 1481   3.625   5.720   6.718  0.1073  0.1885  0.7913
   12MOL0     O 1482   3.638   5.633   6.607 -0.0184 -0.4064  0.4434
   12MOL0     C 1483   3.610   5.680   6.477 -0.1055 -0.2797 -0.6978
   12MOL0     C 1484   3.529   5.593   6.411 -0.2213  0.0441  0.2295
   12MOL0     C 1485   3.497   5.618   6.276 -0.2429  0.3633 -0.3769
   12MOL0     C 1486   3.540   5.738   6.205 -0.0527 -0.3658 -0.3187
   12MOL0     O 1487   3.531   5.793   6.079 -0.0938  0.9029  0.1209
   12MOL0     C 1488   3.469   5.706   5.982  0.2007  0.1389  0.8432
   12MOL0     C 1489   3.551   5.581   5.948 -0.0263  0.0873  0.8383
   12MOL0     C 1490   3.681   5.612   5.883  0.2066 -0.6513  0.2960
   12MOL0     C 1491   3.653   5.648   5.733 -0.6953  0.6646 -0.2425
   12MOL0     C 1492   3.778   5.693   5.652 -0.7753  0.3864 -0.5031
   12MOL0     C 1493   3.837   5.832   5.693 -0.7322 -0.5318 -0.2166
   12MOL0     C 1494   3.945   5.877   5.601 -0.4078 -0.8164  0.9918
   12MOL0     C 1495   3.915   5.973   5.489  0.4531  0.2574 -0.4204
   12MOL0    Cl 1496   3.895   6.134   5.567  0.3669 -0.0510 -0.4619
   12MOL0     C 1497   3.634   5.820   6.273  0.7766 -0.2915  0.0945
   12MOL0     C 1498   3.659   5.799   6.407  0.4467  0.0887  0.3805
   12MOL0     O 1499   3.613   5.841   6.707  0.7992  0.1096 -0.0862
   12MOL0     C 1500   3.689   5.525   6.889  0.3716  0.4752  0.1461
   12MOL0     C 1501   3.730   5.488   7.017 -0.5550 -0.3308  0.2697
   12MOL0     N 1502   3.374   5.984   7.520  0.8884  0.4898  0.0313
   12MOL0     N 1503   3.361   6.095   7.577  0.4903  0.6696  0.0687
   12MOL0     C 1504   3.123   6.730   8.490  0.6221 -0.7614  0.7893
   12MOL0     C 1505   3.195   6.838   8.542  0.0092 -0.3289  0.0538
   12MOL0     C 1506   3.341   7.187   8.733  0.0677 -0.2769  0.0989
   12MOL0     C 1507   3.471   7.212   8.679 -0.0034 -1.1101 -0.6828
   12MOL0     C 1508   3.554   7.305   8.735 -0.6627  0.6172  0.0620
   12MOL0     C 1509   3.513   7.392   8.842 -0.4901 -0.2392  0.8564
   12MOL0     O 1510   3.601   7.492   8.876  0.5162  0.1215 -0.0643
   12MOL0     C 1511   3.589   7.540   9.006 -1.0879 -1.0374  0.8046
   12MOL0     C 1512   3.660   7.680   9.022  0.4810  0.9166  0.0957
   12MOL0     C 1513   3.698   7.700   9.170  0.0706 -0.1710 -1.0025
   12MOL0     C 1514   3.772   7.830   9.211  0.0754 -0.2169 -0.3987
   12MOL0     C 1515   3.895   7.839   9.138  0.4565 -0.7833  0.6984
   12MOL0     C 1516   4.013   7.851   9.096  0.8574  0.6514 -0.5110
   12MOL0     C 1517   3.386   7.363   8.904  0.4475  1.0076  1.1756
   12MOL0     C 1518   3.300   7.261   8.845 -0.8810 -0.2121 -0.9189
   12MOL0     H 1519   3.129   7.052   8.285 -2.5046 -0.8621 -1.8945
   12MOL0     H 1520   3.056   6.839   8.182  1.1875 -2.4860  0.2285
   12MOL0     H 1521   2.993   6.465   8.463 -2.9261 -0.7614 -1.2957
   12MOL0     H 1522   3.143   6.461   8.377  0.1212 -0.9860 -2.9143
   12MOL0     H 1523   2.870   6.453   8.234 -1.4188 -2.3757 -0.5880
   12MOL0     H 1524   2.915   6.323   8.344 -0.1064  1.2334 -0.1971
   12MOL0     H 1525   2.973   6.294   8.086 -0.7204  3.7657 -0.3735
   12MOL0     H 1526   3.067   6.224   8.220 -2.2178 -2.5864 -1.5488
   12MOL0     H 1527   3.144   6.492   8.077 -0.0617 -0.1476  0.6243
   12MOL0     H 1528   3.240   6.401   8.191 -0.6623  4.7748 -0.3188
   12MOL0     H 1529   3.181   6.342   7.888  0.2041  0.2228 -0.6953
   12MOL0     H 1530   3.206   6.208   7.997  2.6331 -0.1789  1.9171
   12MOL0     H 1531   3.417   6.333   8.074 -0.6060 -5.6239  0.8440
   12MOL0     H 1532   3.387   6.432   7.923  1.5352 -0.6254  1.0126
   12MOL0     H 1533   3.544   6.208   7.924 -1.0001 -1.1271  0.4173
   12MOL0     H 1534   3.399   6.133   7.921 -0.6593  1.8345  4.2154
   12MOL0     H 1535   3.529   6.308   7.724  0.1555 -0.9081 -0.5091
   12MOL0     H 1536   3.358   6.306   7.718  1.6247  1.1553 -2.6584
   12MOL0     H 1537   3.601   5.975   7.743 -2.8681 -3.3139  0.0147
   12MOL0     H 1538   3.435   5.737   7.519 -0.2702 -2.0548  1.7603
   12MOL0     H 1539   3.549   5.743   7.654  2.1397  0.8342 -0.5363
   12MOL0     H 1540   3.734   5.816   7.489  0.0523 -0.2037 -2.3060
   12MOL0     H 1541   3.603   5.811   7.366 -0.2177 -1.0416 -0.9923
   12MOL0     H 1542   3.681   5.563   7.527  3.0478  0.1018 -0.8494
   12MOL0     H 1543   3.583   5.575   7.383 -0.5676 -0.5384  1.1941
   12MOL0     H 1544   3.864   5.537   7.424 -0.6587  1.3209  2.7903
   12MOL0     H 1545   3.862   5.687   7.352  2.2464 -2.3213 -1.2460
   12MOL0     H 1546   3.707   5.790   7.171  0.5211 -0.1996  0.9630
   12MOL0     H 1547   3.638   5.860   6.959  1.9616  0.1120 -0.5602
   12MOL0     H 1548   3.499   5.500   6.458 -3.0777 -0.1553 -1.7969
   12MOL0     H 1549   3.440   5.539   6.229 -2.1665  2.5950 -2.0536
   12MOL0     H 1550   3.456   5.762   5.889  2.5070  0.7251  0.8142
   12MOL0     H 1551   3.367   5.674   6.005 -1.0069  1.7074 -1.8198
   12MOL0     H 1552   3.507   5.500   5.889  0.5926 -0.1214  0.6475
   12MOL0     H 1553   3.576   5.533   6.043  1.8253  2.1526  1.4697
   12MOL0     H 1554   3.747   5.527   5.866  2.5298  1.0462  0.2787
   12MOL0     H 1555   3.731   5.700   5.924  0.9203 -1.2115  0.6393
   12MOL0     H 1556   3.608   5.558   5.689  1.9627 -0.6338 -0.5100
   12MOL0     H 1557   3.571   5.719   5.723  0.0453  1.3797 -1.4795
   12MOL0     H 1558   3.745   5.704   5.548  1.7155  2.1692 -1.1966
   12MOL0     H 1559   3.859   5.621   5.667 -2.2493 -1.0125  1.2083
   12MOL0     H 1560   3.880   5.834   5.794  4.2667  0.2221 -2.0490
   12MOL0     H 1561   3.749   5.896   5.688 -2.0546 -2.2980 -0.2944
   12MOL0     H 1562   4.033   5.911   5.658  2.1717 -2.2688 -1.8076
   12MOL0     H 1563   3.976   5.786   5.548  0.0045 -0.2867  0.2958
   12MOL0     H 1564   3.834   5.947   5.420  0.8769  0.6176 -1.0748
   12MOL0     H 1565   4.011   5.987   5.437  0.3481  0.4263 -0.5692
   12MOL0     H 1566   3.690   5.903   6.231  1.8080 -0.7071  0.6130
   12MOL0     H 1567   3.736   5.862   6.451  2.0550 -1.4466 -0.1669
   12MOL0     H 1568   3.686   5.445   6.816 -0.4220  0.2691  0.3920
   12MOL0     H 1569   3.729   5.381   7.033 -3.4745 -0.0381  2.8184
   12MOL0     H 1570   3.125   6.642   8.553  4.4629 -0.0197  1.9580
   12MOL0     H 1571   3.248   6.827   8.636  2.0635  0.6798 -0.9201
   12MOL0     H 1572   3.516   7.172   8.588  2.1887  2.9047 -1.6042
   12MOL0     H 1573   3.651   7.312   8.687  0.1578 -3.7026  0.6578
   12MOL0     H 1574   3.645   7.463   9.059  0.7810 -0.2321  0.1048
   12MOL0     H 1575   3.485   7.538   9.041 -1.3372 -1.2357  0.0883
   12MOL0     H 1576   3.753   7.692   8.964  0.4107 -0.7911 -0.4094
   12MOL0     H 1577   3.587   7.753   8.985 -0.1418 -0.0273 -0.5945
   12MOL0     H 1578   3.756   7.614   9.206 -2.2211 -1.1417  0.5574
   12MOL0     H 1579   3.612   7.708   9.236  3.0541  1.5860  3.1535
   12MOL0     H 1580   3.707   7.916   9.196 -1.9916 -1.6698 -0.1797
   12MOL0     H 1581   3.791   7.823   9.319 -2.2317 -3.2668 -0.0372
   12MOL0     H 1582   4.111   7.855   9.051  0.9143 -0.7619 -0.5617
   12MOL0     H 1583   3.341   7.432   8.974  2.7596  0.4730  3.3366
   12MOL0     H 1584   3.199   7.245   8.883 -1.0910  0.5176 -1.1547
   13MOL0     O 1585   0.847   5.247   5.439  0.4223  0.6397 -0.0772
   13MOL0     C 1586   0.862   5.172   5.537  0.0183 -0.5005 -0.8474
   13MOL0     O 1587   0.789   5.058   5.562 -0.0940  0.6528  0.2284
   13MOL0     C 1588   0.699   5.033   5.467 -0.2367  0.4493  1.1942
   13MOL0     C 1589   0.565   5.052   5.493 -0.4879 -0.0777  0.0795
   13MOL0     C 1590   0.479   5.027   5.387  0.8699 -0.7677 -1.3678
   13MOL0     C 1591   0.516   4.972   5.267 -1.1594  0.0857  0.5305
   13MOL0     O 1592   0.430   4.945   5.159 -0.5462 -0.4235 -0.7452
   13MOL0     C 1593   0.289   4.930   5.189  0.4969  0.9401 -1.0774
   13MOL0     C 1594   0.220   4.883   5.060  0.2544 -0.0083 -0.1999
   13MOL0     C 1595   0.070   4.916   5.028 -1.4861  0.4777 -0.0905
   13MOL0     C 1596   0.021   4.870   4.894  0.9650  0.0437 -0.2511
   13MOL0     C 1597  -0.117   4.927   4.865  0.2166  1.2280 -0.0422
   13MOL0     C 1598  -0.151   4.900   4.722  0.4459 -0.7487 -0.7858
   13MOL0     C 1599  -0.263   5.001   4.686 -0.7332  0.5534 -0.1479
   13MOL0     C 1600  -0.284   4.997   4.532  0.1540  0.6014  0.0705
   13MOL0     N 1601  -0.407   5.072   4.479 -0.4016  0.4425  0.1034
   13MOL0     C 1602  -0.415   5.167   4.388  0.8108 -0.7686  0.9354
   13MOL0     C 1603  -0.545   5.185   4.361  0.2761  0.3419  0.3363
   13MOL0     C 1604  -0.608   5.298   4.285 -0.4050 -0.5177  0.4576
   13MOL0     C 1605  -0.685   5.391   4.378  0.0557 -0.0423 -0.8342
   13MOL0     C 1606  -0.596   5.476   4.473 -0.1552 -0.5483  0.6354
   13MOL0     C 1607  -0.499   5.570   4.391 -0.1322 -0.6827 -0.7025
   13MOL0     O 1608  -0.471   5.681   4.484 -0.1127  0.4240 -0.1913
   13MOL0     C 1609  -0.553   5.787   4.462  0.2348 -0.3685 -0.2926
   13MOL0     C 1610  -0.616   5.857   4.567 -0.4361  0.1578  0.3760
   13MOL0     C 1611  -0.672   5.988   4.544  0.0267  0.5946  0.3397
   13MOL0     C 1612  -0.675   6.042   4.417  0.4525  0.1457  0.4632
   13MOL0     C 1613  -0.743   6.172   4.388  0.1792 -0.5776  0.3373
   13MOL0     O 1614  -0.731   6.221   4.255  0.2606 -0.0694  0.1592
   13MOL0     C 1615  -0.820   6.322   4.223 -0.5347 -0.0694  0.4822
   13MOL0     C 1616  -0.773   6.418   4.138  0.3776  0.1533  0.0961
   13MOL0     C 1617  -0.860   6.515   4.083 -0.0103 -0.4291  0.4503
   13MOL0     C 1618  -0.997   6.528   4.103 -0.5936  0.0911 -0.2703
   13MOL0     O 1619  -1.079   6.623   4.047 -0.0818 -0.3223 -0.1615
   13MOL0     C 1620  -1.027   6.740   3.972 -0.5856 -0.0965 -0.8682
   13MOL0     C 1621  -1.142   6.832   3.932  0.2842 -0.5867  0.3131
   13MOL0     C 1622  -1.097   6.982   3.927 -1.2024  0.3284 -0.3115
   13MOL0     C 1623  -1.109   7.039   4.071 -0.7419 -0.6363 -0.6396
   13MOL0     C 1624  -1.116   7.189   4.073  0.4395 -0.0631  0.7789
   13MOL0     C 1625  -0.982   7.259   4.058 -0.4605 -0.4051  0.5648
   13MOL0     C 1626  -0.999   7.418   4.057 -0.2265 -0.2997  0.3890
   13MOL0     C 1627  -1.059   7.466   3.922 -0.1100 -0.2238  0.3075
   13MOL0    Cl 1628  -0.957   7.579   3.829  0.2823  0.5277 -0.1851
   13MOL0     C 1629  -1.050   6.427   4.185 -0.3323 -0.4428  0.7634
   13MOL0     C 1630  -0.963   6.332   4.243  0.3708  0.2606 -0.2940
   13MOL0     O 1631  -0.822   6.215   4.473 -0.1767 -0.2367 -0.3471
   13MOL0     C 1632  -0.621   5.969   4.310  0.1026  0.0111 -1.3346
   13MOL0     C 1633  -0.558   5.851   4.331 -0.4771 -0.2964 -0.2821
   13MOL0     N 1634  -0.616   5.073   4.409  0.4259  0.6266 -0.6280
   13MOL0     N 1635  -0.529   5.003   4.481  0.5632 -0.3211  0.6706
   13MOL0     C 1636   0.655   4.945   5.248 -0.1437  0.1822 -0.6775
   13MOL0     C 1637   0.746   4.981   5.339 -0.4152  0.2642  0.1650
   13MOL0     C 1638   0.975   5.204   5.626 -0.9468  0.3346 -0.3933
   13MOL0     C 1639   1.035   5.326   5.627  0.3892  0.6802  0.1151
   13MOL0     C 1640   1.137   5.363   5.710 -1.1815 -0.3892  0.4456
   13MOL0     C 1641   1.185   5.275   5.806 -0.5496 -0.2614  0.2369
   13MOL0     O 1642   1.267   5.301   5.914  0.4655 -0.1232  0.8295
   13MOL0     C 1643   1.366   5.404   5.880 -0.0676 -0.8387  0.1420
   13MOL0     C 1644   1.436   5.455   6.002  0.5406 -0.3596 -0.1461
   13MOL0     C 1645   1.506   5.594   5.980  0.1006  0.1534  0.2708
   13MOL0     C 1646   1.608   5.601   5.870  0.3626 -0.4337  0.3373
   13MOL0     C 1647   1.744   5.563   5.935  0.7689 -0.3280  0.0426
   13MOL0     C 1648   1.846   5.524   5.981  0.7606 -0.5060  0.8655
   13MOL0     C 1649   1.118   5.148   5.818 -0.3337 -0.5706  0.0783
   13MOL0     C 1650   1.018   5.110   5.725 -0.4934 -0.2453 -0.9641
   13MOL0     H 1651   0.533   5.093   5.589  1.3232  2.9796 -0.5000
   13MOL0     H 1652   0.376   5.060   5.401  1.8142  2.9829 -2.2811
   13MOL0     H 1653   0.238   5.021   5.219 -0.7717 -0.1784  0.3407
   13MOL0     H 1654   0.282   4.868   5.279  0.6566  1.8102 -0.4635
   13MOL0     H 1655   0.238   4.775   5.046 -0.2881  0.3010 -4.3914
   13MOL0     H 1656   0.274   4.931   4.978  2.9248 -2.1251  0.1598
   13MOL0     H 1657   0.070   5.024   5.043  3.3849  0.5745  0.9901
   13MOL0     H 1658   0.002   4.873   5.102 -1.8082  2.0367  0.5513
   13MOL0     H 1659   0.080   4.920   4.815  1.3129  1.0581  0.6303
   13MOL0     H 1660   0.033   4.762   4.885 -3.4176 -0.7983  1.5524
   13MOL0     H 1661  -0.108   5.035   4.878 -1.3186  1.5442 -1.2497
   13MOL0     H 1662  -0.200   4.895   4.928  2.4128 -0.1634  2.3544
   13MOL0     H 1663  -0.161   4.794   4.700  3.5071 -0.6897 -2.9819
   13MOL0     H 1664  -0.061   4.931   4.670  0.3200 -1.7482 -1.6196
   13MOL0     H 1665  -0.352   4.970   4.742 -0.5973  2.3913  1.2129
   13MOL0     H 1666  -0.240   5.108   4.699 -2.7044  1.2914 -2.1254
   13MOL0     H 1667  -0.295   4.892   4.504  0.6914 -0.4290  3.2761
   13MOL0     H 1668  -0.198   5.045   4.484  2.8674 -0.3265  3.5317
   13MOL0     H 1669  -0.344   5.238   4.347 -0.2283 -1.2194 -1.8863
   13MOL0     H 1670  -0.669   5.254   4.204  0.7440 -1.2190 -0.0468
   13MOL0     H 1671  -0.544   5.360   4.222 -2.4931  0.7247 -0.5742
   13MOL0     H 1672  -0.750   5.324   4.436  1.3100 -0.7434 -0.1800
   13MOL0     H 1673  -0.745   5.457   4.315 -0.0960 -1.3438 -2.1037
   13MOL0     H 1674  -0.667   5.539   4.527 -0.7704 -1.3645  0.7979
   13MOL0     H 1675  -0.540   5.411   4.541  2.2803  0.4993 -0.2614
   13MOL0     H 1676  -0.545   5.606   4.299  0.2568  3.5277  0.5634
   13MOL0     H 1677  -0.403   5.527   4.358  1.2033  0.9582  0.8420
   13MOL0     H 1678  -0.626   5.806   4.663 -2.5024  2.9238  1.7819
   13MOL0     H 1679  -0.723   6.041   4.624 -1.4637 -0.5739  0.1949
   13MOL0     H 1680  -0.666   6.422   4.122  0.2325 -0.0788 -0.9918
   13MOL0     H 1681  -0.818   6.592   4.019  0.8098 -0.4532  0.9492
   13MOL0     H 1682  -0.972   6.696   3.888  2.1785  2.6985 -0.7066
   13MOL0     H 1683  -0.955   6.785   4.041 -1.0229 -0.6723 -0.0189
   13MOL0     H 1684  -1.228   6.829   3.999 -0.2724  0.5006 -0.3379
   13MOL0     H 1685  -1.179   6.816   3.831 -0.2321 -0.8663  0.5425
   13MOL0     H 1686  -1.162   7.044   3.863 -2.1242  3.1906  3.0904
   13MOL0     H 1687  -0.992   6.974   3.898 -0.3884 -2.1500  2.7734
   13MOL0     H 1688  -1.202   7.005   4.117 -0.6193  1.3607  1.2217
   13MOL0     H 1689  -1.018   7.016   4.127 -0.4051  1.3204 -0.3271
   13MOL0     H 1690  -1.178   7.217   4.158 -0.5379 -2.6368  1.0235
   13MOL0     H 1691  -1.180   7.218   3.989  2.1034 -1.9267 -1.2690
   13MOL0     H 1692  -0.938   7.227   3.963 -1.6325  0.6890 -0.3795
   13MOL0     H 1693  -0.912   7.228   4.137 -3.4895 -5.7094  1.6660
   13MOL0     H 1694  -1.055   7.457   4.141  0.3775  1.4568  0.0106
   13MOL0     H 1695  -0.903   7.469   4.071 -3.0918  6.9642 -1.7638
   13MOL0     H 1696  -1.155   7.514   3.944 -0.7075 -0.4828 -1.6201
   13MOL0     H 1697  -1.087   7.383   3.857  0.1971  0.7456 -1.1161
   13MOL0     H 1698  -1.151   6.445   4.222  0.6200  1.5801  2.6325
   13MOL0     H 1699  -1.007   6.249   4.298  2.6152  0.8406  2.6265
   13MOL0     H 1700  -0.635   6.010   4.210  0.0385 -0.0967 -1.3704
   13MOL0     H 1701  -0.514   5.796   4.249 -1.2487 -1.4085  0.0148
   13MOL0     H 1702   0.677   4.887   5.159 -1.9621  0.3390 -1.2831
   13MOL0     H 1703   0.850   4.950   5.336 -0.1939  1.0660 -1.1168
   13MOL0     H 1704   0.994   5.392   5.551 -1.8584  1.2585  1.7116
   13MOL0     H 1705   1.168   5.464   5.685 -2.1278 -0.5986 -1.7351
   13MOL0     H 1706   1.326   5.487   5.821 -1.0720 -0.0239  1.9151
   13MOL0     H 1707   1.442   5.357   5.816  1.0723  1.3296 -0.1836
   13MOL0     H 1708   1.357   5.453   6.078 -1.0464  1.9486 -1.6109
   13MOL0     H 1709   1.506   5.373   6.020  0.7775 -0.5533 -1.7769
   13MOL0     H 1710   1.547   5.619   6.078 -1.5094  2.6915  0.3857
   13MOL0     H 1711   1.430   5.671   5.966 -1.9283 -1.5843  1.1991
   13MOL0     H 1712   1.584   5.545   5.779 -0.5776  2.8946 -1.6266
   13MOL0     H 1713   1.621   5.704   5.835 -1.4022 -0.2311  0.2090
   13MOL0     H 1714   1.942   5.494   6.019  0.5633  0.0516  1.8313
   13MOL0     H 1715   1.156   5.072   5.886  0.5456 -0.8761 -0.7221
   13MOL0     H 1716   0.974   5.011   5.734  0.2566 -0.6788 -1.9455
   14MOL0     O 1717  10.494   7.170   5.138  0.5143 -0.3724 -0.6315
   14MOL0     C 1718  10.480   7.047   5.156 -1.2586  0.0110  0.3652
   14MOL0     O 1719  10.375   6.969   5.121  0.6704 -0.2489 -0.4010
   14MOL0     C 1720  10.250   7.018   5.097  0.0602 -0.5971  0.2066
   14MOL0     C 1721  10.188   7.118   5.171 -0.5745  0.0451  0.5411
   14MOL0     C 1722  10.059   7.163   5.144 -0.1036 -1.3355  0.6676
   14MOL0     C 1723   9.985   7.111   5.030 -0.0714  0.4504  0.2488
   14MOL0     O 1724   9.859   7.162   4.991  0.2524  0.0853  0.5519
   14MOL0     C 1725   9.793   7.236   5.094  0.1530  0.8253  0.0661
   14MOL0     C 1726   9.650   7.255   5.059  0.5976  0.3446 -0.8313
   14MOL0     C 1727   9.573   7.128   5.071  0.9948  0.4484 -0.6255
   14MOL0     C 1728   9.419   7.162   5.064  0.5277  0.1347 -0.4084
   14MOL0     C 1729   9.363   7.239   4.935  0.4380  0.5933  0.1045
   14MOL0     C 1730   9.214   7.196   4.926  0.2682  0.4186  0.1580
   14MOL0     C 1731   9.133   7.282   4.825  0.0673 -0.2221  0.3473
   14MOL0     C 1732   9.185   7.252   4.682 -0.6989 -0.6365 -0.0419
   14MOL0     N 1733   9.103   7.335   4.583  0.3955  0.6507 -0.4054
   14MOL0     C 1734   9.095   7.468   4.556  0.2191 -0.4475 -0.3148
   14MOL0     C 1735   9.012   7.480   4.449 -0.6675  0.6150  0.2356
   14MOL0     C 1736   8.958   7.610   4.397 -0.3363 -0.5298 -0.6357
   14MOL0     C 1737   8.819   7.633   4.444 -0.0185  0.0865 -1.1687
   14MOL0     C 1738   8.772   7.772   4.427  0.4389  0.4919 -0.6752
   14MOL0     C 1739   8.865   7.883   4.499  0.2565  0.0290  0.1241
   14MOL0     O 1740   8.946   7.937   4.391 -1.1521  0.3704 -0.3966
   14MOL0     C 1741   9.057   8.006   4.432  0.1781  0.4056 -0.0658
   14MOL0     C 1742   9.140   7.964   4.530  0.9027  0.5012 -0.0463
   14MOL0     C 1743   9.256   8.046   4.563  0.6834 -0.1693 -0.0160
   14MOL0     C 1744   9.280   8.167   4.498  0.6283 -0.0654 -0.2320
   14MOL0     C 1745   9.392   8.253   4.533 -0.1592 -0.2557  0.2554
   14MOL0     O 1746   9.521   8.203   4.519  0.6853  0.1189  0.6640
   14MOL0     C 1747   9.544   8.095   4.439 -0.0783  0.3390 -0.0310
   14MOL0     C 1748   9.488   8.060   4.318  0.3400 -0.3464 -0.1685
   14MOL0     C 1749   9.530   7.943   4.251  0.2546 -0.8294 -0.3732
   14MOL0     C 1750   9.639   7.872   4.287  0.8593  0.7728  0.4054
   14MOL0     O 1751   9.676   7.757   4.214  0.6281 -0.2557  0.4123
   14MOL0     C 1752   9.801   7.689   4.242 -0.2528 -1.2178  0.8264
   14MOL0     C 1753   9.814   7.584   4.139  0.2408 -0.0999  0.5997
   14MOL0     C 1754   9.915   7.478   4.167  0.4070 -0.5001  0.7947
   14MOL0     C 1755   9.896   7.359   4.065 -0.7892 -1.3014 -0.5302
   14MOL0     C 1756   9.782   7.258   4.087 -0.4500 -0.8864  0.0303
   14MOL0     C 1757   9.802   7.142   3.982  0.2130  0.2410  0.1153
   14MOL0     C 1758   9.687   7.039   4.013 -0.3302  0.6793 -0.8584
   14MOL0     C 1759   9.747   6.906   3.971 -0.2269 -0.5071  0.3289
   14MOL0    Cl 1760   9.646   6.776   4.037 -0.1047  0.0836 -0.2091
   14MOL0     C 1761   9.705   7.912   4.401 -0.3880  0.4343  0.0262
   14MOL0     C 1762   9.657   8.020   4.474 -0.1983 -0.1454  0.8075
   14MOL0     O 1763   9.361   8.368   4.572 -0.9420 -0.2267 -0.1595
   14MOL0     C 1764   9.201   8.203   4.383 -0.2580  0.2537  0.0575
   14MOL0     C 1765   9.095   8.112   4.356  0.9914 -0.6400  0.1600
   14MOL0     N 1766   8.957   7.353   4.426  0.2800 -0.2613 -0.8152
   14MOL0     N 1767   9.006   7.272   4.509 -0.6796 -1.0845 -0.1061
   14MOL0     C 1768  10.049   7.010   4.957  0.0891  0.2206  0.5281
   14MOL0     C 1769  10.180   6.965   4.992  0.5438 -0.0923 -0.4355
   14MOL0     C 1770  10.598   6.971   5.205 -0.4597 -0.0857  1.1160
   14MOL0     C 1771  10.606   6.820   5.219 -0.0120 -0.7187  0.3728
   14MOL0     C 1772  10.720   6.757   5.266  0.7753  0.0591  0.1512
   14MOL0     C 1773  10.837   6.829   5.302 -0.8225  0.1518 -0.1229
   14MOL0     O 1774  10.950   6.762   5.346  0.3383 -0.1493  0.0903
   14MOL0     C 1775  10.948   6.621   5.323  0.5747 -0.5439 -0.2084
   14MOL0     C 1776  11.074   6.556   5.382  0.2264  0.4002  0.6667
   14MOL0     C 1777  11.062   6.409   5.433 -0.4830  0.3620 -0.1872
   14MOL0     C 1778  11.198   6.352   5.461 -1.0438 -0.1916  0.1283
   14MOL0     C 1779  11.274   6.403   5.579  1.0371 -0.1240  1.7662
   14MOL0     C 1780  11.333   6.444   5.673 -0.3101 -1.2535  0.0163
   14MOL0     C 1781  10.835   6.977   5.299  0.1891 -1.6921 -0.1809
   14MOL0     C 1782  10.716   7.043   5.247  0.2650  0.5807 -0.3013
   14MOL0     H 1783  10.248   7.161   5.250 -0.2706  1.3336 -0.3447
   14MOL0     H 1784  10.026   7.237   5.216 -0.4669  0.5124 -1.2895
   14MOL0     H 1785   9.844   7.333   5.095  0.0792  0.8687  1.6907
   14MOL0     H 1786   9.806   7.188   5.191  2.9134 -0.2631 -0.7458
   14MOL0     H 1787   9.649   7.289   4.955  0.0710  3.0866 -0.0042
   14MOL0     H 1788   9.603   7.334   5.118  1.9123  0.1931  0.4676
   14MOL0     H 1789   9.592   7.085   5.169 -1.1805 -0.4796 -0.5510
   14MOL0     H 1790   9.598   7.069   4.982 -1.0910 -0.2982 -0.7697
   14MOL0     H 1791   9.372   7.066   5.086  2.3147 -0.2548  2.2056
   14MOL0     H 1792   9.384   7.216   5.152 -2.1518 -2.9156  0.5763
   14MOL0     H 1793   9.405   7.198   4.842 -3.3770 -1.1119 -1.0512
   14MOL0     H 1794   9.373   7.348   4.945 -0.8682  0.5577  2.4544
   14MOL0     H 1795   9.168   7.216   5.024 -1.0997  2.5141 -0.8442
   14MOL0     H 1796   9.199   7.089   4.908 -0.5662  0.1794  2.0142
   14MOL0     H 1797   9.026   7.259   4.829  0.1506 -0.7978 -0.4818
   14MOL0     H 1798   9.147   7.386   4.856  1.3131 -0.5448  0.9569
   14MOL0     H 1799   9.186   7.144   4.661  0.1316 -0.5534 -0.4888
   14MOL0     H 1800   9.284   7.299   4.686 -0.5395 -0.9232 -0.5423
   14MOL0     H 1801   9.135   7.550   4.615  0.7879 -0.2386 -0.9634
   14MOL0     H 1802   8.960   7.609   4.288 -0.0072  1.2300 -0.6764
   14MOL0     H 1803   9.029   7.688   4.427 -1.3051  0.3390 -0.5571
   14MOL0     H 1804   8.782   7.593   4.539 -0.1400  0.0161 -1.2429
   14MOL0     H 1805   8.747   7.587   4.375 -3.4471  0.3311  1.9168
   14MOL0     H 1806   8.770   7.790   4.319  4.2095  0.0622 -0.9363
   14MOL0     H 1807   8.673   7.779   4.473  0.1467  0.0762 -1.2373
   14MOL0     H 1808   8.924   7.831   4.576 -4.6836 -2.7704  2.4980
   14MOL0     H 1809   8.812   7.958   4.558 -1.4007  0.4878 -1.8764
   14MOL0     H 1810   9.124   7.887   4.604  0.6043 -2.3862 -2.9090
   14MOL0     H 1811   9.322   8.009   4.641  2.1979  2.2830 -0.0377
   14MOL0     H 1812   9.407   8.120   4.278 -1.9127 -1.8025  1.8623
   14MOL0     H 1813   9.481   7.917   4.158 -0.5441  1.1423 -0.5607
   14MOL0     H 1814   9.793   7.644   4.341 -0.9563 -0.2104  1.2471
   14MOL0     H 1815   9.882   7.763   4.236 -0.7762 -0.7431 -2.1208
   14MOL0     H 1816   9.844   7.637   4.048 -1.7699 -0.0486 -0.0805
   14MOL0     H 1817   9.720   7.530   4.123  0.4422 -0.8532  1.8466
   14MOL0     H 1818   9.897   7.440   4.268  1.3697 -1.2772  0.6894
   14MOL0     H 1819  10.015   7.520   4.157  0.6088 -1.2680 -0.8150
   14MOL0     H 1820   9.877   7.412   3.971 -3.8441  0.5178  0.9535
   14MOL0     H 1821   9.996   7.314   4.069  0.7868  1.9676  1.2833
   14MOL0     H 1822   9.686   7.309   4.077 -1.0748 -1.2064  3.2189
   14MOL0     H 1823   9.786   7.235   4.194 -0.2473  2.0587  0.7260
   14MOL0     H 1824   9.897   7.088   3.992 -0.8323 -1.5478  0.9276
   14MOL0     H 1825   9.796   7.184   3.881  2.8460 -0.6683 -0.5055
   14MOL0     H 1826   9.666   7.033   4.121 -2.1926 -1.9818 -1.2604
   14MOL0     H 1827   9.595   7.075   3.967 -1.1870  3.0819  2.3744
   14MOL0     H 1828   9.843   6.882   4.018  0.9215 -1.8882 -2.4642
   14MOL0     H 1829   9.755   6.902   3.862 -0.9424 -2.7772  0.3089
   14MOL0     H 1830   9.787   7.851   4.440 -2.5049 -3.8372 -1.5563
   14MOL0     H 1831   9.713   8.061   4.558 -3.3512  2.2768  1.9133
   14MOL0     H 1832   9.214   8.293   4.325 -1.8938  0.4835  0.0017
   14MOL0     H 1833   9.026   8.141   4.277  1.3114  1.1661  0.4956
   14MOL0     H 1834  10.000   6.965   4.871 -0.8596  2.9861 -0.4763
   14MOL0     H 1835  10.231   6.884   4.941 -0.6673 -1.8635  0.9956
   14MOL0     H 1836  10.518   6.760   5.198 -0.3774 -0.3493  0.8233
   14MOL0     H 1837  10.718   6.649   5.254 -1.1020 -0.0099  0.8210
   14MOL0     H 1838  10.942   6.592   5.218  1.3281 -3.1006  0.4024
   14MOL0     H 1839  10.871   6.563   5.373  0.3264 -2.4437 -2.6133
   14MOL0     H 1840  11.150   6.558   5.303 -1.7057  0.0762 -1.3214
   14MOL0     H 1841  11.115   6.611   5.467  1.7257 -0.7384  0.7206
   14MOL0     H 1842  11.015   6.344   5.358 -1.0966  1.9229 -1.2158
   14MOL0     H 1843  11.018   6.394   5.532  0.2352  1.6623  0.3543
   14MOL0     H 1844  11.190   6.243   5.466  1.6393 -0.6335 -2.6150
   14MOL0     H 1845  11.248   6.363   5.365  2.0707 -0.4894  1.5892
   14MOL0     H 1846  11.386   6.472   5.761 -0.7585 -0.2557 -0.0139
   14MOL0     H 1847  10.925   7.026   5.336 -1.5672  3.2003 -1.6279
   14MOL0     H 1848  10.726   7.151   5.242 -0.8894  0.6361 -2.4918
   15MOL0     O 1849   5.721   8.140   1.686 -0.4094 -0.1200  0.5871
   15MOL0     C 1850   5.792   8.154   1.580  0.0727  0.0874 -0.9186
   15MOL0     O 1851   5.867   8.055   1.515  0.4801 -0.6390 -0.5733
   15MOL0     C 1852   5.909   7.941   1.580 -0.4536  0.3182 -0.6499
   15MOL0     C 1853   5.979   7.849   1.505 -0.1593  1.2953  0.1804
   15MOL0     C 1854   6.026   7.731   1.559  0.1933  0.5856  0.1714
   15MOL0     C 1855   6.001   7.698   1.691  0.1318 -0.8792  0.0796
   15MOL0     O 1856   6.051   7.582   1.742 -0.1090 -0.4439  0.2673
   15MOL0     C 1857   6.023   7.554   1.874 -0.2225  0.5094  0.2361
   15MOL0     C 1858   6.049   7.411   1.906 -0.3686  0.0912  0.1373
   15MOL0     C 1859   5.919   7.319   1.898 -0.6686 -0.3588 -0.0491
   15MOL0     C 1860   5.966   7.176   1.939  0.4794  0.0271 -0.6320
   15MOL0     C 1861   5.835   7.098   1.971 -0.8317  0.0804 -0.9014
   15MOL0     C 1862   5.730   7.087   1.853 -0.8001 -0.2722  0.2979
   15MOL0     C 1863   5.597   7.007   1.901 -0.4275 -0.6911  0.7414
   15MOL0     C 1864   5.505   6.952   1.790  0.1685  0.4562 -0.7011
   15MOL0     N 1865   5.546   6.836   1.710 -0.1246 -0.9993 -0.4742
   15MOL0     C 1866   5.553   6.835   1.574 -0.4544 -0.1661 -0.3475
   15MOL0     C 1867   5.602   6.714   1.538 -0.2979 -0.3537 -0.2737
   15MOL0     C 1868   5.634   6.653   1.413  0.0272 -0.2230 -0.1294
   15MOL0     C 1869   5.517   6.593   1.342  1.1479 -0.7355 -0.7263
   15MOL0     C 1870   5.414   6.705   1.293 -0.1719  0.8656  0.2165
   15MOL0     C 1871   5.315   6.622   1.196 -0.3713 -0.8349 -1.2342
   15MOL0     O 1872   5.258   6.516   1.282  0.3830 -0.5316  0.6937
   15MOL0     C 1873   5.138   6.538   1.335 -1.1786  0.0379 -0.4602
   15MOL0     C 1874   5.070   6.660   1.357  0.2691 -0.4559 -0.5087
   15MOL0     C 1875   4.968   6.666   1.447  0.1217  0.4906 -0.5737
   15MOL0     C 1876   4.933   6.545   1.516  0.2401  0.3225  0.1982
   15MOL0     C 1877   4.834   6.551   1.636  0.3321  0.2432  0.3381
   15MOL0     O 1878   4.774   6.674   1.652 -0.4292 -0.2484 -0.0962
   15MOL0     C 1879   4.667   6.689   1.737  0.4694 -0.2833 -0.4724
   15MOL0     C 1880   4.543   6.641   1.702  0.4429 -0.2938 -0.2213
   15MOL0     C 1881   4.429   6.652   1.784 -0.9030 -0.6632 -0.4992
   15MOL0     C 1882   4.449   6.705   1.914  0.5204  0.4539  0.2622
   15MOL0     O 1883   4.341   6.697   1.990  0.9799  0.0977  0.0756
   15MOL0     C 1884   4.333   6.801   2.098 -0.6673 -1.4256 -0.4141
   15MOL0     C 1885   4.195   6.810   2.169 -0.3841  0.2968  0.0608
   15MOL0     C 1886   4.145   6.951   2.215 -0.3288 -0.3515  0.5262
   15MOL0     C 1887   4.137   7.048   2.107 -0.3164  0.1304  0.0870
   15MOL0     C 1888   4.186   7.192   2.132  0.6774  0.0595  0.0197
   15MOL0     C 1889   4.083   7.294   2.092 -0.6682  1.1566  0.1507
   15MOL0     C 1890   4.132   7.429   2.136 -0.1155 -0.9478  0.2066
   15MOL0     C 1891   4.032   7.536   2.091 -0.5694  0.6581 -0.7024
   15MOL0    Cl 1892   3.875   7.535   2.202  0.4045 -0.1058 -0.5249
   15MOL0     C 1893   4.581   6.754   1.949  1.0834  0.6314 -0.3299
   15MOL0     C 1894   4.690   6.753   1.864  0.8514 -0.5157  0.4315
   15MOL0     O 1895   4.812   6.451   1.707 -0.2714  0.2171  0.0704
   15MOL0     C 1896   4.980   6.423   1.483 -0.9584  0.0940  1.1639
   15MOL0     C 1897   5.086   6.423   1.392  0.0343  0.6185 -0.7107
   15MOL0     N 1898   5.624   6.646   1.659  0.6661 -0.5118  0.0884
   15MOL0     N 1899   5.595   6.723   1.754 -1.2124 -0.4570 -0.2738
   15MOL0     C 1900   5.942   7.790   1.770  0.7578  0.7014 -0.3856
   15MOL0     C 1901   5.898   7.915   1.719  0.2546  0.4733  0.6658
   15MOL0     C 1902   5.795   8.289   1.515 -0.0093 -0.4276 -0.4640
   15MOL0     C 1903   5.865   8.301   1.398 -0.0202  0.4634 -0.5767
   15MOL0     C 1904   5.859   8.428   1.317 -0.9104  0.8703  0.0228
   15MOL0     C 1905   5.788   8.537   1.366  0.4351  0.3543  0.3222
   15MOL0     O 1906   5.771   8.651   1.296  0.3102  0.2076 -0.2165
   15MOL0     C 1907   5.646   8.672   1.234  0.5527 -0.8029  0.4628
   15MOL0     C 1908   5.583   8.552   1.181  0.2191  0.1286  0.1496
   15MOL0     C 1909   5.465   8.583   1.099  0.5173  0.4968 -0.8626
   15MOL0     C 1910   5.434   8.456   1.018  0.2321  0.6253  0.1414
   15MOL0     C 1911   5.387   8.496   0.883 -0.1509  0.3894  0.5617
   15MOL0     C 1912   5.332   8.520   0.781 -0.2139 -0.3695 -0.0531
   15MOL0     C 1913   5.748   8.524   1.500  0.2499 -0.0131 -0.5700
   15MOL0     C 1914   5.741   8.403   1.573  0.2795  0.8491 -0.5472
   15MOL0     H 1915   5.982   7.868   1.398 -2.6342 -2.1379 -0.6743
   15MOL0     H 1916   6.087   7.669   1.494  2.1828  2.9539 -0.3767
   15MOL0     H 1917   5.921   7.579   1.906  0.4278  3.6764  0.1233
   15MOL0     H 1918   6.078   7.619   1.942 -2.6094  1.5869  1.2595
   15MOL0     H 1919   6.085   7.412   2.009 -2.0824 -0.1145  0.7650
   15MOL0     H 1920   6.120   7.372   1.833 -0.2662 -0.9930  0.7874
   15MOL0     H 1921   5.893   7.321   1.792  1.5711  0.0337 -0.6360
   15MOL0     H 1922   5.839   7.342   1.970 -0.2412 -1.8642  0.9617
   15MOL0     H 1923   6.027   7.132   1.860  1.1952  0.8937 -0.5744
   15MOL0     H 1924   6.029   7.176   2.028 -1.0883 -2.0545  0.5579
   15MOL0     H 1925   5.808   7.154   2.062 -0.1514 -1.1190  0.0678
   15MOL0     H 1926   5.850   6.997   2.010 -0.6772  0.3797 -0.1515
   15MOL0     H 1927   5.780   7.037   1.769 -1.2206  3.2748 -2.2934
   15MOL0     H 1928   5.701   7.189   1.824 -2.1526 -0.9479 -0.7814
   15MOL0     H 1929   5.617   6.924   1.969  0.3158  0.5194  2.0430
   15MOL0     H 1930   5.524   7.073   1.949 -2.1256  0.3647 -2.8597
   15MOL0     H 1931   5.485   7.031   1.717  0.7495  0.5058 -0.8122
   15MOL0     H 1932   5.411   6.931   1.842  1.9726  1.5951  3.4020
   15MOL0     H 1933   5.524   6.911   1.503 -0.4859  1.9737  1.8170
   15MOL0     H 1934   5.701   6.566   1.413 -2.6079 -2.3880  0.0008
   15MOL0     H 1935   5.672   6.733   1.348 -1.3352  0.2666 -0.3522
   15MOL0     H 1936   5.456   6.528   1.404  0.7037 -0.7735 -1.1971
   15MOL0     H 1937   5.563   6.540   1.258  0.7870 -0.2015 -1.2739
   15MOL0     H 1938   5.363   6.765   1.369 -2.7781  1.9355 -2.1873
   15MOL0     H 1939   5.470   6.765   1.221 -2.4143  0.1423 -2.3049
   15MOL0     H 1940   5.374   6.559   1.129  0.1590 -1.0708 -0.5551
   15MOL0     H 1941   5.243   6.683   1.141 -2.6902 -2.8807 -0.6492
   15MOL0     H 1942   5.097   6.760   1.323 -2.9007  0.8731  0.5482
   15MOL0     H 1943   4.918   6.754   1.486 -1.7148 -0.6053 -0.3581
   15MOL0     H 1944   4.540   6.593   1.605 -1.8137 -0.3069 -0.2088
   15MOL0     H 1945   4.335   6.603   1.758 -1.4420 -0.3417  0.8084
   15MOL0     H 1946   4.365   6.892   2.046  0.7522 -0.4229  2.0358
   15MOL0     H 1947   4.411   6.795   2.174 -0.2475  2.2615 -0.3769
   15MOL0     H 1948   4.174   6.745   2.255 -3.4861  2.5772  1.1909
   15MOL0     H 1949   4.128   6.779   2.089  0.3867  0.6407 -0.7373
   15MOL0     H 1950   4.206   6.987   2.298 -0.8802 -1.9590  1.6848
   15MOL0     H 1951   4.044   6.940   2.255 -1.2704 -0.0284 -1.6260
   15MOL0     H 1952   4.176   7.006   2.013 -2.5541 -0.1470 -0.7738
   15MOL0     H 1953   4.033   7.065   2.079 -0.2133  2.1637  0.7370
   15MOL0     H 1954   4.286   7.215   2.093 -0.3977  1.2364 -2.1962
   15MOL0     H 1955   4.206   7.196   2.240  1.5555 -0.4979 -0.1049
   15MOL0     H 1956   3.995   7.265   2.150  0.7362 -1.2675  1.2447
   15MOL0     H 1957   4.083   7.290   1.983  1.1996 -0.7693  0.1490
   15MOL0     H 1958   4.130   7.424   2.245 -1.1917 -2.0820  0.1547
   15MOL0     H 1959   4.230   7.467   2.103 -1.8020  2.1122 -1.8136
   15MOL0     H 1960   4.011   7.508   1.988  1.5735 -4.2426 -0.0761
   15MOL0     H 1961   4.083   7.632   2.108  0.5045 -0.1551  0.9262
   15MOL0     H 1962   4.598   6.780   2.053 -1.1424 -0.9914  0.5213
   15MOL0     H 1963   4.790   6.777   1.898  0.8708 -0.6033  0.4376
   15MOL0     H 1964   4.946   6.332   1.531 -1.3937  0.2353  1.1271
   15MOL0     H 1965   5.145   6.334   1.372 -1.3950 -1.1195  2.0943
   15MOL0     H 1966   5.920   7.771   1.875 -2.4964 -0.0512 -1.0983
   15MOL0     H 1967   5.856   7.985   1.791  3.3979 -1.2588  4.6263
   15MOL0     H 1968   5.920   8.214   1.363  2.0391  1.0839  0.9370
   15MOL0     H 1969   5.898   8.430   1.215 -2.9098  0.2670 -0.8030
   15MOL0     H 1970   5.675   8.735   1.149 -2.6224 -2.0760 -1.7930
   15MOL0     H 1971   5.583   8.725   1.306  1.3668 -3.6994  3.5653
   15MOL0     H 1972   5.663   8.516   1.115  1.8308 -0.4414  2.2928
   15MOL0     H 1973   5.561   8.479   1.258  0.9677 -0.3891 -0.1085
   15MOL0     H 1974   5.486   8.655   1.019 -0.2925  2.1896  0.3884
   15MOL0     H 1975   5.385   8.612   1.168 -1.1909 -1.9322 -1.6948
   15MOL0     H 1976   5.518   8.387   1.010  0.0887  0.1358  2.3709
   15MOL0     H 1977   5.358   8.400   1.073  0.5574 -0.0351 -0.0684
   15MOL0     H 1978   5.284   8.546   0.689 -0.7780  5.0009  1.4153
   15MOL0     H 1979   5.720   8.617   1.549 -0.6658  0.0588 -1.2201
   15MOL0     H 1980   5.699   8.407   1.673  2.4953  1.1188  0.4425
   16MOL0     O 1981   2.309  10.708  10.046  0.3985  0.9050 -1.0123
   16MOL0     C 1982   2.280  10.716   9.925 -0.2932  0.0302 -0.7965
   16MOL0     O 1983   2.358  10.686   9.823 -0.0279 -0.0500  0.1800
   16MOL0     C 1984   2.472  10.618   9.856  0.9197 -0.7265  0.8218
   16MOL0     C 1985   2.474  10.480   9.870  0.4195  0.2272  0.9277
   16MOL0     C 1986   2.591  10.413   9.894  0.0210  1.1224 -1.3105
   16MOL0     C 1987   2.705  10.479   9.919 -0.7892  0.0585  0.4958
   16MOL0     O 1988   2.813  10.407   9.945 -0.5184  0.2915 -0.7414
   16MOL0     C 1989   2.919  10.446  10.022 -0.3263  0.4497  0.7144
   16MOL0     C 1990   2.883  10.401  10.166  0.2106  0.2904  1.0342
   16MOL0     C 1991   2.804  10.272  10.179 -0.1826  0.6351  0.3153
   16MOL0     C 1992   2.886  10.153  10.149  0.3857  0.0389 -0.8686
   16MOL0     C 1993   2.799  10.025  10.144 -0.1622 -0.3251  0.3219
   16MOL0     C 1994   2.879   9.904  10.099 -0.1105  0.1543  1.0492
   16MOL0     C 1995   2.985   9.876  10.208 -1.0586  1.0515 -0.5447
   16MOL0     C 1996   3.055   9.733  10.199  0.4581 -0.7972  0.9793
   16MOL0     N 1997   3.118   9.708  10.074 -0.4227  0.2274  1.0501
   16MOL0     C 1998   3.247   9.709  10.052 -0.0693 -0.1732 -0.6304
   16MOL0     C 1999   3.261   9.652   9.931  0.0892 -0.4100 -0.1808
   16MOL0     C 2000   3.379   9.580   9.880  0.4534  0.7533  1.0957
   16MOL0     C 2001   3.513   9.628   9.935 -0.6444 -0.6527  0.4996
   16MOL0     C 2002   3.544   9.772   9.900 -0.2337 -0.4713  0.0681
   16MOL0     C 2003   3.662   9.816   9.997 -0.1531 -0.0897  0.5538
   16MOL0     O 2004   3.615   9.817  10.130  0.6889 -0.9968  0.0165
   16MOL0     C 2005   3.718   9.839  10.221  0.1966 -0.4316  0.9898
   16MOL0     C 2006   3.782   9.730  10.284 -0.0043 -0.2910 -0.0316
   16MOL0     C 2007   3.887   9.757  10.370  0.4432  0.9438 -0.4067
   16MOL0     C 2008   3.937   9.883  10.386 -0.6832  0.8673  0.2153
   16MOL0     C 2009   4.037   9.909  10.491  0.3466  0.4936 -0.2825
   16MOL0     O 2010   4.113   9.800  10.510 -0.1911  0.5398 -0.4305
   16MOL0     C 2011   4.247   9.807  10.554  0.3695 -0.0273 -0.0765
   16MOL0     C 2012   4.299   9.688  10.585 -0.7037 -0.0792 -0.3598
   16MOL0     C 2013   4.431   9.682  10.623  0.0961 -0.1695  0.3182
   16MOL0     C 2014   4.511   9.794  10.648  0.1024 -0.0470 -0.1377
   16MOL0     O 2015   4.635   9.775  10.696 -0.4533  0.0518  0.7089
   16MOL0     C 2016   4.729   9.883  10.671  0.0779 -0.1781  0.1839
   16MOL0     C 2017   4.880   9.834  10.672 -0.8755 -0.2888  0.1021
   16MOL0     C 2018   4.966   9.954  10.630  0.0028  0.1018 -0.1718
   16MOL0     C 2019   5.116   9.944  10.682 -0.1510 -0.2307  0.4855
   16MOL0     C 2020   5.209   9.837  10.614  0.1846  0.5970  1.2810
   16MOL0     C 2021   5.170   9.687  10.629 -0.2984  0.9677 -0.1276
   16MOL0     C 2022   5.192   9.659  10.781  0.5670  0.9591 -0.0403
   16MOL0     C 2023   5.144   9.515  10.810  0.8739  0.7994  0.0782
   16MOL0    Cl 2024   5.154   9.441  10.976  0.0501  0.0277  0.1799
   16MOL0     C 2025   4.466   9.919  10.610 -0.5910 -0.8015 -1.1437
   16MOL0     C 2026   4.328   9.925  10.559 -0.1183 -0.7456 -0.5486
   16MOL0     O 2027   4.050  10.019  10.539 -0.5048 -0.3830  0.1748
   16MOL0     C 2028   3.875   9.994  10.322  0.0263 -0.1126 -0.2917
   16MOL0     C 2029   3.762   9.972  10.240  0.0550 -0.2165 -0.5838
   16MOL0     N 2030   3.137   9.627   9.880  0.4583 -0.5146 -0.6061
   16MOL0     N 2031   3.044   9.654   9.965  0.7749 -0.1305  0.2685
   16MOL0     C 2032   2.709  10.619   9.910 -0.8031 -1.1652  0.4664
   16MOL0     C 2033   2.593  10.681   9.871  0.9542 -1.0568 -0.4396
   16MOL0     C 2034   2.156  10.791   9.910  0.3192  0.0494 -0.4236
   16MOL0     C 2035   2.101  10.790   9.778  0.1908  0.4544 -0.7512
   16MOL0     C 2036   1.982  10.855   9.750  0.2374 -0.7220 -0.6989
   16MOL0     C 2037   1.903  10.914   9.845  0.1358  0.2803  0.4038
   16MOL0     O 2038   1.790  10.987   9.817  0.1815 -0.1450  1.4451
   16MOL0     C 2039   1.691  10.925   9.728  0.2783 -0.1450  0.8044
   16MOL0     C 2040   1.620  10.811   9.800 -0.4857 -0.0580 -0.1539
   16MOL0     C 2041   1.527  10.744   9.705 -0.7817 -0.2905 -0.6412
   16MOL0     C 2042   1.413  10.823   9.660 -0.2709  0.2909  0.7532
   16MOL0     C 2043   1.336  10.759   9.562 -0.6772 -0.1428 -0.1953
   16MOL0     C 2044   1.257  10.716   9.477 -0.4519  0.2705  0.4850
   16MOL0     C 2045   1.949  10.904   9.976 -1.1752 -0.6913 -0.5830
   16MOL0     C 2046   2.077  10.847  10.012  0.1590 -0.3176  0.5576
   16MOL0     H 2047   2.384  10.423   9.851  0.6140 -0.0551  0.8441
   16MOL0     H 2048   2.595  10.306   9.913  0.8155  1.5668  1.3684
   16MOL0     H 2049   2.949  10.551  10.028 -1.1786  0.6418  2.0810
   16MOL0     H 2050   3.003  10.392   9.977 -2.5129  0.2793 -3.6466
   16MOL0     H 2051   2.818  10.486  10.190  0.1382  0.6539 -0.3783
   16MOL0     H 2052   2.974  10.390  10.226  1.3524 -2.6790 -0.9981
   16MOL0     H 2053   2.723  10.277  10.105 -0.1027  2.8680  0.2958
   16MOL0     H 2054   2.768  10.276  10.282  2.1332  0.0064  1.2133
   16MOL0     H 2055   2.940  10.163  10.055 -1.6064 -0.3726 -2.1226
   16MOL0     H 2056   2.952  10.149  10.236  3.4566  2.9090 -2.8421
   16MOL0     H 2057   2.719  10.035  10.070  2.1998 -1.8308 -2.6309
   16MOL0     H 2058   2.749  10.007  10.240 -1.5300 -0.1874 -0.3337
   16MOL0     H 2059   2.929   9.916  10.002 -2.7185  0.8353 -0.3086
   16MOL0     H 2060   2.805   9.823  10.100 -0.9933  0.9088  3.3613
   16MOL0     H 2061   3.065   9.950  10.202 -1.2081  1.0999 -2.6290
   16MOL0     H 2062   2.935   9.884  10.305  1.4655  0.0284  0.9415
   16MOL0     H 2063   2.986   9.656  10.234 -1.7815  0.7883  0.3271
   16MOL0     H 2064   3.134   9.741  10.274 -1.0689 -1.0015  2.6880
   16MOL0     H 2065   3.320   9.729  10.130 -0.9430  1.9064 -0.2774
   16MOL0     H 2066   3.385   9.597   9.772 -1.8963  4.1417  1.3332
   16MOL0     H 2067   3.369   9.472   9.890  0.5909  0.3497 -1.9480
   16MOL0     H 2068   3.593   9.560   9.903 -0.5640  0.3701 -1.6025
   16MOL0     H 2069   3.502   9.607  10.042  2.1351  4.4094  2.0869
   16MOL0     H 2070   3.580   9.774   9.797  3.3613 -0.0273  1.1808
   16MOL0     H 2071   3.461   9.842   9.914 -0.1242 -0.3748  0.2373
   16MOL0     H 2072   3.702   9.914   9.970 -1.9848  0.0798 -1.8479
   16MOL0     H 2073   3.741   9.740   9.993 -0.2631 -0.1811 -2.2551
   16MOL0     H 2074   3.748   9.630  10.259  3.2575 -1.4114 -0.3921
   16MOL0     H 2075   3.932   9.672  10.419 -0.1559 -0.2235 -1.8179
   16MOL0     H 2076   4.226   9.609  10.570  1.6117 -2.3044 -0.5432
   16MOL0     H 2077   4.474   9.582  10.625 -0.2577 -0.4600 -2.5165
   16MOL0     H 2078   4.700   9.964  10.738 -0.8326 -1.8635  1.9007
   16MOL0     H 2079   4.706   9.917  10.569 -3.4725 -0.5365  0.7484
   16MOL0     H 2080   4.870   9.748  10.605 -2.9199 -0.5673  0.6989
   16MOL0     H 2081   4.898   9.809  10.777 -1.7298  4.7227  1.6837
   16MOL0     H 2082   4.917  10.047  10.661  1.2628  0.7434 -0.0398
   16MOL0     H 2083   4.969   9.955  10.521 -1.1307 -1.1105 -0.2503
   16MOL0     H 2084   5.164  10.042  10.670  0.9998 -0.5956  1.8354
   16MOL0     H 2085   5.108   9.928  10.790 -0.4881  0.7595  0.6164
   16MOL0     H 2086   5.310   9.846  10.655 -0.1822 -0.6778  2.5420
   16MOL0     H 2087   5.202   9.855  10.506 -0.6588 -2.5437  0.7050
   16MOL0     H 2088   5.237   9.620  10.574 -2.1144  0.5592 -1.9808
   16MOL0     H 2089   5.075   9.666  10.579  0.7829 -0.1202 -1.8448
   16MOL0     H 2090   5.289   9.693  10.817  0.5279 -0.8816  2.0505
   16MOL0     H 2091   5.121   9.714  10.843 -0.4180 -1.2059  0.8627
   16MOL0     H 2092   5.209   9.449  10.751 -1.4163 -1.4488 -0.1198
   16MOL0     H 2093   5.041   9.497  10.778  0.2307 -1.3425  2.9067
   16MOL0     H 2094   4.504  10.019  10.625 -2.4588  0.0665 -1.8886
   16MOL0     H 2095   4.303  10.026  10.530 -0.7661  0.5243  3.8196
   16MOL0     H 2096   3.907  10.096  10.345 -2.1204  0.8477 -1.3545
   16MOL0     H 2097   3.710  10.057  10.197 -1.2309  0.0359  1.3524
   16MOL0     H 2098   2.785  10.686   9.948 -3.1277  1.5681  0.5666
   16MOL0     H 2099   2.590  10.789   9.862 -2.9049 -1.0999 -1.6055
   16MOL0     H 2100   2.157  10.743   9.698 -3.5490 -1.1457 -2.7012
   16MOL0     H 2101   1.934  10.860   9.652  0.7366  1.8034 -0.8780
   16MOL0     H 2102   1.730  10.883   9.635 -4.1553 -0.4244 -1.2039
   16MOL0     H 2103   1.613  10.996   9.699  0.9948 -0.0487 -1.0061
   16MOL0     H 2104   1.688  10.729   9.826 -1.3353 -1.3703 -1.8101
   16MOL0     H 2105   1.567  10.845   9.889 -2.4251  2.4615 -2.1410
   16MOL0     H 2106   1.494  10.657   9.763  1.0404  0.9260  2.4488
   16MOL0     H 2107   1.590  10.697   9.629  0.7974  1.3132 -0.3891
   16MOL0     H 2108   1.353  10.850   9.747 -1.0085  0.7265  0.1142
   16MOL0     H 2109   1.451  10.912   9.609  1.4788  0.4456  2.2016
   16MOL0     H 2110   1.184  10.670   9.414  0.7058  1.9585 -2.2586
   16MOL0     H 2111   1.884  10.951  10.050  0.9228  2.0354 -0.3083
   16MOL0     H 2112   2.128  10.852  10.108 -1.3351  1.4488  1.3093
   17MOL0     O 2113   5.632   1.346  10.095  0.4254 -0.0999  0.0532
   17MOL0     C 2114   5.710   1.379   9.997  0.4833 -0.3993 -0.3900
   17MOL0     O 2115   5.822   1.450  10.003 -0.2070  0.3304 -0.9749
   17MOL0     C 2116   5.870   1.500  10.125 -0.3113  0.8986  0.5282
   17MOL0     C 2117   5.796   1.558  10.227  0.6151 -0.0329 -0.8500
   17MOL0     C 2118   5.861   1.612  10.339  0.3749  0.1752 -0.1731
   17MOL0     C 2119   6.005   1.590  10.356 -0.6779  0.0738 -0.1493
   17MOL0     O 2120   6.083   1.612  10.469 -0.4084  0.2204  0.1848
   17MOL0     C 2121   6.042   1.716  10.565  0.7531 -0.1290 -0.4130
   17MOL0     C 2122   6.111   1.842  10.509 -0.3817  1.2094  0.2572
   17MOL0     C 2123   6.142   1.946  10.623  0.2823  0.3397 -0.6933
   17MOL0     C 2124   6.268   1.907  10.706 -0.1636  0.0028  0.8594
   17MOL0     C 2125   6.314   2.019  10.805  0.0463  0.1451  0.1613
   17MOL0     C 2126   6.450   1.980  10.871 -0.1904 -0.2045 -0.4285
   17MOL0     C 2127   6.434   1.887  10.986 -0.0519 -0.2903  0.2371
   17MOL0     C 2128   6.353   1.929  11.119  0.9437 -0.5072  0.5120
   17MOL0     N 2129   6.272   1.817  11.172 -0.3843 -0.4643 -0.5673
   17MOL0     C 2130   6.311   1.684  11.199  0.0142 -0.3660  0.4451
   17MOL0     C 2131   6.211   1.632  11.266 -0.4011 -0.2705 -0.5217
   17MOL0     C 2132   6.203   1.499  11.342 -0.3248  0.6164 -0.4759
   17MOL0     C 2133   6.230   1.517  11.492  0.3609  0.0953  0.8460
   17MOL0     C 2134   6.378   1.543  11.528  1.4615  0.5865  0.5879
   17MOL0     C 2135   6.466   1.425  11.491 -0.9479  0.0860 -0.1495
   17MOL0     O 2136   6.600   1.435  11.540  0.0102 -0.8951  0.9055
   17MOL0     C 2137   6.674   1.328  11.569  0.1921  0.4112  0.3203
   17MOL0     C 2138   6.805   1.364  11.609  0.4750  0.8350 -0.1340
   17MOL0     C 2139   6.898   1.261  11.641  0.6027  0.0482 -0.1683
   17MOL0     C 2140   6.864   1.123  11.632  0.5550  0.6931 -0.5626
   17MOL0     C 2141   6.957   1.017  11.664  0.2020  0.1369 -0.2000
   17MOL0     O 2142   7.083   1.054  11.713  0.3560  0.7336 -0.0427
   17MOL0     C 2143   7.155   0.959  11.783 -0.4810  0.8217 -0.2933
   17MOL0     C 2144   7.207   0.845  11.721  0.0818 -0.3428 -0.0873
   17MOL0     C 2145   7.286   0.754  11.793 -0.2289 -0.2054 -0.9666
   17MOL0     C 2146   7.301   0.774  11.928  0.0688 -0.0249 -0.2180
   17MOL0     O 2147   7.370   0.673  11.994 -0.8783 -0.9207 -0.9958
   17MOL0     C 2148   7.276   0.587  12.074  0.2856 -0.4572 -0.1561
   17MOL0     C 2149   7.337   0.456  12.068 -0.6594 -0.3561 -0.3113
   17MOL0     C 2150   7.468   0.458  12.137  0.7283 -0.2243 -0.7681
   17MOL0     C 2151   7.555   0.344  12.084 -0.3273 -0.4631 -0.0247
   17MOL0     C 2152   7.692   0.327  12.157 -0.3186 -0.4599 -1.5808
   17MOL0     C 2153   7.755   0.191  12.147 -1.1578 -1.1039 -0.0266
   17MOL0     C 2154   7.878   0.183  12.234  0.0052 -1.1589 -0.0754
   17MOL0     C 2155   7.850   0.113  12.372  0.1222  0.1749  0.9233
   17MOL0    Cl 2156   7.847  -0.057  12.351  0.1694  0.0336 -0.3386
   17MOL0     C 2157   7.255   0.898  11.990  0.3101  0.4163 -1.2248
   17MOL0     C 2158   7.181   0.993  11.915 -0.0015 -1.0828 -0.3956
   17MOL0     O 2159   6.922   0.903  11.646 -0.8803 -0.1922 -0.2158
   17MOL0     C 2160   6.732   1.095  11.591  0.6157 -1.2944  0.9462
   17MOL0     C 2161   6.640   1.197  11.556 -0.1996 -0.0265  0.8133
   17MOL0     N 2162   6.106   1.729  11.277 -0.0964  0.9794 -0.2524
   17MOL0     N 2163   6.146   1.838  11.222  1.3254 -0.2979  0.8139
   17MOL0     C 2164   6.069   1.533  10.255  0.2654 -0.2256 -0.2712
   17MOL0     C 2165   6.006   1.494  10.134  0.0728 -0.1147  0.1245
   17MOL0     C 2166   5.656   1.331   9.873 -0.6378  0.4568 -0.1606
   17MOL0     C 2167   5.531   1.268   9.859 -0.3917  0.0819 -0.6623
   17MOL0     C 2168   5.489   1.226   9.733 -0.2422 -0.6824  1.1828
   17MOL0     C 2169   5.572   1.224   9.627 -0.4638  0.9731 -0.3778
   17MOL0     O 2170   5.522   1.193   9.508  0.3276  0.2575  0.2015
   17MOL0     C 2171   5.613   1.158   9.403  0.0576 -0.3673 -0.1389
   17MOL0     C 2172   5.709   1.040   9.441 -0.0810  0.4708 -0.4431
   17MOL0     C 2173   5.759   0.956   9.327 -0.7262  0.0548 -1.2081
   17MOL0     C 2174   5.831   0.838   9.377 -0.9856 -0.3991  0.4976
   17MOL0     C 2175   5.967   0.861   9.449 -0.0191 -0.6373  0.2863
   17MOL0     C 2176   6.076   0.863   9.496 -0.0609 -0.8103  0.8353
   17MOL0     C 2177   5.701   1.277   9.645 -0.1917  0.7026 -0.4167
   17MOL0     C 2178   5.741   1.334   9.764 -0.9757 -0.1910 -0.3277
   17MOL0     H 2179   5.688   1.551  10.230  0.3584  1.6614 -3.0923
   17MOL0     H 2180   5.796   1.646  10.419 -1.6346 -0.2459 -1.5614
   17MOL0     H 2181   6.062   1.706  10.672  1.1788  1.7451 -0.2918
   17MOL0     H 2182   5.932   1.719  10.569  0.7090 -0.1924  4.0915
   17MOL0     H 2183   6.044   1.878  10.430  3.0614 -2.9952 -5.2700
   17MOL0     H 2184   6.206   1.813  10.464 -2.1080  0.4399 -3.2134
   17MOL0     H 2185   6.061   1.961  10.695  1.4653 -0.1397  0.8063
   17MOL0     H 2186   6.165   2.041  10.575  3.0454 -0.1078 -0.4246
   17MOL0     H 2187   6.230   1.821  10.763 -2.0877 -3.6355 -4.9859
   17MOL0     H 2188   6.341   1.868  10.636 -0.4649 -1.1980  1.1859
   17MOL0     H 2189   6.238   2.025  10.884 -0.5114  1.3311 -0.4485
   17MOL0     H 2190   6.330   2.116  10.757 -0.6636  0.5103  0.6377
   17MOL0     H 2191   6.491   2.070  10.918 -0.8184 -0.5424  0.7975
   17MOL0     H 2192   6.520   1.937  10.799  2.3824  2.0830  0.5040
   17MOL0     H 2193   6.391   1.789  10.961 -0.0680 -0.6213  1.4703
   17MOL0     H 2194   6.538   1.879  11.017  0.3203 -0.9416 -1.1178
   17MOL0     H 2195   6.285   2.014  11.101  0.5421 -1.2586 -1.9933
   17MOL0     H 2196   6.431   1.962  11.189  0.6973  1.2870 -0.0037
   17MOL0     H 2197   6.413   1.651  11.183  1.0963  1.6465  2.5259
   17MOL0     H 2198   6.275   1.427  11.303 -1.6663 -0.7946 -0.4432
   17MOL0     H 2199   6.100   1.467  11.323 -0.2989  0.8078 -0.9615
   17MOL0     H 2200   6.202   1.425  11.545 -1.8446  0.2401  0.0349
   17MOL0     H 2201   6.167   1.594  11.537 -2.5694 -2.5412  1.6136
   17MOL0     H 2202   6.400   1.643  11.489  0.4722  0.7179  0.3359
   17MOL0     H 2203   6.373   1.552  11.637  1.6523  1.3659  0.5409
   17MOL0     H 2204   6.477   1.419  11.383 -0.0292 -0.7472 -0.0176
   17MOL0     H 2205   6.425   1.336  11.539  0.4789  0.2331  1.4154
   17MOL0     H 2206   6.819   1.472  11.610 -1.5512  1.1930 -1.8356
   17MOL0     H 2207   7.000   1.292  11.660  0.4012 -0.1990  1.4741
   17MOL0     H 2208   7.183   0.819  11.618 -1.3734 -0.7507  0.3305
   17MOL0     H 2209   7.327   0.666  11.744 -0.2827 -0.6015 -0.3123
   17MOL0     H 2210   7.171   0.584  12.044 -0.2612 -1.4567  1.7315
   17MOL0     H 2211   7.272   0.635  12.172 -0.0161 -0.2202 -0.2836
   17MOL0     H 2212   7.340   0.426  11.963  0.6864  1.0022 -0.7010
   17MOL0     H 2213   7.278   0.381  12.121  3.9262 -2.4890  2.3578
   17MOL0     H 2214   7.450   0.458  12.245  1.1106  2.3072 -0.6368
   17MOL0     H 2215   7.518   0.555  12.124 -2.1870  1.2829 -1.5380
   17MOL0     H 2216   7.501   0.251  12.102  0.1800 -0.6365  0.6682
   17MOL0     H 2217   7.564   0.356  11.976  1.4227  1.6170  0.2862
   17MOL0     H 2218   7.689   0.355  12.263  1.0408 -1.5798 -1.2177
   17MOL0     H 2219   7.765   0.403  12.125  1.5220 -0.0118  2.9040
   17MOL0     H 2220   7.773   0.176  12.040  3.0131 -0.8839  0.4810
   17MOL0     H 2221   7.684   0.116  12.184 -0.0173 -1.6632  1.0966
   17MOL0     H 2222   7.952   0.128  12.176 -1.6427 -1.7512 -1.7220
   17MOL0     H 2223   7.904   0.287  12.255  2.3762 -1.5746 -0.7048
   17MOL0     H 2224   7.762   0.157  12.421  1.1202  0.8125  2.2391
   17MOL0     H 2225   7.940   0.142  12.427  1.6455  0.3454 -1.5275
   17MOL0     H 2226   7.275   0.907  12.096 -3.5056 -0.7445 -0.2530
   17MOL0     H 2227   7.153   1.091  11.953  5.1423  1.4819 -2.2011
   17MOL0     H 2228   6.721   0.991  11.561  2.7435 -0.7023 -2.5856
   17MOL0     H 2229   6.543   1.168  11.517  1.5543 -2.2830 -2.3458
   17MOL0     H 2230   6.177   1.544  10.256  0.2210  0.2157  0.0376
   17MOL0     H 2231   6.065   1.458  10.051 -0.8998  0.4291 -0.8285
   17MOL0     H 2232   5.457   1.260   9.938 -0.2385 -0.3422 -0.5613
   17MOL0     H 2233   5.389   1.188   9.713 -1.3772  2.7408 -0.4317
   17MOL0     H 2234   5.673   1.240   9.362 -0.7679 -0.6195 -1.9423
   17MOL0     H 2235   5.552   1.122   9.320 -2.1069 -0.5833  1.4609
   17MOL0     H 2236   5.789   1.073   9.509 -0.0331  0.9796 -0.7348
   17MOL0     H 2237   5.646   0.978   9.505  1.7281 -0.3588  0.6220
   17MOL0     H 2238   5.833   1.016   9.274  2.1454 -1.5743  0.6633
   17MOL0     H 2239   5.696   0.918   9.246 -1.7421 -0.2281 -0.3066
   17MOL0     H 2240   5.766   0.766   9.428  0.7785 -1.0768  1.8820
   17MOL0     H 2241   5.860   0.795   9.281 -0.3810  0.4623  0.2802
   17MOL0     H 2242   6.173   0.878   9.540 -1.3716  2.4012  2.9125
   17MOL0     H 2243   5.759   1.296   9.555  0.0957 -4.0330 -1.4804
   17MOL0     H 2244   5.841   1.376   9.771 -1.1253  0.4264 -1.6819
   18MOL0     O 2245  11.408  10.731   0.613  0.0275  0.0800  0.0523
   18MOL0     C 2246  11.433  10.672   0.508 -0.1710 -1.1507  0.1920
   18MOL0     O 2247  11.493  10.725   0.407 -0.2439  0.1991 -0.5409
   18MOL0     C 2248  11.567  10.845   0.412 -1.0427  0.6641  0.1163
   18MOL0     C 2249  11.640  10.871   0.532 -0.0073  0.1072  0.6189
   18MOL0     C 2250  11.724  10.986   0.539  0.4084  0.0961 -0.6446
   18MOL0     C 2251  11.716  11.087   0.441 -0.1125  0.0107 -0.0819
   18MOL0     O 2252  11.801  11.197   0.455 -0.5800  0.1563  0.1411
   18MOL0     C 2253  11.736  11.326   0.479  0.8426  0.4068  0.1463
   18MOL0     C 2254  11.738  11.410   0.345  0.0891 -0.2993 -0.3828
   18MOL0     C 2255  11.745  11.562   0.371 -0.2281  0.2742  0.2879
   18MOL0     C 2256  11.840  11.645   0.285 -0.0045  0.1741  0.7695
   18MOL0     C 2257  11.982  11.633   0.333  0.2384 -0.3594 -0.0591
   18MOL0     C 2258  12.080  11.672   0.215  0.1991 -0.1818 -0.1093
   18MOL0     C 2259  12.222  11.607   0.236 -0.7093 -0.6331  0.3149
   18MOL0     C 2260  12.331  11.676   0.144  0.2953 -0.5822  0.4980
   18MOL0     N 2261  12.454  11.589   0.128  0.6047 -0.1589 -0.3337
   18MOL0     C 2262  12.511  11.526   0.237 -0.4287 -0.9982 -0.0873
   18MOL0     C 2263  12.600  11.443   0.177  0.3744  0.1219 -0.4922
   18MOL0     C 2264  12.691  11.354   0.252  0.2878 -0.0379 -0.8639
   18MOL0     C 2265  12.715  11.222   0.180  0.3085  1.0657 -0.0194
   18MOL0     C 2266  12.581  11.159   0.133 -0.1107  0.4102 -0.4896
   18MOL0     C 2267  12.600  11.030   0.057  0.2706 -0.2423  0.9663
   18MOL0     O 2268  12.616  10.926   0.148 -0.1759  0.2250 -0.1852
   18MOL0     C 2269  12.708  10.829   0.129 -0.5961 -0.2466 -0.5799
   18MOL0     C 2270  12.749  10.776   0.011  0.7016 -0.1094  0.3596
   18MOL0     C 2271  12.849  10.681  -0.005  0.4440  0.3847 -0.8328
   18MOL0     C 2272  12.937  10.655   0.094  0.1402 -0.3957 -0.2569
   18MOL0     C 2273  13.040  10.551   0.088  0.3644  0.2043 -0.6066
   18MOL0     O 2274  13.129  10.546   0.195  0.2475 -0.2961 -0.7545
   18MOL0     C 2275  13.251  10.483   0.184  0.2940 -0.4749 -0.0795
   18MOL0     C 2276  13.332  10.511   0.069 -0.5261 -0.5852  0.1033
   18MOL0     C 2277  13.470  10.473   0.067  0.2116  0.6083 -0.2986
   18MOL0     C 2278  13.537  10.407   0.167  0.1850  0.0356 -0.9456
   18MOL0     O 2279  13.674  10.380   0.163 -0.4145  0.4037 -0.3461
   18MOL0     C 2280  13.758  10.469   0.091  0.8343  0.4079  0.1311
   18MOL0     C 2281  13.897  10.436   0.142 -0.8481 -0.3760  0.8642
   18MOL0     C 2282  13.920  10.323   0.236 -0.7115 -0.1329  0.3084
   18MOL0     C 2283  14.062  10.327   0.291  0.5138  1.1729  0.8320
   18MOL0     C 2284  14.128  10.214   0.208 -1.0836  0.3714 -1.3222
   18MOL0     C 2285  14.278  10.204   0.259  0.7277  0.3165  0.5703
   18MOL0     C 2286  14.358  10.091   0.214 -0.2811 -0.5336 -0.4275
   18MOL0     C 2287  14.388  10.072   0.067  0.0025 -0.4407 -0.3401
   18MOL0    Cl 2288  14.487  10.209   0.007 -0.0784  0.0916 -0.6472
   18MOL0     C 2289  13.468  10.383   0.284  0.4737  0.2448 -0.1538
   18MOL0     C 2290  13.326  10.422   0.287  0.2987  0.4236 -0.2900
   18MOL0     O 2291  13.041  10.471  -0.004  1.0393  0.5633  0.1564
   18MOL0     C 2292  12.907  10.718   0.214 -0.2110 -0.1881 -0.0633
   18MOL0     C 2293  12.802  10.811   0.232 -0.7470  1.3695  0.0112
   18MOL0     N 2294  12.602  11.452   0.039  1.2432 -0.8313  0.0439
   18MOL0     N 2295  12.505  11.535   0.011 -0.1193  0.2821 -0.1040
   18MOL0     C 2296  11.644  11.064   0.324 -0.5198  0.2319  0.1158
   18MOL0     C 2297  11.567  10.939   0.315  0.6736 -0.2162  0.3176
   18MOL0     C 2298  11.365  10.547   0.494  1.0209 -0.9753 -0.8423
   18MOL0     C 2299  11.328  10.478   0.606 -0.2449  0.3100  1.0954
   18MOL0     C 2300  11.268  10.356   0.586  0.4553  1.2554 -0.4395
   18MOL0     C 2301  11.247  10.281   0.471 -0.0170 -0.0533  0.6120
   18MOL0     O 2302  11.213  10.149   0.460 -0.4710  0.4854  0.3984
   18MOL0     C 2303  11.194  10.064   0.578  0.2281 -0.1772  0.2063
   18MOL0     C 2304  11.199   9.910   0.554 -0.2476  0.0113  0.4767
   18MOL0     C 2305  11.083   9.866   0.474  0.1056 -0.4375  0.1304
   18MOL0     C 2306  11.095   9.868   0.322 -0.6565 -0.1643 -0.6712
   18MOL0     C 2307  11.090   9.729   0.274  0.8999  0.4483 -0.1259
   18MOL0     C 2308  11.060   9.620   0.220 -0.0313  0.1741  1.0878
   18MOL0     C 2309  11.285  10.356   0.360 -0.0808  0.7707 -0.5229
   18MOL0     C 2310  11.355  10.481   0.363  0.5653 -0.2511  0.9007
   18MOL0     H 2311  11.643  10.808   0.621  3.3748  2.0901  2.1120
   18MOL0     H 2312  11.770  11.025   0.630 -1.2498  2.9200 -0.8857
   18MOL0     H 2313  11.794  11.374   0.558 -2.1090  2.3844  1.2762
   18MOL0     H 2314  11.637  11.304   0.519 -0.1220  0.7944 -1.8895
   18MOL0     H 2315  11.662  11.389   0.270  1.7198 -1.8769 -1.6667
   18MOL0     H 2316  11.831  11.382   0.295 -1.3163 -4.3621 -1.1441
   18MOL0     H 2317  11.789  11.579   0.470  1.3357  0.6064 -0.4264
   18MOL0     H 2318  11.642  11.600   0.369 -1.2626 -2.3428 -0.0376
   18MOL0     H 2319  11.826  11.624   0.179 -0.5292  2.7623  0.2608
   18MOL0     H 2320  11.817  11.752   0.294  0.3530  0.3534 -0.2464
   18MOL0     H 2321  11.994  11.536   0.382 -0.8402  0.6323  2.2990
   18MOL0     H 2322  11.986  11.704   0.416  1.6489 -2.1444  1.4771
   18MOL0     H 2323  12.083  11.781   0.221 -1.8682 -0.1242  0.5100
   18MOL0     H 2324  12.041  11.643   0.117  1.7088  1.2262 -1.1798
   18MOL0     H 2325  12.252  11.611   0.341  2.7731 -1.4347 -0.5074
   18MOL0     H 2326  12.213  11.501   0.209  0.6700 -0.6049 -0.3571
   18MOL0     H 2327  12.363  11.771   0.186 -0.7180 -0.0466  0.0896
   18MOL0     H 2328  12.286  11.701   0.047  2.7615  0.2137 -0.5468
   18MOL0     H 2329  12.507  11.543   0.344  2.4811  0.6198 -0.1163
   18MOL0     H 2330  12.639  11.325   0.344  2.5507  3.5061  1.7969
   18MOL0     H 2331  12.776  11.415   0.284 -0.1251  0.8247 -1.3881
   18MOL0     H 2332  12.766  11.153   0.247 -1.4390 -1.5463 -1.2238
   18MOL0     H 2333  12.780  11.238   0.094 -0.2377  1.6450 -0.3343
   18MOL0     H 2334  12.518  11.135   0.220 -0.7898  4.4243  0.3714
   18MOL0     H 2335  12.510  11.219   0.076 -1.8185 -2.6367 -1.8095
   18MOL0     H 2336  12.677  11.043  -0.019 -1.2641 -1.7920 -0.9541
   18MOL0     H 2337  12.510  11.006  -0.000 -0.0261 -1.2236  1.8134
   18MOL0     H 2338  12.683  10.803  -0.071  0.4332  1.8415  1.1431
   18MOL0     H 2339  12.883  10.636  -0.098  5.9809 -1.9528  1.8854
   18MOL0     H 2340  13.300  10.580  -0.009  0.5012  1.2434  1.2069
   18MOL0     H 2341  13.533  10.497  -0.018  2.3390  0.6497  1.2221
   18MOL0     H 2342  13.739  10.574   0.114 -1.5064  0.1155 -0.1901
   18MOL0     H 2343  13.747  10.460  -0.018 -1.5454 -0.3398  0.3666
   18MOL0     H 2344  13.939  10.524   0.191 -1.3144  0.5203 -0.2880
   18MOL0     H 2345  13.963  10.413   0.058 -1.4681 -0.3942  0.3771
   18MOL0     H 2346  13.884  10.230   0.191  1.1989 -0.0344 -1.5859
   18MOL0     H 2347  13.857  10.340   0.324  0.2037  2.2015  0.5916
   18MOL0     H 2348  14.117  10.421   0.279  2.0441  0.2579  0.3162
   18MOL0     H 2349  14.055  10.298   0.396  1.8661 -1.3020  0.3289
   18MOL0     H 2350  14.123  10.232   0.100  1.7742 -1.0842 -1.7997
   18MOL0     H 2351  14.070  10.123   0.223 -0.6728  0.4511  1.1177
   18MOL0     H 2352  14.285  10.217   0.367 -2.9211  0.7420  0.8775
   18MOL0     H 2353  14.330  10.295   0.228 -0.2054 -0.0387 -2.3784
   18MOL0     H 2354  14.454  10.100   0.265 -0.0111  4.2990 -1.3201
   18MOL0     H 2355  14.320   9.994   0.246  2.5510 -1.3992  0.6050
   18MOL0     H 2356  14.299  10.068   0.003 -0.0647  0.2112 -0.2967
   18MOL0     H 2357  14.448   9.981   0.063 -0.6225 -0.8107 -2.0467
   18MOL0     H 2358  13.526  10.333   0.361 -0.6685 -4.5207 -2.0329
   18MOL0     H 2359  13.286  10.410   0.387 -2.0414 -0.8177 -1.3032
   18MOL0     H 2360  12.976  10.702   0.297 -1.9217  1.8002  1.8492
   18MOL0     H 2361  12.786  10.867   0.323 -0.4114 -3.1201  3.2023
   18MOL0     H 2362  11.640  11.141   0.248  2.9300  0.5360  0.0859
   18MOL0     H 2363  11.511  10.925   0.223  0.6520  1.4678  0.0408
   18MOL0     H 2364  11.347  10.511   0.708 -2.8013  0.0364  1.7213
   18MOL0     H 2365  11.240  10.304   0.677 -0.1594 -1.3803 -2.0498
   18MOL0     H 2366  11.103  10.087   0.636 -1.0356  1.4128 -2.2374
   18MOL0     H 2367  11.282  10.077   0.642 -1.3733  0.7190  2.3640
   18MOL0     H 2368  11.287   9.891   0.491 -1.5323  0.8422 -1.6611
   18MOL0     H 2369  11.205   9.864   0.653 -0.9405  0.9227  0.9454
   18MOL0     H 2370  10.999   9.928   0.507  1.7559  3.0674 -1.7396
   18MOL0     H 2371  11.068   9.764   0.512  2.1533 -0.2336  1.6400
   18MOL0     H 2372  11.016   9.934   0.284  0.6246  0.3459 -2.5863
   18MOL0     H 2373  11.190   9.915   0.295 -1.2342 -0.0031 -2.5497
   18MOL0     H 2374  11.036   9.525   0.177 -2.6349  1.7197 -1.1786
   18MOL0     H 2375  11.271  10.304   0.265  0.0423  1.1031 -0.7264
   18MOL0     H 2376  11.400  10.516   0.271  1.4342 -1.8041  0.6981
   19MOL0     O 2377   0.160   5.551   7.833 -0.2268  0.2831  0.4852
   19MOL0     C 2378   0.102   5.443   7.851  0.2067  0.4974 -0.0008
   19MOL0     O 2379   0.041   5.364   7.757 -0.2442 -0.4387  0.1548
   19MOL0     C 2380   0.044   5.419   7.625  0.1724  0.2190  0.0312
   19MOL0     C 2381  -0.073   5.453   7.549 -0.5215  0.6519  0.4285
   19MOL0     C 2382  -0.063   5.504   7.417  0.3981 -0.2358  0.8048
   19MOL0     C 2383   0.060   5.539   7.355  0.5264 -1.0278 -0.7784
   19MOL0     O 2384   0.074   5.603   7.243 -0.4463  0.1407  0.3392
   19MOL0     C 2385  -0.037   5.619   7.157 -0.0552 -0.0045  0.4605
   19MOL0     C 2386   0.008   5.688   7.028 -0.1580  0.0307 -0.1508
   19MOL0     C 2387  -0.104   5.784   6.964  0.5479  0.6762 -0.5931
   19MOL0     C 2388  -0.238   5.707   6.955 -0.3905 -0.0229  0.6873
   19MOL0     C 2389  -0.346   5.804   6.909 -1.2070 -0.4135 -0.4519
   19MOL0     C 2390  -0.487   5.763   6.930 -0.5028  0.2216  0.5070
   19MOL0     C 2391  -0.570   5.872   6.854  0.0138  0.2103 -0.2892
   19MOL0     C 2392  -0.613   5.816   6.722  0.2976 -0.5024  0.3840
   19MOL0     N 2393  -0.717   5.914   6.682 -0.3333 -0.1427  0.3751
   19MOL0     C 2394  -0.851   5.911   6.711  0.2107  0.3098 -0.0676
   19MOL0     C 2395  -0.909   6.019   6.640 -0.0457 -0.4486 -0.2731
   19MOL0     C 2396  -1.054   6.056   6.616  0.4116  1.0249  0.3450
   19MOL0     C 2397  -1.094   6.182   6.704 -0.4461 -0.6909 -0.1021
   19MOL0     C 2398  -1.041   6.185   6.853  0.1199 -0.2227 -1.3881
   19MOL0     C 2399  -1.145   6.120   6.942  0.0629  0.0184 -0.6064
   19MOL0     O 2400  -1.142   5.980   6.916  0.3009  0.8150 -0.1609
   19MOL0     C 2401  -1.146   5.878   7.012  0.5919  0.3059 -0.6227
   19MOL0     C 2402  -1.183   5.901   7.146  0.2581  0.1412 -0.9713
   19MOL0     C 2403  -1.190   5.788   7.228  0.6697  0.6398  0.0762
   19MOL0     C 2404  -1.147   5.656   7.196 -0.1035  0.7181 -0.2842
   19MOL0     C 2405  -1.143   5.541   7.287 -0.4416 -0.3106 -1.2145
   19MOL0     O 2406  -1.164   5.419   7.226 -0.1090 -0.0607 -0.3319
   19MOL0     C 2407  -1.174   5.301   7.290 -0.9020  0.1021 -1.5499
   19MOL0     C 2408  -1.108   5.197   7.226 -0.6782 -0.2957 -0.4390
   19MOL0     C 2409  -1.106   5.067   7.265  0.5583 -0.0433  0.6535
   19MOL0     C 2410  -1.154   5.034   7.384  0.1729  0.2598 -0.8594
   19MOL0     O 2411  -1.153   4.901   7.432 -0.0101  0.0520  0.7524
   19MOL0     C 2412  -1.060   4.812   7.374  0.4036 -0.3095 -1.6589
   19MOL0     C 2413  -1.110   4.740   7.261  0.0575 -0.1168 -0.0031
   19MOL0     C 2414  -1.212   4.635   7.294 -0.3475 -0.7572 -0.2955
   19MOL0     C 2415  -1.310   4.592   7.185  0.2149  0.0963  0.6216
   19MOL0     C 2416  -1.225   4.542   7.060 -0.0194 -0.6760  0.1943
   19MOL0     C 2417  -1.315   4.456   6.977  0.4173  0.9510 -0.5451
   19MOL0     C 2418  -1.285   4.478   6.827  0.0389  0.0053  0.5765
   19MOL0     C 2419  -1.142   4.421   6.775 -0.4468 -0.4593 -0.0558
   19MOL0    Cl 2420  -1.148   4.387   6.594  0.1648  0.0617  0.6147
   19MOL0     C 2421  -1.227   5.133   7.462  0.6071 -1.0151  0.2046
   19MOL0     C 2422  -1.235   5.273   7.412  0.0877  0.0101 -0.4582
   19MOL0     O 2423  -1.135   5.571   7.403 -0.0421  0.4832 -0.2334
   19MOL0     C 2424  -1.112   5.639   7.070 -0.7232  0.0434 -0.0206
   19MOL0     C 2425  -1.114   5.745   6.973 -1.4044  0.0974  0.1056
   19MOL0     N 2426  -0.803   6.093   6.585  0.1259 -0.3768 -0.3041
   19MOL0     N 2427  -0.698   6.032   6.609 -0.1494  0.9774  0.5288
   19MOL0     C 2428   0.173   5.513   7.438 -0.9773  0.2975 -0.0632
   19MOL0     C 2429   0.164   5.454   7.562 -1.0003  0.5022  0.0623
   19MOL0     C 2430   0.078   5.395   7.988  0.2529 -0.3626  0.2914
   19MOL0     C 2431   0.073   5.484   8.096 -0.9236 -0.7499  0.6367
   19MOL0     C 2432   0.051   5.437   8.222 -1.6565 -0.1177  0.2233
   19MOL0     C 2433   0.032   5.303   8.251  0.5815 -0.0263 -0.6370
   19MOL0     O 2434   0.019   5.266   8.381  0.4824 -0.5111  0.2013
   19MOL0     C 2435  -0.093   5.307   8.449  0.0394  0.6641  0.1613
   19MOL0     C 2436  -0.062   5.414   8.567  0.1034 -0.9873  0.3596
   19MOL0     C 2437   0.019   5.343   8.682 -0.2581 -1.0555  1.0001
   19MOL0     C 2438   0.135   5.450   8.716 -1.0317  0.1855  0.4661
   19MOL0     C 2439   0.242   5.470   8.617  0.1022  0.3843 -0.2554
   19MOL0     C 2440   0.317   5.491   8.523  0.5349 -0.6141 -0.7497
   19MOL0     C 2441   0.050   5.217   8.150 -1.1634  0.3190  0.3334
   19MOL0     C 2442   0.054   5.263   8.015 -0.7898 -0.0001 -0.1972
   19MOL0     H 2443  -0.164   5.412   7.592 -1.6939  0.0893 -2.3400
   19MOL0     H 2444  -0.151   5.513   7.354  1.0952  0.9088 -0.0449
   19MOL0     H 2445  -0.118   5.685   7.189  2.4394  3.3459  0.4058
   19MOL0     H 2446  -0.072   5.516   7.144 -2.0594  0.4576  1.7112
   19MOL0     H 2447   0.035   5.617   6.950  0.5122 -1.0286  1.0037
   19MOL0     H 2448   0.101   5.739   7.056 -0.3597 -0.2889  1.1777
   19MOL0     H 2449  -0.078   5.812   6.862  0.9800  0.1827 -0.6269
   19MOL0     H 2450  -0.107   5.875   7.024  0.6100 -1.1353  2.4020
   19MOL0     H 2451  -0.227   5.629   6.880  0.7557 -0.6762  1.4975
   19MOL0     H 2452  -0.270   5.658   7.048 -0.8805 -1.0075  0.0129
   19MOL0     H 2453  -0.335   5.816   6.801 -1.3549 -1.7472 -0.6395
   19MOL0     H 2454  -0.332   5.894   6.969  2.5251 -1.6850  0.8910
   19MOL0     H 2455  -0.517   5.782   7.033 -0.7253  2.0777  0.1347
   19MOL0     H 2456  -0.510   5.658   6.910 -0.8316 -0.7689  5.0175
   19MOL0     H 2457  -0.657   5.898   6.915  0.4672 -3.5101  2.3037
   19MOL0     H 2458  -0.505   5.958   6.838  1.2398 -0.5700  0.3049
   19MOL0     H 2459  -0.667   5.722   6.727 -0.1525 -0.2926 -0.3613
   19MOL0     H 2460  -0.525   5.805   6.658  0.6804  3.9083 -0.1658
   19MOL0     H 2461  -0.901   5.831   6.765  3.0035 -0.1522  2.0717
   19MOL0     H 2462  -1.115   5.974   6.655 -2.1384  2.7686  0.2639
   19MOL0     H 2463  -1.065   6.061   6.508  2.6900  2.9971  0.1109
   19MOL0     H 2464  -1.202   6.199   6.705 -0.7056 -1.7272  3.3154
   19MOL0     H 2465  -1.047   6.268   6.656 -3.5757  1.8064  0.9225
   19MOL0     H 2466  -0.955   6.120   6.875 -0.1742  0.4019  2.0496
   19MOL0     H 2467  -1.009   6.284   6.887  0.7013 -1.1700  0.9964
   19MOL0     H 2468  -1.245   6.161   6.919 -0.1211  0.9699  1.6922
   19MOL0     H 2469  -1.141   6.147   7.048 -2.6463  0.1240 -0.4578
   19MOL0     H 2470  -1.202   6.000   7.186  1.0689 -0.6479  1.5583
   19MOL0     H 2471  -1.226   5.800   7.329 -4.8538 -0.6812 -1.4073
   19MOL0     H 2472  -1.072   5.229   7.128 -0.7915 -0.2079 -0.4522
   19MOL0     H 2473  -1.046   4.995   7.211  0.0649 -1.1157  1.4958
   19MOL0     H 2474  -1.043   4.736   7.451  2.3270 -0.5639 -2.3012
   19MOL0     H 2475  -0.966   4.867   7.363 -0.0046  1.3388  1.6513
   19MOL0     H 2476  -1.028   4.688   7.212 -1.2119 -2.5686  0.3178
   19MOL0     H 2477  -1.165   4.804   7.191  4.7422  3.2573 -1.0391
   19MOL0     H 2478  -1.259   4.657   7.390 -0.2198 -3.7181  0.5225
   19MOL0     H 2479  -1.151   4.546   7.309 -1.1597 -1.3388 -0.3867
   19MOL0     H 2480  -1.373   4.512   7.225  3.0676 -3.0993 -0.7426
   19MOL0     H 2481  -1.366   4.684   7.168 -1.5622 -0.7409  1.6460
   19MOL0     H 2482  -1.135   4.489   7.092  1.1133  0.8314 -0.3786
   19MOL0     H 2483  -1.195   4.637   7.014 -3.6204  3.4248  5.0678
   19MOL0     H 2484  -1.416   4.491   7.003  0.7284 -1.2662  5.1589
   19MOL0     H 2485  -1.296   4.352   7.004  1.9754  1.5260  0.8122
   19MOL0     H 2486  -1.362   4.424   6.771 -0.2070  0.8625  0.0580
   19MOL0     H 2487  -1.293   4.583   6.795 -0.6756 -0.2228 -0.0407
   19MOL0     H 2488  -1.124   4.329   6.830 -3.3036 -1.6878 -0.9820
   19MOL0     H 2489  -1.072   4.503   6.792 -3.9340  2.7189  0.2488
   19MOL0     H 2490  -1.269   5.113   7.560 -0.7212 -0.1168 -0.1430
   19MOL0     H 2491  -1.277   5.349   7.477  1.8458  1.1023 -0.5376
   19MOL0     H 2492  -1.052   5.552   7.045 -3.1983 -1.1205 -2.4190
   19MOL0     H 2493  -1.096   5.730   6.867  0.0380 -0.7635  0.4476
   19MOL0     H 2494   0.275   5.530   7.407 -1.5663 -0.3869 -2.6234
   19MOL0     H 2495   0.256   5.447   7.618  0.4561  0.5811 -2.2013
   19MOL0     H 2496   0.086   5.585   8.059 -0.7584 -0.2503  1.9774
   19MOL0     H 2497   0.046   5.517   8.296 -0.7555  1.7458 -1.6322
   19MOL0     H 2498  -0.144   5.220   8.493 -0.4793 -0.6278 -2.7550
   19MOL0     H 2499  -0.165   5.352   8.380 -0.2814  1.5561  1.0472
   19MOL0     H 2500  -0.013   5.498   8.517  3.3139 -2.3667  0.9314
   19MOL0     H 2501  -0.160   5.443   8.607 -0.2893 -2.0927  0.2266
   19MOL0     H 2502   0.060   5.253   8.637  2.5969  0.5600  0.1352
   19MOL0     H 2503  -0.046   5.324   8.768  1.0388 -0.4863  2.1468
   19MOL0     H 2504   0.093   5.544   8.752 -1.1486 -0.3377  1.7319
   19MOL0     H 2505   0.191   5.399   8.795 -0.4410  1.9690  1.2492
   19MOL0     H 2506   0.381   5.493   8.437  1.1325 -1.7199 -0.3471
   19MOL0     H 2507   0.070   5.111   8.162  1.8039  0.6964 -0.5261
   19MOL0     H 2508   0.066   5.185   7.941 -0.1074  0.8047 -0.9361
   20MOL0     O 2509  10.853   0.831   3.205  0.4020 -0.3394 -0.5589
   20MOL0     C 2510  10.865   0.943   3.252 -0.0705 -0.0687  0.2054
   20MOL0     O 2511  10.991   1.016   3.274  0.1317  0.4566 -0.4004
   20MOL0     C 2512  11.115   0.965   3.241 -0.0118 -0.1275  0.0097
   20MOL0     C 2513  11.135   0.845   3.153 -0.4441  0.0585 -0.4845
   20MOL0     C 2514  11.263   0.788   3.140 -0.1996  0.4334 -0.1724
   20MOL0     C 2515  11.375   0.841   3.199  0.5999 -0.5182 -1.1239
   20MOL0     O 2516  11.497   0.778   3.176 -0.1973 -0.2687 -0.5319
   20MOL0     C 2517  11.615   0.818   3.258  0.8715  0.3003 -0.9410
   20MOL0     C 2518  11.734   0.853   3.166  1.0702 -0.1982  0.5018
   20MOL0     C 2519  11.840   0.949   3.223  0.2450 -0.3111  0.6468
   20MOL0     C 2520  11.792   1.093   3.248  0.2604 -0.1608 -0.2984
   20MOL0     C 2521  11.909   1.189   3.283  0.5382  0.1628  0.1354
   20MOL0     C 2522  11.846   1.327   3.322  0.1779  0.2868 -0.1898
   20MOL0     C 2523  11.879   1.442   3.226 -0.1415 -0.7204  0.4775
   20MOL0     C 2524  11.780   1.554   3.260  0.7347 -0.2624 -0.4420
   20MOL0     N 2525  11.776   1.656   3.159 -1.0031  0.3892  0.5911
   20MOL0     C 2526  11.849   1.770   3.165  0.2046 -0.1206  0.3620
   20MOL0     C 2527  11.811   1.832   3.050 -0.1900  0.2739  0.0769
   20MOL0     C 2528  11.882   1.953   3.001  0.2955 -0.5619  0.6665
   20MOL0     C 2529  11.820   2.025   2.872  0.2350 -0.1137 -0.7801
   20MOL0     C 2530  11.718   2.140   2.914 -0.7801  0.2870  0.2912
   20MOL0     C 2531  11.769   2.287   2.914 -0.0960 -0.4207 -0.2763
   20MOL0     O 2532  11.672   2.382   2.957  0.2839  0.3752  0.2191
   20MOL0     C 2533  11.713   2.511   2.981  0.5074  0.0241  0.4822
   20MOL0     C 2534  11.650   2.594   3.073 -0.3460  0.0431  0.9143
   20MOL0     C 2535  11.690   2.727   3.085  0.9840  0.3170 -1.0965
   20MOL0     C 2536  11.809   2.778   3.031 -0.1971  0.2523  1.2659
   20MOL0     C 2537  11.867   2.908   3.072 -0.6231  0.6706  0.0074
   20MOL0     O 2538  11.991   2.938   3.022 -0.4043  0.0323  0.0928
   20MOL0     C 2539  12.049   3.048   3.082  0.0521 -0.1957  1.0248
   20MOL0     C 2540  12.056   3.162   2.995  0.6727 -0.1964 -0.9332
   20MOL0     C 2541  12.116   3.276   3.041 -0.2128 -0.1879 -0.6193
   20MOL0     C 2542  12.181   3.286   3.166 -0.5242  0.2464 -0.0644
   20MOL0     O 2543  12.244   3.396   3.204  0.6614 -0.4328 -0.2645
   20MOL0     C 2544  12.369   3.433   3.147 -0.1174  0.6933  0.7179
   20MOL0     C 2545  12.404   3.564   3.209 -0.1874  0.8970 -0.0900
   20MOL0     C 2546  12.550   3.564   3.195 -0.4901 -0.2439 -0.2195
   20MOL0     C 2547  12.599   3.580   3.060  1.3972 -0.5558 -0.6680
   20MOL0     C 2548  12.734   3.659   3.039  0.9325  0.0135 -0.0802
   20MOL0     C 2549  12.772   3.685   2.901  0.0909  0.7604 -0.4107
   20MOL0     C 2550  12.872   3.799   2.898 -0.4516  0.0891 -0.2994
   20MOL0     C 2551  12.915   3.842   2.758 -0.0279  0.7274  0.0160
   20MOL0    Cl 2552  12.767   3.888   2.678 -0.5131 -0.2693 -0.0988
   20MOL0     C 2553  12.168   3.177   3.250 -0.3119 -0.6132  0.5084
   20MOL0     C 2554  12.107   3.058   3.207  0.4966 -0.3277 -0.0105
   20MOL0     O 2555  11.818   2.963   3.174  0.5234  0.6106 -0.2091
   20MOL0     C 2556  11.879   2.687   2.944 -0.1541 -0.6542 -0.3253
   20MOL0     C 2557  11.828   2.564   2.916  0.5720 -0.6713 -1.0998
   20MOL0     N 2558  11.719   1.755   2.978 -0.1045 -0.5445  0.3473
   20MOL0     N 2559  11.697   1.653   3.049  0.2402 -0.2951 -0.3827
   20MOL0     C 2560  11.355   0.947   3.284 -0.2074 -0.3880 -0.5012
   20MOL0     C 2561  11.234   1.008   3.299  0.2461  0.7408  0.9367
   20MOL0     C 2562  10.740   1.003   3.300  0.5460  0.5482  0.1807
   20MOL0     C 2563  10.615   0.961   3.249 -0.4974 -0.0199 -0.0252
   20MOL0     C 2564  10.492   1.033   3.292  1.0432  0.2347 -0.0546
   20MOL0     C 2565  10.505   1.133   3.395  0.4102 -0.2102  0.8486
   20MOL0     O 2566  10.385   1.199   3.414  0.6546 -0.4618 -0.2494
   20MOL0     C 2567  10.371   1.279   3.535 -0.1404 -0.1289 -0.4385
   20MOL0     C 2568  10.236   1.321   3.568 -0.5509 -0.5593  0.1915
   20MOL0     C 2569  10.245   1.439   3.662  1.1383 -0.0287  0.3770
   20MOL0     C 2570  10.098   1.508   3.660  0.0942  0.4966  1.0411
   20MOL0     C 2571  10.107   1.618   3.756  0.6304  0.3159  0.4423
   20MOL0     C 2572  10.117   1.702   3.838  0.1734  0.7189 -0.3414
   20MOL0     C 2573  10.632   1.159   3.452  0.1835  0.0614 -0.1951
   20MOL0     C 2574  10.741   1.096   3.402 -0.3532 -0.0444  0.0093
   20MOL0     H 2575  11.052   0.808   3.094 -0.1072 -1.2828 -0.1432
   20MOL0     H 2576  11.282   0.694   3.089  1.8015  1.1517 -0.8303
   20MOL0     H 2577  11.648   0.732   3.318 -4.5015 -0.1569  1.8968
   20MOL0     H 2578  11.599   0.898   3.331  0.5625  3.0410 -3.8177
   20MOL0     H 2579  11.697   0.889   3.069  0.8532 -1.0026  0.2737
   20MOL0     H 2580  11.784   0.759   3.142  0.9348  0.1190 -1.1910
   20MOL0     H 2581  11.931   0.958   3.164  0.5891  0.1782  1.2411
   20MOL0     H 2582  11.875   0.908   3.318 -5.0749  0.0501  3.1330
   20MOL0     H 2583  11.736   1.134   3.162  1.6465 -0.3293 -1.3076
   20MOL0     H 2584  11.722   1.090   3.332 -0.3152  2.0001 -0.6313
   20MOL0     H 2585  11.965   1.206   3.191 -1.4602 -3.0010 -1.8594
   20MOL0     H 2586  11.966   1.147   3.367  0.3172  1.2681  0.8651
   20MOL0     H 2587  11.870   1.347   3.427 -0.5639 -2.5738  0.6010
   20MOL0     H 2588  11.737   1.317   3.334  0.1275  1.6366  0.7706
   20MOL0     H 2589  11.986   1.462   3.236  0.0528 -2.2417  2.0709
   20MOL0     H 2590  11.863   1.408   3.123 -0.5401 -1.0516  0.6419
   20MOL0     H 2591  11.811   1.604   3.352  2.6653  0.2253 -1.3087
   20MOL0     H 2592  11.679   1.513   3.271  1.2908 -2.2667 -2.2442
   20MOL0     H 2593  11.923   1.795   3.240  1.2823  1.0362 -1.0504
   20MOL0     H 2594  11.981   1.920   2.967 -1.0173 -4.0915 -0.0789
   20MOL0     H 2595  11.887   2.022   3.086  0.5053 -0.2190  0.3755
   20MOL0     H 2596  11.778   1.953   2.801  0.5289 -1.6147  0.5340
   20MOL0     H 2597  11.903   2.078   2.824 -0.5922  2.3298  0.3094
   20MOL0     H 2598  11.640   2.147   2.838 -1.2499  0.1423  0.7570
   20MOL0     H 2599  11.681   2.113   3.013  2.5468  2.2999  2.2929
   20MOL0     H 2600  11.804   2.300   2.811 -0.0443 -2.0460 -0.4962
   20MOL0     H 2601  11.845   2.297   2.992 -3.0305 -0.0896  2.7563
   20MOL0     H 2602  11.572   2.551   3.134  1.1085  0.0694  2.8817
   20MOL0     H 2603  11.645   2.796   3.155  1.4390  0.9146 -1.3831
   20MOL0     H 2604  11.998   3.148   2.905 -2.5670  0.4084  0.8966
   20MOL0     H 2605  12.118   3.359   2.972 -2.5788  0.1019 -0.4324
   20MOL0     H 2606  12.362   3.444   3.038 -0.1273 -1.2611  0.4924
   20MOL0     H 2607  12.452   3.364   3.165 -0.5888  0.4541  2.0271
   20MOL0     H 2608  12.392   3.560   3.318  4.1056  0.9658  0.5510
   20MOL0     H 2609  12.354   3.653   3.171 -0.7459  0.5678 -0.1375
   20MOL0     H 2610  12.595   3.486   3.256  0.5107  0.6528  0.2320
   20MOL0     H 2611  12.575   3.656   3.249  0.0555  0.5969 -1.8476
   20MOL0     H 2612  12.617   3.477   3.026  0.5731 -0.5263 -1.2248
   20MOL0     H 2613  12.525   3.641   3.008  0.9683  0.8352  1.4448
   20MOL0     H 2614  12.811   3.599   3.088 -1.1393 -1.8991  1.0650
   20MOL0     H 2615  12.715   3.750   3.096  1.1958 -0.6095  1.0565
   20MOL0     H 2616  12.684   3.692   2.836  2.5353 -0.5645 -4.1999
   20MOL0     H 2617  12.834   3.598   2.878  1.5322  0.3989  3.9999
   20MOL0     H 2618  12.839   3.892   2.946  4.6136  1.2694  1.5066
   20MOL0     H 2619  12.960   3.777   2.959  0.1140  3.2800  0.2323
   20MOL0     H 2620  12.956   3.755   2.705  0.6019  0.9475  0.1346
   20MOL0     H 2621  12.985   3.926   2.759 -0.0113  0.7124  0.4159
   20MOL0     H 2622  12.218   3.189   3.346  1.7538  0.2938 -0.5989
   20MOL0     H 2623  12.102   2.966   3.264 -2.0142 -1.7816 -2.3015
   20MOL0     H 2624  11.977   2.708   2.903 -1.4514 -0.0829 -3.4348
   20MOL0     H 2625  11.888   2.511   2.843  2.8925 -0.0771  0.2953
   20MOL0     H 2626  11.432   1.002   3.337 -1.2779 -1.2885  2.1995
   20MOL0     H 2627  11.218   1.085   3.374 -1.6266  0.5885  0.7496
   20MOL0     H 2628  10.607   0.882   3.175 -0.9430  0.2263 -0.2473
   20MOL0     H 2629  10.395   1.023   3.246  0.7915  0.8336  0.3308
   20MOL0     H 2630  10.434   1.369   3.527 -2.1900  1.8247  2.9106
   20MOL0     H 2631  10.405   1.227   3.625  0.7206  0.1260 -0.6006
   20MOL0     H 2632  10.195   1.364   3.476  3.9751 -1.5178 -2.5514
   20MOL0     H 2633  10.177   1.236   3.602 -2.5493  0.9957  0.8341
   20MOL0     H 2634  10.315   1.515   3.627  0.1597  0.2835 -1.0224
   20MOL0     H 2635  10.273   1.414   3.764  0.5439 -1.2535  0.2503
   20MOL0     H 2636  10.067   1.545   3.562 -1.2239 -0.8271  0.9234
   20MOL0     H 2637  10.027   1.432   3.693  2.1868 -0.7432  2.9610
   20MOL0     H 2638  10.134   1.783   3.905  1.8315  1.6375 -1.7870
   20MOL0     H 2639  10.625   1.237   3.528  2.7988 -1.8245  2.1537
   20MOL0     H 2640  10.831   1.136   3.447  0.9045 -3.4475  0.7674
   21MOL0     O 2641   9.483  10.313   8.118  0.0015 -0.1795  0.1521
   21MOL0     C 2642   9.435  10.317   8.236 -0.9369  1.0585  0.2025
   21MOL0     O 2643   9.375  10.418   8.299  0.0238 -0.2901  0.2400
   21MOL0     C 2644   9.341  10.533   8.234 -0.5503 -0.0336 -0.6575
   21MOL0     C 2645   9.237  10.605   8.298 -0.0460  0.9545  0.3337
   21MOL0     C 2646   9.196  10.721   8.227 -0.3507  1.0574  0.3284
   21MOL0     C 2647   9.272  10.783   8.125  0.6108  0.5937 -0.5727
   21MOL0     O 2648   9.222  10.900   8.078 -0.1880 -1.4751 -0.0453
   21MOL0     C 2649   9.293  10.992   8.001  0.7252 -0.3621 -0.2026
   21MOL0     C 2650   9.418  11.048   8.079  0.4063 -1.0406 -0.2357
   21MOL0     C 2651   9.495  11.151   7.995 -0.0510 -0.3065  0.2965
   21MOL0     C 2652   9.539  11.103   7.854  0.9199  0.0960  0.7787
   21MOL0     C 2653   9.694  11.082   7.836  0.2935  0.6076 -0.7811
   21MOL0     C 2654   9.726  11.009   7.708 -0.4793 -0.5592 -0.2991
   21MOL0     C 2655   9.691  11.079   7.574 -0.6880 -0.0903  0.2983
   21MOL0     C 2656   9.744  11.004   7.445  0.9140 -0.8250 -0.0197
   21MOL0     N 2657   9.760  11.100   7.331 -0.0861 -0.5148  0.3345
   21MOL0     C 2658   9.873  11.166   7.292 -0.3963 -0.2978 -0.1671
   21MOL0     C 2659   9.833  11.243   7.193  0.5624 -0.3425 -0.0694
   21MOL0     C 2660   9.919  11.328   7.101 -0.2445 -0.1035  0.2471
   21MOL0     C 2661   9.883  11.473   7.117  0.1456 -0.4313  0.2434
   21MOL0     C 2662   9.880  11.532   7.262  0.7498 -0.2462  0.5493
   21MOL0     C 2663   9.832  11.681   7.247  0.3237 -0.8833  0.0359
   21MOL0     O 2664   9.913  11.755   7.166 -0.5800 -0.4533  0.3641
   21MOL0     C 2665  10.030  11.795   7.235  0.4020 -0.0865  0.4014
   21MOL0     C 2666  10.151  11.720   7.258  0.6855  0.9780  0.3671
   21MOL0     C 2667  10.258  11.764   7.332 -0.7492 -1.1443 -0.3563
   21MOL0     C 2668  10.246  11.882   7.400 -0.5983  0.2076 -0.1806
   21MOL0     C 2669  10.347  11.908   7.499 -0.3527  0.4716  0.8097
   21MOL0     O 2670  10.427  11.808   7.534 -0.3097 -0.0578 -0.3778
   21MOL0     C 2671  10.516  11.824   7.645 -0.1555 -0.5422  0.5255
   21MOL0     C 2672  10.649  11.858   7.621  0.0609 -0.3372 -0.3869
   21MOL0     C 2673  10.748  11.872   7.715 -0.1185 -1.4567  0.4280
   21MOL0     C 2674  10.715  11.873   7.848  0.1065  0.2236 -0.0681
   21MOL0     O 2675  10.817  11.892   7.921 -0.4134 -0.1596 -0.6239
   21MOL0     C 2676  10.823  11.876   8.062 -0.0282  0.7944  0.1722
   21MOL0     C 2677  10.926  11.985   8.096 -0.4837 -0.5987 -0.6198
   21MOL0     C 2678  11.067  11.945   8.064  0.5287  0.0660  0.0986
   21MOL0     C 2679  11.158  12.057   8.097 -0.2447  1.2568  0.5109
   21MOL0     C 2680  11.202  12.070   8.245 -0.4353 -0.7527  0.6444
   21MOL0     C 2681  11.283  11.950   8.299  0.1886 -0.9592 -0.9013
   21MOL0     C 2682  11.393  12.012   8.394 -0.2929  0.2459 -0.5832
   21MOL0     C 2683  11.484  11.909   8.457 -0.6911 -0.2114  0.0125
   21MOL0    Cl 2684  11.566  11.964   8.597 -0.6962 -0.1960  0.4593
   21MOL0     C 2685  10.585  11.839   7.889  0.0736 -0.5809  0.7057
   21MOL0     C 2686  10.488  11.813   7.785 -0.4252  0.5151 -0.2609
   21MOL0     O 2687  10.343  12.020   7.548 -0.1813  0.3965  0.2052
   21MOL0     C 2688  10.123  11.956   7.390  0.2822 -0.6315  0.9011
   21MOL0     C 2689  10.023  11.913   7.296  0.4922 -0.6149 -1.6047
   21MOL0     N 2690   9.693  11.225   7.179 -0.3642  0.1029 -0.5808
   21MOL0     N 2691   9.650  11.140   7.262 -0.4193 -1.0020 -0.8294
   21MOL0     C 2692   9.382  10.720   8.072  0.1835  0.7726 -0.8233
   21MOL0     C 2693   9.411  10.589   8.133  0.6569 -0.7981  0.0257
   21MOL0     C 2694   9.460  10.188   8.307 -0.1551 -0.5824  0.2152
   21MOL0     C 2695   9.397  10.167   8.431  0.2096  0.3990 -0.1918
   21MOL0     C 2696   9.409  10.046   8.502  0.6367 -1.3180 -0.5270
   21MOL0     C 2697   9.490   9.948   8.454 -0.0492  0.8655 -0.2562
   21MOL0     O 2698   9.477   9.830   8.524  0.9333 -0.1270 -0.1599
   21MOL0     C 2699   9.593   9.744   8.514  0.4924 -0.3482 -0.1860
   21MOL0     C 2700   9.579   9.652   8.639 -0.1957  0.1202 -0.6265
   21MOL0     C 2701   9.690   9.545   8.636  0.7194 -0.3119  0.0777
   21MOL0     C 2702   9.701   9.478   8.771  0.4999 -0.4889  0.9228
   21MOL0     C 2703   9.820   9.401   8.767 -0.6851 -0.0317 -0.4360
   21MOL0     C 2704   9.936   9.351   8.765 -0.1136  0.1867  0.6154
   21MOL0     C 2705   9.568   9.968   8.336 -0.5216 -0.4157 -0.0578
   21MOL0     C 2706   9.558  10.087   8.266 -0.6866  0.1605  0.4128
   21MOL0     H 2707   9.167  10.573   8.375 -0.6652  2.3975  0.3938
   21MOL0     H 2708   9.103  10.768   8.258  0.0355  3.4226 -1.7617
   21MOL0     H 2709   9.240  11.086   7.981  2.2354  0.5601 -0.0266
   21MOL0     H 2710   9.306  10.961   7.897 -1.5946 -2.5304  0.0371
   21MOL0     H 2711   9.481  10.963   8.105  0.3373 -2.1883 -3.3396
   21MOL0     H 2712   9.390  11.092   8.174 -2.0046 -1.0332 -0.8919
   21MOL0     H 2713   9.585  11.179   8.051 -2.3696  1.2854  3.5788
   21MOL0     H 2714   9.438  11.245   7.999 -0.9014 -0.7945 -0.1998
   21MOL0     H 2715   9.493  11.005   7.838 -1.4014  1.6062 -3.2679
   21MOL0     H 2716   9.502  11.177   7.782 -2.7692 -0.9156  1.4337
   21MOL0     H 2717   9.736  11.026   7.920  0.8021 -1.2289 -2.1768
   21MOL0     H 2718   9.747  11.177   7.825  2.5070 -0.3394  0.9505
   21MOL0     H 2719   9.663  10.919   7.709 -0.9831 -0.2540  1.8508
   21MOL0     H 2720   9.833  10.989   7.699  0.3116  3.6861 -2.6840
   21MOL0     H 2721   9.583  11.089   7.570 -0.5298  3.4452  2.0018
   21MOL0     H 2722   9.737  11.178   7.567 -0.2718 -0.2729  0.4191
   21MOL0     H 2723   9.664  10.934   7.421  0.7380 -0.5510 -0.2356
   21MOL0     H 2724   9.840  10.953   7.458  0.9484 -2.3713 -4.5390
   21MOL0     H 2725   9.976  11.164   7.326 -0.9643  1.8878  1.9285
   21MOL0     H 2726   9.897  11.299   6.997 -1.0642  1.3641 -0.0086
   21MOL0     H 2727  10.024  11.318   7.132 -1.1375 -1.0319  3.3067
   21MOL0     H 2728   9.792  11.509   7.070  0.7094  1.1118  0.2877
   21MOL0     H 2729   9.974  11.522   7.081 -1.2425  3.3086  1.3586
   21MOL0     H 2730   9.810  11.479   7.327  1.4006 -1.2800  0.4416
   21MOL0     H 2731   9.974  11.525   7.318  1.8181 -0.4453 -1.1507
   21MOL0     H 2732   9.830  11.725   7.347  0.8804  0.4085 -0.5040
   21MOL0     H 2733   9.733  11.697   7.204 -0.3057 -3.7602  0.2153
   21MOL0     H 2734  10.156  11.620   7.216  0.8905  2.0699 -2.3938
   21MOL0     H 2735  10.342  11.696   7.339  0.1841 -0.0630 -0.8186
   21MOL0     H 2736  10.679  11.872   7.518  1.3667  2.8799  0.3229
   21MOL0     H 2737  10.854  11.891   7.696 -0.6483 -0.3567 -1.8481
   21MOL0     H 2738  10.848  11.776   8.100  0.9325  0.9470 -0.0342
   21MOL0     H 2739  10.727  11.904   8.105 -0.4354  0.2349 -0.3577
   21MOL0     H 2740  10.919  12.014   8.201 -0.7669  1.5002 -1.1834
   21MOL0     H 2741  10.899  12.075   8.041  0.8417 -0.4848 -1.1110
   21MOL0     H 2742  11.076  11.924   7.957 -2.9758  0.3483 -0.3941
   21MOL0     H 2743  11.106  11.857   8.115 -0.7687 -0.2597  0.5745
   21MOL0     H 2744  11.253  12.049   8.044  0.7981 -3.1916  2.5601
   21MOL0     H 2745  11.115  12.149   8.057 -1.8550  1.8382  3.3019
   21MOL0     H 2746  11.112  12.078   8.307  0.0144  1.6389  1.0846
   21MOL0     H 2747  11.253  12.165   8.264 -0.6702 -1.1966  4.0326
   21MOL0     H 2748  11.333  11.900   8.215 -0.2914 -1.8705 -0.6582
   21MOL0     H 2749  11.215  11.882   8.351  1.8346 -1.6944  0.3705
   21MOL0     H 2750  11.455  12.088   8.346 -2.3152  0.5059 -2.9482
   21MOL0     H 2751  11.336  12.074   8.464 -1.6278 -2.1140  0.5547
   21MOL0     H 2752  11.566  11.880   8.390  0.9782  1.2006  1.3154
   21MOL0     H 2753  11.421  11.822   8.477 -1.0079  0.2119  0.9251
   21MOL0     H 2754  10.542  11.820   7.986 -1.9968 -0.7960 -0.1998
   21MOL0     H 2755  10.388  11.780   7.814 -0.1248  0.4481  0.7296
   21MOL0     H 2756  10.105  12.044   7.450 -2.3127 -0.9182  0.6531
   21MOL0     H 2757   9.928  11.961   7.275  0.7466  0.0011 -1.3554
   21MOL0     H 2758   9.439  10.766   7.992  1.6726  0.7759  0.2054
   21MOL0     H 2759   9.504  10.539   8.107  2.8032  0.3206  4.5099
   21MOL0     H 2760   9.335  10.250   8.464  2.1308  1.3760  1.2224
   21MOL0     H 2761   9.347  10.016   8.587 -1.2169  0.2442 -1.2392
   21MOL0     H 2762   9.683   9.805   8.527  0.7934 -0.5749 -1.1193
   21MOL0     H 2763   9.601   9.681   8.426  0.0845 -1.1812  0.3621
   21MOL0     H 2764   9.575   9.707   8.734  2.1640  0.1388 -0.4870
   21MOL0     H 2765   9.485   9.597   8.647 -0.3831  0.4295 -0.6840
   21MOL0     H 2766   9.784   9.593   8.607  0.9884 -0.9760 -0.1649
   21MOL0     H 2767   9.665   9.469   8.562  0.7167 -1.0616  0.8334
   21MOL0     H 2768   9.722   9.556   8.845 -0.1976  0.6807 -0.0830
   21MOL0     H 2769   9.610   9.424   8.799  1.7684 -1.5402  3.3670
   21MOL0     H 2770  10.037   9.318   8.775 -0.8533 -3.0662 -1.1797
   21MOL0     H 2771   9.646   9.901   8.302  1.2787  1.0124  1.0718
   21MOL0     H 2772   9.635  10.110   8.193  0.2864  0.2148  1.4324
   22MOL0     O 2773   5.834   4.743   4.402 -0.2541  0.9166 -0.2367
   22MOL0     C 2774   5.925   4.660   4.400  1.1455 -0.0642 -0.0813
   22MOL0     O 2775   5.964   4.591   4.290 -0.1341 -0.7251  0.6671
   22MOL0     C 2776   5.879   4.577   4.180 -0.1610  0.1036 -0.2983
   22MOL0     C 2777   5.751   4.520   4.184 -1.1594  0.7076  0.0235
   22MOL0     C 2778   5.688   4.484   4.063  0.7988 -0.2278  0.6123
   22MOL0     C 2779   5.747   4.515   3.938 -1.2397 -0.4959 -0.3161
   22MOL0     O 2780   5.667   4.478   3.831 -0.2566  0.8590  0.0719
   22MOL0     C 2781   5.728   4.475   3.707 -0.2803  0.3477 -0.1691
   22MOL0     C 2782   5.659   4.394   3.586  0.3931 -0.6466 -0.9167
   22MOL0     C 2783   5.691   4.238   3.586 -0.1819  0.0075  0.7841
   22MOL0     C 2784   5.600   4.158   3.686 -1.2453  0.9481 -0.5037
   22MOL0     C 2785   5.672   4.053   3.774 -0.7310 -0.7018  0.2384
   22MOL0     C 2786   5.776   4.118   3.867  0.2301  0.5469 -0.3970
   22MOL0     C 2787   5.777   4.053   4.007 -0.1135  0.0589 -1.0413
   22MOL0     C 2788   5.826   4.141   4.123 -0.5051 -0.1673 -0.8766
   22MOL0     N 2789   5.967   4.179   4.081 -0.0207  0.5205  0.1924
   22MOL0     C 2790   6.015   4.282   4.004 -0.4096  0.2931  0.0493
   22MOL0     C 2791   6.150   4.271   4.010  1.0527  0.0760 -1.1843
   22MOL0     C 2792   6.240   4.367   3.937 -0.2421  0.4575 -0.3296
   22MOL0     C 2793   6.249   4.488   4.033  0.0511  0.1201 -0.7177
   22MOL0     C 2794   6.340   4.457   4.162  0.0469  1.3685  0.9932
   22MOL0     C 2795   6.423   4.579   4.213 -0.5382  0.1572  0.7627
   22MOL0     O 2796   6.539   4.595   4.130 -0.6338 -0.1945 -0.1343
   22MOL0     C 2797   6.651   4.595   4.216 -0.1525 -0.7087 -1.1895
   22MOL0     C 2798   6.696   4.496   4.309  0.4007  0.4081  0.5448
   22MOL0     C 2799   6.809   4.517   4.393  0.0632 -1.1841  0.6447
   22MOL0     C 2800   6.890   4.633   4.387  0.0856 -0.3479  0.5689
   22MOL0     C 2801   7.006   4.659   4.484 -0.4758 -0.3583  0.3059
   22MOL0     O 2802   7.046   4.551   4.561 -0.1749  0.2799 -0.6276
   22MOL0     C 2803   7.161   4.567   4.639 -1.3174  0.2527  1.1385
   22MOL0     C 2804   7.289   4.598   4.588  0.0788  0.2126  0.3650
   22MOL0     C 2805   7.404   4.599   4.675  0.3465  0.3294  0.8345
   22MOL0     C 2806   7.389   4.578   4.810  0.1832 -0.9282 -0.3393
   22MOL0     O 2807   7.508   4.574   4.874 -0.6749 -0.0531 -0.4088
   22MOL0     C 2808   7.501   4.603   5.015 -0.2064  0.1917 -0.3718
   22MOL0     C 2809   7.632   4.679   5.038 -0.2060  0.4200 -1.2634
   22MOL0     C 2810   7.619   4.833   5.040 -0.1921  0.4379  0.5603
   22MOL0     C 2811   7.752   4.892   5.087 -0.5225 -0.0941 -0.3618
   22MOL0     C 2812   7.740   5.042   5.104 -0.1728  0.0060  0.5749
   22MOL0     C 2813   7.700   5.113   4.971 -0.0827 -0.8336 -0.6899
   22MOL0     C 2814   7.726   5.270   4.964  0.0673 -0.1888  0.2669
   22MOL0     C 2815   7.680   5.329   4.842  0.2871  0.1524  0.3604
   22MOL0    Cl 2816   7.492   5.348   4.851 -0.1824 -0.2586  0.0275
   22MOL0     C 2817   7.264   4.540   4.863 -0.3596  0.8143 -0.6050
   22MOL0     C 2818   7.158   4.533   4.774  0.8883 -0.1986 -0.1997
   22MOL0     O 2819   7.068   4.772   4.485  0.5244  0.1392  0.0736
   22MOL0     C 2820   6.849   4.723   4.293 -0.4280  0.6169 -0.4847
   22MOL0     C 2821   6.739   4.701   4.216 -0.5468 -0.2608  0.3349
   22MOL0     N 2822   6.173   4.153   4.079  0.1711  0.0808 -0.1387
   22MOL0     N 2823   6.069   4.108   4.124  0.0199 -0.0832 -0.0941
   22MOL0     C 2824   5.873   4.587   3.933 -0.5855  0.6340  0.4034
   22MOL0     C 2825   5.918   4.623   4.060  0.3882  0.2534  0.7046
   22MOL0     C 2826   6.007   4.634   4.522 -0.5379  0.2196 -0.3706
   22MOL0     C 2827   6.136   4.590   4.511 -0.0846 -0.0663 -0.0983
   22MOL0     C 2828   6.226   4.583   4.619  0.0630  0.0593  0.3590
   22MOL0     C 2829   6.183   4.606   4.749  1.4570  0.2311  0.0165
   22MOL0     O 2830   6.264   4.606   4.873  0.5165  0.0861 -0.8718
   22MOL0     C 2831   6.373   4.523   4.870 -0.4063  0.3141  1.2517
   22MOL0     C 2832   6.489   4.612   4.832 -1.1559 -0.1562 -0.0474
   22MOL0     C 2833   6.611   4.532   4.763  0.0897  0.0013 -0.3253
   22MOL0     C 2834   6.737   4.622   4.759 -0.3861  0.1568 -0.4003
   22MOL0     C 2835   6.792   4.647   4.895  0.2098 -0.2152  0.1677
   22MOL0     C 2836   6.829   4.671   5.007  0.3207 -0.2302  0.1439
   22MOL0     C 2837   6.050   4.647   4.764 -0.5321  0.2299  1.0025
   22MOL0     C 2838   5.969   4.666   4.653 -0.4832  0.0650  0.0644
   22MOL0     H 2839   5.701   4.479   4.271 -2.4416  0.4996 -0.7792
   22MOL0     H 2840   5.604   4.415   4.065  0.8189 -0.2654  3.5054
   22MOL0     H 2841   5.825   4.427   3.723 -2.2299 -4.2792 -0.6443
   22MOL0     H 2842   5.743   4.580   3.683  1.8653  0.9312  3.0309
   22MOL0     H 2843   5.693   4.437   3.492 -2.2201  1.5117 -0.9762
   22MOL0     H 2844   5.554   4.424   3.586 -0.1192 -2.3177 -2.2173
   22MOL0     H 2845   5.796   4.225   3.613  0.2613 -2.8878 -1.8191
   22MOL0     H 2846   5.680   4.204   3.483 -0.4729 -2.6797  1.6284
   22MOL0     H 2847   5.552   4.231   3.752 -1.7565 -0.5182  0.8082
   22MOL0     H 2848   5.518   4.112   3.631  0.2836 -2.5024 -0.1517
   22MOL0     H 2849   5.733   3.974   3.728 -1.1539  0.2725 -2.1795
   22MOL0     H 2850   5.596   3.996   3.829  1.1505 -3.3718  0.2887
   22MOL0     H 2851   5.744   4.223   3.867 -3.9340 -0.5540 -2.1159
   22MOL0     H 2852   5.879   4.111   3.832  2.5635 -1.5831  5.5038
   22MOL0     H 2853   5.674   4.036   4.040  0.6223 -1.2526  0.7236
   22MOL0     H 2854   5.831   3.958   4.003 -1.0455 -0.7078  1.7137
   22MOL0     H 2855   5.827   4.089   4.219  0.9989 -0.4833 -1.0432
   22MOL0     H 2856   5.753   4.221   4.139  0.5990  0.4450  1.6574
   22MOL0     H 2857   5.962   4.370   3.969  0.2549  1.1320  1.0962
   22MOL0     H 2858   6.188   4.382   3.842 -0.6000 -0.1679 -0.2391
   22MOL0     H 2859   6.340   4.325   3.922 -0.2513 -0.4539  1.7784
   22MOL0     H 2860   6.150   4.508   4.074  0.3308  1.1609 -0.5274
   22MOL0     H 2861   6.275   4.581   3.982 -2.3995  1.5769  0.5223
   22MOL0     H 2862   6.266   4.430   4.238 -1.7585 -0.5038 -1.2664
   22MOL0     H 2863   6.408   4.373   4.141  0.2734  1.8097 -0.1177
   22MOL0     H 2864   6.447   4.572   4.319  1.2447 -0.7880  0.3284
   22MOL0     H 2865   6.350   4.661   4.215 -1.2556 -0.3806  4.7949
   22MOL0     H 2866   6.645   4.401   4.310 -0.2875  0.7655  2.1501
   22MOL0     H 2867   6.850   4.436   4.452  2.1688  1.8495  3.7259
   22MOL0     H 2868   7.296   4.625   4.483 -1.9695 -1.3896 -0.2435
   22MOL0     H 2869   7.497   4.608   4.620  1.2738  1.5456  2.5060
   22MOL0     H 2870   7.518   4.509   5.069 -1.1249 -1.3583 -2.6476
   22MOL0     H 2871   7.419   4.663   5.056 -0.5855 -0.5943  0.0474
   22MOL0     H 2872   7.704   4.652   4.960  2.3705  1.5712  0.5703
   22MOL0     H 2873   7.669   4.649   5.136 -2.3376  4.0683  0.8588
   22MOL0     H 2874   7.534   4.857   5.104 -2.4488 -2.3490 -1.1906
   22MOL0     H 2875   7.595   4.864   4.938 -2.7718 -4.8099 -0.7939
   22MOL0     H 2876   7.784   4.860   5.186  2.4696  0.9633 -0.8796
   22MOL0     H 2877   7.833   4.865   5.019  0.0877  0.9608 -0.0816
   22MOL0     H 2878   7.838   5.084   5.132  1.0778 -0.4179 -2.7450
   22MOL0     H 2879   7.671   5.061   5.187  0.5358  0.2399  1.1239
   22MOL0     H 2880   7.598   5.087   4.940 -1.1364  1.8772  0.2018
   22MOL0     H 2881   7.754   5.070   4.886 -1.4238 -0.8664 -1.5490
   22MOL0     H 2882   7.682   5.310   5.057 -0.0796 -1.9080  0.9816
   22MOL0     H 2883   7.833   5.288   4.967 -0.2452  1.7783  1.6604
   22MOL0     H 2884   7.714   5.281   4.750  1.8334 -1.9872  1.9353
   22MOL0     H 2885   7.725   5.428   4.831 -2.8369  1.5326 -1.2950
   22MOL0     H 2886   7.254   4.518   4.968 -0.1644 -0.6286 -0.8703
   22MOL0     H 2887   7.067   4.491   4.817  1.8366 -0.3207  1.8211
   22MOL0     H 2888   6.907   4.812   4.312  2.8076 -1.7702  2.1824
   22MOL0     H 2889   6.714   4.781   4.147  2.8517  0.7248  0.0947
   22MOL0     H 2890   5.910   4.624   3.838  2.4137 -1.1517  0.7537
   22MOL0     H 2891   6.007   4.686   4.056 -1.3304  2.7841 -2.6602
   22MOL0     H 2892   6.187   4.555   4.422  0.6672 -1.8905  0.9862
   22MOL0     H 2893   6.330   4.560   4.601 -0.1030 -0.8072  0.4567
   22MOL0     H 2894   6.354   4.445   4.795 -1.9897  2.1156 -0.3611
   22MOL0     H 2895   6.405   4.488   4.969  3.6728  4.5874  1.7692
   22MOL0     H 2896   6.471   4.703   4.774 -0.0323  1.9888  2.7206
   22MOL0     H 2897   6.529   4.665   4.919 -1.1297  1.0927 -0.7990
   22MOL0     H 2898   6.577   4.509   4.662  0.6743  0.5696 -0.6611
   22MOL0     H 2899   6.632   4.431   4.799 -3.0309 -1.1651 -1.4083
   22MOL0     H 2900   6.797   4.566   4.687 -2.9456  0.1481 -2.6966
   22MOL0     H 2901   6.723   4.716   4.706 -0.5769  0.6027  0.4141
   22MOL0     H 2902   6.867   4.698   5.104  2.1265 -0.9204 -0.3250
   22MOL0     H 2903   6.014   4.661   4.866 -0.3694 -1.4781  1.3251
   22MOL0     H 2904   5.870   4.694   4.685 -0.5183 -0.3341  0.3091
   23MOL0     O 2905   1.704   1.805   2.982 -0.1396 -0.8068 -0.2483
   23MOL0     C 2906   1.810   1.750   2.978  0.0102 -1.3542  0.1538
   23MOL0     O 2907   1.823   1.617   2.949 -0.6560 -0.4683 -0.0197
   23MOL0     C 2908   1.721   1.534   2.931 -0.6492  0.2180 -0.0126
   23MOL0     C 2909   1.664   1.508   2.805  0.0502  0.1741 -0.5691
   23MOL0     C 2910   1.574   1.399   2.789  0.0806  1.2042 -0.7541
   23MOL0     C 2911   1.535   1.311   2.901 -0.2318 -0.1426  1.1018
   23MOL0     O 2912   1.482   1.182   2.876 -0.4727  0.2300  0.1617
   23MOL0     C 2913   1.568   1.100   2.805  0.5037 -0.7039  0.4248
   23MOL0     C 2914   1.487   0.979   2.762 -0.6377 -0.3874  1.3285
   23MOL0     C 2915   1.563   0.913   2.636 -0.3876 -0.4574  0.1173
   23MOL0     C 2916   1.482   0.789   2.614  0.4074  0.0872 -0.2086
   23MOL0     C 2917   1.536   0.697   2.504  0.3452  0.3028 -0.2864
   23MOL0     C 2918   1.439   0.582   2.487 -0.0724  0.2104 -0.1362
   23MOL0     C 2919   1.449   0.500   2.358 -0.3226  1.3068  0.9794
   23MOL0     C 2920   1.420   0.353   2.363 -0.5577 -0.2703  0.0549
   23MOL0     N 2921   1.506   0.300   2.472  0.3005  0.6138  0.3241
   23MOL0     C 2922   1.476   0.196   2.552 -0.2873  0.3828 -0.3731
   23MOL0     C 2923   1.584   0.141   2.605 -0.1737  0.0688 -0.2843
   23MOL0     C 2924   1.591   0.041   2.721 -0.5366  0.0341  0.4644
   23MOL0     C 2925   1.713  -0.055   2.707  1.3251 -0.1200  0.1053
   23MOL0     C 2926   1.750  -0.133   2.834  0.8163 -0.2287 -0.2596
   23MOL0     C 2927   1.638  -0.217   2.884 -0.8507 -0.1608  0.0136
   23MOL0     O 2928   1.559  -0.151   2.976  0.0494  0.5104 -0.4306
   23MOL0     C 2929   1.583  -0.163   3.114  0.2774  0.7201  0.4079
   23MOL0     C 2930   1.603  -0.049   3.191 -1.3718  0.0358 -0.3359
   23MOL0     C 2931   1.646  -0.053   3.327  0.3474 -0.2070 -0.7752
   23MOL0     C 2932   1.672  -0.178   3.386 -0.0195 -0.1340  0.2402
   23MOL0     C 2933   1.748  -0.191   3.503 -1.2335  1.3109 -0.0264
   23MOL0     O 2934   1.771  -0.314   3.564 -0.1985  0.2007 -0.0298
   23MOL0     C 2935   1.873  -0.318   3.656 -0.0154 -0.7323 -0.1411
   23MOL0     C 2936   1.850  -0.322   3.793  0.7876  0.6040  0.1002
   23MOL0     C 2937   1.960  -0.313   3.883  0.2006 -0.3998 -0.2246
   23MOL0     C 2938   2.091  -0.309   3.847  1.2484 -0.6676  0.2419
   23MOL0     O 2939   2.194  -0.292   3.940 -0.8135 -0.6167 -0.2904
   23MOL0     C 2940   2.257  -0.159   3.941  0.0335 -0.7672  0.7868
   23MOL0     C 2941   2.408  -0.168   3.913 -0.5772 -0.0642 -0.5239
   23MOL0     C 2942   2.464  -0.028   3.905 -1.2679 -1.5034 -0.3095
   23MOL0     C 2943   2.616  -0.046   3.879 -1.0630  0.3672  0.0036
   23MOL0     C 2944   2.662   0.087   3.835 -0.0209 -0.8429 -0.0648
   23MOL0     C 2945   2.804   0.083   3.775 -0.8148  0.0542 -0.2051
   23MOL0     C 2946   2.916  -0.004   3.850  0.0867 -0.3359  0.4352
   23MOL0     C 2947   3.003   0.070   3.947 -0.4802 -0.2521  0.1947
   23MOL0    Cl 2948   2.894   0.113   4.083 -0.3342  0.5281 -0.3232
   23MOL0     C 2949   2.115  -0.303   3.715 -0.1008 -0.6786  0.4552
   23MOL0     C 2950   2.009  -0.309   3.617  0.4668  0.8030  0.2149
   23MOL0     O 2951   1.797  -0.088   3.545  0.7192 -0.1797  0.4786
   23MOL0     C 2952   1.642  -0.295   3.309 -0.5275 -0.0222  0.4487
   23MOL0     C 2953   1.598  -0.289   3.180  0.3759  0.3156  0.3499
   23MOL0     N 2954   1.688   0.188   2.529  0.2776 -0.5814  1.0661
   23MOL0     N 2955   1.644   0.275   2.445  1.2985 -0.4171  0.1353
   23MOL0     C 2956   1.605   1.335   3.022 -0.5971 -0.2452  0.5655
   23MOL0     C 2957   1.700   1.449   3.040 -0.0297  0.8774 -0.1491
   23MOL0     C 2958   1.940   1.818   3.036 -0.3347 -0.4208 -0.7269
   23MOL0     C 2959   2.060   1.754   3.047  0.1208 -0.0269 -0.2682
   23MOL0     C 2960   2.169   1.817   3.101 -0.5065  0.1793  0.0382
   23MOL0     C 2961   2.158   1.942   3.162  0.1803  0.1923 -0.5357
   23MOL0     O 2962   2.277   1.995   3.210 -0.0866  0.5681  0.0697
   23MOL0     C 2963   2.283   2.123   3.273 -0.4719  0.0634 -0.4893
   23MOL0     C 2964   2.429   2.148   3.323 -0.3218 -0.8884 -0.3762
   23MOL0     C 2965   2.462   2.063   3.453 -0.1055 -0.0303 -0.1592
   23MOL0     C 2966   2.617   2.086   3.488 -0.4336 -1.0527 -0.2131
   23MOL0     C 2967   2.647   2.226   3.486  1.2124  0.3025 -1.3815
   23MOL0     C 2968   2.659   2.352   3.490 -0.4308  1.7478 -0.3151
   23MOL0     C 2969   2.046   2.019   3.135  0.0840 -0.8114 -0.4754
   23MOL0     C 2970   1.933   1.959   3.071 -0.1781 -0.3002 -0.5781
   23MOL0     H 2971   1.680   1.578   2.723 -0.0176  0.4578 -0.3400
   23MOL0     H 2972   1.534   1.383   2.690  1.6607 -2.6564 -0.9262
   23MOL0     H 2973   1.654   1.060   2.860  1.6931  2.2634  0.8761
   23MOL0     H 2974   1.609   1.161   2.724 -2.5114 -1.6647 -2.0153
   23MOL0     H 2975   1.394   1.021   2.723 -0.4970 -2.9714 -2.2879
   23MOL0     H 2976   1.459   0.911   2.843  0.7615 -3.6946 -0.7570
   23MOL0     H 2977   1.666   0.882   2.656 -0.3446 -0.4771 -0.1401
   23MOL0     H 2978   1.565   0.976   2.547 -1.1314 -2.4087 -1.3309
   23MOL0     H 2979   1.467   0.721   2.698  3.8757 -1.6967 -0.8555
   23MOL0     H 2980   1.376   0.815   2.604  0.4081  1.3147  2.3409
   23MOL0     H 2981   1.637   0.661   2.526  0.3559  0.7041  0.3532
   23MOL0     H 2982   1.543   0.761   2.415  1.2890  3.4181  1.8699
   23MOL0     H 2983   1.337   0.620   2.499  0.8692  3.6580 -1.7235
   23MOL0     H 2984   1.450   0.530   2.583 -1.1429  2.0829  1.0666
   23MOL0     H 2985   1.371   0.538   2.291  0.1248 -1.2156 -1.1307
   23MOL0     H 2986   1.545   0.511   2.305 -1.4971 -0.1494 -1.6542
   23MOL0     H 2987   1.439   0.304   2.267 -1.0353 -1.8813  0.7626
   23MOL0     H 2988   1.315   0.348   2.394 -1.0206  2.8322 -0.6256
   23MOL0     H 2989   1.375   0.157   2.562 -0.4459  1.0990  1.0777
   23MOL0     H 2990   1.495  -0.004   2.748 -1.1878  1.3325  0.4088
   23MOL0     H 2991   1.609   0.113   2.801  2.0588  1.9619 -1.7021
   23MOL0     H 2992   1.800  -0.011   2.658  0.3529 -1.3556 -2.9574
   23MOL0     H 2993   1.670  -0.118   2.628  0.4289  0.5979 -0.0018
   23MOL0     H 2994   1.836  -0.197   2.815  1.0815  0.7113 -2.5970
   23MOL0     H 2995   1.777  -0.059   2.910  0.3461  3.4385 -3.3612
   23MOL0     H 2996   1.685  -0.308   2.922 -0.2536 -0.3682 -1.1605
   23MOL0     H 2997   1.568  -0.252   2.807 -0.9862  1.7959 -0.8132
   23MOL0     H 2998   1.584   0.051   3.152  1.6922  0.7639 -0.2038
   23MOL0     H 2999   1.669   0.035   3.387  2.9175 -0.7806 -0.8066
   23MOL0     H 3000   1.753  -0.337   3.839  1.2007  2.0007  1.5534
   23MOL0     H 3001   1.948  -0.323   3.991 -0.6335  0.6188 -0.2088
   23MOL0     H 3002   2.252  -0.117   4.042 -3.0245 -0.0921  0.4730
   23MOL0     H 3003   2.201  -0.087   3.879  0.2839  0.4523  1.9237
   23MOL0     H 3004   2.423  -0.214   3.815 -0.6300 -1.5176  0.1234
   23MOL0     H 3005   2.452  -0.229   3.993  0.2169  2.0976  0.7666
   23MOL0     H 3006   2.437   0.008   4.005 -2.0085 -2.6852 -0.0574
   23MOL0     H 3007   2.410   0.035   3.834  1.6882  0.9294 -0.5708
   23MOL0     H 3008   2.670  -0.090   3.963  1.9136 -0.1034 -2.0040
   23MOL0     H 3009   2.633  -0.123   3.803  3.8120  0.6718  0.4825
   23MOL0     H 3010   2.675   0.161   3.915 -0.3692  1.5237 -2.0448
   23MOL0     H 3011   2.590   0.129   3.763 -0.4238  1.2072  1.4435
   23MOL0     H 3012   2.852   0.178   3.751  1.4288 -1.3058 -1.5104
   23MOL0     H 3013   2.797   0.039   3.675  2.3292  3.3383 -2.1044
   23MOL0     H 3014   2.873  -0.088   3.905  0.4526  0.0380  1.3020
   23MOL0     H 3015   2.984  -0.029   3.768  0.0716  1.9503 -0.3721
   23MOL0     H 3016   3.052   0.159   3.905  0.6665 -1.0704 -0.2338
   23MOL0     H 3017   3.071  -0.010   3.977 -0.1825 -0.2391 -0.4401
   23MOL0     H 3018   2.215  -0.301   3.674 -0.7740 -2.0660 -1.4176
   23MOL0     H 3019   2.034  -0.293   3.513  0.3134  0.6770  0.1577
   23MOL0     H 3020   1.671  -0.393   3.345 -0.2765 -1.1123 -2.4463
   23MOL0     H 3021   1.580  -0.386   3.135  0.5740  0.3728  0.1491
   23MOL0     H 3022   1.588   1.257   3.095 -1.4081 -1.0224 -0.4185
   23MOL0     H 3023   1.757   1.461   3.131  1.0582 -1.5432 -0.4112
   23MOL0     H 3024   2.068   1.654   3.006 -1.3640  0.0231 -0.7400
   23MOL0     H 3025   2.260   1.758   3.099  0.0306  1.0161 -1.3203
   23MOL0     H 3026   2.206   2.135   3.350 -1.4125  0.4721 -1.4626
   23MOL0     H 3027   2.249   2.191   3.194 -4.8015 -0.8689  0.3207
   23MOL0     H 3028   2.502   2.142   3.241  2.4322 -1.1792  1.9045
   23MOL0     H 3029   2.430   2.255   3.341 -2.5938 -1.1513  1.8615
   23MOL0     H 3030   2.427   1.959   3.448  0.0991 -0.0853 -0.4272
   23MOL0     H 3031   2.408   2.113   3.534 -1.1921  0.2691 -1.0366
   23MOL0     H 3032   2.631   2.055   3.592 -2.5689 -3.8565 -0.6398
   23MOL0     H 3033   2.692   2.039   3.425 -0.5008  2.2499 -3.0564
   23MOL0     H 3034   2.698   2.451   3.474  0.8523  1.7141  2.0986
   23MOL0     H 3035   2.039   2.125   3.157 -0.4281 -0.7333 -0.9754
   23MOL0     H 3036   1.840   2.009   3.046 -1.1656 -0.8269  1.7878
   24MOL0     O 3037   9.513  11.407   8.325  0.0704 -0.7827 -0.4161
   24MOL0     C 3038   9.588  11.337   8.392 -0.3050  1.1752  0.6221
   24MOL0     O 3039   9.560  11.300   8.522 -0.0958 -0.2368  0.2000
   24MOL0     C 3040   9.432  11.325   8.565 -1.1393 -0.0531 -0.5936
   24MOL0     C 3041   9.409  11.451   8.627  0.4973  0.2232  0.2066
   24MOL0     C 3042   9.275  11.484   8.670 -0.2241  0.0824  0.4152
   24MOL0     C 3043   9.172  11.388   8.651  0.4250  0.4607  0.7629
   24MOL0     O 3044   9.048  11.426   8.687 -0.0015 -0.3245  0.1027
   24MOL0     C 3045   8.970  11.338   8.766  0.1853  0.4689 -0.4180
   24MOL0     C 3046   9.019  11.336   8.907 -0.6387 -0.8009  0.5623
   24MOL0     C 3047   9.043  11.476   8.964  0.5587  0.7285 -0.1190
   24MOL0     C 3048   9.115  11.477   9.097 -0.2291  0.0203 -0.7996
   24MOL0     C 3049   9.099  11.604   9.168 -0.1284  0.0814 -0.5377
   24MOL0     C 3050   9.185  11.607   9.303  0.3143  0.0966 -0.3167
   24MOL0     C 3051   9.170  11.726   9.392 -0.4742 -1.4157  0.4850
   24MOL0     C 3052   9.238  11.852   9.328 -0.2280 -0.6220  0.1104
   24MOL0     N 3053   9.194  11.968   9.406  1.5419  0.6120  0.0721
   24MOL0     C 3054   9.242  11.994   9.535 -0.3187 -0.0557  0.3676
   24MOL0     C 3055   9.159  12.085   9.580  0.0471  1.7374 -0.1695
   24MOL0     C 3056   9.185  12.172   9.694 -0.1383 -0.4069  0.5994
   24MOL0     C 3057   9.155  12.110   9.837  0.4098  0.2986 -0.3159
   24MOL0     C 3058   9.158  12.205   9.959  0.2691  0.9295  0.7770
   24MOL0     C 3059   9.083  12.332   9.942  0.9878 -0.2041  0.1172
   24MOL0     O 3060   9.063  12.402  10.063 -0.1566  0.5436 -0.2962
   24MOL0     C 3061   9.006  12.355  10.175  0.0864  0.1158 -0.2382
   24MOL0     C 3062   9.028  12.416  10.306 -0.9603  0.1230  2.2523
   24MOL0     C 3063   8.959  12.367  10.418  0.5969 -0.4731 -0.4689
   24MOL0     C 3064   8.860  12.263  10.400 -0.3845  0.0295  0.0456
   24MOL0     C 3065   8.783  12.202  10.518 -0.3435  0.6197  0.3369
   24MOL0     O 3066   8.847  12.231  10.641  0.8149 -0.5130 -0.1684
   24MOL0     C 3067   8.799  12.201  10.767  0.1247  0.6153 -0.4430
   24MOL0     C 3068   8.685  12.128  10.803  0.5138 -1.3116 -0.6584
   24MOL0     C 3069   8.673  12.104  10.946  0.0929 -0.1824  0.9303
   24MOL0     C 3070   8.738  12.168  11.042 -0.3939 -0.1988 -0.0743
   24MOL0     O 3071   8.686  12.158  11.167  0.2610  0.1242  0.8071
   24MOL0     C 3072   8.773  12.191  11.276  0.0668  0.7637  0.5531
   24MOL0     C 3073   8.767  12.340  11.319  0.3986  0.7664  0.5267
   24MOL0     C 3074   8.730  12.366  11.471 -0.2226  0.4608 -0.7076
   24MOL0     C 3075   8.582  12.347  11.510 -0.4194 -0.0820 -0.4396
   24MOL0     C 3076   8.564  12.409  11.643 -0.1193  0.1699 -0.5875
   24MOL0     C 3077   8.422  12.465  11.667  0.1129 -0.1739  0.6540
   24MOL0     C 3078   8.313  12.359  11.635  0.4204 -0.4860 -0.1971
   24MOL0     C 3079   8.179  12.430  11.644  0.2046 -0.2719  0.8184
   24MOL0    Cl 3080   8.121  12.463  11.801  0.6547 -0.1780  0.3364
   24MOL0     C 3081   8.847  12.253  10.995  0.9737 -0.6004 -0.5282
   24MOL0     C 3082   8.877  12.260  10.864 -0.5713 -0.9344  0.1894
   24MOL0     O 3083   8.685  12.127  10.500  0.0653  0.4345  0.1191
   24MOL0     C 3084   8.852  12.205  10.276  0.1239  0.6102 -0.1546
   24MOL0     C 3085   8.911  12.251  10.167  0.3190  0.2257  0.7554
   24MOL0     N 3086   9.064  12.106   9.489  0.1383 -0.0429  0.2154
   24MOL0     N 3087   9.069  12.031   9.390  0.8307  0.4252 -0.2043
   24MOL0     C 3088   9.190  11.264   8.585 -0.3739 -0.2683 -0.2782
   24MOL0     C 3089   9.321  11.242   8.535  0.0155  1.6237 -0.7884
   24MOL0     C 3090   9.723  11.291   8.334  1.2604 -0.4173  0.3666
   24MOL0     C 3091   9.740  11.328   8.196 -0.5152 -0.4623  0.1610
   24MOL0     C 3092   9.864  11.290   8.153  0.6264  0.3380  0.7836
   24MOL0     C 3093   9.969  11.231   8.230 -0.1385 -0.0454  0.1614
   24MOL0     O 3094  10.087  11.203   8.167 -0.1896 -0.7679 -0.2259
   24MOL0     C 3095  10.167  11.091   8.200 -0.6353 -0.1852  0.5492
   24MOL0     C 3096  10.188  11.015   8.068 -0.6391 -0.2522 -0.6811
   24MOL0     C 3097  10.057  10.942   8.020  0.5440  0.0886 -0.0427
   24MOL0     C 3098  10.023  10.819   8.101 -0.8988  0.7732 -0.1579
   24MOL0     C 3099   9.886  10.788   8.061  0.4530  0.1564 -0.1744
   24MOL0     C 3100   9.783  10.756   8.014  0.5294 -0.3609  0.8129
   24MOL0     C 3101   9.949  11.215   8.365 -0.5345  0.0113 -0.6698
   24MOL0     C 3102   9.821  11.239   8.415 -0.6229 -0.2402 -0.4428
   24MOL0     H 3103   9.491  11.509   8.666  0.2982  0.3274  0.4705
   24MOL0     H 3104   9.250  11.576   8.722  0.1569  0.9968 -0.9690
   24MOL0     H 3105   8.974  11.241   8.716 -1.9086 -1.2479  2.4202
   24MOL0     H 3106   8.868  11.378   8.774  0.1054 -0.1513  3.0687
   24MOL0     H 3107   9.114  11.282   8.906 -0.7426 -1.0778 -1.9779
   24MOL0     H 3108   8.936  11.301   8.968 -2.2185  1.2995 -0.2447
   24MOL0     H 3109   8.956  11.535   8.993  0.6362  0.3585  0.9019
   24MOL0     H 3110   9.110  11.536   8.902  2.6729  0.3983  1.7253
   24MOL0     H 3111   9.069  11.403   9.163 -1.0973  2.1487  1.1308
   24MOL0     H 3112   9.221  11.452   9.090 -0.5274 -0.9538 -2.4737
   24MOL0     H 3113   9.000  11.609   9.214 -0.1224  0.3391 -0.5477
   24MOL0     H 3114   9.120  11.691   9.105  2.9267 -1.2285 -1.5198
   24MOL0     H 3115   9.289  11.580   9.280 -0.5929 -1.6354 -2.7565
   24MOL0     H 3116   9.153  11.525   9.368 -1.0597  0.7645 -0.1165
   24MOL0     H 3117   9.064  11.745   9.409 -0.6392 -1.3577 -0.5526
   24MOL0     H 3118   9.212  11.709   9.492  1.4640  0.2602  0.0237
   24MOL0     H 3119   9.214  11.877   9.224 -0.8413  4.5881  1.2223
   24MOL0     H 3120   9.347  11.856   9.328 -0.1589  4.2867 -1.3503
   24MOL0     H 3121   9.334  11.961   9.583 -0.3543 -0.2529  0.3001
   24MOL0     H 3122   9.128  12.265   9.684 -0.4179 -0.4895  1.3823
   24MOL0     H 3123   9.291  12.200   9.699 -0.7653  2.2431  0.5548
   24MOL0     H 3124   9.227  12.029   9.849 -0.7768 -0.8243 -0.5943
   24MOL0     H 3125   9.066  12.047   9.831  1.2141 -0.7388 -4.0944
   24MOL0     H 3126   9.122  12.144  10.042 -0.2607  2.0936  1.4329
   24MOL0     H 3127   9.255  12.241   9.996  0.6596 -0.7096  1.4364
   24MOL0     H 3128   8.985  12.298   9.908  0.9701 -0.9714  0.9033
   24MOL0     H 3129   9.127  12.389   9.859 -0.7695  0.4573 -0.4058
   24MOL0     H 3130   9.104  12.492  10.322  1.9971 -1.5937 -1.8637
   24MOL0     H 3131   8.984  12.415  10.512 -1.8423  2.0485 -0.9731
   24MOL0     H 3132   8.620  12.083  10.729 -0.9450 -1.6425  0.7791
   24MOL0     H 3133   8.580  12.063  10.984 -1.1558  1.2407 -0.4547
   24MOL0     H 3134   8.874  12.154  11.255  0.0443 -0.7066  2.7275
   24MOL0     H 3135   8.733  12.125  11.353 -1.9152 -1.4379 -2.1667
   24MOL0     H 3136   8.692  12.382  11.251 -1.8686 -1.3574  1.5458
   24MOL0     H 3137   8.858  12.388  11.284  0.5240  0.5925  0.6128
   24MOL0     H 3138   8.780  12.461  11.492  2.1517  0.2073 -4.2391
   24MOL0     H 3139   8.780  12.301  11.544 -1.0842  0.9193  0.3187
   24MOL0     H 3140   8.538  12.409  11.431  0.2837  2.9656  1.4021
   24MOL0     H 3141   8.544  12.245  11.505 -1.5456  0.1689  1.9170
   24MOL0     H 3142   8.636  12.490  11.655 -1.2313  0.7563  4.4328
   24MOL0     H 3143   8.599  12.338  11.719  3.8142  1.8686 -0.6000
   24MOL0     H 3144   8.394  12.546  11.599 -2.8945 -1.2647  0.4463
   24MOL0     H 3145   8.415  12.502  11.770 -1.3328  1.2094  0.1024
   24MOL0     H 3146   8.323  12.328  11.530  0.3584  2.4082 -1.1362
   24MOL0     H 3147   8.327  12.273  11.701 -1.9144 -1.2737 -0.6318
   24MOL0     H 3148   8.110  12.359  11.596 -0.5681 -0.1878  1.7689
   24MOL0     H 3149   8.175  12.522  11.585 -0.4844  0.6808  2.2804
   24MOL0     H 3150   8.902  12.322  11.057 -1.7764  0.7684  0.5539
   24MOL0     H 3151   8.965  12.321  10.848 -0.4148 -0.9896  0.8443
   24MOL0     H 3152   8.785  12.123  10.252 -1.1632  0.8626  2.2057
   24MOL0     H 3153   8.900  12.196  10.074  0.0983 -1.2596  1.6339
   24MOL0     H 3154   9.106  11.200   8.558 -1.8950  1.9507 -1.0465
   24MOL0     H 3155   9.343  11.162   8.466  0.7805 -0.2271  1.4416
   24MOL0     H 3156   9.671  11.391   8.142 -0.4698  1.2251  1.9417
   24MOL0     H 3157   9.879  11.304   8.046  3.5553 -0.2091  1.0455
   24MOL0     H 3158  10.127  11.022   8.274 -0.5348 -1.2601 -0.3672
   24MOL0     H 3159  10.269  11.124   8.223 -0.1097 -1.1169 -0.3424
   24MOL0     H 3160  10.220  11.089   7.994  5.2255 -2.9936 -1.4556
   24MOL0     H 3161  10.266  10.943   8.094 -0.8732 -0.1893  0.2330
   24MOL0     H 3162  10.054  10.915   7.915  1.4967 -2.2614  0.4750
   24MOL0     H 3163   9.970  11.008   8.027 -0.2434 -0.6010 -2.4106
   24MOL0     H 3164  10.098  10.742   8.080  0.6135  1.5305  2.0917
   24MOL0     H 3165  10.017  10.825   8.210 -0.2242  0.3314 -0.0912
   24MOL0     H 3166   9.690  10.717   7.978  0.3590  0.4985  0.2878
   24MOL0     H 3167  10.032  11.175   8.422 -0.7496  1.9836  1.1962
   24MOL0     H 3168   9.808  11.218   8.521 -0.2384  0.9170 -0.1503
   25MOL0     O 3169  10.311   9.492   2.665 -0.4747  0.1585 -0.5681
   25MOL0     C 3170  10.246   9.422   2.593 -0.1806  0.5898 -0.0932
   25MOL0     O 3171  10.221   9.449   2.459  0.0555 -0.1703 -0.6245
   25MOL0     C 3172  10.310   9.540   2.403 -0.0082  1.0075 -0.3193
   25MOL0     C 3173  10.427   9.492   2.345 -0.3219  0.3631  0.6174
   25MOL0     C 3174  10.504   9.575   2.270  0.4185  0.3547  0.8404
   25MOL0     C 3175  10.460   9.703   2.243 -0.1492 -0.0101  0.2483
   25MOL0     O 3176  10.527   9.766   2.135  0.0335  1.1058  0.0789
   25MOL0     C 3177  10.522   9.913   2.135  0.0763 -0.1647 -0.1292
   25MOL0     C 3178  10.629   9.954   2.234  0.2066 -0.6291  0.9921
   25MOL0     C 3179  10.674  10.106   2.230  0.1189  0.1574  0.0318
   25MOL0     C 3180  10.771  10.137   2.116  0.3101 -0.9084  0.4958
   25MOL0     C 3181  10.901  10.120   2.171 -0.3771 -0.3854 -0.7866
   25MOL0     C 3182  11.003  10.159   2.057 -0.1977  0.0733 -0.6844
   25MOL0     C 3183  11.153  10.158   2.098  0.8883 -0.2875  0.0508
   25MOL0     C 3184  11.252  10.159   1.982  0.7063  0.0705  0.0265
   25MOL0     N 3185  11.249  10.277   1.898 -0.3047 -0.2364  0.3778
   25MOL0     C 3186  11.355  10.369   1.907  0.5478 -0.0321  0.5399
   25MOL0     C 3187  11.348  10.444   1.792 -0.8167  0.1164  0.3396
   25MOL0     C 3188  11.449  10.546   1.740  0.6687  0.2481 -0.1388
   25MOL0     C 3189  11.490  10.511   1.599  0.3206  0.5498  0.3740
   25MOL0     C 3190  11.538  10.356   1.574  0.5953  0.5110  0.4939
   25MOL0     C 3191  11.530  10.296   1.421  0.2111  0.6114 -0.4569
   25MOL0     O 3192  11.611  10.182   1.425  0.0049 -0.3388  0.2564
   25MOL0     C 3193  11.556  10.057   1.454 -0.1811 -0.8931 -0.7300
   25MOL0     C 3194  11.435  10.020   1.402  0.6865 -0.4443  0.0644
   25MOL0     C 3195  11.376   9.895   1.417  0.4867  0.9790 -0.8335
   25MOL0     C 3196  11.448   9.793   1.489  0.3211  0.4830  0.3788
   25MOL0     C 3197  11.391   9.653   1.496 -0.6384 -0.5755 -0.0322
   25MOL0     O 3198  11.301   9.624   1.405  0.7536  0.0189  0.1708
   25MOL0     C 3199  11.226   9.515   1.442 -0.8775 -0.1563 -0.5564
   25MOL0     C 3200  11.244   9.391   1.385  0.7671  0.2178 -0.4310
   25MOL0     C 3201  11.192   9.266   1.441  0.2064 -0.5623  0.0563
   25MOL0     C 3202  11.116   9.276   1.561 -0.3248  0.0451 -0.3150
   25MOL0     O 3203  11.078   9.169   1.639  0.3749  0.4159  0.6845
   25MOL0     C 3204  11.138   9.043   1.623  0.5973 -0.6566  0.0745
   25MOL0     C 3205  11.287   9.030   1.674  0.9575 -0.3252  0.1479
   25MOL0     C 3206  11.325   8.889   1.707  0.0336 -0.7350 -0.4062
   25MOL0     C 3207  11.467   8.877   1.743  0.0392 -0.1201 -0.1949
   25MOL0     C 3208  11.485   8.732   1.801  0.4743  0.5180 -0.3424
   25MOL0     C 3209  11.633   8.707   1.835 -0.1653  0.0309 -0.2929
   25MOL0     C 3210  11.730   8.751   1.722 -0.0845 -0.4465  0.5461
   25MOL0     C 3211  11.884   8.719   1.743  0.8374  0.9850  0.0248
   25MOL0    Cl 3212  11.979   8.844   1.663 -0.3768 -0.3270  0.3821
   25MOL0     C 3213  11.087   9.399   1.614  0.1998 -0.4165  0.2562
   25MOL0     C 3214  11.142   9.517   1.558 -0.3936 -1.0304 -1.1150
   25MOL0     O 3215  11.447   9.581   1.583  0.3551 -0.3507  0.1764
   25MOL0     C 3216  11.578   9.820   1.532  0.4455 -0.3733  0.0092
   25MOL0     C 3217  11.627   9.956   1.520  0.3852 -0.1931 -0.7794
   25MOL0     N 3218  11.239  10.401   1.717  0.0921 -0.1637 -0.0108
   25MOL0     N 3219  11.194  10.295   1.773  0.0872  0.0387  0.9870
   25MOL0     C 3220  10.348   9.759   2.312 -0.3886  0.4133  0.4044
   25MOL0     C 3221  10.278   9.672   2.397  0.4447 -0.2303 -0.0797
   25MOL0     C 3222  10.167   9.314   2.655  0.6485  0.3851 -0.1630
   25MOL0     C 3223  10.178   9.288   2.792  0.0756  0.6049 -0.4773
   25MOL0     C 3224  10.099   9.186   2.855 -0.1928 -0.8980 -0.7435
   25MOL0     C 3225  10.015   9.096   2.770  0.0509 -0.0845 -0.5936
   25MOL0     O 3226   9.937   8.999   2.818  0.5087 -0.2570  0.3641
   25MOL0     C 3227   9.833   9.014   2.915 -0.6060 -1.2355  0.7706
   25MOL0     C 3228   9.686   9.055   2.874  0.3557 -0.5706 -0.6739
   25MOL0     C 3229   9.620   8.932   2.807 -1.0205 -0.2431 -1.3534
   25MOL0     C 3230   9.659   8.905   2.670  0.1750 -0.0758  0.2269
   25MOL0     C 3231   9.568   8.957   2.566 -0.6475 -0.3962 -0.3313
   25MOL0     C 3232   9.495   9.016   2.477 -0.5006 -0.3636  0.7208
   25MOL0     C 3233  10.028   9.109   2.634 -0.6736 -0.3045 -0.0371
   25MOL0     C 3234  10.101   9.211   2.578  0.1903  0.0993  0.4658
   25MOL0     H 3235  10.449   9.386   2.350  1.6298  0.4915 -2.7122
   25MOL0     H 3236  10.581   9.530   2.209  0.6549  1.6704  0.1288
   25MOL0     H 3237  10.432   9.963   2.171 -1.1594 -2.3680  0.0495
   25MOL0     H 3238  10.553   9.945   2.036 -1.6329  0.4661 -0.4997
   25MOL0     H 3239  10.710   9.880   2.234 -0.0888 -0.9511  1.0905
   25MOL0     H 3240  10.584   9.930   2.331  2.6900 -0.4038  2.2863
   25MOL0     H 3241  10.723  10.117   2.328  2.4331 -1.1308 -0.8935
   25MOL0     H 3242  10.592  10.178   2.229  0.9349  1.1651  1.4343
   25MOL0     H 3243  10.756  10.074   2.028 -0.7196  0.7896 -0.6021
   25MOL0     H 3244  10.761  10.243   2.094 -2.6076 -0.7782  1.9257
   25MOL0     H 3245  10.912  10.015   2.199 -2.7442 -0.3676  0.5011
   25MOL0     H 3246  10.915  10.181   2.260  1.6952  1.0915 -2.0436
   25MOL0     H 3247  10.977  10.258   2.019  0.1488  1.5204  2.5314
   25MOL0     H 3248  11.000  10.088   1.974  0.1470  2.9854 -3.3762
   25MOL0     H 3249  11.167  10.248   2.160  0.3917  0.1165 -0.4128
   25MOL0     H 3250  11.173  10.068   2.157 -2.4715 -0.7247  0.7330
   25MOL0     H 3251  11.225  10.068   1.926  0.0382 -0.0078  0.4689
   25MOL0     H 3252  11.356  10.139   2.009  1.2333  0.3381 -1.6453
   25MOL0     H 3253  11.416  10.388   1.995  0.1229 -1.1607  1.1098
   25MOL0     H 3254  11.535  10.535   1.808 -1.8910 -2.3980  3.0011
   25MOL0     H 3255  11.413  10.649   1.747 -0.0955 -0.0780  1.3398
   25MOL0     H 3256  11.575  10.575   1.571  0.2835  0.9175  1.0789
   25MOL0     H 3257  11.405  10.529   1.533 -0.4577 -0.7611  0.9802
   25MOL0     H 3258  11.641  10.349   1.610  1.4641  1.2713 -1.6910
   25MOL0     H 3259  11.481  10.291   1.640  2.5967 -1.8653  0.0212
   25MOL0     H 3260  11.579  10.378   1.368  1.1185  0.9102  0.8068
   25MOL0     H 3261  11.428  10.272   1.387  0.4022 -3.2926  1.2193
   25MOL0     H 3262  11.380  10.079   1.331  2.2510 -3.3630 -3.9695
   25MOL0     H 3263  11.274   9.875   1.386  0.9745 -1.0585 -1.3158
   25MOL0     H 3264  11.305   9.385   1.296  0.4613  0.8619 -0.6909
   25MOL0     H 3265  11.217   9.169   1.400 -0.0603 -0.5381 -0.1650
   25MOL0     H 3266  11.133   9.014   1.518 -2.3217 -2.0438  0.4959
   25MOL0     H 3267  11.076   8.974   1.682  2.0058 -2.1002 -0.0687
   25MOL0     H 3268  11.282   9.085   1.769 -3.4519 -0.5457  0.2420
   25MOL0     H 3269  11.360   9.066   1.601  1.7415  2.0180  1.9413
   25MOL0     H 3270  11.321   8.825   1.618  0.6709 -2.8560  1.0028
   25MOL0     H 3271  11.267   8.861   1.796  0.4104 -1.1876 -0.2985
   25MOL0     H 3272  11.518   8.888   1.647 -0.7981 -0.9240 -0.7422
   25MOL0     H 3273  11.500   8.955   1.813 -0.4258 -0.9052  0.9263
   25MOL0     H 3274  11.444   8.664   1.725 -0.7097  0.2181  0.5351
   25MOL0     H 3275  11.427   8.717   1.892  1.6990 -0.1061  0.3571
   25MOL0     H 3276  11.656   8.603   1.860  0.3558  0.0830 -0.5486
   25MOL0     H 3277  11.661   8.757   1.928  0.0225 -0.4841 -0.0715
   25MOL0     H 3278  11.704   8.704   1.627 -2.0585  0.1513  0.7495
   25MOL0     H 3279  11.714   8.859   1.716  0.9014 -0.3281 -0.0348
   25MOL0     H 3280  11.885   8.614   1.710  1.9808  1.5245 -1.7912
   25MOL0     H 3281  11.917   8.737   1.846  0.0784  3.1479 -0.0736
   25MOL0     H 3282  11.024   9.412   1.701  0.8004  1.2892  0.4677
   25MOL0     H 3283  11.130   9.613   1.606  0.5764 -2.5259  2.4834
   25MOL0     H 3284  11.639   9.746   1.584  3.2383  2.1128  0.5571
   25MOL0     H 3285  11.732   9.971   1.540  0.2100  3.5800 -1.8531
   25MOL0     H 3286  10.311   9.859   2.292  0.6724  0.3479 -2.2781
   25MOL0     H 3287  10.192   9.711   2.449  1.3259 -1.2124  2.2412
   25MOL0     H 3288  10.230   9.352   2.863 -1.7386  2.5511 -0.8099
   25MOL0     H 3289  10.106   9.185   2.964  1.0480 -2.5599 -0.7990
   25MOL0     H 3290   9.865   9.101   2.971  0.6618  0.6259 -2.5373
   25MOL0     H 3291   9.835   8.925   2.978 -0.5908 -2.3947 -0.7967
   25MOL0     H 3292   9.621   9.078   2.959  1.5468 -1.3643  0.4827
   25MOL0     H 3293   9.697   9.144   2.810  2.9522 -0.3960 -0.1006
   25MOL0     H 3294   9.510   8.932   2.813 -0.9483 -0.9203  1.5321
   25MOL0     H 3295   9.640   8.842   2.865 -1.8316 -0.0830 -0.8097
   25MOL0     H 3296   9.760   8.940   2.644 -0.3194 -0.2228 -2.1795
   25MOL0     H 3297   9.661   8.796   2.669 -1.6393 -0.1497  1.0283
   25MOL0     H 3298   9.420   9.045   2.407 -2.7052  1.0772  3.4779
   25MOL0     H 3299   9.962   9.046   2.574 -0.0159 -0.7022 -0.3485
   25MOL0     H 3300  10.099   9.219   2.469  0.1435  1.1705  0.5327
   26MOL0     O 3301   3.851   7.479  10.023  0.1220 -0.5103 -0.5324
   26MOL0     C 3302   3.836   7.378   9.958  0.1722 -0.7421  0.2156
   26MOL0     O 3303   3.939   7.306   9.930 -0.3615  0.1527 -0.6946
   26MOL0     C 3304   4.054   7.343   9.999  0.4817 -0.4110 -0.3328
   26MOL0     C 3305   4.123   7.466   9.987  0.9842  1.1586 -0.7962
   26MOL0     C 3306   4.245   7.478  10.056 -0.5541 -0.6926  0.0758
   26MOL0     C 3307   4.292   7.387  10.144 -0.3581  0.1386  0.3387
   26MOL0     O 3308   4.407   7.414  10.222 -0.5203 -0.7667  0.8394
   26MOL0     C 3309   4.380   7.462  10.361 -0.1663  0.1202  0.2840
   26MOL0     C 3310   4.515   7.461  10.433  0.5039  0.2395  0.0533
   26MOL0     C 3311   4.506   7.526  10.574  0.5729 -0.0320 -0.0243
   26MOL0     C 3312   4.648   7.537  10.628  0.4203  0.5953 -0.3967
   26MOL0     C 3313   4.655   7.583  10.771  0.4442  0.1986 -0.0847
   26MOL0     C 3314   4.787   7.556  10.838  0.2874 -0.6927  0.1707
   26MOL0     C 3315   4.895   7.626  10.763  0.4555 -0.8770  0.7156
   26MOL0     C 3316   5.039   7.633  10.833  0.5892 -0.2148  0.7490
   26MOL0     N 3317   5.073   7.530  10.928  0.1209  0.1505  0.3239
   26MOL0     C 3318   5.083   7.527  11.064 -0.0976  0.5611 -0.4897
   26MOL0     C 3319   5.147   7.410  11.088 -0.3141  0.2193 -0.9491
   26MOL0     C 3320   5.225   7.360  11.216  0.6312 -1.3046  0.3710
   26MOL0     C 3321   5.301   7.481  11.270  0.4613  0.1220 -0.0846
   26MOL0     C 3322   5.427   7.507  11.179 -0.0002 -0.7543 -0.2255
   26MOL0     C 3323   5.481   7.646  11.215 -0.2932  0.6717  0.1956
   26MOL0     O 3324   5.412   7.743  11.131  0.6972  0.1149 -0.2917
   26MOL0     C 3325   5.347   7.844  11.209  0.3283  0.1254  0.1651
   26MOL0     C 3326   5.245   7.910  11.125 -1.2392  0.2105 -0.4131
   26MOL0     C 3327   5.185   8.027  11.182  0.2798  0.6412  0.1872
   26MOL0     C 3328   5.198   8.070  11.321 -0.4726 -0.6617 -0.0498
   26MOL0     C 3329   5.123   8.185  11.372 -0.3697 -0.2056 -0.2355
   26MOL0     O 3330   5.024   8.246  11.308  0.1738  0.2909  0.0152
   26MOL0     C 3331   4.941   8.328  11.382  0.1822  0.7294  0.6425
   26MOL0     C 3332   4.836   8.266  11.453  1.3435  0.3663  0.0052
   26MOL0     C 3333   4.740   8.340  11.517  0.3906  0.7138 -0.5955
   26MOL0     C 3334   4.745   8.480  11.512  0.3991 -0.5721  0.4093
   26MOL0     O 3335   4.650   8.552  11.576 -0.6211 -0.1315 -0.2297
   26MOL0     C 3336   4.581   8.670  11.520 -0.5513 -0.1753  0.3247
   26MOL0     C 3337   4.450   8.662  11.602 -0.1738 -0.1606  0.2865
   26MOL0     C 3338   4.375   8.799  11.591 -0.0692 -0.1993  0.2773
   26MOL0     C 3339   4.401   8.871  11.453 -0.1659 -0.1681  0.3127
   26MOL0     C 3340   4.299   8.987  11.440 -0.6958 -0.1849 -0.6965
   26MOL0     C 3341   4.161   8.932  11.409  0.1711  0.0423  0.0050
   26MOL0     C 3342   4.064   9.039  11.372  0.0352 -0.5448  0.3325
   26MOL0     C 3343   3.980   9.094  11.481 -0.6609  0.2128 -0.2742
   26MOL0    Cl 3344   3.886   9.228  11.408  0.6088  0.0035 -0.4292
   26MOL0     C 3345   4.841   8.544  11.440 -0.2333 -0.1167 -0.2719
   26MOL0     C 3346   4.943   8.462  11.371  0.4842 -0.1041  0.0591
   26MOL0     O 3347   5.152   8.202  11.491  0.2524 -1.1498 -0.1570
   26MOL0     C 3348   5.293   7.997  11.396 -1.4960  0.7999 -0.5172
   26MOL0     C 3349   5.374   7.898  11.334 -0.0802  0.6324 -0.2178
   26MOL0     N 3350   5.167   7.337  10.976  0.6983  0.2916  0.4239
   26MOL0     N 3351   5.119   7.409  10.882  0.0696 -0.4828  0.0903
   26MOL0     C 3352   4.233   7.261  10.146 -0.9695 -0.2380  0.0876
   26MOL0     C 3353   4.107   7.241  10.081  0.2651  0.0917 -0.1213
   26MOL0     C 3354   3.704   7.327   9.917  0.0744 -0.0470  0.2331
   26MOL0     C 3355   3.588   7.393   9.944 -0.2550 -1.4939  0.4952
   26MOL0     C 3356   3.473   7.346   9.880  0.3442  0.9390 -0.1444
   26MOL0     C 3357   3.473   7.226   9.807 -0.1121 -0.3342 -0.2517
   26MOL0     O 3358   3.350   7.189   9.749  0.4607 -0.4310 -0.2901
   26MOL0     C 3359   3.315   7.058   9.709 -0.8704 -0.5016 -0.0116
   26MOL0     C 3360   3.380   7.009   9.578 -0.4187  0.5659 -0.0558
   26MOL0     C 3361   3.357   6.865   9.540 -0.1256 -0.2810 -0.5078
   26MOL0     C 3362   3.221   6.817   9.491 -0.1096 -0.2685 -0.1065
   26MOL0     C 3363   3.206   6.862   9.358  0.3766  0.9817  0.1316
   26MOL0     C 3364   3.216   6.919   9.256 -0.0767  0.4266 -0.2530
   26MOL0     C 3365   3.588   7.151   9.791 -0.1237 -0.3745  0.0632
   26MOL0     C 3366   3.702   7.203   9.848 -1.4441 -0.1497  0.0115
   26MOL0     H 3367   4.076   7.541   9.924  0.1825  1.6028  0.2858
   26MOL0     H 3368   4.305   7.568  10.055 -0.0952 -0.9422  1.7672
   26MOL0     H 3369   4.313   7.387  10.403 -1.8885  1.2062 -0.4492
   26MOL0     H 3370   4.341   7.564  10.360  0.4468  0.3657  0.5790
   26MOL0     H 3371   4.590   7.520  10.379  0.8011  0.4941  0.7235
   26MOL0     H 3372   4.563   7.362  10.441  1.8146  0.7932 -0.5785
   26MOL0     H 3373   4.435   7.475  10.639 -0.7483 -0.6694 -1.8790
   26MOL0     H 3374   4.476   7.629  10.552 -2.0961 -0.5538  0.7660
   26MOL0     H 3375   4.690   7.436  10.625  1.2503  0.9519 -2.5501
   26MOL0     H 3376   4.711   7.598  10.562  3.8331  0.5677  2.5849
   26MOL0     H 3377   4.575   7.537  10.830  0.7760  1.3512  1.2913
   26MOL0     H 3378   4.626   7.688  10.762 -2.1989 -0.4482 -0.1078
   26MOL0     H 3379   4.823   7.453  10.838  6.1461  0.9758  1.6279
   26MOL0     H 3380   4.779   7.586  10.943 -1.9734 -0.5619  0.0027
   26MOL0     H 3381   4.903   7.565  10.672  0.3582  1.7833 -1.1704
   26MOL0     H 3382   4.873   7.731  10.741 -2.8971 -0.8965  3.1930
   26MOL0     H 3383   5.040   7.725  10.891  0.2081  0.6198 -0.5108
   26MOL0     H 3384   5.122   7.651  10.764 -0.9215  0.0701 -1.0745
   26MOL0     H 3385   5.070   7.615  11.125 -0.2747 -0.4496  0.9667
   26MOL0     H 3386   5.288   7.272  11.198  2.1004 -0.4959  1.4319
   26MOL0     H 3387   5.156   7.327  11.294 -0.3440  1.9962  1.0279
   26MOL0     H 3388   5.328   7.468  11.375 -2.0021  3.7993  1.2133
   26MOL0     H 3389   5.241   7.573  11.267  0.0819 -0.1377 -1.4646
   26MOL0     H 3390   5.506   7.435  11.201  2.6668  1.7257 -1.0675
   26MOL0     H 3391   5.400   7.521  11.074 -0.6080  0.8692  0.1208
   26MOL0     H 3392   5.584   7.637  11.177 -0.8442  1.3820 -1.5441
   26MOL0     H 3393   5.480   7.657  11.324 -1.0847 -0.6628  0.3572
   26MOL0     H 3394   5.237   7.891  11.018 -3.4355 -0.7396 -0.1266
   26MOL0     H 3395   5.121   8.090  11.121  1.7835  0.7007 -1.4248
   26MOL0     H 3396   4.823   8.158  11.446 -1.2226  0.6825 -1.3186
   26MOL0     H 3397   4.658   8.294  11.571  1.9871 -0.3176  1.0766
   26MOL0     H 3398   4.578   8.659  11.411  1.8675  1.8794 -0.0237
   26MOL0     H 3399   4.638   8.759  11.548 -0.0962  0.1332 -1.4608
   26MOL0     H 3400   4.481   8.646  11.705  1.0407  0.1608 -0.0049
   26MOL0     H 3401   4.390   8.576  11.569 -0.9728  1.3082 -2.4229
   26MOL0     H 3402   4.375   8.865  11.679 -1.5787  0.2878 -0.0502
   26MOL0     H 3403   4.270   8.768  11.588  0.2289 -1.1949 -2.0541
   26MOL0     H 3404   4.500   8.917  11.454  0.6321 -1.7364 -1.0231
   26MOL0     H 3405   4.395   8.807  11.365 -2.8169  2.0746 -1.2893
   26MOL0     H 3406   4.333   9.049  11.357 -2.2038 -0.8847 -1.8729
   26MOL0     H 3407   4.299   9.047  11.532  0.4754 -0.5518 -0.4375
   26MOL0     H 3408   4.113   8.873  11.487 -2.0305  3.5687  1.5530
   26MOL0     H 3409   4.174   8.874  11.317 -3.0743  0.8420 -1.1012
   26MOL0     H 3410   4.098   9.127  11.317 -0.4810  0.3754  1.4504
   26MOL0     H 3411   3.991   8.990  11.307  2.4723 -0.5726 -2.6161
   26MOL0     H 3412   4.050   9.132  11.556 -1.6773  1.6558 -0.0184
   26MOL0     H 3413   3.924   9.015  11.532  1.2068 -0.8560  0.2340
   26MOL0     H 3414   4.822   8.648  11.412 -0.5264 -0.5096 -1.6323
   26MOL0     H 3415   5.008   8.498  11.291  0.7127 -7.4984 -3.9319
   26MOL0     H 3416   5.323   8.007  11.500  2.9709 -1.3618 -1.3456
   26MOL0     H 3417   5.455   7.850  11.388 -2.6807 -3.2117  0.6850
   26MOL0     H 3418   4.285   7.179  10.195 -1.4759 -1.3106 -1.1249
   26MOL0     H 3419   4.059   7.144  10.082  0.9369 -0.4185  4.6513
   26MOL0     H 3420   3.587   7.482  10.007  3.4991 -0.5749 -0.4955
   26MOL0     H 3421   3.372   7.384   9.886  0.0979  1.3736 -4.4695
   26MOL0     H 3422   3.208   7.048   9.687  0.1951 -2.9405 -5.9952
   26MOL0     H 3423   3.329   6.986   9.789 -1.9458 -0.6744  0.0437
   26MOL0     H 3424   3.333   7.072   9.502 -1.5006  1.3512  1.2219
   26MOL0     H 3425   3.488   7.025   9.576 -0.7990  3.6601 -1.4133
   26MOL0     H 3426   3.367   6.810   9.634 -0.7220 -2.2679 -1.5447
   26MOL0     H 3427   3.427   6.827   9.464 -0.6052 -1.7133 -0.2782
   26MOL0     H 3428   3.226   6.708   9.502  0.7255 -0.3879 -1.5448
   26MOL0     H 3429   3.134   6.845   9.552 -1.0840 -1.5420 -0.8312
   26MOL0     H 3430   3.254   6.965   9.167  0.1326  2.9263  1.0351
   26MOL0     H 3431   3.593   7.054   9.743  4.0847 -0.1748 -0.2559
   26MOL0     H 3432   3.794   7.146   9.837  0.0505  2.3100 -1.2281
   27MOL0     O 3433   4.793   1.066   7.408 -0.3984 -0.3456  0.3833
   27MOL0     C 3434   4.762   1.181   7.366  0.2407  0.1019 -1.3347
   27MOL0     O 3435   4.709   1.207   7.248  0.3603 -0.3227 -0.3715
   27MOL0     C 3436   4.660   1.102   7.172 -0.3592  1.1686 -0.2079
   27MOL0     C 3437   4.526   1.097   7.144 -1.3396  0.5086 -0.1192
   27MOL0     C 3438   4.469   0.999   7.066  0.0827  0.7136  1.0239
   27MOL0     C 3439   4.538   0.894   7.006 -1.0144  1.2735 -0.6342
   27MOL0     O 3440   4.477   0.813   6.917 -0.1332 -0.6115 -0.7998
   27MOL0     C 3441   4.536   0.740   6.808 -0.8062  0.5211  0.1186
   27MOL0     C 3442   4.478   0.596   6.779  0.0291 -1.1571  0.3587
   27MOL0     C 3443   4.507   0.545   6.628  0.7054  0.1832  0.1122
   27MOL0     C 3444   4.652   0.514   6.611 -0.8885  0.6921  1.2483
   27MOL0     C 3445   4.694   0.516   6.462  0.1795  0.7258  0.0749
   27MOL0     C 3446   4.845   0.491   6.452 -1.7506 -0.7032  0.3833
   27MOL0     C 3447   4.887   0.451   6.308  0.6162  1.3340  1.0732
   27MOL0     C 3448   5.033   0.434   6.278 -0.9320  0.0014  0.1609
   27MOL0     N 3449   5.111   0.555   6.297  0.5264  0.0540  0.1666
   27MOL0     C 3450   5.192   0.576   6.402 -0.2129  0.5709  0.6234
   27MOL0     C 3451   5.275   0.677   6.351  0.1300 -0.3717  0.4869
   27MOL0     C 3452   5.399   0.718   6.417 -2.0518  0.2752  0.1385
   27MOL0     C 3453   5.521   0.630   6.414  1.0854  0.7600 -0.4880
   27MOL0     C 3454   5.552   0.591   6.264 -1.3988  0.1208 -0.3928
   27MOL0     C 3455   5.614   0.446   6.259 -0.3523  0.2558  0.5229
   27MOL0     O 3456   5.719   0.433   6.349  0.5926 -0.4213  0.6210
   27MOL0     C 3457   5.827   0.523   6.331 -1.5589 -0.0086 -0.1574
   27MOL0     C 3458   5.890   0.568   6.449  0.0429  0.1569 -1.1588
   27MOL0     C 3459   5.988   0.662   6.450  0.1453  0.1768  0.4974
   27MOL0     C 3460   6.036   0.722   6.333 -0.6615  0.5059 -0.3640
   27MOL0     C 3461   6.138   0.832   6.324 -0.6516  0.9208  0.8003
   27MOL0     O 3462   6.174   0.869   6.197 -0.0253 -0.5068  0.2912
   27MOL0     C 3463   6.257   0.979   6.178 -0.0099 -0.0556  0.5261
   27MOL0     C 3464   6.200   1.094   6.118 -0.9949 -0.3933 -0.2979
   27MOL0     C 3465   6.285   1.201   6.079  1.0892  0.1529  0.0715
   27MOL0     C 3466   6.420   1.191   6.104  0.2209 -0.4697  0.3029
   27MOL0     O 3467   6.492   1.295   6.054 -0.1386 -0.2175 -0.3950
   27MOL0     C 3468   6.626   1.332   6.112  0.1199  0.0863 -0.8821
   27MOL0     C 3469   6.622   1.485   6.153  0.2467  0.2639  0.5411
   27MOL0     C 3470   6.644   1.585   6.030 -0.4635  0.5167 -1.0356
   27MOL0     C 3471   6.522   1.660   5.987  1.2189  0.0439 -0.1010
   27MOL0     C 3472   6.532   1.806   6.020  0.4072 -0.0079  0.0170
   27MOL0     C 3473   6.418   1.886   5.955 -0.5480  0.4011 -0.2920
   27MOL0     C 3474   6.430   2.033   5.947  0.4974  0.4163  0.4159
   27MOL0     C 3475   6.546   2.102   5.889  0.7782 -0.1262  0.9848
   27MOL0    Cl 3476   6.677   2.119   6.013  0.0030 -0.1288 -0.6246
   27MOL0     C 3477   6.477   1.084   6.156 -0.1254  0.7166 -0.1831
   27MOL0     C 3478   6.399   0.974   6.196 -0.2198  0.0286 -0.5634
   27MOL0     O 3479   6.187   0.859   6.431 -0.7108 -0.5260 -0.1261
   27MOL0     C 3480   5.989   0.664   6.210  1.0968  0.2396  1.1478
   27MOL0     C 3481   5.874   0.580   6.209 -0.8890 -0.7753  0.1857
   27MOL0     N 3482   5.230   0.723   6.221 -0.1840 -0.2029 -0.4743
   27MOL0     N 3483   5.135   0.641   6.188 -0.2021  0.1113 -0.2976
   27MOL0     C 3484   4.677   0.888   7.036 -0.0062 -0.6424  0.0447
   27MOL0     C 3485   4.742   0.994   7.115 -0.2240 -0.5441  2.0265
   27MOL0     C 3486   4.802   1.288   7.462 -1.0233 -0.4590  0.3117
   27MOL0     C 3487   4.878   1.273   7.583 -1.1349  0.5078  0.6068
   27MOL0     C 3488   4.905   1.383   7.660  0.4525 -0.3905 -0.1964
   27MOL0     C 3489   4.867   1.509   7.616  0.7108  0.4063  0.6173
   27MOL0     O 3490   4.884   1.613   7.702  0.2699 -0.1206 -1.2315
   27MOL0     C 3491   4.967   1.720   7.652  0.2264  0.2388 -0.0136
   27MOL0     C 3492   4.910   1.855   7.672  0.0001 -0.8110  0.3826
   27MOL0     C 3493   4.759   1.876   7.642  0.9583  0.9327  0.2954
   27MOL0     C 3494   4.736   1.891   7.497  0.3952 -0.7309  0.9102
   27MOL0     C 3495   4.765   2.026   7.449  0.1505 -0.3585  0.0473
   27MOL0     C 3496   4.791   2.126   7.396 -0.2796  0.4538 -0.4024
   27MOL0     C 3497   4.777   1.516   7.515 -0.3733 -0.1310 -0.1148
   27MOL0     C 3498   4.748   1.414   7.440 -0.0674 -0.0983 -1.0942
   27MOL0     H 3499   4.482   1.187   7.186 -2.0452 -0.1732  0.6545
   27MOL0     H 3500   4.361   1.004   7.050 -0.2497 -3.3376  0.8236
   27MOL0     H 3501   4.645   0.745   6.818 -1.0165  0.7831  4.2966
   27MOL0     H 3502   4.510   0.791   6.715  2.6799 -0.6494 -1.6782
   27MOL0     H 3503   4.371   0.600   6.799 -0.7241 -4.8618 -2.0075
   27MOL0     H 3504   4.509   0.513   6.843  1.8774  0.0495  1.1101
   27MOL0     H 3505   4.469   0.622   6.560  0.1252  0.1227  0.3630
   27MOL0     H 3506   4.448   0.452   6.631  0.7314 -0.1696 -4.2660
   27MOL0     H 3507   4.714   0.589   6.661  1.9749  2.2881 -3.8800
   27MOL0     H 3508   4.680   0.413   6.642 -3.0227 -0.4976 -0.4302
   27MOL0     H 3509   4.670   0.607   6.407  2.8008  2.3153  1.3392
   27MOL0     H 3510   4.654   0.428   6.411  0.6058  0.1111  0.7810
   27MOL0     H 3511   4.872   0.403   6.512 -1.5193 -0.3232  0.8483
   27MOL0     H 3512   4.891   0.584   6.485 -0.9349 -1.1800  0.6297
   27MOL0     H 3513   4.832   0.364   6.270 -1.3516  3.6336 -1.7524
   27MOL0     H 3514   4.852   0.531   6.242 -1.4619 -1.5158 -1.5700
   27MOL0     H 3515   5.046   0.409   6.172  0.8282 -1.4523  0.6801
   27MOL0     H 3516   5.077   0.351   6.333  0.1249 -1.9840 -3.3423
   27MOL0     H 3517   5.211   0.520   6.493  1.6091  2.0610  1.2203
   27MOL0     H 3518   5.397   0.753   6.520  3.3581  2.5077 -0.1754
   27MOL0     H 3519   5.425   0.812   6.366  1.1875  1.3383  3.3879
   27MOL0     H 3520   5.519   0.545   6.483  3.0717  1.4789  0.5062
   27MOL0     H 3521   5.602   0.690   6.455  2.5114 -1.7280  0.5352
   27MOL0     H 3522   5.461   0.592   6.203 -4.2338  0.0880  3.4515
   27MOL0     H 3523   5.629   0.656   6.222 -1.3991  1.4306  1.5079
   27MOL0     H 3524   5.638   0.419   6.156 -0.5435 -1.7771  0.9778
   27MOL0     H 3525   5.550   0.365   6.293  0.8361 -1.2080 -0.6174
   27MOL0     H 3526   5.863   0.508   6.535  0.7444  2.0844  0.5146
   27MOL0     H 3527   6.033   0.689   6.545  0.9620  3.6678 -0.7043
   27MOL0     H 3528   6.095   1.104   6.092 -0.8686  0.5363 -0.5126
   27MOL0     H 3529   6.259   1.290   6.023  3.8045  0.1624 -1.3696
   27MOL0     H 3530   6.705   1.322   6.038  3.6927 -1.3167  2.7267
   27MOL0     H 3531   6.643   1.278   6.206  0.7855 -4.3403 -3.3092
   27MOL0     H 3532   6.707   1.484   6.223 -1.0176 -0.3341  2.1495
   27MOL0     H 3533   6.528   1.508   6.204 -1.0946 -2.0054 -0.7384
   27MOL0     H 3534   6.670   1.521   5.945  1.7625  1.5860 -1.2322
   27MOL0     H 3535   6.729   1.650   6.053  0.9369 -1.0232 -1.6567
   27MOL0     H 3536   6.512   1.641   5.880  0.9924 -1.5112  0.1825
   27MOL0     H 3537   6.439   1.623   6.048  2.5988 -1.3949  0.9878
   27MOL0     H 3538   6.620   1.857   5.980  0.0871  2.0763  1.7816
   27MOL0     H 3539   6.539   1.823   6.128 -0.2454  2.5750 -0.2777
   27MOL0     H 3540   6.334   1.864   6.022 -0.6611  1.2444 -0.1388
   27MOL0     H 3541   6.395   1.856   5.852 -1.1422  1.4465 -0.4864
   27MOL0     H 3542   6.346   2.065   5.885  0.3927  0.4341  0.5668
   27MOL0     H 3543   6.410   2.075   6.046  2.4713  2.0438  0.1917
   27MOL0     H 3544   6.520   2.207   5.874 -0.3276 -0.3653  1.0790
   27MOL0     H 3545   6.582   2.070   5.791 -0.0772  0.4811  0.4507
   27MOL0     H 3546   6.586   1.081   6.157 -0.0573 -3.2946  1.8349
   27MOL0     H 3547   6.443   0.878   6.222  0.4211  0.5469  0.3435
   27MOL0     H 3548   6.027   0.691   6.112  1.7102  0.7677  1.5261
   27MOL0     H 3549   5.837   0.562   6.108 -0.0297  1.9243 -0.6973
   27MOL0     H 3550   4.739   0.809   6.995 -0.1680 -0.0172 -1.4776
   27MOL0     H 3551   4.841   0.985   7.159 -0.4676 -3.0302  2.1545
   27MOL0     H 3552   4.901   1.173   7.619  0.0486  0.5603  0.0395
   27MOL0     H 3553   4.965   1.374   7.750 -0.7917 -2.9656  0.4943
   27MOL0     H 3554   4.983   1.713   7.544  1.6032 -0.7361  0.2296
   27MOL0     H 3555   5.063   1.700   7.699 -0.0777 -0.4359  0.3415
   27MOL0     H 3556   4.923   1.884   7.777  0.6567 -1.8592  0.6090
   27MOL0     H 3557   4.965   1.923   7.606  1.2975 -0.7048  1.5088
   27MOL0     H 3558   4.731   1.965   7.699  0.2137  0.1696  1.1663
   27MOL0     H 3559   4.694   1.801   7.688  2.1544 -0.1863  0.2042
   27MOL0     H 3560   4.791   1.819   7.437 -1.1750 -1.2838  0.0937
   27MOL0     H 3561   4.637   1.866   7.458 -1.0359  3.8521  1.0101
   27MOL0     H 3562   4.820   2.222   7.359 -2.9828  1.9000  0.9335
   27MOL0     H 3563   4.724   1.604   7.480 -0.3098 -1.2404 -3.3960
   27MOL0     H 3564   4.690   1.429   7.350  1.5335  2.8945 -1.7670
   28MOL0     O 3565   5.576   4.905   3.591  0.1888 -0.6306 -0.0312
   28MOL0     C 3566   5.654   4.962   3.512 -0.8872  0.3399  0.0903
   28MOL0     O 3567   5.681   5.097   3.515 -0.9279  1.1840  0.3876
   28MOL0     C 3568   5.614   5.183   3.591 -0.2358  0.5679  0.9694
   28MOL0     C 3569   5.607   5.177   3.725 -0.2872 -0.3544 -0.6936
   28MOL0     C 3570   5.534   5.280   3.801  0.6401  0.7744 -0.4876
   28MOL0     C 3571   5.479   5.386   3.729  0.4825  0.7940  0.3340
   28MOL0     O 3572   5.399   5.474   3.801  0.0509  0.2271  0.5390
   28MOL0     C 3573   5.275   5.532   3.750  0.2269 -0.2232  0.0428
   28MOL0     C 3574   5.298   5.673   3.722  0.1165  0.1161 -0.3314
   28MOL0     C 3575   5.306   5.752   3.855  1.1685  0.3318 -0.4036
   28MOL0     C 3576   5.369   5.893   3.842  0.7629  0.1627  0.2610
   28MOL0     C 3577   5.489   5.893   3.750  0.9276 -0.8642 -0.6381
   28MOL0     C 3578   5.589   5.999   3.796  0.0039  0.4224 -0.8512
   28MOL0     C 3579   5.733   5.985   3.734  0.2156  0.3960  0.3813
   28MOL0     C 3580   5.829   6.077   3.811 -0.7835 -0.4538 -0.0748
   28MOL0     N 3581   5.955   6.097   3.744  0.0834  0.1517 -0.1036
   28MOL0     C 3582   5.989   6.211   3.676  0.2804 -0.1107 -1.0908
   28MOL0     C 3583   6.096   6.172   3.612  0.5213  0.3079  0.3335
   28MOL0     C 3584   6.175   6.261   3.518 -0.5033  0.4280  0.3860
   28MOL0     C 3585   6.319   6.218   3.512 -0.5636 -1.0550  0.0599
   28MOL0     C 3586   6.413   6.324   3.443 -0.7488  1.8888 -0.4545
   28MOL0     C 3587   6.558   6.262   3.461 -0.0334  0.2808  0.1677
   28MOL0     O 3588   6.643   6.360   3.411 -0.0375  0.2019 -0.4185
   28MOL0     C 3589   6.685   6.472   3.481 -0.9521  1.4803  0.4370
   28MOL0     C 3590   6.807   6.511   3.454 -0.4351 -0.5870  0.0491
   28MOL0     C 3591   6.864   6.619   3.516  0.1387 -0.1342 -0.3125
   28MOL0     C 3592   6.811   6.660   3.636  0.5340  1.1298 -0.8222
   28MOL0     C 3593   6.880   6.767   3.718  0.1614  0.2435  0.0569
   28MOL0     O 3594   6.958   6.854   3.655 -0.5050  0.3888  0.3703
   28MOL0     C 3595   7.063   6.916   3.721 -0.9655 -0.2998  0.5925
   28MOL0     C 3596   7.143   6.868   3.831  0.7454  0.3771  0.2922
   28MOL0     C 3597   7.264   6.933   3.861  0.2826  0.3377 -0.0345
   28MOL0     C 3598   7.295   7.052   3.807 -1.2472 -0.2425 -0.3120
   28MOL0     O 3599   7.397   7.121   3.864 -0.7703 -1.2355 -0.1171
   28MOL0     C 3600   7.382   7.265   3.887  0.9012 -0.5212  0.1967
   28MOL0     C 3601   7.506   7.343   3.836 -0.5248  0.6982  0.2884
   28MOL0     C 3602   7.566   7.284   3.700 -0.2359 -0.3809  0.5276
   28MOL0     C 3603   7.654   7.372   3.606 -0.3146 -0.1322  0.1292
   28MOL0     C 3604   7.797   7.399   3.659  0.7503  0.5085 -0.2880
   28MOL0     C 3605   7.863   7.512   3.574  0.6963 -0.7909  0.2398
   28MOL0     C 3606   8.020   7.511   3.578  0.0721 -0.4546 -0.5154
   28MOL0     C 3607   8.064   7.408   3.475 -0.2609 -0.9723  0.0112
   28MOL0    Cl 3608   8.231   7.470   3.435  0.0256  0.0526  0.0797
   28MOL0     C 3609   7.237   7.095   3.683 -0.1281 -0.0525 -0.8102
   28MOL0     C 3610   7.129   7.024   3.650 -0.2279 -0.9324 -0.8381
   28MOL0     O 3611   6.848   6.768   3.835 -0.3963  0.1266  0.1200
   28MOL0     C 3612   6.681   6.605   3.674 -0.4805  0.1275  0.1808
   28MOL0     C 3613   6.616   6.519   3.593  0.4728  0.4028  0.4785
   28MOL0     N 3614   6.129   6.039   3.651 -0.7085 -0.3443 -0.1485
   28MOL0     N 3615   6.049   5.998   3.739  1.7259 -0.0434  0.1812
   28MOL0     C 3616   5.497   5.390   3.598 -0.0443 -0.6602  0.7746
   28MOL0     C 3617   5.569   5.293   3.522  0.4796 -0.5430 -0.0192
   28MOL0     C 3618   5.707   4.877   3.399 -0.4114 -1.6340  0.0121
   28MOL0     C 3619   5.797   4.944   3.305  0.1385  1.6267  0.7722
   28MOL0     C 3620   5.866   4.862   3.204  0.3170 -0.5151  0.2799
   28MOL0     C 3621   5.837   4.728   3.184 -0.0778 -0.3961 -0.2260
   28MOL0     O 3622   5.907   4.666   3.081  0.2366 -0.1176  1.1553
   28MOL0     C 3623   5.855   4.543   3.041 -0.3873 -0.0850 -0.1049
   28MOL0     C 3624   5.947   4.517   2.913 -0.3381 -0.0296  0.3596
   28MOL0     C 3625   5.928   4.367   2.873 -0.3253 -0.1148  0.0815
   28MOL0     C 3626   6.013   4.351   2.748  0.0215  0.9341  0.0146
   28MOL0     C 3627   6.008   4.213   2.698  0.2942 -0.3365  0.8611
   28MOL0     C 3628   6.011   4.114   2.633  0.3392 -0.3713  0.5842
   28MOL0     C 3629   5.743   4.670   3.267  0.2784  0.0864 -0.4974
   28MOL0     C 3630   5.692   4.742   3.382 -0.1083 -1.0069  0.3500
   28MOL0     H 3631   5.633   5.080   3.766  1.2880  0.7012  0.9312
   28MOL0     H 3632   5.512   5.263   3.906  0.2038 -0.7176 -0.7951
   28MOL0     H 3633   5.185   5.519   3.812  0.6304  1.0334  0.9324
   28MOL0     H 3634   5.254   5.478   3.657  2.6009  1.1031 -1.3460
   28MOL0     H 3635   5.210   5.706   3.666 -1.2068 -3.0707 -0.3664
   28MOL0     H 3636   5.384   5.694   3.658 -0.3325  1.9357 -0.4054
   28MOL0     H 3637   5.379   5.708   3.923  1.4919  2.5862  0.7942
   28MOL0     H 3638   5.208   5.760   3.902  1.4591  3.4129 -0.0971
   28MOL0     H 3639   5.298   5.968   3.806  2.2582  1.2667 -0.4871
   28MOL0     H 3640   5.405   5.932   3.938 -0.3424 -2.4882  1.8687
   28MOL0     H 3641   5.462   5.908   3.645  1.0092  0.5494 -0.4750
   28MOL0     H 3642   5.544   5.799   3.756  1.4988 -0.6981 -2.7399
   28MOL0     H 3643   5.601   6.000   3.905  2.0875 -1.4721 -0.9846
   28MOL0     H 3644   5.554   6.101   3.781  1.5331  0.7837 -2.1763
   28MOL0     H 3645   5.772   5.883   3.730  1.3760  0.6332  3.2661
   28MOL0     H 3646   5.725   6.027   3.633 -3.0189  0.2102  0.4594
   28MOL0     H 3647   5.850   6.007   3.892 -0.9696 -2.2856 -1.5606
   28MOL0     H 3648   5.786   6.175   3.838 -1.1804 -1.2822  2.6574
   28MOL0     H 3649   5.939   6.308   3.678 -0.5064 -0.5083 -1.3631
   28MOL0     H 3650   6.163   6.364   3.553 -0.0510 -0.5198  3.6741
   28MOL0     H 3651   6.134   6.236   3.419 -2.2474 -3.6369  1.9493
   28MOL0     H 3652   6.338   6.118   3.471  1.1403 -2.6019  4.0925
   28MOL0     H 3653   6.357   6.209   3.614  0.2916 -2.6391 -0.3581
   28MOL0     H 3654   6.392   6.336   3.337  1.7252 -0.0958 -1.2727
   28MOL0     H 3655   6.396   6.422   3.488 -3.2886  0.9964  0.7564
   28MOL0     H 3656   6.567   6.169   3.405 -3.2968 -0.5879  0.8720
   28MOL0     H 3657   6.583   6.243   3.566  1.5811 -1.4387 -0.4579
   28MOL0     H 3658   6.863   6.451   3.382  0.2489 -2.1137  1.7692
   28MOL0     H 3659   6.960   6.655   3.479  1.6933 -1.5631  2.1135
   28MOL0     H 3660   7.112   6.789   3.898  1.1827  1.5198  1.8930
   28MOL0     H 3661   7.321   6.898   3.946 -2.9283 -0.7635  1.8465
   28MOL0     H 3662   7.371   7.289   3.993 -1.1851  1.6500 -0.4061
   28MOL0     H 3663   7.295   7.303   3.831  1.1072 -2.9903 -1.9697
   28MOL0     H 3664   7.581   7.343   3.914 -1.3698  0.2249  1.1238
   28MOL0     H 3665   7.495   7.450   3.820  0.2878  1.1612  2.5010
   28MOL0     H 3666   7.483   7.257   3.633  1.3395 -1.4276 -1.0992
   28MOL0     H 3667   7.617   7.189   3.718  1.4323  0.2384 -0.6933
   28MOL0     H 3668   7.673   7.327   3.508 -2.1574  1.7219 -1.1508
   28MOL0     H 3669   7.598   7.461   3.579 -0.0355  0.0888  0.2777
   28MOL0     H 3670   7.853   7.307   3.641  1.8626  1.4640 -1.9422
   28MOL0     H 3671   7.798   7.419   3.767  2.2610  1.7951 -0.4986
   28MOL0     H 3672   7.816   7.608   3.599  0.0691 -0.6360 -1.4452
   28MOL0     H 3673   7.822   7.513   3.473 -1.2693  0.7774  0.9567
   28MOL0     H 3674   8.065   7.610   3.565 -1.7249  0.4370 -0.1955
   28MOL0     H 3675   8.052   7.482   3.679 -1.4784  2.9311  1.0900
   28MOL0     H 3676   7.998   7.396   3.388 -0.5875 -3.6822  0.5410
   28MOL0     H 3677   8.077   7.308   3.519  0.2215 -0.8212  0.2154
   28MOL0     H 3678   7.270   7.188   3.637 -2.1138  0.6812 -0.8536
   28MOL0     H 3679   7.079   7.068   3.564  2.6706  0.2772 -2.0648
   28MOL0     H 3680   6.646   6.644   3.770  2.0878 -0.0162  1.2491
   28MOL0     H 3681   6.521   6.481   3.628 -1.2563  0.0395 -3.9447
   28MOL0     H 3682   5.465   5.473   3.535  0.5909 -2.1283 -1.6247
   28MOL0     H 3683   5.588   5.304   3.416  1.8129 -2.3772 -0.0072
   28MOL0     H 3684   5.814   5.050   3.314  2.6005  1.3166  0.3400
   28MOL0     H 3685   5.926   4.911   3.127 -0.5082  1.5457  0.8634
   28MOL0     H 3686   5.750   4.553   3.010  0.5290  1.8959 -3.0005
   28MOL0     H 3687   5.872   4.456   3.105  0.6234 -1.3172 -1.9287
   28MOL0     H 3688   5.915   4.586   2.834  1.1249 -1.3650 -1.5024
   28MOL0     H 3689   6.052   4.535   2.938 -0.6580  0.2911  1.4996
   28MOL0     H 3690   5.826   4.340   2.844 -0.8377  1.0782  0.7051
   28MOL0     H 3691   5.973   4.300   2.947  1.1325 -2.1965 -2.5219
   28MOL0     H 3692   5.973   4.420   2.673 -2.2893 -0.1336  0.1939
   28MOL0     H 3693   6.112   4.395   2.764 -1.6135  4.3556  1.9518
   28MOL0     H 3694   6.017   4.026   2.572  3.4498  0.2070 -0.1090
   28MOL0     H 3695   5.691   4.578   3.245 -1.8430  0.7869  1.1410
   28MOL0     H 3696   5.647   4.685   3.463 -0.3267 -0.4888  0.5995
   29MOL0     O 3697   4.283   9.126   6.886  0.1410 -0.1870 -0.5354
   29MOL0     C 3698   4.227   9.091   6.989 -0.1132 -0.6120  0.4672
   29MOL0     O 3699   4.277   9.097   7.116 -0.9775  0.0075  0.5370
   29MOL0     C 3700   4.395   9.160   7.144  0.2419 -0.8309  0.2527
   29MOL0     C 3701   4.490   9.086   7.227  1.1524 -0.1985 -0.0929
   29MOL0     C 3702   4.613   9.141   7.251  0.2068 -0.1864  0.0065
   29MOL0     C 3703   4.649   9.271   7.199  0.1214  0.1689  0.3357
   29MOL0     O 3704   4.764   9.346   7.243  0.0022  0.5175  0.1108
   29MOL0     C 3705   4.845   9.291   7.346  0.2588  0.0125 -0.0658
   29MOL0     C 3706   4.952   9.386   7.398  0.6253  0.7093  0.4200
   29MOL0     C 3707   5.059   9.307   7.483 -0.2724 -1.0670 -1.5111
   29MOL0     C 3708   5.171   9.403   7.527 -0.2897 -0.6508  0.6310
   29MOL0     C 3709   5.291   9.332   7.594  0.1277  0.3930 -0.9512
   29MOL0     C 3710   5.394   9.427   7.652 -0.7155 -1.5900 -0.5904
   29MOL0     C 3711   5.331   9.503   7.775  0.9798  0.2048 -1.0375
   29MOL0     C 3712   5.304   9.427   7.903 -0.6220  0.5537 -0.1212
   29MOL0     N 3713   5.416   9.332   7.928  0.7150  0.2240  0.1016
   29MOL0     C 3714   5.530   9.374   7.992  0.2436 -1.4337  0.1990
   29MOL0     C 3715   5.606   9.265   8.006 -0.5338 -0.0708  0.7599
   29MOL0     C 3716   5.737   9.253   8.068 -0.9084 -0.6596  0.5715
   29MOL0     C 3717   5.827   9.362   8.008 -0.0294 -0.1777 -0.4204
   29MOL0     C 3718   5.837   9.340   7.857 -0.1711 -0.4359 -0.2302
   29MOL0     C 3719   5.938   9.436   7.799 -0.2273  0.6091 -0.6829
   29MOL0     O 3720   6.070   9.421   7.860 -0.6634 -0.0869  0.2912
   29MOL0     C 3721   6.150   9.531   7.882  0.3780 -0.1876  0.5222
   29MOL0     C 3722   6.181   9.578   8.012 -0.0366  0.3029  0.0878
   29MOL0     C 3723   6.273   9.672   8.029  1.0617 -1.1250 -0.0636
   29MOL0     C 3724   6.339   9.735   7.917 -0.2042  0.4823 -1.4276
   29MOL0     C 3725   6.437   9.830   7.943 -0.0593 -0.6258  0.4728
   29MOL0     O 3726   6.436   9.910   8.055 -0.9214  0.5579  0.0452
   29MOL0     C 3727   6.507  10.027   8.051 -0.5886  0.3118  0.2044
   29MOL0     C 3728   6.435  10.134   7.988 -0.5787 -0.9524  0.4380
   29MOL0     C 3729   6.483  10.266   8.004  1.4859  0.3594  0.2606
   29MOL0     C 3730   6.600  10.283   8.077  0.0366  0.1169 -0.6126
   29MOL0     O 3731   6.653  10.402   8.100 -0.3712 -0.0053 -0.1229
   29MOL0     C 3732   6.562  10.503   8.165  0.2200  0.7261  0.4472
   29MOL0     C 3733   6.651  10.583   8.258 -0.0722 -0.0758 -0.5514
   29MOL0     C 3734   6.736  10.686   8.182  0.0459  0.2613 -0.3510
   29MOL0     C 3735   6.791  10.790   8.276 -0.1236  0.0930 -0.0533
   29MOL0     C 3736   6.879  10.736   8.390 -0.1020  0.4151  0.0896
   29MOL0     C 3737   6.932  10.856   8.472  0.7590 -1.0995  0.3654
   29MOL0     C 3738   7.043  10.932   8.398 -0.3049 -0.0297 -0.4988
   29MOL0     C 3739   7.138  11.013   8.501  1.5157  0.3665  0.1123
   29MOL0    Cl 3740   7.026  11.120   8.592 -0.2138 -0.3185  0.0051
   29MOL0     C 3741   6.675  10.175   8.129 -0.2393  0.5231  0.1154
   29MOL0     C 3742   6.624  10.046   8.115  0.0633 -0.7283  0.3492
   29MOL0     O 3743   6.514   9.850   7.847  0.1172  0.5685  0.1083
   29MOL0     C 3744   6.296   9.700   7.789 -0.0070 -0.9150 -0.1465
   29MOL0     C 3745   6.206   9.595   7.772 -0.1385 -0.1772 -0.5246
   29MOL0     N 3746   5.538   9.161   7.949  0.0608  0.1093 -0.5584
   29MOL0     N 3747   5.425   9.199   7.905  0.1119 -0.3416 -0.6488
   29MOL0     C 3748   4.555   9.340   7.120 -0.1240  0.0036  0.2414
   29MOL0     C 3749   4.430   9.277   7.097 -0.5535  0.6388  0.6104
   29MOL0     C 3750   4.095   9.024   6.970 -0.0366 -0.3894 -0.4244
   29MOL0     C 3751   3.997   9.057   6.871  0.0032 -0.5180  0.1279
   29MOL0     C 3752   3.883   8.976   6.861 -0.5577  0.4645 -0.0310
   29MOL0     C 3753   3.863   8.874   6.952  1.3188  0.1121 -0.8565
   29MOL0     O 3754   3.752   8.802   6.969  0.5047 -0.5382  0.5000
   29MOL0     C 3755   3.622   8.852   6.933 -0.5520  0.1399 -0.1815
   29MOL0     C 3756   3.511   8.792   7.024 -0.1192  0.5250  0.0556
   29MOL0     C 3757   3.494   8.639   7.009 -1.2909 -1.1208  0.2816
   29MOL0     C 3758   3.473   8.586   6.865 -0.5870 -0.1150  0.2243
   29MOL0     C 3759   3.360   8.643   6.786  0.5738  0.3089 -0.0027
   29MOL0     C 3760   3.261   8.689   6.735  0.8505 -0.0595 -0.3545
   29MOL0     C 3761   3.963   8.834   7.041 -0.4660 -0.0683  0.7137
   29MOL0     C 3762   4.079   8.905   7.046 -0.3218 -0.6709 -0.0312
   29MOL0     H 3763   4.467   8.992   7.277 -3.0975 -0.4105 -1.9900
   29MOL0     H 3764   4.687   9.080   7.303  1.9412  2.3071  0.6780
   29MOL0     H 3765   4.891   9.198   7.309 -1.3549 -0.6546 -0.4912
   29MOL0     H 3766   4.777   9.262   7.426  0.2924 -1.1726 -0.4407
   29MOL0     H 3767   4.903   9.465   7.455 -1.9716  3.2454 -4.6587
   29MOL0     H 3768   5.000   9.429   7.309 -0.6382  0.9232 -0.1824
   29MOL0     H 3769   5.103   9.231   7.418  1.9531  0.1222 -1.4878
   29MOL0     H 3770   5.012   9.263   7.571  1.2883  2.6765  1.4951
   29MOL0     H 3771   5.209   9.454   7.438 -0.9020 -2.5471 -0.7846
   29MOL0     H 3772   5.124   9.484   7.584 -0.5935  1.6157 -2.5432
   29MOL0     H 3773   5.336   9.265   7.521  2.0991  0.5475  0.0641
   29MOL0     H 3774   5.255   9.265   7.673  1.4313  0.6795 -0.0830
   29MOL0     H 3775   5.411   9.501   7.573  3.1549  1.2825  2.4775
   29MOL0     H 3776   5.486   9.375   7.681 -0.3279 -0.2453  0.7026
   29MOL0     H 3777   5.396   9.584   7.809 -2.9269  1.6211  4.3708
   29MOL0     H 3778   5.230   9.541   7.756  0.4466  0.4923  1.9662
   29MOL0     H 3779   5.207   9.377   7.895 -1.5654  1.9530  1.6503
   29MOL0     H 3780   5.295   9.496   7.988  2.3879  1.8402 -0.7327
   29MOL0     H 3781   5.558   9.475   8.020 -2.2028 -0.6240 -0.0706
   29MOL0     H 3782   5.764   9.149   8.047 -3.8905 -1.2147 -1.1397
   29MOL0     H 3783   5.721   9.259   8.176 -2.3690 -2.3730  0.5015
   29MOL0     H 3784   5.930   9.351   8.045 -0.4041 -2.9612 -0.0250
   29MOL0     H 3785   5.797   9.467   8.014  2.7118  0.9618 -3.6035
   29MOL0     H 3786   5.858   9.234   7.844 -0.0269 -0.2638 -1.4464
   29MOL0     H 3787   5.741   9.363   7.809  0.3619  0.4040 -0.9216
   29MOL0     H 3788   5.902   9.536   7.823  1.0648  1.3511 -1.7068
   29MOL0     H 3789   5.941   9.429   7.690  0.6924 -1.8641 -0.5606
   29MOL0     H 3790   6.139   9.529   8.099 -2.1519 -0.1119 -1.1043
   29MOL0     H 3791   6.304   9.706   8.127  1.9359  1.5597 -1.1896
   29MOL0     H 3792   6.348  10.106   7.930 -1.4139 -1.1232  1.7230
   29MOL0     H 3793   6.425  10.349   7.967  1.6274  2.2998  3.9295
   29MOL0     H 3794   6.488  10.457   8.230  1.0026  2.1293  2.4297
   29MOL0     H 3795   6.516  10.565   8.087 -1.4267  0.0261  0.8377
   29MOL0     H 3796   6.715  10.517   8.318 -0.2869 -0.4673 -0.7560
   29MOL0     H 3797   6.589  10.637   8.331  1.6721  0.0054  0.9561
   29MOL0     H 3798   6.677  10.738   8.106 -1.1892 -3.5633 -2.2267
   29MOL0     H 3799   6.818  10.645   8.123 -1.0675 -2.0207 -0.3927
   29MOL0     H 3800   6.853  10.864   8.225  0.7831 -0.0825  0.7475
   29MOL0     H 3801   6.701  10.839   8.313 -1.7514 -1.1589 -2.1795
   29MOL0     H 3802   6.975  10.701   8.351  0.1246  1.6289 -0.4849
   29MOL0     H 3803   6.822  10.680   8.464  0.7597  1.3871  1.5443
   29MOL0     H 3804   6.980  10.831   8.568 -2.5292 -0.0192  2.4445
   29MOL0     H 3805   6.845  10.916   8.500  1.7411  2.1909 -2.8959
   29MOL0     H 3806   7.110  10.866   8.343  0.4171 -0.3447  0.7296
   29MOL0     H 3807   6.997  11.003   8.328 -0.4554 -1.5376 -1.9868
   29MOL0     H 3808   7.192  11.078   8.432 -4.0050  2.7140 -2.6718
   29MOL0     H 3809   7.189  10.934   8.556  0.7064 -2.0232 -2.3576
   29MOL0     H 3810   6.762  10.200   8.189 -0.4519  1.7858 -0.0754
   29MOL0     H 3811   6.682   9.969   8.165  0.4187 -0.5271  0.2497
   29MOL0     H 3812   6.331   9.758   7.704 -3.1594  4.6993  1.8643
   29MOL0     H 3813   6.176   9.555   7.676 -2.0383 -1.0213  0.3636
   29MOL0     H 3814   4.577   9.442   7.090  1.5935 -0.7640 -1.2997
   29MOL0     H 3815   4.355   9.325   7.036 -2.3627  1.3460  3.2405
   29MOL0     H 3816   4.013   9.126   6.788 -1.5294 -1.6687 -1.2076
   29MOL0     H 3817   3.821   8.978   6.772 -0.5385 -0.4797 -0.0778
   29MOL0     H 3818   3.597   8.846   6.827  1.0413  0.4407 -0.6014
   29MOL0     H 3819   3.607   8.954   6.969 -1.2035 -0.1745  0.4543
   29MOL0     H 3820   3.550   8.802   7.126  2.9195  0.6274 -1.0262
   29MOL0     H 3821   3.420   8.853   7.014  0.2068  0.7706 -1.6948
   29MOL0     H 3822   3.408   8.617   7.072 -2.9281  1.9551 -0.6553
   29MOL0     H 3823   3.579   8.597   7.063  1.4723  1.1260 -1.9619
   29MOL0     H 3824   3.562   8.583   6.800 -1.1364 -0.6351 -0.5119
   29MOL0     H 3825   3.460   8.478   6.876 -1.5314 -0.5764 -3.8151
   29MOL0     H 3826   3.175   8.721   6.679  1.3908 -1.0440 -1.8324
   29MOL0     H 3827   3.940   8.747   7.102 -2.1145 -0.3884 -0.2976
   29MOL0     H 3828   4.162   8.865   7.104 -0.3537  1.8784  1.9318
   30MOL0     O 3829   3.544   8.539  11.272 -0.2140 -0.3441 -0.0550
   30MOL0     C 3830   3.598   8.459  11.209 -0.5073 -0.2785  0.1806
   30MOL0     O 3831   3.726   8.411  11.215  0.4073 -0.1677 -0.6758
   30MOL0     C 3832   3.804   8.471  11.312 -0.1967  0.3983  0.7421
   30MOL0     C 3833   3.927   8.544  11.281  0.3408 -0.3780 -0.0067
   30MOL0     C 3834   4.009   8.600  11.388  0.4888  0.3289 -0.7215
   30MOL0     C 3835   3.976   8.561  11.524 -0.2907 -0.1922 -0.5627
   30MOL0     O 3836   4.055   8.612  11.634  0.3076  0.0701 -0.8943
   30MOL0     C 3837   3.992   8.620  11.763  0.3687  0.6833  0.5891
   30MOL0     C 3838   4.077   8.710  11.850  1.1258 -0.4758  0.6071
   30MOL0     C 3839   4.074   8.860  11.803  0.5154 -0.8588 -0.3951
   30MOL0     C 3840   4.136   8.954  11.913  0.5490  0.5635 -0.8180
   30MOL0     C 3841   4.108   9.094  11.865  0.2094 -0.8653 -0.6290
   30MOL0     C 3842   4.173   9.211  11.946  0.4317  1.0523 -0.3004
   30MOL0     C 3843   4.191   9.341  11.867 -0.4706  0.5344  0.4855
   30MOL0     C 3844   4.056   9.399  11.816  0.5142 -0.8440  0.2301
   30MOL0     N 3845   3.960   9.427  11.920  0.4010  0.3154 -0.9961
   30MOL0     C 3846   3.968   9.531  12.023  0.1300  0.1388 -0.9874
   30MOL0     C 3847   3.869   9.495  12.106 -0.3939  1.1294  0.4515
   30MOL0     C 3848   3.834   9.550  12.236 -0.7827 -0.8242 -0.5916
   30MOL0     C 3849   3.871   9.473  12.363 -0.4001 -0.6083  0.3097
   30MOL0     C 3850   3.779   9.348  12.388  0.5234  0.8489  0.5529
   30MOL0     C 3851   3.644   9.381  12.461 -0.3556  0.3103  0.0288
   30MOL0     O 3852   3.568   9.263  12.448 -0.2037  0.4641  0.3802
   30MOL0     C 3853   3.441   9.260  12.512 -0.8957 -0.3220 -0.6990
   30MOL0     C 3854   3.348   9.353  12.484  0.8554 -0.3683 -0.4763
   30MOL0     C 3855   3.210   9.338  12.525 -0.1907  1.5846  0.6254
   30MOL0     C 3856   3.176   9.230  12.610 -0.4751  1.2958  0.0023
   30MOL0     C 3857   3.042   9.200  12.676  0.2229  0.2113 -0.0794
   30MOL0     O 3858   2.965   9.318  12.688  0.0752 -0.5424 -0.2627
   30MOL0     C 3859   2.857   9.299  12.766  0.3509 -1.5524 -0.5057
   30MOL0     C 3860   2.863   9.284  12.908 -0.0978  0.1238 -0.5592
   30MOL0     C 3861   2.742   9.260  12.976 -0.3163 -0.1922  0.0279
   30MOL0     C 3862   2.625   9.255  12.902 -0.5534  0.3777  0.1725
   30MOL0     O 3863   2.527   9.191  12.981  0.2668 -0.0899 -0.0190
   30MOL0     C 3864   2.420   9.114  12.915  0.0589  0.0988 -0.3138
   30MOL0     C 3865   2.328   9.049  13.017 -0.8221  0.9397 -0.3589
   30MOL0     C 3866   2.179   9.040  12.971 -0.0387 -0.5199  0.0634
   30MOL0     C 3867   2.095   9.004  13.098  0.1650 -0.7002 -0.5102
   30MOL0     C 3868   1.946   9.016  13.047 -0.1970  0.0205 -0.3809
   30MOL0     C 3869   1.840   9.012  13.153 -1.1683 -0.4901  0.1391
   30MOL0     C 3870   1.698   9.027  13.097 -1.0781 -0.2612 -0.8258
   30MOL0     C 3871   1.584   9.000  13.205 -0.1826 -0.7513 -0.3629
   30MOL0    Cl 3872   1.430   9.009  13.111 -0.0295 -0.1495  0.4965
   30MOL0     C 3873   2.625   9.260  12.764  0.0227  0.5369  0.0914
   30MOL0     C 3874   2.742   9.284  12.701  0.1877  0.0035 -0.8578
   30MOL0     O 3875   3.030   9.099  12.749  0.3948 -0.6519  1.1721
   30MOL0     C 3876   3.276   9.132  12.628  0.4460  0.1097 -0.4688
   30MOL0     C 3877   3.406   9.147  12.588 -0.0745 -0.5203  0.4709
   30MOL0     N 3878   3.804   9.382  12.056  0.2819 -0.4841  0.3117
   30MOL0     N 3879   3.863   9.340  11.948 -0.7860 -0.0278  0.6689
   30MOL0     C 3880   3.865   8.478  11.549  1.1281 -0.4053  0.3751
   30MOL0     C 3881   3.784   8.440  11.445  0.1077  0.2220 -0.1129
   30MOL0     C 3882   3.510   8.388  11.105 -0.0245 -0.7488 -1.2592
   30MOL0     C 3883   3.538   8.259  11.057  0.1957  0.0434  0.9745
   30MOL0     C 3884   3.443   8.199  10.970 -0.3515 -0.0080 -0.0696
   30MOL0     C 3885   3.331   8.274  10.912  0.4961 -0.3472  0.6109
   30MOL0     O 3886   3.240   8.223  10.822 -0.2854 -0.5031  0.1404
   30MOL0     C 3887   3.252   8.090  10.783  0.8766 -0.1170 -0.3022
   30MOL0     C 3888   3.154   8.030  10.679 -0.1088 -0.1229  0.1445
   30MOL0     C 3889   3.023   7.982  10.734  0.5933  0.7656 -0.3950
   30MOL0     C 3890   2.993   7.829  10.733  0.8424 -0.2652 -0.2556
   30MOL0     C 3891   2.914   7.798  10.855  0.0854  0.5945 -0.2309
   30MOL0     C 3892   2.847   7.781  10.956 -0.4851 -1.0082 -0.5744
   30MOL0     C 3893   3.314   8.406  10.954 -0.2965  0.0012  0.5363
   30MOL0     C 3894   3.401   8.466  11.049  0.4582 -0.6805 -0.0071
   30MOL0     H 3895   3.949   8.566  11.177 -1.5546 -0.3155 -0.4209
   30MOL0     H 3896   4.096   8.660  11.365 -0.9031  2.9871  0.5606
   30MOL0     H 3897   3.964   8.528  11.815 -0.0967 -0.4899 -1.5864
   30MOL0     H 3898   3.898   8.674  11.747  0.2424 -0.3454 -3.4347
   30MOL0     H 3899   4.176   8.669  11.871  0.0835 -2.2639  2.4000
   30MOL0     H 3900   4.014   8.708  11.939 -0.8222  0.5779 -0.6738
   30MOL0     H 3901   3.971   8.894  11.787 -0.1477 -0.1515  4.1509
   30MOL0     H 3902   4.133   8.859  11.710  0.0459 -1.8117 -0.6969
   30MOL0     H 3903   4.087   8.950  12.011 -0.5397  2.6796 -1.2252
   30MOL0     H 3904   4.243   8.932  11.924  0.7351  1.3227 -1.0575
   30MOL0     H 3905   4.000   9.108  11.857  0.1259  0.5469  1.9143
   30MOL0     H 3906   4.146   9.101  11.763 -0.4418  0.2308 -0.8163
   30MOL0     H 3907   4.267   9.183  11.994 -0.3053 -3.0796 -0.8511
   30MOL0     H 3908   4.100   9.239  12.022  1.2378  1.6686  0.2588
   30MOL0     H 3909   4.240   9.412  11.934 -1.1991  0.2764  1.3095
   30MOL0     H 3910   4.268   9.321  11.791 -2.3825  0.7877 -1.6154
   30MOL0     H 3911   3.993   9.339  11.751 -2.1557 -1.0849  2.8173
   30MOL0     H 3912   4.065   9.493  11.760 -2.0612 -0.7761 -0.1871
   30MOL0     H 3913   4.052   9.598  12.043 -0.2610  0.0005  1.3840
   30MOL0     H 3914   3.725   9.560  12.242 -0.4930  2.5943  3.4512
   30MOL0     H 3915   3.877   9.651  12.232 -2.4646 -0.1021 -1.8118
   30MOL0     H 3916   3.886   9.539  12.449  0.4196 -0.4049  0.0274
   30MOL0     H 3917   3.976   9.446  12.347  0.3715  2.4578 -0.7007
   30MOL0     H 3918   3.764   9.295  12.293 -2.9234  1.0325  0.8541
   30MOL0     H 3919   3.834   9.284  12.457  1.0122  2.3673  1.6250
   30MOL0     H 3920   3.596   9.466  12.411  1.4129  1.4055  0.1375
   30MOL0     H 3921   3.654   9.415  12.565 -2.3241  2.6272 -0.4358
   30MOL0     H 3922   3.366   9.442  12.424  0.6056 -0.3123 -0.4709
   30MOL0     H 3923   3.135   9.413  12.501  0.5525  2.4544  0.9278
   30MOL0     H 3924   2.963   9.303  12.945  0.8246 -0.5539 -2.5579
   30MOL0     H 3925   2.743   9.243  13.084 -0.8830  0.4234  0.1309
   30MOL0     H 3926   2.465   9.037  12.851  0.6976  0.5560 -0.4199
   30MOL0     H 3927   2.373   9.179  12.840 -0.5582 -1.9786 -1.8225
   30MOL0     H 3928   2.342   9.108  13.108  1.6625  3.4297 -2.2110
   30MOL0     H 3929   2.368   8.949  13.034 -3.1326 -0.1593 -0.9831
   30MOL0     H 3930   2.163   8.970  12.889 -0.5350  1.8803 -1.9923
   30MOL0     H 3931   2.157   9.136  12.924 -0.4951 -1.6778 -2.2156
   30MOL0     H 3932   2.113   8.901  13.131  0.3800 -0.2669  0.7845
   30MOL0     H 3933   2.109   9.072  13.182 -0.3748 -0.9665 -0.1971
   30MOL0     H 3934   1.912   8.931  12.988 -1.6808 -0.7207  1.4501
   30MOL0     H 3935   1.936   9.114  12.998 -1.1069  0.3615  0.4490
   30MOL0     H 3936   1.855   9.091  13.227  1.4566  0.4965 -1.3123
   30MOL0     H 3937   1.842   8.917  13.207  2.6073 -0.6802 -0.0353
   30MOL0     H 3938   1.683   9.130  13.062 -3.1259  0.0195  0.6999
   30MOL0     H 3939   1.688   8.967  13.006 -2.4229  0.1011 -0.9394
   30MOL0     H 3940   1.589   9.072  13.286  0.0766 -0.7386 -0.3884
   30MOL0     H 3941   1.599   8.902  13.253  0.7407  0.7425  2.6057
   30MOL0     H 3942   2.533   9.240  12.711  0.0284 -0.7789  0.5510
   30MOL0     H 3943   2.737   9.280  12.592  0.3023 -0.5264 -0.8493
   30MOL0     H 3944   3.243   9.045  12.685  1.3039  0.6406  0.9027
   30MOL0     H 3945   3.478   9.066  12.589  1.4641  0.7788 -0.8759
   30MOL0     H 3946   3.830   8.456  11.649 -0.1180  0.8845  0.2627
   30MOL0     H 3947   3.692   8.387  11.469 -1.3511  2.2325 -1.0015
   30MOL0     H 3948   3.625   8.207  11.096 -0.2241  0.5366  2.6434
   30MOL0     H 3949   3.460   8.096  10.942 -2.1821 -0.4083  0.1353
   30MOL0     H 3950   3.250   8.025  10.870 -3.1292 -0.9214 -0.7988
   30MOL0     H 3951   3.351   8.075  10.740  1.3359  1.4197  0.1853
   30MOL0     H 3952   3.138   8.093  10.591  1.1698 -0.5151 -0.3899
   30MOL0     H 3953   3.205   7.942  10.637  0.6913 -0.2862  1.3978
   30MOL0     H 3954   2.940   8.020  10.674 -1.3255 -1.7571  0.4923
   30MOL0     H 3955   3.024   8.012  10.839  2.2792 -2.0559  0.5203
   30MOL0     H 3956   2.940   7.817  10.638  0.9947  2.3857 -0.7355
   30MOL0     H 3957   3.087   7.773  10.733  1.4278  0.7065 -0.6060
   30MOL0     H 3958   2.790   7.729  11.031 -2.5360  1.8938  0.0567
   30MOL0     H 3959   3.226   8.460  10.920 -0.6597 -0.9523 -0.0767
   30MOL0     H 3960   3.389   8.572  11.069  2.3699 -0.5094  0.3940
   31MOL0     O 3961   4.751   8.394   6.987  0.3019 -0.6753 -0.2193
   31MOL0     C 3962   4.824   8.493   7.009  0.2268  0.1926 -1.0612
   31MOL0     O 3963   4.784   8.618   7.045 -0.1749  0.0528 -0.6328
   31MOL0     C 3964   4.660   8.643   7.101  0.6090 -0.0330  0.6218
   31MOL0     C 3965   4.657   8.623   7.236  0.0071 -0.1166  1.5907
   31MOL0     C 3966   4.553   8.673   7.300  0.1716  0.6826 -0.6684
   31MOL0     C 3967   4.436   8.728   7.242 -0.0276 -0.0360 -0.0440
   31MOL0     O 3968   4.315   8.766   7.305  0.2245 -0.1016 -0.0063
   31MOL0     C 3969   4.289   8.682   7.415 -0.5573  0.0408 -0.3061
   31MOL0     C 3970   4.165   8.739   7.480 -0.1605  0.8784 -0.8687
   31MOL0     C 3971   4.163   8.892   7.519 -1.1346 -0.0367  0.3964
   31MOL0     C 3972   4.040   8.914   7.618  0.6852 -0.3536  0.5048
   31MOL0     C 3973   4.093   8.855   7.751 -0.6289 -0.0064 -0.3438
   31MOL0     C 3974   4.065   8.929   7.881  0.6434 -0.1602 -0.4527
   31MOL0     C 3975   4.057   8.843   8.009 -0.7994  0.3158  0.1783
   31MOL0     C 3976   3.962   8.721   7.980 -0.0215  0.2067 -1.0065
   31MOL0     N 3977   3.939   8.655   8.112 -0.3122  0.2556 -0.4820
   31MOL0     C 3978   3.816   8.669   8.179  0.1724 -0.2871 -0.7579
   31MOL0     C 3979   3.796   8.562   8.251  0.0904  0.0920  0.4283
   31MOL0     C 3980   3.662   8.520   8.302  0.1387 -0.6275 -0.4466
   31MOL0     C 3981   3.554   8.502   8.198 -0.3708 -0.0060 -0.1206
   31MOL0     C 3982   3.582   8.370   8.120 -0.1866 -0.4837  0.3155
   31MOL0     C 3983   3.475   8.338   8.003  1.2201  0.4900  0.1038
   31MOL0     O 3984   3.471   8.437   7.901  0.1859 -0.7413  0.5550
   31MOL0     C 3985   3.390   8.405   7.794  0.1025  1.3608  0.8858
   31MOL0     C 3986   3.312   8.284   7.789  0.8302 -0.6786  0.6293
   31MOL0     C 3987   3.227   8.250   7.682 -0.7298 -0.0545  0.6386
   31MOL0     C 3988   3.239   8.335   7.564 -0.0090  0.6789 -0.2495
   31MOL0     C 3989   3.156   8.299   7.452  0.7055 -0.3155 -0.4053
   31MOL0     O 3990   3.206   8.317   7.330 -1.0538 -0.4801  0.7924
   31MOL0     C 3991   3.140   8.279   7.211 -0.0645 -0.8469 -0.1850
   31MOL0     C 3992   3.141   8.373   7.109  0.3806 -0.4917 -0.1962
   31MOL0     C 3993   3.091   8.347   6.982 -0.4792  0.5420  0.9707
   31MOL0     C 3994   3.028   8.222   6.961 -0.1213  0.5278 -1.5922
   31MOL0     O 3995   2.974   8.205   6.841  0.4888 -0.1933 -0.7105
   31MOL0     C 3996   2.943   8.081   6.775  0.2204  0.5754  0.7951
   31MOL0     C 3997   2.941   8.101   6.623  0.2444  0.1098 -0.2577
   31MOL0     C 3998   2.897   7.987   6.539 -0.0868  0.3835  0.9626
   31MOL0     C 3999   2.936   8.026   6.394 -0.0716 -0.0436  0.0632
   31MOL0     C 4000   2.927   7.920   6.277 -0.3182 -0.2904  0.6690
   31MOL0     C 4001   2.803   7.839   6.292  0.7934 -0.2310  0.0072
   31MOL0     C 4002   2.675   7.916   6.250 -0.8595  0.6754 -1.2403
   31MOL0     C 4003   2.546   7.829   6.257 -1.2055  0.3822  0.5495
   31MOL0    Cl 4004   2.572   7.670   6.165  0.4978  0.1242  0.4719
   31MOL0     C 4005   3.023   8.129   7.060 -0.4337  0.5277 -0.3322
   31MOL0     C 4006   3.077   8.157   7.193  0.2474 -0.4565  0.2007
   31MOL0     O 4007   3.034   8.266   7.471 -0.4034 -0.4843 -0.2346
   31MOL0     C 4008   3.307   8.452   7.567 -0.5232  0.1636  0.0559
   31MOL0     C 4009   3.387   8.489   7.682  0.3823 -0.5256  0.3609
   31MOL0     N 4010   3.912   8.478   8.240  0.3673 -0.1522 -0.1238
   31MOL0     N 4011   3.996   8.535   8.157  0.1977  0.6791  1.2734
   31MOL0     C 4012   4.448   8.737   7.098 -0.3866 -1.0473  0.7814
   31MOL0     C 4013   4.568   8.709   7.035  0.0966  0.1475  0.0422
   31MOL0     C 4014   4.958   8.461   6.976  0.3179 -0.2942 -1.4549
   31MOL0     C 4015   5.054   8.560   6.960  0.3601 -0.9121 -0.5683
   31MOL0     C 4016   5.191   8.536   6.932 -2.2041  0.7594  0.3325
   31MOL0     C 4017   5.237   8.404   6.922  0.2866 -0.2400 -0.3472
   31MOL0     O 4018   5.368   8.373   6.888 -0.2558 -0.4295  0.0370
   31MOL0     C 4019   5.462   8.484   6.893  0.4339 -0.3027 -0.3325
   31MOL0     C 4020   5.522   8.528   7.023  0.8805 -0.6451 -0.5578
   31MOL0     C 4021   5.636   8.636   7.023 -0.2928 -0.2015 -0.3267
   31MOL0     C 4022   5.631   8.758   6.929  0.2790 -0.9675  0.9932
   31MOL0     C 4023   5.493   8.813   6.907 -0.0637  0.4820  0.1864
   31MOL0     C 4024   5.391   8.866   6.875 -0.3387  0.0002  0.1196
   31MOL0     C 4025   5.147   8.298   6.942  0.5383 -0.8370  0.1111
   31MOL0     C 4026   5.007   8.328   6.968 -0.6610 -0.1798 -0.2538
   31MOL0     H 4027   4.750   8.590   7.280  1.4667 -0.6595 -1.5592
   31MOL0     H 4028   4.554   8.653   7.407  1.7267 -0.8119 -0.9195
   31MOL0     H 4029   4.369   8.691   7.490  1.9884  0.5123 -2.9219
   31MOL0     H 4030   4.269   8.579   7.385  0.6840  0.0120 -1.0820
   31MOL0     H 4031   4.149   8.675   7.567  0.8483  1.6272 -0.1029
   31MOL0     H 4032   4.082   8.741   7.409 -2.2067  0.1859  1.3777
   31MOL0     H 4033   4.140   8.958   7.434  0.7597  6.3770  4.2082
   31MOL0     H 4034   4.260   8.919   7.561 -1.9775  0.5683  2.0241
   31MOL0     H 4035   4.024   9.021   7.634  0.6927 -0.2796  0.0274
   31MOL0     H 4036   3.951   8.860   7.583 -0.3877  1.3588  0.4806
   31MOL0     H 4037   4.201   8.836   7.750 -0.5143  0.5605 -1.9263
   31MOL0     H 4038   4.060   8.751   7.750  1.2205 -0.6302 -0.5981
   31MOL0     H 4039   3.967   8.978   7.875  0.8277  0.2037 -0.5680
   31MOL0     H 4040   4.140   9.009   7.890  0.7884 -0.3991  0.6636
   31MOL0     H 4041   4.156   8.805   8.035 -0.8579  0.0413  0.0114
   31MOL0     H 4042   4.021   8.905   8.091 -0.9366  2.2302 -1.2490
   31MOL0     H 4043   4.027   8.644   7.937  4.3882  3.2675 -0.4373
   31MOL0     H 4044   3.865   8.735   7.932 -2.1678 -1.4445  2.3934
   31MOL0     H 4045   3.736   8.740   8.161  0.2920 -0.0870 -0.5074
   31MOL0     H 4046   3.637   8.593   8.380 -1.0037  1.5937 -2.7534
   31MOL0     H 4047   3.679   8.430   8.361  2.1022 -0.0520 -0.0274
   31MOL0     H 4048   3.557   8.589   8.133  0.3007 -0.9146 -1.3484
   31MOL0     H 4049   3.456   8.493   8.247  0.3859 -0.7625  1.3162
   31MOL0     H 4050   3.678   8.392   8.072  1.2619 -2.3977  2.1143
   31MOL0     H 4051   3.586   8.277   8.179  0.4261 -2.1616 -2.2189
   31MOL0     H 4052   3.375   8.337   8.047  0.6992  1.1303 -1.0359
   31MOL0     H 4053   3.499   8.236   7.972 -1.8087 -0.6798  1.2643
   31MOL0     H 4054   3.316   8.210   7.868  1.1120 -1.9080 -0.5000
   31MOL0     H 4055   3.176   8.154   7.683 -1.3338  0.2038 -1.3883
   31MOL0     H 4056   3.190   8.467   7.131  0.9141  0.4371 -4.5713
   31MOL0     H 4057   3.103   8.422   6.905  0.6053 -0.5277  0.0577
   31MOL0     H 4058   2.853   8.036   6.818  0.7109 -1.5742 -0.2824
   31MOL0     H 4059   3.027   8.012   6.785 -1.6446 -1.9218  0.2608
   31MOL0     H 4060   3.042   8.134   6.596  0.8859 -0.3671  1.4509
   31MOL0     H 4061   2.876   8.187   6.607 -0.8249  0.2962  4.0504
   31MOL0     H 4062   2.792   7.967   6.561 -0.0765  0.9259  1.5129
   31MOL0     H 4063   2.956   7.897   6.558 -0.2627  0.2999  1.1225
   31MOL0     H 4064   2.859   8.096   6.360  0.9834 -0.0441 -2.5551
   31MOL0     H 4065   3.027   8.083   6.376 -0.0167 -0.2619 -0.3538
   31MOL0     H 4066   3.015   7.857   6.287 -0.6603 -0.4904  2.9967
   31MOL0     H 4067   2.932   7.966   6.178  2.5681 -1.3725  0.2194
   31MOL0     H 4068   2.795   7.796   6.392 -0.9968 -1.9076 -0.7838
   31MOL0     H 4069   2.809   7.749   6.231 -0.8043  1.2766 -2.5399
   31MOL0     H 4070   2.664   7.992   6.328 -1.7652 -1.1427  0.4999
   31MOL0     H 4071   2.692   7.946   6.147  0.1717 -0.7189 -1.5065
   31MOL0     H 4072   2.463   7.888   6.217  0.0223  1.8746  0.1043
   31MOL0     H 4073   2.534   7.804   6.363  2.4806 -1.2236  0.7503
   31MOL0     H 4074   2.966   8.037   7.057  0.9119 -0.3155 -3.1892
   31MOL0     H 4075   3.065   8.084   7.273 -2.9457 -2.1205 -1.5746
   31MOL0     H 4076   3.299   8.515   7.480 -3.7706  0.8886  0.7647
   31MOL0     H 4077   3.452   8.575   7.692  0.1867 -0.5238  1.7004
   31MOL0     H 4078   4.369   8.769   7.030  0.9478  1.9595  0.4884
   31MOL0     H 4079   4.574   8.705   6.927  1.1881  0.1241  0.0917
   31MOL0     H 4080   5.027   8.661   6.988  0.3484 -1.2155  0.5576
   31MOL0     H 4081   5.262   8.618   6.938 -2.0315  0.8416 -1.9196
   31MOL0     H 4082   5.430   8.573   6.838  2.7589  0.7329 -0.1354
   31MOL0     H 4083   5.545   8.449   6.832 -0.7246 -1.0231 -1.5525
   31MOL0     H 4084   5.446   8.574   7.086  0.9273 -2.7259  1.1194
   31MOL0     H 4085   5.565   8.443   7.077  0.9317 -0.3516 -0.1287
   31MOL0     H 4086   5.719   8.573   6.989 -0.3633  0.1023 -1.1001
   31MOL0     H 4087   5.659   8.665   7.126  1.1825 -0.7599 -0.4645
   31MOL0     H 4088   5.696   8.833   6.974  1.9255 -2.2698  0.8702
   31MOL0     H 4089   5.674   8.734   6.831 -1.5542  0.2807 -0.1740
   31MOL0     H 4090   5.300   8.901   6.830 -3.2041 -4.6962  1.5174
   31MOL0     H 4091   5.195   8.202   6.932 -1.3041 -1.6367 -1.7888
   31MOL0     H 4092   4.949   8.237   6.956  3.1792 -2.5948 -2.6724
   32MOL0     O 4093   2.145  10.486  10.666 -0.3041  0.7529 -0.6748
   32MOL0     C 4094   2.241  10.428  10.727  0.6908 -0.2307  0.0232
   32MOL0     O 4095   2.246  10.297  10.768  0.1036 -0.2251  0.0941
   32MOL0     C 4096   2.172  10.204  10.703 -0.8086  0.4532 -0.0878
   32MOL0     C 4097   2.131  10.088  10.774 -0.0603 -0.9286  0.2561
   32MOL0     C 4098   2.053   9.989  10.716  0.6184  0.3965 -0.9962
   32MOL0     C 4099   1.993  10.013  10.589 -0.1896 -0.3824  0.3004
   32MOL0     O 4100   1.889   9.935  10.539 -1.0003  0.7610  0.0407
   32MOL0     C 4101   1.914   9.796  10.535 -0.1889  0.4417  0.3235
   32MOL0     C 4102   1.867   9.753  10.395  1.1312  0.2505 -0.2203
   32MOL0     C 4103   1.866   9.591  10.393 -0.2673  0.2178  0.5159
   32MOL0     C 4104   1.850   9.531  10.252  0.4959  0.2065  0.1608
   32MOL0     C 4105   1.941   9.571  10.132 -0.3463 -0.5225  0.2493
   32MOL0     C 4106   2.090   9.568  10.155 -0.5066  0.2768 -0.1110
   32MOL0     C 4107   2.177   9.581  10.035  0.1910  0.4291 -0.4017
   32MOL0     C 4108   2.328   9.582  10.064 -0.6068 -0.1050  1.0025
   32MOL0     N 4109   2.385   9.490  10.157  0.5622 -0.6182 -0.0835
   32MOL0     C 4110   2.406   9.358  10.126 -1.1887 -0.0729  0.5479
   32MOL0     C 4111   2.453   9.298  10.239  1.4606  0.1220  1.4771
   32MOL0     C 4112   2.536   9.172  10.240 -0.5140 -0.3658 -0.4635
   32MOL0     C 4113   2.686   9.216  10.263 -0.2571  0.4527  0.0343
   32MOL0     C 4114   2.762   9.282  10.149  0.4840  0.1176  0.3321
   32MOL0     C 4115   2.839   9.406  10.163  0.8309 -0.0283 -0.2358
   32MOL0     O 4116   2.916   9.404  10.285 -0.2425  0.8019  0.6278
   32MOL0     C 4117   3.056   9.389  10.267  1.1466  0.3005  1.1382
   32MOL0     C 4118   3.102   9.307  10.166 -0.4800  0.2849 -0.1089
   32MOL0     C 4119   3.241   9.296  10.152  0.9382 -0.2140  0.2357
   32MOL0     C 4120   3.328   9.373  10.230 -0.4181  0.2133  0.3068
   32MOL0     C 4121   3.475   9.336  10.222 -0.8701 -0.1387 -0.8305
   32MOL0     O 4122   3.555   9.359  10.334  0.1091  0.1880 -0.6500
   32MOL0     C 4123   3.688   9.339  10.352  0.4077 -0.0285 -0.3763
   32MOL0     C 4124   3.779   9.318  10.259 -0.0975  0.0021  0.8746
   32MOL0     C 4125   3.918   9.316  10.284 -0.3204 -1.0919  0.5113
   32MOL0     C 4126   3.960   9.327  10.416  0.2287 -0.3511 -0.4589
   32MOL0     O 4127   4.095   9.327  10.441  0.7239 -0.0117 -0.4375
   32MOL0     C 4128   4.144   9.191  10.466  0.2615 -1.2100  0.8391
   32MOL0     C 4129   4.261   9.173  10.366 -0.5768  0.0668 -0.1757
   32MOL0     C 4130   4.380   9.266  10.392  0.4845  0.3670  0.0444
   32MOL0     C 4131   4.487   9.237  10.285 -0.2980  0.7187 -0.1913
   32MOL0     C 4132   4.614   9.322  10.299  0.0530  0.0368  0.3980
   32MOL0     C 4133   4.590   9.471  10.328  0.5285 -0.3612 -0.4869
   32MOL0     C 4134   4.711   9.561  10.339 -0.0595  0.1403  0.0766
   32MOL0     C 4135   4.839   9.510  10.407  1.1325  0.4346 -0.2555
   32MOL0    Cl 4136   4.819   9.474  10.591 -0.4403 -0.7119  0.1297
   32MOL0     C 4137   3.858   9.351  10.512 -0.7499  0.4310 -0.3870
   32MOL0     C 4138   3.732   9.353  10.482  0.0093  0.1155 -0.1207
   32MOL0     O 4139   3.522   9.321  10.105 -0.6722  0.5805 -0.3355
   32MOL0     C 4140   3.278   9.461  10.326  0.3610 -0.0812 -0.4966
   32MOL0     C 4141   3.135   9.465  10.344  0.1732  1.1145 -0.6740
   32MOL0     N 4142   2.447   9.393  10.340 -0.1970 -0.3200  0.0995
   32MOL0     N 4143   2.418   9.508  10.285 -0.1103  0.3006 -0.6825
   32MOL0     C 4144   2.034  10.133  10.517  0.3078 -0.3811 -0.9025
   32MOL0     C 4145   2.124  10.217  10.576 -1.1854 -0.8749  0.2940
   32MOL0     C 4146   2.352  10.510  10.758  0.2438  0.3223 -0.3059
   32MOL0     C 4147   2.477  10.446  10.773 -1.2168 -0.3074  0.8200
   32MOL0     C 4148   2.596  10.515  10.804  0.0487 -0.3948  0.7128
   32MOL0     C 4149   2.584  10.659  10.810  0.2491  0.4989 -0.8362
   32MOL0     O 4150   2.697  10.735  10.835 -0.2821  0.5413  0.8413
   32MOL0     C 4151   2.714  10.858  10.759  0.4546  1.1694  0.2695
   32MOL0     C 4152   2.724  10.839  10.607 -0.1906  0.1807 -0.4395
   32MOL0     C 4153   2.843  10.746  10.563  0.9427 -0.4921  0.2264
   32MOL0     C 4154   2.961  10.736  10.655 -0.4418  0.6472 -0.3271
   32MOL0     C 4155   3.020  10.875  10.656  0.4452 -0.2936 -0.2650
   32MOL0     C 4156   3.071  10.978  10.633  0.1126 -1.4763 -0.8753
   32MOL0     C 4157   2.459  10.715  10.794  0.9607  0.3433 -0.0627
   32MOL0     C 4158   2.341  10.646  10.760 -0.0038  0.9442  1.0299
   32MOL0     H 4159   2.171  10.079  10.874 -1.2835  2.4232  1.1942
   32MOL0     H 4160   2.019   9.910  10.782  0.5058  2.2233  1.2183
   32MOL0     H 4161   1.862   9.745  10.617 -1.6793 -1.4567 -1.6856
   32MOL0     H 4162   2.020   9.767  10.538  0.2422  1.7967 -0.6962
   32MOL0     H 4163   1.942   9.797  10.330  0.3775  1.5451 -0.2477
   32MOL0     H 4164   1.766   9.791  10.375  1.6946  3.1316  1.7614
   32MOL0     H 4165   1.792   9.551  10.462 -2.7157  2.0208 -0.9027
   32MOL0     H 4166   1.964   9.556  10.429  0.8959  0.1983 -2.4052
   32MOL0     H 4167   1.845   9.423  10.266  0.7921 -0.2294 -2.4993
   32MOL0     H 4168   1.752   9.567  10.219 -0.0603  0.9643  2.4609
   32MOL0     H 4169   1.918   9.676  10.111 -0.9172 -0.9668 -1.5025
   32MOL0     H 4170   1.935   9.505  10.045  2.4665 -0.2654 -0.2185
   32MOL0     H 4171   2.109   9.477  10.213  0.6859  0.2749 -0.4764
   32MOL0     H 4172   2.118   9.641  10.232  0.5139 -0.6808  0.4523
   32MOL0     H 4173   2.143   9.501   9.969 -0.0225  1.6342 -1.8180
   32MOL0     H 4174   2.152   9.669   9.974 -1.3778 -1.0002 -1.9529
   32MOL0     H 4175   2.362   9.683  10.090 -0.9895  0.0453  0.9309
   32MOL0     H 4176   2.376   9.557   9.969 -1.4615 -0.8036  0.7385
   32MOL0     H 4177   2.399   9.310  10.029  3.2990  0.4799 -0.2643
   32MOL0     H 4178   2.513   9.117  10.148 -1.6554  1.7858 -1.5383
   32MOL0     H 4179   2.498   9.113  10.324 -2.1987  2.8427  1.2201
   32MOL0     H 4180   2.728   9.119  10.292 -2.0529 -1.2600 -2.6121
   32MOL0     H 4181   2.680   9.287  10.346 -2.4080  1.1786 -0.6673
   32MOL0     H 4182   2.834   9.207  10.117 -0.4136 -1.9359  2.7111
   32MOL0     H 4183   2.702   9.291  10.058  3.6270  0.7796 -1.8347
   32MOL0     H 4184   2.779   9.498  10.163  0.8314  0.0798  2.7467
   32MOL0     H 4185   2.906   9.409  10.077  2.0044  0.9051  0.6633
   32MOL0     H 4186   3.036   9.257  10.096 -2.3130 -0.3948  2.0204
   32MOL0     H 4187   3.282   9.230  10.076 -0.2746 -0.3629 -0.3101
   32MOL0     H 4188   3.757   9.309  10.153  0.3180 -1.3677  0.8936
   32MOL0     H 4189   3.981   9.283  10.202  1.3582 -1.2389  1.7916
   32MOL0     H 4190   4.068   9.116  10.441  1.5361 -2.4509  0.5909
   32MOL0     H 4191   4.165   9.179  10.573 -2.8160  0.4797  1.7593
   32MOL0     H 4192   4.231   9.186  10.261 -0.6836  0.5847 -0.0830
   32MOL0     H 4193   4.295   9.070  10.368 -1.0518 -0.0885  1.6015
   32MOL0     H 4194   4.421   9.263  10.494  0.2742  1.5564  0.1785
   32MOL0     H 4195   4.337   9.366  10.383 -2.9044 -1.0806 -1.5557
   32MOL0     H 4196   4.517   9.132  10.287 -0.1757  0.7476 -0.4128
   32MOL0     H 4197   4.439   9.245  10.187 -0.2235  0.2443 -0.2695
   32MOL0     H 4198   4.691   9.288  10.228 -0.6696 -1.1900  0.1755
   32MOL0     H 4199   4.648   9.286  10.396 -2.3303 -3.4015  0.1582
   32MOL0     H 4200   4.528   9.480  10.417 -2.0464  2.8763 -2.3585
   32MOL0     H 4201   4.525   9.503  10.246 -2.2650 -1.2477  1.2592
   32MOL0     H 4202   4.735   9.597  10.239 -0.2642  1.6451  0.5306
   32MOL0     H 4203   4.677   9.649  10.396 -0.7198 -0.2263  0.2647
   32MOL0     H 4204   4.924   9.577  10.392  1.0857  0.2606 -1.3183
   32MOL0     H 4205   4.865   9.417  10.355  0.2214 -0.5152  0.9151
   32MOL0     H 4206   3.893   9.355  10.615  1.9202 -2.0870 -1.0672
   32MOL0     H 4207   3.652   9.373  10.553 -0.1959  2.1095 -0.8511
   32MOL0     H 4208   3.337   9.520  10.395 -1.5973 -0.9898  2.0730
   32MOL0     H 4209   3.087   9.517  10.426 -2.9731 -3.0037  0.4245
   32MOL0     H 4210   1.979  10.161  10.427 -2.1273 -1.4686  0.1645
   32MOL0     H 4211   2.156  10.302  10.517  1.5239 -3.6726 -2.7447
   32MOL0     H 4212   2.491  10.339  10.757 -0.1240 -0.0324 -0.1477
   32MOL0     H 4213   2.688  10.461  10.821 -0.2300 -1.0148  0.2741
   32MOL0     H 4214   2.799  10.916  10.797  2.8375 -3.2284  2.4521
   32MOL0     H 4215   2.626  10.920  10.770 -1.6367 -0.9897 -2.6567
   32MOL0     H 4216   2.630  10.797  10.569 -1.0456  4.4069 -3.7099
   32MOL0     H 4217   2.724  10.941  10.568 -0.7802  1.4210  2.5707
   32MOL0     H 4218   2.884  10.778  10.466  1.2105 -0.5227  0.3292
   32MOL0     H 4219   2.814  10.642  10.547  0.2104 -0.2329 -0.2113
   32MOL0     H 4220   2.948  10.696  10.756  1.2675  0.0648 -0.3065
   32MOL0     H 4221   3.039  10.666  10.626 -0.0156  1.2400 -0.6388
   32MOL0     H 4222   3.128  11.066  10.614  0.8885 -1.5673  0.8472
   32MOL0     H 4223   2.440  10.820  10.815  2.3553  0.6755 -0.3581
   32MOL0     H 4224   2.258  10.704  10.723 -0.3452 -0.9992 -1.5087
   33MOL0     O 4225   2.708  10.770   2.385 -0.4641  0.1012  0.2833
   33MOL0     C 4226   2.729  10.879   2.434  0.1995 -0.7648  0.2992
   33MOL0     O 4227   2.820  10.913   2.533 -0.4364 -0.3942 -0.4136
   33MOL0     C 4228   2.889  10.800   2.578  0.1067 -1.3173 -0.6984
   33MOL0     C 4229   2.968  10.719   2.497 -0.1706 -0.5423  0.1145
   33MOL0     C 4230   3.042  10.613   2.556  0.4055  0.8032 -0.1820
   33MOL0     C 4231   3.027  10.583   2.691 -0.1257  1.3333  0.7798
   33MOL0     O 4232   3.096  10.478   2.749 -0.1796 -0.7662  0.1722
   33MOL0     C 4233   3.135  10.364   2.670  0.1865 -0.7344  0.3620
   33MOL0     C 4234   3.216  10.258   2.748  0.5407 -0.3989 -0.0148
   33MOL0     C 4235   3.370  10.300   2.740  0.6917  0.2607 -0.7578
   33MOL0     C 4236   3.452  10.179   2.793  0.2111  0.7434  0.1146
   33MOL0     C 4237   3.591  10.161   2.715  0.5596 -0.1517 -0.5014
   33MOL0     C 4238   3.692  10.267   2.771  0.3164 -0.2417 -0.3890
   33MOL0     C 4239   3.836  10.209   2.736 -0.2018 -0.2280 -0.4573
   33MOL0     C 4240   3.944  10.322   2.738  0.2732  0.8932  0.4513
   33MOL0     N 4241   4.077  10.264   2.740  0.0820 -0.1165  0.0249
   33MOL0     C 4242   4.128  10.174   2.829 -0.5328  0.7250 -0.3422
   33MOL0     C 4243   4.263  10.163   2.795  0.5656  0.1159  0.5715
   33MOL0     C 4244   4.370  10.076   2.858 -0.6880  0.6358 -0.5932
   33MOL0     C 4245   4.354   9.925   2.837 -0.3680 -0.8767  0.2820
   33MOL0     C 4246   4.264   9.830   2.923 -0.2534 -0.3362 -0.3008
   33MOL0     C 4247   4.257   9.845   3.081 -0.2263 -0.8390  0.6875
   33MOL0     O 4248   4.393   9.846   3.129  0.5106 -0.2792 -0.4328
   33MOL0     C 4249   4.420   9.746   3.221 -0.2623  0.4988 -0.9698
   33MOL0     C 4250   4.340   9.699   3.331 -0.6104 -0.2070  0.5360
   33MOL0     C 4251   4.359   9.579   3.400 -0.5606  0.1056 -1.0526
   33MOL0     C 4252   4.472   9.507   3.372  0.4979  0.0305  0.3670
   33MOL0     C 4253   4.503   9.385   3.450 -0.1739 -0.3817  1.1082
   33MOL0     O 4254   4.589   9.299   3.382  0.4180 -0.5490 -0.0669
   33MOL0     C 4255   4.635   9.197   3.458  0.3150  0.5058  0.1358
   33MOL0     C 4256   4.726   9.219   3.570  0.7991  0.5301  0.2564
   33MOL0     C 4257   4.772   9.106   3.650 -0.3629 -0.4061  0.3540
   33MOL0     C 4258   4.745   8.976   3.608  0.8737  0.1946 -0.7368
   33MOL0     O 4259   4.810   8.878   3.683  0.6983  0.2571  0.4236
   33MOL0     C 4260   4.736   8.791   3.769 -0.7670  0.0634  0.4861
   33MOL0     C 4261   4.809   8.787   3.904  0.7649 -1.0841 -0.1294
   33MOL0     C 4262   4.752   8.675   3.996  0.7360 -0.3230 -0.4064
   33MOL0     C 4263   4.813   8.655   4.139 -0.2626  0.3944 -0.7718
   33MOL0     C 4264   4.895   8.769   4.205 -0.5128 -0.0359  0.0055
   33MOL0     C 4265   4.898   8.748   4.350  0.4392  0.4994  0.5412
   33MOL0     C 4266   5.030   8.780   4.395 -0.3307  0.8885  0.2048
   33MOL0     C 4267   5.022   8.794   4.556  0.0130  0.4592  0.2401
   33MOL0    Cl 4268   4.912   8.929   4.603  0.2906 -0.5855  0.4334
   33MOL0     C 4269   4.660   8.957   3.494  0.3459  0.6720 -0.2606
   33MOL0     C 4270   4.602   9.061   3.429  0.3304  0.8543 -0.7575
   33MOL0     O 4271   4.450   9.372   3.559  0.1678  0.4894 -0.1119
   33MOL0     C 4272   4.564   9.562   3.273  0.4594  0.1578 -0.4489
   33MOL0     C 4273   4.538   9.677   3.205 -0.0045  0.4240 -0.6052
   33MOL0     N 4274   4.282  10.243   2.685 -0.7134  0.0488 -0.8427
   33MOL0     N 4275   4.177  10.300   2.657  0.7300  0.3670  0.8292
   33MOL0     C 4276   2.937  10.667   2.764  0.8412  0.6985 -0.0771
   33MOL0     C 4277   2.878  10.772   2.711 -0.9482 -0.5102 -0.1831
   33MOL0     C 4278   2.659  10.988   2.364  0.7141  0.7029  0.2210
   33MOL0     C 4279   2.653  11.115   2.429  0.8023  0.7071 -0.0849
   33MOL0     C 4280   2.555  11.212   2.398  0.1937  0.4683  0.4412
   33MOL0     C 4281   2.480  11.192   2.285  0.0073  0.4796 -0.3738
   33MOL0     O 4282   2.398  11.302   2.248 -0.6191  0.3158 -0.6140
   33MOL0     C 4283   2.272  11.263   2.193 -0.1002  0.3961 -0.2436
   33MOL0     C 4284   2.189  11.379   2.138 -0.7127  0.3620 -1.3952
   33MOL0     C 4285   2.074  11.323   2.057  0.3237  0.1630  0.5461
   33MOL0     C 4286   1.970  11.431   2.025  0.7704 -0.7526  0.3768
   33MOL0     C 4287   1.896  11.492   2.142 -0.6127 -0.4129 -0.5985
   33MOL0     C 4288   1.864  11.523   2.252  0.5494 -0.1473  0.0226
   33MOL0     C 4289   2.497  11.075   2.208  0.1154 -0.1273  0.2770
   33MOL0     C 4290   2.577  10.971   2.255  0.9171  0.4924 -0.2460
   33MOL0     H 4291   2.969  10.750   2.393 -2.7646  1.7228  0.6333
   33MOL0     H 4292   3.105  10.552   2.491  3.7233  1.4331  2.1545
   33MOL0     H 4293   3.208  10.388   2.592 -0.1388 -0.6675  0.0768
   33MOL0     H 4294   3.046  10.320   2.625 -0.0696 -2.1175  2.1007
   33MOL0     H 4295   3.200  10.161   2.700 -0.6297 -0.0194 -0.4304
   33MOL0     H 4296   3.169  10.243   2.846 -0.4423  0.5065 -0.3282
   33MOL0     H 4297   3.380  10.382   2.813 -2.2574  0.6859 -0.7200
   33MOL0     H 4298   3.408  10.337   2.645  2.0703  2.0170  0.4072
   33MOL0     H 4299   3.455  10.192   2.902 -1.9872 -0.9882  0.4520
   33MOL0     H 4300   3.387  10.093   2.777  1.5698 -0.4244  0.6677
   33MOL0     H 4301   3.585  10.176   2.607  2.6191 -0.3422 -0.6885
   33MOL0     H 4302   3.620  10.058   2.738  3.2805  0.0305 -2.6278
   33MOL0     H 4303   3.686  10.294   2.877  1.2801 -0.2470 -0.3310
   33MOL0     H 4304   3.688  10.367   2.726  3.5672  0.7413  1.2419
   33MOL0     H 4305   3.865  10.129   2.805  1.4180  0.1925 -0.6228
   33MOL0     H 4306   3.833  10.164   2.636  1.6728 -1.3633 -0.0625
   33MOL0     H 4307   3.929  10.390   2.823  3.2262 -2.1088  3.7178
   33MOL0     H 4308   3.932  10.384   2.649 -0.4365 -0.5791 -0.5168
   33MOL0     H 4309   4.075  10.141   2.918  4.0636 -1.7838  1.8135
   33MOL0     H 4310   4.378  10.096   2.965 -1.2499 -1.2207 -0.1562
   33MOL0     H 4311   4.470  10.098   2.819 -0.4831 -2.6598 -2.3130
   33MOL0     H 4312   4.457   9.889   2.852 -0.7342 -1.7046  0.9386
   33MOL0     H 4313   4.330   9.915   2.731  2.0973 -2.0000 -0.2473
   33MOL0     H 4314   4.161   9.851   2.894  0.5891 -0.6027 -3.8841
   33MOL0     H 4315   4.280   9.725   2.896 -2.9423 -0.5573 -1.3364
   33MOL0     H 4316   4.194   9.769   3.128 -2.3864 -0.0689 -0.8381
   33MOL0     H 4317   4.198   9.935   3.098 -1.3667 -1.1702 -1.2243
   33MOL0     H 4318   4.256   9.766   3.344  2.0641  3.7745 -0.8343
   33MOL0     H 4319   4.288   9.551   3.477  0.9043  0.5590  0.5056
   33MOL0     H 4320   4.764   9.319   3.584  1.5776  0.3965 -0.8133
   33MOL0     H 4321   4.846   9.131   3.725 -2.2877  0.6528  1.9984
   33MOL0     H 4322   4.758   8.697   3.716  0.4500  0.2442  0.6440
   33MOL0     H 4323   4.631   8.822   3.779 -0.6246  0.6241  0.2686
   33MOL0     H 4324   4.792   8.879   3.960  0.4285  0.3227 -2.4320
   33MOL0     H 4325   4.916   8.764   3.897  1.5498  1.4982  1.6824
   33MOL0     H 4326   4.744   8.574   3.956 -0.3283 -0.2938 -0.3215
   33MOL0     H 4327   4.649   8.705   4.018  2.6389  4.1445  4.6541
   33MOL0     H 4328   4.732   8.626   4.207  0.1442  2.0808  0.5096
   33MOL0     H 4329   4.881   8.570   4.131 -1.0733 -0.2296 -1.2222
   33MOL0     H 4330   4.845   8.864   4.185  2.9257  1.5679 -1.7249
   33MOL0     H 4331   4.993   8.790   4.161 -0.2345  2.7525  1.7449
   33MOL0     H 4332   4.870   8.647   4.381  0.5189  0.8584  1.8477
   33MOL0     H 4333   4.828   8.818   4.398 -0.6945 -0.9816  1.1138
   33MOL0     H 4334   5.104   8.706   4.363  0.0796  1.2216  0.3647
   33MOL0     H 4335   5.070   8.875   4.358  2.6868 -0.3580 -0.0772
   33MOL0     H 4336   5.120   8.809   4.601  0.1156  1.4580 -0.3000
   33MOL0     H 4337   4.985   8.695   4.587  0.5722 -0.7020 -2.4351
   33MOL0     H 4338   4.626   8.858   3.466  0.1396  1.5380 -3.3805
   33MOL0     H 4339   4.538   9.041   3.344  0.8187  0.8301 -1.1272
   33MOL0     H 4340   4.658   9.515   3.245  0.8365  2.0796 -2.7794
   33MOL0     H 4341   4.612   9.718   3.138  2.3273  2.7148  2.9950
   33MOL0     H 4342   2.927  10.641   2.869 -0.2154 -1.1448 -0.5968
   33MOL0     H 4343   2.806  10.830   2.767 -0.6529  1.7079 -1.9350
   33MOL0     H 4344   2.712  11.125   2.520  3.1286 -0.2114 -1.3857
   33MOL0     H 4345   2.561  11.304   2.454 -1.2582 -0.2352  1.8343
   33MOL0     H 4346   2.221  11.194   2.260 -0.0551  1.9046  1.4343
   33MOL0     H 4347   2.296  11.203   2.105  4.5440  0.8440  0.4343
   33MOL0     H 4348   2.153  11.453   2.210 -1.0852 -1.6536  0.5872
   33MOL0     H 4349   2.259  11.429   2.071  3.2782 -2.8611 -0.0121
   33MOL0     H 4350   2.032  11.239   2.114  3.2172 -0.8870  1.2969
   33MOL0     H 4351   2.124  11.287   1.967 -3.5694 -1.7509 -1.1188
   33MOL0     H 4352   2.008  11.510   1.959 -2.9893  1.7600  0.9003
   33MOL0     H 4353   1.888  11.386   1.969 -2.0889  0.9313  2.8639
   33MOL0     H 4354   1.839  11.548   2.353  2.8469 -0.3161  0.6871
   33MOL0     H 4355   2.437  11.058   2.119 -3.1194 -1.6986  2.5640
   33MOL0     H 4356   2.561  10.869   2.222  0.7591  0.2608  0.5257
   34MOL0     O 4357   1.145   6.004   4.329  0.0854 -0.2469 -0.2401
   34MOL0     C 4358   1.122   6.124   4.309  0.2302  0.9565 -0.9312
   34MOL0     O 4359   1.226   6.212   4.289  0.3583  0.1500  0.0310
   34MOL0     C 4360   1.355   6.184   4.294 -0.0008 -1.1805 -0.5019
   34MOL0     C 4361   1.439   6.290   4.334  0.9784  0.0220 -0.7006
   34MOL0     C 4362   1.574   6.282   4.349 -0.1025  0.0783 -0.1108
   34MOL0     C 4363   1.643   6.163   4.316  0.2919  0.1110  0.1584
   34MOL0     O 4364   1.786   6.142   4.324 -0.2360 -0.5199  0.4852
   34MOL0     C 4365   1.875   6.254   4.338 -0.5647 -0.4917  0.1961
   34MOL0     C 4366   2.020   6.218   4.310  0.1369 -0.3851 -0.0698
   34MOL0     C 4367   2.106   6.343   4.346 -0.2035 -0.8559  0.4257
   34MOL0     C 4368   2.244   6.359   4.267  0.1311  0.3611  1.3131
   34MOL0     C 4369   2.322   6.486   4.285  0.5024 -0.4771 -0.9159
   34MOL0     C 4370   2.374   6.488   4.434 -0.5724 -0.4927 -0.2838
   34MOL0     C 4371   2.475   6.601   4.460  0.0119  0.2280  0.2022
   34MOL0     C 4372   2.537   6.585   4.593 -0.7769 -0.2623  0.1324
   34MOL0     N 4373   2.664   6.670   4.597  0.3871  0.4101 -1.0019
   34MOL0     C 4374   2.770   6.652   4.512  0.4627 -1.0516  0.9674
   34MOL0     C 4375   2.865   6.749   4.539 -0.3337 -0.3769  0.4741
   34MOL0     C 4376   2.980   6.800   4.446  0.3533  0.1900  0.0976
   34MOL0     C 4377   3.077   6.872   4.534 -0.0278 -1.5255  0.0109
   34MOL0     C 4378   3.151   6.776   4.635  0.3412 -0.2204 -0.3629
   34MOL0     C 4379   3.241   6.854   4.726 -0.1129 -0.0299  0.2333
   34MOL0     O 4380   3.303   6.768   4.822 -0.8122 -0.3967 -0.2586
   34MOL0     C 4381   3.226   6.715   4.916  0.7238  0.1676 -0.0447
   34MOL0     C 4382   3.121   6.786   4.975  0.8429 -0.4789  0.7090
   34MOL0     C 4383   3.040   6.722   5.068  0.2581 -0.5270 -0.4155
   34MOL0     C 4384   3.068   6.587   5.106  0.5973  1.0486 -0.8525
   34MOL0     C 4385   2.981   6.531   5.216  0.4914  0.4801 -0.4592
   34MOL0     O 4386   2.995   6.396   5.244 -0.6334 -0.3800  0.1729
   34MOL0     C 4387   2.918   6.338   5.343 -0.6428  1.4762  0.1605
   34MOL0     C 4388   2.908   6.383   5.474 -0.2213  1.2372 -0.4346
   34MOL0     C 4389   2.806   6.336   5.559 -0.7871  0.4594 -0.1912
   34MOL0     C 4390   2.715   6.247   5.507 -0.4604 -1.4329 -1.3157
   34MOL0     O 4391   2.612   6.216   5.597 -0.6160 -0.1746 -0.1552
   34MOL0     C 4392   2.573   6.082   5.574 -0.2011  0.2174 -0.7255
   34MOL0     C 4393   2.535   6.006   5.703 -0.4513 -0.0397 -0.3444
   34MOL0     C 4394   2.564   5.857   5.684 -0.9496 -0.3941  0.6312
   34MOL0     C 4395   2.566   5.787   5.816 -0.5942 -0.1553  0.2831
   34MOL0     C 4396   2.585   5.630   5.795 -0.2873 -0.4363  0.0900
   34MOL0     C 4397   2.554   5.543   5.923  0.5965  0.5447  0.3081
   34MOL0     C 4398   2.404   5.534   5.959 -0.0119 -0.3376 -0.7179
   34MOL0     C 4399   2.404   5.493   6.111 -0.4755  0.2769  0.0124
   34MOL0    Cl 4400   2.233   5.501   6.169 -0.2662  0.6013 -0.0933
   34MOL0     C 4401   2.727   6.198   5.372  0.3202 -0.5694  0.0877
   34MOL0     C 4402   2.828   6.239   5.293 -1.3858 -0.9738  0.4881
   34MOL0     O 4403   2.891   6.601   5.268  0.3248  0.1153  0.0909
   34MOL0     C 4404   3.173   6.520   5.054  0.1100  0.1773  0.3970
   34MOL0     C 4405   3.255   6.579   4.957  0.1103 -0.1158 -0.3029
   34MOL0     N 4406   2.809   6.818   4.649 -0.1796  0.1238  0.7386
   34MOL0     N 4407   2.692   6.770   4.678 -0.3729 -0.2763 -0.1048
   34MOL0     C 4408   1.555   6.054   4.278 -0.4669 -1.0246 -0.2290
   34MOL0     C 4409   1.412   6.056   4.274 -0.2119 -0.2381 -0.7851
   34MOL0     C 4410   0.981   6.168   4.331 -0.4299  0.0198  0.7245
   34MOL0     C 4411   0.947   6.287   4.396  0.1978 -0.2908  0.4378
   34MOL0     C 4412   0.813   6.331   4.402  0.3655  1.3412  0.1988
   34MOL0     C 4413   0.708   6.245   4.358 -1.4190 -0.7709  0.1497
   34MOL0     O 4414   0.577   6.293   4.369 -0.0182 -0.0161 -0.0855
   34MOL0     C 4415   0.468   6.212   4.334  0.7007 -0.2927  0.1127
   34MOL0     C 4416   0.411   6.135   4.456 -0.3548 -1.0170 -0.6547
   34MOL0     C 4417   0.323   6.232   4.530  0.0118 -0.5073  0.5139
   34MOL0     C 4418   0.238   6.163   4.636  0.2420  0.4064  0.3932
   34MOL0     C 4419   0.142   6.071   4.578 -0.1163 -0.1312  0.2294
   34MOL0     C 4420   0.068   5.998   4.514 -0.1172 -0.1224 -0.0749
   34MOL0     C 4421   0.748   6.125   4.303  0.5904  0.0957 -1.2841
   34MOL0     C 4422   0.882   6.082   4.289 -0.7765  0.2962 -0.3585
   34MOL0     H 4423   1.385   6.381   4.360 -0.1067 -0.7315 -0.2521
   34MOL0     H 4424   1.635   6.368   4.376  0.9167 -1.0672  1.3855
   34MOL0     H 4425   1.868   6.288   4.442  1.1954 -1.2017  0.5709
   34MOL0     H 4426   1.838   6.336   4.275 -0.7057 -0.3215  0.4996
   34MOL0     H 4427   2.039   6.188   4.207 -2.5558 -0.5117 -0.6195
   34MOL0     H 4428   2.047   6.139   4.381 -0.3414 -0.3579  0.1517
   34MOL0     H 4429   2.146   6.339   4.447  1.5749 -2.7336 -0.2882
   34MOL0     H 4430   2.047   6.431   4.319  1.0385 -0.2269 -0.3388
   34MOL0     H 4431   2.307   6.279   4.306  1.5424  0.6270 -0.3288
   34MOL0     H 4432   2.204   6.358   4.165  1.5881 -0.1572  0.7275
   34MOL0     H 4433   2.265   6.576   4.260  0.5845 -0.3239 -0.5526
   34MOL0     H 4434   2.409   6.479   4.219 -0.1627 -3.4019 -1.6194
   34MOL0     H 4435   2.426   6.394   4.455 -1.1016 -0.6631  0.2720
   34MOL0     H 4436   2.286   6.492   4.498 -1.5194 -1.7227 -1.4592
   34MOL0     H 4437   2.541   6.581   4.375 -1.8098 -2.5193 -0.6853
   34MOL0     H 4438   2.431   6.701   4.456 -0.3447  0.1286  1.2772
   34MOL0     H 4439   2.568   6.482   4.614 -0.4801 -0.0604  0.7116
   34MOL0     H 4440   2.473   6.615   4.676  0.3718 -1.2792  1.4245
   34MOL0     H 4441   2.769   6.581   4.430  0.2988 -1.0423  0.9603
   34MOL0     H 4442   2.933   6.860   4.368  0.1521  0.9664  0.8015
   34MOL0     H 4443   3.026   6.722   4.384 -1.1239  0.2405 -1.1132
   34MOL0     H 4444   3.024   6.946   4.594  2.3443 -0.9432  1.5242
   34MOL0     H 4445   3.153   6.924   4.476 -3.8633  2.7978 -1.7463
   34MOL0     H 4446   3.080   6.735   4.708 -0.3710  1.4504 -0.0537
   34MOL0     H 4447   3.199   6.697   4.577  1.4154  0.1844 -0.0460
   34MOL0     H 4448   3.184   6.933   4.775 -1.7102 -1.4999  0.8438
   34MOL0     H 4449   3.315   6.907   4.665 -1.7356  0.4768 -1.3624
   34MOL0     H 4450   3.096   6.888   4.951  2.1261 -0.3940 -0.3311
   34MOL0     H 4451   2.958   6.779   5.113  1.1742 -0.0627  0.7097
   34MOL0     H 4452   2.977   6.461   5.506 -1.3291  1.4116  1.6960
   34MOL0     H 4453   2.804   6.366   5.663  2.4531 -0.5705  0.3008
   34MOL0     H 4454   2.655   6.023   5.533  0.7889  1.3443 -0.4238
   34MOL0     H 4455   2.485   6.069   5.510 -1.5739  0.0896  1.1029
   34MOL0     H 4456   2.428   6.017   5.721 -0.2525  1.0935  0.2333
   34MOL0     H 4457   2.602   6.041   5.783  2.4328  0.3119 -2.7227
   34MOL0     H 4458   2.661   5.837   5.637 -1.5354 -2.4569  0.1686
   34MOL0     H 4459   2.488   5.819   5.615 -1.0636 -2.2992  1.7201
   34MOL0     H 4460   2.655   5.823   5.869  0.8767 -1.7283 -0.9774
   34MOL0     H 4461   2.477   5.805   5.877  0.5226 -0.2266  2.0137
   34MOL0     H 4462   2.689   5.618   5.763 -0.3106 -1.5277  0.3697
   34MOL0     H 4463   2.525   5.592   5.712  2.6278 -2.0342 -1.4495
   34MOL0     H 4464   2.607   5.596   6.003  1.8087  1.8861 -1.3127
   34MOL0     H 4465   2.594   5.443   5.907 -2.7962 -1.1366  1.3497
   34MOL0     H 4466   2.354   5.631   5.963  0.0691 -0.2812  3.4004
   34MOL0     H 4467   2.340   5.473   5.893  0.1163 -2.4202  0.9573
   34MOL0     H 4468   2.462   5.560   6.175 -2.9265  0.1949  2.4847
   34MOL0     H 4469   2.440   5.392   6.131  0.8171  1.1034  2.1609
   34MOL0     H 4470   2.648   6.144   5.322  1.2850 -1.4432 -0.5287
   34MOL0     H 4471   2.840   6.212   5.189  4.9490 -1.4826  0.9769
   34MOL0     H 4472   3.188   6.422   5.098 -2.0880 -0.7207 -0.6947
   34MOL0     H 4473   3.342   6.533   4.910 -1.3315 -0.7546 -2.4691
   34MOL0     H 4474   1.585   5.953   4.254  0.4366 -0.9230  0.4289
   34MOL0     H 4475   1.351   5.973   4.239  1.3578 -1.2194 -1.3069
   34MOL0     H 4476   1.023   6.351   4.439 -1.0633  2.1078 -0.6905
   34MOL0     H 4477   0.777   6.417   4.457  1.9602  1.7958  0.5689
   34MOL0     H 4478   0.488   6.149   4.247  0.2703  1.4044 -1.2780
   34MOL0     H 4479   0.397   6.286   4.298  3.0027  2.1173  0.2269
   34MOL0     H 4480   0.352   6.055   4.409 -0.5115  1.2270 -4.8131
   34MOL0     H 4481   0.495   6.101   4.518 -0.1977 -3.1094 -1.9051
   34MOL0     H 4482   0.260   6.283   4.457 -1.0572  0.1046  1.8185
   34MOL0     H 4483   0.388   6.305   4.580  0.5771 -0.5232 -0.1819
   34MOL0     H 4484   0.303   6.105   4.703 -2.6666 -1.7170  1.5790
   34MOL0     H 4485   0.185   6.239   4.693  1.1689 -0.0397  1.9279
   34MOL0     H 4486   0.007   5.945   4.443  1.0979  0.1597 -1.3771
   34MOL0     H 4487   0.669   6.059   4.269 -0.5299  0.8368 -0.2282
   34MOL0     H 4488   0.888   5.976   4.267  0.0726 -0.1896  1.8624
   35MOL0     O 4489   2.310   6.304   2.784  0.3991 -0.0397  0.0604
   35MOL0     C 4490   2.224   6.390   2.754  0.1897  0.0675 -0.7586
   35MOL0     O 4491   2.242   6.508   2.684 -0.0334  0.6491  0.0475
   35MOL0     C 4492   2.363   6.564   2.676 -0.0584  0.2381  0.5807
   35MOL0     C 4493   2.355   6.704   2.682 -0.3359 -0.3196 -0.0253
   35MOL0     C 4494   2.472   6.776   2.658 -0.1731 -1.0235 -1.2289
   35MOL0     C 4495   2.595   6.718   2.629  0.8726  0.2797 -0.2852
   35MOL0     O 4496   2.707   6.789   2.622 -0.0772 -0.3311  0.3688
   35MOL0     C 4497   2.763   6.791   2.488  0.0367  0.7587  0.2876
   35MOL0     C 4498   2.857   6.906   2.470  0.2848  0.0130  0.7057
   35MOL0     C 4499   2.916   6.918   2.331  0.1544  0.1908 -0.0166
   35MOL0     C 4500   3.019   7.021   2.336 -0.1503 -0.9555  0.1971
   35MOL0     C 4501   3.051   7.073   2.187  0.3356 -0.4675 -0.2859
   35MOL0     C 4502   3.196   7.093   2.148  0.4270  0.6227 -0.0450
   35MOL0     C 4503   3.219   7.176   2.021  1.4796  0.9794 -0.7567
   35MOL0     C 4504   3.355   7.166   1.956  1.6652  0.0632  0.4457
   35MOL0     N 4505   3.378   7.032   1.905 -0.2445  0.2842 -0.0605
   35MOL0     C 4506   3.285   6.935   1.879 -0.6586  0.8550 -0.7052
   35MOL0     C 4507   3.347   6.829   1.822 -0.5750 -0.1550 -0.1950
   35MOL0     C 4508   3.281   6.701   1.775 -0.5492 -0.2117 -0.7877
   35MOL0     C 4509   3.343   6.576   1.832 -0.0694 -0.1956  0.3164
   35MOL0     C 4510   3.322   6.454   1.740  0.2633 -0.1116  0.9028
   35MOL0     C 4511   3.172   6.412   1.738  0.6773 -0.7332 -0.0461
   35MOL0     O 4512   3.122   6.398   1.870 -0.4557 -0.3866 -0.0834
   35MOL0     C 4513   3.168   6.297   1.950  0.4608  0.0232  0.0027
   35MOL0     C 4514   3.143   6.319   2.091  0.5958 -0.2829 -0.4206
   35MOL0     C 4515   3.193   6.217   2.174  0.0005 -0.2245  0.2223
   35MOL0     C 4516   3.257   6.098   2.131  0.6046  0.7208  0.2045
   35MOL0     C 4517   3.301   5.995   2.233 -0.8851  0.4938  0.4916
   35MOL0     O 4518   3.399   5.908   2.182  0.7104  0.3356  0.3663
   35MOL0     C 4519   3.454   5.805   2.265 -0.5571 -1.4172 -0.5108
   35MOL0     C 4520   3.378   5.697   2.319 -0.6625  0.4816  0.6631
   35MOL0     C 4521   3.434   5.587   2.385  0.4931 -0.4645 -0.9098
   35MOL0     C 4522   3.569   5.592   2.404 -0.4077 -0.5529  0.0293
   35MOL0     O 4523   3.618   5.511   2.500  0.6837  0.0092 -0.3135
   35MOL0     C 4524   3.758   5.471   2.508 -0.4566  1.1145  0.0920
   35MOL0     C 4525   3.850   5.557   2.611 -0.6574  0.4503 -0.8585
   35MOL0     C 4526   3.978   5.484   2.675  0.3131 -0.2687  0.3378
   35MOL0     C 4527   4.068   5.590   2.741  0.3758 -0.9442 -0.5625
   35MOL0     C 4528   4.201   5.532   2.798 -0.0815  0.8474 -1.0791
   35MOL0     C 4529   4.279   5.639   2.869  0.7139 -0.0920 -0.1060
   35MOL0     C 4530   4.211   5.659   3.010 -1.3763  0.5621  0.2070
   35MOL0     C 4531   4.187   5.806   3.040 -0.1030  0.7205  0.5720
   35MOL0    Cl 4532   4.050   5.891   2.963 -0.4110 -0.4605 -0.1707
   35MOL0     C 4533   3.653   5.690   2.340  0.0248  1.2402  0.6013
   35MOL0     C 4534   3.593   5.800   2.272 -0.0634  0.8039  0.2423
   35MOL0     O 4535   3.259   5.998   2.351 -0.3418 -0.2218  0.2963
   35MOL0     C 4536   3.287   6.088   1.997 -0.3985  0.7502  1.3484
   35MOL0     C 4537   3.240   6.180   1.906  0.6471  0.0848  0.6764
   35MOL0     N 4538   3.483   6.852   1.823 -1.1242 -0.7309 -0.4442
   35MOL0     N 4539   3.501   6.972   1.875  0.1581 -0.3983  0.4514
   35MOL0     C 4540   2.595   6.577   2.619 -0.2968 -0.0633  0.7847
   35MOL0     C 4541   2.482   6.502   2.645 -0.4943 -0.2887 -0.3175
   35MOL0     C 4542   2.086   6.367   2.804  0.3406  0.5345  1.1880
   35MOL0     C 4543   1.989   6.473   2.809 -0.0070 -1.3493 -0.1389
   35MOL0     C 4544   1.856   6.449   2.835 -0.1262 -0.4666  0.0988
   35MOL0     C 4545   1.809   6.324   2.876 -0.6634 -0.6165 -0.4620
   35MOL0     O 4546   1.676   6.308   2.911 -0.3959  0.1263 -1.1114
   35MOL0     C 4547   1.623   6.176   2.933 -0.2579 -0.1185 -0.3118
   35MOL0     C 4548   1.476   6.185   2.970  0.3315 -0.1862 -0.0910
   35MOL0     C 4549   1.395   6.253   2.852  0.4485 -0.2112  0.1600
   35MOL0     C 4550   1.237   6.264   2.859 -0.5895  1.1205  0.1197
   35MOL0     C 4551   1.191   6.334   2.983  0.8575  0.1720 -0.1038
   35MOL0     C 4552   1.150   6.370   3.096  1.2384  0.1269  0.8669
   35MOL0     C 4553   1.905   6.218   2.876 -0.4022  0.3269 -0.6856
   35MOL0     C 4554   2.037   6.238   2.830 -0.5304  0.0137  0.6326
   35MOL0     H 4555   2.265   6.753   2.718 -0.7164 -2.1070  1.6287
   35MOL0     H 4556   2.474   6.884   2.672  2.2195 -1.1524 -0.0199
   35MOL0     H 4557   2.685   6.791   2.412 -3.2665 -2.2191  3.2868
   35MOL0     H 4558   2.825   6.702   2.469 -2.2304 -0.9532  0.4694
   35MOL0     H 4559   2.946   6.899   2.534  2.3818  0.0709 -1.9832
   35MOL0     H 4560   2.808   7.000   2.493 -0.8898 -1.0318  2.7302
   35MOL0     H 4561   2.840   6.935   2.254  0.9504 -2.9232 -1.6570
   35MOL0     H 4562   2.954   6.824   2.290  1.7186  1.3461 -1.3502
   35MOL0     H 4563   3.003   7.105   2.405 -0.6706 -0.1830 -0.8282
   35MOL0     H 4564   3.102   6.967   2.381  0.9197  0.8623  0.5139
   35MOL0     H 4565   2.994   7.166   2.176  0.2391 -0.5666 -0.6559
   35MOL0     H 4566   3.010   7.002   2.114 -2.5096 -0.4910  1.1906
   35MOL0     H 4567   3.248   6.998   2.134 -0.3010  0.2305 -0.1405
   35MOL0     H 4568   3.245   7.147   2.230 -0.1371  1.5211 -0.2876
   35MOL0     H 4569   3.153   7.133   1.945  1.2330  0.3279 -0.1708
   35MOL0     H 4570   3.192   7.281   2.037  3.4363  1.3728  0.2590
   35MOL0     H 4571   3.436   7.185   2.027  1.7658 -1.1717  0.6810
   35MOL0     H 4572   3.344   7.237   1.873  2.4302  1.4662  1.5018
   35MOL0     H 4573   3.178   6.929   1.893 -0.4347 -0.2388  0.7834
   35MOL0     H 4574   3.295   6.688   1.668 -2.8797 -3.0849 -0.8747
   35MOL0     H 4575   3.175   6.694   1.799 -0.2076 -1.6474  0.4708
   35MOL0     H 4576   3.312   6.561   1.936 -1.9277  2.8816  0.3367
   35MOL0     H 4577   3.452   6.580   1.834 -0.0111 -1.1334  2.2288
   35MOL0     H 4578   3.372   6.457   1.643 -0.1118 -1.2102  0.6505
   35MOL0     H 4579   3.367   6.362   1.778 -0.1683 -0.2412  1.1117
   35MOL0     H 4580   3.155   6.324   1.675 -3.5182  0.5315 -1.0079
   35MOL0     H 4581   3.117   6.493   1.687 -0.2893 -1.3130  0.0578
   35MOL0     H 4582   3.094   6.408   2.128 -0.0642 -0.3524 -1.1026
   35MOL0     H 4583   3.184   6.229   2.282  0.5451 -1.3997  0.4220
   35MOL0     H 4584   3.270   5.699   2.306 -0.6551  3.3860  0.3358
   35MOL0     H 4585   3.385   5.499   2.425  2.1461  0.3600  3.4961
   35MOL0     H 4586   3.800   5.459   2.407  1.4948  2.7439  0.6452
   35MOL0     H 4587   3.751   5.364   2.531 -3.5121  0.5460 -2.7288
   35MOL0     H 4588   3.796   5.613   2.689 -2.1519  1.2881 -2.4158
   35MOL0     H 4589   3.885   5.639   2.548  1.0107  1.2973  1.0439
   35MOL0     H 4590   4.035   5.433   2.596 -1.5611  0.7747 -1.7852
   35MOL0     H 4591   3.934   5.411   2.742  3.4986 -2.5120  0.2217
   35MOL0     H 4592   4.096   5.675   2.679 -1.1634  0.4701  0.5837
   35MOL0     H 4593   4.015   5.637   2.824 -1.0959  0.3404 -2.1561
   35MOL0     H 4594   4.269   5.498   2.719  2.3898 -0.3281  1.3685
   35MOL0     H 4595   4.186   5.451   2.870  1.0578  1.5122 -0.0700
   35MOL0     H 4596   4.272   5.729   2.808  2.8239  0.5690  0.5436
   35MOL0     H 4597   4.381   5.601   2.877 -0.2690 -2.8814  0.2308
   35MOL0     H 4598   4.124   5.603   3.044 -1.0951  1.5854  2.8487
   35MOL0     H 4599   4.288   5.617   3.076 -1.6971 -2.3958 -1.1298
   35MOL0     H 4600   4.279   5.863   3.021  0.8609 -0.6550  1.0006
   35MOL0     H 4601   4.175   5.806   3.148 -0.3763 -0.5403  0.5558
   35MOL0     H 4602   3.761   5.689   2.343  0.2933  3.9197 -2.3441
   35MOL0     H 4603   3.655   5.876   2.227  0.1299 -0.0419 -0.9700
   35MOL0     H 4604   3.334   5.996   1.963 -1.4707 -0.7179  3.5634
   35MOL0     H 4605   3.253   6.158   1.800 -1.2126  0.5673  0.3095
   35MOL0     H 4606   2.674   6.529   2.562 -0.9559  0.1727 -0.3605
   35MOL0     H 4607   2.487   6.394   2.636  3.9205 -0.3265  0.3851
   35MOL0     H 4608   2.013   6.573   2.774 -1.1080 -1.3121 -0.8372
   35MOL0     H 4609   1.792   6.537   2.840  2.8061  1.9321 -1.2913
   35MOL0     H 4610   1.682   6.120   3.007 -3.0060 -1.1960  1.2030
   35MOL0     H 4611   1.644   6.114   2.845  2.1930 -0.5978  0.5151
   35MOL0     H 4612   1.443   6.081   2.969  0.7463 -0.3656 -2.6839
   35MOL0     H 4613   1.459   6.226   3.070  0.2983  0.7468 -0.4690
   35MOL0     H 4614   1.405   6.194   2.760 -2.6267 -0.7982  0.0797
   35MOL0     H 4615   1.419   6.360   2.846 -1.0470  0.1132 -0.6290
   35MOL0     H 4616   1.196   6.307   2.767 -1.7284  1.2981  0.7006
   35MOL0     H 4617   1.199   6.161   2.865 -0.2252  1.0854  3.7247
   35MOL0     H 4618   1.119   6.388   3.197  1.8399 -1.9831  1.4785
   35MOL0     H 4619   1.866   6.124   2.913 -0.6262  0.9851  0.7882
   35MOL0     H 4620   2.108   6.158   2.814 -0.0720  0.4123  0.6544
   36MOL0     O 4621  10.233   6.078   8.033 -0.5898  0.2806 -0.3256
   36MOL0     C 4622  10.247   5.970   7.980  0.2608 -0.4811  0.0220
   36MOL0     O 4623  10.170   5.852   7.986  0.1569 -0.4436 -0.4601
   36MOL0     C 4624  10.046   5.865   8.046  0.5267  0.3759  0.0248
   36MOL0     C 4625  10.031   5.845   8.185 -0.0520 -0.2305 -0.8273
   36MOL0     C 4626   9.903   5.856   8.249 -0.9053 -0.4376  0.6225
   36MOL0     C 4627   9.790   5.882   8.167 -0.2552 -0.5786 -0.1710
   36MOL0     O 4628   9.662   5.899   8.220 -0.7657  0.0076  0.2114
   36MOL0     C 4629   9.633   5.896   8.354 -0.5418 -0.2694 -0.4188
   36MOL0     C 4630   9.609   5.767   8.423 -0.5583  0.5906  0.5697
   36MOL0     C 4631   9.509   5.662   8.386 -0.2655 -1.3159  1.0699
   36MOL0     C 4632   9.381   5.728   8.344  0.0474  0.3287  0.6500
   36MOL0     C 4633   9.273   5.617   8.343 -0.8140  0.8451  0.7228
   36MOL0     C 4634   9.136   5.688   8.338  0.2689  0.8179 -0.2219
   36MOL0     C 4635   9.020   5.587   8.376  0.6019 -0.0716  0.2632
   36MOL0     C 4636   8.883   5.652   8.310  0.3882  0.2194 -1.0687
   36MOL0     N 4637   8.851   5.781   8.371  0.2194  0.5056 -0.1399
   36MOL0     C 4638   8.856   5.899   8.315  0.3191 -0.0448 -1.2745
   36MOL0     C 4639   8.803   5.995   8.401 -0.1038 -0.6146  0.1686
   36MOL0     C 4640   8.801   6.137   8.350  0.2436 -0.7878 -0.5210
   36MOL0     C 4641   8.679   6.179   8.276  0.7469 -0.4807 -0.4108
   36MOL0     C 4642   8.554   6.181   8.360 -0.1652 -0.3242  0.5267
   36MOL0     C 4643   8.510   6.321   8.408 -0.3783 -0.6792 -0.2258
   36MOL0     O 4644   8.489   6.409   8.299 -0.2357 -0.3119  0.3621
   36MOL0     C 4645   8.415   6.526   8.318 -0.6123  0.0094  0.3854
   36MOL0     C 4646   8.364   6.579   8.443  0.5040  0.5247 -0.3320
   36MOL0     C 4647   8.287   6.701   8.444  0.7325 -0.0846 -0.3811
   36MOL0     C 4648   8.258   6.764   8.323  0.4300  0.4869  0.3430
   36MOL0     C 4649   8.192   6.896   8.335  0.3368  0.8035 -0.4905
   36MOL0     O 4650   8.098   6.905   8.436 -0.0398 -0.2576  0.3309
   36MOL0     C 4651   8.027   7.023   8.444  0.4022 -0.5731  0.4842
   36MOL0     C 4652   8.029   7.086   8.569 -0.4872  0.4259 -0.4431
   36MOL0     C 4653   7.958   7.207   8.595  0.1865  0.0914  0.2827
   36MOL0     C 4654   7.876   7.262   8.493 -0.7650  0.5717 -0.1215
   36MOL0     O 4655   7.800   7.370   8.508 -0.4013  0.7189 -0.2348
   36MOL0     C 4656   7.751   7.386   8.641 -0.8070  1.0338 -1.0701
   36MOL0     C 4657   7.621   7.473   8.639  0.4148 -0.5655  0.6062
   36MOL0     C 4658   7.561   7.454   8.788 -0.9569  0.0297 -0.2934
   36MOL0     C 4659   7.400   7.483   8.800 -0.5793 -0.2353  0.7241
   36MOL0     C 4660   7.319   7.428   8.923 -0.5191  0.3899  0.2376
   36MOL0     C 4661   7.323   7.274   8.919 -0.0282  0.4338 -0.4782
   36MOL0     C 4662   7.256   7.225   9.046  0.1026  0.1662  0.3550
   36MOL0     C 4663   7.235   7.076   9.038  0.0687 -0.7781  0.6223
   36MOL0    Cl 4664   7.095   7.036   8.937  0.5952 -0.1326  0.3831
   36MOL0     C 4665   7.890   7.201   8.367  1.1555 -0.3801  0.8034
   36MOL0     C 4666   7.963   7.087   8.335  0.9757 -0.0940  0.9628
   36MOL0     O 4667   8.215   6.982   8.251  0.1722 -0.8496 -0.6177
   36MOL0     C 4668   8.321   6.716   8.209  0.7811  0.2564 -0.8462
   36MOL0     C 4669   8.401   6.597   8.204 -0.7840 -0.3817 -0.1798
   36MOL0     N 4670   8.782   5.934   8.523  0.5833  0.4580  0.4116
   36MOL0     N 4671   8.821   5.805   8.501 -0.0329  0.1694 -0.1252
   36MOL0     C 4672   9.801   5.893   8.027  0.5264 -0.2628 -0.0554
   36MOL0     C 4673   9.931   5.884   7.968 -0.7315 -0.0743 -1.0109
   36MOL0     C 4674  10.374   5.958   7.898 -1.0224  0.4488 -0.5085
   36MOL0     C 4675  10.489   6.037   7.908  1.0477 -0.6463 -0.4083
   36MOL0     C 4676  10.602   6.034   7.826  0.3314  0.2970  0.5639
   36MOL0     C 4677  10.602   5.953   7.720  0.4077  0.1477 -0.0165
   36MOL0     O 4678  10.706   5.938   7.636 -0.2454  0.4800 -0.0856
   36MOL0     C 4679  10.712   5.836   7.533  0.4401 -0.0901 -0.2424
   36MOL0     C 4680  10.853   5.840   7.477  0.0876 -0.5696  0.0991
   36MOL0     C 4681  10.878   5.741   7.367 -0.6755  0.2839 -0.0048
   36MOL0     C 4682  11.016   5.773   7.310  0.1358 -0.1450  0.3312
   36MOL0     C 4683  11.127   5.766   7.401  0.6466 -0.2687 -0.2137
   36MOL0     C 4684  11.228   5.779   7.470 -0.0952  1.0939  0.3287
   36MOL0     C 4685  10.475   5.882   7.693  0.1767  0.2472 -0.7293
   36MOL0     C 4686  10.370   5.875   7.786 -0.4575  0.5842  0.5923
   36MOL0     H 4687  10.111   5.816   8.251 -1.2340 -1.8678 -0.0490
   36MOL0     H 4688   9.889   5.864   8.356 -2.0645  0.6963  0.4233
   36MOL0     H 4689   9.532   5.940   8.356 -2.4417 -4.1982 -0.3852
   36MOL0     H 4690   9.690   5.959   8.423 -4.1326  1.1839  1.4871
   36MOL0     H 4691   9.591   5.788   8.528 -1.1072  1.0604  0.3837
   36MOL0     H 4692   9.703   5.712   8.425 -0.2027  1.0830  4.1986
   36MOL0     H 4693   9.500   5.591   8.468 -2.4651 -2.3914  0.0096
   36MOL0     H 4694   9.541   5.606   8.297 -1.6318 -0.0235 -0.3040
   36MOL0     H 4695   9.359   5.801   8.422 -0.8533 -1.3149  2.0175
   36MOL0     H 4696   9.394   5.764   8.241  1.9247 -1.8235  0.0412
   36MOL0     H 4697   9.274   5.563   8.438  2.3939 -2.1032 -0.7795
   36MOL0     H 4698   9.295   5.548   8.261  2.7142  3.7002 -0.9856
   36MOL0     H 4699   9.116   5.715   8.234 -0.1406  1.3818 -0.0066
   36MOL0     H 4700   9.134   5.776   8.404 -2.2824  1.7857 -1.4156
   36MOL0     H 4701   9.040   5.487   8.337 -0.1605 -2.0167  4.3364
   36MOL0     H 4702   8.999   5.567   8.481  0.4974 -0.3043  0.1987
   36MOL0     H 4703   8.789   5.596   8.318  0.9078 -0.5661 -0.2604
   36MOL0     H 4704   8.902   5.675   8.205 -1.1655  0.6691 -1.2831
   36MOL0     H 4705   8.884   5.902   8.210 -2.0931 -3.8150 -2.2554
   36MOL0     H 4706   8.888   6.156   8.286 -1.3641 -0.6722 -2.8198
   36MOL0     H 4707   8.803   6.201   8.439  2.0682 -2.4860  0.7439
   36MOL0     H 4708   8.679   6.109   8.192  2.4022  1.1501 -1.8342
   36MOL0     H 4709   8.695   6.273   8.223  2.6405 -1.5712 -1.8805
   36MOL0     H 4710   8.463   6.150   8.308  0.7245 -0.3628 -1.0783
   36MOL0     H 4711   8.563   6.112   8.444  1.4976 -0.2867  0.4048
   36MOL0     H 4712   8.577   6.369   8.480 -0.7943  2.9754 -2.0242
   36MOL0     H 4713   8.419   6.304   8.466 -0.7884 -1.0756 -0.9691
   36MOL0     H 4714   8.391   6.532   8.537 -0.1608  0.6563 -0.0679
   36MOL0     H 4715   8.247   6.731   8.541  0.5415  1.2235 -0.8518
   36MOL0     H 4716   8.080   7.038   8.652 -0.8014  0.5491 -0.1747
   36MOL0     H 4717   7.959   7.247   8.696 -3.7263  1.5848 -0.0793
   36MOL0     H 4718   7.821   7.433   8.710 -0.8612  0.6276 -0.7365
   36MOL0     H 4719   7.719   7.289   8.679 -1.2230  1.0619 -1.3373
   36MOL0     H 4720   7.559   7.437   8.557  0.8929 -0.6222  0.2672
   36MOL0     H 4721   7.645   7.580   8.635  2.3039 -0.6169  4.8267
   36MOL0     H 4722   7.607   7.522   8.860 -1.2890  1.1841 -1.1489
   36MOL0     H 4723   7.583   7.353   8.826 -2.2659  1.4310  5.1006
   36MOL0     H 4724   7.392   7.592   8.792 -3.2892 -0.3971  0.3004
   36MOL0     H 4725   7.345   7.444   8.715  0.8045  1.4028 -1.0109
   36MOL0     H 4726   7.216   7.464   8.913 -0.7975 -0.7544 -1.3148
   36MOL0     H 4727   7.369   7.466   9.013  0.3247  3.4551 -1.3889
   36MOL0     H 4728   7.423   7.229   8.929 -0.0787  0.7754  2.4429
   36MOL0     H 4729   7.265   7.241   8.833  0.4561  0.9389 -1.0035
   36MOL0     H 4730   7.314   7.234   9.138  0.2968  0.6838  0.1862
   36MOL0     H 4731   7.163   7.281   9.056  1.3147  2.4698 -0.4012
   36MOL0     H 4732   7.224   7.043   9.141  0.2529  1.2316  1.3218
   36MOL0     H 4733   7.317   7.026   8.985  1.0444 -0.2307  1.5626
   36MOL0     H 4734   7.840   7.250   8.285  1.1900  2.6764  2.4526
   36MOL0     H 4735   7.975   7.065   8.229 -1.2228  3.0261 -0.0890
   36MOL0     H 4736   8.315   6.789   8.128  0.0726 -0.0108 -1.0515
   36MOL0     H 4737   8.469   6.575   8.123 -2.5525  2.6207 -2.7036
   36MOL0     H 4738   9.717   5.907   7.961  1.1129 -1.4343 -1.0969
   36MOL0     H 4739   9.949   5.894   7.861 -1.2685  1.3522 -0.9869
   36MOL0     H 4740  10.475   6.109   7.988 -1.4364  0.9285 -2.1214
   36MOL0     H 4741  10.682   6.102   7.854  0.2224 -0.2347  2.3598
   36MOL0     H 4742  10.639   5.853   7.454  0.6478 -0.9454 -0.6296
   36MOL0     H 4743  10.700   5.739   7.582 -2.7704  1.0769  1.5548
   36MOL0     H 4744  10.875   5.941   7.440  1.5615 -0.5145  1.0496
   36MOL0     H 4745  10.917   5.812   7.561  2.7804 -2.7397 -2.5088
   36MOL0     H 4746  10.805   5.752   7.287  0.1777 -1.6831 -1.1295
   36MOL0     H 4747  10.872   5.642   7.415 -1.3585  1.2989  2.1595
   36MOL0     H 4748  11.043   5.713   7.222  1.7258  1.8865 -0.6285
   36MOL0     H 4749  11.026   5.870   7.261 -0.8207  0.3874  1.1442
   36MOL0     H 4750  11.324   5.772   7.519  1.0087  0.1808 -1.8522
   36MOL0     H 4751  10.469   5.818   7.606  2.9348 -1.1682 -0.0202
   36MOL0     H 4752  10.287   5.807   7.773 -0.7294 -0.1136  4.6205
   37MOL0     O 4753   9.098   3.643   9.471 -0.3703  0.1021 -0.9721
   37MOL0     C 4754   8.996   3.705   9.437  0.3560  1.0309 -0.7107
   37MOL0     O 4755   8.947   3.820   9.494  0.6720 -0.1519  0.4485
   37MOL0     C 4756   9.014   3.876   9.594 -1.0495  0.9341 -0.2287
   37MOL0     C 4757   9.150   3.902   9.583  1.7458  1.3665 -0.3487
   37MOL0     C 4758   9.220   3.974   9.688  0.2825  0.0110 -0.5131
   37MOL0     C 4759   9.158   4.019   9.808  0.2807  0.5226 -0.5289
   37MOL0     O 4760   9.244   4.080   9.900  0.6892  0.3235  0.0958
   37MOL0     C 4761   9.208   4.174  10.003  0.1357  0.5830 -0.1128
   37MOL0     C 4762   9.341   4.227  10.060  0.2318  0.4816  0.0714
   37MOL0     C 4763   9.332   4.294  10.194  0.1357 -0.3548  0.1976
   37MOL0     C 4764   9.460   4.366  10.243  0.0979  0.6470 -0.1999
   37MOL0     C 4765   9.475   4.514  10.207  0.0417  0.2598  0.3805
   37MOL0     C 4766   9.600   4.561  10.278 -0.2198  0.3970  0.3370
   37MOL0     C 4767   9.654   4.703  10.227 -0.6490 -0.3189  0.3386
   37MOL0     C 4768   9.664   4.810  10.337  0.7716  0.7888  0.0625
   37MOL0     N 4769   9.525   4.812  10.385 -0.2023 -1.2691 -1.0517
   37MOL0     C 4770   9.438   4.893  10.327 -0.1418  0.2308 -0.3373
   37MOL0     C 4771   9.345   4.914  10.426  0.5660 -0.1360 -0.0301
   37MOL0     C 4772   9.215   4.991  10.400 -0.3840  0.4409 -0.3061
   37MOL0     C 4773   9.127   4.906  10.315 -0.7084  0.4743 -0.2327
   37MOL0     C 4774   9.011   4.991  10.275  0.4243  0.6807 -0.4345
   37MOL0     C 4775   8.922   4.912  10.183 -0.1241 -0.9294 -0.0434
   37MOL0     O 4776   8.801   4.993  10.166 -0.0434 -0.5213  0.9260
   37MOL0     C 4777   8.710   4.962  10.067 -0.9695  0.4999 -1.0673
   37MOL0     C 4778   8.579   4.960  10.097 -0.0102 -0.6287  0.7038
   37MOL0     C 4779   8.484   4.906  10.007  0.4899  0.4732 -1.0743
   37MOL0     C 4780   8.530   4.861   9.883  1.3589 -0.5992  0.5297
   37MOL0     C 4781   8.435   4.811   9.779 -0.6264 -0.2171  0.4853
   37MOL0     O 4782   8.496   4.718   9.695  0.1998 -0.1615  0.1331
   37MOL0     C 4783   8.411   4.657   9.608 -0.2467 -0.4193 -0.1550
   37MOL0     C 4784   8.335   4.548   9.651  0.3376  0.1866  0.4745
   37MOL0     C 4785   8.263   4.474   9.552  0.4593 -0.0833 -0.1807
   37MOL0     C 4786   8.254   4.519   9.420  1.0398  0.6759 -0.3830
   37MOL0     O 4787   8.155   4.450   9.352  0.0300  0.0064 -0.0463
   37MOL0     C 4788   8.172   4.433   9.215  0.6275 -0.5077 -0.5828
   37MOL0     C 4789   8.089   4.322   9.156  0.1930  0.6335 -0.9191
   37MOL0     C 4790   8.106   4.184   9.229 -0.4889 -0.5635  0.4016
   37MOL0     C 4791   8.028   4.078   9.164  0.3338  0.4024  0.2193
   37MOL0     C 4792   8.096   4.022   9.038 -0.5833 -0.1049  0.2001
   37MOL0     C 4793   8.001   4.026   8.922 -0.3364  0.1278 -1.0163
   37MOL0     C 4794   8.077   4.005   8.786  1.3710  0.5408 -0.4347
   37MOL0     C 4795   7.974   4.015   8.671 -0.7344 -0.3050  0.9474
   37MOL0    Cl 4796   7.923   4.180   8.620  0.0819 -0.5725  0.6254
   37MOL0     C 4797   8.332   4.625   9.376 -0.7268  0.1163 -0.2136
   37MOL0     C 4798   8.416   4.688   9.471  0.4107  1.0601  0.7404
   37MOL0     O 4799   8.318   4.845   9.786 -0.7616  0.2815  0.0374
   37MOL0     C 4800   8.669   4.845   9.859  0.4913 -0.2665 -0.2450
   37MOL0     C 4801   8.754   4.906   9.948 -0.5494  1.5663 -0.4961
   37MOL0     N 4802   9.371   4.849  10.543  0.0079  0.4167 -0.2180
   37MOL0     N 4803   9.483   4.795  10.519  0.2849 -0.0583  0.2449
   37MOL0     C 4804   9.021   4.003   9.810  0.6152  0.1673 -0.0927
   37MOL0     C 4805   8.949   3.925   9.711 -0.2285 -0.4630 -0.5933
   37MOL0     C 4806   8.928   3.652   9.325  1.1250  0.2888  0.0243
   37MOL0     C 4807   8.989   3.556   9.236 -0.4049 -1.3928 -0.6153
   37MOL0     C 4808   8.926   3.511   9.125  0.0253 -0.0775  0.3008
   37MOL0     C 4809   8.787   3.549   9.106 -0.8028  0.5156 -0.1042
   37MOL0     O 4810   8.717   3.502   9.004  0.4504  0.1122  0.3999
   37MOL0     C 4811   8.590   3.460   9.022  0.2676 -0.3503 -0.1216
   37MOL0     C 4812   8.552   3.338   8.922 -0.2268 -0.2987 -0.3379
   37MOL0     C 4813   8.576   3.365   8.768  0.7323  0.1726  0.4316
   37MOL0     C 4814   8.500   3.478   8.710  0.2007 -0.3052  0.2063
   37MOL0     C 4815   8.541   3.517   8.574 -0.2563 -0.2663  0.7334
   37MOL0     C 4816   8.577   3.543   8.468  0.0895 -0.5650 -0.1550
   37MOL0     C 4817   8.729   3.637   9.191 -0.5062 -0.1898 -0.1829
   37MOL0     C 4818   8.792   3.699   9.297 -0.3895 -0.1595 -0.6857
   37MOL0     H 4819   9.201   3.866   9.495 -0.6106  1.2690 -1.7488
   37MOL0     H 4820   9.329   3.975   9.687  0.3403 -1.0764  1.0937
   37MOL0     H 4821   9.143   4.134  10.081  0.3191  1.0140  0.2705
   37MOL0     H 4822   9.150   4.260   9.967 -0.5229 -0.7391 -2.4210
   37MOL0     H 4823   9.369   4.284   9.971 -2.2515  0.2394 -0.9442
   37MOL0     H 4824   9.408   4.141  10.064 -1.9212 -1.5924 -3.1362
   37MOL0     H 4825   9.297   4.219  10.266 -1.2226  0.7947  0.7952
   37MOL0     H 4826   9.248   4.364  10.182  0.1484 -0.3577  0.0950
   37MOL0     H 4827   9.460   4.363  10.352  0.2326  3.0428 -0.0776
   37MOL0     H 4828   9.548   4.308  10.215  1.3072  1.6455  1.3639
   37MOL0     H 4829   9.397   4.587  10.230 -0.7991 -0.2877 -0.6550
   37MOL0     H 4830   9.483   4.515  10.098  0.1888 -0.1467  0.3877
   37MOL0     H 4831   9.682   4.496  10.246  0.2112  0.7939  0.6183
   37MOL0     H 4832   9.600   4.563  10.388  2.1468 -2.0737  0.5009
   37MOL0     H 4833   9.751   4.693  10.177  0.3845  0.4405  2.1172
   37MOL0     H 4834   9.593   4.740  10.145 -2.0384  2.9784  2.6414
   37MOL0     H 4835   9.701   4.894  10.277  1.8786  0.9218  0.9192
   37MOL0     H 4836   9.736   4.790  10.416 -0.3092 -2.3990  0.3662
   37MOL0     H 4837   9.445   4.950  10.235  2.2070  3.7017  1.7865
   37MOL0     H 4838   9.247   5.084  10.352 -0.6440 -0.5876 -2.5804
   37MOL0     H 4839   9.177   5.017  10.500  0.0929  4.4437 -0.9702
   37MOL0     H 4840   9.109   4.813  10.369  1.1012  1.2818  1.9354
   37MOL0     H 4841   9.177   4.887  10.219  1.4808  0.0917  0.9240
   37MOL0     H 4842   8.958   5.027  10.363  0.0214 -3.4182  1.1902
   37MOL0     H 4843   9.049   5.080  10.223  1.7639  0.9511  0.9485
   37MOL0     H 4844   8.898   4.819  10.234 -0.6075 -1.1126 -0.5907
   37MOL0     H 4845   8.975   4.893  10.090 -0.7184  1.9371 -1.0835
   37MOL0     H 4846   8.544   5.000  10.191 -2.6413 -1.6940  0.2643
   37MOL0     H 4847   8.378   4.910  10.027  0.6103  2.1168 -0.6768
   37MOL0     H 4848   8.332   4.519   9.755 -0.1399 -0.0726  0.3913
   37MOL0     H 4849   8.200   4.391   9.583  0.0882  0.4271  0.4574
   37MOL0     H 4850   8.275   4.420   9.182  0.3191 -0.5705 -1.5629
   37MOL0     H 4851   8.132   4.524   9.169 -1.1962 -0.6569  0.5991
   37MOL0     H 4852   8.107   4.314   9.048 -1.7723 -0.3187 -1.2168
   37MOL0     H 4853   7.987   4.361   9.161  1.2761  3.6413 -0.3104
   37MOL0     H 4854   8.081   4.183   9.336 -1.8672  0.8428  0.1330
   37MOL0     H 4855   8.214   4.171   9.222  0.2579  3.9381  0.6423
   37MOL0     H 4856   8.017   3.995   9.235  0.1353 -1.2669 -1.6673
   37MOL0     H 4857   7.933   4.128   9.140 -0.5953  0.7884  4.0486
   37MOL0     H 4858   8.117   3.915   9.049 -3.5093 -0.6707  0.9665
   37MOL0     H 4859   8.194   4.069   9.023 -0.1018 -0.8035  1.0214
   37MOL0     H 4860   7.940   4.115   8.935  0.3252  0.3042  1.4120
   37MOL0     H 4861   7.937   3.938   8.932 -1.6385  1.1178 -0.3904
   37MOL0     H 4862   8.160   4.075   8.774  3.0503 -1.7143 -2.9302
   37MOL0     H 4863   8.117   3.903   8.784 -1.1393 -0.6568  2.2666
   37MOL0     H 4864   7.884   3.964   8.707  0.1770 -2.3923  0.4274
   37MOL0     H 4865   8.013   3.951   8.591 -1.6179 -3.0477  2.5786
   37MOL0     H 4866   8.315   4.665   9.276 -1.6371  1.4627  0.4373
   37MOL0     H 4867   8.471   4.774   9.435 -2.0327  2.5949  0.4527
   37MOL0     H 4868   8.707   4.822   9.760  2.8056  3.3779 -0.3949
   37MOL0     H 4869   8.856   4.893   9.915 -1.6446  0.4880 -4.0280
   37MOL0     H 4870   8.953   4.035   9.888  0.1769 -1.1944  0.1199
   37MOL0     H 4871   8.841   3.914   9.713 -0.3049 -0.4359 -2.6381
   37MOL0     H 4872   9.092   3.531   9.260  0.8519  1.5403 -2.3566
   37MOL0     H 4873   8.987   3.443   9.066 -3.2052 -0.6681 -2.7255
   37MOL0     H 4874   8.526   3.547   9.007  0.3037  0.0196  1.7094
   37MOL0     H 4875   8.577   3.415   9.121  3.3898 -0.8878  0.1237
   37MOL0     H 4876   8.617   3.250   8.929  2.0977  1.3550  0.1946
   37MOL0     H 4877   8.446   3.315   8.934 -0.3578  0.5884  0.2868
   37MOL0     H 4878   8.553   3.274   8.710  0.4855  1.1329 -1.0360
   37MOL0     H 4879   8.681   3.391   8.751 -0.3299  3.5096 -2.0604
   37MOL0     H 4880   8.393   3.456   8.715  0.4134 -2.6530 -2.6849
   37MOL0     H 4881   8.515   3.566   8.774  1.2031 -0.9923  0.9482
   37MOL0     H 4882   8.614   3.578   8.374 -3.2378 -0.2029 -1.4778
   37MOL0     H 4883   8.631   3.677   9.164 -0.0308  0.4748 -0.9631
   37MOL0     H 4884   8.748   3.767   9.369  0.6192 -0.2800  0.0559
   38MOL0     O 4885   6.759   2.839   0.784  0.5312 -0.3640 -0.5094
   38MOL0     C 4886   6.775   2.953   0.835  0.0768 -0.4685  0.2633
   38MOL0     O 4887   6.746   3.070   0.776  0.0735 -0.2338 -0.0458
   38MOL0     C 4888   6.713   3.081   0.644  0.6210  0.5397  0.3697
   38MOL0     C 4889   6.682   3.214   0.609 -1.1734  0.3220 -0.7003
   38MOL0     C 4890   6.655   3.252   0.477  0.5876 -0.7661  0.7082
   38MOL0     C 4891   6.647   3.161   0.365  0.6977  0.2113  1.4510
   38MOL0     O 4892   6.611   3.211   0.241  0.5359  0.5784 -0.4553
   38MOL0     C 4893   6.588   3.124   0.133 -0.2500 -0.1665  0.2540
   38MOL0     C 4894   6.494   3.202   0.039 -0.3081 -0.3191  0.4279
   38MOL0     C 4895   6.382   3.123  -0.032 -0.6971 -0.0061 -0.6308
   38MOL0     C 4896   6.288   3.231  -0.088  1.0737  0.1083  0.4853
   38MOL0     C 4897   6.185   3.159  -0.191  0.0420 -1.1981 -0.7774
   38MOL0     C 4898   6.071   3.245  -0.240  0.4168 -0.0299  1.2523
   38MOL0     C 4899   6.108   3.370  -0.335 -0.5829  0.0642 -1.6211
   38MOL0     C 4900   5.980   3.456  -0.372  0.7028 -0.0435 -0.0869
   38MOL0     N 4901   5.901   3.385  -0.479 -0.2933  0.8970 -0.0056
   38MOL0     C 4902   5.950   3.350  -0.610  0.4638 -0.6863  0.0511
   38MOL0     C 4903   5.848   3.297  -0.681  1.4943 -0.7121  0.6158
   38MOL0     C 4904   5.860   3.224  -0.808 -0.7886 -0.3019 -0.2634
   38MOL0     C 4905   5.823   3.075  -0.791 -0.1471  0.0984 -0.1808
   38MOL0     C 4906   5.759   3.027  -0.922  0.6595  0.1266 -0.0846
   38MOL0     C 4907   5.734   2.869  -0.924 -0.5308 -0.5297  0.2946
   38MOL0     O 4908   5.632   2.829  -0.833  0.8026 -0.4593  0.8321
   38MOL0     C 4909   5.642   2.699  -0.806  0.6030  0.0261  0.0745
   38MOL0     C 4910   5.617   2.660  -0.678 -0.9927  0.1105  0.2500
   38MOL0     C 4911   5.598   2.519  -0.650 -0.5005  0.1923 -0.4869
   38MOL0     C 4912   5.606   2.423  -0.748  0.1430 -0.7590  0.2724
   38MOL0     C 4913   5.593   2.287  -0.713  0.2888  0.0581  0.2455
   38MOL0     O 4914   5.524   2.259  -0.599 -0.7635 -0.2223  0.7413
   38MOL0     C 4915   5.565   2.154  -0.523  0.1901 -0.6472 -0.5591
   38MOL0     C 4916   5.465   2.097  -0.432 -0.6353 -0.6868 -0.5171
   38MOL0     C 4917   5.503   2.006  -0.333  0.2877 -0.7540  0.0889
   38MOL0     C 4918   5.628   1.951  -0.327  0.0149 -0.1983 -0.4613
   38MOL0     O 4919   5.640   1.850  -0.233  0.2243  0.0556  0.2686
   38MOL0     C 4920   5.762   1.768  -0.225 -0.0872 -0.3054  0.2289
   38MOL0     C 4921   5.732   1.622  -0.176  0.2413 -0.5943 -0.1584
   38MOL0     C 4922   5.672   1.531  -0.285 -0.9561 -0.1238  0.6136
   38MOL0     C 4923   5.616   1.394  -0.231 -0.3007 -1.5237  0.2025
   38MOL0     C 4924   5.585   1.294  -0.339  0.2597  0.1199 -0.2074
   38MOL0     C 4925   5.548   1.147  -0.287  0.0932 -0.6973  0.1272
   38MOL0     C 4926   5.567   1.036  -0.389  0.2386 -0.0964  0.4268
   38MOL0     C 4927   5.580   0.891  -0.331 -0.6808  0.4097 -0.0632
   38MOL0    Cl 4928   5.439   0.851  -0.229 -0.3039 -0.2591 -0.2147
   38MOL0     C 4929   5.728   2.008  -0.419 -0.5977 -0.2175  0.1514
   38MOL0     C 4930   5.694   2.102  -0.511  1.2104 -0.6017  0.6349
   38MOL0     O 4931   5.657   2.209  -0.781 -0.6812 -0.0988  0.0293
   38MOL0     C 4932   5.621   2.472  -0.883 -0.2276  0.7739  0.5325
   38MOL0     C 4933   5.634   2.606  -0.914  0.1330 -0.5535 -0.2839
   38MOL0     N 4934   5.739   3.293  -0.594 -0.6218  1.0996  0.1614
   38MOL0     N 4935   5.767   3.360  -0.491 -0.5355 -0.7501 -0.0237
   38MOL0     C 4936   6.689   3.031   0.398 -0.3759  0.9041 -1.1165
   38MOL0     C 4937   6.716   2.995   0.533 -0.5643 -0.7168 -0.5382
   38MOL0     C 4938   6.820   2.955   0.973 -0.4975  0.0118  0.8054
   38MOL0     C 4939   6.861   2.833   1.036  0.3906 -0.2206 -0.4095
   38MOL0     C 4940   6.901   2.821   1.165 -1.0293  0.0511  0.5948
   38MOL0     C 4941   6.923   2.944   1.237 -0.4135 -0.4178  0.3580
   38MOL0     O 4942   6.974   2.939   1.356  0.7332 -0.0936  0.8569
   38MOL0     C 4943   7.084   2.843   1.380  0.1690 -0.6276  0.4131
   38MOL0     C 4944   7.140   2.871   1.526  0.4049  0.6901 -0.6810
   38MOL0     C 4945   7.202   2.734   1.576 -0.8345  0.6496 -0.6234
   38MOL0     C 4946   7.169   2.727   1.728 -0.3113  0.7711 -0.3123
   38MOL0     C 4947   7.254   2.806   1.817  0.8633  0.2163 -0.1577
   38MOL0     C 4948   7.318   2.883   1.884 -0.0086 -0.0322  0.1385
   38MOL0     C 4949   6.887   3.067   1.183 -0.2808  0.3062  0.3815
   38MOL0     C 4950   6.822   3.074   1.051  0.1484 -1.0622 -0.1338
   38MOL0     H 4951   6.688   3.285   0.691  0.6451 -0.2750 -0.2636
   38MOL0     H 4952   6.645   3.360   0.469  2.2361 -0.0324  5.2443
   38MOL0     H 4953   6.534   3.037   0.172 -2.2833  0.0370 -1.8533
   38MOL0     H 4954   6.678   3.101   0.076 -0.5397  0.8060 -0.6217
   38MOL0     H 4955   6.556   3.259  -0.031 -0.6893  1.3642  1.4072
   38MOL0     H 4956   6.438   3.274   0.099 -1.2971 -0.3872 -0.3918
   38MOL0     H 4957   6.317   3.058   0.028 -0.7110  1.6561  1.2673
   38MOL0     H 4958   6.426   3.061  -0.111  0.7403 -1.5244  1.2534
   38MOL0     H 4959   6.231   3.293  -0.018  1.7385  1.8787 -0.4754
   38MOL0     H 4960   6.360   3.293  -0.141  1.5295  0.4936  1.5324
   38MOL0     H 4961   6.139   3.065  -0.161 -4.0369  0.1827 -2.0558
   38MOL0     H 4962   6.251   3.144  -0.278  0.5254 -0.7208 -0.4981
   38MOL0     H 4963   6.025   3.281  -0.147  2.2586 -0.7972  2.5363
   38MOL0     H 4964   6.008   3.178  -0.298  0.4449 -4.2352  5.4307
   38MOL0     H 4965   6.176   3.424  -0.269 -0.5338  0.0213 -1.6370
   38MOL0     H 4966   6.164   3.349  -0.427  0.0686 -2.3140 -0.7472
   38MOL0     H 4967   6.009   3.554  -0.410 -0.0113  1.0736  2.0710
   38MOL0     H 4968   5.913   3.472  -0.287  0.4098 -1.3434 -0.0559
   38MOL0     H 4969   6.054   3.348  -0.642  0.2669 -1.6088 -0.5914
   38MOL0     H 4970   5.956   3.237  -0.858  0.4359  2.8842  2.5009
   38MOL0     H 4971   5.791   3.274  -0.876 -2.0723  2.7073  2.9011
   38MOL0     H 4972   5.763   3.063  -0.700 -0.2590 -0.1922 -0.2888
   38MOL0     H 4973   5.907   3.008  -0.771 -0.9786 -0.5984  1.0813
   38MOL0     H 4974   5.662   3.073  -0.942  0.8102  0.0106 -1.1676
   38MOL0     H 4975   5.828   3.062  -1.001  0.2265 -0.6560 -0.8211
   38MOL0     H 4976   5.830   2.825  -0.894 -0.7965 -0.5427  1.1481
   38MOL0     H 4977   5.699   2.849  -1.025 -2.5811 -1.0905  1.0801
   38MOL0     H 4978   5.629   2.738  -0.603  2.8876  0.4004 -0.4450
   38MOL0     H 4979   5.582   2.479  -0.550  1.1908 -1.3882 -0.7943
   38MOL0     H 4980   5.367   2.143  -0.432 -0.8614 -1.0286  2.0549
   38MOL0     H 4981   5.431   1.969  -0.260 -0.2083 -1.4138 -0.7136
   38MOL0     H 4982   5.826   1.826  -0.158 -2.0022  4.5236 -1.6593
   38MOL0     H 4983   5.809   1.763  -0.324 -1.3261 -0.4111 -0.3608
   38MOL0     H 4984   5.662   1.636  -0.094 -1.1387  0.0715 -1.3961
   38MOL0     H 4985   5.822   1.578  -0.132  0.6189  1.3206  1.0756
   38MOL0     H 4986   5.755   1.523  -0.356 -1.8719 -0.6583 -0.4340
   38MOL0     H 4987   5.582   1.578  -0.325 -1.1814  0.6396  1.9731
   38MOL0     H 4988   5.688   1.351  -0.160 -0.4660  0.1737  1.4621
   38MOL0     H 4989   5.525   1.412  -0.174 -1.5227  0.3516 -2.1926
   38MOL0     H 4990   5.670   1.276  -0.406  0.2808 -2.0892  0.3326
   38MOL0     H 4991   5.504   1.340  -0.397 -1.1099 -2.8305 -0.8274
   38MOL0     H 4992   5.454   1.145  -0.231 -1.3694  5.9707 -1.2122
   38MOL0     H 4993   5.619   1.120  -0.208 -3.0724 -1.7530  2.8892
   38MOL0     H 4994   5.479   1.043  -0.453  1.9887 -0.6471 -2.1637
   38MOL0     H 4995   5.636   1.068  -0.467 -3.9751  0.8177 -3.3507
   38MOL0     H 4996   5.673   0.880  -0.274 -0.8906  0.0726  0.2195
   38MOL0     H 4997   5.585   0.817  -0.411  0.7990  0.6462 -0.2282
   38MOL0     H 4998   5.830   1.972  -0.415 -0.8359 -0.8708  0.5883
   38MOL0     H 4999   5.765   2.145  -0.580 -1.3575 -2.5859 -3.6969
   38MOL0     H 5000   5.619   2.399  -0.963  0.2172 -2.4858  3.2541
   38MOL0     H 5001   5.647   2.642  -1.015 -0.3514 -1.4084 -0.6513
   38MOL0     H 5002   6.674   2.959   0.317 -0.6932  0.1913 -0.4356
   38MOL0     H 5003   6.749   2.893   0.548 -1.8520 -1.0730  0.0537
   38MOL0     H 5004   6.859   2.745   0.973  0.4257 -1.4974  1.3101
   38MOL0     H 5005   6.902   2.725   1.216 -3.7675 -0.4655 -0.1496
   38MOL0     H 5006   7.165   2.865   1.310 -0.9136 -0.4897 -0.8277
   38MOL0     H 5007   7.039   2.743   1.377 -0.6834 -0.2721  0.9509
   38MOL0     H 5008   7.226   2.937   1.533  0.6274  0.5811 -2.0592
   38MOL0     H 5009   7.049   2.894   1.582  0.1956  1.5405 -1.3452
   38MOL0     H 5010   7.308   2.723   1.553 -0.6174  2.1412 -0.3743
   38MOL0     H 5011   7.148   2.648   1.533 -2.3801  0.3406  1.7410
   38MOL0     H 5012   7.064   2.755   1.741 -0.8412 -0.9302 -0.6301
   38MOL0     H 5013   7.175   2.620   1.752 -0.7876  1.0037  0.9207
   38MOL0     H 5014   7.401   2.933   1.931  3.1203 -2.8865 -1.9147
   38MOL0     H 5015   6.906   3.161   1.234 -1.7497  1.8730 -1.7866
   38MOL0     H 5016   6.794   3.171   1.011  0.9853 -1.2910 -1.3407
   39MOL0     O 5017   3.789   1.945   2.448 -0.2303 -0.2176  0.4665
   39MOL0     C 5018   3.696   2.025   2.445  0.2198 -0.3486 -0.7520
   39MOL0     O 5019   3.568   2.003   2.435  0.1449  0.3475 -0.2603
   39MOL0     C 5020   3.531   1.872   2.415  0.4352  0.1523  0.4962
   39MOL0     C 5021   3.562   1.811   2.290  0.1589  0.0273  1.3210
   39MOL0     C 5022   3.528   1.679   2.264 -0.4026  0.3034  0.1592
   39MOL0     C 5023   3.478   1.599   2.372  0.7008  0.3612 -0.1551
   39MOL0     O 5024   3.441   1.468   2.342  0.4054  0.1702 -0.1121
   39MOL0     C 5025   3.469   1.372   2.434  0.6181  0.1153 -0.9978
   39MOL0     C 5026   3.438   1.244   2.371  0.4894  0.8165 -0.3002
   39MOL0     C 5027   3.434   1.125   2.475  0.1891 -0.7665  0.1228
   39MOL0     C 5028   3.318   1.027   2.469 -0.8199  0.4910 -0.8997
   39MOL0     C 5029   3.321   0.920   2.582 -0.1111 -1.4960  0.2373
   39MOL0     C 5030   3.220   0.817   2.560  0.3454 -1.1056  0.0138
   39MOL0     C 5031   3.187   0.737   2.685  0.7585 -0.3254  0.3404
   39MOL0     C 5032   3.308   0.645   2.723  0.4709  0.2163 -0.6480
   39MOL0     N 5033   3.315   0.543   2.621  0.7040 -0.3635  0.0101
   39MOL0     C 5034   3.230   0.440   2.606 -0.5945 -0.5241  0.8401
   39MOL0     C 5035   3.281   0.372   2.504 -0.5640 -0.9551  0.3093
   39MOL0     C 5036   3.201   0.264   2.442  0.2228 -0.7790 -0.5672
   39MOL0     C 5037   3.277   0.182   2.333  1.0165  0.3228 -0.0203
   39MOL0     C 5038   3.171   0.063   2.304 -0.6031  0.4531 -0.0539
   39MOL0     C 5039   3.234  -0.062   2.234 -0.0267 -0.5066 -0.9276
   39MOL0     O 5040   3.272  -0.039   2.103 -0.6684 -0.4682 -0.1820
   39MOL0     C 5041   3.257  -0.148   2.021  0.4103 -0.6609 -0.2151
   39MOL0     C 5042   3.300  -0.278   2.039 -1.1183  0.3922 -0.4969
   39MOL0     C 5043   3.270  -0.380   1.952 -0.4708  0.2223 -1.0271
   39MOL0     C 5044   3.193  -0.343   1.841 -0.2876 -0.2264 -0.0129
   39MOL0     C 5045   3.149  -0.457   1.749 -0.3529 -0.3298 -0.2223
   39MOL0     O 5046   3.130  -0.584   1.796  0.2499 -0.2277 -0.1210
   39MOL0     C 5047   3.082  -0.677   1.707  0.1649  0.5916 -0.3881
   39MOL0     C 5048   3.149  -0.703   1.582  0.0269  0.2205 -0.2093
   39MOL0     C 5049   3.103  -0.806   1.498 -0.3048 -0.1165 -0.2277
   39MOL0     C 5050   2.999  -0.893   1.533  0.0800 -0.2483  0.1112
   39MOL0     O 5051   2.968  -1.004   1.464  0.2048 -0.0015 -0.2999
   39MOL0     C 5052   3.079  -1.086   1.461  0.2504  0.0124 -0.1049
   39MOL0     C 5053   3.027  -1.222   1.403  0.3882 -0.6250  0.4154
   39MOL0     C 5054   2.969  -1.223   1.256  0.7370  0.1502 -0.2269
   39MOL0     C 5055   3.049  -1.138   1.164  0.1403 -0.5496  0.4519
   39MOL0     C 5056   3.026  -1.176   1.016 -0.5418 -0.1896  0.6000
   39MOL0     C 5057   3.123  -1.094   0.922 -0.6594 -0.4169  0.5752
   39MOL0     C 5058   3.105  -1.127   0.770 -0.1877 -0.1288  0.7030
   39MOL0     C 5059   2.966  -1.136   0.719  0.4835 -0.1327 -0.2868
   39MOL0    Cl 5060   2.902  -1.296   0.682 -0.6589 -0.8240  0.0205
   39MOL0     C 5061   2.934  -0.863   1.653 -0.7373 -0.1478 -0.1859
   39MOL0     C 5062   2.966  -0.759   1.736 -0.4697 -0.6315 -0.4157
   39MOL0     O 5063   3.122  -0.420   1.636 -0.1878  0.1150 -0.0596
   39MOL0     C 5064   3.147  -0.217   1.823 -1.5058 -0.2293  0.1706
   39MOL0     C 5065   3.182  -0.124   1.914  0.0466 -0.3157  0.8712
   39MOL0     N 5066   3.399   0.429   2.461  0.7289  0.1887 -0.0442
   39MOL0     N 5067   3.421   0.529   2.533  0.3342  0.0322 -0.1490
   39MOL0     C 5068   3.436   1.666   2.489  0.7291  0.7927  0.0280
   39MOL0     C 5069   3.470   1.797   2.505  0.4611 -0.0456 -0.9198
   39MOL0     C 5070   3.743   2.163   2.472  0.1062 -0.0960 -0.4926
   39MOL0     C 5071   3.646   2.264   2.485  1.1669 -1.2417  1.6085
   39MOL0     C 5072   3.676   2.400   2.511  0.2345  0.7278  0.2281
   39MOL0     C 5073   3.811   2.438   2.519 -0.9716  0.7914 -0.1117
   39MOL0     O 5074   3.840   2.571   2.536 -0.5194 -0.0771  0.6419
   39MOL0     C 5075   3.978   2.609   2.550  0.5793 -0.3140  1.0216
   39MOL0     C 5076   4.000   2.753   2.525  0.5982 -0.2026  0.0986
   39MOL0     C 5077   3.958   2.790   2.381 -0.4277 -0.0706  0.2436
   39MOL0     C 5078   3.997   2.938   2.324 -0.8540 -0.1454 -0.4993
   39MOL0     C 5079   4.057   2.927   2.194  0.1328  0.2538  0.7761
   39MOL0     C 5080   4.132   2.919   2.099 -0.8105  0.3720 -0.3403
   39MOL0     C 5081   3.910   2.333   2.512  0.6772 -0.2880  0.3095
   39MOL0     C 5082   3.881   2.199   2.489  0.1264 -0.1700 -1.0924
   39MOL0     H 5083   3.630   1.864   2.225 -1.1291 -0.7551 -0.7689
   39MOL0     H 5084   3.541   1.620   2.174 -2.2314 -2.3668  1.4993
   39MOL0     H 5085   3.401   1.377   2.519  1.8286 -0.5045  0.0373
   39MOL0     H 5086   3.575   1.368   2.461  0.2783 -4.1542  0.4779
   39MOL0     H 5087   3.510   1.228   2.291 -0.6775  0.4208 -1.3030
   39MOL0     H 5088   3.342   1.262   2.322  0.8840  1.6349 -0.7915
   39MOL0     H 5089   3.423   1.175   2.572  1.5840 -1.2450  0.5510
   39MOL0     H 5090   3.528   1.069   2.479  0.6068 -0.0905 -0.1967
   39MOL0     H 5091   3.226   1.086   2.469 -0.3940  1.3670  2.7187
   39MOL0     H 5092   3.332   0.969   2.377  0.0355 -1.3184  0.3033
   39MOL0     H 5093   3.310   0.966   2.681 -1.6216 -0.7768 -0.2364
   39MOL0     H 5094   3.424   0.882   2.586  0.7691  0.6286  4.5864
   39MOL0     H 5095   3.255   0.754   2.477  3.0178 -1.2518  1.1574
   39MOL0     H 5096   3.128   0.859   2.519  0.3021  2.5740  3.3366
   39MOL0     H 5097   3.193   0.806   2.770  3.6090 -0.6538  0.5079
   39MOL0     H 5098   3.091   0.685   2.680  3.0587 -4.9339 -1.9003
   39MOL0     H 5099   3.275   0.600   2.817  0.3870 -0.0837 -0.8191
   39MOL0     H 5100   3.401   0.702   2.723  2.1958 -2.3872 -1.6062
   39MOL0     H 5101   3.133   0.420   2.651  0.0805 -0.3800  2.4524
   39MOL0     H 5102   3.112   0.300   2.391  0.7527  0.2645 -0.7764
   39MOL0     H 5103   3.175   0.201   2.529  1.4968 -0.3410  0.1562
   39MOL0     H 5104   3.374   0.147   2.369  0.7526 -0.7398 -0.3251
   39MOL0     H 5105   3.297   0.231   2.237  3.7393  2.3102  1.4077
   39MOL0     H 5106   3.125   0.021   2.394  2.9393 -0.0555  1.7123
   39MOL0     H 5107   3.098   0.091   2.227  1.5496 -0.7154 -2.6814
   39MOL0     H 5108   3.164  -0.146   2.239  0.1574 -0.9660 -4.0463
   39MOL0     H 5109   3.325  -0.091   2.288 -2.4463 -1.7582  2.8301
   39MOL0     H 5110   3.368  -0.299   2.121  1.2284 -0.5198 -2.5329
   39MOL0     H 5111   3.315  -0.478   1.961  3.8179  2.1106  1.0958
   39MOL0     H 5112   3.225  -0.635   1.544  0.8861 -0.1345  0.7954
   39MOL0     H 5113   3.149  -0.806   1.400  1.9546  3.2953  0.6446
   39MOL0     H 5114   3.126  -1.099   1.559 -1.1576 -1.9421  0.3721
   39MOL0     H 5115   3.159  -1.054   1.394 -0.7556  2.3191 -0.2874
   39MOL0     H 5116   2.959  -1.271   1.473 -0.2639  1.3037  1.2100
   39MOL0     H 5117   3.114  -1.287   1.388  1.5752  0.6199  1.5264
   39MOL0     H 5118   2.868  -1.179   1.257  0.0090 -1.1310 -3.6191
   39MOL0     H 5119   2.959  -1.328   1.228  1.5696 -0.0647  0.2582
   39MOL0     H 5120   3.026  -1.032   1.181  0.1379 -0.3987 -0.4379
   39MOL0     H 5121   3.155  -1.140   1.189 -0.0543  1.4163  1.7072
   39MOL0     H 5122   2.925  -1.147   0.982 -0.7731 -0.5262  0.9930
   39MOL0     H 5123   3.046  -1.283   1.006 -3.1748 -0.6083 -1.2716
   39MOL0     H 5124   3.228  -1.105   0.950 -0.5530 -0.6325  0.0987
   39MOL0     H 5125   3.098  -0.988   0.927  0.0058  0.3586 -5.3120
   39MOL0     H 5126   3.157  -1.050   0.713 -3.2080 -0.4044 -2.8244
   39MOL0     H 5127   3.163  -1.214   0.738  1.7061  2.5452 -4.1618
   39MOL0     H 5128   2.971  -1.069   0.633  2.0848  0.0523 -0.0943
   39MOL0     H 5129   2.897  -1.090   0.790  1.7192 -0.8166  1.4377
   39MOL0     H 5130   2.852  -0.922   1.694 -1.6234  0.3242 -1.2171
   39MOL0     H 5131   2.924  -0.755   1.836  0.3916 -0.8778 -0.0287
   39MOL0     H 5132   3.071  -0.192   1.750 -2.7632 -1.5509  0.9786
   39MOL0     H 5133   3.145  -0.027   1.884  2.5720  0.4613 -0.0243
   39MOL0     H 5134   3.382   1.604   2.559  1.4989  0.3490  0.2420
   39MOL0     H 5135   3.455   1.843   2.603 -1.5113  0.9880 -1.6473
   39MOL0     H 5136   3.541   2.244   2.468  0.6804  0.7563  1.9592
   39MOL0     H 5137   3.601   2.478   2.522 -2.2768 -1.5114 -0.2081
   39MOL0     H 5138   4.057   2.561   2.492  0.3385  1.9491 -1.3774
   39MOL0     H 5139   4.009   2.595   2.654 -0.2649 -1.4796  1.1427
   39MOL0     H 5140   3.948   2.815   2.599 -1.5386 -0.6623 -0.9387
   39MOL0     H 5141   4.102   2.791   2.531 -0.5977  3.2519  1.1612
   39MOL0     H 5142   3.850   2.779   2.370 -0.3944  1.4940 -2.8974
   39MOL0     H 5143   4.008   2.718   2.316  2.1896  1.2640  0.6136
   39MOL0     H 5144   3.902   2.993   2.325 -0.5681  0.5580  3.2138
   39MOL0     H 5145   4.070   2.988   2.389 -0.1028 -0.9020 -0.7384
   39MOL0     H 5146   4.203   2.921   2.019 -2.0089 -1.4216 -1.5306
   39MOL0     H 5147   4.015   2.357   2.524  0.5206  2.5343 -2.6498
   39MOL0     H 5148   3.958   2.122   2.485 -0.1375 -0.4331 -1.2176
   40MOL0     O 5149   5.535   8.972   1.300 -0.8966  0.0319 -0.0935
   40MOL0     C 5150   5.503   9.072   1.228 -0.1995  0.1519 -0.6995
   40MOL0     O 5151   5.374   9.095   1.191  0.7917  0.6037  0.5405
   40MOL0     C 5152   5.265   9.074   1.280 -0.4844  0.3462 -0.0702
   40MOL0     C 5153   5.240   8.944   1.336  0.6127 -0.5210  0.6688
   40MOL0     C 5154   5.155   8.932   1.445  0.3718 -0.5392 -0.2731
   40MOL0     C 5155   5.077   9.042   1.495 -0.0982 -0.2484 -0.0941
   40MOL0     O 5156   4.999   9.034   1.609 -0.3295  0.5065 -0.5544
   40MOL0     C 5157   5.086   9.062   1.723  0.3335 -0.6516  0.0009
   40MOL0     C 5158   5.125   8.933   1.794  0.3179 -0.2050 -0.3852
   40MOL0     C 5159   5.002   8.863   1.855  0.3430 -0.1415 -0.3590
   40MOL0     C 5160   4.947   8.764   1.757  0.2998  0.1283 -0.2513
   40MOL0     C 5161   4.827   8.681   1.824 -0.4572  0.7444  0.5478
   40MOL0     C 5162   4.758   8.585   1.718 -0.9228  0.6160  0.4354
   40MOL0     C 5163   4.675   8.470   1.781  0.7709 -0.2318  0.3657
   40MOL0     C 5164   4.745   8.379   1.873  0.2861 -0.2981  0.2569
   40MOL0     N 5165   4.847   8.298   1.803 -0.1385  0.3897 -0.4605
   40MOL0     C 5166   4.811   8.177   1.746  0.5063 -0.0635 -0.6962
   40MOL0     C 5167   4.927   8.113   1.720  0.1012 -0.1582 -0.0106
   40MOL0     C 5168   4.939   7.981   1.661 -0.1715  0.1501 -0.7715
   40MOL0     C 5169   5.077   7.918   1.708  0.5687  0.4764  0.1597
   40MOL0     C 5170   5.084   7.762   1.706  0.9363 -1.2129  0.4323
   40MOL0     C 5171   5.064   7.700   1.571  0.2440  0.4913 -0.2107
   40MOL0     O 5172   5.046   7.559   1.574 -0.0530  0.6713  0.2196
   40MOL0     C 5173   4.940   7.516   1.493 -1.2732  0.0563 -0.5718
   40MOL0     C 5174   4.967   7.423   1.390 -0.0815  0.3874 -0.4197
   40MOL0     C 5175   4.858   7.375   1.306 -0.4668  0.0001 -0.0627
   40MOL0     C 5176   4.728   7.418   1.336 -1.1799 -0.2379 -0.8937
   40MOL0     C 5177   4.614   7.376   1.253 -0.6305  0.1508 -1.4114
   40MOL0     O 5178   4.634   7.257   1.185  0.3985 -0.2264 -0.7154
   40MOL0     C 5179   4.537   7.207   1.097  0.2359  0.1243 -0.2399
   40MOL0     C 5180   4.580   7.090   1.024 -0.7697 -0.1607 -0.5297
   40MOL0     C 5181   4.503   7.020   0.935 -0.2263 -0.2676  0.6288
   40MOL0     C 5182   4.374   7.060   0.915  0.8912  0.0984 -0.2952
   40MOL0     O 5183   4.293   6.990   0.825 -0.2239  0.2984  0.0059
   40MOL0     C 5184   4.149   7.019   0.802 -0.5028  0.1337  0.3008
   40MOL0     C 5185   4.075   6.890   0.800  0.5586 -0.9401 -0.6564
   40MOL0     C 5186   3.922   6.915   0.769 -0.2260  0.3085 -0.0297
   40MOL0     C 5187   3.849   6.788   0.736  0.5453  0.8313  0.8432
   40MOL0     C 5188   3.706   6.804   0.714  0.9921  0.0155  0.1000
   40MOL0     C 5189   3.622   6.679   0.710 -0.5895  0.5163 -0.0653
   40MOL0     C 5190   3.608   6.612   0.847  0.3378  0.0151  0.4923
   40MOL0     C 5191   3.481   6.518   0.848  0.0943 -0.5227 -0.2935
   40MOL0    Cl 5192   3.479   6.414   0.990 -0.1374 -0.1384  0.4104
   40MOL0     C 5193   4.333   7.181   0.979  0.1955  0.4613 -0.1722
   40MOL0     C 5194   4.399   7.257   1.068  0.7701  0.2956  0.3498
   40MOL0     O 5195   4.512   7.442   1.254  0.1556  0.1725 -0.3342
   40MOL0     C 5196   4.707   7.510   1.443  0.2346 -0.8536  1.0407
   40MOL0     C 5197   4.811   7.552   1.527 -0.5736 -1.1984  1.1260
   40MOL0     N 5198   5.033   8.195   1.759 -0.1739 -0.9563 -0.9005
   40MOL0     N 5199   4.984   8.296   1.820 -0.6403  0.1901  0.2584
   40MOL0     C 5200   5.099   9.165   1.422  0.2825 -0.4634 -0.8124
   40MOL0     C 5201   5.191   9.183   1.317  0.5511  0.5667 -0.4144
   40MOL0     C 5202   5.598   9.141   1.140 -1.4186  0.1091  0.7604
   40MOL0     C 5203   5.568   9.272   1.087 -1.1219 -0.6580 -0.8980
   40MOL0     C 5204   5.662   9.337   1.005 -0.9950 -0.6450  0.5018
   40MOL0     C 5205   5.782   9.278   0.971  0.8750 -0.5441 -0.0927
   40MOL0     O 5206   5.856   9.348   0.882 -0.2624 -0.1505  0.1430
   40MOL0     C 5207   5.999   9.319   0.877  0.6949  0.1264 -0.1061
   40MOL0     C 5208   6.077   9.432   0.814  1.0745 -0.1487  0.6348
   40MOL0     C 5209   6.232   9.399   0.804  1.0026  0.8625  0.6224
   40MOL0     C 5210   6.282   9.340   0.677  0.1487  0.2226  0.2125
   40MOL0     C 5211   6.254   9.436   0.575 -0.9343  0.0302 -0.3243
   40MOL0     C 5212   6.242   9.506   0.479  0.0883  0.4528  0.6114
   40MOL0     C 5213   5.816   9.151   1.022 -0.0048 -0.1019  0.8109
   40MOL0     C 5214   5.729   9.083   1.107 -0.0116 -0.1417 -0.5680
   40MOL0     H 5215   5.284   8.854   1.294 -2.4673 -0.5814 -2.9708
   40MOL0     H 5216   5.143   8.831   1.484 -0.3979 -1.0439 -1.7667
   40MOL0     H 5217   5.024   9.128   1.784 -1.0032 -2.7739  1.0637
   40MOL0     H 5218   5.178   9.117   1.701  0.9412 -1.1883  1.0702
   40MOL0     H 5219   5.202   8.938   1.871  2.1190  0.1525 -2.1046
   40MOL0     H 5220   5.157   8.872   1.708 -0.5024  1.5346 -1.9984
   40MOL0     H 5221   4.932   8.940   1.888 -0.8967 -0.7090 -1.5883
   40MOL0     H 5222   5.028   8.799   1.940  0.7096 -0.8046 -0.9568
   40MOL0     H 5223   4.916   8.805   1.661 -0.3832  0.6464  0.1825
   40MOL0     H 5224   5.031   8.695   1.747  0.3519  0.0201  0.7678
   40MOL0     H 5225   4.755   8.753   1.864  1.7777  2.8683  0.9640
   40MOL0     H 5226   4.874   8.630   1.909  0.9170  0.8894 -0.0917
   40MOL0     H 5227   4.842   8.528   1.677  0.5181  0.8183  2.8737
   40MOL0     H 5228   4.701   8.634   1.640  0.3096 -0.9400 -1.5368
   40MOL0     H 5229   4.589   8.514   1.831  0.5229 -3.3618  3.0575
   40MOL0     H 5230   4.637   8.414   1.696 -2.8916 -0.2136  1.7900
   40MOL0     H 5231   4.685   8.302   1.922 -0.9640  0.6131  0.2075
   40MOL0     H 5232   4.786   8.445   1.951  0.0495  0.3727 -0.1757
   40MOL0     H 5233   4.710   8.138   1.733  0.4262 -0.5071  1.0269
   40MOL0     H 5234   4.926   7.983   1.552 -1.0615  3.7037 -0.6843
   40MOL0     H 5235   4.862   7.918   1.706 -0.2130  0.3322 -0.5909
   40MOL0     H 5236   5.108   7.946   1.809 -1.2245  2.0598  0.3207
   40MOL0     H 5237   5.147   7.949   1.631  0.8220 -0.5335 -0.0379
   40MOL0     H 5238   5.185   7.734   1.738  2.0053  1.1873 -0.5970
   40MOL0     H 5239   5.012   7.731   1.782  0.2893  1.1681  0.8591
   40MOL0     H 5240   5.142   7.730   1.500 -0.8307  0.3202 -1.5079
   40MOL0     H 5241   4.976   7.743   1.522 -1.0226 -3.1673 -1.5487
   40MOL0     H 5242   5.072   7.403   1.373 -0.0958  0.8275 -1.0635
   40MOL0     H 5243   4.881   7.317   1.217 -1.4250  0.5787 -0.6994
   40MOL0     H 5244   4.679   7.049   1.043 -1.5439 -0.9621  2.1489
   40MOL0     H 5245   4.535   6.925   0.894 -4.5259 -0.2272 -3.6834
   40MOL0     H 5246   4.133   7.071   0.707 -2.4886  1.5205  1.3406
   40MOL0     H 5247   4.109   7.081   0.882 -1.9391 -0.1252 -0.1823
   40MOL0     H 5248   4.084   6.825   0.888 -2.1852  0.7381  1.0444
   40MOL0     H 5249   4.118   6.824   0.724 -1.3499 -2.0713 -0.8320
   40MOL0     H 5250   3.911   6.977   0.680 -1.8268  1.4608  0.9039
   40MOL0     H 5251   3.863   6.964   0.848 -1.9949  0.9487 -1.6714
   40MOL0     H 5252   3.896   6.740   0.650  0.1122  0.8537  0.5938
   40MOL0     H 5253   3.863   6.723   0.824  2.2705  0.9138  0.6730
   40MOL0     H 5254   3.687   6.850   0.617 -2.5495 -0.7996  0.2905
   40MOL0     H 5255   3.651   6.864   0.787 -0.3822  0.0459 -0.9122
   40MOL0     H 5256   3.667   6.611   0.638  2.4427  0.9834  1.2588
   40MOL0     H 5257   3.524   6.715   0.677 -1.2880 -0.7211  0.5930
   40MOL0     H 5258   3.689   6.539   0.858 -0.6170 -1.8646 -3.1203
   40MOL0     H 5259   3.607   6.683   0.930 -0.9356 -0.0490  0.5548
   40MOL0     H 5260   3.472   6.464   0.753 -1.1358  2.8235 -2.2340
   40MOL0     H 5261   3.388   6.573   0.866  1.4489  2.5307 -1.8518
   40MOL0     H 5262   4.237   7.228   0.961  0.8355  1.5469 -0.7804
   40MOL0     H 5263   4.357   7.349   1.108  2.0707  0.5610  1.1490
   40MOL0     H 5264   4.605   7.531   1.471  0.3066  2.1396 -0.5814
   40MOL0     H 5265   4.805   7.622   1.610  1.1954 -0.8557  1.0044
   40MOL0     H 5266   5.066   9.258   1.467  3.9562  0.6471 -0.1396
   40MOL0     H 5267   5.209   9.278   1.268 -0.1914  1.0866  0.3057
   40MOL0     H 5268   5.468   9.312   1.101 -0.4519  0.3236  1.8745
   40MOL0     H 5269   5.628   9.435   0.974 -0.5072 -0.7453 -0.3759
   40MOL0     H 5270   6.023   9.220   0.839  2.8623  1.2781 -2.0112
   40MOL0     H 5271   6.038   9.315   0.980  3.0819  2.3967 -0.7904
   40MOL0     H 5272   6.036   9.470   0.720  1.1591  2.5784  1.6057
   40MOL0     H 5273   6.067   9.511   0.889  0.1272  0.3343  0.0141
   40MOL0     H 5274   6.265   9.327   0.879  0.7920  0.4996  0.3771
   40MOL0     H 5275   6.281   9.490   0.840 -1.9154  1.4863  3.4864
   40MOL0     H 5276   6.385   9.309   0.698  0.0336 -0.0806  0.3382
   40MOL0     H 5277   6.233   9.246   0.648 -0.3232  0.9853 -1.6141
   40MOL0     H 5278   6.214   9.558   0.390 -0.9754 -2.7794 -1.1360
   40MOL0     H 5279   5.909   9.096   1.022 -0.1657 -0.5384  3.7647
   40MOL0     H 5280   5.754   8.989   1.156 -1.5831 -0.2605  0.0839
   41MOL0     O 5281   7.044   2.550   9.436 -0.2991  0.0077 -0.1604
   41MOL0     C 5282   7.117   2.637   9.467  0.9716 -0.5380 -0.2651
   41MOL0     O 5283   7.250   2.631   9.489 -0.4960  0.5672  0.5410
   41MOL0     C 5284   7.327   2.511   9.495  0.1243  0.1560  0.8874
   41MOL0     C 5285   7.292   2.377   9.536  0.5776 -0.0109  0.1289
   41MOL0     C 5286   7.395   2.279   9.513  1.2084 -0.2193  0.1818
   41MOL0     C 5287   7.521   2.313   9.467 -0.0800 -0.1699  0.0315
   41MOL0     O 5288   7.614   2.216   9.415 -0.2928  0.1623 -0.0433
   41MOL0     C 5289   7.579   2.076   9.386 -0.6133 -0.1727  0.0870
   41MOL0     C 5290   7.682   2.018   9.280  0.3362 -0.7299 -0.4083
   41MOL0     C 5291   7.677   2.108   9.151 -0.0174  0.0362  0.0599
   41MOL0     C 5292   7.685   2.032   9.017 -0.1497 -0.7833  0.4678
   41MOL0     C 5293   7.692   2.131   8.904 -0.2787  0.0559  0.3252
   41MOL0     C 5294   7.638   2.064   8.770 -0.1360  0.4835  0.3678
   41MOL0     C 5295   7.630   2.164   8.650  0.0375 -0.0091 -0.9933
   41MOL0     C 5296   7.601   2.073   8.528  0.9378 -0.5090  0.3200
   41MOL0     N 5297   7.630   2.142   8.393  0.1265 -0.5611 -0.5166
   41MOL0     C 5298   7.521   2.170   8.315 -0.4299 -0.4931 -0.1283
   41MOL0     C 5299   7.561   2.260   8.219  0.1814 -0.0144  0.8129
   41MOL0     C 5300   7.471   2.300   8.104  0.5275 -0.5326  0.0787
   41MOL0     C 5301   7.547   2.284   7.965 -0.3422 -0.4109 -0.7782
   41MOL0     C 5302   7.487   2.371   7.866  0.1472 -0.8529  0.5132
   41MOL0     C 5303   7.556   2.506   7.848  0.1285 -1.0516 -0.2054
   41MOL0     O 5304   7.469   2.563   7.745 -0.3145 -0.4490  0.0719
   41MOL0     C 5305   7.527   2.636   7.643  1.5272 -0.9758 -0.5687
   41MOL0     C 5306   7.471   2.640   7.518 -1.0526  0.0905  0.1248
   41MOL0     C 5307   7.540   2.707   7.416  0.4440  0.0375  0.3444
   41MOL0     C 5308   7.660   2.784   7.438  0.2190 -0.1324 -0.2648
   41MOL0     C 5309   7.723   2.856   7.338 -0.4032 -0.4166 -0.0518
   41MOL0     O 5310   7.852   2.903   7.351 -0.7531 -0.4259 -0.4273
   41MOL0     C 5311   7.915   2.976   7.247  0.0018  0.2044 -0.6256
   41MOL0     C 5312   7.880   3.111   7.205 -1.0029 -0.7354  0.6326
   41MOL0     C 5313   7.963   3.182   7.119 -0.1689  0.2925  0.7478
   41MOL0     C 5314   8.080   3.117   7.077 -0.4295  0.5955  0.0874
   41MOL0     O 5315   8.159   3.193   6.992 -0.1329  0.0283  0.2173
   41MOL0     C 5316   8.301   3.177   7.008  0.6600  0.3141  0.9981
   41MOL0     C 5317   8.377   3.306   6.964 -0.0913 -0.8505  0.5466
   41MOL0     C 5318   8.356   3.323   6.823 -0.3595  0.1041  0.0101
   41MOL0     C 5319   8.425   3.447   6.774  0.3584 -0.4933  0.1307
   41MOL0     C 5320   8.429   3.449   6.617 -0.5602 -0.1145  0.1816
   41MOL0     C 5321   8.523   3.551   6.557  0.9072  0.7983 -0.9524
   41MOL0     C 5322   8.506   3.554   6.398  0.4003  0.2287 -0.5133
   41MOL0     C 5323   8.627   3.646   6.339  0.3636 -0.7726  0.0015
   41MOL0    Cl 5324   8.612   3.654   6.148  0.1134 -0.1311 -0.3794
   41MOL0     C 5325   8.118   2.975   7.120  0.4486 -0.9454 -0.7092
   41MOL0     C 5326   8.033   2.907   7.208  0.2643  0.6374  0.3070
   41MOL0     O 5327   7.658   2.874   7.237  0.3371  0.1421  0.2187
   41MOL0     C 5328   7.702   2.791   7.571  0.9987  0.2432 -0.6716
   41MOL0     C 5329   7.637   2.720   7.676 -0.0934 -0.4138  0.1730
   41MOL0     N 5330   7.695   2.290   8.244 -0.7631  0.9436 -0.3198
   41MOL0     N 5331   7.741   2.200   8.337 -0.3436 -0.4517 -0.2009
   41MOL0     C 5332   7.551   2.439   9.427  0.2841 -0.9983  0.6182
   41MOL0     C 5333   7.452   2.535   9.435 -1.2793 -0.2846  0.3304
   41MOL0     C 5334   7.064   2.773   9.502  0.2973 -0.3951  0.3658
   41MOL0     C 5335   7.138   2.866   9.568 -0.3419 -0.4414  0.6775
   41MOL0     C 5336   7.077   2.980   9.629 -1.1100 -0.2152 -0.3466
   41MOL0     C 5337   6.946   3.019   9.599  0.3368  0.7686  1.3165
   41MOL0     O 5338   6.887   3.130   9.654  0.3860  0.4637 -0.5234
   41MOL0     C 5339   6.761   3.172   9.604 -0.0567  0.1234 -0.2513
   41MOL0     C 5340   6.721   3.321   9.645  0.3410 -0.4064 -0.4307
   41MOL0     C 5341   6.843   3.413   9.647  0.3838  0.2147  0.6311
   41MOL0     C 5342   6.925   3.419   9.506  0.0972  0.4482 -0.5624
   41MOL0     C 5343   7.038   3.507   9.524 -1.6954 -0.8477 -0.4360
   41MOL0     C 5344   7.126   3.587   9.537  0.5075 -0.8355  0.2913
   41MOL0     C 5345   6.873   2.926   9.512 -0.2326  0.2536 -0.4357
   41MOL0     C 5346   6.930   2.803   9.475  0.8985  0.1261  0.8971
   41MOL0     H 5347   7.186   2.362   9.554 -0.3450  2.2990 -2.7044
   41MOL0     H 5348   7.366   2.175   9.530 -1.7618  0.5654  0.3832
   41MOL0     H 5349   7.484   2.097   9.336  1.2207  1.2486 -3.1265
   41MOL0     H 5350   7.570   2.010   9.473 -0.9059 -0.5455 -0.2204
   41MOL0     H 5351   7.653   1.920   9.241  1.3234 -0.7334 -1.1627
   41MOL0     H 5352   7.784   2.013   9.318  0.9748 -1.5803 -2.1264
   41MOL0     H 5353   7.749   2.187   9.173 -0.1253 -0.3921  2.1225
   41MOL0     H 5354   7.581   2.160   9.144  0.7715  1.5009 -0.2295
   41MOL0     H 5355   7.779   1.977   9.011  1.0500  0.6787  3.6719
   41MOL0     H 5356   7.605   1.959   9.001  0.7381 -1.7570  0.3691
   41MOL0     H 5357   7.798   2.159   8.904 -0.4391  1.0818 -2.6885
   41MOL0     H 5358   7.639   2.224   8.929  0.3122  0.5648 -0.2766
   41MOL0     H 5359   7.543   2.016   8.796 -0.1233 -1.3781 -2.5559
   41MOL0     H 5360   7.697   1.981   8.730 -1.3711 -0.0523 -0.4196
   41MOL0     H 5361   7.539   2.223   8.664  0.4078 -0.0032  2.0296
   41MOL0     H 5362   7.723   2.222   8.644 -0.8248  1.3027 -1.9627
   41MOL0     H 5363   7.497   2.041   8.537 -0.3829  2.0319 -3.5092
   41MOL0     H 5364   7.663   1.983   8.527  0.7002 -0.6770  0.4817
   41MOL0     H 5365   7.417   2.143   8.332 -1.4094  4.1114  3.0293
   41MOL0     H 5366   7.434   2.399   8.130  1.9118 -0.4822  2.0725
   41MOL0     H 5367   7.388   2.230   8.088 -0.5287  0.2127  1.9422
   41MOL0     H 5368   7.542   2.180   7.932  3.3947 -0.5967 -1.1280
   41MOL0     H 5369   7.651   2.316   7.978  0.6476 -2.9399 -1.7893
   41MOL0     H 5370   7.498   2.329   7.766 -5.2832  3.3824 -2.4190
   41MOL0     H 5371   7.381   2.386   7.884  0.0732 -3.1984  2.5226
   41MOL0     H 5372   7.663   2.507   7.826  0.3847  0.2932  0.9045
   41MOL0     H 5373   7.552   2.562   7.943 -1.1097 -2.0291  0.3451
   41MOL0     H 5374   7.385   2.581   7.488  0.8319 -2.1192 -1.3168
   41MOL0     H 5375   7.506   2.723   7.315  2.4566  3.1363  0.0073
   41MOL0     H 5376   7.785   3.151   7.241 -2.7437 -1.9581 -2.2572
   41MOL0     H 5377   7.932   3.276   7.075  2.9715  0.6679 -0.9721
   41MOL0     H 5378   8.327   3.081   6.963 -1.1260 -0.5100  1.5966
   41MOL0     H 5379   8.317   3.164   7.115 -0.9940  2.9662  1.6523
   41MOL0     H 5380   8.483   3.309   6.991 -0.5965  0.2845  2.6094
   41MOL0     H 5381   8.327   3.387   7.019 -1.0986 -1.2698  0.2650
   41MOL0     H 5382   8.252   3.340   6.794  0.1102 -1.8253 -3.4657
   41MOL0     H 5383   8.412   3.241   6.775  3.2407  2.4829 -0.2851
   41MOL0     H 5384   8.370   3.531   6.818  0.0066 -0.7238  0.1338
   41MOL0     H 5385   8.525   3.448   6.819 -0.0811  0.7850  1.1307
   41MOL0     H 5386   8.326   3.463   6.583 -0.2675 -1.4670 -1.4084
   41MOL0     H 5387   8.478   3.357   6.584  0.8750  0.3280  0.9844
   41MOL0     H 5388   8.626   3.524   6.582 -0.3996 -1.2455  3.1644
   41MOL0     H 5389   8.508   3.652   6.595  0.6175  0.0097  1.1840
   41MOL0     H 5390   8.506   3.455   6.352 -1.9441 -0.2266  0.3572
   41MOL0     H 5391   8.419   3.618   6.377  3.1551  4.1248 -1.2674
   41MOL0     H 5392   8.717   3.594   6.369  0.0562 -0.3311  1.7783
   41MOL0     H 5393   8.619   3.747   6.380  2.0603  0.9383 -3.4033
   41MOL0     H 5394   8.210   2.929   7.085  3.2297  3.2015  0.4124
   41MOL0     H 5395   8.063   2.809   7.244  0.0012  1.2995  2.4729
   41MOL0     H 5396   7.797   2.836   7.599  0.5311 -0.3849  2.3218
   41MOL0     H 5397   7.676   2.722   7.778  1.5719  1.3283 -0.4385
   41MOL0     H 5398   7.636   2.454   9.360 -1.4359 -1.3421 -1.7804
   41MOL0     H 5399   7.481   2.638   9.416  3.7361 -1.2374  1.4391
   41MOL0     H 5400   7.245   2.861   9.589 -0.2160  0.1037  0.1908
   41MOL0     H 5401   7.130   3.055   9.687 -0.4627  0.8504 -2.2390
   41MOL0     H 5402   6.682   3.101   9.627  1.1269 -0.9762  0.5377
   41MOL0     H 5403   6.777   3.176   9.496  3.6208  0.5150  0.1625
   41MOL0     H 5404   6.644   3.356   9.576 -1.7723  0.6118  2.2659
   41MOL0     H 5405   6.681   3.327   9.747  2.3079 -0.3579  0.3839
   41MOL0     H 5406   6.894   3.386   9.740  2.5032  1.7781 -0.0048
   41MOL0     H 5407   6.797   3.509   9.671 -2.1539 -0.1272 -2.3012
   41MOL0     H 5408   6.972   3.324   9.476  0.2125  0.2927  0.1097
   41MOL0     H 5409   6.868   3.455   9.420  0.3097 -2.1513 -1.9160
   41MOL0     H 5410   7.203   3.659   9.556 -1.2124  1.0431  0.5738
   41MOL0     H 5411   6.768   2.933   9.488  0.0267  2.3228 -1.1841
   41MOL0     H 5412   6.877   2.726   9.421  1.0263  0.0664  0.8562
   42MOL0     O 5413   5.124   7.445   0.341 -0.2397 -0.0637 -0.4891
   42MOL0     C 5414   5.114   7.460   0.220 -0.3408 -0.3828 -0.7444
   42MOL0     O 5415   5.194   7.528   0.136  0.6891 -0.4985 -0.1993
   42MOL0     C 5416   5.280   7.615   0.195 -1.1045 -0.8151  0.6173
   42MOL0     C 5417   5.415   7.596   0.160 -0.1680 -0.1429 -0.4650
   42MOL0     C 5418   5.505   7.696   0.201 -0.1926  0.6014 -0.7437
   42MOL0     C 5419   5.462   7.815   0.256 -0.7856  0.6656  0.4013
   42MOL0     O 5420   5.556   7.918   0.279 -0.0038  0.2087  0.2120
   42MOL0     C 5421   5.616   7.901   0.406 -0.1256  0.6491  0.2123
   42MOL0     C 5422   5.673   8.032   0.455 -0.0554  0.1607  0.4040
   42MOL0     C 5423   5.559   8.134   0.468  0.2729 -0.5388 -0.2289
   42MOL0     C 5424   5.577   8.257   0.557  0.1027 -0.2119  0.6790
   42MOL0     C 5425   5.680   8.359   0.492  1.3639  0.6886  0.1641
   42MOL0     C 5426   5.618   8.410   0.360 -0.0787  0.7484  0.3749
   42MOL0     C 5427   5.686   8.542   0.327  0.1229  0.4281 -0.2447
   42MOL0     C 5428   5.648   8.585   0.178  0.2418  0.1283 -0.3033
   42MOL0     N 5429   5.514   8.629   0.192  0.4141 -0.0853  0.5690
   42MOL0     C 5430   5.405   8.560   0.141 -0.7568 -0.2633  0.0587
   42MOL0     C 5431   5.307   8.647   0.188 -0.4407  0.4114  0.4346
   42MOL0     C 5432   5.158   8.618   0.188 -0.2409  0.1917 -1.2145
   42MOL0     C 5433   5.101   8.615   0.335  0.1711  0.2767 -0.6078
   42MOL0     C 5434   5.052   8.472   0.374  0.0533  0.3699  0.4502
   42MOL0     C 5435   5.153   8.359   0.328 -0.9515 -0.9762  0.7307
   42MOL0     O 5436   5.150   8.252   0.426  0.1729  0.1408 -0.3592
   42MOL0     C 5437   5.083   8.140   0.401 -0.2388 -0.6055 -0.7922
   42MOL0     C 5438   5.102   8.036   0.490  0.4434  0.6179 -0.3063
   42MOL0     C 5439   5.027   7.912   0.479  0.0033 -0.8856  0.0477
   42MOL0     C 5440   4.929   7.901   0.386  0.1650 -0.3663 -0.6040
   42MOL0     C 5441   4.852   7.784   0.365  0.3895  0.3035  0.4161
   42MOL0     O 5442   4.730   7.795   0.291  0.2201 -0.7952 -0.3484
   42MOL0     C 5443   4.654   7.693   0.262 -0.1485  0.2504 -0.1623
   42MOL0     C 5444   4.580   7.624   0.355  1.0163 -0.4278  0.4258
   42MOL0     C 5445   4.504   7.513   0.323 -0.0523 -0.7174  0.5747
   42MOL0     C 5446   4.515   7.452   0.198 -0.2173  0.5874  0.7627
   42MOL0     O 5447   4.447   7.345   0.150  0.8045 -0.4422 -0.0818
   42MOL0     C 5448   4.313   7.321   0.189 -0.5369  1.2232  0.8027
   42MOL0     C 5449   4.219   7.425   0.125 -0.0186  0.0434 -0.4183
   42MOL0     C 5450   4.219   7.410  -0.021 -0.3334  1.2028 -0.1901
   42MOL0     C 5451   4.144   7.288  -0.076 -0.9832 -0.0635 -0.8403
   42MOL0     C 5452   4.180   7.260  -0.221  0.5371 -0.4732 -0.0171
   42MOL0     C 5453   4.112   7.134  -0.269 -0.3440  0.0798  0.8792
   42MOL0     C 5454   4.173   7.094  -0.410  0.0634 -0.0389  0.8669
   42MOL0     C 5455   4.084   6.972  -0.464 -0.2414  0.0028 -0.0115
   42MOL0    Cl 5456   3.903   7.002  -0.477  0.1738 -0.3999  0.0294
   42MOL0     C 5457   4.601   7.516   0.106  0.6218  0.1080 -0.5150
   42MOL0     C 5458   4.669   7.631   0.135  0.4234 -1.3259 -0.3231
   42MOL0     O 5459   4.901   7.682   0.405 -0.1584  0.1612 -0.3961
   42MOL0     C 5460   4.894   8.017   0.308  0.5797  0.3992  0.4055
   42MOL0     C 5461   4.968   8.133   0.313  0.3583 -0.4910 -0.6063
   42MOL0     N 5462   5.355   8.763   0.247 -0.6529 -0.6057  0.4831
   42MOL0     N 5463   5.486   8.748   0.240  0.1257 -0.0490 -0.5943
   42MOL0     C 5464   5.325   7.836   0.284  0.4542  0.0624 -0.5315
   42MOL0     C 5465   5.235   7.733   0.250 -0.4335  0.1495 -0.2587
   42MOL0     C 5466   5.016   7.376   0.148  0.2304 -0.2315 -0.2629
   42MOL0     C 5467   4.983   7.405   0.011 -0.8225  0.7874  0.1202
   42MOL0     C 5468   4.867   7.340  -0.046 -0.6570 -0.1883  0.2485
   42MOL0     C 5469   4.796   7.248   0.026 -0.2054  1.0550  0.6451
   42MOL0     O 5470   4.684   7.196  -0.032 -0.5804 -0.1701 -0.5513
   42MOL0     C 5471   4.690   7.051  -0.037  1.1635  1.2652  0.0867
   42MOL0     C 5472   4.548   7.010   0.007 -0.2758 -0.2632 -0.0598
   42MOL0     C 5473   4.525   6.860  -0.014 -0.5023 -0.6821 -0.5931
   42MOL0     C 5474   4.413   6.804   0.067 -0.0672  0.0362 -0.9175
   42MOL0     C 5475   4.312   6.736  -0.011 -0.3779 -0.1558 -0.0824
   42MOL0     C 5476   4.233   6.671  -0.078  0.6122 -0.1384  0.1551
   42MOL0     C 5477   4.821   7.230   0.159 -0.2403  0.8591  0.5027
   42MOL0     C 5478   4.931   7.287   0.220 -0.0785 -0.5128  0.2419
   42MOL0     H 5479   5.446   7.503   0.115 -0.9839 -1.6785  1.9269
   42MOL0     H 5480   5.609   7.680   0.177  0.5607  0.3069  2.2524
   42MOL0     H 5481   5.700   7.831   0.410 -0.2190  0.4305 -1.1607
   42MOL0     H 5482   5.539   7.873   0.479  0.0892  0.9097  0.5449
   42MOL0     H 5483   5.762   8.065   0.400  1.3304 -3.2618  0.3218
   42MOL0     H 5484   5.714   8.012   0.555  0.5821  1.3407  0.4020
   42MOL0     H 5485   5.472   8.083   0.512 -0.5171  0.0779 -1.0265
   42MOL0     H 5486   5.523   8.166   0.370 -3.8506  1.2553  1.6349
   42MOL0     H 5487   5.482   8.308   0.575  1.1356  1.0960  2.7600
   42MOL0     H 5488   5.618   8.217   0.650  1.0839 -0.1669  0.2790
   42MOL0     H 5489   5.775   8.309   0.469  1.8125  2.3188 -1.7693
   42MOL0     H 5490   5.695   8.443   0.561 -2.8778 -0.7996  3.3061
   42MOL0     H 5491   5.510   8.425   0.366 -0.2560 -0.4471  0.3670
   42MOL0     H 5492   5.633   8.342   0.276 -3.2282  0.2168  0.1271
   42MOL0     H 5493   5.670   8.624   0.397  0.3679 -1.5454  2.2413
   42MOL0     H 5494   5.794   8.525   0.336  0.1061  1.4055  2.7989
   42MOL0     H 5495   5.649   8.501   0.108 -1.5656  1.3248 -1.8583
   42MOL0     H 5496   5.715   8.660   0.135 -2.9563  3.0769 -0.6056
   42MOL0     H 5497   5.400   8.462   0.095  0.1072 -0.7452  0.9506
   42MOL0     H 5498   5.132   8.525   0.137  0.7841  0.8651 -3.0785
   42MOL0     H 5499   5.119   8.706   0.137 -2.8780 -0.8524 -1.1265
   42MOL0     H 5500   5.017   8.685   0.329  0.0698  0.1343 -0.9023
   42MOL0     H 5501   5.165   8.654   0.414  1.4312 -1.4189 -0.7417
   42MOL0     H 5502   5.041   8.479   0.482 -0.3568 -0.5529  0.4721
   42MOL0     H 5503   4.959   8.446   0.324  0.2112 -1.3106  0.9735
   42MOL0     H 5504   5.254   8.400   0.330 -0.6012 -1.6916 -0.8650
   42MOL0     H 5505   5.140   8.318   0.227  2.1722 -3.9701  1.3528
   42MOL0     H 5506   5.170   8.048   0.573  0.2042 -1.7624  0.3186
   42MOL0     H 5507   5.043   7.828   0.547  0.4171 -4.5537 -4.1403
   42MOL0     H 5508   4.562   7.660   0.456  2.2559 -3.2592  1.7817
   42MOL0     H 5509   4.438   7.480   0.403  0.2204  1.8444  1.9969
   42MOL0     H 5510   4.292   7.321   0.296 -1.8598 -0.7649  0.5984
   42MOL0     H 5511   4.286   7.222   0.151  2.2030  0.9768 -0.7491
   42MOL0     H 5512   4.239   7.524   0.169 -2.1395 -0.2802  1.4362
   42MOL0     H 5513   4.121   7.411   0.171 -0.4601  3.8011  0.1564
   42MOL0     H 5514   4.325   7.401  -0.045  0.1452  4.0913  0.5108
   42MOL0     H 5515   4.189   7.497  -0.080  0.3793  0.7006 -1.3152
   42MOL0     H 5516   4.160   7.198  -0.015  2.1917  1.5361  0.9162
   42MOL0     H 5517   4.038   7.316  -0.070  0.0446  4.9924 -1.8412
   42MOL0     H 5518   4.287   7.251  -0.241  1.0198  1.6339  1.2092
   42MOL0     H 5519   4.144   7.346  -0.279  3.2325  0.4573 -0.4386
   42MOL0     H 5520   4.003   7.137  -0.279 -0.0871  0.0927 -5.2803
   42MOL0     H 5521   4.132   7.054  -0.198  4.1191  0.2259  0.0376
   42MOL0     H 5522   4.181   7.171  -0.487  2.4552 -0.5002  0.5724
   42MOL0     H 5523   4.280   7.077  -0.396 -0.1396 -1.3144  1.0432
   42MOL0     H 5524   4.106   6.888  -0.398  2.1600  0.9849  0.5449
   42MOL0     H 5525   4.118   6.943  -0.564 -2.6713  1.6455 -1.4421
   42MOL0     H 5526   4.606   7.476   0.005 -1.0064 -2.8869  0.4764
   42MOL0     H 5527   4.738   7.673   0.063  1.0975 -0.9519  0.5316
   42MOL0     H 5528   4.832   8.012   0.219 -0.4794  3.2733  0.8720
   42MOL0     H 5529   4.946   8.210   0.240 -2.9163 -2.2789 -1.6544
   42MOL0     H 5530   5.292   7.937   0.310  2.8375  0.6658  0.4470
   42MOL0     H 5531   5.129   7.735   0.273 -0.7924  1.2727 -1.9090
   42MOL0     H 5532   5.033   7.496  -0.022 -1.1075  0.9037 -0.0011
   42MOL0     H 5533   4.844   7.366  -0.148  3.4799  0.4039 -0.7315
   42MOL0     H 5534   4.763   7.003   0.030 -2.0822 -3.9875  0.4143
   42MOL0     H 5535   4.707   7.018  -0.140 -2.1800 -0.0552 -0.1492
   42MOL0     H 5536   4.521   7.041   0.108  0.9102  0.6973 -0.0200
   42MOL0     H 5537   4.469   7.060  -0.049 -3.1781 -1.7035  2.4641
   42MOL0     H 5538   4.614   6.804   0.017 -1.9317 -2.2539  0.8881
   42MOL0     H 5539   4.510   6.834  -0.119  2.4795  1.1515 -1.6121
   42MOL0     H 5540   4.438   6.752   0.160  0.0606 -0.9121 -1.4617
   42MOL0     H 5541   4.346   6.888   0.086 -0.1664 -0.2338 -0.0307
   42MOL0     H 5542   4.159   6.612  -0.128  0.3711  0.4231 -0.1669
   42MOL0     H 5543   4.750   7.167   0.211 -0.6481 -2.5928 -3.6806
   42MOL0     H 5544   4.944   7.265   0.326 -1.1846  1.5133  0.8531
   43MOL0     O 5545   8.401   2.505   7.408  0.5229 -0.4268  0.4779
   43MOL0     C 5546   8.346   2.616   7.405 -0.8148  0.2074  0.1160
   43MOL0     O 5547   8.215   2.642   7.436  0.0570 -0.3825 -0.2663
   43MOL0     C 5548   8.135   2.551   7.493 -0.2209  0.8463 -0.3925
   43MOL0     C 5549   7.993   2.547   7.458 -0.2996 -0.5389  0.0126
   43MOL0     C 5550   7.907   2.468   7.522  0.7759  0.4040 -1.0165
   43MOL0     C 5551   7.944   2.384   7.626  0.7584  0.5420  0.1737
   43MOL0     O 5552   7.852   2.304   7.694  0.4028  0.6273 -0.2853
   43MOL0     C 5553   7.763   2.229   7.608 -0.1384 -0.7426 -0.1413
   43MOL0     C 5554   7.704   2.114   7.677  0.7797 -1.1466 -0.1804
   43MOL0     C 5555   7.821   2.026   7.730 -0.2786  0.4598 -0.1497
   43MOL0     C 5556   7.760   1.911   7.809  0.6103 -0.3090 -0.2876
   43MOL0     C 5557   7.860   1.811   7.862 -0.7053 -0.2524  0.2900
   43MOL0     C 5558   7.940   1.741   7.752  0.4987  0.8144  0.6476
   43MOL0     C 5559   8.030   1.626   7.802  0.4080  0.5109 -0.2932
   43MOL0     C 5560   8.101   1.555   7.684 -0.6109 -0.0476 -0.0820
   43MOL0     N 5561   8.212   1.632   7.650 -0.3922  0.1058  0.5689
   43MOL0     C 5562   8.335   1.604   7.691  0.5564  0.5081 -0.4731
   43MOL0     C 5563   8.410   1.689   7.621 -0.4036  0.2989 -1.2830
   43MOL0     C 5564   8.558   1.731   7.649 -0.4812  0.0143 -0.2652
   43MOL0     C 5565   8.646   1.608   7.643  0.3861 -0.2001 -0.5404
   43MOL0     C 5566   8.665   1.567   7.494 -0.9471  0.3415  0.4610
   43MOL0     C 5567   8.799   1.509   7.463 -0.0640 -0.8379 -0.7978
   43MOL0     O 5568   8.817   1.499   7.320  0.5693 -0.1629  0.6613
   43MOL0     C 5569   8.945   1.445   7.280  0.3054  0.3186  0.4230
   43MOL0     C 5570   9.056   1.431   7.365 -0.1849  0.3744  0.0419
   43MOL0     C 5571   9.177   1.385   7.323 -0.0730 -0.1122  0.3469
   43MOL0     C 5572   9.191   1.353   7.186 -0.5862 -0.4211  0.6077
   43MOL0     C 5573   9.323   1.304   7.142  0.0522  0.3594  0.7919
   43MOL0     O 5574   9.343   1.281   7.002 -0.1689 -0.4370 -0.4408
   43MOL0     C 5575   9.457   1.271   6.931  1.2302  0.2202  0.2758
   43MOL0     C 5576   9.447   1.300   6.794 -0.2557  0.2027 -0.1791
   43MOL0     C 5577   9.556   1.270   6.703  0.0051  0.3291 -0.4443
   43MOL0     C 5578   9.689   1.234   6.756 -0.0208 -0.3822 -0.0734
   43MOL0     O 5579   9.803   1.196   6.690 -0.5480  0.2189  0.3629
   43MOL0     C 5580   9.817   1.218   6.548  0.3964 -0.5674 -0.3951
   43MOL0     C 5581   9.951   1.162   6.491 -0.3965  1.4737 -0.0591
   43MOL0     C 5582  10.084   1.190   6.566 -0.3548  0.0338 -0.8378
   43MOL0     C 5583  10.128   1.338   6.566 -0.6392 -1.1510 -0.8996
   43MOL0     C 5584  10.178   1.392   6.425  0.3967  0.4091  0.2291
   43MOL0     C 5585  10.316   1.462   6.414  0.8507  0.1562  0.1552
   43MOL0     C 5586  10.339   1.484   6.268 -0.0525  0.0298  0.6401
   43MOL0     C 5587  10.443   1.585   6.222  1.0802  0.2656 -0.7302
   43MOL0    Cl 5588  10.380   1.713   6.115  0.0629  0.1215 -0.4533
   43MOL0     C 5589   9.699   1.223   6.898 -0.5844 -0.3926 -0.2994
   43MOL0     C 5590   9.587   1.239   6.978  0.4645  0.2120  0.7733
   43MOL0     O 5591   9.410   1.313   7.223 -0.5776 -0.2429 -0.0589
   43MOL0     C 5592   9.080   1.352   7.100  0.5421 -0.3092 -0.0629
   43MOL0     C 5593   8.958   1.398   7.149  0.1890 -0.1080  0.6212
   43MOL0     N 5594   8.339   1.737   7.519 -0.8225  0.3266  0.7138
   43MOL0     N 5595   8.217   1.705   7.532 -0.1434 -0.2136 -0.7526
   43MOL0     C 5596   8.081   2.391   7.665  0.5823  0.4425 -0.3895
   43MOL0     C 5597   8.178   2.474   7.610  1.1248  0.2164  0.6464
   43MOL0     C 5598   8.419   2.730   7.344 -0.6663  0.0819  0.1876
   43MOL0     C 5599   8.369   2.860   7.353 -0.6264  0.6432 -1.2958
   43MOL0     C 5600   8.453   2.967   7.319 -0.4432  0.2575 -0.1112
   43MOL0     C 5601   8.585   2.950   7.265  1.0923  0.5287 -0.6890
   43MOL0     O 5602   8.652   3.068   7.239  0.2453  0.2928 -0.2060
   43MOL0     C 5603   8.790   3.053   7.201 -0.2450 -0.1396 -0.5164
   43MOL0     C 5604   8.838   3.189   7.167  1.3812 -0.3182 -0.7231
   43MOL0     C 5605   8.815   3.296   7.263 -0.9317  0.3309 -0.3473
   43MOL0     C 5606   8.912   3.417   7.254  0.2622 -0.1016 -0.1031
   43MOL0     C 5607   8.899   3.511   7.367 -0.0114 -0.9441  0.4453
   43MOL0     C 5608   8.894   3.577   7.462  0.0986  0.2048 -0.2848
   43MOL0     C 5609   8.629   2.810   7.258 -1.0350  0.0670 -0.4296
   43MOL0     C 5610   8.537   2.703   7.286 -1.3075 -0.5427 -0.1122
   43MOL0     H 5611   7.968   2.593   7.363 -1.4966  2.6665  1.7539
   43MOL0     H 5612   7.806   2.458   7.483 -0.0390 -0.0931  1.0637
   43MOL0     H 5613   7.820   2.182   7.527 -2.5248 -3.8209 -0.2102
   43MOL0     H 5614   7.688   2.295   7.563  0.2708  0.3023  0.6544
   43MOL0     H 5615   7.647   2.048   7.612 -2.1726 -1.5917  2.5733
   43MOL0     H 5616   7.645   2.150   7.762  0.1472 -1.0186 -0.6624
   43MOL0     H 5617   7.888   2.076   7.801 -1.5222  1.2632  0.4828
   43MOL0     H 5618   7.881   1.980   7.651 -0.6124  0.6079 -0.4908
   43MOL0     H 5619   7.708   1.964   7.889  1.1588  0.7955 -0.6421
   43MOL0     H 5620   7.676   1.864   7.755 -0.5311 -1.1067  2.0576
   43MOL0     H 5621   7.804   1.739   7.923 -3.0884 -2.2888 -3.8492
   43MOL0     H 5622   7.934   1.869   7.919  0.2073 -1.2831  0.1924
   43MOL0     H 5623   8.010   1.805   7.698  0.6580 -2.1388 -3.0837
   43MOL0     H 5624   7.862   1.722   7.678 -0.7155  3.8465  1.0319
   43MOL0     H 5625   8.103   1.649   7.880  3.0490 -1.1660 -2.1034
   43MOL0     H 5626   7.967   1.553   7.854  2.6627 -0.2224  1.5894
   43MOL0     H 5627   8.041   1.543   7.593  1.8265  0.2742 -1.8217
   43MOL0     H 5628   8.118   1.456   7.727 -0.9017  0.1296  0.4585
   43MOL0     H 5629   8.369   1.551   7.779  1.4914 -0.1602 -1.2220
   43MOL0     H 5630   8.555   1.775   7.749  2.0171  2.1113 -1.0135
   43MOL0     H 5631   8.597   1.809   7.583 -2.3352  0.0232 -1.4257
   43MOL0     H 5632   8.608   1.529   7.708  2.4875 -0.3852  0.5410
   43MOL0     H 5633   8.746   1.631   7.682 -0.6081 -1.1930  2.9342
   43MOL0     H 5634   8.601   1.483   7.464 -0.1266  0.0407 -0.5017
   43MOL0     H 5635   8.646   1.654   7.430 -0.4412  0.7329  0.8377
   43MOL0     H 5636   8.824   1.415   7.513 -1.9839 -1.2913 -0.6152
   43MOL0     H 5637   8.862   1.586   7.507 -2.0229  1.2180 -1.3533
   43MOL0     H 5638   9.053   1.450   7.471 -2.7182 -1.1414  0.3149
   43MOL0     H 5639   9.258   1.388   7.396 -1.0762 -1.7361  1.5978
   43MOL0     H 5640   9.365   1.338   6.733 -0.1569 -0.8977 -1.0299
   43MOL0     H 5641   9.539   1.269   6.596  0.2735 -0.1567 -0.4865
   43MOL0     H 5642   9.818   1.327   6.539  0.2353 -0.5582 -0.2942
   43MOL0     H 5643   9.734   1.175   6.492 -1.8901  2.3831  0.4761
   43MOL0     H 5644   9.963   1.211   6.395  0.0207  0.5828 -0.4723
   43MOL0     H 5645   9.939   1.054   6.483  0.9036  0.9714  3.0295
   43MOL0     H 5646  10.158   1.133   6.510  2.0509  2.6349 -0.5369
   43MOL0     H 5647  10.074   1.157   6.669 -1.7096 -0.1302 -1.0052
   43MOL0     H 5648  10.060   1.404   6.619  0.1406 -0.0641 -1.2211
   43MOL0     H 5649  10.209   1.359   6.637 -1.7709 -0.9241  0.3690
   43MOL0     H 5650  10.099   1.463   6.397 -0.0509  0.1654  0.8488
   43MOL0     H 5651  10.175   1.305   6.358  1.4954 -0.4424  1.2552
   43MOL0     H 5652  10.397   1.395   6.447 -1.1796 -1.8340  1.4267
   43MOL0     H 5653  10.317   1.557   6.469  0.0553  1.9047 -2.6799
   43MOL0     H 5654  10.371   1.391   6.219  0.9922  1.1112 -0.8159
   43MOL0     H 5655  10.247   1.508   6.213  0.1434  0.7032  0.6022
   43MOL0     H 5656  10.524   1.532   6.171  1.1033 -2.0025  1.4454
   43MOL0     H 5657  10.485   1.634   6.310 -2.3854 -0.8299  1.7623
   43MOL0     H 5658   9.786   1.182   6.949  0.0844 -1.4607 -2.1895
   43MOL0     H 5659   9.606   1.227   7.085  2.4389  1.5281  0.6283
   43MOL0     H 5660   9.105   1.309   7.003  1.8360  0.7034 -0.2040
   43MOL0     H 5661   8.871   1.393   7.085  0.8925  0.4567 -0.4058
   43MOL0     H 5662   8.115   2.336   7.752 -0.8112 -0.7252 -0.5367
   43MOL0     H 5663   8.277   2.455   7.649  2.3914 -0.0605 -2.4372
   43MOL0     H 5664   8.275   2.880   7.403  0.7320  2.5594  0.7063
   43MOL0     H 5665   8.432   3.074   7.316  4.0168  1.3238 -1.5584
   43MOL0     H 5666   8.800   2.992   7.111 -3.3108  0.2238 -1.2034
   43MOL0     H 5667   8.844   3.008   7.285 -2.9435  0.1186  1.4768
   43MOL0     H 5668   8.943   3.177   7.140  2.1930  0.0320  2.0691
   43MOL0     H 5669   8.773   3.223   7.085 -2.5794 -2.4753  1.2252
   43MOL0     H 5670   8.828   3.255   7.364  4.6989  0.4444 -0.6879
   43MOL0     H 5671   8.710   3.320   7.248 -1.4713 -0.1313  2.1014
   43MOL0     H 5672   9.019   3.392   7.252  1.3914  4.0910 -1.4303
   43MOL0     H 5673   8.906   3.471   7.160  0.1988  0.0954  0.0127
   43MOL0     H 5674   8.897   3.642   7.546  0.7444  1.5799 -1.3370
   43MOL0     H 5675   8.735   2.798   7.239 -0.7359  3.2217 -1.2662
   43MOL0     H 5676   8.581   2.605   7.267  2.0042  0.7636  0.1226
   44MOL0     O 5677   5.648  11.271  10.423  0.5299  0.5668 -0.2570
   44MOL0     C 5678   5.573  11.249  10.520 -0.3881 -0.3459  1.3274
   44MOL0     O 5679   5.436  11.242  10.512 -0.1596 -0.2471  0.0466
   44MOL0     C 5680   5.371  11.291  10.407  0.3552 -0.1536  0.8399
   44MOL0     C 5681   5.396  11.256  10.270 -0.5759 -0.3655  0.3072
   44MOL0     C 5682   5.308  11.300  10.168 -0.2656 -0.6822 -0.4950
   44MOL0     C 5683   5.192  11.384  10.191  0.3989  0.8009 -0.3819
   44MOL0     O 5684   5.102  11.411  10.092 -0.5225  0.3801 -0.7616
   44MOL0     C 5685   5.052  11.544  10.108  0.1904 -0.0253 -0.9759
   44MOL0     C 5686   4.990  11.610   9.977 -0.6756 -0.8288 -0.7895
   44MOL0     C 5687   4.999  11.768   9.987  0.2205 -1.2466  1.0337
   44MOL0     C 5688   4.920  11.847   9.872 -0.2135 -0.8976  0.5103
   44MOL0     C 5689   4.940  12.004   9.877  0.9786  0.4512 -0.2206
   44MOL0     C 5690   4.853  12.061   9.762 -0.3186 -0.0296 -0.1738
   44MOL0     C 5691   4.858  12.212   9.762 -0.5234  0.7452 -1.0420
   44MOL0     C 5692   4.733  12.265   9.681  0.3459  0.5351 -1.3241
   44MOL0     N 5693   4.760  12.407   9.658  0.4716  0.7912  0.4322
   44MOL0     C 5694   4.823  12.481   9.752  0.6094  0.3171  0.0639
   44MOL0     C 5695   4.856  12.593   9.682  0.2122  0.6549 -0.0085
   44MOL0     C 5696   4.923  12.721   9.740 -0.0671  0.5061  0.1950
   44MOL0     C 5697   4.963  12.699   9.895 -0.1682  0.9041  0.4118
   44MOL0     C 5698   5.081  12.611   9.908 -0.7358 -0.6988  0.9211
   44MOL0     C 5699   5.107  12.598  10.066  0.0738  0.2003  0.2915
   44MOL0     O 5700   5.232  12.524  10.079 -0.2766 -0.0218 -0.2797
   44MOL0     C 5701   5.280  12.503  10.205  1.0186 -1.0431 -0.3439
   44MOL0     C 5702   5.411  12.468  10.217 -0.1913 -0.8542  0.0352
   44MOL0     C 5703   5.467  12.431  10.330 -0.0335 -0.0032 -0.0240
   44MOL0     C 5704   5.390  12.438  10.454  0.7883  0.5591  0.1712
   44MOL0     C 5705   5.444  12.382  10.579 -0.8144 -0.3092 -0.4036
   44MOL0     O 5706   5.562  12.321  10.572  0.1575  0.1755  0.9589
   44MOL0     C 5707   5.645  12.288  10.678 -0.2388 -0.4350 -0.1436
   44MOL0     C 5708   5.651  12.154  10.721  0.1393 -0.3487 -0.0206
   44MOL0     C 5709   5.744  12.119  10.820  0.1453 -0.3498 -0.3866
   44MOL0     C 5710   5.827  12.214  10.888  0.4582 -0.1143 -0.6541
   44MOL0     O 5711   5.894  12.169  10.995 -0.0879 -0.7154 -0.2039
   44MOL0     C 5712   5.995  12.249  11.055 -0.5269 -0.6868  0.3071
   44MOL0     C 5713   6.079  12.178  11.167  0.0584 -0.0406  0.8476
   44MOL0     C 5714   6.012  12.155  11.296 -0.4315  1.1084 -1.0777
   44MOL0     C 5715   6.090  12.056  11.385  0.2427  0.0651  0.8338
   44MOL0     C 5716   6.011  12.011  11.504  0.0266 -0.8449 -1.1739
   44MOL0     C 5717   6.106  11.976  11.626  0.4108  0.3344  0.8044
   44MOL0     C 5718   6.031  11.988  11.759 -0.0762 -0.1428  0.9924
   44MOL0     C 5719   5.938  11.853  11.778 -1.6726  0.0461  0.0362
   44MOL0    Cl 5720   5.812  11.877  11.911  0.2854 -0.1312 -0.3060
   44MOL0     C 5721   5.829  12.345  10.846  0.1616 -0.4670  0.4194
   44MOL0     C 5722   5.735  12.382  10.749  0.5502 -0.4770  0.1340
   44MOL0     O 5723   5.384  12.411  10.682  0.1356 -0.1572  0.4857
   44MOL0     C 5724   5.258  12.496  10.449 -0.1380  0.9615  0.8878
   44MOL0     C 5725   5.198  12.526  10.328 -0.7115  0.2180 -0.2275
   44MOL0     N 5726   4.812  12.585   9.551  0.1070  0.0928 -1.0120
   44MOL0     N 5727   4.759  12.470   9.539 -0.0371 -0.6446  0.0721
   44MOL0     C 5728   5.173  11.413  10.327 -0.2236  0.1670 -0.4221
   44MOL0     C 5729   5.258  11.363  10.430  1.4062 -0.3697  0.3583
   44MOL0     C 5730   5.647  11.213  10.644  0.4516 -0.0185 -0.0980
   44MOL0     C 5731   5.582  11.139  10.749 -0.6835  0.0240  0.2896
   44MOL0     C 5732   5.643  11.111  10.871  0.5297 -0.5968 -0.5962
   44MOL0     C 5733   5.775  11.157  10.885  0.9159 -1.1309 -0.7694
   44MOL0     O 5734   5.858  11.147  11.000  0.0828 -0.5562  0.3609
   44MOL0     C 5735   5.802  11.063  11.103 -0.4396  0.7759  0.4265
   44MOL0     C 5736   5.918  11.039  11.204 -0.0631  0.1275 -0.5365
   44MOL0     C 5737   5.963  11.162  11.283 -0.3300 -0.4703 -0.4117
   44MOL0     C 5738   6.090  11.138  11.370 -0.4914 -0.1564  0.0747
   44MOL0     C 5739   6.083  11.023  11.457 -0.5024  0.3053 -0.2672
   44MOL0     C 5740   6.089  10.934  11.533 -0.2773  0.6704  1.0824
   44MOL0     C 5741   5.842  11.229  10.788  0.6059 -0.8262  0.1954
   44MOL0     C 5742   5.774  11.255  10.666  0.1013 -0.3272 -0.5335
   44MOL0     H 5743   5.483  11.200  10.237 -1.0704 -0.0376 -1.7071
   44MOL0     H 5744   5.324  11.275  10.064 -0.9714  0.7315 -0.9695
   44MOL0     H 5745   5.127  11.604  10.160 -2.1976  0.0921  2.7474
   44MOL0     H 5746   4.962  11.535  10.170 -0.3394 -0.0919 -1.7398
   44MOL0     H 5747   4.889  11.574   9.955 -1.2568 -1.0145  1.8621
   44MOL0     H 5748   5.047  11.577   9.890 -1.6862  1.1219 -2.2494
   44MOL0     H 5749   5.106  11.791   9.988  0.3216 -1.4236 -0.8268
   44MOL0     H 5750   4.958  11.792  10.085  0.0707  0.5755  0.5702
   44MOL0     H 5751   4.959  11.813   9.775  1.4071 -1.3766  1.2860
   44MOL0     H 5752   4.817  11.812   9.870  0.8220 -4.2292 -0.5975
   44MOL0     H 5753   5.044  12.037   9.867  0.7697  1.2283  0.1603
   44MOL0     H 5754   4.897  12.042   9.970 -2.4611 -1.3413 -0.8934
   44MOL0     H 5755   4.752  12.026   9.783  0.5982 -2.7010  0.2641
   44MOL0     H 5756   4.873  12.019   9.663 -0.8334 -2.1725  0.5741
   44MOL0     H 5757   4.861  12.253   9.864 -1.7848 -0.9920 -0.2650
   44MOL0     H 5758   4.953  12.245   9.718  0.2564 -0.7714 -0.5537
   44MOL0     H 5759   4.637  12.248   9.731  0.4593 -0.0749 -1.3075
   44MOL0     H 5760   4.740  12.225   9.580  0.8830  1.3941 -1.6338
   44MOL0     H 5761   4.830  12.464   9.859 -0.5672  1.1393  0.2908
   44MOL0     H 5762   4.865  12.813   9.728 -1.4152 -0.2983  0.3407
   44MOL0     H 5763   5.018  12.735   9.688  0.6531  2.0238  1.7926
   44MOL0     H 5764   4.881  12.671   9.961 -1.8423 -0.6084 -2.1452
   44MOL0     H 5765   4.987  12.801   9.927 -3.9230  2.4502 -1.1777
   44MOL0     H 5766   5.064  12.511   9.867  1.4324 -1.8387  2.5709
   44MOL0     H 5767   5.159  12.654   9.845 -0.0109 -3.4044 -0.1558
   44MOL0     H 5768   5.024  12.556  10.123  0.4982 -3.2638 -1.4043
   44MOL0     H 5769   5.125  12.694  10.116  0.4442 -0.2277  0.9818
   44MOL0     H 5770   5.459  12.447  10.122  0.3308  2.3677 -0.5194
   44MOL0     H 5771   5.563  12.381  10.339  0.5849  1.1999  0.1287
   44MOL0     H 5772   5.592  12.076  10.673 -0.3247 -0.6039  0.9402
   44MOL0     H 5773   5.764  12.014  10.839  0.7823 -0.1213  0.2420
   44MOL0     H 5774   5.948  12.336  11.101 -0.3468 -0.4682  0.0807
   44MOL0     H 5775   6.067  12.283  10.979  2.0863 -0.8406  2.5535
   44MOL0     H 5776   6.168  12.241  11.179 -0.3718  0.9713 -0.9254
   44MOL0     H 5777   6.102  12.088  11.110  1.6980  1.7287 -1.4964
   44MOL0     H 5778   5.912  12.111  11.290  0.3236 -0.7570 -0.6784
   44MOL0     H 5779   6.002  12.254  11.342  1.9884  0.8089  0.2486
   44MOL0     H 5780   6.104  11.971  11.316  1.9362  1.6604 -0.8986
   44MOL0     H 5781   6.181  12.110  11.412  1.0173 -2.4393  3.8221
   44MOL0     H 5782   5.956  11.922  11.472 -2.4257  0.2319 -0.2220
   44MOL0     H 5783   5.932  12.081  11.534  0.8157 -1.0785  1.8366
   44MOL0     H 5784   6.199  12.034  11.617  0.9494 -0.7902 -2.0034
   44MOL0     H 5785   6.146  11.875  11.610  1.4636  0.9723 -0.9577
   44MOL0     H 5786   6.101  12.002  11.842 -0.1921 -2.7543  1.5887
   44MOL0     H 5787   5.969  12.079  11.759 -0.5834 -0.4340 -1.0487
   44MOL0     H 5788   5.995  11.760  11.788 -1.9690 -0.3758 -1.8677
   44MOL0     H 5789   5.889  11.836  11.681 -1.8943  2.0498 -0.2348
   44MOL0     H 5790   5.892  12.418  10.895 -1.5431  1.0571  0.4180
   44MOL0     H 5791   5.712  12.486  10.729  1.0016 -0.5182 -0.6224
   44MOL0     H 5792   5.204  12.501  10.543 -3.7884  1.9219 -1.0424
   44MOL0     H 5793   5.097  12.563  10.341 -0.6725  0.2169  0.0972
   44MOL0     H 5794   5.079  11.455  10.362 -0.8152 -0.1072 -1.6284
   44MOL0     H 5795   5.237  11.385  10.534  0.4810  2.3431 -0.3131
   44MOL0     H 5796   5.480  11.108  10.727 -0.3767  0.1522 -1.4341
   44MOL0     H 5797   5.595  11.061  10.955  1.4229  1.0592  0.9773
   44MOL0     H 5798   5.765  10.973  11.053  0.1577  0.5605  0.3747
   44MOL0     H 5799   5.722  11.116  11.157 -0.5342  1.1680 -0.0811
   44MOL0     H 5800   5.908  10.955  11.274  1.0207  0.1716 -0.3082
   44MOL0     H 5801   6.008  11.018  11.144  1.9522  3.3330  1.0834
   44MOL0     H 5802   5.881  11.185  11.352 -2.4809 -1.8128 -2.4050
   44MOL0     H 5803   5.981  11.247  11.216  1.9726  1.4358  2.3608
   44MOL0     H 5804   6.178  11.126  11.306 -0.8160 -2.5250 -0.0153
   44MOL0     H 5805   6.123  11.223  11.430 -0.5388  1.1093 -1.6345
   44MOL0     H 5806   6.070  10.864  11.611 -1.4733 -1.9121 -1.3599
   44MOL0     H 5807   5.944  11.259  10.809  0.1456  2.8512 -1.8755
   44MOL0     H 5808   5.835  11.313  10.598 -2.3062  0.3403 -2.2562
   45MOL0     O 5809   2.599  10.583   4.964  0.4948 -0.4307  1.1474
   45MOL0     C 5810   2.485  10.601   4.923  0.6345  0.1366  0.6412
   45MOL0     O 5811   2.424  10.720   4.888 -0.0865 -0.1586 -0.4952
   45MOL0     C 5812   2.500  10.839   4.895  0.6686 -0.0961 -0.0196
   45MOL0     C 5813   2.568  10.878   5.011  0.1338 -0.7359  0.0304
   45MOL0     C 5814   2.639  10.999   5.017 -0.2851 -0.8378  0.7356
   45MOL0     C 5815   2.636  11.091   4.904  0.2466 -0.5979  0.5318
   45MOL0     O 5816   2.689  11.213   4.933 -0.2129 -0.5435  0.9075
   45MOL0     C 5817   2.657  11.324   4.850  0.7367  0.1356  1.7023
   45MOL0     C 5818   2.749  11.314   4.727  0.1242 -0.9731  0.6464
   45MOL0     C 5819   2.771  11.450   4.657 -0.2704 -0.8791 -0.5400
   45MOL0     C 5820   2.873  11.451   4.542  0.1017 -0.2257  1.3307
   45MOL0     C 5821   2.888  11.319   4.453 -0.2557 -0.3916 -0.4676
   45MOL0     C 5822   2.786  11.309   4.334 -0.6357  0.2743  0.3259
   45MOL0     C 5823   2.838  11.199   4.246  0.3574 -0.2215 -0.7360
   45MOL0     C 5824   2.802  11.055   4.306  0.2827 -0.4392 -1.4328
   45MOL0     N 5825   2.660  11.032   4.339  0.3006  0.4249  0.2386
   45MOL0     C 5826   2.551  11.022   4.251 -0.7770  0.4772  0.5823
   45MOL0     C 5827   2.434  11.014   4.317  0.1731 -0.1924 -0.1384
   45MOL0     C 5828   2.291  11.015   4.268  0.9931  0.8343  0.4683
   45MOL0     C 5829   2.242  10.878   4.211 -0.1825 -0.3239  0.3351
   45MOL0     C 5830   2.093  10.902   4.190 -0.8009 -0.2016  0.3721
   45MOL0     C 5831   2.034  10.788   4.098 -0.4888 -0.1848 -0.2723
   45MOL0     O 5832   2.059  10.652   4.139 -0.3085  0.1439  0.2225
   45MOL0     C 5833   1.991  10.619   4.262 -1.4510 -1.5187  0.3002
   45MOL0     C 5834   1.864  10.561   4.242 -0.0933 -0.5358 -0.7096
   45MOL0     C 5835   1.793  10.519   4.358  0.0402 -0.5446  0.3444
   45MOL0     C 5836   1.846  10.549   4.481 -0.3114  0.9196 -0.2434
   45MOL0     C 5837   1.768  10.503   4.608  0.3846 -0.0915  0.3674
   45MOL0     O 5838   1.835  10.464   4.708 -0.1972 -0.0973 -0.0502
   45MOL0     C 5839   1.782  10.411   4.819 -0.7157 -0.2988 -0.6403
   45MOL0     C 5840   1.821  10.465   4.937  0.6088  0.1183  0.6792
   45MOL0     C 5841   1.788  10.413   5.060  0.9780 -0.2117  0.8682
   45MOL0     C 5842   1.693  10.312   5.058 -0.1474  0.7243  0.8050
   45MOL0     O 5843   1.659  10.258   5.178  0.2233  0.2850 -0.0509
   45MOL0     C 5844   1.598  10.125   5.186  1.1084  0.0225 -0.8833
   45MOL0     C 5845   1.691  10.017   5.155 -0.2688 -0.5494 -0.1009
   45MOL0     C 5846   1.617   9.904   5.094 -0.7830  0.2383  0.1801
   45MOL0     C 5847   1.713   9.796   5.050 -0.6489 -0.3238  0.6403
   45MOL0     C 5848   1.649   9.719   4.933 -0.6122  0.0145 -0.3432
   45MOL0     C 5849   1.634   9.789   4.794 -0.1204 -0.9567 -0.4205
   45MOL0     C 5850   1.491   9.784   4.726  0.5142 -0.3720  0.5639
   45MOL0     C 5851   1.482   9.841   4.587 -0.7167  0.2612  0.8045
   45MOL0    Cl 5852   1.554  10.004   4.573 -0.5241  0.0537  0.5185
   45MOL0     C 5853   1.641  10.259   4.935  0.4632  0.0631 -0.6234
   45MOL0     C 5854   1.688  10.303   4.814  0.3371  0.1164  0.4430
   45MOL0     O 5855   1.647  10.497   4.584  0.1133  0.5793  0.1166
   45MOL0     C 5856   1.972  10.608   4.498 -0.7437 -0.6730 -0.2083
   45MOL0     C 5857   2.046  10.655   4.388 -0.1455  0.0239  0.0818
   45MOL0     N 5858   2.479  11.010   4.448 -0.6302  0.2649 -0.1318
   45MOL0     N 5859   2.611  11.028   4.467 -0.9620 -0.0910  0.4529
   45MOL0     C 5860   2.566  11.055   4.788  0.4168  0.8386 -0.3857
   45MOL0     C 5861   2.503  10.929   4.784  0.7157  1.1503  0.1542
   45MOL0     C 5862   2.391  10.484   4.947  1.2514  0.6329  0.2335
   45MOL0     C 5863   2.438  10.351   4.988  0.1187 -0.9913 -0.8273
   45MOL0     C 5864   2.368  10.236   4.976 -0.7555 -0.2014 -0.3637
   45MOL0     C 5865   2.238  10.243   4.933 -0.3314 -0.0284  0.2100
   45MOL0     O 5866   2.173  10.130   4.948 -0.0728  0.2301  0.0333
   45MOL0     C 5867   2.050  10.111   4.879 -0.6141  0.1537 -0.3276
   45MOL0     C 5868   2.058  10.085   4.725 -0.2193 -0.1642 -0.0190
   45MOL0     C 5869   1.934  10.100   4.658  0.6420 -0.0425 -0.4192
   45MOL0     C 5870   1.936  10.032   4.530  0.3354  0.5470  0.5690
   45MOL0     C 5871   1.997  10.116   4.425 -0.2558  0.7998  0.2348
   45MOL0     C 5872   2.042  10.188   4.342  0.1670 -0.0093 -0.3609
   45MOL0     C 5873   2.188  10.366   4.901 -0.0082  0.0284  0.4769
   45MOL0     C 5874   2.257  10.490   4.907 -0.0104 -0.3471 -0.4646
   45MOL0     H 5875   2.553  10.807   5.092  0.3256 -0.1361  0.6020
   45MOL0     H 5876   2.685  11.038   5.108  0.2985  0.4121 -0.0683
   45MOL0     H 5877   2.675  11.417   4.905 -3.0110  2.3776 -0.5167
   45MOL0     H 5878   2.550  11.324   4.830  0.6458 -3.1407  1.6272
   45MOL0     H 5879   2.706  11.242   4.657  0.2662 -2.1084  1.7101
   45MOL0     H 5880   2.840  11.279   4.776 -1.0729 -0.9032  3.0840
   45MOL0     H 5881   2.798  11.527   4.731 -1.1673 -2.1557  1.1815
   45MOL0     H 5882   2.677  11.494   4.623  1.2220  1.0014 -2.5163
   45MOL0     H 5883   2.848  11.539   4.482 -0.6103  0.1912  2.2139
   45MOL0     H 5884   2.967  11.489   4.581 -0.5731  3.0722  0.1426
   45MOL0     H 5885   2.892  11.237   4.525  1.4410 -1.7230 -1.9411
   45MOL0     H 5886   2.991  11.324   4.414  0.4242 -1.3935  1.1048
   45MOL0     H 5887   2.796  11.403   4.279 -4.5491  2.3332  2.6878
   45MOL0     H 5888   2.681  11.301   4.364 -0.0034  0.2961  2.8299
   45MOL0     H 5889   2.775  11.208   4.157  0.4998  1.2605 -0.7160
   45MOL0     H 5890   2.943  11.210   4.218  1.0371 -2.6854  0.5527
   45MOL0     H 5891   2.861  11.020   4.391  0.0751 -0.4256 -1.2800
   45MOL0     H 5892   2.827  10.984   4.227 -0.5357 -2.0840 -0.2854
   45MOL0     H 5893   2.569  11.024   4.144 -1.8224 -0.0599  0.3799
   45MOL0     H 5894   2.287  11.098   4.196 -0.5623  0.8209  0.4984
   45MOL0     H 5895   2.221  11.036   4.349 -1.9837 -0.5899 -1.5300
   45MOL0     H 5896   2.263  10.800   4.285  0.2756 -1.0043 -0.4967
   45MOL0     H 5897   2.295  10.833   4.126  0.2490  0.8432 -0.0299
   45MOL0     H 5898   2.037  10.917   4.283  1.5336  0.9814  1.6714
   45MOL0     H 5899   2.076  10.997   4.139 -1.1293 -2.3237 -3.8835
   45MOL0     H 5900   2.076  10.804   3.998  1.6630  5.3895  1.1637
   45MOL0     H 5901   1.926  10.798   4.082 -0.4453 -0.7407 -0.9792
   45MOL0     H 5902   1.817  10.546   4.145 -2.7073  1.0591  0.2159
   45MOL0     H 5903   1.705  10.457   4.350  1.7580 -2.8543 -3.0299
   45MOL0     H 5904   1.887  10.551   4.935 -3.3676  3.4318 -0.7213
   45MOL0     H 5905   1.813  10.453   5.158 -4.2261  1.6058  1.8141
   45MOL0     H 5906   1.503  10.129   5.131  0.7429  0.6468 -0.2304
   45MOL0     H 5907   1.572  10.111   5.291 -3.0500  2.5617 -1.3126
   45MOL0     H 5908   1.739   9.985   5.249 -0.0344 -0.4168 -0.1744
   45MOL0     H 5909   1.769  10.052   5.087  0.3935 -0.4130  0.6986
   45MOL0     H 5910   1.554   9.929   5.009 -4.1270 -2.1295  1.7338
   45MOL0     H 5911   1.560   9.852   5.171 -1.7993 -1.1200 -1.4189
   45MOL0     H 5912   1.807   9.843   5.019  0.3748 -2.5177  0.2113
   45MOL0     H 5913   1.736   9.741   5.142 -0.3789  0.1146  0.8357
   45MOL0     H 5914   1.554   9.674   4.964 -1.0323  1.0197 -0.1338
   45MOL0     H 5915   1.712   9.632   4.912  0.5338  0.6475  0.3844
   45MOL0     H 5916   1.704   9.750   4.719 -1.4914 -0.7446 -1.8689
   45MOL0     H 5917   1.650   9.896   4.808 -1.5642 -0.3980 -2.6041
   45MOL0     H 5918   1.458   9.680   4.719  0.0287 -0.1310 -1.3141
   45MOL0     H 5919   1.418   9.835   4.789  0.6309 -1.4961  1.6494
   45MOL0     H 5920   1.384   9.833   4.539  1.3252 -3.7868 -3.4734
   45MOL0     H 5921   1.539   9.779   4.517 -0.2616  2.8860 -1.3005
   45MOL0     H 5922   1.574  10.174   4.923  0.8739 -1.1651  3.7594
   45MOL0     H 5923   1.658  10.264   4.718 -0.6424 -1.6850  1.4144
   45MOL0     H 5924   2.015  10.627   4.596 -0.3710  1.3636 -0.7281
   45MOL0     H 5925   2.141  10.697   4.420  0.5346 -0.5826 -1.0800
   45MOL0     H 5926   2.551  11.135   4.716  0.9383  2.9571  1.7366
   45MOL0     H 5927   2.446  10.898   4.697  0.0570  0.9199  0.6544
   45MOL0     H 5928   2.537  10.338   5.031 -0.4808  0.3990  1.1240
   45MOL0     H 5929   2.412  10.142   5.008  2.3801  0.5552 -2.0321
   45MOL0     H 5930   1.971  10.184   4.902 -0.1621  1.0629 -1.5536
   45MOL0     H 5931   2.013  10.019   4.924  3.3736 -0.7345  1.5397
   45MOL0     H 5932   2.123  10.165   4.689 -1.7363  1.5765  0.9151
   45MOL0     H 5933   2.112   9.991   4.713  2.1006  0.2429  4.6902
   45MOL0     H 5934   1.913  10.203   4.630 -3.2874 -0.8378 -0.9241
   45MOL0     H 5935   1.862  10.057   4.728  2.1534 -0.0293  1.2187
   45MOL0     H 5936   1.979   9.933   4.543 -1.3540 -0.1106  1.3760
   45MOL0     H 5937   1.831  10.012   4.511 -0.6530  3.1864  2.6278
   45MOL0     H 5938   2.096  10.247   4.270  2.0769  0.0352  1.0179
   45MOL0     H 5939   2.086  10.380   4.866  0.0139 -0.7521  0.0935
   45MOL0     H 5940   2.218  10.585   4.870  3.2727  1.2535 -0.1395
   46MOL0     O 5941   0.097   2.786   6.597  1.0323  0.5053  0.3742
   46MOL0     C 5942  -0.008   2.824   6.641 -0.2986 -0.7316 -0.0219
   46MOL0     O 5943  -0.134   2.802   6.591 -0.4543  0.1804  0.1424
   46MOL0     C 5944  -0.165   2.713   6.489 -1.4022  0.3281  0.0925
   46MOL0     C 5945  -0.100   2.592   6.463 -0.8699  0.0236 -0.1032
   46MOL0     C 5946  -0.143   2.511   6.353 -0.2489  0.2384  0.8017
   46MOL0     C 5947  -0.252   2.549   6.274 -0.3819 -0.0971 -0.0903
   46MOL0     O 5948  -0.301   2.464   6.184 -0.3868  0.0596 -0.5676
   46MOL0     C 5949  -0.345   2.522   6.059  0.0375  0.6760  0.4163
   46MOL0     C 5950  -0.230   2.480   5.964  1.0033  0.1769 -0.2086
   46MOL0     C 5951  -0.105   2.561   5.957 -0.0148 -0.1734  0.4018
   46MOL0     C 5952  -0.023   2.514   5.839  0.2277  0.0070  0.0391
   46MOL0     C 5953   0.072   2.622   5.794 -0.1223 -0.7345 -0.1496
   46MOL0     C 5954   0.143   2.580   5.660 -0.6827 -0.4091 -0.9629
   46MOL0     C 5955   0.287   2.648   5.655  0.1433  0.5530  1.4156
   46MOL0     C 5956   0.263   2.796   5.682  0.2810  0.3709 -0.3217
   46MOL0     N 5957   0.408   2.863   5.686  0.0379 -0.8337  0.3241
   46MOL0     C 5958   0.486   2.878   5.579 -0.1626 -0.2407 -0.0092
   46MOL0     C 5959   0.595   2.951   5.620 -0.5952  0.7821  0.4002
   46MOL0     C 5960   0.722   2.981   5.546 -0.0834  0.4254 -0.2177
   46MOL0     C 5961   0.716   3.106   5.454  0.7629  0.5866 -0.5860
   46MOL0     C 5962   0.724   3.243   5.530  0.1052  0.0690  0.0157
   46MOL0     C 5963   0.718   3.356   5.426  0.9511  0.2000  0.9450
   46MOL0     O 5964   0.594   3.357   5.351 -0.5558 -0.0884  0.0094
   46MOL0     C 5965   0.577   3.446   5.249  0.1760  0.0645  0.2121
   46MOL0     C 5966   0.635   3.575   5.235  0.2494  0.0902 -0.8298
   46MOL0     C 5967   0.600   3.654   5.126 -0.6498 -0.1902 -0.0749
   46MOL0     C 5968   0.514   3.612   5.015 -0.3012  0.2138 -1.7185
   46MOL0     C 5969   0.481   3.695   4.894  0.7724  0.5214  0.5566
   46MOL0     O 5970   0.574   3.791   4.872  0.5121 -0.2772  0.8216
   46MOL0     C 5971   0.580   3.854   4.744 -0.6811 -0.3106 -0.1456
   46MOL0     C 5972   0.540   3.787   4.626  0.0597 -0.4963  0.2172
   46MOL0     C 5973   0.547   3.863   4.506 -0.0959  0.3359 -0.2992
   46MOL0     C 5974   0.611   3.986   4.491  0.6039  0.1597  0.1319
   46MOL0     O 5975   0.618   4.039   4.359  0.1200 -0.8736 -0.9820
   46MOL0     C 5976   0.672   4.168   4.333  0.3432 -0.0343  1.3151
   46MOL0     C 5977   0.633   4.202   4.187  0.4573 -0.3514  0.1395
   46MOL0     C 5978   0.714   4.121   4.080  0.1382 -0.1004 -0.4082
   46MOL0     C 5979   0.679   4.185   3.943 -0.7089  0.4494  0.3024
   46MOL0     C 5980   0.714   4.083   3.838  0.4381 -0.2621  0.3024
   46MOL0     C 5981   0.677   4.134   3.697 -0.4061 -0.3989 -0.4660
   46MOL0     C 5982   0.535   4.183   3.653  0.0564 -0.1914  0.1678
   46MOL0     C 5983   0.431   4.078   3.677 -0.2186  0.0414  0.6824
   46MOL0    Cl 5984   0.261   4.151   3.648  0.0568 -0.0043 -0.1702
   46MOL0     C 5985   0.658   4.052   4.606  0.6611  0.2665  0.0925
   46MOL0     C 5986   0.637   3.988   4.737 -0.1716  0.5363  0.1914
   46MOL0     O 5987   0.375   3.679   4.832 -0.0126 -0.9428 -0.3485
   46MOL0     C 5988   0.468   3.475   5.039 -0.1528 -0.2981  1.0974
   46MOL0     C 5989   0.492   3.401   5.159  0.1376  0.3750 -0.3983
   46MOL0     N 5990   0.588   2.973   5.755  0.7266 -0.6101  1.1555
   46MOL0     N 5991   0.470   2.922   5.793  0.3053  0.2705 -0.3643
   46MOL0     C 5992  -0.320   2.669   6.305  0.7785 -1.2067 -0.0811
   46MOL0     C 5993  -0.271   2.751   6.410  0.1525 -0.4550 -0.7933
   46MOL0     C 5994  -0.000   2.918   6.758  0.0811 -0.5110  0.4795
   46MOL0     C 5995  -0.109   2.950   6.841 -0.0578 -0.2201 -0.7369
   46MOL0     C 5996  -0.086   3.040   6.948 -0.3811  1.5670  1.1778
   46MOL0     C 5997   0.035   3.081   6.983 -0.6275 -0.3505  0.1095
   46MOL0     O 5998   0.073   3.155   7.094 -0.2485 -0.0895  0.1451
   46MOL0     C 5999   0.015   3.126   7.214 -0.2306  0.3374 -0.6929
   46MOL0     C 6000   0.096   3.187   7.324 -0.5762  0.4847 -0.0591
   46MOL0     C 6001   0.193   3.080   7.381  0.0546  0.4104 -0.6932
   46MOL0     C 6002   0.268   3.149   7.497  0.6048  0.0506 -0.6786
   46MOL0     C 6003   0.197   3.228   7.605  0.2556 -0.1085  0.0206
   46MOL0     C 6004   0.148   3.312   7.673  0.1241  0.2310 -0.0246
   46MOL0     C 6005   0.146   3.050   6.903  0.4309  1.1218  0.4447
   46MOL0     C 6006   0.128   2.969   6.795 -0.1866 -0.2962 -0.1573
   46MOL0     H 6007  -0.027   2.562   6.537 -2.2166 -0.5774  1.0298
   46MOL0     H 6008  -0.103   2.412   6.333  0.9134  1.1144 -1.6210
   46MOL0     H 6009  -0.360   2.630   6.064 -0.6774  0.6068 -0.0112
   46MOL0     H 6010  -0.438   2.479   6.021 -0.2581  1.9796 -0.3912
   46MOL0     H 6011  -0.274   2.465   5.865 -1.1946 -0.7721  0.8356
   46MOL0     H 6012  -0.190   2.384   5.996  0.3607 -0.1784 -0.4402
   46MOL0     H 6013  -0.050   2.546   6.050 -1.7869 -1.7096  1.2498
   46MOL0     H 6014  -0.126   2.668   5.954  0.1075 -0.1436  0.5953
   46MOL0     H 6015   0.035   2.424   5.864  1.0556  0.7195  0.7541
   46MOL0     H 6016  -0.092   2.490   5.757 -2.4479 -3.3362  2.9514
   46MOL0     H 6017   0.156   2.623   5.864 -0.6934  2.3300  0.6116
   46MOL0     H 6018   0.012   2.713   5.788 -0.0758 -0.7519 -1.0394
   46MOL0     H 6019   0.081   2.599   5.572 -0.1320  3.3101 -0.7069
   46MOL0     H 6020   0.164   2.473   5.664 -1.8102 -0.7166 -2.4877
   46MOL0     H 6021   0.368   2.610   5.718 -0.4678 -0.9010  1.3558
   46MOL0     H 6022   0.317   2.639   5.550 -1.8142  1.1034  0.7668
   46MOL0     H 6023   0.224   2.804   5.784  1.9498 -2.8304  0.7273
   46MOL0     H 6024   0.201   2.854   5.613 -1.5031 -1.0353  0.0247
   46MOL0     H 6025   0.487   2.835   5.479  2.1287  0.8516 -0.5246
   46MOL0     H 6026   0.737   2.894   5.480 -0.7799  1.8289 -2.3494
   46MOL0     H 6027   0.805   2.982   5.617 -0.9633 -0.6076  0.8787
   46MOL0     H 6028   0.621   3.098   5.401 -0.3470  2.4462  0.9592
   46MOL0     H 6029   0.796   3.101   5.379  0.1711 -3.0083 -1.1393
   46MOL0     H 6030   0.646   3.251   5.607  1.0606 -1.3365  1.1918
   46MOL0     H 6031   0.821   3.233   5.579 -0.2165 -1.6784  0.3644
   46MOL0     H 6032   0.803   3.341   5.358 -0.0327  0.9306 -0.4808
   46MOL0     H 6033   0.740   3.449   5.479  1.4158 -0.8053  2.6159
   46MOL0     H 6034   0.710   3.615   5.303  1.4732  0.2792 -2.2295
   46MOL0     H 6035   0.631   3.757   5.111  1.0347 -1.0164 -3.1787
   46MOL0     H 6036   0.495   3.688   4.627 -0.5071 -0.2390  0.6314
   46MOL0     H 6037   0.516   3.812   4.416 -0.7872  0.0281  0.1036
   46MOL0     H 6038   0.780   4.153   4.345  0.6515 -2.7073 -2.7055
   46MOL0     H 6039   0.621   4.240   4.397 -0.2402  0.7381  0.0206
   46MOL0     H 6040   0.646   4.310   4.172 -2.1457  0.5644  3.2744
   46MOL0     H 6041   0.528   4.186   4.164  1.1823 -1.6633 -2.7038
   46MOL0     H 6042   0.689   4.014   4.077  1.2124 -0.3782 -4.1861
   46MOL0     H 6043   0.820   4.136   4.102  0.0468 -1.2742  1.0424
   46MOL0     H 6044   0.578   4.228   3.946 -0.0334  2.4737 -2.2396
   46MOL0     H 6045   0.748   4.269   3.927  0.0594 -0.1793  0.2574
   46MOL0     H 6046   0.655   3.992   3.855 -4.1560  2.2995 -0.1417
   46MOL0     H 6047   0.821   4.063   3.833  1.2666  3.2259 -5.6008
   46MOL0     H 6048   0.696   4.052   3.626  2.6694  1.4815 -2.0114
   46MOL0     H 6049   0.749   4.210   3.668 -1.1238  0.3826 -0.2445
   46MOL0     H 6050   0.497   4.269   3.709 -0.9694 -0.3476 -0.2688
   46MOL0     H 6051   0.543   4.218   3.550  0.2080 -0.2004  0.1757
   46MOL0     H 6052   0.447   4.042   3.779  2.3072 -1.5133 -0.1797
   46MOL0     H 6053   0.459   3.999   3.607  2.9056  3.1019 -1.8664
   46MOL0     H 6054   0.692   4.154   4.595 -1.5211  1.2457  1.7555
   46MOL0     H 6055   0.656   4.029   4.836 -3.8412 -2.5893  2.4694
   46MOL0     H 6056   0.411   3.436   4.955 -0.0991  0.3868  0.7290
   46MOL0     H 6057   0.448   3.303   5.172 -2.1236  1.5998  2.2242
   46MOL0     H 6058  -0.403   2.697   6.241 -0.0246 -0.5408  1.1950
   46MOL0     H 6059  -0.332   2.836   6.437 -0.5477 -0.7474 -1.4249
   46MOL0     H 6060  -0.212   2.921   6.821 -0.7161  1.7046 -0.3145
   46MOL0     H 6061  -0.168   3.062   7.017 -0.1521  0.8678  1.6883
   46MOL0     H 6062   0.033   3.019   7.228 -1.4284  0.3985  2.0492
   46MOL0     H 6063  -0.089   3.159   7.225  0.9309  4.7907 -1.3702
   46MOL0     H 6064   0.138   3.283   7.293  1.0016  1.4195  4.2783
   46MOL0     H 6065   0.033   3.228   7.404 -1.4294  3.4512 -2.0741
   46MOL0     H 6066   0.261   3.049   7.300  1.1483  1.2593 -0.1313
   46MOL0     H 6067   0.139   2.997   7.426 -1.7926  2.3755  0.9250
   46MOL0     H 6068   0.323   3.067   7.542  1.7180  0.0954 -1.8987
   46MOL0     H 6069   0.340   3.216   7.449 -0.1978 -0.9511 -3.5151
   46MOL0     H 6070   0.117   3.395   7.732 -3.9096 -0.8612 -0.3013
   46MOL0     H 6071   0.244   3.094   6.920 -0.9350  3.4638  3.0881
   46MOL0     H 6072   0.206   2.952   6.721 -2.1932 -0.0444 -2.4542
   47MOL0     O 6073   7.602   2.678   6.908  0.7637  0.6695 -1.0050
   47MOL0     C 6074   7.547   2.782   6.950 -0.5705  0.6774  0.7146
   47MOL0     O 6075   7.571   2.909   6.902 -0.4630  0.1823  0.0628
   47MOL0     C 6076   7.686   2.922   6.823  0.6634  0.0963 -0.5732
   47MOL0     C 6077   7.792   3.004   6.854 -1.2492  0.3424 -0.9769
   47MOL0     C 6078   7.905   3.025   6.770  0.1882  0.7564 -0.0770
   47MOL0     C 6079   7.907   2.950   6.649  1.3335 -0.1622 -0.2211
   47MOL0     O 6080   8.006   2.963   6.556  0.4073 -0.7070  0.7901
   47MOL0     C 6081   8.093   3.081   6.540  1.0364  0.1089 -0.1548
   47MOL0     C 6082   8.201   3.047   6.439  0.0444  0.1747  0.0594
   47MOL0     C 6083   8.298   3.166   6.444 -1.2088 -0.7526  0.2555
   47MOL0     C 6084   8.423   3.143   6.354 -0.5832 -0.5789  1.2074
   47MOL0     C 6085   8.388   3.150   6.195 -1.0135  0.1454 -0.4438
   47MOL0     C 6086   8.436   3.261   6.111 -0.3995  0.2443 -0.4866
   47MOL0     C 6087   8.588   3.286   6.117 -0.0701 -1.2382 -0.1414
   47MOL0     C 6088   8.633   3.365   5.991  1.0097  0.7201 -0.3258
   47MOL0     N 6089   8.637   3.277   5.871  0.0586 -0.6049 -0.1640
   47MOL0     C 6090   8.539   3.275   5.775  0.5169 -0.2748 -0.2145
   47MOL0     C 6091   8.578   3.174   5.690 -0.7668  0.2127  0.5464
   47MOL0     C 6092   8.493   3.142   5.572 -0.7608 -0.7233 -0.5507
   47MOL0     C 6093   8.572   3.109   5.446  0.8586 -0.4911  0.4167
   47MOL0     C 6094   8.493   3.036   5.331  0.9422  0.8270  1.3472
   47MOL0     C 6095   8.431   2.903   5.363 -0.0391 -0.8796 -0.1037
   47MOL0     O 6096   8.498   2.829   5.465  0.6977  0.0633  0.3018
   47MOL0     C 6097   8.556   2.715   5.426 -0.4456  0.4710 -0.1087
   47MOL0     C 6098   8.479   2.600   5.408  0.5209 -0.4864 -0.6134
   47MOL0     C 6099   8.527   2.480   5.352  0.1784 -0.0376 -0.0997
   47MOL0     C 6100   8.663   2.481   5.314 -0.3533  0.6736 -0.6722
   47MOL0     C 6101   8.717   2.358   5.268  0.8557  0.0271  1.0815
   47MOL0     O 6102   8.837   2.363   5.204  0.2094  0.1853 -0.3463
   47MOL0     C 6103   8.890   2.252   5.158 -0.8148 -0.2494  0.5594
   47MOL0     C 6104   8.943   2.154   5.247  0.4010 -0.6027  0.5848
   47MOL0     C 6105   8.996   2.030   5.209  0.0329 -0.1423 -0.6865
   47MOL0     C 6106   8.999   2.003   5.076  0.2266 -0.0200 -0.5085
   47MOL0     O 6107   9.054   1.887   5.026 -0.7819 -0.4841 -0.5434
   47MOL0     C 6108   8.965   1.772   5.000 -0.0253 -0.7898  0.4564
   47MOL0     C 6109   8.840   1.800   4.914  0.2624  0.6006 -1.1381
   47MOL0     C 6110   8.769   1.669   4.865 -0.2552 -0.0505 -0.3727
   47MOL0     C 6111   8.862   1.554   4.814 -0.4587 -0.2118 -0.4426
   47MOL0     C 6112   8.965   1.585   4.711  0.5105 -0.6549 -0.4570
   47MOL0     C 6113   8.909   1.661   4.590 -0.0731 -0.2169 -1.3199
   47MOL0     C 6114   9.021   1.696   4.501  0.6699 -0.3599 -0.1887
   47MOL0     C 6115   9.039   1.580   4.409 -0.3021  0.4737  1.6149
   47MOL0    Cl 6116   8.902   1.570   4.287 -0.1529 -0.4499  0.1528
   47MOL0     C 6117   8.945   2.097   4.987  0.7824 -1.0764  0.8346
   47MOL0     C 6118   8.882   2.218   5.026  0.3184 -0.5462  0.2542
   47MOL0     O 6119   8.654   2.257   5.295  0.0620  0.2572 -0.3301
   47MOL0     C 6120   8.747   2.589   5.350 -0.8570  0.0329 -0.9753
   47MOL0     C 6121   8.689   2.703   5.405 -0.6616 -0.4797 -0.5101
   47MOL0     N 6122   8.690   3.107   5.745 -0.1780  0.3895  0.5017
   47MOL0     N 6123   8.728   3.170   5.847  0.1178  0.6667 -0.3713
   47MOL0     C 6124   7.788   2.882   6.613 -0.7333  0.9805  0.2496
   47MOL0     C 6125   7.688   2.866   6.699  0.1570  0.2218 -0.8179
   47MOL0     C 6126   7.429   2.762   7.030  0.8326  0.9862  0.1712
   47MOL0     C 6127   7.364   2.867   7.090  0.4972 -0.1735 -0.4896
   47MOL0     C 6128   7.234   2.863   7.132  0.7708  0.6480 -0.2953
   47MOL0     C 6129   7.180   2.737   7.138  0.6532 -0.4316  0.6347
   47MOL0     O 6130   7.056   2.719   7.192 -0.6298 -0.0316 -0.4622
   47MOL0     C 6131   7.058   2.662   7.325  0.9249  0.4466 -0.1272
   47MOL0     C 6132   6.917   2.689   7.377  0.0001 -0.7301  0.2786
   47MOL0     C 6133   6.804   2.612   7.301  0.2496 -0.1115 -0.3350
   47MOL0     C 6134   6.669   2.616   7.380 -0.0210 -0.6813  0.6276
   47MOL0     C 6135   6.684   2.532   7.497 -0.5706  0.7064 -0.0561
   47MOL0     C 6136   6.679   2.471   7.606 -0.8219 -0.1808 -0.2723
   47MOL0     C 6137   7.234   2.626   7.074 -0.0630  0.6653  1.4012
   47MOL0     C 6138   7.356   2.641   7.011 -0.9780  0.6178 -0.2679
   47MOL0     H 6139   7.782   3.065   6.944  2.4535 -1.3583  0.8051
   47MOL0     H 6140   7.998   3.066   6.809  1.7613 -3.9434  1.8856
   47MOL0     H 6141   8.149   3.092   6.633  0.8956 -0.0939 -0.0454
   47MOL0     H 6142   8.042   3.177   6.523  1.4189  0.2703 -0.3850
   47MOL0     H 6143   8.176   3.052   6.333 -0.5498  4.4861  0.2119
   47MOL0     H 6144   8.247   2.950   6.460 -0.2724 -0.0539 -0.2768
   47MOL0     H 6145   8.337   3.175   6.546 -0.4583  0.3804 -0.0976
   47MOL0     H 6146   8.253   3.263   6.419 -0.8901 -0.7418 -0.3090
   47MOL0     H 6147   8.494   3.223   6.379  1.2190 -2.3871  2.1688
   47MOL0     H 6148   8.479   3.052   6.378 -2.3759 -2.5756 -1.5894
   47MOL0     H 6149   8.282   3.127   6.177 -1.6239  1.8752  0.6731
   47MOL0     H 6150   8.441   3.065   6.151 -0.8874  0.8745 -1.7302
   47MOL0     H 6151   8.382   3.354   6.133 -1.5651 -0.6445  0.6057
   47MOL0     H 6152   8.402   3.225   6.014 -0.9494 -1.2092  0.2226
   47MOL0     H 6153   8.614   3.347   6.205 -1.7030  2.3951 -1.9694
   47MOL0     H 6154   8.646   3.193   6.119 -1.4213 -2.1175 -0.5058
   47MOL0     H 6155   8.733   3.403   6.010 -0.4653  5.6250 -1.0787
   47MOL0     H 6156   8.573   3.456   5.982  0.7435  0.5283 -0.5427
   47MOL0     H 6157   8.455   3.342   5.762  0.3144 -0.5152 -0.1350
   47MOL0     H 6158   8.425   3.222   5.539 -3.6170 -1.7235  2.3767
   47MOL0     H 6159   8.439   3.049   5.591  0.8698 -1.6676 -0.4258
   47MOL0     H 6160   8.662   3.052   5.470  0.9555 -0.5616 -0.1061
   47MOL0     H 6161   8.610   3.201   5.400 -1.1789 -1.4921 -3.7462
   47MOL0     H 6162   8.426   3.108   5.284  1.0969 -0.9502 -1.8810
   47MOL0     H 6163   8.562   3.009   5.250 -0.9912 -1.9372  0.4320
   47MOL0     H 6164   8.417   2.846   5.270 -2.2012  0.2229 -0.5295
   47MOL0     H 6165   8.330   2.913   5.405 -0.2090 -2.1622 -0.1471
   47MOL0     H 6166   8.380   2.606   5.452  0.6737 -0.3799 -0.2801
   47MOL0     H 6167   8.466   2.394   5.325  1.1268  0.2537 -3.6835
   47MOL0     H 6168   8.930   2.195   5.347  0.7875  2.7882 -0.6356
   47MOL0     H 6169   9.029   1.957   5.282 -0.1184 -1.9092 -2.2810
   47MOL0     H 6170   8.938   1.728   5.097 -0.3467 -0.5583  0.4730
   47MOL0     H 6171   9.027   1.689   4.963  2.5950  0.5113  1.6441
   47MOL0     H 6172   8.867   1.875   4.839  1.9503  0.8899 -0.2918
   47MOL0     H 6173   8.774   1.854   4.983  1.8316  0.1471  0.7988
   47MOL0     H 6174   8.680   1.691   4.805 -0.8621  3.3976  1.5895
   47MOL0     H 6175   8.722   1.620   4.951 -0.4276 -0.9400 -0.9608
   47MOL0     H 6176   8.905   1.516   4.907  1.8937  0.7981 -1.0223
   47MOL0     H 6177   8.785   1.486   4.777 -2.0202  0.2122  1.8414
   47MOL0     H 6178   9.006   1.491   4.673 -1.5724 -2.0571  0.6352
   47MOL0     H 6179   9.052   1.639   4.751  1.3507 -0.1606 -2.8014
   47MOL0     H 6180   8.859   1.754   4.621  2.2081 -0.0941  2.7602
   47MOL0     H 6181   8.830   1.609   4.535 -1.1257 -0.6210  0.5022
   47MOL0     H 6182   9.004   1.792   4.451  1.2806  0.1232  0.5045
   47MOL0     H 6183   9.121   1.698   4.544  1.4247 -1.3938 -1.7916
   47MOL0     H 6184   9.043   1.487   4.466  5.4844  0.5424  1.9735
   47MOL0     H 6185   9.136   1.585   4.359 -1.3620 -1.4000 -0.8508
   47MOL0     H 6186   8.963   2.084   4.881 -2.1472 -3.4242  0.4917
   47MOL0     H 6187   8.827   2.286   4.962 -3.0463 -0.9129  2.5388
   47MOL0     H 6188   8.854   2.583   5.338 -1.0772 -3.4947 -2.1651
   47MOL0     H 6189   8.758   2.776   5.446 -1.5938 -0.0864  0.4085
   47MOL0     H 6190   7.804   2.832   6.518  2.3592  3.3864 -0.6966
   47MOL0     H 6191   7.607   2.802   6.667 -0.2142  0.0091  0.4804
   47MOL0     H 6192   7.406   2.966   7.107  1.3246 -0.0973 -2.7441
   47MOL0     H 6193   7.174   2.947   7.167 -2.7801 -1.8838  0.2327
   47MOL0     H 6194   7.137   2.710   7.383  2.0655  0.0446 -1.3134
   47MOL0     H 6195   7.081   2.556   7.339  0.4838  0.2842 -0.6122
   47MOL0     H 6196   6.913   2.676   7.485 -0.7269  1.1107  0.5097
   47MOL0     H 6197   6.909   2.797   7.361  0.6776 -1.2059 -5.1123
   47MOL0     H 6198   6.825   2.505   7.288  2.1377  0.1766  0.0720
   47MOL0     H 6199   6.793   2.663   7.206 -1.8802 -3.2377 -1.9471
   47MOL0     H 6200   6.630   2.712   7.415  0.6919 -0.8013  1.7734
   47MOL0     H 6201   6.606   2.560   7.310  2.0619 -1.0726 -1.0264
   47MOL0     H 6202   6.664   2.440   7.707 -0.9720  0.2315 -0.1632
   47MOL0     H 6203   7.183   2.531   7.061  2.4401 -0.6619  0.4720
   47MOL0     H 6204   7.383   2.560   6.945  1.5461  1.9917 -1.0380
   48MOL0     O 6205   6.914   4.143  10.640 -0.2607 -0.2189  0.1190
   48MOL0     C 6206   7.012   4.083  10.688 -1.0439 -0.5036 -1.1963
   48MOL0     O 6207   7.112   4.136  10.770  0.1499  0.8163  0.0463
   48MOL0     C 6208   7.084   4.228  10.859  0.2663 -0.5284  0.1189
   48MOL0     C 6209   7.178   4.323  10.889 -0.2011 -0.2302  1.1184
   48MOL0     C 6210   7.155   4.419  10.981 -0.5600 -0.2331  0.3045
   48MOL0     C 6211   7.038   4.418  11.056 -0.3332 -0.2170  0.6225
   48MOL0     O 6212   7.011   4.517  11.140  0.0254 -0.0317  0.3084
   48MOL0     C 6213   6.998   4.483  11.278 -0.2841  0.5555 -0.2222
   48MOL0     C 6214   6.922   4.593  11.361  0.2308  0.3159  0.0376
   48MOL0     C 6215   6.779   4.639  11.307 -0.3939  1.3985  0.2082
   48MOL0     C 6216   6.757   4.780  11.346  0.4448  0.2427  0.0537
   48MOL0     C 6217   6.619   4.836  11.306 -0.0470  0.4516 -0.1094
   48MOL0     C 6218   6.601   4.849  11.148  0.1655 -0.1039 -0.4560
   48MOL0     C 6219   6.637   4.983  11.079  0.4584  0.5104 -0.6691
   48MOL0     C 6220   6.646   4.962  10.926 -0.8919  0.1400 -0.9692
   48MOL0     N 6221   6.596   5.085  10.869 -1.0306 -0.4143 -0.4840
   48MOL0     C 6222   6.646   5.205  10.872  0.7028 -0.1534 -0.2998
   48MOL0     C 6223   6.556   5.292  10.820 -0.9241  0.3535  0.3057
   48MOL0     C 6224   6.560   5.440  10.805 -0.0320 -0.5152 -0.2688
   48MOL0     C 6225   6.487   5.514  10.909 -0.2746  0.1565 -0.5298
   48MOL0     C 6226   6.488   5.463  11.053  0.5922  0.5150  0.6324
   48MOL0     C 6227   6.625   5.479  11.112  0.7277 -0.5160 -0.3660
   48MOL0     O 6228   6.626   5.410  11.241 -0.7375 -0.4180  0.6056
   48MOL0     C 6229   6.698   5.457  11.343 -0.6108 -0.0730 -0.4735
   48MOL0     C 6230   6.779   5.570  11.343 -0.3881  0.4820 -0.4242
   48MOL0     C 6231   6.849   5.605  11.453  0.0268 -0.5198  0.1873
   48MOL0     C 6232   6.826   5.543  11.572  0.4367 -0.4754  0.1211
   48MOL0     C 6233   6.872   5.598  11.700 -0.3130  0.1519 -0.1809
   48MOL0     O 6234   6.774   5.621  11.795 -0.3634 -0.4995 -0.4074
   48MOL0     C 6235   6.796   5.711  11.896 -0.2801 -0.4316  0.4764
   48MOL0     C 6236   6.725   5.702  12.015  0.3306  0.6977  0.1882
   48MOL0     C 6237   6.731   5.772  12.116 -0.0398 -0.9633 -0.7865
   48MOL0     C 6238   6.831   5.868  12.128  0.0815  0.0791  0.6014
   48MOL0     O 6239   6.841   5.929  12.243 -0.5011 -0.0261 -0.5686
   48MOL0     C 6240   6.917   6.048  12.241  0.5971  1.0328 -0.8479
   48MOL0     C 6241   6.913   6.111  12.375 -0.5684 -0.0818 -0.6016
   48MOL0     C 6242   7.004   6.248  12.384 -0.1915  0.5147  0.0326
   48MOL0     C 6243   7.004   6.312  12.532  0.2292  0.8501 -0.7052
   48MOL0     C 6244   7.079   6.441  12.562 -0.1293 -0.3169 -0.6072
   48MOL0     C 6245   7.111   6.464  12.714  0.9294 -0.4763  0.0099
   48MOL0     C 6246   7.164   6.607  12.724  0.4420 -0.6874 -0.6756
   48MOL0     C 6247   7.189   6.630  12.876 -0.2060 -0.3924 -0.0088
   48MOL0    Cl 6248   7.329   6.532  12.934  0.5340 -0.4066  0.3837
   48MOL0     C 6249   6.905   5.894  12.012 -0.4210  0.7159 -0.1521
   48MOL0     C 6250   6.885   5.816  11.900  0.0788 -1.0784  0.0103
   48MOL0     O 6251   6.996   5.599  11.715  0.8453 -0.4254 -1.4221
   48MOL0     C 6252   6.742   5.433  11.577  0.6192  0.9640 -0.0406
   48MOL0     C 6253   6.679   5.392  11.464 -1.2671  0.6633 -0.2012
   48MOL0     N 6254   6.443   5.212  10.778 -0.4315  0.3662 -0.3147
   48MOL0     N 6255   6.481   5.091  10.795 -1.2832 -1.0298 -0.6143
   48MOL0     C 6256   6.945   4.314  11.041 -0.2322  1.0474  0.1496
   48MOL0     C 6257   6.960   4.219  10.929 -0.4480  0.0295  0.0256
   48MOL0     C 6258   7.028   3.955  10.637 -1.3023  0.6349 -0.7137
   48MOL0     C 6259   7.127   3.863  10.686  0.3520 -0.5779  0.6177
   48MOL0     C 6260   7.153   3.747  10.605 -0.3977  0.0365 -0.5327
   48MOL0     C 6261   7.056   3.700  10.509  0.6947  0.5779  0.5171
   48MOL0     O 6262   7.068   3.580  10.435  0.1438 -0.3472  0.2258
   48MOL0     C 6263   7.169   3.490  10.459 -0.1185 -0.0415 -0.0412
   48MOL0     C 6264   7.183   3.372  10.357  1.2643  0.2262  0.4785
   48MOL0     C 6265   7.197   3.430  10.211 -0.2291  0.1371 -0.4440
   48MOL0     C 6266   7.242   3.325  10.104 -0.1757 -0.6680 -0.2760
   48MOL0     C 6267   7.247   3.390   9.974  0.5402 -0.3054  0.2949
   48MOL0     C 6268   7.237   3.425   9.856  0.6859 -0.6014  0.6466
   48MOL0     C 6269   6.950   3.780  10.485 -0.1472  0.7756 -0.1002
   48MOL0     C 6270   6.940   3.906  10.536  0.2538 -0.6919 -0.4603
   48MOL0     H 6271   7.271   4.312  10.834  0.5512 -1.3897  2.5403
   48MOL0     H 6272   7.235   4.488  11.007 -1.6498  1.1521  0.1266
   48MOL0     H 6273   7.099   4.465  11.315  0.7487  0.2944 -2.9504
   48MOL0     H 6274   6.935   4.395  11.295 -2.2841  1.5592 -1.9739
   48MOL0     H 6275   6.992   4.677  11.357  3.4973 -2.2583 -0.3952
   48MOL0     H 6276   6.917   4.568  11.468 -2.1824  3.5264  0.8375
   48MOL0     H 6277   6.706   4.564  11.338  0.4630 -0.4472 -1.9432
   48MOL0     H 6278   6.772   4.625  11.199  1.1051  1.3420  0.0968
   48MOL0     H 6279   6.768   4.793  11.454  0.0939  0.3627  0.0795
   48MOL0     H 6280   6.835   4.840  11.298  0.1159 -0.8768 -1.9893
   48MOL0     H 6281   6.606   4.935  11.350 -1.8400  0.2609 -0.1439
   48MOL0     H 6282   6.553   4.757  11.344  2.1841 -1.5874 -0.1897
   48MOL0     H 6283   6.493   4.856  11.129 -0.0272  0.7756  0.8034
   48MOL0     H 6284   6.633   4.761  11.092 -0.5264 -0.3130 -0.5360
   48MOL0     H 6285   6.567   5.062  11.108 -1.3225 -1.6105  1.1918
   48MOL0     H 6286   6.741   5.002  11.107  0.1070 -1.8326  2.9240
   48MOL0     H 6287   6.587   4.873  10.903 -2.1898  0.1985  1.7319
   48MOL0     H 6288   6.748   4.955  10.886 -0.3543  2.9625 -0.3047
   48MOL0     H 6289   6.743   5.240  10.907 -0.2422  0.6022  1.6811
   48MOL0     H 6290   6.519   5.440  10.703  1.7072 -0.6563 -0.9878
   48MOL0     H 6291   6.666   5.465  10.801  0.6886 -3.3600 -3.0750
   48MOL0     H 6292   6.383   5.500  10.877 -0.3074 -2.1029  0.3607
   48MOL0     H 6293   6.510   5.620  10.902 -1.0547  0.2336 -3.2306
   48MOL0     H 6294   6.428   5.526  11.119 -0.8616 -1.1550  0.9571
   48MOL0     H 6295   6.449   5.361  11.054 -0.1014  0.7253 -0.9564
   48MOL0     H 6296   6.644   5.586  11.127  1.5759 -1.1012  4.2776
   48MOL0     H 6297   6.702   5.437  11.046  0.1470 -0.5518 -1.0266
   48MOL0     H 6298   6.798   5.633  11.258  0.6503 -1.8302 -2.0113
   48MOL0     H 6299   6.907   5.696  11.440  0.0546 -0.5840 -0.1342
   48MOL0     H 6300   6.647   5.626  12.013 -1.7833  2.7537 -0.8959
   48MOL0     H 6301   6.669   5.759  12.204  1.7682 -0.9129  0.5486
   48MOL0     H 6302   6.883   6.111  12.158 -2.8207 -0.8086 -1.0283
   48MOL0     H 6303   7.020   6.018  12.216  0.8896  2.0956 -0.9653
   48MOL0     H 6304   6.953   6.040  12.448 -0.2384 -0.9744 -1.6203
   48MOL0     H 6305   6.813   6.141  12.408 -0.3401 -0.0780  0.1176
   48MOL0     H 6306   6.984   6.316  12.301  0.3180 -1.5236 -1.8558
   48MOL0     H 6307   7.102   6.201  12.379 -0.1026  0.8477 -1.9646
   48MOL0     H 6308   6.899   6.324  12.559  0.3306  0.1925  0.0305
   48MOL0     H 6309   7.033   6.225  12.592  0.2428 -0.1190 -2.0644
   48MOL0     H 6310   7.012   6.518  12.522 -0.0322 -1.4261 -3.0467
   48MOL0     H 6311   7.170   6.449  12.503 -0.2490  1.6707 -0.5825
   48MOL0     H 6312   7.187   6.387  12.732  0.3347 -0.8009  1.3055
   48MOL0     H 6313   7.029   6.462  12.786 -0.3879 -0.4095 -1.4354
   48MOL0     H 6314   7.259   6.620  12.672 -0.0294 -2.1884 -2.0098
   48MOL0     H 6315   7.090   6.678  12.687  0.2256 -0.6357 -0.1551
   48MOL0     H 6316   7.090   6.606  12.917 -0.4580  2.9120  1.7027
   48MOL0     H 6317   7.197   6.735  12.904  0.6424 -0.0078 -1.6034
   48MOL0     H 6318   6.981   5.972  12.006 -1.7457  2.0542 -0.0472
   48MOL0     H 6319   6.945   5.837  11.812 -0.5995 -0.5162 -0.3310
   48MOL0     H 6320   6.715   5.381  11.668 -3.2884  1.1526 -0.9207
   48MOL0     H 6321   6.619   5.303  11.474 -1.2808  0.4568 -1.8012
   48MOL0     H 6322   6.852   4.322  11.097 -1.6485 -4.0986 -0.9205
   48MOL0     H 6323   6.888   4.138  10.920  1.5666 -2.1272  1.9098
   48MOL0     H 6324   7.176   3.892  10.778 -1.9988  3.6418  0.7792
   48MOL0     H 6325   7.239   3.690  10.639  1.5636  2.4347 -1.1118
   48MOL0     H 6326   7.165   3.447  10.560 -1.6192  0.6104  0.2116
   48MOL0     H 6327   7.263   3.544  10.448 -0.2192  0.0885 -0.2590
   48MOL0     H 6328   7.269   3.307  10.378  1.2933  0.0939 -0.0240
   48MOL0     H 6329   7.100   3.301  10.353  1.2328  0.2916 -2.5408
   48MOL0     H 6330   7.255   3.523  10.200  1.1778 -0.4686  1.2729
   48MOL0     H 6331   7.093   3.459  10.198 -0.3242 -0.3525 -0.7821
   48MOL0     H 6332   7.343   3.287  10.116  0.4665  1.2843  0.9631
   48MOL0     H 6333   7.191   3.228  10.107  1.2649 -1.4821 -1.2941
   48MOL0     H 6334   7.252   3.441   9.751  0.0626 -1.1929  0.4608
   48MOL0     H 6335   6.879   3.753  10.407  0.4069  1.9324 -1.0506
   48MOL0     H 6336   6.868   3.976  10.494  1.0648  1.2574  1.2158
   49MOL0     O 6337   6.688   7.844   8.623 -0.1594 -0.0646  0.7118
   49MOL0     C 6338   6.733   7.902   8.724 -0.8364  0.8136 -0.6002
   49MOL0     O 6339   6.818   8.009   8.717 -0.5564  0.0669  0.1549
   49MOL0     C 6340   6.875   8.032   8.591  0.3435  0.0538 -0.6654
   49MOL0     C 6341   6.828   8.136   8.516  0.4274  0.1149  0.2161
   49MOL0     C 6342   6.887   8.183   8.401 -2.0089 -0.2821  1.0355
   49MOL0     C 6343   6.996   8.117   8.351  0.6413  0.2914 -0.2372
   49MOL0     O 6344   7.067   8.155   8.238  1.1888 -0.6443  0.4916
   49MOL0     C 6345   7.092   8.294   8.203 -1.1585  0.7344  0.3595
   49MOL0     C 6346   7.043   8.300   8.059  0.4458  0.0756 -1.1939
   49MOL0     C 6347   7.078   8.440   8.006  0.7073 -0.1871 -0.6290
   49MOL0     C 6348   7.069   8.432   7.853 -0.0675 -0.1093  0.0244
   49MOL0     C 6349   7.090   8.573   7.796  0.2337 -0.2851 -0.1609
   49MOL0     C 6350   7.096   8.561   7.639  0.6766 -0.1536 -0.0312
   49MOL0     C 6351   6.961   8.507   7.579 -1.5984 -0.9432 -0.4688
   49MOL0     C 6352   6.982   8.525   7.422  0.4569 -0.4711  0.0248
   49MOL0     N 6353   7.051   8.408   7.367  0.0727 -0.2486  0.4596
   49MOL0     C 6354   7.010   8.285   7.376 -0.0542 -0.1681 -0.2957
   49MOL0     C 6355   7.128   8.212   7.363  0.3542  0.7747 -0.5610
   49MOL0     C 6356   7.139   8.060   7.390 -0.1706  0.1103 -0.3299
   49MOL0     C 6357   7.190   8.032   7.529 -0.7621  0.0252 -0.4867
   49MOL0     C 6358   7.329   8.094   7.543  0.2749  0.0426 -0.4611
   49MOL0     C 6359   7.408   8.016   7.647  1.0586  0.0858 -0.1355
   49MOL0     O 6360   7.331   8.032   7.761  0.0255 -0.4285 -0.6372
   49MOL0     C 6361   7.331   7.927   7.848 -0.2368 -0.2526 -0.3630
   49MOL0     C 6362   7.237   7.940   7.946  0.1139 -0.0852 -0.3559
   49MOL0     C 6363   7.219   7.835   8.041 -0.2632  0.3259  0.2566
   49MOL0     C 6364   7.300   7.718   8.038  0.7139 -0.8950  0.5045
   49MOL0     C 6365   7.254   7.594   8.112 -0.1026  0.3058 -0.2490
   49MOL0     O 6366   7.171   7.621   8.220  0.4340 -0.2204  1.2184
   49MOL0     C 6367   7.142   7.543   8.336 -0.3112 -0.0498 -0.1753
   49MOL0     C 6368   7.199   7.426   8.376 -0.3805  0.2039  0.1338
   49MOL0     C 6369   7.167   7.372   8.496  0.0035  1.1042  0.5289
   49MOL0     C 6370   7.072   7.430   8.586  0.1718 -0.3314  1.2659
   49MOL0     O 6371   7.026   7.370   8.697 -0.6929 -0.1211  0.5126
   49MOL0     C 6372   6.913   7.422   8.765  0.8442 -0.9554  0.2340
   49MOL0     C 6373   6.876   7.316   8.863  0.2236 -0.4844 -0.1006
   49MOL0     C 6374   6.748   7.347   8.938  0.0011  1.1064 -0.7040
   49MOL0     C 6375   6.699   7.251   9.055  0.0848 -0.6568  1.2463
   49MOL0     C 6376   6.786   7.265   9.178  0.4604 -0.4636  0.3946
   49MOL0     C 6377   6.761   7.398   9.251  0.1575 -1.0361 -0.3678
   49MOL0     C 6378   6.817   7.418   9.396  1.7759 -0.6023 -0.5996
   49MOL0     C 6379   6.967   7.447   9.410 -0.6053  1.0735  0.5976
   49MOL0    Cl 6380   7.069   7.305   9.353 -0.1575 -0.0273 -0.3337
   49MOL0     C 6381   7.035   7.550   8.545  0.6606 -0.4269 -0.8603
   49MOL0     C 6382   7.072   7.613   8.427  0.7064  0.3216  0.4729
   49MOL0     O 6383   7.294   7.484   8.077 -0.2971  0.6345 -0.2821
   49MOL0     C 6384   7.407   7.717   7.956 -0.3327 -0.6647  0.1427
   49MOL0     C 6385   7.431   7.823   7.867 -0.1666 -0.2491  0.7227
   49MOL0     N 6386   7.237   8.293   7.333  0.9385 -0.6181 -0.1234
   49MOL0     N 6387   7.183   8.406   7.330 -0.5915 -0.5202  0.3548
   49MOL0     C 6388   7.038   7.997   8.417  0.4033 -0.0942 -0.2864
   49MOL0     C 6389   6.987   7.969   8.548 -0.1037 -1.0270 -0.0805
   49MOL0     C 6390   6.676   7.859   8.862  0.1877 -0.1127 -0.2631
   49MOL0     C 6391   6.611   7.739   8.883  0.9802  0.6676 -0.3708
   49MOL0     C 6392   6.548   7.706   9.005  0.9648  0.0749  1.2877
   49MOL0     C 6393   6.546   7.790   9.106  0.3855 -0.1658  0.5658
   49MOL0     O 6394   6.483   7.754   9.222 -0.4851 -0.0407  0.4281
   49MOL0     C 6395   6.563   7.748   9.342  0.4019  0.0922  0.5012
   49MOL0     C 6396   6.495   7.662   9.452 -0.5824 -0.1436  0.9419
   49MOL0     C 6397   6.553   7.689   9.590 -0.7449  0.5728  0.4822
   49MOL0     C 6398   6.514   7.591   9.699 -0.6858 -0.7275 -0.3235
   49MOL0     C 6399   6.586   7.464   9.698  0.2153  0.4858  0.4305
   49MOL0     C 6400   6.634   7.348   9.690 -0.2661  0.2232 -0.2509
   49MOL0     C 6401   6.608   7.918   9.089 -0.2430 -0.1742  0.8692
   49MOL0     C 6402   6.657   7.952   8.958 -0.7101 -0.0923 -0.4056
   49MOL0     H 6403   6.744   8.188   8.559 -1.2515 -1.4161 -1.0662
   49MOL0     H 6404   6.841   8.266   8.347 -0.2295 -0.2748 -0.5753
   49MOL0     H 6405   7.200   8.307   8.199 -1.3486  6.0126  3.2002
   49MOL0     H 6406   7.062   8.375   8.270  0.2223  0.5316  1.2440
   49MOL0     H 6407   6.934   8.287   8.059  0.6572 -2.3152  0.6038
   49MOL0     H 6408   7.091   8.223   7.997 -0.7110 -0.9016 -0.9140
   49MOL0     H 6409   7.182   8.465   8.029  0.2719  0.9634  0.1653
   49MOL0     H 6410   7.009   8.509   8.055 -0.7762 -0.0605 -2.7453
   49MOL0     H 6411   7.158   8.375   7.826 -0.7957 -1.2996  0.0445
   49MOL0     H 6412   6.974   8.387   7.821 -0.4950  0.8211 -0.0562
   49MOL0     H 6413   7.190   8.607   7.822  0.9533 -1.2909 -1.4935
   49MOL0     H 6414   7.023   8.658   7.813  2.0898  1.6860 -1.9824
   49MOL0     H 6415   7.185   8.501   7.617  0.6354 -0.9376  1.7363
   49MOL0     H 6416   7.122   8.661   7.603 -0.5354  0.4180  0.6219
   49MOL0     H 6417   6.956   8.398   7.593 -0.7665 -0.9662 -0.2997
   49MOL0     H 6418   6.876   8.562   7.619  0.0977  0.3835  1.5360
   49MOL0     H 6419   7.044   8.610   7.390 -0.2418 -1.2388 -3.8915
   49MOL0     H 6420   6.887   8.541   7.371  0.2268 -2.1013 -0.0965
   49MOL0     H 6421   6.925   8.235   7.420  0.0336  0.0388  0.1238
   49MOL0     H 6422   7.212   8.017   7.321 -0.1973 -0.8926  0.2411
   49MOL0     H 6423   7.037   8.022   7.379 -0.9707  2.0979 -0.2542
   49MOL0     H 6424   7.197   7.926   7.557  1.7015  0.5921  1.5338
   49MOL0     H 6425   7.129   8.082   7.605 -0.6640 -0.1010 -0.3217
   49MOL0     H 6426   7.382   8.082   7.448  2.7390 -1.4265  0.9929
   49MOL0     H 6427   7.323   8.199   7.574 -0.2115  0.4354 -1.8398
   49MOL0     H 6428   7.506   8.060   7.666  0.8452  0.0714  1.0883
   49MOL0     H 6429   7.416   7.908   7.629  1.7081  0.2442 -0.8546
   49MOL0     H 6430   7.162   8.018   7.937 -1.7681 -1.9677 -2.3062
   49MOL0     H 6431   7.147   7.834   8.122 -0.6605 -2.8756 -0.0083
   49MOL0     H 6432   7.271   7.373   8.314 -0.0466  0.0825  0.6200
   49MOL0     H 6433   7.212   7.280   8.532 -0.4333  0.9684  0.7300
   49MOL0     H 6434   6.825   7.448   8.706  0.6612 -1.3777  0.3190
   49MOL0     H 6435   6.934   7.510   8.826  0.3245 -1.2778  0.8939
   49MOL0     H 6436   6.965   7.302   8.925 -0.1904 -4.1071 -0.0826
   49MOL0     H 6437   6.872   7.216   8.818  3.6502 -0.2752 -1.1827
   49MOL0     H 6438   6.658   7.341   8.876 -0.1316 -0.3557 -0.4058
   49MOL0     H 6439   6.747   7.449   8.976 -5.5477  1.6884 -1.4747
   49MOL0     H 6440   6.597   7.289   9.069  0.3912  2.5166 -2.9757
   49MOL0     H 6441   6.700   7.148   9.019  1.0086  0.3622 -2.0168
   49MOL0     H 6442   6.894   7.254   9.167  0.2589 -1.2661 -0.9368
   49MOL0     H 6443   6.745   7.189   9.246 -0.2408 -2.0187 -1.6729
   49MOL0     H 6444   6.651   7.405   9.247 -0.2764 -5.3605  0.0810
   49MOL0     H 6445   6.800   7.474   9.182  0.5281 -1.1694 -0.3052
   49MOL0     H 6446   6.773   7.513   9.427 -0.1765 -1.5780 -0.2131
   49MOL0     H 6447   6.784   7.345   9.471 -2.9692  1.7423  0.0061
   49MOL0     H 6448   6.990   7.471   9.514 -0.8246 -1.8666  1.4096
   49MOL0     H 6449   6.994   7.528   9.341  0.7143  0.1559 -0.0034
   49MOL0     H 6450   6.966   7.611   8.604 -0.8303 -3.4397  0.7307
   49MOL0     H 6451   7.027   7.708   8.399  0.8685  1.1540  2.8357
   49MOL0     H 6452   7.458   7.621   7.954  0.3832 -0.2909 -1.4273
   49MOL0     H 6453   7.518   7.824   7.802  1.1960  3.0222  2.3491
   49MOL0     H 6454   7.125   7.949   8.375  1.6675  0.4927  1.5142
   49MOL0     H 6455   7.035   7.895   8.612  2.1653  0.3820 -0.0383
   49MOL0     H 6456   6.604   7.669   8.800  3.3837  1.5064 -1.3733
   49MOL0     H 6457   6.493   7.613   9.004  1.5530 -0.2752  1.0515
   49MOL0     H 6458   6.567   7.851   9.377  0.9284  0.3499 -0.2821
   49MOL0     H 6459   6.660   7.707   9.311 -0.7638 -1.4158 -1.4323
   49MOL0     H 6460   6.391   7.694   9.463  0.0666  3.0636 -0.9738
   49MOL0     H 6461   6.497   7.557   9.423 -1.1383 -1.0631  3.8698
   49MOL0     H 6462   6.536   7.795   9.613  1.5669  1.5200 -1.6186
   49MOL0     H 6463   6.659   7.694   9.564 -1.5144  2.1138 -2.9853
   49MOL0     H 6464   6.535   7.640   9.794  1.5956  0.0024 -1.1549
   49MOL0     H 6465   6.406   7.576   9.687 -0.7875 -0.1102 -0.2182
   49MOL0     H 6466   6.678   7.251   9.680 -1.6849 -0.4537 -0.3086
   49MOL0     H 6467   6.623   7.996   9.162  1.3044  1.9511 -1.5553
   49MOL0     H 6468   6.707   8.049   8.952  2.0471 -1.3819 -0.0592
   50MOL0     O 6469   0.947   4.351   3.316 -0.0347  0.2381 -0.3527
   50MOL0     C 6470   0.916   4.463   3.355 -0.1541 -0.3322 -0.4322
   50MOL0     O 6471   0.860   4.568   3.278  0.2139  0.6522 -0.4088
   50MOL0     C 6472   0.824   4.520   3.152  0.4683  0.0061  0.3807
   50MOL0     C 6473   0.690   4.468   3.145 -0.3021 -1.1742  0.7189
   50MOL0     C 6474   0.644   4.408   3.021 -0.9978 -0.4372 -0.6776
   50MOL0     C 6475   0.726   4.398   2.907 -0.0076 -1.1415  0.5187
   50MOL0     O 6476   0.662   4.360   2.794 -0.4221 -0.3736  0.1841
   50MOL0     C 6477   0.735   4.264   2.711 -0.3964  0.6952  0.1822
   50MOL0     C 6478   0.639   4.202   2.623 -1.1176 -0.0622 -0.0798
   50MOL0     C 6479   0.571   4.306   2.536 -0.3726  0.1150 -0.1447
   50MOL0     C 6480   0.474   4.242   2.443 -0.2341 -0.2484  0.3759
   50MOL0     C 6481   0.378   4.337   2.377 -0.3090 -0.1809 -0.8769
   50MOL0     C 6482   0.447   4.448   2.315 -0.3384 -1.0753 -0.0141
   50MOL0     C 6483   0.347   4.520   2.229  0.0146 -1.2796 -0.4962
   50MOL0     C 6484   0.398   4.659   2.198  0.4900  0.4005  0.0916
   50MOL0     N 6485   0.516   4.657   2.108  0.0159  0.4130 -0.1546
   50MOL0     C 6486   0.516   4.594   1.985  1.1540 -0.3458 -0.5662
   50MOL0     C 6487   0.638   4.621   1.935 -0.0381  0.0902 -0.8187
   50MOL0     C 6488   0.687   4.539   1.819 -0.5612  0.0389 -1.4348
   50MOL0     C 6489   0.771   4.419   1.881  0.0608  0.6311  0.4878
   50MOL0     C 6490   0.911   4.455   1.932 -0.6299  0.2941  0.1943
   50MOL0     C 6491   1.017   4.363   1.869 -0.0609  0.8666  0.1080
   50MOL0     O 6492   1.011   4.225   1.916  0.0666  0.1650 -0.0031
   50MOL0     C 6493   1.003   4.119   1.829 -0.1919 -0.6695 -0.0060
   50MOL0     C 6494   1.066   4.126   1.701 -0.3250 -0.4397  0.0945
   50MOL0     C 6495   1.055   4.029   1.601 -0.4930  0.5491 -0.2361
   50MOL0     C 6496   0.979   3.915   1.626  0.2857  1.1931 -0.4800
   50MOL0     C 6497   0.949   3.813   1.526  0.1620  0.2452  0.2375
   50MOL0     O 6498   1.040   3.801   1.419  0.1350 -0.0844  0.2498
   50MOL0     C 6499   1.019   3.691   1.334 -0.4422  0.2988  0.8266
   50MOL0     C 6500   0.970   3.714   1.207  0.8279  0.5831 -0.5015
   50MOL0     C 6501   0.975   3.609   1.110 -0.4897 -0.1322  0.5848
   50MOL0     C 6502   1.025   3.486   1.154 -0.1500  0.0757 -0.0494
   50MOL0     O 6503   1.055   3.408   1.044  0.1839 -0.2305 -0.3074
   50MOL0     C 6504   1.133   3.286   1.069  0.6348 -0.7318 -0.5350
   50MOL0     C 6505   1.171   3.220   0.934 -0.1703 -0.5272  0.0576
   50MOL0     C 6506   1.049   3.156   0.862 -0.3047  0.1709  0.7210
   50MOL0     C 6507   1.100   3.102   0.720  0.5092  0.2613  0.7367
   50MOL0     C 6508   0.991   3.033   0.636  0.3207 -0.8983  0.3058
   50MOL0     C 6509   0.903   3.151   0.582 -0.0051  0.1283 -0.6688
   50MOL0     C 6510   0.815   3.099   0.469 -0.9743 -0.4296  0.0368
   50MOL0     C 6511   0.884   3.060   0.342 -0.2852 -0.0089  0.0325
   50MOL0    Cl 6512   0.793   3.127   0.200  0.3726  0.4289 -0.0009
   50MOL0     C 6513   1.066   3.466   1.285 -0.6650  0.8830 -0.7606
   50MOL0     C 6514   1.063   3.565   1.382  1.0925  0.6722  0.4920
   50MOL0     O 6515   0.862   3.733   1.557 -0.3181  0.0851 -0.4927
   50MOL0     C 6516   0.899   3.918   1.738  0.1757  0.4527 -1.0976
   50MOL0     C 6517   0.913   4.011   1.845 -0.2092  0.0563 -0.4724
   50MOL0     N 6518   0.709   4.713   2.010 -0.8828 -0.6279 -0.1919
   50MOL0     N 6519   0.645   4.715   2.124  0.0970  0.2624  0.9187
   50MOL0     C 6520   0.860   4.439   2.921  0.0972 -1.3479  0.0833
   50MOL0     C 6521   0.913   4.496   3.038  0.5389  0.2586 -0.3029
   50MOL0     C 6522   0.985   4.505   3.482  0.1394 -0.7985 -0.6520
   50MOL0     C 6523   0.950   4.624   3.548  0.0967 -0.4526 -0.0783
   50MOL0     C 6524   1.011   4.670   3.668  0.1918  0.9675 -0.0305
   50MOL0     C 6525   1.118   4.594   3.724 -0.1441 -0.4060  0.6704
   50MOL0     O 6526   1.181   4.654   3.837  0.3826  0.2980  0.7193
   50MOL0     C 6527   1.116   4.593   3.950 -0.1546 -0.2129  0.4004
   50MOL0     C 6528   1.221   4.608   4.074 -0.3827  0.9754  1.0939
   50MOL0     C 6529   1.269   4.751   4.094  0.3239  0.3329  0.6334
   50MOL0     C 6530   1.343   4.773   4.219  0.0158 -0.1891 -1.2278
   50MOL0     C 6531   1.270   4.738   4.352 -0.3149 -0.8138  0.1117
   50MOL0     C 6532   1.203   4.715   4.448  0.1343 -0.4066 -1.0522
   50MOL0     C 6533   1.146   4.468   3.666 -0.6326 -0.7230  0.1737
   50MOL0     C 6534   1.070   4.420   3.566  0.4824 -0.2426  0.6522
   50MOL0     H 6535   0.634   4.468   3.238 -0.2064  1.3585  0.8327
   50MOL0     H 6536   0.540   4.381   3.003 -2.0479  1.1410  2.3375
   50MOL0     H 6537   0.773   4.182   2.773 -1.9333 -0.1434  0.0867
   50MOL0     H 6538   0.813   4.315   2.655  0.8535  1.2360  2.3036
   50MOL0     H 6539   0.566   4.151   2.687 -0.4783 -2.6382 -1.2924
   50MOL0     H 6540   0.698   4.134   2.561  3.7447  2.0910  1.6006
   50MOL0     H 6541   0.650   4.356   2.479  1.7463 -3.3468 -0.5173
   50MOL0     H 6542   0.516   4.383   2.590 -1.1576  0.8413 -1.8832
   50MOL0     H 6543   0.531   4.198   2.361 -0.0413  0.5778  0.0551
   50MOL0     H 6544   0.425   4.167   2.505 -0.3223  0.6277  1.3919
   50MOL0     H 6545   0.321   4.379   2.462  1.7537  0.4613  0.2541
   50MOL0     H 6546   0.314   4.280   2.309 -1.2243 -0.6597  0.3477
   50MOL0     H 6547   0.541   4.417   2.268  0.5250 -1.2239  1.7427
   50MOL0     H 6548   0.478   4.515   2.395  0.1014  0.8941 -1.7520
   50MOL0     H 6549   0.326   4.470   2.134 -1.2408  0.9357 -1.4705
   50MOL0     H 6550   0.254   4.540   2.282  0.4919  2.4067 -0.7754
   50MOL0     H 6551   0.420   4.707   2.294  2.2612  1.3343 -0.7219
   50MOL0     H 6552   0.321   4.722   2.153  0.6856  0.1519 -0.6085
   50MOL0     H 6553   0.443   4.518   1.956  1.7916 -0.1354 -3.0016
   50MOL0     H 6554   0.743   4.595   1.744 -0.5004 -0.1649 -1.5435
   50MOL0     H 6555   0.601   4.497   1.765 -1.4655 -2.8854  1.8813
   50MOL0     H 6556   0.797   4.365   1.789  1.8269  5.1102 -1.9747
   50MOL0     H 6557   0.715   4.350   1.945  3.4624 -1.8211  1.1162
   50MOL0     H 6558   0.942   4.556   1.904  2.1856  0.3776  3.0889
   50MOL0     H 6559   0.922   4.443   2.040  0.0907  0.0777  0.1005
   50MOL0     H 6560   1.109   4.414   1.899 -1.2667  3.9710 -1.0134
   50MOL0     H 6561   1.009   4.365   1.760 -1.6400  3.1085  0.1920
   50MOL0     H 6562   1.123   4.214   1.675 -1.5556  0.0115 -1.2660
   50MOL0     H 6563   1.111   4.043   1.509 -1.8781  0.0826 -1.1801
   50MOL0     H 6564   0.932   3.810   1.175  0.4944  1.2800  1.7982
   50MOL0     H 6565   0.948   3.622   1.005  2.1985 -0.2879 -0.1950
   50MOL0     H 6566   1.077   3.221   1.136  0.6852  0.7365  1.0068
   50MOL0     H 6567   1.224   3.323   1.119 -0.2139 -0.0419  0.5381
   50MOL0     H 6568   1.254   3.157   0.967 -0.9227 -0.4715  2.2769
   50MOL0     H 6569   1.206   3.295   0.862 -0.7539  0.7983  1.0902
   50MOL0     H 6570   0.964   3.221   0.844  1.6897  2.1597 -2.5301
   50MOL0     H 6571   1.014   3.074   0.926  0.1090 -1.3564 -0.9206
   50MOL0     H 6572   1.144   3.188   0.669  1.3855  0.3301  1.5697
   50MOL0     H 6573   1.174   3.024   0.741  1.4671  1.3522  1.4764
   50MOL0     H 6574   0.940   2.953   0.690 -0.1441 -1.1146 -0.4515
   50MOL0     H 6575   1.036   2.990   0.546 -0.7093  0.9555 -1.1712
   50MOL0     H 6576   0.974   3.225   0.544 -0.9431  1.3329 -0.1444
   50MOL0     H 6577   0.834   3.196   0.654 -5.1048 -3.2234 -2.8351
   50MOL0     H 6578   0.742   3.020   0.487  1.0325 -2.2328  0.7528
   50MOL0     H 6579   0.744   3.179   0.449 -3.4589 -1.9960  2.0706
   50MOL0     H 6580   0.896   2.952   0.334  0.1604 -0.3504  3.6691
   50MOL0     H 6581   0.981   3.111   0.344 -0.9143  1.2393 -0.1087
   50MOL0     H 6582   1.091   3.362   1.299  1.9779  1.5509  0.1079
   50MOL0     H 6583   1.095   3.566   1.485 -0.4859  0.4381  1.0034
   50MOL0     H 6584   0.822   3.845   1.762  1.7313 -0.0971  2.8872
   50MOL0     H 6585   0.855   4.005   1.936 -0.9982  1.5114 -0.8511
   50MOL0     H 6586   0.925   4.437   2.834  0.8194  1.1028  0.4762
   50MOL0     H 6587   1.015   4.531   3.051  0.0984  0.6942  2.6230
   50MOL0     H 6588   0.884   4.691   3.494  0.3847 -1.0438 -1.2109
   50MOL0     H 6589   0.996   4.769   3.709  0.8472  0.4793  1.4759
   50MOL0     H 6590   1.096   4.487   3.935  0.1788 -0.3552  0.9239
   50MOL0     H 6591   1.019   4.640   3.968  0.4739  1.7737 -1.1101
   50MOL0     H 6592   1.171   4.574   4.165 -0.6476  2.5241  1.5413
   50MOL0     H 6593   1.308   4.548   4.043 -0.8269  1.2213 -0.7463
   50MOL0     H 6594   1.182   4.816   4.100  1.7140  2.2795  0.5871
   50MOL0     H 6595   1.328   4.793   4.012  0.7050 -2.1288 -0.4505
   50MOL0     H 6596   1.429   4.706   4.223  2.4916  2.8381  0.3694
   50MOL0     H 6597   1.372   4.878   4.226  2.8262 -0.9974  3.0280
   50MOL0     H 6598   1.148   4.699   4.538 -0.5329 -2.2941 -1.7489
   50MOL0     H 6599   1.232   4.418   3.710  0.5865  1.5342  0.5085
   50MOL0     H 6600   1.076   4.315   3.540  1.2552  0.1488 -0.8881
   51MOL0     O 6601   5.912   6.382   5.771 -0.1148  0.1044  0.3632
   51MOL0     C 6602   5.994   6.431   5.696 -0.6119 -0.0898 -0.3252
   51MOL0     O 6603   6.025   6.560   5.681  0.6261 -0.5360 -0.8653
   51MOL0     C 6604   6.001   6.654   5.776  0.6618  1.0922 -0.4268
   51MOL0     C 6605   5.989   6.786   5.731 -0.9372 -0.9177  0.5577
   51MOL0     C 6606   5.941   6.890   5.806 -0.0001  0.9979 -0.2935
   51MOL0     C 6607   5.926   6.873   5.946 -0.3436 -0.1314  0.0772
   51MOL0     O 6608   5.893   6.985   6.018 -0.2080  0.0537 -0.0037
   51MOL0     C 6609   5.961   6.990   6.142 -0.5518 -0.7179  0.2446
   51MOL0     C 6610   5.921   7.111   6.229 -0.4478 -0.3527  0.2028
   51MOL0     C 6611   6.016   7.140   6.350 -0.6656  0.0463  0.3189
   51MOL0     C 6612   6.007   7.283   6.412 -0.2875 -0.0567 -0.0858
   51MOL0     C 6613   5.867   7.300   6.473  0.2899  0.1664 -0.3368
   51MOL0     C 6614   5.846   7.439   6.518  0.1109  0.4735  0.5720
   51MOL0     C 6615   5.708   7.453   6.594  0.2996 -0.9657  0.4280
   51MOL0     C 6616   5.695   7.598   6.623 -0.7877  0.4851 -0.2838
   51MOL0     N 6617   5.570   7.618   6.704 -0.0049  0.0639 -1.2463
   51MOL0     C 6618   5.564   7.676   6.833  0.2123  0.0953  0.7912
   51MOL0     C 6619   5.435   7.637   6.868  0.0217 -0.6279  1.2439
   51MOL0     C 6620   5.369   7.676   6.996  0.4871  0.8747  0.0091
   51MOL0     C 6621   5.306   7.808   6.981  0.1729 -0.1113 -0.3119
   51MOL0     C 6622   5.219   7.841   7.106  0.3898 -0.2717 -0.3625
   51MOL0     C 6623   5.199   7.991   7.108  1.2238 -0.5658 -0.4460
   51MOL0     O 6624   5.133   8.030   7.232  0.0234  0.3252 -0.4470
   51MOL0     C 6625   4.997   8.051   7.222 -1.0131  0.2960 -0.4690
   51MOL0     C 6626   4.906   7.962   7.165  0.3329 -0.3879  0.8003
   51MOL0     C 6627   4.769   7.987   7.143 -0.1253 -0.3787 -0.2761
   51MOL0     C 6628   4.723   8.113   7.180 -0.2293  0.3869 -0.2662
   51MOL0     C 6629   4.574   8.143   7.158 -0.4924  0.2345  0.1814
   51MOL0     O 6630   4.529   8.247   7.233  1.1379  0.2407  0.6953
   51MOL0     C 6631   4.395   8.289   7.201  0.1329 -0.8426  0.5567
   51MOL0     C 6632   4.374   8.409   7.129  0.2887  0.1841 -0.6124
   51MOL0     C 6633   4.245   8.460   7.108 -0.6701  0.7058  0.4946
   51MOL0     C 6634   4.130   8.388   7.150  0.2484 -0.6293  0.5429
   51MOL0     O 6635   4.000   8.420   7.117 -0.3323 -0.1696 -0.4538
   51MOL0     C 6636   3.921   8.309   7.069  0.0742 -0.6231 -0.5818
   51MOL0     C 6637   3.818   8.366   6.962 -0.3669 -0.7406 -0.4434
   51MOL0     C 6638   3.889   8.374   6.827 -0.8505 -0.0697  0.1940
   51MOL0     C 6639   3.993   8.486   6.819 -0.3035 -0.4209 -0.6821
   51MOL0     C 6640   4.021   8.521   6.671 -0.1766 -0.1285  0.4719
   51MOL0     C 6641   4.152   8.599   6.652  0.5843 -0.4486  0.4205
   51MOL0     C 6642   4.169   8.739   6.724  0.6446 -0.0486 -0.1730
   51MOL0     C 6643   4.293   8.802   6.669 -1.5121 -1.2511  1.3487
   51MOL0    Cl 6644   4.255   8.876   6.510 -0.0296 -0.3246  0.1858
   51MOL0     C 6645   4.151   8.271   7.231  1.1120 -0.0199 -0.4526
   51MOL0     C 6646   4.280   8.227   7.255  0.6099  0.0374 -0.5183
   51MOL0     O 6647   4.510   8.069   7.091 -0.0834  0.2387  0.2855
   51MOL0     C 6648   4.809   8.208   7.246 -0.2643  0.3269  0.3038
   51MOL0     C 6649   4.941   8.175   7.267 -0.7490  1.2866 -0.1902
   51MOL0     N 6650   5.373   7.568   6.764  0.6720 -0.4006 -0.2101
   51MOL0     N 6651   5.449   7.571   6.665  0.4899  0.5514  0.1737
   51MOL0     C 6652   5.931   6.744   5.996 -0.8481  0.1780  0.0097
   51MOL0     C 6653   5.960   6.632   5.914 -0.0525  0.5758  0.0081
   51MOL0     C 6654   6.089   6.338   5.635  0.9793  0.1867  0.0771
   51MOL0     C 6655   6.212   6.377   5.583 -0.4236 -0.6334 -0.1736
   51MOL0     C 6656   6.293   6.291   5.523 -0.2077  0.1168  0.8790
   51MOL0     C 6657   6.249   6.160   5.489  0.0879 -0.6174 -1.3510
   51MOL0     O 6658   6.317   6.069   5.419 -0.2198  0.7299  0.4868
   51MOL0     C 6659   6.445   6.116   5.376  0.2779  0.6701 -0.7920
   51MOL0     C 6660   6.498   6.013   5.284  0.1646  0.4136  0.3637
   51MOL0     C 6661   6.590   6.078   5.182  0.4531 -0.3629 -0.5932
   51MOL0     C 6662   6.724   6.136   5.244 -0.2507 -0.8036  1.1944
   51MOL0     C 6663   6.825   6.152   5.136 -0.0889 -0.6158 -0.3988
   51MOL0     C 6664   6.897   6.180   5.048 -0.0508 -0.1918 -0.6720
   51MOL0     C 6665   6.132   6.114   5.545 -0.1625  0.5420 -0.5613
   51MOL0     C 6666   6.051   6.200   5.617  0.6478  0.5376  0.1699
   51MOL0     H 6667   6.010   6.802   5.626  1.1204  0.5919  1.1369
   51MOL0     H 6668   5.937   6.990   5.764 -1.5490  0.8733 -0.4741
   51MOL0     H 6669   6.065   7.000   6.112 -0.3322 -0.6861  1.0144
   51MOL0     H 6670   5.948   6.901   6.204 -1.3942  0.4741  1.8512
   51MOL0     H 6671   5.815   7.108   6.254 -0.9877  1.4507 -1.6364
   51MOL0     H 6672   5.926   7.196   6.161  0.3192  1.7469  2.7188
   51MOL0     H 6673   6.119   7.128   6.317 -0.8092  0.8777 -0.4816
   51MOL0     H 6674   6.001   7.063   6.426 -0.2767 -0.5985 -0.2465
   51MOL0     H 6675   6.089   7.304   6.481 -1.3153  5.1651 -0.0611
   51MOL0     H 6676   6.019   7.359   6.335  2.4303  0.3665  0.6340
   51MOL0     H 6677   5.851   7.236   6.561 -1.2032 -4.1866 -3.4633
   51MOL0     H 6678   5.784   7.282   6.404 -1.9097  0.3462  2.0612
   51MOL0     H 6679   5.852   7.507   6.432  1.2167 -0.0573  0.2094
   51MOL0     H 6680   5.931   7.456   6.585  0.2793  0.3488  0.3930
   51MOL0     H 6681   5.623   7.442   6.526  2.5187  0.6643 -2.8360
   51MOL0     H 6682   5.701   7.400   6.690  0.0591  0.5107  1.2514
   51MOL0     H 6683   5.683   7.655   6.531 -5.1685  1.2455  0.5203
   51MOL0     H 6684   5.789   7.611   6.678  0.1089 -5.2724  0.2045
   51MOL0     H 6685   5.632   7.738   6.890 -1.6914  2.6059  0.5215
   51MOL0     H 6686   5.443   7.671   7.076  0.1496 -2.7576  0.2689
   51MOL0     H 6687   5.292   7.602   7.021 -0.1271  1.5986  0.3110
   51MOL0     H 6688   5.241   7.834   6.896  1.4460 -0.4523 -1.4344
   51MOL0     H 6689   5.389   7.880   6.979 -0.2236  0.3621  0.2054
   51MOL0     H 6690   5.130   7.781   7.089  0.1275  0.0729 -0.2351
   51MOL0     H 6691   5.268   7.819   7.202  2.7633 -1.2557 -1.7276
   51MOL0     H 6692   5.144   8.016   7.017  1.3319  0.6627 -0.1948
   51MOL0     H 6693   5.292   8.048   7.109 -0.6896  2.8619  0.2880
   51MOL0     H 6694   4.953   7.870   7.132 -1.3648 -0.2622 -2.3236
   51MOL0     H 6695   4.707   7.914   7.091 -1.8247 -0.7419  2.0759
   51MOL0     H 6696   4.458   8.464   7.088 -0.5002 -0.3772 -3.2185
   51MOL0     H 6697   4.225   8.546   7.044 -1.1818 -0.6008 -1.1683
   51MOL0     H 6698   3.861   8.283   7.157 -1.5545 -0.9972 -1.7804
   51MOL0     H 6699   3.991   8.237   7.026 -2.3998 -2.4486 -1.7651
   51MOL0     H 6700   3.777   8.464   6.988 -1.1495 -1.3211  0.6168
   51MOL0     H 6701   3.727   8.307   6.949 -0.0206 -1.6686  1.1713
   51MOL0     H 6702   3.809   8.397   6.757 -1.4717  2.1618  1.5533
   51MOL0     H 6703   3.930   8.276   6.800  1.3321  0.6673  0.6067
   51MOL0     H 6704   3.970   8.575   6.877  1.1371  0.1680 -0.9552
   51MOL0     H 6705   4.085   8.436   6.852 -0.9546 -2.2698 -1.4958
   51MOL0     H 6706   3.932   8.577   6.642  1.0624  3.0768  2.3144
   51MOL0     H 6707   4.037   8.434   6.608 -0.1338  0.8685 -0.9322
   51MOL0     H 6708   4.155   8.626   6.546 -1.5362 -0.9522  0.1765
   51MOL0     H 6709   4.241   8.537   6.667  1.0457 -1.2495 -4.0799
   51MOL0     H 6710   4.083   8.795   6.687  1.6696  0.3199 -2.1368
   51MOL0     H 6711   4.183   8.724   6.831 -1.5914  1.3417  0.3774
   51MOL0     H 6712   4.383   8.739   6.668  0.4827  1.4112  1.4721
   51MOL0     H 6713   4.320   8.885   6.735 -1.2416  1.2300 -1.6292
   51MOL0     H 6714   4.063   8.222   7.270  1.6105 -1.3050 -0.9006
   51MOL0     H 6715   4.293   8.137   7.315 -0.0104  0.0523 -0.3495
   51MOL0     H 6716   4.781   8.310   7.270 -1.7299  0.6034 -2.2359
   51MOL0     H 6717   4.999   8.254   7.314 -2.2263  1.7708  0.9036
   51MOL0     H 6718   5.887   6.731   6.094 -1.3468  0.6164 -0.1482
   51MOL0     H 6719   5.951   6.537   5.966 -4.6527  1.6715  1.7193
   51MOL0     H 6720   6.247   6.478   5.601 -4.5684  1.1319 -0.8120
   51MOL0     H 6721   6.381   6.338   5.482  0.4091 -1.3626  0.4341
   51MOL0     H 6722   6.506   6.127   5.467  1.0478  2.1521 -1.4412
   51MOL0     H 6723   6.449   6.217   5.335  2.7535  1.3266  0.8088
   51MOL0     H 6724   6.561   5.939   5.335  1.0557  0.0131 -1.2334
   51MOL0     H 6725   6.417   5.963   5.230 -0.9306  0.8900  1.5364
   51MOL0     H 6726   6.548   6.155   5.116  2.2233  1.7749  0.6498
   51MOL0     H 6727   6.624   5.994   5.120  2.0976 -0.6486  0.6464
   51MOL0     H 6728   6.704   6.217   5.314  2.5169  0.0226  1.1341
   51MOL0     H 6729   6.760   6.063   5.316  3.8080  0.3130  0.5204
   51MOL0     H 6730   6.957   6.229   4.973  0.5269  1.1917  0.6266
   51MOL0     H 6731   6.103   6.011   5.527 -1.4817  0.8644 -0.3319
   51MOL0     H 6732   5.953   6.167   5.650  1.8478 -1.5145  2.0257
   52MOL0     O 6733   7.894   2.891   9.609 -0.4990  0.6168  0.8227
   52MOL0     C 6734   7.914   2.814   9.517 -0.3327  0.3999  0.7146
   52MOL0     O 6735   8.026   2.740   9.488 -0.6849  0.5146  0.5349
   52MOL0     C 6736   8.147   2.752   9.554 -0.0361  0.7152 -0.4292
   52MOL0     C 6737   8.190   2.866   9.621  0.4326  0.5231  0.7957
   52MOL0     C 6738   8.322   2.870   9.670  0.8595  0.6065 -0.0474
   52MOL0     C 6739   8.416   2.772   9.639 -0.5261  0.0656 -1.4479
   52MOL0     O 6740   8.542   2.799   9.686  0.6216  0.0162  0.0123
   52MOL0     C 6741   8.651   2.710   9.655  0.1609 -1.2323 -0.1091
   52MOL0     C 6742   8.713   2.748   9.524  0.7370  0.0076  0.0514
   52MOL0     C 6743   8.821   2.662   9.480 -0.4617 -0.4925  0.5544
   52MOL0     C 6744   8.907   2.711   9.363  0.5978 -0.5884 -0.4176
   52MOL0     C 6745   9.024   2.617   9.358  1.4091  0.0001 -0.0146
   52MOL0     C 6746   9.111   2.645   9.241 -0.6640  0.7129 -0.5348
   52MOL0     C 6747   9.189   2.777   9.266 -0.0959 -0.1663 -0.9366
   52MOL0     C 6748   9.310   2.772   9.376  1.5861 -0.0528  1.3526
   52MOL0     N 6749   9.266   2.788   9.513 -0.7231  0.1420  0.4544
   52MOL0     C 6750   9.181   2.880   9.563  1.1051 -0.3562 -0.8345
   52MOL0     C 6751   9.170   2.868   9.697  0.7119  0.1635  0.8814
   52MOL0     C 6752   9.090   2.965   9.772  0.2702 -0.2381  1.2613
   52MOL0     C 6753   9.097   3.108   9.728 -0.0494 -0.1169 -0.0110
   52MOL0     C 6754   8.995   3.190   9.820 -0.1803  0.4206  0.8212
   52MOL0     C 6755   8.972   3.325   9.759 -0.3472 -0.7982 -0.2307
   52MOL0     O 6756   9.092   3.381   9.726  0.8318 -0.9176 -0.2144
   52MOL0     C 6757   9.154   3.453   9.829 -0.3255  0.0814  0.4822
   52MOL0     C 6758   9.242   3.544   9.771  1.1306 -0.4252 -0.4581
   52MOL0     C 6759   9.307   3.633   9.856 -0.4495 -0.8159  0.2942
   52MOL0     C 6760   9.296   3.638   9.992  0.3790  0.9668  0.3279
   52MOL0     C 6761   9.361   3.745  10.068 -0.0240 -0.1544 -0.7865
   52MOL0     O 6762   9.357   3.725  10.204 -0.5278  0.0271 -0.4041
   52MOL0     C 6763   9.428   3.801  10.295  1.3060 -0.8205  0.9623
   52MOL0     C 6764   9.550   3.741  10.332  0.3366  0.8162 -0.6783
   52MOL0     C 6765   9.636   3.814  10.429  0.0565 -0.4912  0.6045
   52MOL0     C 6766   9.600   3.939  10.467 -0.7730  0.3786 -0.4499
   52MOL0     O 6767   9.681   4.008  10.556 -0.3904  0.4154  0.3163
   52MOL0     C 6768   9.821   3.979  10.576  0.6419  0.1662 -0.3877
   52MOL0     C 6769   9.848   3.900  10.698  0.8534 -0.1553  0.6548
   52MOL0     C 6770   9.997   3.877  10.735 -0.0490 -0.6188 -0.3633
   52MOL0     C 6771  10.068   3.795  10.632 -0.4168  0.7815  0.3511
   52MOL0     C 6772  10.193   3.723  10.692 -0.0647 -0.8169 -0.5522
   52MOL0     C 6773  10.302   3.832  10.739 -0.3057 -1.0033  0.7266
   52MOL0     C 6774  10.334   3.940  10.617  0.4520  0.1446  0.3816
   52MOL0     C 6775  10.465   4.008  10.627 -0.1036  0.9625 -0.7285
   52MOL0    Cl 6776  10.460   4.127  10.753 -0.6643 -0.3008 -0.7716
   52MOL0     C 6777   9.476   3.999  10.432 -0.4152 -0.2741  0.2115
   52MOL0     C 6778   9.394   3.934  10.337 -1.1104 -0.1984  0.2336
   52MOL0     O 6779   9.423   3.832  10.006  0.4985  0.1485  0.5841
   52MOL0     C 6780   9.197   3.549  10.055  1.0392 -0.2734  0.1565
   52MOL0     C 6781   9.136   3.448   9.973  0.6767  0.2295  1.6483
   52MOL0     N 6782   9.241   2.755   9.725  0.8474  0.6773 -0.6301
   52MOL0     N 6783   9.301   2.714   9.622  0.0420  0.5025 -0.5187
   52MOL0     C 6784   8.383   2.665   9.557  0.2365 -0.7137  0.4606
   52MOL0     C 6785   8.246   2.654   9.522  0.5340  0.5717 -0.2603
   52MOL0     C 6786   7.797   2.815   9.425 -0.0612  0.3755  0.0500
   52MOL0     C 6787   7.795   2.731   9.313  0.1974 -0.0465  0.0346
   52MOL0     C 6788   7.694   2.744   9.216 -0.0496  0.0847  0.3538
   52MOL0     C 6789   7.598   2.840   9.213 -0.2033  0.2432 -0.7634
   52MOL0     O 6790   7.506   2.847   9.111 -0.8010  0.0702  0.2823
   52MOL0     C 6791   7.390   2.931   9.115  0.1732 -0.2143 -1.1865
   52MOL0     C 6792   7.308   2.923   8.996 -0.2450 -0.4037  0.4149
   52MOL0     C 6793   7.369   2.983   8.865 -0.3869  0.4579 -0.3936
   52MOL0     C 6794   7.251   2.992   8.772  0.1745 -0.6641  0.4670
   52MOL0     C 6795   7.300   3.027   8.648 -0.1152  0.2669 -0.6776
   52MOL0     C 6796   7.374   3.045   8.549  0.0083  0.5540  0.9746
   52MOL0     C 6797   7.609   2.935   9.319 -0.1339  0.1692 -0.7275
   52MOL0     C 6798   7.696   2.922   9.426 -0.3685  0.5957 -0.4795
   52MOL0     H 6799   8.131   2.956   9.632 -0.6383  0.6541 -3.8898
   52MOL0     H 6800   8.348   2.962   9.722  0.6030 -0.2780  1.7030
   52MOL0     H 6801   8.615   2.607   9.663 -3.7514 -0.3105 -2.9012
   52MOL0     H 6802   8.724   2.727   9.734 -0.7796 -0.7017  0.6801
   52MOL0     H 6803   8.757   2.847   9.528  2.7030 -0.8364  3.3297
   52MOL0     H 6804   8.638   2.732   9.446  0.5826 -0.0565  0.2119
   52MOL0     H 6805   8.782   2.562   9.458 -1.2038  0.1834 -1.4500
   52MOL0     H 6806   8.878   2.651   9.573 -1.9180 -2.7635  1.2704
   52MOL0     H 6807   8.852   2.724   9.269 -0.8110  1.5307  0.6444
   52MOL0     H 6808   8.940   2.811   9.392  0.0980 -0.4833 -0.2084
   52MOL0     H 6809   8.990   2.515   9.338 -0.1757  0.4391  0.3100
   52MOL0     H 6810   9.077   2.612   9.454 -0.2500  0.8964  1.0040
   52MOL0     H 6811   9.049   2.668   9.154 -0.6937 -0.0347 -0.7173
   52MOL0     H 6812   9.177   2.561   9.216  0.6618  2.2626 -2.5248
   52MOL0     H 6813   9.220   2.828   9.174 -3.8186  4.9799  0.1417
   52MOL0     H 6814   9.111   2.851   9.289  2.5226  1.9020  2.1354
   52MOL0     H 6815   9.395   2.831   9.341  3.1149 -3.0253 -0.3443
   52MOL0     H 6816   9.370   2.681   9.364  0.2928 -0.7713  0.0258
   52MOL0     H 6817   9.124   2.954   9.508 -2.0025 -1.6441  0.4176
   52MOL0     H 6818   9.117   2.958   9.878  1.5905 -2.0353  0.8541
   52MOL0     H 6819   8.988   2.931   9.752  1.2156 -2.0068 -0.9437
   52MOL0     H 6820   9.062   3.121   9.625  1.4120  1.4816 -0.3595
   52MOL0     H 6821   9.201   3.141   9.731  0.1860 -0.7001 -1.0251
   52MOL0     H 6822   8.897   3.146   9.840 -0.8451  1.1982 -0.5101
   52MOL0     H 6823   9.046   3.215   9.913 -0.5586  1.6682  0.7126
   52MOL0     H 6824   8.912   3.381   9.832  0.3573  1.3386 -1.1931
   52MOL0     H 6825   8.908   3.324   9.670 -0.1776 -0.2738 -0.3658
   52MOL0     H 6826   9.253   3.543   9.663  2.5756  0.2822 -0.3357
   52MOL0     H 6827   9.378   3.700   9.809  1.6191 -1.9957  1.5928
   52MOL0     H 6828   9.568   3.640  10.297 -0.9446  0.1897  0.3986
   52MOL0     H 6829   9.731   3.774  10.462 -0.6729 -0.8399  2.3677
   52MOL0     H 6830   9.869   4.076  10.587  0.6821  1.0565 -5.6323
   52MOL0     H 6831   9.875   3.934  10.491  2.2301 -0.7908  1.0578
   52MOL0     H 6832   9.811   3.797  10.689  1.8979 -0.5278  0.4882
   52MOL0     H 6833   9.798   3.948  10.782 -1.4203  0.9717 -1.2321
   52MOL0     H 6834  10.013   3.835  10.835 -1.8374  0.1314  0.2928
   52MOL0     H 6835  10.049   3.973  10.744  1.0819 -0.9650 -2.5941
   52MOL0     H 6836  10.000   3.719  10.591  2.7042 -0.6694 -2.7203
   52MOL0     H 6837  10.106   3.850  10.546 -0.9975 -0.6483 -0.8712
   52MOL0     H 6838  10.244   3.650  10.628  5.2611 -0.2519  2.4592
   52MOL0     H 6839  10.160   3.663  10.777 -0.7196 -2.5560 -1.9757
   52MOL0     H 6840  10.382   3.760  10.759 -3.0121 -4.0168  1.7019
   52MOL0     H 6841  10.275   3.893  10.826 -0.4143 -0.1111  0.0696
   52MOL0     H 6842  10.343   3.879  10.527 -0.7802 -3.8956  2.7242
   52MOL0     H 6843  10.268   4.026  10.605  2.0747  1.1469 -2.2023
   52MOL0     H 6844  10.482   4.041  10.524  1.2237 -3.1810 -2.0382
   52MOL0     H 6845  10.542   3.937  10.659  0.8492  2.6090  0.7887
   52MOL0     H 6846   9.467   4.098  10.477 -1.7164 -0.6814  0.8987
   52MOL0     H 6847   9.293   3.970  10.318 -0.8722  0.0334 -0.6534
   52MOL0     H 6848   9.173   3.542  10.161  0.7018 -0.1597  0.0875
   52MOL0     H 6849   9.073   3.382  10.032  1.1282 -0.7495  1.0592
   52MOL0     H 6850   8.462   2.598   9.526  1.4584 -0.5492  3.0372
   52MOL0     H 6851   8.210   2.579   9.453  1.0532  1.3947 -1.4494
   52MOL0     H 6852   7.880   2.669   9.289  0.9532 -0.2317  2.8279
   52MOL0     H 6853   7.691   2.668   9.138  2.2530 -0.6471  0.8818
   52MOL0     H 6854   7.422   3.035   9.124 -2.2266  0.5737 -1.2291
   52MOL0     H 6855   7.331   2.900   9.201 -2.0001 -1.2206 -2.9579
   52MOL0     H 6856   7.287   2.817   8.982 -0.8345 -0.0634 -1.5800
   52MOL0     H 6857   7.215   2.976   9.017  1.0331  2.4411 -0.6352
   52MOL0     H 6858   7.438   2.905   8.830  0.2057 -2.1171  5.3877
   52MOL0     H 6859   7.428   3.074   8.880  1.2418 -0.2917 -1.8986
   52MOL0     H 6860   7.189   2.902   8.763  0.1257 -0.3710 -3.8581
   52MOL0     H 6861   7.176   3.063   8.808  1.0038  1.0728 -1.0704
   52MOL0     H 6862   7.435   3.068   8.465 -0.2854 -1.1277  0.2613
   52MOL0     H 6863   7.537   3.013   9.338  1.4583  1.3622  0.7521
   52MOL0     H 6864   7.698   3.000   9.501 -0.9673  1.1305 -1.0046
   53MOL0     O 6865   5.815   9.938   5.962  0.1008  0.6495 -0.3847
   53MOL0     C 6866   5.761   9.870   6.047  0.2756 -0.9655 -1.1083
   53MOL0     O 6867   5.700   9.919   6.163 -0.8895  0.5556 -0.0776
   53MOL0     C 6868   5.656  10.041   6.179  1.0596  0.5868 -0.3494
   53MOL0     C 6869   5.737  10.156   6.154 -0.1578 -0.5668  1.1809
   53MOL0     C 6870   5.693  10.284   6.181 -0.3878 -0.2156 -1.0839
   53MOL0     C 6871   5.563  10.308   6.238 -0.5452  1.2685  0.5385
   53MOL0     O 6872   5.521  10.436   6.249  0.3142 -0.3673 -0.1292
   53MOL0     C 6873   5.380  10.449   6.256 -0.4834  0.1445 -0.6857
   53MOL0     C 6874   5.335  10.590   6.210  0.4088 -0.0780  0.7913
   53MOL0     C 6875   5.339  10.613   6.060  0.3530 -0.3112  0.7522
   53MOL0     C 6876   5.310  10.755   6.025  0.0408  0.3304  0.0279
   53MOL0     C 6877   5.295  10.783   5.875 -0.4688 -0.0006 -0.4600
   53MOL0     C 6878   5.322  10.930   5.838  1.0379  0.3543 -0.2091
   53MOL0     C 6879   5.319  10.927   5.686  0.7480 -0.4834  0.3791
   53MOL0     C 6880   5.393  11.042   5.626  0.6296 -0.4784 -0.8101
   53MOL0     N 6881   5.538  11.018   5.594  0.4266  0.5766 -0.5742
   53MOL0     C 6882   5.616  11.111   5.531  0.1039  0.1970  0.5613
   53MOL0     C 6883   5.749  11.070   5.544  0.5275 -0.0296  0.5296
   53MOL0     C 6884   5.878  11.134   5.508  0.6152 -0.7549 -0.0348
   53MOL0     C 6885   5.951  11.065   5.403 -0.0579 -0.0768 -0.1485
   53MOL0     C 6886   5.897  11.114   5.273 -0.0527 -0.1594 -0.0669
   53MOL0     C 6887   6.001  11.078   5.165  0.2754 -0.2096 -0.3707
   53MOL0     O 6888   5.943  11.075   5.037 -0.1505 -0.1344 -0.5208
   53MOL0     C 6889   5.998  11.157   4.933  0.7591  0.6373 -0.6216
   53MOL0     C 6890   5.915  11.239   4.876 -0.4436  0.7133  0.0653
   53MOL0     C 6891   5.953  11.307   4.755 -0.0835  0.4095 -0.4087
   53MOL0     C 6892   6.089  11.292   4.710 -0.2184 -0.4622 -1.4714
   53MOL0     C 6893   6.136  11.367   4.590  0.4066  0.8172 -0.7595
   53MOL0     O 6894   6.047  11.397   4.496 -0.1737 -0.7588  0.2301
   53MOL0     C 6895   6.095  11.467   4.391 -0.0666 -0.7244  0.2465
   53MOL0     C 6896   6.149  11.402   4.281 -1.1207  0.7375 -0.7346
   53MOL0     C 6897   6.195  11.469   4.168  0.1679  0.2633 -0.2630
   53MOL0     C 6898   6.203  11.614   4.169 -1.2012  0.5931 -0.3006
   53MOL0     O 6899   6.239  11.698   4.066  0.4749 -0.4338 -0.0529
   53MOL0     C 6900   6.343  11.648   3.974 -0.2767 -0.0417  0.3112
   53MOL0     C 6901   6.360  11.754   3.859  0.1261 -0.3878  0.1789
   53MOL0     C 6902   6.460  11.695   3.754  0.4768  0.5073  0.6355
   53MOL0     C 6903   6.450  11.779   3.628  0.8062  0.2810  0.1447
   53MOL0     C 6904   6.556  11.741   3.517 -0.9020  0.5353  0.4036
   53MOL0     C 6905   6.569  11.589   3.489  0.3154  0.1951 -0.3060
   53MOL0     C 6906   6.642  11.564   3.359  0.3186  0.4881 -0.1311
   53MOL0     C 6907   6.710  11.433   3.346  0.0288  0.3739  1.0320
   53MOL0    Cl 6908   6.813  11.371   3.467 -0.4054  0.1846 -0.4192
   53MOL0     C 6909   6.137  11.677   4.277 -0.3218 -0.4010  0.0592
   53MOL0     C 6910   6.088  11.608   4.389 -0.7105 -0.1482  0.4987
   53MOL0     O 6911   6.255  11.390   4.589 -0.8004  0.1494 -0.2013
   53MOL0     C 6912   6.180  11.221   4.795 -0.6213 -0.2325  0.0419
   53MOL0     C 6913   6.132  11.136   4.896 -0.5920 -0.0621  0.3547
   53MOL0     N 6914   5.739  10.960   5.634 -0.4700  1.0497 -0.2304
   53MOL0     N 6915   5.619  10.931   5.658  0.9715 -0.2978  0.1140
   53MOL0     C 6916   5.490  10.192   6.279  0.3417 -1.1346  0.2599
   53MOL0     C 6917   5.536  10.059   6.247 -1.3630 -0.3160 -1.1194
   53MOL0     C 6918   5.754   9.728   6.030  0.4145 -0.4070  0.2907
   53MOL0     C 6919   5.773   9.666   5.904 -0.1132 -0.6651  0.0460
   53MOL0     C 6920   5.762   9.530   5.879 -0.5152 -0.3423 -0.0704
   53MOL0     C 6921   5.744   9.449   5.992  0.4630  0.3654 -0.1155
   53MOL0     O 6922   5.731   9.311   5.972  0.1221 -0.0511 -0.5251
   53MOL0     C 6923   5.767   9.232   6.085 -0.6817  0.6589 -0.2794
   53MOL0     C 6924   5.905   9.247   6.127 -0.3996 -0.4031 -0.6281
   53MOL0     C 6925   5.929   9.135   6.222  0.1763  0.0607 -0.7916
   53MOL0     C 6926   6.071   9.154   6.276  0.2811 -1.0188  0.3590
   53MOL0     C 6927   6.101   9.053   6.369  0.3811  0.4847  0.4180
   53MOL0     C 6928   6.106   8.964   6.452  0.2243  1.1850  0.9962
   53MOL0     C 6929   5.733   9.506   6.121 -0.1324  0.7610 -0.0900
   53MOL0     C 6930   5.737   9.646   6.146  0.2860  0.1243  0.4712
   53MOL0     H 6931   5.835  10.136   6.112  1.1150 -0.7768  4.0520
   53MOL0     H 6932   5.749  10.375   6.165 -1.7835  0.4763 -2.2762
   53MOL0     H 6933   5.354  10.442   6.362  0.3152  0.6483 -0.4526
   53MOL0     H 6934   5.333  10.378   6.187  0.6566 -0.1437 -1.1959
   53MOL0     H 6935   5.405  10.662   6.252  2.2504 -1.5231  0.3470
   53MOL0     H 6936   5.238  10.614   6.254 -0.9195  1.7336 -2.7300
   53MOL0     H 6937   5.257  10.556   6.017 -0.9605  1.0058  1.3905
   53MOL0     H 6938   5.424  10.578   6.002 -0.7942 -0.3018 -1.0111
   53MOL0     H 6939   5.218  10.790   6.073 -0.4419  0.1747 -0.7601
   53MOL0     H 6940   5.391  10.822   6.055  0.2357 -0.6114  1.7221
   53MOL0     H 6941   5.191  10.759   5.851 -0.3225 -3.9606  1.9404
   53MOL0     H 6942   5.359  10.715   5.818 -1.7860 -1.7267  0.0509
   53MOL0     H 6943   5.420  10.953   5.881  0.3127 -0.1340  1.8077
   53MOL0     H 6944   5.258  11.014   5.865 -1.5428 -1.2398 -1.0598
   53MOL0     H 6945   5.364  10.834   5.648 -1.4935 -0.6778 -2.0537
   53MOL0     H 6946   5.215  10.920   5.653  0.7806  1.2122 -0.1753
   53MOL0     H 6947   5.396  11.139   5.676 -0.6635 -1.0408  0.4310
   53MOL0     H 6948   5.341  11.072   5.535 -0.2705 -5.1531 -2.1228
   53MOL0     H 6949   5.586  11.204   5.485  1.3860  1.7813  2.6987
   53MOL0     H 6950   5.947  11.150   5.591  0.8956  4.8283 -0.9874
   53MOL0     H 6951   5.852  11.235   5.476 -1.1423 -2.2642 -4.0540
   53MOL0     H 6952   5.937  10.957   5.413 -6.3397  0.5622  3.6689
   53MOL0     H 6953   6.057  11.089   5.407  0.7908 -3.4754  0.7676
   53MOL0     H 6954   5.797  11.075   5.253 -0.1294 -0.1587  0.3082
   53MOL0     H 6955   5.896  11.223   5.276  4.7472  0.1434 -0.7651
   53MOL0     H 6956   6.024  10.973   5.184 -1.2971 -0.8283 -1.6341
   53MOL0     H 6957   6.088  11.143   5.177 -1.0498  1.0975  3.9686
   53MOL0     H 6958   5.808  11.244   4.894 -0.5064 -1.7119  0.6991
   53MOL0     H 6959   5.884  11.373   4.704  0.2004  0.5849 -0.5730
   53MOL0     H 6960   6.162  11.296   4.303  2.8444  0.8994 -1.4243
   53MOL0     H 6961   6.235  11.406   4.090 -1.8081 -0.4121 -0.7972
   53MOL0     H 6962   6.318  11.547   3.941  2.1980 -0.9057  0.8406
   53MOL0     H 6963   6.436  11.647   4.033 -0.5045 -0.6367  0.6675
   53MOL0     H 6964   6.404  11.851   3.884 -1.9639  0.3280  1.3249
   53MOL0     H 6965   6.265  11.778   3.809 -0.2401 -0.9827  0.5782
   53MOL0     H 6966   6.443  11.590   3.729 -3.3499  1.4334 -1.5203
   53MOL0     H 6967   6.564  11.709   3.786 -0.0309  0.1190  2.6269
   53MOL0     H 6968   6.349  11.768   3.587  0.4381  2.0896  0.5017
   53MOL0     H 6969   6.452  11.884   3.658 -2.1113  0.0485  1.4616
   53MOL0     H 6970   6.657  11.779   3.533 -1.5405  1.6843  1.8637
   53MOL0     H 6971   6.522  11.793   3.427 -0.8392  0.1023  0.1251
   53MOL0     H 6972   6.471  11.540   3.494 -0.5546  1.8019  4.9186
   53MOL0     H 6973   6.635  11.552   3.568  0.3344 -2.3370 -1.4147
   53MOL0     H 6974   6.570  11.575   3.277  0.8078  1.1459 -0.4805
   53MOL0     H 6975   6.718  11.642   3.355  0.5823  0.2590  0.3524
   53MOL0     H 6976   6.767  11.445   3.253 -2.3149 -0.9362 -0.7051
   53MOL0     H 6977   6.629  11.360   3.336  3.5685 -3.6881 -2.9664
   53MOL0     H 6978   6.134  11.785   4.285 -4.5807 -0.3981  0.6574
   53MOL0     H 6979   6.033  11.661   4.467 -1.3451 -1.0719  0.7007
   53MOL0     H 6980   6.283  11.217   4.761 -1.3436 -0.4259 -2.3139
   53MOL0     H 6981   6.200  11.081   4.960  0.0524  0.3415  0.0216
   53MOL0     H 6982   5.390  10.194   6.321 -0.7763  2.0235 -2.1422
   53MOL0     H 6983   5.476   9.975   6.282 -1.2221  0.3196  0.7155
   53MOL0     H 6984   5.800   9.732   5.822 -1.0231 -0.6010 -0.2152
   53MOL0     H 6985   5.774   9.477   5.785  1.2127 -1.7036  0.8529
   53MOL0     H 6986   5.753   9.130   6.047  1.5519 -0.1726  0.9409
   53MOL0     H 6987   5.699   9.251   6.168  1.6161  0.5253  1.7438
   53MOL0     H 6988   5.971   9.233   6.040  0.4760 -0.1296 -0.0175
   53MOL0     H 6989   5.919   9.335   6.189  1.6902 -1.7272  0.9510
   53MOL0     H 6990   5.927   9.044   6.161 -0.7853 -1.2543  1.0726
   53MOL0     H 6991   5.841   9.134   6.288  1.4308  0.9916  0.9728
   53MOL0     H 6992   6.140   9.151   6.191  1.5679  3.2625  0.9912
   53MOL0     H 6993   6.065   9.253   6.323  3.3061  1.1265 -3.1551
   53MOL0     H 6994   6.127   8.884   6.520  0.6256  3.5431  3.8651
   53MOL0     H 6995   5.722   9.463   6.220  0.3257  3.9385  1.4814
   53MOL0     H 6996   5.709   9.662   6.250 -0.7423 -1.4448  0.4637
   54MOL0     O 6997   9.178   9.540   8.726  0.0495 -0.0789 -0.2291
   54MOL0     C 6998   9.060   9.543   8.700 -0.0639 -0.5391  0.3842
   54MOL0     O 6999   8.987   9.429   8.689  0.5946 -0.1520  0.2776
   54MOL0     C 7000   9.059   9.313   8.673 -0.4184 -0.1948  0.3980
   54MOL0     C 7001   9.055   9.219   8.780  0.6966 -0.0443  0.1997
   54MOL0     C 7002   9.121   9.098   8.768  0.5373  0.2119  0.1621
   54MOL0     C 7003   9.195   9.069   8.659  0.0993 -0.1611  0.1999
   54MOL0     O 7004   9.260   8.947   8.662 -0.6040  0.0651 -0.7939
   54MOL0     C 7005   9.256   8.866   8.544  0.1143  0.9019  0.4231
   54MOL0     C 7006   9.328   8.722   8.555  0.3433 -0.1344 -0.3551
   54MOL0     C 7007   9.269   8.628   8.452 -0.4376 -1.7328 -0.1837
   54MOL0     C 7008   9.341   8.494   8.435  0.2055 -0.1678 -0.5664
   54MOL0     C 7009   9.500   8.507   8.412  0.1522  0.3746 -0.9140
   54MOL0     C 7010   9.567   8.372   8.366 -0.7682 -1.0481  0.0592
   54MOL0     C 7011   9.720   8.399   8.333 -0.3102 -0.3388 -0.0713
   54MOL0     C 7012   9.813   8.354   8.441 -0.2052 -0.1706 -0.6895
   54MOL0     N 7013   9.944   8.388   8.396  0.5014 -0.9955  0.5061
   54MOL0     C 7014  10.019   8.320   8.310 -0.2932 -0.1848 -0.6066
   54MOL0     C 7015  10.138   8.381   8.313  0.2388 -0.5175  0.9545
   54MOL0     C 7016  10.263   8.311   8.253  0.5707  0.7744 -0.0544
   54MOL0     C 7017  10.283   8.386   8.119 -0.3889  0.1770  0.4815
   54MOL0     C 7018  10.411   8.348   8.050 -0.4436  0.4330  0.2758
   54MOL0     C 7019  10.531   8.394   8.114  0.9865 -0.1355 -0.6114
   54MOL0     O 7020  10.556   8.296   8.216 -0.2043  0.0878  0.1530
   54MOL0     C 7021  10.684   8.240   8.199 -0.0427 -0.4146  0.3312
   54MOL0     C 7022  10.779   8.258   8.301  0.3401 -0.0357  0.2224
   54MOL0     C 7023  10.906   8.199   8.294  0.1663  0.3749 -0.0148
   54MOL0     C 7024  10.937   8.120   8.174 -1.0562 -0.0287  0.3100
   54MOL0     C 7025  11.053   8.026   8.157 -0.6278 -0.0172  1.1937
   54MOL0     O 7026  11.141   8.031   8.265  0.1658 -0.2320  0.5480
   54MOL0     C 7027  11.249   7.951   8.261 -0.8896 -0.3079  1.3251
   54MOL0     C 7028  11.242   7.818   8.310 -0.3760  1.5099 -0.3464
   54MOL0     C 7029  11.363   7.743   8.322 -0.2397 -0.7656  1.2056
   54MOL0     C 7030  11.483   7.803   8.289 -0.9291  0.4075  0.8325
   54MOL0     O 7031  11.598   7.726   8.277  0.1375  0.3955 -0.4103
   54MOL0     C 7032  11.652   7.674   8.397 -0.2958  0.6272 -0.6968
   54MOL0     C 7033  11.791   7.620   8.360  0.8349 -0.7267 -0.1925
   54MOL0     C 7034  11.794   7.464   8.341 -0.5630  0.2209 -0.6911
   54MOL0     C 7035  11.942   7.416   8.310 -0.1994  0.5829 -0.1625
   54MOL0     C 7036  12.051   7.456   8.408 -0.3169  0.2363 -0.0766
   54MOL0     C 7037  12.178   7.379   8.372 -0.3212 -0.9918  0.3333
   54MOL0     C 7038  12.247   7.444   8.244  0.5769 -0.0801  1.1536
   54MOL0     C 7039  12.356   7.351   8.180 -0.3835  0.1630 -0.0917
   54MOL0    Cl 7040  12.299   7.204   8.078 -0.5995  0.0579 -0.0109
   54MOL0     C 7041  11.484   7.935   8.260  0.5090 -0.3376 -0.6064
   54MOL0     C 7042  11.366   8.015   8.249 -1.0502  0.1068 -0.5618
   54MOL0     O 7043  11.064   7.957   8.056 -0.5895 -1.4746  0.3279
   54MOL0     C 7044  10.842   8.108   8.075 -0.4710  0.6043 -0.5824
   54MOL0     C 7045  10.722   8.169   8.089  0.0985 -0.1462 -0.5911
   54MOL0     N 7046  10.134   8.488   8.401  1.2198  0.0122 -0.4619
   54MOL0     N 7047  10.010   8.508   8.444 -1.4657  0.1083 -0.2936
   54MOL0     C 7048   9.192   9.151   8.549 -0.3401 -1.0802 -0.1803
   54MOL0     C 7049   9.123   9.277   8.558 -0.8720 -0.0865  0.9651
   54MOL0     C 7050   8.987   9.666   8.672 -0.7151  0.8717 -0.8386
   54MOL0     C 7051   8.852   9.672   8.698 -0.1885 -0.1856  0.8380
   54MOL0     C 7052   8.784   9.794   8.701 -0.1751 -0.3476 -0.1630
   54MOL0     C 7053   8.846   9.908   8.646 -1.3165  0.0817 -1.7292
   54MOL0     O 7054   8.783  10.035   8.638  0.2758  0.4618 -0.6585
   54MOL0     C 7055   8.671  10.053   8.550 -0.1583  0.4255  0.8661
   54MOL0     C 7056   8.709  10.078   8.400 -0.4213  0.5661  0.0679
   54MOL0     C 7057   8.713   9.941   8.327 -0.0452  0.6759 -0.2881
   54MOL0     C 7058   8.695   9.942   8.174  0.0809  0.4324 -0.0290
   54MOL0     C 7059   8.554   9.960   8.136  0.2185 -0.6141  0.1792
   54MOL0     C 7060   8.437   9.983   8.124 -0.5683 -0.5833  0.1081
   54MOL0     C 7061   8.979   9.896   8.613  0.0741 -0.4911  0.6666
   54MOL0     C 7062   9.052   9.781   8.630 -0.8375 -0.9951 -0.2487
   54MOL0     H 7063   8.992   9.227   8.867 -0.1437 -3.3900  0.0181
   54MOL0     H 7064   9.116   9.026   8.849  1.5163  0.5171  0.5069
   54MOL0     H 7065   9.304   8.918   8.461  0.8316  2.4560  1.7394
   54MOL0     H 7066   9.154   8.847   8.511 -0.2918  1.1160  1.5147
   54MOL0     H 7067   9.304   8.686   8.656  2.5387 -2.0098 -0.4192
   54MOL0     H 7068   9.437   8.735   8.557  0.2381  1.1170  2.2192
   54MOL0     H 7069   9.252   8.678   8.357  2.3512 -2.1500 -0.9890
   54MOL0     H 7070   9.168   8.603   8.486  0.9543 -2.4265  3.9786
   54MOL0     H 7071   9.328   8.429   8.522  0.0227  1.3135  0.5323
   54MOL0     H 7072   9.300   8.456   8.340 -2.1947 -1.7487  0.9936
   54MOL0     H 7073   9.546   8.546   8.503 -1.7588 -3.2871  1.8965
   54MOL0     H 7074   9.520   8.580   8.332  1.1669 -0.4652 -1.4519
   54MOL0     H 7075   9.516   8.334   8.277 -0.0809 -0.4007 -0.6311
   54MOL0     H 7076   9.554   8.304   8.450  0.5848 -1.5883 -0.1452
   54MOL0     H 7077   9.738   8.354   8.235 -0.7600  3.8852 -2.3314
   54MOL0     H 7078   9.739   8.504   8.308  0.8807 -1.1311 -2.8692
   54MOL0     H 7079   9.809   8.246   8.459  0.3518 -0.0769  0.0705
   54MOL0     H 7080   9.785   8.395   8.538 -0.3717  1.2064 -1.3027
   54MOL0     H 7081   9.988   8.228   8.263 -4.1667  0.2050  0.8191
   54MOL0     H 7082  10.258   8.203   8.241  2.8271  0.8780 -3.1146
   54MOL0     H 7083  10.347   8.314   8.324 -1.1841 -0.1743  2.1720
   54MOL0     H 7084  10.270   8.495   8.125  2.4067  0.8467 -2.7001
   54MOL0     H 7085  10.203   8.356   8.051 -0.5799  0.9920  0.3307
   54MOL0     H 7086  10.415   8.242   8.028 -0.9981  0.6754 -1.0511
   54MOL0     H 7087  10.399   8.403   7.956 -2.8495 -0.5100 -0.0289
   54MOL0     H 7088  10.516   8.488   8.167  2.6451 -0.6735  0.9250
   54MOL0     H 7089  10.610   8.401   8.038 -0.3859 -0.7608 -2.1510
   54MOL0     H 7090  10.754   8.302   8.396  3.1673 -1.7604  1.8985
   54MOL0     H 7091  10.963   8.192   8.386 -1.5370 -3.4460  0.9746
   54MOL0     H 7092  11.148   7.765   8.326 -0.0117  1.5281  2.4957
   54MOL0     H 7093  11.372   7.637   8.344  1.9131 -1.5006 -2.2707
   54MOL0     H 7094  11.583   7.599   8.436  0.5224  1.0179  1.6488
   54MOL0     H 7095  11.664   7.749   8.475  2.6519 -0.5231  0.1036
   54MOL0     H 7096  11.849   7.653   8.447 -1.0785  0.9480  0.5095
   54MOL0     H 7097  11.826   7.682   8.277 -1.5154  2.6875  1.1591
   54MOL0     H 7098  11.731   7.426   8.260 -4.8841  0.9856  1.9717
   54MOL0     H 7099  11.753   7.413   8.429  1.9681 -1.0767 -0.1620
   54MOL0     H 7100  11.938   7.309   8.291 -1.0104  0.3635  1.1511
   54MOL0     H 7101  11.960   7.459   8.211 -1.9943 -1.4879 -1.4511
   54MOL0     H 7102  12.020   7.424   8.508 -1.6712  3.2537  0.5694
   54MOL0     H 7103  12.070   7.564   8.408 -1.1288  0.3838 -0.7936
   54MOL0     H 7104  12.156   7.276   8.344  1.3219 -0.7571 -2.2126
   54MOL0     H 7105  12.248   7.374   8.455 -1.8367  0.4806  1.7817
   54MOL0     H 7106  12.168   7.452   8.169  0.3390 -3.5052  0.8828
   54MOL0     H 7107  12.289   7.543   8.267  0.6721 -0.5120  2.9028
   54MOL0     H 7108  12.411   7.313   8.266  1.6732  1.6812 -0.6528
   54MOL0     H 7109  12.418   7.416   8.118  3.4336  0.7438  3.8349
   54MOL0     H 7110  11.585   7.970   8.243  1.2636 -2.5594 -1.0333
   54MOL0     H 7111  11.367   8.120   8.221  0.3837  0.3010  0.1098
   54MOL0     H 7112  10.853   8.058   7.979  1.3221 -1.6929  0.7185
   54MOL0     H 7113  10.647   8.175   8.011 -1.6310  3.3959  1.1098
   54MOL0     H 7114   9.257   9.123   8.467  2.6106 -0.6465  1.8699
   54MOL0     H 7115   9.117   9.338   8.468  0.8837 -2.9844 -1.3030
   54MOL0     H 7116   8.789   9.588   8.723 -3.0304  1.7055  0.4044
   54MOL0     H 7117   8.683   9.793   8.742  0.3539 -1.2787  1.2110
   54MOL0     H 7118   8.599  10.132   8.575 -2.1138 -1.1388  0.4253
   54MOL0     H 7119   8.596   9.974   8.560 -2.1680  1.5248 -3.1396
   54MOL0     H 7120   8.634  10.136   8.345 -0.5872  1.3421  1.0744
   54MOL0     H 7121   8.801  10.136   8.396  0.1165 -0.3121 -2.8888
   54MOL0     H 7122   8.637   9.875   8.370  1.8733 -0.8361  0.9731
   54MOL0     H 7123   8.813   9.901   8.344 -0.6692 -0.5739  0.5654
   54MOL0     H 7124   8.761  10.014   8.123  0.2277  0.7891  0.6563
   54MOL0     H 7125   8.734   9.852   8.126  0.7791  0.3827  0.6177
   54MOL0     H 7126   8.336  10.009   8.098 -0.1315 -1.0872 -2.3650
   54MOL0     H 7127   9.043   9.980   8.588  0.4389 -1.0749 -0.4430
   54MOL0     H 7128   9.156   9.780   8.601 -1.3187 -1.0461 -2.1428
   55MOL0     O 7129   8.516   3.970   2.497  0.5456  0.1312  0.5301
   55MOL0     C 7130   8.610   3.924   2.565  0.4520 -0.4748 -0.4076
   55MOL0     O 7131   8.603   3.921   2.701  0.9826  1.1289  0.0765
   55MOL0     C 7132   8.522   4.005   2.782 -0.1793 -0.2002 -0.4054
   55MOL0     C 7133   8.450   4.115   2.730  1.4746  0.8547 -0.3871
   55MOL0     C 7134   8.356   4.175   2.814 -1.0393 -0.0974 -0.1044
   55MOL0     C 7135   8.329   4.131   2.946 -0.3385 -0.4323  0.7116
   55MOL0     O 7136   8.245   4.192   3.026  0.1918  0.6076 -0.4416
   55MOL0     C 7137   8.145   4.283   2.980  1.0006  1.0046  0.6915
   55MOL0     C 7138   8.023   4.277   3.069 -1.0144 -0.4994 -0.2489
   55MOL0     C 7139   7.898   4.343   2.995  0.2699  0.0921 -0.7326
   55MOL0     C 7140   7.762   4.322   3.070  0.7320 -0.2519  0.4388
   55MOL0     C 7141   7.744   4.431   3.176  0.5180  0.6849  1.1366
   55MOL0     C 7142   7.610   4.427   3.246 -0.2243  0.3232 -0.0175
   55MOL0     C 7143   7.624   4.523   3.365 -1.2274  0.1762  0.4812
   55MOL0     C 7144   7.514   4.502   3.466 -0.0564 -0.5475  0.2323
   55MOL0     N 7145   7.494   4.626   3.533  0.8869  0.0914 -0.3980
   55MOL0     C 7146   7.582   4.682   3.620 -0.3123 -0.0187  0.3281
   55MOL0     C 7147   7.512   4.780   3.677 -0.5185 -0.1671  0.3313
   55MOL0     C 7148   7.568   4.880   3.768 -0.4288  0.7708 -0.5729
   55MOL0     C 7149   7.459   4.979   3.812 -0.2115 -0.4239 -0.3186
   55MOL0     C 7150   7.497   5.075   3.924  0.1821  0.4096 -0.3430
   55MOL0     C 7151   7.601   5.175   3.891 -0.3615  0.0481 -0.2146
   55MOL0     O 7152   7.737   5.143   3.926  0.8106 -0.4686  0.1123
   55MOL0     C 7153   7.783   5.185   4.046  0.3878  0.0875 -0.6095
   55MOL0     C 7154   7.922   5.193   4.059  0.4447 -0.4239  0.7642
   55MOL0     C 7155   7.975   5.243   4.174  0.6638  1.1752  0.3076
   55MOL0     C 7156   7.898   5.284   4.285  0.2692 -0.7708  0.2627
   55MOL0     C 7157   7.967   5.345   4.397 -0.7427  0.7965  0.1538
   55MOL0     O 7158   7.914   5.333   4.521  0.2551 -0.0311  0.2335
   55MOL0     C 7159   7.975   5.404   4.619  0.0838  1.0210 -0.4718
   55MOL0     C 7160   7.982   5.546   4.629 -0.9563 -0.0132  1.0824
   55MOL0     C 7161   8.040   5.605   4.742 -0.7776  0.5695  0.2296
   55MOL0     C 7162   8.085   5.526   4.848  0.2684  0.6441  0.4675
   55MOL0     O 7163   8.141   5.599   4.944  0.0549  0.3226 -0.3098
   55MOL0     C 7164   8.231   5.540   5.041  0.0267  0.3014  1.0257
   55MOL0     C 7165   8.262   5.633   5.151  0.5977 -0.0778 -0.4047
   55MOL0     C 7166   8.291   5.780   5.111 -0.0061  0.5034 -0.0923
   55MOL0     C 7167   8.337   5.860   5.234 -0.2710 -0.0617  0.6273
   55MOL0     C 7168   8.335   6.003   5.205 -0.8451 -0.2208 -0.2300
   55MOL0     C 7169   8.353   6.087   5.332 -0.3998  0.0341  0.8278
   55MOL0     C 7170   8.368   6.231   5.293  0.2279  0.7549 -0.3903
   55MOL0     C 7171   8.457   6.303   5.399 -0.7528  0.5458  1.0453
   55MOL0    Cl 7172   8.390   6.287   5.554 -0.0689  0.0946  0.2177
   55MOL0     C 7173   8.079   5.381   4.840 -0.4084  0.1456 -0.0494
   55MOL0     C 7174   8.011   5.327   4.732 -0.4881 -0.6778  0.1428
   55MOL0     O 7175   8.078   5.398   4.373  0.3263  0.2846  0.5645
   55MOL0     C 7176   7.760   5.254   4.277 -0.5876 -0.6453 -0.5355
   55MOL0     C 7177   7.702   5.204   4.161 -0.1189  1.0136  0.2181
   55MOL0     N 7178   7.384   4.778   3.627  0.7370  0.5630  0.3746
   55MOL0     N 7179   7.371   4.687   3.537  0.3516  0.6626 -0.7813
   55MOL0     C 7180   8.396   4.022   2.996 -0.7309 -0.3896 -0.1342
   55MOL0     C 7181   8.504   3.966   2.914  0.7028 -0.4555  0.4357
   55MOL0     C 7182   8.726   3.860   2.509 -0.5005 -0.0928  0.1236
   55MOL0     C 7183   8.752   3.875   2.369  0.7080  0.1458  0.2037
   55MOL0     C 7184   8.878   3.839   2.320  0.1368 -0.7471 -1.1248
   55MOL0     C 7185   8.982   3.801   2.398 -0.5017 -0.2878 -0.0136
   55MOL0     O 7186   9.111   3.786   2.337  0.3470 -0.4291  0.1022
   55MOL0     C 7187   9.225   3.847   2.401 -0.1139 -1.4228  0.6944
   55MOL0     C 7188   9.185   3.995   2.435 -0.2012  0.6727  0.6069
   55MOL0     C 7189   9.305   4.087   2.454 -0.9307  0.1997 -0.4766
   55MOL0     C 7190   9.280   4.221   2.376 -0.0563  0.0714 -0.1028
   55MOL0     C 7191   9.392   4.315   2.391 -0.1797  0.1129 -1.1044
   55MOL0     C 7192   9.488   4.373   2.425  0.9354 -0.2212 -0.3555
   55MOL0     C 7193   8.953   3.773   2.530 -0.2160 -0.1356  0.3373
   55MOL0     C 7194   8.828   3.810   2.589 -0.6084  0.9413 -1.1012
   55MOL0     H 7195   8.469   4.149   2.629 -4.7463 -1.3427 -2.7774
   55MOL0     H 7196   8.305   4.261   2.771  1.9005  1.5351 -0.5814
   55MOL0     H 7197   8.105   4.237   2.889  4.0364  0.0940 -0.3181
   55MOL0     H 7198   8.169   4.387   2.955 -2.0227  1.9538  1.3215
   55MOL0     H 7199   8.049   4.337   3.157  3.4452  2.6385 -3.2311
   55MOL0     H 7200   7.994   4.173   3.088  0.9571 -0.8929  0.8897
   55MOL0     H 7201   7.886   4.290   2.901  0.3880  1.3550 -1.4889
   55MOL0     H 7202   7.911   4.446   2.958  1.1629 -0.0925 -0.9596
   55MOL0     H 7203   7.681   4.338   2.999  0.8091  1.6932  0.7087
   55MOL0     H 7204   7.742   4.219   3.099 -0.6925 -0.4876 -1.2190
   55MOL0     H 7205   7.747   4.522   3.116 -0.1362  0.8472  1.3405
   55MOL0     H 7206   7.830   4.431   3.245  1.6286 -0.1683 -0.1942
   55MOL0     H 7207   7.588   4.323   3.274 -2.2927  0.3066 -1.4578
   55MOL0     H 7208   7.537   4.469   3.176  0.2770  0.5307 -0.4200
   55MOL0     H 7209   7.725   4.500   3.399  0.0825  0.0565 -3.0411
   55MOL0     H 7210   7.627   4.623   3.319  2.1510 -1.3786 -3.2558
   55MOL0     H 7211   7.531   4.423   3.540 -1.2176  0.4233  1.5959
   55MOL0     H 7212   7.420   4.472   3.420 -1.2119  1.1742  1.3626
   55MOL0     H 7213   7.685   4.650   3.628 -0.2480  0.2977  0.8114
   55MOL0     H 7214   7.639   4.948   3.720 -1.5048  1.3070 -1.4366
   55MOL0     H 7215   7.619   4.828   3.849 -0.2327 -0.8531 -1.6861
   55MOL0     H 7216   7.380   4.914   3.850 -0.8845 -0.4597 -1.7072
   55MOL0     H 7217   7.426   5.033   3.723  2.6566 -0.3132 -1.4240
   55MOL0     H 7218   7.403   5.122   3.954 -0.1545 -1.2910  1.4722
   55MOL0     H 7219   7.520   5.013   4.011 -0.6168  0.1172 -0.3363
   55MOL0     H 7220   7.570   5.271   3.932 -2.8294  0.3331 -2.4172
   55MOL0     H 7221   7.604   5.186   3.782  0.4611 -1.5069 -0.3776
   55MOL0     H 7222   7.977   5.163   3.970 -1.8649 -3.1904  0.1239
   55MOL0     H 7223   8.083   5.257   4.184  1.0363 -1.4934  0.7883
   55MOL0     H 7224   7.936   5.593   4.543 -0.2870 -3.9296 -1.6889
   55MOL0     H 7225   8.037   5.713   4.741  0.4728  0.6254  0.5527
   55MOL0     H 7226   8.324   5.512   4.991 -1.5859  3.0509 -4.3313
   55MOL0     H 7227   8.173   5.458   5.086 -2.6415 -0.3537 -3.0047
   55MOL0     H 7228   8.343   5.578   5.199  1.6606 -1.9891 -4.0104
   55MOL0     H 7229   8.181   5.633   5.224  0.8410  0.0456 -0.1352
   55MOL0     H 7230   8.205   5.821   5.056 -2.5589  0.8405  3.7834
   55MOL0     H 7231   8.373   5.774   5.038 -0.2378 -0.4924 -0.2819
   55MOL0     H 7232   8.289   5.847   5.331  3.6059  3.2098  3.2593
   55MOL0     H 7233   8.437   5.823   5.259 -0.0014 -1.2566 -1.8337
   55MOL0     H 7234   8.241   6.036   5.159  0.6167  2.2500 -1.6471
   55MOL0     H 7235   8.409   6.018   5.126  0.9345 -2.6143  0.8349
   55MOL0     H 7236   8.434   6.049   5.396  0.4288 -0.0386 -0.2470
   55MOL0     H 7237   8.266   6.071   5.397 -0.4695  3.2103  1.6545
   55MOL0     H 7238   8.418   6.243   5.197  1.8361 -2.6700 -0.1588
   55MOL0     H 7239   8.268   6.275   5.294 -0.4493 -0.6600  1.1688
   55MOL0     H 7240   8.462   6.409   5.374 -1.8485  0.2588 -0.5109
   55MOL0     H 7241   8.552   6.248   5.397 -0.0858  1.4304  3.6448
   55MOL0     H 7242   8.127   5.314   4.911  1.4715  1.4647 -0.0283
   55MOL0     H 7243   8.007   5.218   4.728 -0.9485 -0.6439 -1.7137
   55MOL0     H 7244   7.685   5.282   4.351 -2.4888 -1.4653 -2.0664
   55MOL0     H 7245   7.596   5.178   4.161  0.4730 -1.7144 -0.3364
   55MOL0     H 7246   8.385   3.989   3.099 -0.7739 -0.8324 -0.2797
   55MOL0     H 7247   8.556   3.875   2.941  0.6727 -0.8662 -0.8203
   55MOL0     H 7248   8.677   3.887   2.290  1.6194  1.1030 -0.5398
   55MOL0     H 7249   8.887   3.845   2.212  0.9706 -2.3539 -1.1727
   55MOL0     H 7250   9.312   3.848   2.334 -1.0201 -0.6246 -0.5093
   55MOL0     H 7251   9.249   3.783   2.486  1.3173 -1.5859  0.2030
   55MOL0     H 7252   9.115   4.032   2.359  0.3547  2.8194  1.0653
   55MOL0     H 7253   9.133   3.990   2.531  0.2618  0.6486  0.8576
   55MOL0     H 7254   9.393   4.044   2.407 -1.7294  0.4046 -2.2299
   55MOL0     H 7255   9.319   4.105   2.561 -0.7633  1.7109 -0.7266
   55MOL0     H 7256   9.264   4.187   2.273  1.6337  2.7450 -1.3715
   55MOL0     H 7257   9.192   4.272   2.417  1.0433  0.2141  2.2130
   55MOL0     H 7258   9.577   4.430   2.444 -0.6805  1.2110  3.9968
   55MOL0     H 7259   9.043   3.736   2.579  2.9873  5.5199 -0.4362
   55MOL0     H 7260   8.812   3.802   2.696 -0.2597 -1.3471 -1.1608
   56MOL0     O 7261   9.050   6.205  10.818 -0.3995  0.4697 -0.1661
   56MOL0     C 7262   8.997   6.140  10.912 -0.7040 -0.0530  0.3264
   56MOL0     O 7263   8.967   6.172  11.044  0.2230 -0.3465  0.3319
   56MOL0     C 7264   9.014   6.285  11.106  0.1897  0.5448 -0.2319
   56MOL0     C 7265   9.131   6.355  11.062 -0.4076 -1.0011 -0.3146
   56MOL0     C 7266   9.178   6.462  11.143 -1.3625  0.4896 -0.0915
   56MOL0     C 7267   9.121   6.483  11.263  0.2572  0.1367  1.0099
   56MOL0     O 7268   9.163   6.575  11.347 -0.3913  0.3431  0.2032
   56MOL0     C 7269   9.114   6.703  11.319  1.1214  0.1220  0.0516
   56MOL0     C 7270   9.188   6.784  11.430  0.3160  0.5386  0.6449
   56MOL0     C 7271   9.342   6.799  11.388  0.8283  0.2465  0.8547
   56MOL0     C 7272   9.419   6.871  11.491  1.3009  0.3990  0.5552
   56MOL0     C 7273   9.436   6.771  11.606 -0.1692  0.1423 -0.3979
   56MOL0     C 7274   9.467   6.856  11.732  1.0306 -0.0891  0.1864
   56MOL0     C 7275   9.546   6.768  11.826  0.6376 -0.8343 -0.1025
   56MOL0     C 7276   9.698   6.779  11.816 -0.3008  0.9423 -0.1013
   56MOL0     N 7277   9.763   6.693  11.912  0.0641  0.4953  0.5997
   56MOL0     C 7278   9.717   6.575  11.960  0.9515 -0.6148  0.9298
   56MOL0     C 7279   9.812   6.528  12.047 -0.1921 -0.4978  0.1717
   56MOL0     C 7280   9.806   6.394  12.118  0.7622 -1.0503 -0.6033
   56MOL0     C 7281   9.945   6.357  12.149 -0.3350 -0.2292  0.4452
   56MOL0     C 7282   9.965   6.227  12.224  0.1668  0.4767  0.0163
   56MOL0     C 7283   9.934   6.257  12.363  0.0114 -0.1650  0.2292
   56MOL0     O 7284  10.023   6.183  12.458  0.4762  0.2133  0.4408
   56MOL0     C 7285  10.011   6.201  12.589 -0.7747  1.0159 -0.0407
   56MOL0     C 7286  10.068   6.112  12.678 -0.1742  0.8683  0.2870
   56MOL0     C 7287  10.063   6.124  12.819 -0.8272  0.3865 -1.1653
   56MOL0     C 7288   9.990   6.230  12.877 -0.6749 -0.6603  0.7906
   56MOL0     C 7289   9.978   6.246  13.016 -0.7427  0.9067 -0.0908
   56MOL0     O 7290  10.046   6.150  13.091  0.4209 -0.5156  0.2597
   56MOL0     C 7291  10.038   6.174  13.229 -0.6575 -0.3992  0.2805
   56MOL0     C 7292  10.138   6.255  13.283 -0.2616  0.2669  0.8245
   56MOL0     C 7293  10.160   6.270  13.419 -0.4684  0.0936 -0.1836
   56MOL0     C 7294  10.063   6.218  13.510 -0.5129  0.1077 -0.5114
   56MOL0     O 7295  10.084   6.232  13.644  0.5851  0.1282 -0.2894
   56MOL0     C 7296   9.985   6.262  13.738 -0.5394  0.0671 -0.1199
   56MOL0     C 7297   9.910   6.388  13.714  0.4756 -0.5053  0.1037
   56MOL0     C 7298   9.994   6.518  13.715  0.0045 -0.9674  0.6682
   56MOL0     C 7299   9.896   6.646  13.740  0.0527  0.8987 -0.1751
   56MOL0     C 7300   9.978   6.775  13.762 -0.1574 -0.0666  0.0630
   56MOL0     C 7301   9.918   6.880  13.862  0.5201 -0.3894  0.6005
   56MOL0     C 7302   9.967   7.022  13.821 -0.7426 -0.5119  0.1193
   56MOL0     C 7303   9.894   7.119  13.913  0.0533 -0.6588  0.1790
   56MOL0    Cl 7304   9.851   7.057  14.082 -0.2140 -0.2682 -0.1362
   56MOL0     C 7305   9.953   6.153  13.455 -0.2911 -0.1509 -0.0460
   56MOL0     C 7306   9.944   6.125  13.321 -0.9002 -0.5924 -0.5546
   56MOL0     O 7307   9.918   6.340  13.063  0.4594 -0.3090 -0.5985
   56MOL0     C 7308   9.933   6.321  12.791  0.3441 -0.0381  0.3927
   56MOL0     C 7309   9.943   6.308  12.655  0.3490 -0.1751  0.3449
   56MOL0     N 7310   9.914   6.623  12.048 -0.2656  0.1836  0.2558
   56MOL0     N 7311   9.877   6.721  11.974 -0.5607 -0.1537  0.5285
   56MOL0     C 7312   9.016   6.416  11.316 -0.8843 -0.2379  0.0799
   56MOL0     C 7313   8.960   6.313  11.232 -0.2105  0.3702  0.1334
   56MOL0     C 7314   8.943   6.006  10.878 -1.1893  0.7083 -0.6178
   56MOL0     C 7315   8.894   5.921  10.976  0.4264  0.1338 -0.5414
   56MOL0     C 7316   8.826   5.805  10.945 -0.0879 -1.5181 -0.3949
   56MOL0     C 7317   8.808   5.761  10.811  0.4407 -0.0674 -0.7011
   56MOL0     O 7318   8.732   5.650  10.766 -0.3345 -0.2619  0.3454
   56MOL0     C 7319   8.679   5.578  10.873  0.3961 -0.0125 -0.3169
   56MOL0     C 7320   8.618   5.447  10.811 -0.9666 -0.2862 -0.8550
   56MOL0     C 7321   8.510   5.375  10.905  0.1597 -0.2496  0.6771
   56MOL0     C 7322   8.367   5.417  10.866  0.6554  0.2192 -0.0568
   56MOL0     C 7323   8.330   5.339  10.750  0.0171  0.2144 -0.2596
   56MOL0     C 7324   8.304   5.275  10.651  0.5351  0.0400 -0.3792
   56MOL0     C 7325   8.878   5.839  10.721  0.0504 -0.1845  0.0191
   56MOL0     C 7326   8.946   5.956  10.748 -0.2297 -0.4572  0.2975
   56MOL0     H 7327   9.193   6.323  10.979 -1.4945 -2.6384 -0.5504
   56MOL0     H 7328   9.260   6.524  11.107 -1.0672  0.4610  0.5340
   56MOL0     H 7329   9.008   6.722  11.342  1.7263  2.9782  0.8680
   56MOL0     H 7330   9.123   6.736  11.215  0.1591  3.4176  0.8804
   56MOL0     H 7331   9.168   6.732  11.524  1.7124 -3.5846 -1.1085
   56MOL0     H 7332   9.133   6.879  11.434  1.2108  1.1477 -0.7595
   56MOL0     H 7333   9.346   6.843  11.288 -3.3582 -0.5863  0.1393
   56MOL0     H 7334   9.378   6.701  11.354 -1.2242  0.4678 -2.4344
   56MOL0     H 7335   9.520   6.893  11.453  1.1271 -2.5598 -1.9893
   56MOL0     H 7336   9.367   6.960  11.527 -0.5255 -0.2138 -0.5031
   56MOL0     H 7337   9.514   6.699  11.580  1.3557  1.5918 -0.0005
   56MOL0     H 7338   9.349   6.705  11.616 -0.3713 -0.3752 -4.2264
   56MOL0     H 7339   9.375   6.893  11.779 -0.2159 -1.8301 -0.7515
   56MOL0     H 7340   9.521   6.943  11.697  2.1541 -0.1753  1.6065
   56MOL0     H 7341   9.525   6.793  11.931 -0.8283  1.5157 -0.8564
   56MOL0     H 7342   9.515   6.666  11.803 -0.8515  0.0441 -2.3269
   56MOL0     H 7343   9.744   6.878  11.827  2.0965 -0.1197  0.0315
   56MOL0     H 7344   9.736   6.750  11.718  2.7754  0.5340  1.0843
   56MOL0     H 7345   9.629   6.517  11.936 -0.7049  1.0294  2.6901
   56MOL0     H 7346   9.769   6.311  12.057  1.8501 -2.6388  0.8104
   56MOL0     H 7347   9.750   6.404  12.211 -0.6447  2.4622 -1.6610
   56MOL0     H 7348   9.998   6.445  12.187 -1.4880  1.2092 -1.1401
   56MOL0     H 7349   9.997   6.352  12.053 -0.8449  1.3251  0.0548
   56MOL0     H 7350   9.891   6.152  12.195 -0.1884  1.4224 -1.6478
   56MOL0     H 7351  10.065   6.192  12.200 -0.0259 -0.0191 -0.0795
   56MOL0     H 7352   9.831   6.225  12.379 -0.4967 -2.1327 -5.0630
   56MOL0     H 7353   9.951   6.365  12.376  0.2801 -0.0236 -1.1104
   56MOL0     H 7354  10.132   6.039  12.630 -0.3668 -0.4118  1.8788
   56MOL0     H 7355  10.102   6.045  12.882 -2.3954  0.6964  0.2469
   56MOL0     H 7356  10.200   6.309  13.213  1.2137 -2.2807  0.0205
   56MOL0     H 7357  10.234   6.344  13.449 -0.4796  0.9445 -2.1058
   56MOL0     H 7358  10.034   6.250  13.835  0.8678 -0.7938 -0.9100
   56MOL0     H 7359   9.923   6.171  13.741  1.0972 -1.2082 -2.1526
   56MOL0     H 7360   9.840   6.401  13.798 -0.4998 -2.4676 -0.3520
   56MOL0     H 7361   9.850   6.373  13.624 -1.2786 -0.9132  1.2764
   56MOL0     H 7362  10.044   6.530  13.619 -1.8552  1.4251 -0.1246
   56MOL0     H 7363  10.082   6.503  13.777  0.9377  1.7122  0.1347
   56MOL0     H 7364   9.830   6.664  13.655  2.6926  0.9095 -2.3252
   56MOL0     H 7365   9.842   6.617  13.831 -0.2134 -0.9321 -0.8697
   56MOL0     H 7366   9.985   6.831  13.669 -0.8439  1.8697  1.1111
   56MOL0     H 7367  10.078   6.746  13.795 -0.8730 -2.4215  0.3587
   56MOL0     H 7368   9.970   6.846  13.951  2.3187 -0.1446 -0.3041
   56MOL0     H 7369   9.809   6.883  13.861  0.5284 -0.0790  0.3406
   56MOL0     H 7370  10.075   7.027  13.838 -0.4322  1.8638 -1.9935
   56MOL0     H 7371   9.948   7.051  13.717 -0.0037  1.8532  0.5989
   56MOL0     H 7372   9.798   7.145  13.867  1.2831  1.7178 -1.2589
   56MOL0     H 7373   9.950   7.213  13.909 -1.3651  0.2960  1.6568
   56MOL0     H 7374   9.873   6.131  13.525 -0.3762  1.7029  0.4809
   56MOL0     H 7375   9.857   6.077  13.277 -0.7362 -1.6944  0.2862
   56MOL0     H 7376   9.891   6.412  12.834 -1.3186 -0.7286  0.2909
   56MOL0     H 7377   9.909   6.387  12.588  1.0380 -1.1127 -1.1647
   56MOL0     H 7378   8.993   6.428  11.421 -1.5879  1.6461 -0.2506
   56MOL0     H 7379   8.880   6.253  11.274  3.0626 -4.7830 -0.0595
   56MOL0     H 7380   8.903   5.951  11.080 -1.8180 -1.1603  0.0926
   56MOL0     H 7381   8.783   5.752  11.029 -0.0458 -0.4031  0.3495
   56MOL0     H 7382   8.598   5.637  10.916  0.0587 -2.4947  2.8086
   56MOL0     H 7383   8.752   5.546  10.948  1.5663  0.3925 -1.2523
   56MOL0     H 7384   8.580   5.462  10.709 -0.3358 -0.9319 -1.2057
   56MOL0     H 7385   8.706   5.382  10.811  0.4421  1.5573 -0.5097
   56MOL0     H 7386   8.531   5.401  11.009 -0.8274 -0.7495  1.0078
   56MOL0     H 7387   8.513   5.267  10.890 -0.4185  0.0189 -2.0274
   56MOL0     H 7388   8.298   5.398  10.948 -0.4824  0.4667 -0.9398
   56MOL0     H 7389   8.367   5.522  10.835 -0.0215  0.5738  1.0805
   56MOL0     H 7390   8.277   5.220  10.563  0.1503 -0.4855  0.0632
   56MOL0     H 7391   8.873   5.807  10.617  1.0461  1.9476 -0.7422
   56MOL0     H 7392   8.991   6.017  10.671 -1.7436  3.1829  2.0445
   57MOL0     O 7393   1.532   9.586   6.602  0.3344 -0.9624  0.0540
   57MOL0     C 7394   1.652   9.595   6.576  0.1562  0.2905 -0.5507
   57MOL0     O 7395   1.723   9.496   6.524  0.3986  0.6961  0.0852
   57MOL0     C 7396   1.672   9.371   6.487 -0.1643  0.4881  0.3484
   57MOL0     C 7397   1.562   9.363   6.397  0.0357  0.5845  0.4931
   57MOL0     C 7398   1.486   9.248   6.377  1.1212  0.0352  0.3955
   57MOL0     C 7399   1.540   9.139   6.442  0.4304 -0.0919  0.6225
   57MOL0     O 7400   1.473   9.022   6.420 -0.6390 -0.8120 -0.6657
   57MOL0     C 7401   1.406   8.992   6.540 -0.0552  0.6881 -0.2665
   57MOL0     C 7402   1.311   8.874   6.512 -0.0934 -0.5432  0.3392
   57MOL0     C 7403   1.208   8.845   6.621  0.8936  0.3545 -0.0688
   57MOL0     C 7404   1.095   8.746   6.588  0.1887 -0.1777 -1.0231
   57MOL0     C 7405   0.976   8.766   6.679  1.1723  0.2547 -0.1800
   57MOL0     C 7406   0.868   8.668   6.632  0.9089 -1.1991  0.1837
   57MOL0     C 7407   0.746   8.698   6.717  0.3720 -0.5445 -0.8305
   57MOL0     C 7408   0.642   8.578   6.714  0.3798  0.7800 -0.5676
   57MOL0     N 7409   0.534   8.578   6.607  0.9205 -1.0207 -0.0415
   57MOL0     C 7410   0.472   8.693   6.557 -0.2181  0.8025  0.8193
   57MOL0     C 7411   0.379   8.651   6.467 -1.6454 -0.2666  1.1647
   57MOL0     C 7412   0.319   8.744   6.374  1.3203 -0.6860  0.1772
   57MOL0     C 7413   0.413   8.792   6.263  1.1219  0.4948  0.1145
   57MOL0     C 7414   0.325   8.881   6.171 -0.0324  0.4772 -0.6887
   57MOL0     C 7415   0.423   8.953   6.073 -0.2151 -0.2713 -0.2731
   57MOL0     O 7416   0.354   8.994   5.948 -0.6901 -0.2503 -0.2757
   57MOL0     C 7417   0.403   9.106   5.890  0.3395  0.2162 -0.9621
   57MOL0     C 7418   0.517   9.174   5.929 -0.1584 -0.0830 -0.1481
   57MOL0     C 7419   0.548   9.297   5.875 -0.2012 -0.7424 -0.9498
   57MOL0     C 7420   0.483   9.341   5.761  0.2798  0.0054  0.6445
   57MOL0     C 7421   0.532   9.466   5.704 -0.0555  1.0751 -0.5645
   57MOL0     O 7422   0.626   9.546   5.764 -0.3997 -0.7964 -0.4706
   57MOL0     C 7423   0.657   9.674   5.724  0.1762 -0.9994  0.4525
   57MOL0     C 7424   0.557   9.774   5.687 -0.5467  0.5087  0.3490
   57MOL0     C 7425   0.602   9.902   5.647 -0.1107  0.6335 -0.4921
   57MOL0     C 7426   0.735   9.936   5.648  0.7752 -0.4195  0.5442
   57MOL0     O 7427   0.772  10.061   5.601  0.9351 -0.1342 -0.0313
   57MOL0     C 7428   0.809  10.161   5.692 -0.2179 -0.4960 -0.4873
   57MOL0     C 7429   0.778  10.287   5.612 -0.1100  0.9382 -0.6061
   57MOL0     C 7430   0.622  10.319   5.610  0.2550  0.4896  0.2138
   57MOL0     C 7431   0.577  10.452   5.533 -1.1400  0.5863 -0.6489
   57MOL0     C 7432   0.661  10.468   5.399 -0.1715  0.9196 -0.4572
   57MOL0     C 7433   0.616  10.584   5.314  0.1616 -0.0542 -0.5895
   57MOL0     C 7434   0.650  10.716   5.372  0.0781 -0.2764  0.5947
   57MOL0     C 7435   0.603  10.833   5.292 -0.1140 -0.3096  0.7555
   57MOL0    Cl 7436   0.608  10.984   5.384  0.1438 -0.0442  0.3328
   57MOL0     C 7437   0.825   9.844   5.689 -0.3048  0.2362 -1.2636
   57MOL0     C 7438   0.791   9.715   5.717 -0.0671 -0.4763 -0.2673
   57MOL0     O 7439   0.476   9.501   5.601 -0.2284  0.8531 -0.4421
   57MOL0     C 7440   0.374   9.271   5.708  0.2818 -0.0026 -0.8794
   57MOL0     C 7441   0.327   9.157   5.781 -0.5232  1.3301 -0.6960
   57MOL0     N 7442   0.386   8.510   6.469  0.5242 -0.6296 -0.1265
   57MOL0     N 7443   0.473   8.467   6.553 -0.7014  0.7724 -0.0636
   57MOL0     C 7444   1.658   9.145   6.524  0.6443  0.7025  0.4879
   57MOL0     C 7445   1.717   9.266   6.560 -0.1120 -0.5704 -0.3941
   57MOL0     C 7446   1.726   9.725   6.617  1.2339  0.7775  0.2241
   57MOL0     C 7447   1.860   9.749   6.573  1.2576  0.3798 -0.3645
   57MOL0     C 7448   1.919   9.873   6.597  0.3303  0.3667  0.1575
   57MOL0     C 7449   1.854   9.972   6.663  0.1705  0.0937 -1.4609
   57MOL0     O 7450   1.901  10.091   6.678 -0.1248 -0.9470 -0.5990
   57MOL0     C 7451   2.003  10.147   6.587 -0.8091  0.6655  0.7367
   57MOL0     C 7452   1.937  10.213   6.476  0.4634  0.0708  0.9618
   57MOL0     C 7453   1.868  10.350   6.500 -0.4025 -0.2488  0.0565
   57MOL0     C 7454   1.798  10.406   6.380  1.3201 -0.3828  0.7976
   57MOL0     C 7455   1.743  10.535   6.401  0.0998 -0.2604 -0.1116
   57MOL0     C 7456   1.690  10.638   6.428 -0.0858  0.3444  0.2292
   57MOL0     C 7457   1.736   9.948   6.718  0.1300  0.1987  0.1567
   57MOL0     C 7458   1.665   9.825   6.691 -0.7009 -0.0849 -0.4578
   57MOL0     H 7459   1.531   9.453   6.345  2.6760  1.8454  0.9499
   57MOL0     H 7460   1.392   9.252   6.324  1.3688 -0.7111 -0.0980
   57MOL0     H 7461   1.356   9.078   6.585  2.4428  1.4060  1.3103
   57MOL0     H 7462   1.487   8.961   6.607 -0.8967 -0.2740  0.3412
   57MOL0     H 7463   1.361   8.780   6.487 -0.3834 -1.2933  2.3687
   57MOL0     H 7464   1.263   8.901   6.418 -1.8398  1.5482  1.7291
   57MOL0     H 7465   1.163   8.944   6.628 -1.4525 -0.6330 -0.1739
   57MOL0     H 7466   1.245   8.825   6.722 -4.5029 -1.4087  1.9101
   57MOL0     H 7467   1.070   8.761   6.483  0.1235 -1.4864 -1.2174
   57MOL0     H 7468   1.126   8.641   6.598  1.1528  0.1273 -0.6294
   57MOL0     H 7469   0.948   8.872   6.674 -1.3702 -0.1618  2.6028
   57MOL0     H 7470   0.999   8.751   6.785  0.2136 -0.8662 -0.1174
   57MOL0     H 7471   0.906   8.567   6.649  3.5056 -0.6709 -1.8177
   57MOL0     H 7472   0.849   8.692   6.527  0.6234  1.1646  0.7233
   57MOL0     H 7473   0.784   8.690   6.819 -1.8152  2.5807  0.3753
   57MOL0     H 7474   0.697   8.795   6.711 -0.2624 -0.8541 -0.7151
   57MOL0     H 7475   0.587   8.594   6.807  0.1646 -0.0680 -0.5437
   57MOL0     H 7476   0.696   8.484   6.728 -1.8805 -0.2410  2.0903
   57MOL0     H 7477   0.499   8.797   6.564  0.5095  0.9897 -2.9242
   57MOL0     H 7478   0.287   8.829   6.435  0.9806 -1.2459  0.7953
   57MOL0     H 7479   0.228   8.696   6.339  0.8524 -0.1528  0.6445
   57MOL0     H 7480   0.451   8.706   6.208  0.6521  1.3934 -1.6917
   57MOL0     H 7481   0.495   8.848   6.308  1.5362  2.3233 -2.6862
   57MOL0     H 7482   0.251   8.836   6.105  1.6161 -0.1180 -2.2397
   57MOL0     H 7483   0.276   8.954   6.236  2.3981  1.0592  0.6327
   57MOL0     H 7484   0.500   8.882   6.044 -0.7487 -1.4156  1.0077
   57MOL0     H 7485   0.459   9.039   6.130  0.9817 -1.7483  1.3012
   57MOL0     H 7486   0.584   9.137   6.006 -0.8669 -0.8043  0.1347
   57MOL0     H 7487   0.640   9.342   5.912 -1.9104  3.1163 -0.8604
   57MOL0     H 7488   0.450   9.758   5.692 -0.5660  0.9919  3.2947
   57MOL0     H 7489   0.517   9.965   5.620 -0.9730 -1.0205 -1.7808
   57MOL0     H 7490   0.913  10.167   5.725 -0.1737  0.3221 -0.7701
   57MOL0     H 7491   0.740  10.157   5.777 -1.0084 -3.7505 -1.1215
   57MOL0     H 7492   0.811  10.274   5.509  0.4084 -3.4931 -0.0758
   57MOL0     H 7493   0.830  10.374   5.654 -1.8488  0.2600  3.4875
   57MOL0     H 7494   0.594  10.332   5.715 -2.6228  1.9143 -0.6275
   57MOL0     H 7495   0.564  10.243   5.557  2.1223  1.2088 -3.2350
   57MOL0     H 7496   0.470  10.460   5.513 -1.4178  2.2059  1.2038
   57MOL0     H 7497   0.596  10.539   5.597 -0.8072  0.9678 -1.2513
   57MOL0     H 7498   0.650  10.384   5.330 -0.2821  2.9439 -3.0284
   57MOL0     H 7499   0.769  10.486   5.411  0.8539 -3.9383 -0.0754
   57MOL0     H 7500   0.508  10.576   5.296  0.0857  0.8911 -0.5696
   57MOL0     H 7501   0.676  10.576   5.222  0.5566 -1.4187 -0.2400
   57MOL0     H 7502   0.606  10.716   5.472 -0.4542  0.5701  0.3666
   57MOL0     H 7503   0.758  10.722   5.384  0.3555  0.7902 -1.8804
   57MOL0     H 7504   0.503  10.820   5.251 -0.1918  0.0342  0.8285
   57MOL0     H 7505   0.673  10.856   5.211  0.3926 -0.3797  1.1684
   57MOL0     H 7506   0.926   9.880   5.704 -0.2882  0.4380 -1.8501
   57MOL0     H 7507   0.859   9.635   5.743  0.4083 -1.5433 -4.1462
   57MOL0     H 7508   0.304   9.308   5.634 -0.6991 -2.6151 -1.3659
   57MOL0     H 7509   0.238   9.101   5.757  0.4766 -0.9894  0.6481
   57MOL0     H 7510   1.694   9.053   6.569 -1.5245  0.7352  2.5294
   57MOL0     H 7511   1.801   9.278   6.627 -0.8233 -1.5186  0.7043
   57MOL0     H 7512   1.902   9.681   6.499 -1.9296 -0.5796 -1.4754
   57MOL0     H 7513   2.014   9.892   6.549 -0.2801  2.8659 -0.2381
   57MOL0     H 7514   2.076  10.074   6.549 -1.0300  0.5564  0.5221
   57MOL0     H 7515   2.059  10.221   6.645 -1.2309  0.3786  1.5241
   57MOL0     H 7516   2.022  10.226   6.409  1.2478  1.2295  2.1364
   57MOL0     H 7517   1.874  10.143   6.420  0.5684  0.9389 -0.2831
   57MOL0     H 7518   1.941  10.422   6.538 -2.0992  1.9276 -0.6256
   57MOL0     H 7519   1.785  10.343   6.571 -2.0707  1.6315 -1.6038
   57MOL0     H 7520   1.872  10.413   6.299  0.3680 -2.3927 -0.3252
   57MOL0     H 7521   1.721  10.332   6.354  0.0938  2.0012 -3.2530
   57MOL0     H 7522   1.657  10.735   6.460 -0.3824 -0.2969  1.9659
   57MOL0     H 7523   1.695  10.026   6.781 -0.9965  0.9245 -1.4017
   57MOL0     H 7524   1.561   9.813   6.720 -0.9648 -0.2974 -1.4589
   58MOL0     O 7525   2.702   9.840   5.612 -0.2209 -0.8670  0.2760
   58MOL0     C 7526   2.759   9.896   5.521  1.6324 -0.2284  0.1437
   58MOL0     O 7527   2.865   9.853   5.448 -0.4227  0.1113  0.2409
   58MOL0     C 7528   2.940   9.747   5.493 -0.8072  0.0887  0.4562
   58MOL0     C 7529   2.879   9.616   5.514 -0.7108  0.3495 -0.9786
   58MOL0     C 7530   2.961   9.515   5.569  0.1290 -0.3261 -0.5876
   58MOL0     C 7531   3.099   9.535   5.588  0.4593 -0.2953  0.3097
   58MOL0     O 7532   3.172   9.424   5.633  0.1798 -0.6690 -0.2185
   58MOL0     C 7533   3.299   9.438   5.712 -0.6455  0.1521 -0.7897
   58MOL0     C 7534   3.285   9.491   5.855 -0.4770  0.9057  0.6531
   58MOL0     C 7535   3.207   9.388   5.932 -0.1300  0.7129 -0.0834
   58MOL0     C 7536   3.219   9.397   6.088 -0.3133 -0.0202 -0.2060
   58MOL0     C 7537   3.152   9.298   6.180  0.4659 -0.4960 -0.6924
   58MOL0     C 7538   3.163   9.150   6.144 -0.3520  1.0634  0.2140
   58MOL0     C 7539   3.312   9.099   6.144 -0.4799  0.5618 -0.2152
   58MOL0     C 7540   3.350   8.999   6.045 -0.1547 -0.3788 -1.0043
   58MOL0     N 7541   3.274   8.876   6.076 -0.0504 -1.1774 -1.0092
   58MOL0     C 7542   3.308   8.800   6.192  0.5210  0.6468  0.2383
   58MOL0     C 7543   3.212   8.703   6.178 -0.4735  0.6660  0.1908
   58MOL0     C 7544   3.228   8.592   6.274 -0.2855 -0.5177  0.5951
   58MOL0     C 7545   3.117   8.599   6.373  0.6700 -1.0033  0.8987
   58MOL0     C 7546   3.113   8.475   6.460 -0.1686 -0.2754  0.0725
   58MOL0     C 7547   3.004   8.478   6.570  0.0566 -0.0777 -0.2363
   58MOL0     O 7548   2.897   8.412   6.504  0.0913  0.7652 -0.3408
   58MOL0     C 7549   2.763   8.447   6.525  0.1123 -0.1297 -0.3975
   58MOL0     C 7550   2.665   8.386   6.444 -0.2053  0.3603  0.0253
   58MOL0     C 7551   2.529   8.420   6.470 -1.5057  0.0708  0.0845
   58MOL0     C 7552   2.484   8.516   6.562 -0.8797 -0.6033 -0.0909
   58MOL0     C 7553   2.347   8.545   6.590 -0.2643  0.3732  0.5727
   58MOL0     O 7554   2.276   8.437   6.573  0.2162  0.5205 -0.1365
   58MOL0     C 7555   2.144   8.434   6.608 -0.3417 -0.2806  0.3421
   58MOL0     C 7556   2.072   8.338   6.537 -0.6173  0.0422 -0.8349
   58MOL0     C 7557   1.936   8.317   6.569 -0.0969  0.5197  1.3142
   58MOL0     C 7558   1.865   8.411   6.645  0.3247  0.7422 -1.0581
   58MOL0     O 7559   1.731   8.382   6.678 -0.6776 -0.0801  0.4189
   58MOL0     C 7560   1.644   8.329   6.578  0.0264 -0.8774  0.6496
   58MOL0     C 7561   1.510   8.314   6.643  0.3840 -0.4783  0.8058
   58MOL0     C 7562   1.394   8.330   6.547  0.3175  0.9872  0.0837
   58MOL0     C 7563   1.260   8.308   6.618 -0.8241  0.5433  1.1477
   58MOL0     C 7564   1.152   8.266   6.525 -0.9465  0.9138 -0.4052
   58MOL0     C 7565   1.010   8.284   6.581 -0.4281 -0.7006 -0.0939
   58MOL0     C 7566   0.919   8.183   6.519  0.3968  0.0728 -0.5578
   58MOL0     C 7567   0.796   8.160   6.602 -0.0198  0.3452 -0.3476
   58MOL0    Cl 7568   0.631   8.156   6.528 -0.6192  0.6443  0.4611
   58MOL0     C 7569   1.932   8.524   6.705  0.9546  0.0800 -0.5687
   58MOL0     C 7570   2.071   8.528   6.688 -0.2883 -0.3455  0.9053
   58MOL0     O 7571   2.320   8.654   6.635 -0.5024 -0.0670 -0.0461
   58MOL0     C 7572   2.587   8.570   6.637 -0.2257  0.5792 -0.5776
   58MOL0     C 7573   2.725   8.541   6.618 -0.7233 -0.4124 -0.3147
   58MOL0     N 7574   3.141   8.721   6.061 -0.8579  0.1255  0.1915
   58MOL0     N 7575   3.185   8.814   6.000  0.3874  0.0613  0.3278
   58MOL0     C 7576   3.155   9.659   5.569  0.0945 -0.0937 -0.0688
   58MOL0     C 7577   3.075   9.763   5.525  0.8875 -0.3249  0.0341
   58MOL0     C 7578   2.693  10.019   5.469 -0.5300 -1.2182  1.2190
   58MOL0     C 7579   2.591  10.082   5.540  1.3656  0.0670 -0.1276
   58MOL0     C 7580   2.524  10.192   5.485 -0.2546  0.4490  0.1285
   58MOL0     C 7581   2.561  10.245   5.369 -0.0695 -0.0388 -0.1941
   58MOL0     O 7582   2.500  10.354   5.324  0.5831 -0.4729 -0.2361
   58MOL0     C 7583   2.387  10.417   5.381 -0.3958  0.5089 -0.1139
   58MOL0     C 7584   2.321  10.517   5.282 -0.0091 -0.3486  0.0088
   58MOL0     C 7585   2.190  10.562   5.359  0.2905 -0.4911  0.1121
   58MOL0     C 7586   2.215  10.672   5.463 -0.3771 -0.4851  0.5476
   58MOL0     C 7587   2.255  10.793   5.394  0.7604 -0.2936  0.0945
   58MOL0     C 7588   2.296  10.903   5.366 -0.3017 -0.3285  0.3434
   58MOL0     C 7589   2.660  10.187   5.286  0.9983 -0.5617  0.5127
   58MOL0     C 7590   2.734  10.076   5.339 -0.4957  0.1197 -0.4772
   58MOL0     H 7591   2.773   9.602   5.498 -0.4891 -3.1681 -0.0743
   58MOL0     H 7592   2.915   9.421   5.600  0.3511  0.2003  1.4643
   58MOL0     H 7593   3.366   9.501   5.652 -0.5513  0.9983  0.1706
   58MOL0     H 7594   3.349   9.343   5.730 -2.0880 -0.3769  0.6865
   58MOL0     H 7595   3.237   9.588   5.870  0.3802  0.9611  3.7295
   58MOL0     H 7596   3.384   9.495   5.902  0.4866  1.7224 -1.3011
   58MOL0     H 7597   3.233   9.286   5.902 -4.2262 -1.0394  1.4583
   58MOL0     H 7598   3.100   9.391   5.906 -0.2158 -4.1085 -1.1922
   58MOL0     H 7599   3.320   9.398   6.130 -0.5925 -1.0213  0.5269
   58MOL0     H 7600   3.188   9.498   6.119 -0.7237 -1.0169  3.0286
   58MOL0     H 7601   3.050   9.336   6.167 -0.4374 -2.1743  0.9651
   58MOL0     H 7602   3.175   9.308   6.286  1.6737 -0.8257 -0.9085
   58MOL0     H 7603   3.120   9.143   6.044 -1.6702  2.7973  0.6045
   58MOL0     H 7604   3.088   9.089   6.196 -1.1274  1.3553 -0.5381
   58MOL0     H 7605   3.383   9.179   6.123  0.2101  0.3084  1.0395
   58MOL0     H 7606   3.343   9.058   6.241 -0.0621  0.9955 -0.1605
   58MOL0     H 7607   3.457   8.975   6.043 -0.1190 -0.1815 -2.5990
   58MOL0     H 7608   3.322   9.030   5.944 -1.5405 -0.3950 -0.6403
   58MOL0     H 7609   3.389   8.822   6.261 -0.0431  1.3344  0.6960
   58MOL0     H 7610   3.328   8.597   6.318  0.0483 -0.8373 -0.1187
   58MOL0     H 7611   3.233   8.499   6.217  0.0083  0.9242 -1.8311
   58MOL0     H 7612   3.023   8.610   6.319  0.4879 -1.8572  1.0251
   58MOL0     H 7613   3.121   8.694   6.428 -1.5094  2.1924 -3.8047
   58MOL0     H 7614   3.098   8.385   6.399  1.8315  1.0573 -2.6240
   58MOL0     H 7615   3.213   8.464   6.503  1.1805  1.2012 -2.4267
   58MOL0     H 7616   2.987   8.581   6.603 -2.4764 -0.8517  1.1048
   58MOL0     H 7617   3.023   8.410   6.654  2.0644  3.0024  2.0191
   58MOL0     H 7618   2.700   8.304   6.381  2.2146 -1.5676  3.5790
   58MOL0     H 7619   2.456   8.360   6.416  0.7099 -2.5186 -0.2277
   58MOL0     H 7620   2.134   8.268   6.481  0.1040  1.2459 -1.5957
   58MOL0     H 7621   1.883   8.241   6.513 -1.9902  2.1065  0.8491
   58MOL0     H 7622   1.681   8.231   6.548  2.1814 -1.2942  4.1009
   58MOL0     H 7623   1.635   8.399   6.495  0.0791 -2.9296 -1.1654
   58MOL0     H 7624   1.505   8.385   6.726 -1.1274 -0.9083  1.1205
   58MOL0     H 7625   1.503   8.217   6.693 -0.2783 -1.2881 -0.7915
   58MOL0     H 7626   1.409   8.251   6.472  1.6035  0.1209  1.2111
   58MOL0     H 7627   1.380   8.426   6.496 -0.0400  0.2788 -1.2246
   58MOL0     H 7628   1.276   8.235   6.698  3.2100  0.1028  0.1711
   58MOL0     H 7629   1.238   8.402   6.669  2.9482  2.1670  0.1821
   58MOL0     H 7630   1.159   8.159   6.503 -0.4833  1.0091 -0.7451
   58MOL0     H 7631   1.159   8.324   6.432 -1.5959 -1.5441 -2.1129
   58MOL0     H 7632   0.973   8.384   6.560  1.2096 -0.2538 -1.0456
   58MOL0     H 7633   1.001   8.280   6.690 -2.5425 -2.1027 -0.2690
   58MOL0     H 7634   0.886   8.224   6.424 -0.5920  3.0059  0.9236
   58MOL0     H 7635   0.970   8.087   6.510 -2.2126 -1.3373 -1.2516
   58MOL0     H 7636   0.789   8.229   6.687 -1.1105 -4.2303  3.7369
   58MOL0     H 7637   0.809   8.078   6.673 -2.3088  1.3017  1.3196
   58MOL0     H 7638   1.881   8.591   6.773 -0.6195 -0.9824 -0.6425
   58MOL0     H 7639   2.121   8.595   6.758  1.2032 -2.5624  2.0880
   58MOL0     H 7640   2.561   8.632   6.723  3.3207 -0.8567  1.7435
   58MOL0     H 7641   2.788   8.600   6.683 -3.5903  0.7929  1.6046
   58MOL0     H 7642   3.255   9.690   5.597 -0.4664  1.2723  0.5691
   58MOL0     H 7643   3.115   9.862   5.505  0.9028 -0.9821 -3.9078
   58MOL0     H 7644   2.558  10.060   5.641 -1.8849 -1.4517 -1.3580
   58MOL0     H 7645   2.448  10.230   5.552  0.1780 -1.3924  1.7534
   58MOL0     H 7646   2.426  10.465   5.471 -0.5750  0.0479  0.2125
   58MOL0     H 7647   2.323  10.337   5.417 -1.6588 -0.8223 -4.6833
   58MOL0     H 7648   2.378  10.608   5.264  0.0313 -0.6878 -1.7593
   58MOL0     H 7649   2.287  10.470   5.189 -5.2886 -1.4858  2.1486
   58MOL0     H 7650   2.154  10.472   5.411 -1.2265  0.3013  0.5026
   58MOL0     H 7651   2.110  10.596   5.292  1.3598 -1.8622 -1.9667
   58MOL0     H 7652   2.129  10.703   5.523 -0.4913  1.3139 -0.4588
   58MOL0     H 7653   2.303  10.652   5.525 -0.7035  0.3271  1.2922
   58MOL0     H 7654   2.330  11.001   5.341  1.6851 -0.2916  2.8208
   58MOL0     H 7655   2.678  10.227   5.187  2.7856  0.7652  1.3049
   58MOL0     H 7656   2.817  10.040   5.280 -0.3643  2.4679 -1.8663
   59MOL0     O 7657   2.924   9.120   0.606 -0.2244  0.0680  0.5641
   59MOL0     C 7658   3.009   9.120   0.514 -0.6321  0.4440  0.0608
   59MOL0     O 7659   3.136   9.057   0.521 -0.0101 -0.1880  0.6343
   59MOL0     C 7660   3.168   8.986   0.630  0.1147  0.9092 -0.1576
   59MOL0     C 7661   3.178   9.045   0.759 -0.9306  0.2253 -0.3975
   59MOL0     C 7662   3.197   8.962   0.867  0.7269  0.2470  0.4223
   59MOL0     C 7663   3.214   8.826   0.859 -0.6229  0.6518 -1.4448
   59MOL0     O 7664   3.228   8.748   0.969  0.4808 -0.0369 -0.5215
   59MOL0     C 7665   3.196   8.609   0.949 -0.3178 -0.3880 -0.1323
   59MOL0     C 7666   3.191   8.535   1.087  0.8088  0.4391  0.4299
   59MOL0     C 7667   3.088   8.611   1.179  0.4811 -0.0353 -0.7560
   59MOL0     C 7668   3.115   8.588   1.331 -0.0953 -0.2508  0.3358
   59MOL0     C 7669   3.204   8.688   1.410 -1.1480 -0.1889  0.1734
   59MOL0     C 7670   3.186   8.684   1.566 -0.1564  0.2743 -1.5052
   59MOL0     C 7671   3.309   8.751   1.645 -0.1476 -0.4367  0.1553
   59MOL0     C 7672   3.445   8.698   1.636 -0.2997  0.6122  0.4475
   59MOL0     N 7673   3.519   8.687   1.765  0.5754  0.3990 -0.2309
   59MOL0     C 7674   3.497   8.592   1.862  0.3629  0.0300 -0.3369
   59MOL0     C 7675   3.608   8.600   1.941  0.3177  0.3758 -0.3759
   59MOL0     C 7676   3.648   8.531   2.069 -0.1494  0.1679  1.0114
   59MOL0     C 7677   3.561   8.403   2.102 -0.9370  0.0889 -0.3338
   59MOL0     C 7678   3.634   8.304   2.189  0.3460 -0.4580 -0.3135
   59MOL0     C 7679   3.669   8.368   2.332 -0.5307 -0.0100  0.5376
   59MOL0     O 7680   3.712   8.274   2.430  0.6035  0.3734 -0.8006
   59MOL0     C 7681   3.630   8.249   2.537  1.0000  0.4251 -0.0729
   59MOL0     C 7682   3.582   8.123   2.563  0.1095  0.4493 -0.4998
   59MOL0     C 7683   3.498   8.096   2.668  0.2194 -0.2418  0.8998
   59MOL0     C 7684   3.453   8.207   2.744  0.4909  0.8389  0.2990
   59MOL0     C 7685   3.361   8.179   2.864 -0.6291 -1.0116 -0.2365
   59MOL0     O 7686   3.303   8.295   2.919  1.2229 -0.5568  0.5779
   59MOL0     C 7687   3.214   8.304   3.017  0.7786 -1.3048  0.9182
   59MOL0     C 7688   3.188   8.435   3.057 -0.4580  0.7310  0.2429
   59MOL0     C 7689   3.092   8.453   3.160  0.0557 -0.3369  1.0268
   59MOL0     C 7690   3.032   8.347   3.228  0.2658 -0.2255  0.0386
   59MOL0     O 7691   2.932   8.361   3.323 -0.4432 -0.1575 -0.1011
   59MOL0     C 7692   2.865   8.494   3.347  0.4681  0.9309  0.7635
   59MOL0     C 7693   2.760   8.468   3.453 -0.3270 -0.2690 -0.3758
   59MOL0     C 7694   2.809   8.387   3.566  0.0289 -0.3947 -0.2211
   59MOL0     C 7695   2.928   8.458   3.639 -0.1615  0.2652  0.5778
   59MOL0     C 7696   2.967   8.376   3.758 -1.3949  0.9878  0.2199
   59MOL0     C 7697   2.988   8.228   3.743 -0.6009  0.5296 -0.7807
   59MOL0     C 7698   3.097   8.210   3.634  0.2957 -0.3073  0.6562
   59MOL0     C 7699   3.153   8.063   3.627 -0.1945  0.1522 -0.2886
   59MOL0    Cl 7700   3.250   8.044   3.480 -0.0509  0.6907 -0.5894
   59MOL0     C 7701   3.058   8.218   3.183  0.6973  0.0125  0.5626
   59MOL0     C 7702   3.145   8.200   3.074 -0.6188  0.6643 -0.2828
   59MOL0     O 7703   3.348   8.063   2.903  0.2487 -0.7903  0.0814
   59MOL0     C 7704   3.493   8.344   2.713  0.1488  0.2360  0.2318
   59MOL0     C 7705   3.588   8.359   2.611 -0.0649 -0.0983 -0.2698
   59MOL0     N 7706   3.703   8.687   1.887 -0.3579 -0.8165 -0.4955
   59MOL0     N 7707   3.648   8.731   1.778  0.6213 -0.1047  0.0035
   59MOL0     C 7708   3.208   8.773   0.723  0.0091 -0.7815 -0.9817
   59MOL0     C 7709   3.183   8.850   0.617 -0.5829 -1.2165  0.7478
   59MOL0     C 7710   2.978   9.194   0.399  0.3150 -0.2819 -0.8560
   59MOL0     C 7711   3.061   9.178   0.289 -0.2210 -0.0287  0.8358
   59MOL0     C 7712   3.021   9.225   0.162  0.6125  0.2128  0.4135
   59MOL0     C 7713   2.902   9.290   0.152 -0.2799  0.1370  0.7681
   59MOL0     O 7714   2.859   9.354   0.032 -0.7641  0.8971  0.5356
   59MOL0     C 7715   2.904   9.306  -0.102 -0.2746 -0.0231 -0.9712
   59MOL0     C 7716   2.819   9.194  -0.155 -0.2477  1.1597  0.1578
   59MOL0     C 7717   2.690   9.229  -0.217  0.2623  0.5567  0.2302
   59MOL0     C 7718   2.630   9.124  -0.324 -0.3045 -0.2760 -0.2823
   59MOL0     C 7719   2.686   8.983  -0.327 -1.2871 -0.9173 -0.1959
   59MOL0     C 7720   2.741   8.881  -0.317 -0.2959 -0.5330 -0.3193
   59MOL0     C 7721   2.819   9.315   0.261 -0.2661  0.3139  0.4905
   59MOL0     C 7722   2.863   9.274   0.383  1.1058  0.6876  0.1111
   59MOL0     H 7723   3.170   9.153   0.770 -0.1007  0.1374  1.7735
   59MOL0     H 7724   3.215   9.004   0.965 -0.4414  0.7265  0.4550
   59MOL0     H 7725   3.278   8.561   0.894  0.4571  0.7381  0.0041
   59MOL0     H 7726   3.095   8.593   0.912  0.1129  0.5420 -1.7771
   59MOL0     H 7727   3.289   8.541   1.134  1.0219 -1.1262  0.2532
   59MOL0     H 7728   3.154   8.432   1.076 -0.0714  0.3086  3.5757
   59MOL0     H 7729   2.994   8.559   1.157 -0.0330  1.0220 -1.1402
   59MOL0     H 7730   3.075   8.715   1.147 -1.2305  0.4703  1.3367
   59MOL0     H 7731   3.014   8.582   1.373  0.1167 -1.2009  0.7317
   59MOL0     H 7732   3.141   8.482   1.341  0.8956 -0.0488  0.0452
   59MOL0     H 7733   3.172   8.784   1.370 -2.0961 -1.6906 -2.9729
   59MOL0     H 7734   3.305   8.674   1.371 -1.0005  0.9266  0.1498
   59MOL0     H 7735   3.171   8.583   1.605 -2.1444  0.2092 -2.3509
   59MOL0     H 7736   3.104   8.748   1.600  1.7118  1.4999  1.0712
   59MOL0     H 7737   3.315   8.860   1.644 -1.1642 -0.3168  2.1224
   59MOL0     H 7738   3.285   8.730   1.750  2.7228  1.6323  1.3586
   59MOL0     H 7739   3.491   8.767   1.565 -1.1258  0.6667 -0.0498
   59MOL0     H 7740   3.443   8.598   1.590  1.5751  0.8185 -0.1545
   59MOL0     H 7741   3.405   8.538   1.885  0.3322  1.3644  3.4523
   59MOL0     H 7742   3.642   8.594   2.158 -1.7747 -1.4069  2.0975
   59MOL0     H 7743   3.748   8.493   2.044 -0.4287  0.6083 -0.8919
   59MOL0     H 7744   3.528   8.350   2.013  2.0301 -3.4187  0.4163
   59MOL0     H 7745   3.472   8.441   2.153 -1.4132 -0.0568 -1.0415
   59MOL0     H 7746   3.574   8.216   2.213 -0.4303  1.1395  4.7259
   59MOL0     H 7747   3.730   8.272   2.148  1.2292  0.1487  1.2312
   59MOL0     H 7748   3.581   8.423   2.367  0.0655  1.2222  0.1729
   59MOL0     H 7749   3.753   8.438   2.330  0.4867 -1.1918  0.9830
   59MOL0     H 7750   3.617   8.037   2.506  0.7743  1.4131 -1.5957
   59MOL0     H 7751   3.459   7.995   2.679 -3.3153  1.1740  2.9370
   59MOL0     H 7752   3.221   8.523   3.003 -2.3910  2.8156  2.2741
   59MOL0     H 7753   3.062   8.555   3.181  1.0452  0.5665 -1.5824
   59MOL0     H 7754   2.825   8.519   3.248  3.5746 -1.1032 -1.1710
   59MOL0     H 7755   2.932   8.574   3.380  2.0953 -0.8278  1.8789
   59MOL0     H 7756   2.679   8.406   3.415 -0.9534  0.8262 -0.8725
   59MOL0     H 7757   2.735   8.564   3.499 -0.8296 -0.0511 -1.0946
   59MOL0     H 7758   2.838   8.292   3.520  2.0505  0.5044 -0.9339
   59MOL0     H 7759   2.735   8.357   3.641 -0.3503  0.6665 -0.1418
   59MOL0     H 7760   3.018   8.452   3.576  1.0817 -1.4365  2.3827
   59MOL0     H 7761   2.904   8.558   3.677  1.9342  1.3203 -0.6684
   59MOL0     H 7762   2.902   8.381   3.845 -1.8797 -0.6976 -0.0230
   59MOL0     H 7763   3.061   8.427   3.783 -0.3619  1.0783 -3.2361
   59MOL0     H 7764   2.896   8.181   3.706  1.7693 -4.4056 -1.3295
   59MOL0     H 7765   3.020   8.178   3.835  1.4450 -3.1694 -3.1993
   59MOL0     H 7766   3.044   8.239   3.543 -1.2646  1.9827  2.1790
   59MOL0     H 7767   3.183   8.275   3.650 -0.4655  1.2875 -1.3276
   59MOL0     H 7768   3.074   7.988   3.618  1.0800 -1.0647 -1.9396
   59MOL0     H 7769   3.201   8.027   3.718 -0.4683 -1.9521 -0.9162
   59MOL0     H 7770   3.035   8.127   3.237  2.5269  0.4593  2.2222
   59MOL0     H 7771   3.150   8.096   3.042  0.9625  0.0668  1.6852
   59MOL0     H 7772   3.469   8.422   2.784 -2.7411  1.5250 -1.9167
   59MOL0     H 7773   3.634   8.456   2.595  0.2259 -0.2499 -0.3610
   59MOL0     H 7774   3.220   8.666   0.706 -0.2969 -1.0282  0.2572
   59MOL0     H 7775   3.173   8.814   0.515  2.2339  0.0065 -0.0733
   59MOL0     H 7776   3.164   9.146   0.300 -0.0541  0.1571 -0.0897
   59MOL0     H 7777   3.088   9.202   0.080 -0.5694 -1.0633 -0.2201
   59MOL0     H 7778   3.010   9.291  -0.121 -0.1608 -1.1737  0.4116
   59MOL0     H 7779   2.879   9.388  -0.170  1.1927  2.0553  0.8504
   59MOL0     H 7780   2.876   9.139  -0.230  3.1137  1.5417  2.1761
   59MOL0     H 7781   2.797   9.128  -0.071  1.4674  2.4337  1.6910
   59MOL0     H 7782   2.687   9.319  -0.279  0.8282 -0.1619 -0.8712
   59MOL0     H 7783   2.615   9.243  -0.139 -0.0702  0.3815 -0.0560
   59MOL0     H 7784   2.521   9.121  -0.317 -0.3426  0.8591 -0.1732
   59MOL0     H 7785   2.642   9.159  -0.426 -2.9396  0.0483 -0.5488
   59MOL0     H 7786   2.792   8.790  -0.294  1.0012  0.3626  0.4819
   59MOL0     H 7787   2.721   9.357   0.243 -0.4977  1.6406  4.0091
   59MOL0     H 7788   2.791   9.291   0.462  0.9315 -1.3548  0.4477
   60MOL0     O 7789  10.639   5.233  11.230  0.4364  0.2589  0.1391
   60MOL0     C 7790  10.525   5.227  11.276  0.1168  0.1487  1.1781
   60MOL0     O 7791  10.455   5.334  11.313  0.4314  0.1284  0.4102
   60MOL0     C 7792  10.510   5.463  11.309  0.7037  0.4276  0.6525
   60MOL0     C 7793  10.545   5.518  11.185 -0.4872 -0.2880 -0.8141
   60MOL0     C 7794  10.610   5.641  11.193  0.7554  0.0141 -0.3188
   60MOL0     C 7795  10.643   5.700  11.311 -0.8577  0.0537  0.3216
   60MOL0     O 7796  10.705   5.823  11.319  0.1480  0.9502 -1.2496
   60MOL0     C 7797  10.835   5.830  11.256  0.0102  0.2126 -0.3576
   60MOL0     C 7798  10.939   5.737  11.321  0.0663  0.9923 -0.0836
   60MOL0     C 7799  11.077   5.762  11.263 -0.8727  0.6845 -0.4120
   60MOL0     C 7800  11.186   5.671  11.320 -0.3902 -0.7611  0.7862
   60MOL0     C 7801  11.322   5.730  11.267  0.2128  0.7509 -0.0338
   60MOL0     C 7802  11.423   5.615  11.234 -0.2747  1.1428  0.6846
   60MOL0     C 7803  11.562   5.663  11.179  0.5545 -1.0305  0.4294
   60MOL0     C 7804  11.636   5.764  11.276  0.5651  0.2204 -0.5330
   60MOL0     N 7805  11.778   5.759  11.265  1.1364 -0.2592 -0.0212
   60MOL0     C 7806  11.831   5.831  11.173 -1.3657  0.0340  0.1502
   60MOL0     C 7807  11.972   5.804  11.190  1.4827 -0.6032 -0.0726
   60MOL0     C 7808  12.087   5.854  11.106  0.1585 -0.3143  0.2439
   60MOL0     C 7809  12.115   5.762  10.990  1.1403  0.2287  0.5207
   60MOL0     C 7810  12.249   5.766  10.934 -0.2833  0.1795  0.0014
   60MOL0     C 7811  12.298   5.904  10.902  0.4054  0.3632  0.0088
   60MOL0     O 7812  12.195   5.967  10.828 -0.2110 -0.6300 -0.3549
   60MOL0     C 7813  12.191   5.945  10.689 -0.7162 -0.5084  0.6063
   60MOL0     C 7814  12.113   5.850  10.629 -0.3271  0.4563  0.5013
   60MOL0     C 7815  12.097   5.843  10.493 -0.5121 -0.4120  0.4655
   60MOL0     C 7816  12.183   5.919  10.414 -0.5128  0.3983 -0.7432
   60MOL0     C 7817  12.170   5.919  10.259 -0.5148  0.0929 -0.4487
   60MOL0     O 7818  12.237   6.013  10.192 -0.1158  0.4662 -0.4647
   60MOL0     C 7819  12.237   6.007  10.058 -0.5451  0.8173 -0.3203
   60MOL0     C 7820  12.133   6.041   9.980  0.0968 -1.0294  0.2592
   60MOL0     C 7821  12.127   6.036   9.838  0.0672  0.4357  0.1987
   60MOL0     C 7822  12.243   5.988   9.778 -0.2038 -0.6666  0.3552
   60MOL0     O 7823  12.259   6.001   9.643 -0.9080 -0.2058  0.4033
   60MOL0     C 7824  12.225   5.889   9.560 -1.2818 -0.7367  0.1847
   60MOL0     C 7825  12.244   5.921   9.409 -0.5168  0.6781  0.3812
   60MOL0     C 7826  12.383   5.980   9.377  0.2559  0.2889 -0.0585
   60MOL0     C 7827  12.427   5.969   9.237  0.1916  0.1096  0.7453
   60MOL0     C 7828  12.580   5.995   9.219  0.2088  0.0698  0.0790
   60MOL0     C 7829  12.631   6.005   9.069 -0.1827  0.2475 -0.6164
   60MOL0     C 7830  12.775   6.073   9.053  0.4374  0.0083 -0.2851
   60MOL0     C 7831  12.883   6.020   9.149  0.0122 -0.4871  0.2017
   60MOL0    Cl 7832  12.945   5.864   9.128  0.3189  0.3148  0.0319
   60MOL0     C 7833  12.351   5.932   9.851  1.2253  0.4952 -0.5435
   60MOL0     C 7834  12.344   5.950   9.989 -0.5551 -0.2588  0.6373
   60MOL0     O 7835  12.093   5.848  10.210 -0.0325  0.8050 -0.1802
   60MOL0     C 7836  12.277   6.008  10.470  0.8483 -0.1592  1.6929
   60MOL0     C 7837  12.270   6.029  10.606  0.7963  0.3336 -0.3955
   60MOL0     N 7838  11.988   5.733  11.307  0.2231 -0.5760  0.4265
   60MOL0     N 7839  11.869   5.707  11.355  0.6960 -0.8831 -0.7093
   60MOL0     C 7840  10.606   5.645  11.433 -0.1439  0.2421 -0.2956
   60MOL0     C 7841  10.550   5.520  11.432  0.0680  0.1729  0.1096
   60MOL0     C 7842  10.450   5.100  11.259 -0.0261  0.6929 -0.2737
   60MOL0     C 7843  10.517   4.991  11.198 -0.0652 -0.4394 -0.6889
   60MOL0     C 7844  10.452   4.865  11.216 -0.3847 -0.2104 -0.1984
   60MOL0     C 7845  10.327   4.847  11.271  0.0134 -0.3054  0.6783
   60MOL0     O 7846  10.267   4.724  11.272 -0.6027  1.1785  0.5369
   60MOL0     C 7847  10.242   4.661  11.399  0.5946  0.0026  0.1426
   60MOL0     C 7848  10.257   4.514  11.370  0.4828  0.2650 -0.4426
   60MOL0     C 7849  10.163   4.454  11.266 -0.4210 -0.6360 -0.7168
   60MOL0     C 7850  10.043   4.375  11.317 -0.7732  0.0573  1.0159
   60MOL0     C 7851   9.989   4.428  11.443 -0.2218 -1.2621  0.4896
   60MOL0     C 7852   9.968   4.465  11.558 -0.2678  0.3196  0.1346
   60MOL0     C 7853  10.267   4.961  11.322  1.0045 -0.8931 -0.5822
   60MOL0     C 7854  10.326   5.082  11.316  0.0071 -0.3133  0.3498
   60MOL0     H 7855  10.521   5.482  11.085  0.0757 -2.5888 -0.1880
   60MOL0     H 7856  10.652   5.692  11.107 -0.6257  0.8660 -0.5081
   60MOL0     H 7857  10.864   5.935  11.269  0.1346  0.4570 -2.2965
   60MOL0     H 7858  10.827   5.831  11.147  3.1673 -0.5655 -0.6736
   60MOL0     H 7859  10.917   5.630  11.316  1.3696  0.5478  2.2087
   60MOL0     H 7860  10.932   5.762  11.427  0.4555  0.4944  0.0629
   60MOL0     H 7861  11.103   5.861  11.300 -2.5815  1.3508 -0.9279
   60MOL0     H 7862  11.070   5.761  11.154 -1.6370 -2.4847 -0.4258
   60MOL0     H 7863  11.191   5.667  11.430  4.8068  1.7650  0.9594
   60MOL0     H 7864  11.171   5.569  11.285 -1.2313 -0.0464 -1.0541
   60MOL0     H 7865  11.364   5.792  11.347  0.4936  2.6896 -1.5942
   60MOL0     H 7866  11.312   5.794  11.179  0.3643 -0.3236 -0.8415
   60MOL0     H 7867  11.387   5.550  11.153 -0.4506 -0.6010  2.1017
   60MOL0     H 7868  11.453   5.559  11.323  1.1834 -1.4104 -1.2691
   60MOL0     H 7869  11.634   5.586  11.150  3.0697  2.2645 -3.0081
   60MOL0     H 7870  11.543   5.719  11.087 -0.2117 -0.8225  0.7045
   60MOL0     H 7871  11.626   5.718  11.374 -1.1897 -0.6696 -1.0764
   60MOL0     H 7872  11.589   5.862  11.281  1.4238  0.6504 -0.6922
   60MOL0     H 7873  11.797   5.895  11.092  1.8969  0.0150 -1.3983
   60MOL0     H 7874  12.170   5.860  11.177 -1.6356 -0.3595  2.4793
   60MOL0     H 7875  12.065   5.958  11.078 -1.5506 -0.8086 -0.3985
   60MOL0     H 7876  12.045   5.777  10.908 -0.9143  0.5004  2.2271
   60MOL0     H 7877  12.104   5.660  11.029 -1.0071  1.0164  2.1082
   60MOL0     H 7878  12.323   5.723  11.002 -3.0307 -0.9862  2.4603
   60MOL0     H 7879  12.253   5.694  10.851 -2.1514 -0.7542  0.6745
   60MOL0     H 7880  12.390   5.903  10.842  0.7640  0.2339  0.5563
   60MOL0     H 7881  12.311   5.956  10.997  3.0278 -0.2815  0.0712
   60MOL0     H 7882  12.053   5.782  10.689  2.7394 -4.7100 -1.6673
   60MOL0     H 7883  12.026   5.772  10.450  0.6634 -2.1584  1.2908
   60MOL0     H 7884  12.047   6.085  10.029  0.9881  1.0696  0.0741
   60MOL0     H 7885  12.042   6.082   9.789  0.5435  0.5678 -0.5050
   60MOL0     H 7886  12.121   5.865   9.586 -0.5351 -1.3258  2.9654
   60MOL0     H 7887  12.283   5.799   9.582  1.8254  0.7004 -1.4705
   60MOL0     H 7888  12.171   5.992   9.369  1.3480  1.9017 -1.0415
   60MOL0     H 7889  12.241   5.829   9.349  0.9213  0.0869  1.1838
   60MOL0     H 7890  12.463   5.934   9.437 -0.0418  0.6480  0.6233
   60MOL0     H 7891  12.386   6.086   9.403 -3.1386  1.1149 -2.4081
   60MOL0     H 7892  12.413   5.869   9.196  0.0768  0.1852  0.5955
   60MOL0     H 7893  12.366   6.039   9.178  0.5758  1.0264  1.4044
   60MOL0     H 7894  12.635   5.911   9.262 -2.9881 -3.3349 -1.8738
   60MOL0     H 7895  12.597   6.094   9.263 -4.3682  0.9457  0.4197
   60MOL0     H 7896  12.554   6.045   9.002 -0.4879 -1.1842 -1.1512
   60MOL0     H 7897  12.621   5.901   9.038 -1.2299  0.2777 -0.4338
   60MOL0     H 7898  12.809   6.061   8.949  2.3661 -4.5033  0.5972
   60MOL0     H 7899  12.774   6.180   9.076  1.5118  0.3013 -1.4781
   60MOL0     H 7900  12.834   6.019   9.247 -1.7345  0.8743 -0.6128
   60MOL0     H 7901  12.962   6.095   9.151 -0.4283  0.1311 -2.5353
   60MOL0     H 7902  12.439   5.889   9.803 -0.2274 -0.5528 -2.4172
   60MOL0     H 7903  12.416   5.905  10.057  0.8482 -2.2061 -1.9224
   60MOL0     H 7904  12.332   6.070  10.400 -0.6531  1.0135  1.5142
   60MOL0     H 7905  12.317   6.115  10.653  1.1435 -0.3482  0.5250
   60MOL0     H 7906  10.642   5.689  11.525 -1.3045 -2.0687  1.3597
   60MOL0     H 7907  10.546   5.462  11.523 -1.7462 -3.7323 -2.1864
   60MOL0     H 7908  10.617   5.003  11.157  0.0682 -0.6597 -0.4255
   60MOL0     H 7909  10.497   4.783  11.160  0.1483 -0.7789  1.0235
   60MOL0     H 7910  10.142   4.699  11.420  0.8706  0.0554  1.4106
   60MOL0     H 7911  10.304   4.690  11.484 -1.0593 -1.2392  1.8642
   60MOL0     H 7912  10.360   4.504  11.335  1.1924 -0.1884  1.6115
   60MOL0     H 7913  10.265   4.458  11.464  0.1287  0.8992 -0.0292
   60MOL0     H 7914  10.219   4.384  11.203  1.5220 -1.1104  1.3998
   60MOL0     H 7915  10.135   4.542  11.208  2.4802  0.5629 -0.5125
   60MOL0     H 7916   9.964   4.361  11.243  1.0713 -2.5496 -0.6035
   60MOL0     H 7917  10.088   4.277  11.335  1.9542  1.0598  0.1735
   60MOL0     H 7918   9.956   4.515  11.652 -1.5272  3.8076 -1.7136
   60MOL0     H 7919  10.168   4.953  11.365  2.4203 -1.7841  2.8452
   60MOL0     H 7920  10.271   5.168  11.352 -3.6114 -1.8317 -1.1472
   61MOL0     O 7921   4.572   4.573  11.352 -0.4995  0.5512 -0.6980
   61MOL0     C 7922   4.454   4.551  11.369 -0.3817 -0.3504 -0.4336
   61MOL0     O 7923   4.399   4.527  11.491 -0.3571 -0.0129  0.1556
   61MOL0     C 7924   4.462   4.558  11.612  0.1942  1.1268  0.0323
   61MOL0     C 7925   4.591   4.504  11.656  0.1287  0.3552  0.2147
   61MOL0     C 7926   4.653   4.539  11.770 -0.2992  0.3056 -0.2970
   61MOL0     C 7927   4.596   4.629  11.860  0.1218  0.6257  0.5480
   61MOL0     O 7928   4.639   4.662  11.984  0.1682 -0.3339  0.8610
   61MOL0     C 7929   4.778   4.667  12.018 -1.2133  0.5595  0.3857
   61MOL0     C 7930   4.796   4.732  12.156 -0.7026 -1.3018 -0.0344
   61MOL0     C 7931   4.940   4.726  12.227  0.7257 -0.0084  0.1634
   61MOL0     C 7932   4.925   4.827  12.356 -0.7235  0.1696  1.0420
   61MOL0     C 7933   4.938   4.751  12.481  0.2913  0.2791 -0.5877
   61MOL0     C 7934   4.916   4.856  12.595 -1.0851  0.5040 -0.1774
   61MOL0     C 7935   4.941   4.788  12.732 -0.2796 -0.7059  0.8455
   61MOL0     C 7936   4.875   4.883  12.839 -0.0488 -0.2688  0.8453
   61MOL0     N 7937   4.839   4.808  12.959 -0.7220  0.0376  0.5104
   61MOL0     C 7938   4.852   4.671  12.977 -0.5857 -0.4360  0.4674
   61MOL0     C 7939   4.805   4.651  13.105  0.0510  1.5106  0.6682
   61MOL0     C 7940   4.775   4.522  13.171 -0.1935  0.4985  0.1688
   61MOL0     C 7941   4.886   4.470  13.269 -0.3583 -0.1037  0.1141
   61MOL0     C 7942   4.850   4.325  13.309  0.0165 -1.3086 -0.0832
   61MOL0     C 7943   4.932   4.257  13.416  0.3873  0.3734 -0.4731
   61MOL0     O 7944   4.882   4.132  13.465 -0.2405 -0.1038  0.0366
   61MOL0     C 7945   4.959   4.047  13.541 -0.5648  0.2712 -0.3412
   61MOL0     C 7946   5.103   4.064  13.557 -0.5692 -0.4057  0.0830
   61MOL0     C 7947   5.167   3.995  13.659 -0.1350 -0.7620 -0.3467
   61MOL0     C 7948   5.107   3.901  13.749  0.1329  0.2554  0.2085
   61MOL0     C 7949   5.168   3.824  13.854 -0.3784 -0.2985 -0.3080
   61MOL0     O 7950   5.094   3.733  13.918 -0.4259  0.4687  0.4022
   61MOL0     C 7951   5.146   3.669  14.021  0.0912 -0.2514  0.2639
   61MOL0     C 7952   5.136   3.735  14.143 -0.0706  0.9610  0.4017
   61MOL0     C 7953   5.184   3.681  14.262 -0.9762 -0.2285  0.4827
   61MOL0     C 7954   5.243   3.551  14.251  1.2488 -0.3701 -0.2717
   61MOL0     O 7955   5.288   3.494  14.366  0.3625 -0.2604 -0.0710
   61MOL0     C 7956   5.412   3.545  14.421 -0.0681  0.6866  0.2764
   61MOL0     C 7957   5.510   3.448  14.374  0.1158  0.3771  0.4647
   61MOL0     C 7958   5.644   3.458  14.448 -0.0238  0.1477  0.3405
   61MOL0     C 7959   5.632   3.406  14.596  0.0369  0.2141 -1.6587
   61MOL0     C 7960   5.761   3.430  14.677  0.5124 -1.5359  0.3073
   61MOL0     C 7961   5.750   3.415  14.832  0.3990  0.8455 -0.3906
   61MOL0     C 7962   5.884   3.420  14.908 -0.6245 -0.1473  0.4349
   61MOL0     C 7963   5.986   3.314  14.865 -1.0213  0.8465  0.0752
   61MOL0    Cl 7964   6.149   3.378  14.911  0.4548  0.2064  0.2114
   61MOL0     C 7965   5.254   3.488  14.130 -0.3278  1.0364 -0.7528
   61MOL0     C 7966   5.203   3.547  14.020  0.7183  0.4513 -0.2655
   61MOL0     O 7967   5.288   3.857  13.881 -0.3114 -0.2986 -0.3424
   61MOL0     C 7968   4.966   3.875  13.714  0.0532 -1.0025 -0.8071
   61MOL0     C 7969   4.892   3.943  13.616  0.1680  0.4363 -0.2686
   61MOL0     N 7970   4.791   4.772  13.168  0.7714  0.0938 -0.8114
   61MOL0     N 7971   4.809   4.862  13.080 -0.2643  0.8051 -0.3040
   61MOL0     C 7972   4.477   4.694  11.831 -0.0093 -0.3482 -0.2367
   61MOL0     C 7973   4.417   4.659  11.701  0.2541 -0.1193  0.1189
   61MOL0     C 7974   4.368   4.541  11.254 -0.4037 -0.0630  0.4112
   61MOL0     C 7975   4.233   4.501  11.271  0.1293 -0.1629 -0.1902
   61MOL0     C 7976   4.138   4.486  11.164 -1.2778  0.0014  0.6792
   61MOL0     C 7977   4.187   4.505  11.040 -0.4142  0.5458 -0.1274
   61MOL0     O 7978   4.120   4.495  10.915  0.2785 -0.4823 -0.5141
   61MOL0     C 7979   4.003   4.415  10.922 -0.2834 -0.9007  0.8107
   61MOL0     C 7980   4.044   4.271  10.939 -0.2437  0.4245 -0.3038
   61MOL0     C 7981   4.103   4.194  10.810 -0.1899 -0.1607  0.5707
   61MOL0     C 7982   4.057   4.048  10.805  0.9654 -0.3740  1.1846
   61MOL0     C 7983   4.153   3.954  10.752 -0.0003 -1.6331 -0.3371
   61MOL0     C 7984   4.245   3.895  10.708 -0.5656  0.9841  0.6285
   61MOL0     C 7985   4.318   4.535  11.010 -0.2650  0.3547 -0.2907
   61MOL0     C 7986   4.406   4.554  11.113 -0.4432 -0.4725  0.1207
   61MOL0     H 7987   4.644   4.440  11.586 -1.1280  0.2332 -0.6847
   61MOL0     H 7988   4.746   4.490  11.798 -1.0367 -0.6951  0.4561
   61MOL0     H 7989   4.825   4.734  11.946 -3.0265  0.8298 -0.5948
   61MOL0     H 7990   4.821   4.566  12.009 -1.0054  0.5413  1.5040
   61MOL0     H 7991   4.729   4.676  12.222 -2.8521  0.8431 -0.2388
   61MOL0     H 7992   4.753   4.832  12.151  0.5624 -0.7289  0.2140
   61MOL0     H 7993   5.010   4.753  12.147 -0.0507 -3.2882 -1.8301
   61MOL0     H 7994   4.972   4.626  12.258  0.6975  0.0093  0.2491
   61MOL0     H 7995   5.004   4.902  12.348  0.5342 -0.5640  4.8322
   61MOL0     H 7996   4.830   4.880  12.366  0.4519  2.2616  1.7008
   61MOL0     H 7997   5.032   4.697  12.493 -0.6511 -1.2165  0.3549
   61MOL0     H 7998   4.858   4.676  12.483 -1.6207  2.2201 -0.6479
   61MOL0     H 7999   4.820   4.906  12.585 -3.0633 -2.8823  0.4951
   61MOL0     H 8000   4.991   4.936  12.589 -1.5118  0.8351 -1.4992
   61MOL0     H 8001   4.900   4.687  12.730 -2.0261 -0.0449 -1.6674
   61MOL0     H 8002   5.050   4.790  12.746 -0.1721 -0.9865  0.0887
   61MOL0     H 8003   4.777   4.908  12.798  0.7836 -0.3116 -1.2828
   61MOL0     H 8004   4.930   4.977  12.855 -3.2576  2.2966 -1.7690
   61MOL0     H 8005   4.901   4.596  12.916  2.5829  1.2191  0.7426
   61MOL0     H 8006   4.772   4.444  13.094  4.1069 -1.8120  1.9875
   61MOL0     H 8007   4.677   4.526  13.219 -0.3644 -0.5741 -0.0753
   61MOL0     H 8008   4.893   4.537  13.355  2.1719  0.8912 -0.7642
   61MOL0     H 8009   4.985   4.468  13.221  0.1148 -0.6469  1.0580
   61MOL0     H 8010   4.745   4.337  13.338 -0.4415  3.4383 -2.7451
   61MOL0     H 8011   4.851   4.262  13.220 -0.2302  1.2000 -1.9644
   61MOL0     H 8012   4.955   4.325  13.499 -1.3898  1.8923 -1.1583
   61MOL0     H 8013   5.029   4.245  13.367  2.9341 -0.4282  4.1969
   61MOL0     H 8014   5.148   4.154  13.517 -0.9809  0.4226  1.4424
   61MOL0     H 8015   5.269   4.026  13.675 -0.2318 -1.3980  1.8518
   61MOL0     H 8016   5.111   3.841  14.137 -1.0118  0.7523  0.4984
   61MOL0     H 8017   5.186   3.722  14.363  1.7118 -1.9149  1.2089
   61MOL0     H 8018   5.407   3.546  14.530 -0.6447 -3.2203  0.4429
   61MOL0     H 8019   5.445   3.646  14.394  2.7594  0.6265  2.9697
   61MOL0     H 8020   5.525   3.465  14.267 -1.4524  1.0334  0.3223
   61MOL0     H 8021   5.468   3.349  14.396  1.5615  0.1947  2.6898
   61MOL0     H 8022   5.673   3.563  14.454 -2.8211  1.0020  0.1200
   61MOL0     H 8023   5.722   3.407  14.391 -0.4450 -0.3738  0.2252
   61MOL0     H 8024   5.544   3.449  14.644  0.0718  1.0033 -2.2778
   61MOL0     H 8025   5.615   3.299  14.581 -0.8801  0.3606 -1.6910
   61MOL0     H 8026   5.788   3.536  14.664 -1.7226 -0.6408  2.1901
   61MOL0     H 8027   5.831   3.363  14.628 -0.0226 -2.8856  1.3209
   61MOL0     H 8028   5.709   3.315  14.849  2.1971 -0.3295 -2.5776
   61MOL0     H 8029   5.686   3.488  14.883  0.6202  1.0911 -0.4625
   61MOL0     H 8030   5.921   3.520  14.886 -0.4404 -0.9342 -3.6367
   61MOL0     H 8031   5.856   3.409  15.014  1.2747  3.0960  1.4223
   61MOL0     H 8032   5.989   3.307  14.756  1.5685 -1.4617  0.1884
   61MOL0     H 8033   5.966   3.211  14.895  0.6714 -0.7968 -3.7545
   61MOL0     H 8034   5.300   3.390  14.141 -2.7575  0.1569  4.0641
   61MOL0     H 8035   5.202   3.491  13.927 -1.9795 -1.2897  0.6905
   61MOL0     H 8036   4.907   3.813  13.780 -4.1821  6.4715  3.9156
   61MOL0     H 8037   4.789   3.909  13.603  0.1307  0.9059 -1.3254
   61MOL0     H 8038   4.435   4.761  11.905 -0.2901  0.4167 -1.0577
   61MOL0     H 8039   4.327   4.710  11.668  0.7119  0.0733 -0.8584
   61MOL0     H 8040   4.186   4.474  11.366 -0.6845 -0.0269 -0.5469
   61MOL0     H 8041   4.035   4.456  11.178 -1.2209  0.4873  2.4623
   61MOL0     H 8042   3.956   4.444  10.827  1.1715 -0.9042  0.0581
   61MOL0     H 8043   3.929   4.444  10.997 -1.3606  1.0756 -0.9149
   61MOL0     H 8044   4.106   4.256  11.028  1.7550  2.4627 -1.2571
   61MOL0     H 8045   3.947   4.229  10.968 -0.9177  0.8911 -1.7904
   61MOL0     H 8046   4.211   4.213  10.804  0.3974 -2.1465  3.1643
   61MOL0     H 8047   4.067   4.240  10.717 -0.8635  1.0682  1.4094
   61MOL0     H 8048   4.041   4.018  10.909  1.1675  0.1069  1.3550
   61MOL0     H 8049   3.960   4.042  10.755  2.0646 -0.9820 -1.0068
   61MOL0     H 8050   4.308   3.831  10.650 -2.3796  2.0287 -2.7672
   61MOL0     H 8051   4.350   4.566  10.910  0.8211 -3.1255 -1.1652
   61MOL0     H 8052   4.508   4.581  11.087 -1.6683  2.2552 -2.4177
   62MOL0     O 8053   4.439   1.893   9.879  0.0182 -0.5595  0.7566
   62MOL0     C 8054   4.439   1.972   9.782 -0.4159  0.2427 -0.6761
   62MOL0     O 8055   4.539   1.992   9.703 -0.2334  0.0212 -0.0177
   62MOL0     C 8056   4.652   1.911   9.707 -0.1140  0.6165  1.2232
   62MOL0     C 8057   4.768   1.965   9.688 -0.2223  0.2367 -0.3450
   62MOL0     C 8058   4.883   1.882   9.678  0.5850 -0.6723 -0.6891
   62MOL0     C 8059   4.872   1.749   9.690 -0.5576  0.0675  0.0149
   62MOL0     O 8060   4.985   1.666   9.680  0.3717  0.1986 -0.4306
   62MOL0     C 8061   5.072   1.708   9.583 -0.9343  0.0007 -0.1100
   62MOL0     C 8062   5.149   1.590   9.523 -0.4920  0.4417  0.6047
   62MOL0     C 8063   5.072   1.471   9.460 -0.7134  0.6703 -0.3852
   62MOL0     C 8064   4.966   1.515   9.359  0.3707 -0.7990  0.1018
   62MOL0     C 8065   4.908   1.403   9.277 -0.9635  0.6200  0.0414
   62MOL0     C 8066   5.007   1.330   9.191 -0.1186 -0.1530 -0.4224
   62MOL0     C 8067   4.940   1.227   9.103 -0.8444  0.9836  0.1445
   62MOL0     C 8068   4.945   1.094   9.177  0.5431 -0.4448  0.3764
   62MOL0     N 8069   4.887   0.981   9.100 -0.5345  0.9348  0.2287
   62MOL0     C 8070   4.751   0.951   9.067 -0.6556 -0.2857  0.0165
   62MOL0     C 8071   4.752   0.849   8.983  0.7847  0.0873 -0.5593
   62MOL0     C 8072   4.630   0.798   8.919  0.1585 -0.6594  0.0248
   62MOL0     C 8073   4.640   0.801   8.764  0.4183 -1.0913  0.1702
   62MOL0     C 8074   4.516   0.739   8.706  0.2883 -0.8379  0.6196
   62MOL0     C 8075   4.531   0.725   8.560 -0.3987  0.6019 -0.5663
   62MOL0     O 8076   4.429   0.637   8.511 -0.2116  0.5034  0.4694
   62MOL0     C 8077   4.414   0.603   8.380  0.1650 -0.1648 -0.2080
   62MOL0     C 8078   4.506   0.616   8.284  0.1638 -1.3190 -0.5752
   62MOL0     C 8079   4.463   0.596   8.153  0.2620  0.2839 -0.1539
   62MOL0     C 8080   4.334   0.539   8.128 -0.4897  0.2801 -0.4799
   62MOL0     C 8081   4.284   0.511   7.992 -0.1647 -0.0333  0.0275
   62MOL0     O 8082   4.163   0.446   7.975 -0.1804  0.0300 -0.6534
   62MOL0     C 8083   4.117   0.436   7.851 -0.4290 -0.2253 -0.7026
   62MOL0     C 8084   4.036   0.535   7.804 -1.0305  0.3962 -0.2145
   62MOL0     C 8085   3.985   0.525   7.676 -0.0489 -0.1908 -0.3774
   62MOL0     C 8086   4.008   0.416   7.595 -0.8837 -0.8386  0.4055
   62MOL0     O 8087   3.917   0.407   7.490  0.0419  0.8315  0.1193
   62MOL0     C 8088   3.943   0.321   7.380  0.5216  0.2478 -0.2853
   62MOL0     C 8089   3.892   0.372   7.243 -0.5614  0.0104 -0.4422
   62MOL0     C 8090   3.943   0.256   7.146 -0.7230 -0.0829 -0.8295
   62MOL0     C 8091   3.930   0.297   6.997  0.3861 -0.5146 -0.3316
   62MOL0     C 8092   3.970   0.172   6.918  0.9195  1.0146 -0.8670
   62MOL0     C 8093   3.865   0.053   6.922 -0.4719 -0.7070  0.5388
   62MOL0     C 8094   3.940  -0.086   6.878  0.3739  0.8822 -0.0617
   62MOL0     C 8095   3.853  -0.203   6.864 -0.6255 -0.3913 -0.0180
   62MOL0    Cl 8096   3.935  -0.361   6.850 -0.3679 -0.2648  0.0931
   62MOL0     C 8097   4.093   0.312   7.641  0.5578 -0.5562 -0.7275
   62MOL0     C 8098   4.143   0.326   7.767 -0.1737  0.6300  0.7407
   62MOL0     O 8099   4.342   0.577   7.904  0.3962  0.8296  0.1581
   62MOL0     C 8100   4.245   0.508   8.236  1.2307 -0.1464  0.4005
   62MOL0     C 8101   4.288   0.545   8.356 -0.7618  0.0570 -0.8050
   62MOL0     N 8102   4.886   0.822   8.954 -0.1778  1.3703  0.3336
   62MOL0     N 8103   4.962   0.893   9.028 -0.9542 -0.4214 -0.4015
   62MOL0     C 8104   4.747   1.689   9.712 -0.3275  0.0651 -0.5316
   62MOL0     C 8105   4.634   1.774   9.720  0.9294 -0.7748  0.1516
   62MOL0     C 8106   4.315   2.046   9.763 -0.0459 -0.3188  0.5788
   62MOL0     C 8107   4.194   2.000   9.809 -0.0694  0.0444 -0.1505
   62MOL0     C 8108   4.077   2.077   9.792  0.5754 -0.5359 -0.5876
   62MOL0     C 8109   4.070   2.187   9.712 -0.7908  0.3928  0.6417
   62MOL0     O 8110   3.959   2.247   9.670 -0.0942  0.1553  0.2965
   62MOL0     C 8111   3.825   2.218   9.711 -0.3622  0.0340  0.3457
   62MOL0     C 8112   3.755   2.096   9.645 -1.0776 -0.7971  0.8750
   62MOL0     C 8113   3.602   2.099   9.672 -0.4724 -1.3710  0.2500
   62MOL0     C 8114   3.564   2.096   9.827 -1.0062  0.0405 -0.1754
   62MOL0     C 8115   3.558   1.962   9.867  0.6905  0.7465 -0.4049
   62MOL0     C 8116   3.539   1.842   9.873  0.5112 -0.6675 -0.5263
   62MOL0     C 8117   4.194   2.222   9.656 -0.1886  0.3414  0.3626
   62MOL0     C 8118   4.316   2.164   9.685 -0.2190  0.0454 -0.3144
   62MOL0     H 8119   4.780   2.073   9.684 -2.1075  0.6420  2.2204
   62MOL0     H 8120   4.974   1.938   9.696  0.1466 -0.6067  1.6691
   62MOL0     H 8121   5.138   1.785   9.623 -1.7770 -0.0398  1.4110
   62MOL0     H 8122   5.028   1.760   9.497  1.8833  1.6261 -0.7092
   62MOL0     H 8123   5.215   1.545   9.597 -1.3068 -4.2206 -1.2078
   62MOL0     H 8124   5.207   1.640   9.445 -1.7415 -1.1024 -1.3947
   62MOL0     H 8125   5.031   1.418   9.546  4.2610 -4.7971 -0.7651
   62MOL0     H 8126   5.141   1.401   9.412  0.5114 -0.1564  2.3779
   62MOL0     H 8127   4.886   1.557   9.420  1.0838  1.5948 -0.5179
   62MOL0     H 8128   5.010   1.588   9.291  0.6051  1.0086  2.0598
   62MOL0     H 8129   4.839   1.447   9.204  0.7766  0.3281 -1.8845
   62MOL0     H 8130   4.858   1.347   9.356  1.7023  2.4323  3.2732
   62MOL0     H 8131   5.085   1.280   9.250  2.3915  2.2623 -1.4852
   62MOL0     H 8132   5.069   1.397   9.130  2.9405 -1.4243  1.0512
   62MOL0     H 8133   4.844   1.263   9.064  1.5089  3.2083 -4.2931
   62MOL0     H 8134   5.008   1.217   9.018  0.3602  2.4595  0.8991
   62MOL0     H 8135   4.898   1.093   9.275  1.0664 -1.7685  0.6304
   62MOL0     H 8136   5.050   1.071   9.194 -0.4574 -3.4370  3.6025
   62MOL0     H 8137   4.670   1.013   9.103 -0.6461 -0.4132  0.2560
   62MOL0     H 8138   4.539   0.847   8.954 -0.7458 -2.0021 -0.3874
   62MOL0     H 8139   4.608   0.694   8.945 -4.1003 -1.1013 -3.8844
   62MOL0     H 8140   4.726   0.738   8.741  2.2375  0.7284  1.5477
   62MOL0     H 8141   4.663   0.902   8.728  0.8861 -1.3678 -0.3065
   62MOL0     H 8142   4.498   0.639   8.748 -1.6080 -0.6444  0.3827
   62MOL0     H 8143   4.431   0.798   8.743 -0.4025 -0.9275 -0.7487
   62MOL0     H 8144   4.635   0.704   8.532  0.5943  0.6601  2.7041
   62MOL0     H 8145   4.495   0.814   8.508 -1.2609 -1.3513 -3.6462
   62MOL0     H 8146   4.598   0.660   8.323  1.7882 -4.0966 -0.9979
   62MOL0     H 8147   4.523   0.630   8.069  1.1953  2.5297  1.3146
   62MOL0     H 8148   4.023   0.622   7.867 -0.5472  0.8669 -0.7435
   62MOL0     H 8149   3.904   0.591   7.647 -1.6959 -1.0280  2.0567
   62MOL0     H 8150   3.884   0.229   7.392 -0.3117  0.7496 -0.4681
   62MOL0     H 8151   4.048   0.292   7.381  0.7336  1.0116  0.5965
   62MOL0     H 8152   3.954   0.459   7.219  1.4381 -0.9052  1.0933
   62MOL0     H 8153   3.784   0.389   7.246 -0.2478  2.0836  0.0062
   62MOL0     H 8154   3.893   0.159   7.160  2.0642 -1.4337  0.6852
   62MOL0     H 8155   4.049   0.231   7.159 -0.8711 -1.8978 -2.5752
   62MOL0     H 8156   3.831   0.340   6.979 -0.3362 -1.7338  0.5894
   62MOL0     H 8157   4.006   0.374   6.979  0.9412 -0.7540  0.8883
   62MOL0     H 8158   4.065   0.128   6.949  2.2913  2.3971 -2.8704
   62MOL0     H 8159   3.998   0.182   6.813 -0.4505  0.4923 -1.3079
   62MOL0     H 8160   3.784   0.061   6.849 -0.0767 -0.8597  0.0726
   62MOL0     H 8161   3.812   0.034   7.016 -2.2898 -1.2278 -0.5510
   62MOL0     H 8162   3.987  -0.066   6.781  0.2407  0.6436 -0.1770
   62MOL0     H 8163   4.011  -0.127   6.950 -2.3518  0.1404  2.3926
   62MOL0     H 8164   3.775  -0.174   6.793  0.0112  2.7062  0.4181
   62MOL0     H 8165   3.801  -0.209   6.960 -3.2510 -0.8258 -1.3831
   62MOL0     H 8166   4.112   0.232   7.570  0.0504  1.0151 -2.7223
   62MOL0     H 8167   4.212   0.248   7.797  0.2375 -0.0640 -1.7778
   62MOL0     H 8168   4.153   0.452   8.229  0.2493  1.5806 -1.6011
   62MOL0     H 8169   4.224   0.535   8.443  1.7215  2.3159  1.4707
   62MOL0     H 8170   4.752   1.582   9.726  2.7977 -0.1190 -2.1527
   62MOL0     H 8171   4.534   1.733   9.730  0.2833  0.1114 -2.0552
   62MOL0     H 8172   4.191   1.902   9.855 -2.9423 -0.3496 -1.0256
   62MOL0     H 8173   3.978   2.046   9.824 -0.0935  2.2930  0.4224
   62MOL0     H 8174   3.759   2.304   9.695 -0.0039 -0.1582 -2.8654
   62MOL0     H 8175   3.817   2.205   9.819  1.0617  3.3136  0.9730
   62MOL0     H 8176   3.780   2.103   9.539 -2.9527 -0.7574  0.4041
   62MOL0     H 8177   3.785   2.000   9.689 -1.4812 -0.2767  2.3437
   62MOL0     H 8178   3.546   2.017   9.626 -3.4116 -0.3196  1.6564
   62MOL0     H 8179   3.556   2.188   9.626 -1.4548 -2.7715 -1.6117
   62MOL0     H 8180   3.631   2.161   9.884  0.2837 -1.8111  0.5236
   62MOL0     H 8181   3.458   2.120   9.843 -2.2801 -1.9791 -4.3136
   62MOL0     H 8182   3.516   1.738   9.881 -0.5711 -0.2483  3.8397
   62MOL0     H 8183   4.191   2.312   9.595 -0.6770  0.4175  0.4953
   62MOL0     H 8184   4.415   2.200   9.657 -0.2148  1.2278  1.1141
   63MOL0     O 8185   6.440   8.148   8.773 -0.0099 -0.2855 -0.3187
   63MOL0     C 8186   6.359   8.068   8.729 -0.3878  0.6685 -0.0578
   63MOL0     O 8187   6.316   8.059   8.598  0.5119  0.2232  0.2896
   63MOL0     C 8188   6.392   8.133   8.514  0.0861 -0.7469  0.0944
   63MOL0     C 8189   6.367   8.267   8.502  0.1246  0.2554  0.5014
   63MOL0     C 8190   6.447   8.342   8.420  0.2830  0.3996  0.1278
   63MOL0     C 8191   6.544   8.287   8.328  0.7139  0.2224 -0.0858
   63MOL0     O 8192   6.617   8.352   8.233  0.1162  0.4496 -0.3839
   63MOL0     C 8193   6.644   8.495   8.227 -0.1076 -0.7284 -0.0220
   63MOL0     C 8194   6.731   8.529   8.367 -0.2572 -0.2616  0.1908
   63MOL0     C 8195   6.775   8.666   8.372  0.1019 -0.3435  0.3482
   63MOL0     C 8196   6.886   8.704   8.272 -0.3820  0.4672 -0.1472
   63MOL0     C 8197   6.948   8.834   8.303 -0.2953 -0.1180 -1.5213
   63MOL0     C 8198   7.071   8.877   8.216 -0.9887  0.2059  0.0763
   63MOL0     C 8199   7.113   9.029   8.249  0.6658 -0.0975 -0.4942
   63MOL0     C 8200   7.128   9.113   8.134  0.2025 -0.4413  0.7712
   63MOL0     N 8201   7.184   9.242   8.174  0.3987  0.2770 -0.5045
   63MOL0     C 8202   7.318   9.281   8.159 -0.4517  0.2064  0.1456
   63MOL0     C 8203   7.320   9.410   8.195 -0.8796  0.1417  0.0061
   63MOL0     C 8204   7.447   9.486   8.202 -0.7493  1.1135 -0.0277
   63MOL0     C 8205   7.528   9.493   8.081  0.8218  0.1617  0.3963
   63MOL0     C 8206   7.452   9.542   7.956  0.1516  0.3111  0.3172
   63MOL0     C 8207   7.539   9.518   7.832  0.2019 -0.0135  0.5887
   63MOL0     O 8208   7.671   9.578   7.849 -0.7767  0.4540 -0.1055
   63MOL0     C 8209   7.727   9.641   7.744 -0.6611 -0.0292  0.2000
   63MOL0     C 8210   7.822   9.742   7.775  0.6173  0.5134  0.4215
   63MOL0     C 8211   7.904   9.793   7.671 -0.7097 -0.1701  0.2592
   63MOL0     C 8212   7.884   9.754   7.540  0.4416  0.7628  0.5187
   63MOL0     C 8213   7.957   9.817   7.429 -0.2698 -0.2582 -0.2934
   63MOL0     O 8214   8.061   9.901   7.464 -0.1881  0.1665 -0.6272
   63MOL0     C 8215   8.125  10.007   7.395 -0.4038 -0.3320  0.6275
   63MOL0     C 8216   8.216  10.093   7.458 -0.9481 -1.4623 -0.6660
   63MOL0     C 8217   8.267  10.212   7.401 -0.3141  0.5834  0.6117
   63MOL0     C 8218   8.215  10.248   7.269  0.5222 -0.1840 -0.1089
   63MOL0     O 8219   8.263  10.348   7.190 -0.7224  0.3118 -0.0041
   63MOL0     C 8220   8.226  10.470   7.242  0.8209 -0.6043 -1.6606
   63MOL0     C 8221   8.261  10.565   7.134  0.3267 -0.0010  0.2294
   63MOL0     C 8222   8.246  10.708   7.180 -0.4439 -0.0846 -0.8199
   63MOL0     C 8223   8.308  10.790   7.069 -0.0343  0.0304 -0.1573
   63MOL0     C 8224   8.460  10.765   7.031  0.0719  0.1513  0.2691
   63MOL0     C 8225   8.537  10.892   6.979  0.0944  0.5107 -0.0922
   63MOL0     C 8226   8.685  10.871   6.956 -0.3684 -0.7995 -0.5161
   63MOL0     C 8227   8.733  10.991   6.880  0.1488 -0.7500  0.1416
   63MOL0    Cl 8228   8.710  10.950   6.715 -0.1308 -0.6024  0.2002
   63MOL0     C 8229   8.137  10.162   7.199  0.2119 -0.7839  1.2129
   63MOL0     C 8230   8.090  10.042   7.258 -0.3356 -0.0759  0.1015
   63MOL0     O 8231   7.926   9.792   7.310  0.0213 -0.6656 -0.1308
   63MOL0     C 8232   7.788   9.664   7.505  0.2496 -0.1719 -1.0555
   63MOL0     C 8233   7.713   9.607   7.606 -0.3583  0.3549  0.8825
   63MOL0     N 8234   7.196   9.458   8.199  0.0789 -0.4054  0.2189
   63MOL0     N 8235   7.111   9.361   8.186 -0.0850 -0.2530 -0.1476
   63MOL0     C 8236   6.554   8.150   8.340  0.9438 -0.4842  1.2771
   63MOL0     C 8237   6.491   8.072   8.440 -0.6202 -0.5840  0.0544
   63MOL0     C 8238   6.300   7.961   8.812 -0.7653 -0.2466 -0.8711
   63MOL0     C 8239   6.310   7.831   8.778 -0.2012 -0.4548  0.8958
   63MOL0     C 8240   6.260   7.733   8.859 -0.1062  0.1631  0.5845
   63MOL0     C 8241   6.196   7.765   8.977  0.4045  0.7332  0.3432
   63MOL0     O 8242   6.145   7.672   9.059 -0.1014 -0.3466 -0.4573
   63MOL0     C 8243   6.106   7.542   9.020  0.5909  0.2654 -0.6944
   63MOL0     C 8244   6.215   7.430   9.059 -0.0458 -0.1641  0.5126
   63MOL0     C 8245   6.210   7.388   9.210  0.5055  0.0987 -0.1193
   63MOL0     C 8246   6.264   7.244   9.226 -0.5553  0.9061  0.9179
   63MOL0     C 8247   6.267   7.194   9.363  0.5176 -1.2338  0.0795
   63MOL0     C 8248   6.281   7.163   9.482 -0.5196  0.7560  0.1069
   63MOL0     C 8249   6.186   7.892   9.010 -0.2683 -0.4596 -0.0185
   63MOL0     C 8250   6.227   7.994   8.922 -0.0918  0.0259 -0.0749
   63MOL0     H 8251   6.290   8.308   8.566  0.8985  0.8651  1.0635
   63MOL0     H 8252   6.421   8.447   8.411 -1.8940 -0.1901 -1.1022
   63MOL0     H 8253   6.548   8.548   8.215  0.2166  0.1200  0.9956
   63MOL0     H 8254   6.714   8.509   8.145  2.2167 -4.2600  1.1778
   63MOL0     H 8255   6.815   8.460   8.375  1.8262  2.1818  0.6533
   63MOL0     H 8256   6.668   8.510   8.454  1.2847 -0.1791  1.3552
   63MOL0     H 8257   6.801   8.684   8.477  1.2103 -1.9524  0.3970
   63MOL0     H 8258   6.694   8.735   8.349  3.2318  3.4528 -0.3114
   63MOL0     H 8259   6.951   8.616   8.268 -1.3541 -0.5376  2.8708
   63MOL0     H 8260   6.846   8.710   8.171  2.0726 -2.8709 -1.4974
   63MOL0     H 8261   6.964   8.836   8.411 -0.3071  0.4087 -1.5300
   63MOL0     H 8262   6.870   8.910   8.289 -0.0863  0.1970 -0.9916
   63MOL0     H 8263   7.047   8.867   8.110 -0.2536  0.4374 -0.1154
   63MOL0     H 8264   7.155   8.811   8.237  0.5324  1.7508 -0.9334
   63MOL0     H 8265   7.033   9.076   8.308  1.4724  0.6360  0.0356
   63MOL0     H 8266   7.210   9.024   8.299  0.5224  1.9040  0.0377
   63MOL0     H 8267   7.032   9.131   8.084  1.2645 -2.1253 -2.1706
   63MOL0     H 8268   7.199   9.072   8.062  0.1849  0.1214  0.4309
   63MOL0     H 8269   7.402   9.223   8.121 -3.1183 -3.9159 -0.0708
   63MOL0     H 8270   7.515   9.444   8.276 -0.5641  0.2602 -0.6672
   63MOL0     H 8271   7.429   9.590   8.232  0.7136  1.8620 -1.5559
   63MOL0     H 8272   7.554   9.387   8.070  1.8695  0.1966  2.1191
   63MOL0     H 8273   7.620   9.550   8.090  0.3965  1.5391 -2.6658
   63MOL0     H 8274   7.359   9.486   7.946  1.4352 -1.5592 -1.8554
   63MOL0     H 8275   7.420   9.646   7.969  3.3003  1.4816 -0.3133
   63MOL0     H 8276   7.489   9.552   7.741 -0.6485  0.6387  1.2826
   63MOL0     H 8277   7.550   9.410   7.816 -0.9578  0.2454 -2.8018
   63MOL0     H 8278   7.834   9.764   7.880 -0.1904 -1.3338  0.9444
   63MOL0     H 8279   7.975   9.871   7.697  0.6082 -1.3682  0.3783
   63MOL0     H 8280   8.243  10.064   7.559 -1.3412 -0.8360 -0.3732
   63MOL0     H 8281   8.323  10.291   7.451 -3.6630  4.1985 -0.7800
   63MOL0     H 8282   8.274  10.492   7.338  0.5317  1.3373 -1.9225
   63MOL0     H 8283   8.117  10.466   7.254  0.8511 -0.2408 -1.2391
   63MOL0     H 8284   8.205  10.538   7.044 -0.6936 -3.4325  1.7175
   63MOL0     H 8285   8.364  10.534   7.117  0.7628  1.9557 -1.0570
   63MOL0     H 8286   8.304  10.734   7.269  0.6634 -1.4634 -1.1075
   63MOL0     H 8287   8.139  10.734   7.181 -0.7971 -1.3853  1.1320
   63MOL0     H 8288   8.242  10.784   6.982  0.0291 -0.0043 -0.2028
   63MOL0     H 8289   8.295  10.892   7.107 -1.7211 -0.7888  1.6771
   63MOL0     H 8290   8.468  10.690   6.952 -0.5027  2.3751 -2.0213
   63MOL0     H 8291   8.517  10.732   7.118  0.3757 -2.6223 -0.8670
   63MOL0     H 8292   8.527  10.977   7.047  2.5390  2.0772 -1.5391
   63MOL0     H 8293   8.481  10.930   6.893 -0.5190 -1.6761 -0.7108
   63MOL0     H 8294   8.727  10.873   7.057 -0.0793 -1.4063 -0.6199
   63MOL0     H 8295   8.709  10.776   6.907  0.5255 -0.0036 -1.6762
   63MOL0     H 8296   8.841  11.005   6.894  0.4189 -2.2392 -0.2589
   63MOL0     H 8297   8.682  11.083   6.908  1.6823 -0.6299  2.9210
   63MOL0     H 8298   8.127  10.182   7.093 -1.2200  0.9172  1.6379
   63MOL0     H 8299   8.014   9.985   7.205 -2.2929  1.1327  1.4996
   63MOL0     H 8300   7.775   9.611   7.410  0.5095 -0.1925 -1.0825
   63MOL0     H 8301   7.659   9.515   7.585  2.3558 -1.8438  2.8470
   63MOL0     H 8302   6.614   8.099   8.265 -3.2736 -4.1716 -0.0508
   63MOL0     H 8303   6.519   7.968   8.449  0.4336 -0.3632 -0.4820
   63MOL0     H 8304   6.375   7.818   8.692  1.9128  1.5385  2.0768
   63MOL0     H 8305   6.260   7.634   8.815  2.5200 -0.3231  1.4542
   63MOL0     H 8306   6.072   7.542   8.916 -2.1219  1.4615  0.0963
   63MOL0     H 8307   6.014   7.520   9.076  1.2578 -4.4239 -1.0348
   63MOL0     H 8308   6.185   7.334   9.016 -0.3394  0.0992  0.1264
   63MOL0     H 8309   6.314   7.456   9.022  0.9848 -1.5712  2.0907
   63MOL0     H 8310   6.103   7.393   9.232  0.5513  0.7494 -0.0229
   63MOL0     H 8311   6.264   7.461   9.271 -1.2402 -0.7782  2.6330
   63MOL0     H 8312   6.214   7.173   9.159  0.3408  0.5811  0.5819
   63MOL0     H 8313   6.370   7.256   9.202 -1.3255  4.3033 -1.6330
   63MOL0     H 8314   6.305   7.108   9.571 -2.1826  1.4502  1.0143
   63MOL0     H 8315   6.135   7.930   9.098  1.2537 -0.4970  0.8961
   63MOL0     H 8316   6.206   8.099   8.940  0.5813  0.4152 -1.4366
   64MOL0     O 8317   8.635   5.552   5.378  0.0777  0.0664  0.1624
   64MOL0     C 8318   8.689   5.471   5.296  0.9481 -0.9380  0.1190
   64MOL0     O 8319   8.787   5.497   5.203  0.1002  0.0032  0.2209
   64MOL0     C 8320   8.806   5.630   5.183  0.6166 -0.3294  0.6118
   64MOL0     C 8321   8.713   5.698   5.109 -0.1681  0.2325  0.9610
   64MOL0     C 8322   8.739   5.837   5.081 -1.1555 -0.6333  0.3901
   64MOL0     C 8323   8.856   5.894   5.144  0.5766  0.0945 -1.1304
   64MOL0     O 8324   8.864   6.028   5.129 -0.2830  0.3077  1.1344
   64MOL0     C 8325   8.984   6.052   5.052 -0.1140 -0.2225  0.4503
   64MOL0     C 8326   8.975   6.196   5.018 -0.4370 -1.0180  0.3218
   64MOL0     C 8327   9.075   6.229   4.914  0.1641  0.4185 -0.3150
   64MOL0     C 8328   9.049   6.356   4.853 -0.3465  0.0246  0.1615
   64MOL0     C 8329   9.118   6.360   4.707 -0.4553 -0.1731  0.4949
   64MOL0     C 8330   9.066   6.472   4.611  0.6446 -0.2079 -0.3065
   64MOL0     C 8331   9.113   6.462   4.460  0.5510  0.1287 -0.8416
   64MOL0     C 8332   9.075   6.589   4.379  0.9423  0.2946  0.4552
   64MOL0     N 8333   8.928   6.600   4.357 -0.5231 -0.8757  0.7912
   64MOL0     C 8334   8.855   6.528   4.271  0.5853 -0.7368 -0.4491
   64MOL0     C 8335   8.729   6.529   4.318 -0.1811 -0.7969 -1.1533
   64MOL0     C 8336   8.620   6.449   4.258  0.2542  0.2164  0.0156
   64MOL0     C 8337   8.681   6.329   4.188  0.5093 -0.9553 -0.1674
   64MOL0     C 8338   8.556   6.260   4.133  0.4923  0.1299  0.1224
   64MOL0     C 8339   8.562   6.116   4.119 -0.2071  0.7369 -0.8358
   64MOL0     O 8340   8.684   6.088   4.047 -0.6646 -0.2279 -0.9333
   64MOL0     C 8341   8.694   5.965   3.984 -0.5619 -0.4522 -0.7118
   64MOL0     C 8342   8.824   5.946   3.931  0.6285 -0.3357  0.6870
   64MOL0     C 8343   8.860   5.830   3.867 -0.1723 -0.5626 -0.0696
   64MOL0     C 8344   8.764   5.723   3.848 -0.0751 -0.0708 -0.5437
   64MOL0     C 8345   8.789   5.603   3.773 -0.1646 -1.4938 -0.0674
   64MOL0     O 8346   8.676   5.532   3.734 -0.0336  0.0135 -0.4929
   64MOL0     C 8347   8.681   5.412   3.672 -0.5535 -0.1628  0.1478
   64MOL0     C 8348   8.663   5.300   3.747 -0.1120  0.5351 -0.3523
   64MOL0     C 8349   8.697   5.176   3.687  0.8546  0.2360  0.2514
   64MOL0     C 8350   8.740   5.173   3.549  0.5535 -0.7759 -0.8566
   64MOL0     O 8351   8.761   5.052   3.482  0.5033 -0.2454  0.6374
   64MOL0     C 8352   8.769   4.936   3.554 -1.0474  0.7780 -0.6292
   64MOL0     C 8353   8.793   4.813   3.457  1.3621 -0.5806  0.5257
   64MOL0     C 8354   8.796   4.684   3.530  0.1913  0.5534  0.5929
   64MOL0     C 8355   8.677   4.645   3.606  0.6358 -0.2834 -0.4668
   64MOL0     C 8356   8.556   4.623   3.520  1.5036 -0.7849  0.0097
   64MOL0     C 8357   8.429   4.577   3.607  0.2298 -0.9639  0.9780
   64MOL0     C 8358   8.306   4.567   3.526 -0.4011 -0.4321 -0.5694
   64MOL0     C 8359   8.185   4.547   3.629 -0.1545  0.2139  1.6471
   64MOL0    Cl 8360   8.033   4.514   3.516 -0.2919 -0.0634 -0.3197
   64MOL0     C 8361   8.756   5.292   3.475  0.0577 -0.2464  0.2041
   64MOL0     C 8362   8.732   5.407   3.548  0.2243 -0.5018  1.2740
   64MOL0     O 8363   8.903   5.572   3.742 -0.4687 -0.0602  0.0854
   64MOL0     C 8364   8.636   5.747   3.900 -0.4893  0.5265  0.0318
   64MOL0     C 8365   8.607   5.858   3.980 -1.1216 -0.0918 -0.0830
   64MOL0     N 8366   8.721   6.607   4.435 -0.2098 -0.6026  0.0699
   64MOL0     N 8367   8.844   6.647   4.453  0.5881  0.8040 -0.0581
   64MOL0     C 8368   8.940   5.818   5.234  0.2010 -0.0150  0.4311
   64MOL0     C 8369   8.916   5.689   5.244  1.3554 -0.0242  0.1690
   64MOL0     C 8370   8.623   5.341   5.295  0.2156  0.7249  0.5781
   64MOL0     C 8371   8.670   5.227   5.222 -0.9626  0.1866 -0.0754
   64MOL0     C 8372   8.621   5.101   5.242  0.4012  0.2171  0.4421
   64MOL0     C 8373   8.508   5.065   5.313  0.2035 -0.3817  0.5675
   64MOL0     O 8374   8.447   4.945   5.320 -1.0659 -0.0183 -0.3864
   64MOL0     C 8375   8.453   4.855   5.213 -0.8559 -1.4523  0.3701
   64MOL0     C 8376   8.305   4.820   5.188 -0.3863 -0.6916 -0.5384
   64MOL0     C 8377   8.304   4.708   5.086 -0.0010  0.6055 -0.3926
   64MOL0     C 8378   8.162   4.702   5.014  0.2614 -0.2026  0.2058
   64MOL0     C 8379   8.190   4.718   4.871 -0.0277 -0.5975  0.5295
   64MOL0     C 8380   8.230   4.701   4.754 -0.8723  0.6235  0.1844
   64MOL0     C 8381   8.457   5.179   5.382 -0.3378  0.8406 -0.5173
   64MOL0     C 8382   8.511   5.307   5.378 -0.0626 -0.1017  0.2454
   64MOL0     H 8383   8.633   5.643   5.060  0.0226 -0.9835  1.9579
   64MOL0     H 8384   8.675   5.909   5.031  1.4470  0.8864 -1.0303
   64MOL0     H 8385   8.993   5.987   4.965  1.6818 -1.2865  1.3720
   64MOL0     H 8386   9.077   6.040   5.107  0.7551 -0.1412 -0.9654
   64MOL0     H 8387   9.001   6.247   5.112 -0.9661 -0.4647  0.1697
   64MOL0     H 8388   8.873   6.225   4.992 -0.5703 -1.3024  0.5231
   64MOL0     H 8389   9.073   6.153   4.834  0.3836 -2.1835  1.9923
   64MOL0     H 8390   9.177   6.221   4.952 -0.0015 -0.8588 -0.0740
   64MOL0     H 8391   8.943   6.375   4.841 -0.5657 -0.4791  1.1781
   64MOL0     H 8392   9.097   6.429   4.919 -3.0827  0.9571  1.2539
   64MOL0     H 8393   9.098   6.269   4.651  1.3364  0.4943 -1.3209
   64MOL0     H 8394   9.224   6.373   4.729 -0.2805  2.0794 -1.3236
   64MOL0     H 8395   9.097   6.566   4.658  3.6323 -1.5911  0.7366
   64MOL0     H 8396   8.957   6.479   4.616  0.7199  0.2283  2.4378
   64MOL0     H 8397   9.222   6.454   4.459  0.4424 -2.3197  0.3917
   64MOL0     H 8398   9.071   6.369   4.423 -2.0234  0.5961  0.6638
   64MOL0     H 8399   9.131   6.598   4.286 -1.4140 -1.6659 -1.3063
   64MOL0     H 8400   9.106   6.677   4.435  0.8504  2.2379 -2.3534
   64MOL0     H 8401   8.894   6.477   4.184  1.3269  0.9557 -1.1554
   64MOL0     H 8402   8.576   6.518   4.186  2.5183  2.3270  0.5323
   64MOL0     H 8403   8.557   6.409   4.338  3.6168 -0.0129  2.7840
   64MOL0     H 8404   8.755   6.266   4.238  0.0210 -0.0226  1.8414
   64MOL0     H 8405   8.749   6.347   4.105  1.7621 -0.7776  0.8747
   64MOL0     H 8406   8.471   6.272   4.200 -0.5577  4.1397 -1.6378
   64MOL0     H 8407   8.531   6.286   4.030  0.6604 -0.4608 -0.0749
   64MOL0     H 8408   8.472   6.084   4.064  2.0688 -6.0595 -1.6513
   64MOL0     H 8409   8.559   6.061   4.213  0.2936 -0.7954 -1.6779
   64MOL0     H 8410   8.903   6.020   3.940  1.6953 -1.4415  0.7561
   64MOL0     H 8411   8.959   5.803   3.832 -0.1375  0.6400 -0.9491
   64MOL0     H 8412   8.629   5.322   3.847  0.1317  3.3974 -0.7829
   64MOL0     H 8413   8.695   5.086   3.748  1.3600  1.0739  1.5521
   64MOL0     H 8414   8.676   4.912   3.606 -1.4285 -0.5115 -1.8413
   64MOL0     H 8415   8.857   4.936   3.619  0.4951  1.7339 -2.5870
   64MOL0     H 8416   8.878   4.827   3.390 -0.2731 -1.4338 -1.8544
   64MOL0     H 8417   8.702   4.816   3.397  1.1308 -0.2335  0.8935
   64MOL0     H 8418   8.877   4.688   3.603  0.2949 -3.0491  0.8356
   64MOL0     H 8419   8.819   4.597   3.467  1.0726 -0.0768  1.7399
   64MOL0     H 8420   8.693   4.554   3.664  0.2353 -0.2647 -0.3272
   64MOL0     H 8421   8.645   4.722   3.677  0.7222 -0.6600 -0.0166
   64MOL0     H 8422   8.572   4.541   3.450 -0.8836  0.1969 -1.8725
   64MOL0     H 8423   8.527   4.708   3.457 -0.0936 -0.3075  1.3038
   64MOL0     H 8424   8.420   4.660   3.678  1.1717 -1.3597  1.5800
   64MOL0     H 8425   8.449   4.486   3.664  0.7951 -1.4285  0.0662
   64MOL0     H 8426   8.287   4.662   3.475 -0.0175  1.1464  2.0524
   64MOL0     H 8427   8.319   4.488   3.451  0.8106 -1.4666  0.6729
   64MOL0     H 8428   8.187   4.640   3.685  3.3508  1.4571 -0.2455
   64MOL0     H 8429   8.192   4.458   3.693  0.4093 -1.8191 -1.0509
   64MOL0     H 8430   8.808   5.290   3.379 -0.5143  3.5467 -0.3675
   64MOL0     H 8431   8.766   5.499   3.501  1.1622 -1.1349  0.6811
   64MOL0     H 8432   8.561   5.669   3.897  0.1712 -0.1042 -0.3795
   64MOL0     H 8433   8.516   5.878   4.036 -0.5304 -1.4977  1.4250
   64MOL0     H 8434   9.024   5.855   5.290  0.2188  5.0210 -2.3612
   64MOL0     H 8435   8.981   5.624   5.302  2.7594  1.1142 -0.0625
   64MOL0     H 8436   8.748   5.244   5.148 -0.4085 -1.4926  0.0841
   64MOL0     H 8437   8.691   5.030   5.199  1.5471  1.4460  0.2236
   64MOL0     H 8438   8.511   4.763   5.227  1.0982 -0.0476  2.1119
   64MOL0     H 8439   8.492   4.897   5.120 -1.8382 -0.2822  0.4542
   64MOL0     H 8440   8.274   4.797   5.290  1.3157  0.2416  0.2290
   64MOL0     H 8441   8.256   4.910   5.152 -0.9365 -1.2586 -1.2456
   64MOL0     H 8442   8.319   4.610   5.132 -2.6505  0.5021  0.4026
   64MOL0     H 8443   8.383   4.724   5.012  1.2817  0.6511  0.9433
   64MOL0     H 8444   8.118   4.603   5.024 -2.2969  0.8582  0.1268
   64MOL0     H 8445   8.085   4.771   5.048 -0.4089  1.0397 -3.4162
   64MOL0     H 8446   8.284   4.695   4.661 -0.3781 -5.3495  0.4698
   64MOL0     H 8447   8.372   5.168   5.448  0.2654  3.1816  0.7616
   64MOL0     H 8448   8.462   5.382   5.439  1.4678  1.9462 -0.9291
   65MOL0     O 8449   9.192   0.887   8.517  0.0380  0.9599 -0.2944
   65MOL0     C 8450   9.212   0.863   8.637  0.2356 -0.0020 -0.6823
   65MOL0     O 8451   9.326   0.903   8.706  0.1268  0.3425  0.0994
   65MOL0     C 8452   9.402   1.000   8.657  0.0414 -0.0113  0.2460
   65MOL0     C 8453   9.506   0.965   8.566  0.7211 -0.5771 -0.5117
   65MOL0     C 8454   9.596   1.070   8.536 -0.6966 -0.3124 -0.1567
   65MOL0     C 8455   9.590   1.192   8.590 -0.3550 -0.3852 -0.4113
   65MOL0     O 8456   9.691   1.278   8.558  0.1172 -0.8407 -0.2453
   65MOL0     C 8457   9.742   1.298   8.430  0.1857 -0.1854  0.3625
   65MOL0     C 8458   9.878   1.384   8.448  0.2247  0.3419  0.0927
   65MOL0     C 8459   9.868   1.535   8.417  0.0915 -0.4626  0.6314
   65MOL0     C 8460   9.748   1.598   8.493 -1.3384 -0.3122 -1.0960
   65MOL0     C 8461   9.771   1.605   8.652 -0.4148  1.3034 -0.8038
   65MOL0     C 8462   9.637   1.575   8.715 -0.1496 -0.4389  0.3747
   65MOL0     C 8463   9.646   1.612   8.866  0.9425 -0.3943 -0.2399
   65MOL0     C 8464   9.596   1.501   8.954  0.0737  0.2196  0.1057
   65MOL0     N 8465   9.691   1.388   8.969 -0.4585 -0.5659  0.1736
   65MOL0     C 8466   9.768   1.319   8.873  0.4990 -0.2669  0.5862
   65MOL0     C 8467   9.842   1.235   8.942  0.4773 -0.0092  0.3029
   65MOL0     C 8468   9.925   1.131   8.886  0.3011 -0.6691  0.2986
   65MOL0     C 8469  10.030   1.185   8.779  0.1298 -0.0150 -0.7168
   65MOL0     C 8470  10.128   1.285   8.840  0.3769 -1.0002 -0.5501
   65MOL0     C 8471  10.243   1.306   8.750  0.3304 -0.1263 -0.2211
   65MOL0     O 8472  10.209   1.324   8.614 -0.1605  0.6754 -0.6080
   65MOL0     C 8473  10.310   1.355   8.533 -0.3826  0.8182 -0.6691
   65MOL0     C 8474  10.450   1.314   8.544 -0.7050 -0.6912 -0.4676
   65MOL0     C 8475  10.542   1.345   8.444 -0.4062  0.5846 -0.1961
   65MOL0     C 8476  10.502   1.398   8.324 -0.1906  0.2303  0.1899
   65MOL0     C 8477  10.592   1.396   8.208  0.4550 -0.0816 -0.4022
   65MOL0     O 8478  10.539   1.430   8.086  0.1255  0.1071 -0.8961
   65MOL0     C 8479  10.620   1.439   7.971  0.0347 -1.0022 -0.7205
   65MOL0     C 8480  10.632   1.342   7.872 -0.1647  0.7612 -0.3401
   65MOL0     C 8481  10.724   1.349   7.765  0.5894 -0.2060 -0.9107
   65MOL0     C 8482  10.825   1.445   7.782 -0.1994 -0.5385 -0.5980
   65MOL0     O 8483  10.939   1.443   7.699 -0.1846 -0.7240 -1.2542
   65MOL0     C 8484  10.933   1.532   7.584 -0.7911  0.2149 -0.1522
   65MOL0     C 8485  11.060   1.516   7.493 -0.4452  0.9292  0.4493
   65MOL0     C 8486  11.176   1.620   7.507  0.1050  0.8284  0.2349
   65MOL0     C 8487  11.256   1.634   7.379 -0.2425 -0.4801 -0.5518
   65MOL0     C 8488  11.380   1.726   7.391 -0.1531 -0.3093 -0.3775
   65MOL0     C 8489  11.489   1.674   7.487  0.3050 -0.2880  0.2511
   65MOL0     C 8490  11.629   1.732   7.469  0.7590  0.1211  0.0192
   65MOL0     C 8491  11.699   1.651   7.357 -0.8889 -0.2680 -0.0102
   65MOL0    Cl 8492  11.866   1.721   7.348  0.1728  0.2553 -0.0256
   65MOL0     C 8493  10.810   1.550   7.873  0.2952  0.0555  0.5215
   65MOL0     C 8494  10.701   1.548   7.963 -0.3608  0.0326 -0.2718
   65MOL0     O 8495  10.707   1.355   8.227 -0.6499  0.1722 -0.3406
   65MOL0     C 8496  10.372   1.451   8.319  0.2239  1.4236  0.1594
   65MOL0     C 8497  10.269   1.419   8.414 -0.5952  0.0641  0.0777
   65MOL0     N 8498   9.809   1.252   9.072  0.4836 -0.9637 -0.6392
   65MOL0     N 8499   9.725   1.345   9.090  0.5566 -0.2211 -0.8465
   65MOL0     C 8500   9.475   1.231   8.676  0.2057  1.4124  0.8255
   65MOL0     C 8501   9.381   1.130   8.705  0.6503 -0.3580  0.4565
   65MOL0     C 8502   9.100   0.823   8.715  0.5970  0.0564  0.4154
   65MOL0     C 8503   9.091   0.849   8.852 -0.3188  0.3764  0.1671
   65MOL0     C 8504   8.996   0.788   8.930 -0.2986  0.2433 -0.4129
   65MOL0     C 8505   8.897   0.705   8.880  0.0201  0.4563 -0.5976
   65MOL0     O 8506   8.825   0.622   8.955  0.7787 -0.1719  0.0253
   65MOL0     C 8507   8.888   0.529   9.038 -0.7026  0.4809  0.4202
   65MOL0     C 8508   8.793   0.438   9.102  0.4623  0.5269  0.1368
   65MOL0     C 8509   8.680   0.369   9.023 -0.1107  0.4239  0.0406
   65MOL0     C 8510   8.723   0.251   8.948 -1.0053 -0.5082 -0.7333
   65MOL0     C 8511   8.827   0.283   8.850 -0.8818  0.5361 -1.3166
   65MOL0     C 8512   8.930   0.298   8.783  0.5888 -0.4355  0.9180
   65MOL0     C 8513   8.882   0.690   8.739 -0.3140 -0.5586  0.1036
   65MOL0     C 8514   8.984   0.752   8.663 -0.0237 -0.4512  0.2359
   65MOL0     H 8515   9.519   0.868   8.519  0.3697  0.0549 -1.9717
   65MOL0     H 8516   9.690   1.034   8.495 -0.2315  0.7322 -0.0251
   65MOL0     H 8517   9.665   1.319   8.354 -1.1349 -3.7902  0.4806
   65MOL0     H 8518   9.778   1.201   8.395 -2.6500 -0.6723 -1.5742
   65MOL0     H 8519   9.941   1.345   8.367  2.4316  2.1975  0.8254
   65MOL0     H 8520   9.917   1.355   8.546  0.2704 -2.2195 -0.5971
   65MOL0     H 8521   9.847   1.535   8.310 -1.7073 -1.2016  0.9533
   65MOL0     H 8522   9.957   1.593   8.442 -0.1246  0.4144 -0.5336
   65MOL0     H 8523   9.718   1.695   8.451  0.1643  0.1053 -1.2498
   65MOL0     H 8524   9.659   1.535   8.478 -2.0451  0.7241 -1.4169
   65MOL0     H 8525   9.819   1.696   8.689 -0.3618  0.9958 -0.0919
   65MOL0     H 8526   9.841   1.526   8.680  0.0205  2.6009  2.1935
   65MOL0     H 8527   9.627   1.468   8.693  0.6630 -0.8273  1.8044
   65MOL0     H 8528   9.561   1.629   8.658  0.5456 -0.5451 -0.6902
   65MOL0     H 8529   9.749   1.627   8.897  2.1300 -2.0503 -2.9678
   65MOL0     H 8530   9.594   1.706   8.886  1.9956  0.1771 -0.1048
   65MOL0     H 8531   9.494   1.474   8.926 -0.8865  2.8247  0.8176
   65MOL0     H 8532   9.591   1.549   9.052 -0.8164  0.8145 -0.2222
   65MOL0     H 8533   9.769   1.317   8.764  2.0419 -3.7505  0.5387
   65MOL0     H 8534   9.863   1.047   8.854 -2.1856  0.9379  0.6675
   65MOL0     H 8535   9.989   1.085   8.962 -1.6904  0.1698  2.5926
   65MOL0     H 8536   9.987   1.205   8.680  0.2475 -0.1758 -0.8019
   65MOL0     H 8537  10.097   1.099   8.778  2.9244  1.9521  1.2214
   65MOL0     H 8538  10.075   1.374   8.874  1.4242 -0.8049  0.6362
   65MOL0     H 8539  10.157   1.241   8.936 -2.9125  0.7347  1.4507
   65MOL0     H 8540  10.307   1.217   8.752  0.8740  0.2506  1.6356
   65MOL0     H 8541  10.307   1.387   8.787 -0.6577  0.0980  1.0758
   65MOL0     H 8542  10.483   1.266   8.636  3.2593 -0.0395 -1.3464
   65MOL0     H 8543  10.645   1.314   8.459 -0.1258  1.3907 -0.4226
   65MOL0     H 8544  10.570   1.255   7.892  0.9136  0.4799  2.2100
   65MOL0     H 8545  10.737   1.273   7.689 -2.2896 -0.1000 -1.5848
   65MOL0     H 8546  10.939   1.630   7.632 -0.0647 -0.0022  0.2168
   65MOL0     H 8547  10.836   1.509   7.539  0.4498 -0.1917 -2.7922
   65MOL0     H 8548  11.026   1.526   7.389  0.2652  0.2224  0.1418
   65MOL0     H 8549  11.095   1.413   7.486  0.4622  1.0887  2.1089
   65MOL0     H 8550  11.237   1.589   7.592 -1.5067  1.6266  1.7473
   65MOL0     H 8551  11.130   1.716   7.535 -1.1822  0.5609 -0.8833
   65MOL0     H 8552  11.275   1.529   7.355  2.3167 -0.0747 -0.6019
   65MOL0     H 8553  11.185   1.670   7.304 -5.2596 -3.2096  2.3774
   65MOL0     H 8554  11.370   1.827   7.430  1.0268 -1.0191  1.9515
   65MOL0     H 8555  11.420   1.732   7.290 -3.4151  0.0073 -1.7738
   65MOL0     H 8556  11.499   1.566   7.470 -0.8664 -0.3656 -0.0327
   65MOL0     H 8557  11.455   1.696   7.589  0.9489  0.5389  0.2992
   65MOL0     H 8558  11.618   1.835   7.433 -1.3389 -1.2332 -3.8009
   65MOL0     H 8559  11.694   1.711   7.554 -0.6228 -0.6903  0.9262
   65MOL0     H 8560  11.655   1.658   7.258 -0.4758  1.3558 -0.0951
   65MOL0     H 8561  11.710   1.547   7.391  2.3219 -0.7124 -2.0126
   65MOL0     H 8562  10.876   1.636   7.880 -1.1058  1.4328 -1.8471
   65MOL0     H 8563  10.675   1.622   8.038 -0.8413 -1.1533  0.7708
   65MOL0     H 8564  10.348   1.502   8.226  1.3686  0.2680 -0.8236
   65MOL0     H 8565  10.164   1.437   8.397 -0.7743 -0.6596  0.3824
   65MOL0     H 8566   9.474   1.322   8.735 -1.5462  1.9494  0.0181
   65MOL0     H 8567   9.299   1.147   8.775 -1.4117 -0.5202 -1.7967
   65MOL0     H 8568   9.159   0.912   8.908 -1.5062 -2.0737  4.8649
   65MOL0     H 8569   8.999   0.806   9.037  0.7017 -0.0761 -0.3795
   65MOL0     H 8570   8.932   0.576   9.126 -2.4525 -2.9054  3.3695
   65MOL0     H 8571   8.959   0.465   8.986 -0.0989  1.3292  0.1828
   65MOL0     H 8572   8.865   0.367   9.145  1.8352  0.6300 -1.8578
   65MOL0     H 8573   8.734   0.496   9.174  1.6003  1.0417  0.6647
   65MOL0     H 8574   8.638   0.434   8.945  2.9520  0.1877 -1.9902
   65MOL0     H 8575   8.594   0.337   9.083 -1.2791  2.1832 -0.6078
   65MOL0     H 8576   8.758   0.176   9.020 -1.2001 -0.7445 -0.8826
   65MOL0     H 8577   8.635   0.227   8.887  0.0910 -1.1313 -2.1027
   65MOL0     H 8578   9.024   0.319   8.735 -0.7768  1.7348 -1.0143
   65MOL0     H 8579   8.808   0.623   8.697  1.4840 -2.9785  0.5894
   65MOL0     H 8580   8.983   0.732   8.556  1.2618 -4.7234  0.8262
   66MOL0     O 8581   9.159   9.066   3.172 -0.8891 -0.1247  0.0069
   66MOL0     C 8582   9.187   9.168   3.109 -0.7679  0.2800 -0.3171
   66MOL0     O 8583   9.312   9.210   3.100 -0.3698  0.6608 -0.0265
   66MOL0     C 8584   9.417   9.138   3.167  0.2263 -0.9121  0.4307
   66MOL0     C 8585   9.513   9.215   3.225 -0.0698  0.1571  0.6120
   66MOL0     C 8586   9.636   9.162   3.263 -0.3392  0.2712 -0.3802
   66MOL0     C 8587   9.656   9.017   3.268  0.4285  0.4251 -1.2779
   66MOL0     O 8588   9.776   8.971   3.320 -0.6358 -0.6086 -0.6477
   66MOL0     C 8589   9.766   8.929   3.461  0.3207  0.2295 -0.0722
   66MOL0     C 8590   9.809   9.033   3.565  0.2493 -0.2229 -0.2465
   66MOL0     C 8591   9.950   9.088   3.529  0.9050 -0.0206 -0.6397
   66MOL0     C 8592  10.018   9.188   3.624  0.5932  0.1264  0.0469
   66MOL0     C 8593  10.167   9.217   3.580 -0.2457  1.0293 -0.8554
   66MOL0     C 8594  10.238   9.348   3.638  0.4265 -0.0104 -0.5200
   66MOL0     C 8595  10.385   9.373   3.599  0.3154 -0.3212 -0.3286
   66MOL0     C 8596  10.473   9.250   3.640  0.0365  0.7164 -0.2861
   66MOL0     N 8597  10.605   9.257   3.582 -0.4200  0.7259 -0.0414
   66MOL0     C 8598  10.703   9.357   3.610 -0.0437  0.2475 -0.7210
   66MOL0     C 8599  10.819   9.311   3.545  0.0768  0.0063 -0.1633
   66MOL0     C 8600  10.967   9.358   3.575  0.4659 -0.6298  0.3158
   66MOL0     C 8601  11.012   9.320   3.717  0.3439 -0.7564  1.0084
   66MOL0     C 8602  11.146   9.371   3.752  0.1028  0.1563  0.7675
   66MOL0     C 8603  11.187   9.301   3.894  0.1126 -0.8497 -1.1041
   66MOL0     O 8604  11.323   9.335   3.924  0.3602 -0.1429  0.2416
   66MOL0     C 8605  11.377   9.279   4.034 -0.2342 -0.7003  0.0235
   66MOL0     C 8606  11.521   9.296   4.045  0.3681 -0.3268  0.0981
   66MOL0     C 8607  11.588   9.247   4.156 -0.7729 -0.3620  1.0567
   66MOL0     C 8608  11.524   9.170   4.256 -0.2286  0.0552  0.4004
   66MOL0     C 8609  11.596   9.148   4.386 -0.7018  0.1822  0.7708
   66MOL0     O 8610  11.704   9.225   4.417 -0.1657 -0.8217  0.0525
   66MOL0     C 8611  11.775   9.207   4.531 -0.0983 -0.0452  0.7188
   66MOL0     C 8612  11.885   9.121   4.530  0.1219 -0.0045  0.4250
   66MOL0     C 8613  11.967   9.097   4.645  0.0242 -0.8721  0.3918
   66MOL0     C 8614  11.931   9.166   4.771 -0.3046  0.1895  0.4132
   66MOL0     O 8615  11.994   9.157   4.891  0.0857 -0.1030 -0.3876
   66MOL0     C 8616  12.050   9.033   4.937 -0.2144  0.5159  0.3316
   66MOL0     C 8617  12.204   9.042   4.942 -0.7744 -0.0036 -0.2467
   66MOL0     C 8618  12.247   9.173   5.000  0.1098 -0.9268 -0.0705
   66MOL0     C 8619  12.406   9.188   4.981 -0.2434  0.9821  0.3633
   66MOL0     C 8620  12.461   9.303   5.069  0.0649  1.2487 -0.7161
   66MOL0     C 8621  12.614   9.336   5.027 -0.0046  0.1676 -0.5729
   66MOL0     C 8622  12.682   9.419   5.137 -0.8187  0.2155  0.7232
   66MOL0     C 8623  12.799   9.503   5.077 -0.2222 -0.4124  0.3997
   66MOL0    Cl 8624  12.738   9.637   4.976 -0.1499  0.1265 -0.5678
   66MOL0     C 8625  11.823   9.251   4.773  0.2546  0.8192 -0.1443
   66MOL0     C 8626  11.743   9.257   4.659 -0.0974 -0.1827  0.7616
   66MOL0     O 8627  11.549   9.061   4.459  0.2489  0.0373  0.6800
   66MOL0     C 8628  11.381   9.151   4.239  0.3062  0.4819  0.7907
   66MOL0     C 8629  11.310   9.210   4.136 -0.1914  1.0407 -0.3054
   66MOL0     N 8630  10.778   9.199   3.476 -1.0803  0.6414  0.4279
   66MOL0     N 8631  10.654   9.179   3.479  0.0540  0.2133 -0.4707
   66MOL0     C 8632   9.551   8.947   3.208 -0.1820  0.7788  0.1446
   66MOL0     C 8633   9.432   8.999   3.161  0.9700  0.2719 -0.5676
   66MOL0     C 8634   9.074   9.247   3.053  0.3117  0.7546  1.0629
   66MOL0     C 8635   8.949   9.180   3.032 -0.6899  0.0341 -0.3486
   66MOL0     C 8636   8.844   9.256   2.981 -0.2702  0.2401 -0.5741
   66MOL0     C 8637   8.854   9.384   2.939 -1.0770 -0.3764 -0.1230
   66MOL0     O 8638   8.760   9.472   2.898 -0.3603  0.0953 -0.7032
   66MOL0     C 8639   8.620   9.425   2.896 -1.6105  0.2375 -0.5191
   66MOL0     C 8640   8.535   9.512   2.797  0.4472  0.3537 -0.3113
   66MOL0     C 8641   8.562   9.666   2.809 -0.1133  0.8970 -0.7809
   66MOL0     C 8642   8.481   9.751   2.719  0.2570  0.7860 -0.0451
   66MOL0     C 8643   8.482   9.710   2.578 -0.0107 -0.6692 -0.6418
   66MOL0     C 8644   8.492   9.671   2.466 -0.4708  0.1214 -0.3638
   66MOL0     C 8645   8.990   9.439   2.937  0.7988 -0.5613  1.0455
   66MOL0     C 8646   9.091   9.376   3.004  0.1533  0.4026  0.1830
   66MOL0     H 8647   9.480   9.318   3.238  1.5554  0.6284  1.2340
   66MOL0     H 8648   9.719   9.212   3.311 -1.7060  0.5931  1.8104
   66MOL0     H 8649   9.835   8.846   3.483  0.9422  1.4773  3.2771
   66MOL0     H 8650   9.666   8.890   3.479  1.1972 -2.4680 -0.5133
   66MOL0     H 8651   9.805   8.994   3.667  1.9755 -1.9756 -0.7872
   66MOL0     H 8652   9.727   9.106   3.560  0.6652  0.1871 -1.5410
   66MOL0     H 8653   9.940   9.139   3.433  2.3108 -0.8179 -1.2448
   66MOL0     H 8654  10.010   9.002   3.500 -0.5123 -0.9915 -0.7988
   66MOL0     H 8655   9.961   9.281   3.629 -2.1408 -1.4681  0.1298
   66MOL0     H 8656  10.027   9.140   3.721  3.7091  1.2940  0.4676
   66MOL0     H 8657  10.170   9.226   3.471 -3.1221  2.0756 -0.9337
   66MOL0     H 8658  10.218   9.127   3.616  0.7987  0.3546 -3.7144
   66MOL0     H 8659  10.225   9.339   3.747 -3.5655  1.1223 -0.7371
   66MOL0     H 8660  10.181   9.437   3.609 -1.4766 -0.1101  2.4166
   66MOL0     H 8661  10.384   9.396   3.492  1.4319  1.3682 -0.0265
   66MOL0     H 8662  10.408   9.462   3.659 -2.9774  2.4473 -2.7850
   66MOL0     H 8663  10.420   9.160   3.608 -0.4047  1.8315 -2.9565
   66MOL0     H 8664  10.481   9.242   3.749 -1.4636 -0.4822 -0.2268
   66MOL0     H 8665  10.699   9.431   3.689  1.7374 -0.6576  0.2941
   66MOL0     H 8666  10.974   9.465   3.553 -1.3275 -0.4843  0.3104
   66MOL0     H 8667  11.029   9.316   3.495 -2.9348 -0.3846 -2.7019
   66MOL0     H 8668  11.010   9.211   3.725 -2.1563 -0.8089  0.3956
   66MOL0     H 8669  10.931   9.356   3.780 -0.3616 -0.6050  0.0375
   66MOL0     H 8670  11.226   9.358   3.679 -0.4325 -0.6015  0.3039
   66MOL0     H 8671  11.145   9.477   3.779  2.0673  0.3534  0.1551
   66MOL0     H 8672  11.175   9.193   3.886  1.0601 -1.0739  0.1094
   66MOL0     H 8673  11.120   9.328   3.976 -1.5512 -2.2187 -1.9627
   66MOL0     H 8674  11.584   9.344   3.971 -1.1356  2.2643  0.3928
   66MOL0     H 8675  11.696   9.251   4.151 -0.8526  2.5348 -0.9135
   66MOL0     H 8676  11.920   9.077   4.437 -1.6606  0.6692 -0.6100
   66MOL0     H 8677  12.059   9.040   4.631  2.2849  3.1577 -3.9564
   66MOL0     H 8678  12.031   8.947   4.872  5.0741 -0.8102  0.0723
   66MOL0     H 8679  12.021   9.012   5.040  3.6227 -1.5775  1.1617
   66MOL0     H 8680  12.244   9.031   4.841  0.4874 -2.3484  0.4246
   66MOL0     H 8681  12.251   8.961   5.000  0.2352  1.8816  1.6990
   66MOL0     H 8682  12.214   9.181   5.104  0.7388 -1.8476  0.2112
   66MOL0     H 8683  12.199   9.259   4.953  2.1412  0.1031 -0.3917
   66MOL0     H 8684  12.458   9.096   5.008  0.9178  2.2005  2.5902
   66MOL0     H 8685  12.427   9.197   4.874  1.1457 -1.8003  0.3059
   66MOL0     H 8686  12.447   9.272   5.173 -3.1385  0.4428 -1.2734
   66MOL0     H 8687  12.399   9.391   5.048  1.4724  2.5999  0.6001
   66MOL0     H 8688  12.614   9.399   4.937 -1.1979 -0.0370 -0.7265
   66MOL0     H 8689  12.675   9.249   5.002 -2.5516 -1.6807 -0.7892
   66MOL0     H 8690  12.606   9.484   5.181 -0.7595  0.0850  1.0182
   66MOL0     H 8691  12.714   9.344   5.210  1.4864 -0.6643 -1.0731
   66MOL0     H 8692  12.867   9.443   5.016  1.1449  0.9991  0.4792
   66MOL0     H 8693  12.875   9.531   5.150  1.0535  0.7485 -1.2762
   66MOL0     H 8694  11.795   9.301   4.865 -0.4741 -2.3412  1.4877
   66MOL0     H 8695  11.650   9.313   4.668 -0.2130 -0.2896  0.2544
   66MOL0     H 8696  11.327   9.098   4.316  2.6236  2.3209  3.9456
   66MOL0     H 8697  11.202   9.200   4.135 -0.0056 -1.6970 -0.4916
   66MOL0     H 8698   9.554   8.839   3.215  0.9533  0.8631  1.5287
   66MOL0     H 8699   9.364   8.937   3.103  3.5309 -0.3285 -3.1629
   66MOL0     H 8700   8.928   9.077   3.060  0.9921 -0.4910 -0.9493
   66MOL0     H 8701   8.748   9.205   2.985  0.1103 -0.4054  1.1944
   66MOL0     H 8702   8.578   9.432   2.996  2.1297 -0.5512  1.2954
   66MOL0     H 8703   8.625   9.325   2.850 -2.5251  0.1383 -0.4005
   66MOL0     H 8704   8.568   9.487   2.696  0.3721  2.9664 -1.0512
   66MOL0     H 8705   8.429   9.491   2.813  0.4487  1.2330  1.0996
   66MOL0     H 8706   8.667   9.673   2.779  0.3825  1.2589  0.9144
   66MOL0     H 8707   8.548   9.711   2.908  2.4690  0.4978 -0.1477
   66MOL0     H 8708   8.378   9.766   2.750 -0.1097  0.9081 -1.2795
   66MOL0     H 8709   8.526   9.848   2.739  2.5774 -0.5468  1.7976
   66MOL0     H 8710   8.503   9.619   2.373  1.6480 -1.4302  0.6536
   66MOL0     H 8711   9.010   9.536   2.894  1.7818 -1.4413 -0.6192
   66MOL0     H 8712   9.190   9.419   3.009 -0.2581  2.1504 -3.2991
   67MOL0     O 8713   0.274   8.195   5.719 -0.1250  0.4811 -0.3421
   67MOL0     C 8714   0.328   8.075   5.735  0.1926 -0.8795 -0.2115
   67MOL0     O 8715   0.357   8.026   5.856 -0.0284  0.6573 -0.0540
   67MOL0     C 8716   0.292   8.074   5.973 -0.2232  0.1130 -0.7850
   67MOL0     C 8717   0.363   8.084   6.093  0.5469  0.5005  0.8749
   67MOL0     C 8718   0.314   8.126   6.217 -0.3319  0.9594  0.0379
   67MOL0     C 8719   0.174   8.161   6.218 -0.4657  0.3527  0.2305
   67MOL0     O 8720   0.115   8.192   6.335  0.6061  0.9663  0.8991
   67MOL0     C 8721   0.164   8.181   6.472  0.4661 -0.4661  0.2133
   67MOL0     C 8722   0.096   8.289   6.560  0.0504  0.4881  0.6666
   67MOL0     C 8723   0.147   8.304   6.701  0.4384  0.5037  0.7652
   67MOL0     C 8724   0.106   8.448   6.754  0.4148  0.4318 -0.4505
   67MOL0     C 8725   0.097   8.441   6.914  1.4972 -0.0865  0.0597
   67MOL0     C 8726  -0.035   8.375   6.953 -0.1605  0.1643 -0.3518
   67MOL0     C 8727  -0.061   8.383   7.103 -1.1280 -0.0080  0.2433
   67MOL0     C 8728  -0.207   8.346   7.131  0.5011  0.1493  0.1521
   67MOL0     N 8729  -0.221   8.325   7.278  0.4969  0.4229  0.9043
   67MOL0     C 8730  -0.182   8.407   7.373  0.3068 -0.3624 -0.4690
   67MOL0     C 8731  -0.234   8.362   7.490 -0.5617 -0.0999 -0.0767
   67MOL0     C 8732  -0.191   8.409   7.630  0.0763  0.6806  0.6712
   67MOL0     C 8733  -0.265   8.317   7.725 -0.4405  0.1682 -0.2348
   67MOL0     C 8734  -0.244   8.369   7.864 -0.3857 -0.1381 -0.0579
   67MOL0     C 8735  -0.318   8.269   7.960  0.5309 -0.6446  0.2873
   67MOL0     O 8736  -0.305   8.324   8.089  0.5133  0.2281 -0.1695
   67MOL0     C 8737  -0.373   8.438   8.125 -0.7569 -0.6039  0.4264
   67MOL0     C 8738  -0.498   8.487   8.084 -0.7856 -0.5438  0.5442
   67MOL0     C 8739  -0.571   8.589   8.135  0.0447 -0.4310  0.6245
   67MOL0     C 8740  -0.515   8.652   8.259 -0.0312 -0.1210 -0.4459
   67MOL0     C 8741  -0.586   8.756   8.331  0.6997 -0.0868  0.0829
   67MOL0     O 8742  -0.521   8.845   8.408 -0.0900 -1.5856 -0.6572
   67MOL0     C 8743  -0.582   8.954   8.461 -0.3291  1.0894  0.4253
   67MOL0     C 8744  -0.702   8.949   8.539  0.1571  0.2559  0.8324
   67MOL0     C 8745  -0.757   9.063   8.590  0.4964 -0.1254  0.6425
   67MOL0     C 8746  -0.695   9.189   8.557 -0.4095 -0.3404  0.0214
   67MOL0     O 8747  -0.758   9.308   8.591  0.0983  0.0081  0.3897
   67MOL0     C 8748  -0.882   9.334   8.524  0.6692 -0.3425 -0.2562
   67MOL0     C 8749  -0.872   9.352   8.369 -0.0868 -0.3449 -0.4581
   67MOL0     C 8750  -0.915   9.224   8.291 -1.5688 -0.2364  1.2786
   67MOL0     C 8751  -1.071   9.209   8.290  1.0846  0.2333 -0.1483
   67MOL0     C 8752  -1.113   9.062   8.269 -0.4721 -0.3037 -1.6083
   67MOL0     C 8753  -1.115   9.028   8.128 -0.3920 -0.7089  0.5448
   67MOL0     C 8754  -1.146   8.874   8.104 -0.7272 -0.5354 -0.1732
   67MOL0     C 8755  -1.024   8.788   8.145 -0.0226  0.4241  0.4881
   67MOL0    Cl 8756  -0.933   8.749   7.995  0.0300 -0.1470  0.0289
   67MOL0     C 8757  -0.566   9.186   8.504 -0.0013 -0.1094  1.1231
   67MOL0     C 8758  -0.513   9.073   8.444  0.8292  0.0179 -0.4686
   67MOL0     O 8759  -0.711   8.752   8.308 -0.0558  0.7067 -0.6790
   67MOL0     C 8760  -0.386   8.611   8.303 -0.0944 -0.1675  0.1883
   67MOL0     C 8761  -0.322   8.507   8.235 -0.6730 -0.1636 -0.4628
   67MOL0     N 8762  -0.306   8.249   7.452 -0.2376 -0.5341  0.2957
   67MOL0     N 8763  -0.300   8.220   7.321 -0.2707  0.0297  0.2104
   67MOL0     C 8764   0.102   8.161   6.098 -0.0698  0.5399 -0.8863
   67MOL0     C 8765   0.161   8.112   5.980 -0.2516 -0.0769 -0.2917
   67MOL0     C 8766   0.343   7.992   5.612 -0.1943  1.0269  0.7286
   67MOL0     C 8767   0.336   8.050   5.484  0.1751  0.2397 -0.2959
   67MOL0     C 8768   0.370   7.977   5.374 -0.6297 -0.0897  1.3062
   67MOL0     C 8769   0.406   7.838   5.380 -0.2134  0.4150  0.3147
   67MOL0     O 8770   0.451   7.769   5.272  0.5910  0.0295 -0.7072
   67MOL0     C 8771   0.440   7.826   5.139 -0.0226  0.9071 -0.2856
   67MOL0     C 8772   0.393   7.723   5.033  0.5388  0.8390  0.2522
   67MOL0     C 8773   0.446   7.581   5.034 -0.0883  0.5822  0.2698
   67MOL0     C 8774   0.593   7.559   5.003  0.5892 -0.5984 -0.5316
   67MOL0     C 8775   0.634   7.588   4.864 -0.2175 -0.0558 -1.1523
   67MOL0     C 8776   0.686   7.609   4.759  0.6756 -0.6698  0.3903
   67MOL0     C 8777   0.391   7.777   5.501 -0.0889  0.8798 -0.4897
   67MOL0     C 8778   0.379   7.850   5.617  0.9778  0.7189  0.3794
   67MOL0     H 8779   0.470   8.070   6.082  0.8867  3.2055 -0.0858
   67MOL0     H 8780   0.392   8.144   6.290  1.9970 -1.6866 -1.5467
   67MOL0     H 8781   0.269   8.210   6.478 -0.1118  1.7156  0.5553
   67MOL0     H 8782   0.143   8.082   6.515  0.6228 -1.1518 -1.2177
   67MOL0     H 8783  -0.012   8.287   6.550  0.2455 -2.3438 -2.7245
   67MOL0     H 8784   0.139   8.379   6.516 -0.3740  1.0156  1.3095
   67MOL0     H 8785   0.256   8.310   6.698  0.5058  2.2245 -4.6825
   67MOL0     H 8786   0.103   8.224   6.761 -1.3875  2.7488  2.6341
   67MOL0     H 8787   0.185   8.517   6.725 -0.6933  1.4210 -1.2195
   67MOL0     H 8788   0.009   8.482   6.717 -0.6624  0.2528  1.9793
   67MOL0     H 8789   0.095   8.538   6.965  0.0814 -0.5751  0.9720
   67MOL0     H 8790   0.186   8.392   6.954  0.9945 -1.6216 -0.6295
   67MOL0     H 8791  -0.049   8.275   6.912  0.0577 -0.5996  1.3438
   67MOL0     H 8792  -0.115   8.428   6.900 -3.2186 -1.6986  2.0805
   67MOL0     H 8793   0.006   8.321   7.163  0.8036 -0.0260 -1.8013
   67MOL0     H 8794  -0.033   8.488   7.113  0.4209 -0.3505 -0.2711
   67MOL0     H 8795  -0.237   8.252   7.085  1.0549 -0.6741  1.4251
   67MOL0     H 8796  -0.275   8.426   7.099 -1.2038 -0.2248  2.5895
   67MOL0     H 8797  -0.107   8.485   7.361 -1.2568  2.0019  3.5149
   67MOL0     H 8798  -0.213   8.516   7.637 -3.0431  0.2717 -1.0254
   67MOL0     H 8799  -0.082   8.399   7.639 -0.0033  0.2266  1.2546
   67MOL0     H 8800  -0.213   8.223   7.706  1.8147  1.5383 -1.3672
   67MOL0     H 8801  -0.372   8.304   7.708 -0.6878  0.2352  1.1463
   67MOL0     H 8802  -0.138   8.373   7.891 -1.4737  0.0198  5.3805
   67MOL0     H 8803  -0.284   8.470   7.874  1.2179  0.7288 -1.7474
   67MOL0     H 8804  -0.256   8.179   7.960  1.0316 -0.3949 -2.8037
   67MOL0     H 8805  -0.423   8.258   7.932 -0.5371  4.5100  1.2747
   67MOL0     H 8806  -0.540   8.437   7.997  0.0308  0.0700 -0.2200
   67MOL0     H 8807  -0.674   8.596   8.101 -0.8254 -4.6804  1.8379
   67MOL0     H 8808  -0.737   8.851   8.571  2.9053 -0.2342  2.6784
   67MOL0     H 8809  -0.858   9.076   8.627  0.4223  0.2972  0.2992
   67MOL0     H 8810  -0.904   9.439   8.549  2.3046 -0.5717  2.5759
   67MOL0     H 8811  -0.965   9.273   8.562  0.0385 -0.5445 -1.8609
   67MOL0     H 8812  -0.779   9.399   8.335 -0.3831  2.0492  1.7507
   67MOL0     H 8813  -0.951   9.419   8.332  0.5394 -1.4036 -4.1365
   67MOL0     H 8814  -0.867   9.138   8.338 -0.1941 -0.6772 -0.8268
   67MOL0     H 8815  -0.874   9.217   8.190 -1.4157  1.3654  1.2024
   67MOL0     H 8816  -1.115   9.229   8.388  0.5136 -3.1066  0.4064
   67MOL0     H 8817  -1.116   9.275   8.215 -0.6141 -1.5504 -0.7990
   67MOL0     H 8818  -1.213   9.040   8.307  0.3981 -0.4099  0.8084
   67MOL0     H 8819  -1.045   8.992   8.318  3.6171  3.1977 -1.6478
   67MOL0     H 8820  -1.019   9.037   8.078 -1.2567  1.3658 -0.9128
   67MOL0     H 8821  -1.193   9.088   8.080  1.6396  0.3872 -1.6015
   67MOL0     H 8822  -1.240   8.854   8.156 -2.0607  1.0190 -1.8392
   67MOL0     H 8823  -1.168   8.843   8.002 -0.8849 -1.9986  0.2875
   67MOL0     H 8824  -1.064   8.697   8.192  1.5141  1.6367  4.6514
   67MOL0     H 8825  -0.951   8.830   8.215  1.5212 -1.0573 -0.1661
   67MOL0     H 8826  -0.507   9.277   8.502  1.8066 -1.0590  3.9148
   67MOL0     H 8827  -0.418   9.084   8.393  0.9188  0.4224 -0.2236
   67MOL0     H 8828  -0.335   8.662   8.384  2.9732 -0.7538 -1.2314
   67MOL0     H 8829  -0.229   8.471   8.278  1.0681  0.7159 -3.2469
   67MOL0     H 8830   0.002   8.203   6.094  0.1167  1.2338  0.9308
   67MOL0     H 8831   0.099   8.097   5.892 -1.2879  1.8752  0.0345
   67MOL0     H 8832   0.320   8.157   5.481  2.7261  0.7024  0.5674
   67MOL0     H 8833   0.371   8.028   5.278 -1.8947 -2.3699 -0.0121
   67MOL0     H 8834   0.540   7.861   5.110  0.0126  0.6172 -0.5182
   67MOL0     H 8835   0.372   7.912   5.135 -2.6185 -0.6692  3.5687
   67MOL0     H 8836   0.284   7.716   5.039  0.5636 -0.1711 -0.2372
   67MOL0     H 8837   0.415   7.753   4.930 -0.4674 -0.0033 -0.2257
   67MOL0     H 8838   0.376   7.534   4.964  1.8521 -3.4319  0.7733
   67MOL0     H 8839   0.428   7.531   5.130 -1.3378 -2.7895 -1.5688
   67MOL0     H 8840   0.644   7.639   5.058  2.1997  0.7132 -3.6822
   67MOL0     H 8841   0.617   7.459   5.040 -1.4419  0.0830  3.1992
   67MOL0     H 8842   0.737   7.635   4.668  0.8422  0.8622  0.9030
   67MOL0     H 8843   0.413   7.673   5.521 -2.8740  0.9627  4.8324
   67MOL0     H 8844   0.382   7.798   5.713 -1.4085 -0.3440 -0.0598
   68MOL0     O 8845   2.319   5.552   4.045 -0.3428  0.6804 -0.3446
   68MOL0     C 8846   2.347   5.665   4.072  0.1142 -1.5331 -0.5855
   68MOL0     O 8847   2.271   5.738   4.149 -0.1173 -1.0501 -0.0466
   68MOL0     C 8848   2.148   5.694   4.203  0.7224 -0.0694 -0.0671
   68MOL0     C 8849   2.151   5.604   4.310 -0.0304 -0.4196 -0.6277
   68MOL0     C 8850   2.040   5.559   4.373 -0.2078 -0.1666 -0.1849
   68MOL0     C 8851   1.918   5.632   4.351  0.1314  1.3515  0.3843
   68MOL0     O 8852   1.804   5.588   4.405  0.6063  0.9243 -0.5550
   68MOL0     C 8853   1.783   5.440   4.419 -0.6384 -1.0087 -0.2092
   68MOL0     C 8854   1.658   5.393   4.487  0.7031 -0.2359 -0.8811
   68MOL0     C 8855   1.644   5.234   4.496  0.1475  0.2496 -0.4523
   68MOL0     C 8856   1.523   5.205   4.588  0.5371 -0.4045  0.4856
   68MOL0     C 8857   1.528   5.069   4.660 -0.7562 -0.3200  0.2492
   68MOL0     C 8858   1.533   5.080   4.816 -0.1037 -0.2457 -0.2857
   68MOL0     C 8859   1.420   5.163   4.889 -0.7515  0.3219  0.4249
   68MOL0     C 8860   1.272   5.105   4.875 -0.1081 -0.2482  0.2120
   68MOL0     N 8861   1.184   5.211   4.917  0.5985  0.0216  0.0862
   68MOL0     C 8862   1.122   5.237   5.031 -0.0861 -0.3631 -0.7144
   68MOL0     C 8863   1.025   5.328   5.005 -0.8228 -1.1985  0.1749
   68MOL0     C 8864   0.933   5.386   5.107 -0.1119  0.9459  1.0612
   68MOL0     C 8865   0.787   5.409   5.069 -1.1442  1.6284  0.4115
   68MOL0     C 8866   0.717   5.279   5.032 -0.5386 -0.2713  0.8825
   68MOL0     C 8867   0.561   5.266   5.060  0.1237  0.7600 -0.3446
   68MOL0     O 8868   0.475   5.366   4.992 -0.3949 -0.5779 -0.3512
   68MOL0     C 8869   0.340   5.374   5.024 -0.7451 -0.1290  0.7941
   68MOL0     C 8870   0.277   5.280   5.096 -0.2210  1.0078 -0.1715
   68MOL0     C 8871   0.143   5.300   5.130  1.0542  0.2756  0.8452
   68MOL0     C 8872   0.072   5.418   5.095 -1.0007  0.2230  0.2567
   68MOL0     C 8873  -0.074   5.438   5.116  0.0520 -1.7368 -0.5850
   68MOL0     O 8874  -0.132   5.564   5.092  0.3986  0.7044  0.0509
   68MOL0     C 8875  -0.270   5.580   5.096  0.1367 -0.2710 -0.5239
   68MOL0     C 8876  -0.354   5.510   5.009  0.0475  0.4245  1.0079
   68MOL0     C 8877  -0.487   5.543   4.998 -0.5391 -0.1627  0.8223
   68MOL0     C 8878  -0.546   5.656   5.065  0.2318  0.9490  0.7452
   68MOL0     O 8879  -0.679   5.677   5.037  0.8274  0.2487 -0.0825
   68MOL0     C 8880  -0.734   5.804   5.061  0.1255 -0.0235  0.2896
   68MOL0     C 8881  -0.864   5.820   4.981  0.2310 -0.1639  0.5579
   68MOL0     C 8882  -0.842   5.853   4.833  0.5098  0.4559 -0.0401
   68MOL0     C 8883  -0.971   5.858   4.751 -0.0822  0.0872  1.0774
   68MOL0     C 8884  -1.068   5.974   4.788 -0.6855  0.6866 -0.4043
   68MOL0     C 8885  -1.023   6.112   4.761 -0.0873 -0.2796 -0.4614
   68MOL0     C 8886  -1.126   6.222   4.791  0.6112 -0.0260  0.2095
   68MOL0     C 8887  -1.274   6.194   4.756  0.1627  0.3047  0.0703
   68MOL0    Cl 8888  -1.291   6.175   4.579  0.2556 -0.0090 -0.0191
   68MOL0     C 8889  -0.464   5.731   5.145  1.0000 -1.5681 -0.6264
   68MOL0     C 8890  -0.330   5.695   5.168 -1.3628 -0.4285  0.4361
   68MOL0     O 8891  -0.133   5.338   5.151  0.7620  0.5852  0.1273
   68MOL0     C 8892   0.146   5.519   5.023  0.3173 -0.6617  0.2982
   68MOL0     C 8893   0.281   5.502   4.997 -0.6642 -0.1649  0.3497
   68MOL0     N 8894   1.025   5.354   4.864  0.8523 -0.2128  0.2337
   68MOL0     N 8895   1.121   5.282   4.821 -0.8133  0.5836  0.5737
   68MOL0     C 8896   1.917   5.736   4.253 -0.8938 -1.0124  0.9725
   68MOL0     C 8897   2.036   5.761   4.178  0.4122 -0.9607 -0.5906
   68MOL0     C 8898   2.473   5.726   4.013 -0.6099  0.5683  0.8635
   68MOL0     C 8899   2.511   5.852   4.065  0.9270  0.3538  0.3361
   68MOL0     C 8900   2.623   5.919   4.010 -0.6807  0.2936  0.7925
   68MOL0     C 8901   2.693   5.859   3.894  0.0324 -0.3758 -0.3951
   68MOL0     O 8902   2.796   5.936   3.835 -0.0881  0.5948  0.6976
   68MOL0     C 8903   2.920   5.874   3.843  0.1818  0.2972 -0.0137
   68MOL0     C 8904   3.036   5.961   3.802 -0.5377 -0.1481  0.3309
   68MOL0     C 8905   3.040   6.109   3.843 -0.0146 -0.5558 -0.0652
   68MOL0     C 8906   3.113   6.186   3.733 -1.1661  0.0803  0.2173
   68MOL0     C 8907   3.046   6.200   3.605  0.6338  0.5172 -0.4284
   68MOL0     C 8908   2.981   6.216   3.509  0.8783  0.0392  0.1215
   68MOL0     C 8909   2.659   5.730   3.858  0.7469  0.0995 -0.3593
   68MOL0     C 8910   2.547   5.661   3.915  0.4246 -0.8065 -0.0102
   68MOL0     H 8911   2.247   5.554   4.318  0.3999  0.4728 -0.1309
   68MOL0     H 8912   2.049   5.470   4.435 -0.3466 -1.0040 -1.3520
   68MOL0     H 8913   1.872   5.399   4.467  1.6369  2.0307 -1.5288
   68MOL0     H 8914   1.763   5.409   4.316 -1.0252 -3.1782  0.4741
   68MOL0     H 8915   1.575   5.439   4.433 -1.5999 -0.1178  2.4694
   68MOL0     H 8916   1.657   5.444   4.584  1.6027 -0.2349 -0.8587
   68MOL0     H 8917   1.732   5.194   4.545  0.9266  1.6263 -0.6756
   68MOL0     H 8918   1.639   5.180   4.401 -1.8530 -1.0621  0.3433
   68MOL0     H 8919   1.507   5.292   4.653 -2.1858  1.7367 -2.6871
   68MOL0     H 8920   1.445   5.207   4.512  2.0964 -1.1096 -1.2143
   68MOL0     H 8921   1.612   5.009   4.625 -1.0718  0.1038 -1.3150
   68MOL0     H 8922   1.430   5.023   4.645 -1.3448  0.9330  0.1421
   68MOL0     H 8923   1.630   5.108   4.859  1.2268 -1.0357 -2.5835
   68MOL0     H 8924   1.520   4.977   4.851 -3.9083  0.4602  0.7927
   68MOL0     H 8925   1.437   5.179   4.996 -0.0536  0.6382  0.2748
   68MOL0     H 8926   1.431   5.264   4.847  1.1135 -0.2537 -0.6200
   68MOL0     H 8927   1.280   5.024   4.948  0.4000  1.1987  1.8436
   68MOL0     H 8928   1.250   5.066   4.776  0.9175 -0.7022  0.1548
   68MOL0     H 8929   1.139   5.206   5.133 -2.1306  0.3448 -0.1250
   68MOL0     H 8930   0.962   5.491   5.114  0.2972  0.9990 -0.8324
   68MOL0     H 8931   0.951   5.339   5.204  3.1618  2.1822  1.1940
   68MOL0     H 8932   0.785   5.486   4.992  2.8128  1.7441  0.2661
   68MOL0     H 8933   0.748   5.447   5.165 -1.0441  1.1774  0.6346
   68MOL0     H 8934   0.732   5.266   4.924 -1.0185  1.3677  0.5814
   68MOL0     H 8935   0.758   5.190   5.079 -0.0250 -1.0578 -0.9826
   68MOL0     H 8936   0.538   5.277   5.166  1.6685  3.5529 -0.1946
   68MOL0     H 8937   0.546   5.165   5.022  0.4345  1.5440 -2.7009
   68MOL0     H 8938   0.335   5.190   5.108 -0.5535  1.1989  5.0776
   68MOL0     H 8939   0.088   5.231   5.192 -0.5072  0.1227 -0.6504
   68MOL0     H 8940  -0.315   5.423   4.956 -2.9095 -0.1887 -0.3849
   68MOL0     H 8941  -0.549   5.496   4.922  2.5372 -2.1146 -0.7041
   68MOL0     H 8942  -0.667   5.884   5.031  0.0737 -0.6087 -1.5491
   68MOL0     H 8943  -0.766   5.821   5.164  0.1716  0.0466  0.2921
   68MOL0     H 8944  -0.918   5.895   5.039  1.0369  0.6223  0.3245
   68MOL0     H 8945  -0.922   5.729   4.997  0.6834 -0.6521 -0.4939
   68MOL0     H 8946  -0.778   5.772   4.799 -1.3110 -0.6583 -1.0095
   68MOL0     H 8947  -0.787   5.945   4.812 -0.4764  1.0621 -0.0405
   68MOL0     H 8948  -0.944   5.863   4.645  0.7975 -4.4834  0.8619
   68MOL0     H 8949  -1.009   5.756   4.763 -2.3069  0.4596 -1.8534
   68MOL0     H 8950  -1.091   5.968   4.895  1.8519 -0.9226  0.1271
   68MOL0     H 8951  -1.159   5.967   4.728  0.1235 -1.9736 -1.4517
   68MOL0     H 8952  -1.006   6.129   4.654  0.3688  1.5479 -0.1331
   68MOL0     H 8953  -0.928   6.125   4.812  1.1969 -2.0936 -2.2253
   68MOL0     H 8954  -1.146   6.238   4.897 -2.4807 -0.9824 -0.1201
   68MOL0     H 8955  -1.103   6.322   4.755 -1.7690  1.1428  1.6923
   68MOL0     H 8956  -1.341   6.272   4.793 -2.1701 -0.7253 -1.7565
   68MOL0     H 8957  -1.297   6.104   4.814  1.6800  0.6761  1.3266
   68MOL0     H 8958  -0.511   5.803   5.211  1.8306 -0.8046 -0.8536
   68MOL0     H 8959  -0.266   5.751   5.235  1.2243 -2.0527 -0.5410
   68MOL0     H 8960   0.082   5.595   4.980  0.8912  1.1402  2.4137
   68MOL0     H 8961   0.335   5.576   4.939 -1.2286 -0.3951 -0.5055
   68MOL0     H 8962   1.819   5.773   4.226 -1.0174 -1.8593  0.2175
   68MOL0     H 8963   2.034   5.834   4.098  0.2778 -2.1138 -1.6875
   68MOL0     H 8964   2.463   5.891   4.155  3.0320 -1.1729  2.2099
   68MOL0     H 8965   2.669   6.010   4.050  1.3254  0.0695 -0.8495
   68MOL0     H 8966   2.927   5.786   3.778 -1.6496  0.2757 -0.2511
   68MOL0     H 8967   2.934   5.841   3.946  2.4152  0.8063 -0.1069
   68MOL0     H 8968   3.119   5.908   3.851 -1.3038  0.5924  2.5396
   68MOL0     H 8969   3.046   5.957   3.693  0.4058  2.2700  0.2727
   68MOL0     H 8970   3.090   6.125   3.939 -2.7586  1.4470  1.1376
   68MOL0     H 8971   2.939   6.150   3.851 -0.0437 -0.3769 -1.2246
   68MOL0     H 8972   3.132   6.288   3.769 -0.0955  0.4602 -1.2847
   68MOL0     H 8973   3.211   6.145   3.706 -0.8480  1.4315 -0.7764
   68MOL0     H 8974   2.927   6.243   3.420  0.8719 -0.7386 -0.1194
   68MOL0     H 8975   2.705   5.683   3.772 -0.6793  0.8690 -1.5843
   68MOL0     H 8976   2.515   5.562   3.883 -2.5060 -1.4023  3.9838
   69MOL0     O 8977   8.822   8.725   6.844 -0.2986  0.1356  0.6090
   69MOL0     C 8978   8.933   8.700   6.889  0.3949 -1.0764 -0.1912
   69MOL0     O 8979   8.991   8.793   6.971 -0.8296  0.4338  0.0957
   69MOL0     C 8980   8.922   8.899   7.034  0.0500 -0.2633 -0.0178
   69MOL0     C 8981   8.883   9.013   6.976 -0.5281 -0.4599 -0.2111
   69MOL0     C 8982   8.830   9.115   7.059 -0.8724 -0.3235 -0.4443
   69MOL0     C 8983   8.806   9.096   7.197 -1.4018 -0.7491 -0.3891
   69MOL0     O 8984   8.760   9.197   7.272 -0.5654 -0.5128 -0.8903
   69MOL0     C 8985   8.642   9.265   7.221 -0.0719 -0.4306 -0.0252
   69MOL0     C 8986   8.677   9.416   7.179  0.7277  1.0649 -0.8520
   69MOL0     C 8987   8.565   9.499   7.143  0.6199 -1.3159 -0.0182
   69MOL0     C 8988   8.440   9.498   7.244 -1.0549  0.2032  0.3760
   69MOL0     C 8989   8.348   9.621   7.243  0.2308 -0.1960 -0.4427
   69MOL0     C 8990   8.273   9.633   7.116  0.1472 -1.0736 -0.6016
   69MOL0     C 8991   8.193   9.764   7.115 -0.2524  0.1854  0.2915
   69MOL0     C 8992   8.061   9.754   7.022 -0.8085  0.4999 -0.4154
   69MOL0     N 8993   8.076   9.764   6.879 -0.7527 -0.0773 -0.1743
   69MOL0     C 8994   8.191   9.731   6.807  0.0062 -0.0118  0.6265
   69MOL0     C 8995   8.146   9.730   6.679  0.1329  0.2124  0.6806
   69MOL0     C 8996   8.231   9.703   6.558  0.0915  0.4907  1.2353
   69MOL0     C 8997   8.300   9.828   6.513  0.3082 -0.5582 -1.1930
   69MOL0     C 8998   8.232   9.933   6.420 -0.5089  0.0294 -0.6463
   69MOL0     C 8999   8.288  10.068   6.410  0.2024 -0.3003 -0.4554
   69MOL0     O 9000   8.311  10.137   6.532 -0.0953  0.1396 -0.3702
   69MOL0     C 9001   8.212  10.193   6.607  0.7758 -0.3709 -0.6933
   69MOL0     C 9002   8.076  10.210   6.576 -0.0154 -0.2538 -0.7121
   69MOL0     C 9003   7.992  10.292   6.657  0.2178 -0.3886 -0.5869
   69MOL0     C 9004   8.045  10.354   6.773 -1.1529  0.6366 -0.5294
   69MOL0     C 9005   7.947  10.409   6.869  0.9533 -0.5484 -1.1652
   69MOL0     O 9006   7.991  10.410   7.003 -0.1098 -0.0468  0.8462
   69MOL0     C 9007   7.887  10.431   7.090 -0.6079 -0.0298 -0.3875
   69MOL0     C 9008   7.848  10.566   7.113 -0.4798 -0.1053  0.1658
   69MOL0     C 9009   7.751  10.586   7.213  0.0716  0.3084  0.1362
   69MOL0     C 9010   7.686  10.478   7.273  0.2465 -1.5590  0.7855
   69MOL0     O 9011   7.581  10.497   7.363 -0.3977 -0.6527 -0.1334
   69MOL0     C 9012   7.457  10.430   7.328  0.0324 -0.4699  0.3408
   69MOL0     C 9013   7.349  10.486   7.422  0.1859 -0.1730  0.4246
   69MOL0     C 9014   7.212  10.409   7.415  0.7413  0.2775 -0.2217
   69MOL0     C 9015   7.095  10.516   7.451  0.1100  0.7218 -0.5191
   69MOL0     C 9016   6.969  10.439   7.514 -0.6877  0.3372  0.1263
   69MOL0     C 9017   7.000  10.372   7.649 -1.1955 -0.6311 -0.0509
   69MOL0     C 9018   6.953  10.233   7.670  0.0464  0.0535 -0.4332
   69MOL0     C 9019   6.799  10.220   7.646  0.3887 -0.3443 -0.1728
   69MOL0    Cl 9020   6.709  10.317   7.766  0.1368  0.3124 -0.1780
   69MOL0     C 9021   7.721  10.346   7.243 -0.9501 -0.0300 -0.0614
   69MOL0     C 9022   7.834  10.325   7.158  0.3045  0.2771  0.5515
   69MOL0     O 9023   7.838  10.454   6.827 -0.4220 -0.0916 -0.0560
   69MOL0     C 9024   8.178  10.323   6.808 -0.9497 -0.4309 -0.3404
   69MOL0     C 9025   8.262  10.245   6.727  0.1930  0.0099  0.7854
   69MOL0     N 9026   8.008   9.752   6.676  0.2121  0.1457  0.5522
   69MOL0     N 9027   7.972   9.772   6.798  0.8147  0.3650  0.0704
   69MOL0     C 9028   8.855   8.978   7.257 -0.3688 -0.0440 -0.4721
   69MOL0     C 9029   8.917   8.885   7.177 -1.1931  0.0037  0.0141
   69MOL0     C 9030   8.999   8.573   6.848  0.0675  0.0574 -0.1580
   69MOL0     C 9031   9.092   8.506   6.927  0.2094  0.6019  0.0569
   69MOL0     C 9032   9.153   8.388   6.880 -0.1726  0.8236  0.4879
   69MOL0     C 9033   9.118   8.318   6.767 -0.3368  0.2764  0.0297
   69MOL0     O 9034   9.170   8.199   6.733 -0.0317  0.3023 -0.0019
   69MOL0     C 9035   9.127   8.133   6.609 -0.1189 -0.4816  0.5060
   69MOL0     C 9036   9.208   8.172   6.492  0.6158 -0.3555  0.3925
   69MOL0     C 9037   9.331   8.075   6.475  0.1153 -0.4674  0.0633
   69MOL0     C 9038   9.390   8.119   6.344 -0.1347  0.8717  0.3699
   69MOL0     C 9039   9.471   7.996   6.306  0.1980 -0.1792 -0.4928
   69MOL0     C 9040   9.535   7.899   6.280  0.5880 -0.4547 -0.2980
   69MOL0     C 9041   9.023   8.383   6.693  0.5141 -0.0422  0.2115
   69MOL0     C 9042   8.961   8.507   6.730  0.6361  0.6396 -0.1420
   69MOL0     H 9043   8.882   9.020   6.868 -2.4258 -1.4217 -0.3099
   69MOL0     H 9044   8.791   9.203   7.009  0.2220  1.1793  1.1876
   69MOL0     H 9045   8.583   9.267   7.313  1.8038 -2.3555  1.3320
   69MOL0     H 9046   8.603   9.207   7.137 -0.3285 -1.5910  0.8713
   69MOL0     H 9047   8.759   9.416   7.107  0.3195 -0.5420 -1.3654
   69MOL0     H 9048   8.713   9.462   7.271  2.1305 -0.5879 -0.5177
   69MOL0     H 9049   8.533   9.463   7.045  0.9573  0.8835 -0.9858
   69MOL0     H 9050   8.594   9.604   7.131 -0.9909 -0.4960  2.4228
   69MOL0     H 9051   8.373   9.416   7.217  1.9381 -2.0206 -0.8111
   69MOL0     H 9052   8.484   9.507   7.344  1.1810  1.5915 -0.6535
   69MOL0     H 9053   8.405   9.713   7.259 -3.7046  2.9718 -2.6615
   69MOL0     H 9054   8.280   9.630   7.328  1.4625  3.7080  0.3358
   69MOL0     H 9055   8.220   9.539   7.096 -3.7182  0.4703  1.4502
   69MOL0     H 9056   8.349   9.632   7.037  1.9627  3.4278  0.8088
   69MOL0     H 9057   8.159   9.801   7.212 -0.0554 -1.2700  0.9233
   69MOL0     H 9058   8.254   9.848   7.080  0.1446  1.5787  3.9442
   69MOL0     H 9059   8.009   9.845   7.053  0.1620  0.3871  1.6815
   69MOL0     H 9060   8.002   9.667   7.054  4.5008 -2.9480  1.3983
   69MOL0     H 9061   8.293   9.711   6.836 -0.0712 -1.4188  0.0151
   69MOL0     H 9062   8.180   9.652   6.476 -1.8347  1.3708  1.8471
   69MOL0     H 9063   8.311   9.635   6.592 -0.0651  1.0707  2.8599
   69MOL0     H 9064   8.390   9.804   6.454  1.4502 -2.0062  1.0283
   69MOL0     H 9065   8.334   9.882   6.601 -0.3044  1.7091 -2.2757
   69MOL0     H 9066   8.204   9.899   6.320  0.2923  1.0401 -1.2214
   69MOL0     H 9067   8.132   9.960   6.456 -0.3023  2.1745 -1.5249
   69MOL0     H 9068   8.219  10.130   6.353 -0.7502 -0.8357  0.0954
   69MOL0     H 9069   8.388  10.066   6.365  0.2739  4.0080 -0.8602
   69MOL0     H 9070   8.037  10.155   6.491  0.6286  1.0819 -1.9115
   69MOL0     H 9071   7.887  10.306   6.634 -0.9667 -1.2422  3.4244
   69MOL0     H 9072   7.912  10.632   7.054 -1.4541 -0.8839 -1.8299
   69MOL0     H 9073   7.703  10.683   7.225 -0.2244  0.3673 -1.3176
   69MOL0     H 9074   7.473  10.322   7.337  2.2509 -0.0244  4.7931
   69MOL0     H 9075   7.432  10.450   7.224  2.7489  2.3470  0.1078
   69MOL0     H 9076   7.327  10.589   7.390 -0.6082 -1.0733 -2.2374
   69MOL0     H 9077   7.394  10.476   7.521  1.2995 -0.6396 -0.1099
   69MOL0     H 9078   7.221  10.324   7.483  0.2633 -2.5181 -3.4119
   69MOL0     H 9079   7.190  10.364   7.318  2.8451  0.7291 -0.9588
   69MOL0     H 9080   7.135  10.590   7.521 -0.9058 -1.1291  2.2066
   69MOL0     H 9081   7.052  10.565   7.363 -1.3511 -0.2536 -0.3803
   69MOL0     H 9082   6.951  10.360   7.440  0.8458 -0.9584  1.0657
   69MOL0     H 9083   6.883  10.506   7.514  0.1898  1.5055 -0.4931
   69MOL0     H 9084   6.962  10.448   7.718  0.6314 -0.8141  1.2492
   69MOL0     H 9085   7.105  10.366   7.680 -1.5124 -4.3164  0.6551
   69MOL0     H 9086   7.000  10.177   7.588 -1.3179 -1.0104 -0.5331
   69MOL0     H 9087   6.979  10.200   7.771 -2.4304 -1.0097 -0.0554
   69MOL0     H 9088   6.769  10.115   7.652 -3.9273  0.6270 -1.1253
   69MOL0     H 9089   6.770  10.254   7.546  0.4868  1.9136  0.5023
   69MOL0     H 9090   7.679  10.263   7.299 -1.3048  1.3346  1.7983
   69MOL0     H 9091   7.859  10.221   7.141 -1.0605  0.1251 -0.7758
   69MOL0     H 9092   8.230  10.366   6.893  0.8400 -1.8845 -0.6513
   69MOL0     H 9093   8.366  10.228   6.751  0.3309  0.6138  0.6220
   69MOL0     H 9094   8.848   8.959   7.364  2.6032  0.5737 -0.0748
   69MOL0     H 9095   8.963   8.796   7.219 -2.9980 -1.1269 -0.2985
   69MOL0     H 9096   9.141   8.541   7.017  3.4515  1.0762 -1.7610
   69MOL0     H 9097   9.226   8.348   6.950 -0.0833  0.1525  0.0155
   69MOL0     H 9098   9.019   8.152   6.601 -0.4383 -2.2144  0.3517
   69MOL0     H 9099   9.144   8.028   6.632  1.5757  0.5902  5.1284
   69MOL0     H 9100   9.156   8.184   6.397  2.0123  1.8896 -0.1583
   69MOL0     H 9101   9.240   8.275   6.508 -4.5588  1.7916 -1.0649
   69MOL0     H 9102   9.284   7.976   6.462 -3.0463  1.0397 -1.1233
   69MOL0     H 9103   9.392   8.089   6.564 -1.2887  1.8133  0.7400
   69MOL0     H 9104   9.313   8.141   6.269  0.3985  2.8088  0.3150
   69MOL0     H 9105   9.460   8.203   6.351  3.3348 -1.4476 -2.5304
   69MOL0     H 9106   9.594   7.815   6.249 -0.9999 -1.2719 -1.2615
   69MOL0     H 9107   8.976   8.347   6.603 -0.7171  0.1738  0.7465
   69MOL0     H 9108   8.892   8.569   6.674  1.6066  2.1614  0.2882
   70MOL0     O 9109   3.612   1.707   9.060  0.2910 -0.4497  0.5518
   70MOL0     C 9110   3.533   1.804   9.059 -1.0037 -0.3104 -0.7161
   70MOL0     O 9111   3.536   1.904   8.969  0.3366 -0.1947 -0.6767
   70MOL0     C 9112   3.616   1.909   8.855  0.7314 -0.6475 -0.4725
   70MOL0     C 9113   3.583   2.007   8.759 -0.0742  0.7912  0.6024
   70MOL0     C 9114   3.654   2.004   8.632  0.9276 -0.0220 -0.2721
   70MOL0     C 9115   3.767   1.922   8.614  0.6400  0.5330 -0.2406
   70MOL0     O 9116   3.822   1.929   8.490 -0.5009 -0.7639  0.3946
   70MOL0     C 9117   3.935   2.016   8.482  0.3358  0.7503 -1.9862
   70MOL0     C 9118   4.063   1.933   8.505 -0.5750  1.3292  0.3884
   70MOL0     C 9119   4.132   1.929   8.646  0.7507 -0.4678 -0.0259
   70MOL0     C 9120   4.216   1.801   8.681  0.0611 -0.5756 -0.1536
   70MOL0     C 9121   4.292   1.840   8.808  0.4392  0.4629  0.0215
   70MOL0     C 9122   4.401   1.739   8.839  0.0122  0.1199  0.4992
   70MOL0     C 9123   4.473   1.779   8.975 -0.7836  0.3083  0.0709
   70MOL0     C 9124   4.620   1.727   8.980  1.0332  1.0431  0.7484
   70MOL0     N 9125   4.613   1.579   8.990 -0.1252  1.0717 -0.3376
   70MOL0     C 9126   4.593   1.488   8.884  0.7028 -0.1409 -0.2164
   70MOL0     C 9127   4.554   1.374   8.943  0.2010 -1.1640 -0.3418
   70MOL0     C 9128   4.507   1.250   8.874 -0.6710  0.5755  0.2795
   70MOL0     C 9129   4.398   1.186   8.948  1.3513 -0.9684  0.2251
   70MOL0     C 9130   4.266   1.257   8.909 -1.0926  0.8461  0.2432
   70MOL0     C 9131   4.147   1.187   8.971  0.0454  0.3525 -0.2653
   70MOL0     O 9132   4.023   1.218   8.903  0.0264 -0.4988 -0.8185
   70MOL0     C 9133   3.978   1.148   8.794 -0.1313  0.2467  1.3024
   70MOL0     C 9134   4.050   1.087   8.685 -0.4008  0.2357 -0.1342
   70MOL0     C 9135   4.001   0.996   8.592  0.1094 -0.4567 -0.8067
   70MOL0     C 9136   3.863   0.967   8.598 -0.1628  0.3353 -0.4559
   70MOL0     C 9137   3.805   0.869   8.502  1.3147  0.8665 -0.5114
   70MOL0     O 9138   3.870   0.856   8.383 -0.1394  0.1602 -0.5375
   70MOL0     C 9139   3.823   0.762   8.299  0.3957  0.8325 -0.1764
   70MOL0     C 9140   3.753   0.802   8.185 -0.3157 -0.1922  1.1298
   70MOL0     C 9141   3.735   0.715   8.080  0.6724  0.8411  0.4305
   70MOL0     C 9142   3.781   0.585   8.080 -0.1731  0.9233  0.5950
   70MOL0     O 9143   3.755   0.516   7.962 -0.1263 -0.4985 -0.3103
   70MOL0     C 9144   3.765   0.380   7.979 -0.4427  0.5282 -0.8085
   70MOL0     C 9145   3.674   0.307   7.871  0.8298 -0.6372 -0.6868
   70MOL0     C 9146   3.710   0.154   7.852 -0.3695 -1.6619  0.8501
   70MOL0     C 9147   3.650   0.105   7.712 -0.1357  0.4479  0.2034
   70MOL0     C 9148   3.701  -0.035   7.661  0.1433 -0.0153 -0.4667
   70MOL0     C 9149   3.663  -0.151   7.766  0.8453  0.4504  0.2372
   70MOL0     C 9150   3.506  -0.172   7.767  0.8738 -0.6053 -0.7024
   70MOL0     C 9151   3.458  -0.318   7.764  0.4852 -0.4946  0.3676
   70MOL0    Cl 9152   3.552  -0.416   7.884  0.0890 -0.4279 -0.3258
   70MOL0     C 9153   3.857   0.542   8.190  0.0925  0.1931  0.0659
   70MOL0     C 9154   3.871   0.628   8.301 -0.3761 -0.1847 -0.0941
   70MOL0     O 9155   3.701   0.815   8.532 -0.2420  0.0338 -0.1613
   70MOL0     C 9156   3.786   1.031   8.701  0.3033 -0.0570  0.8264
   70MOL0     C 9157   3.839   1.114   8.791 -0.5974 -0.6477 -0.3182
   70MOL0     N 9158   4.565   1.397   9.078 -0.3478 -0.3937 -0.8770
   70MOL0     N 9159   4.609   1.516   9.110 -0.1276  0.2201  0.5943
   70MOL0     C 9160   3.803   1.832   8.708  0.8259  0.0778 -0.3423
   70MOL0     C 9161   3.733   1.829   8.829 -0.0154 -0.1722 -1.2228
   70MOL0     C 9162   3.425   1.810   9.167 -0.1466 -0.1210 -0.4288
   70MOL0     C 9163   3.337   1.917   9.164 -0.9522  0.1208  0.6748
   70MOL0     C 9164   3.251   1.930   9.265  0.1207  0.5781 -0.8481
   70MOL0     C 9165   3.219   1.837   9.362 -0.5282  0.0403 -0.4244
   70MOL0     O 9166   3.119   1.843   9.447  1.1624 -0.0445  1.0607
   70MOL0     C 9167   3.049   1.967   9.469 -0.1392 -0.0124  0.4113
   70MOL0     C 9168   2.969   1.962   9.599  0.4616 -0.4571  0.4118
   70MOL0     C 9169   2.861   1.852   9.597 -1.0434 -0.0785 -0.9122
   70MOL0     C 9170   2.749   1.856   9.493  0.5525 -0.1655 -0.0726
   70MOL0     C 9171   2.701   1.992   9.470 -0.0557 -0.0316  0.5301
   70MOL0     C 9172   2.675   2.107   9.444 -0.1451  0.4808 -0.6182
   70MOL0     C 9173   3.316   1.736   9.374 -0.1408 -0.0506  0.7200
   70MOL0     C 9174   3.421   1.722   9.276  0.3311  0.3429 -0.8469
   70MOL0     H 9175   3.501   2.072   8.786 -0.3178  0.3945  0.8166
   70MOL0     H 9176   3.610   2.063   8.553 -2.2397  0.4855  1.6686
   70MOL0     H 9177   3.921   2.090   8.561 -4.0355  0.2948 -2.0926
   70MOL0     H 9178   3.938   2.078   8.392  1.2785 -0.7490 -3.0479
   70MOL0     H 9179   4.132   1.964   8.425 -0.0575  0.1906  0.3820
   70MOL0     H 9180   4.032   1.829   8.491  3.4320 -0.0927  0.6497
   70MOL0     H 9181   4.047   1.933   8.716  0.2504  0.7200 -0.6669
   70MOL0     H 9182   4.191   2.019   8.666  0.8917 -0.0517 -2.0766
   70MOL0     H 9183   4.145   1.723   8.709  0.7402 -1.1230  0.0753
   70MOL0     H 9184   4.278   1.766   8.599 -0.2297 -0.8778 -0.2459
   70MOL0     H 9185   4.227   1.868   8.891 -2.0185  1.9628 -2.2501
   70MOL0     H 9186   4.343   1.936   8.789 -1.8243  1.8794  0.7347
   70MOL0     H 9187   4.471   1.732   8.755 -2.5430  1.2518 -1.9076
   70MOL0     H 9188   4.352   1.642   8.841  0.4443 -0.2231 -2.0096
   70MOL0     H 9189   4.487   1.887   8.964  1.6598 -0.0150 -0.5921
   70MOL0     H 9190   4.414   1.757   9.064 -1.1802  1.1848  0.0422
   70MOL0     H 9191   4.676   1.773   9.063  0.7146 -0.4404  1.8253
   70MOL0     H 9192   4.672   1.755   8.888  0.3436  4.6710  1.2868
   70MOL0     H 9193   4.592   1.505   8.777 -1.5633 -0.7293 -0.3430
   70MOL0     H 9194   4.601   1.194   8.887 -0.8570 -0.2510 -1.5397
   70MOL0     H 9195   4.486   1.264   8.767 -2.6747 -0.1698  0.5512
   70MOL0     H 9196   4.406   1.191   9.057 -0.1581 -0.7367  0.3435
   70MOL0     H 9197   4.404   1.083   8.911  1.8236 -1.4813  1.6519
   70MOL0     H 9198   4.282   1.355   8.956  0.2411 -0.5133  2.8451
   70MOL0     H 9199   4.261   1.245   8.801 -2.8649 -1.9776  0.5407
   70MOL0     H 9200   4.138   1.226   9.073 -2.0920  2.2971 -1.1100
   70MOL0     H 9201   4.157   1.078   8.971 -0.0559  0.3413 -0.1068
   70MOL0     H 9202   4.154   1.117   8.674 -0.8753  1.7077 -0.7767
   70MOL0     H 9203   4.063   0.942   8.522  2.1867  2.6664 -1.6051
   70MOL0     H 9204   3.726   0.905   8.167  1.9028  0.0807 -1.2141
   70MOL0     H 9205   3.668   0.748   8.000 -2.1612 -2.6781  1.0721
   70MOL0     H 9206   3.718   0.353   8.074  1.2367 -0.6430 -0.2548
   70MOL0     H 9207   3.867   0.342   7.981 -1.1057 -1.9318  4.3995
   70MOL0     H 9208   3.693   0.353   7.774  1.6705  0.2228 -0.1201
   70MOL0     H 9209   3.571   0.319   7.906  0.1378 -4.0145 -1.1950
   70MOL0     H 9210   3.691   0.084   7.934 -0.9196 -1.3795  0.9669
   70MOL0     H 9211   3.819   0.148   7.849 -0.2880 -0.0730 -1.1078
   70MOL0     H 9212   3.542   0.108   7.733 -0.2608 -1.8916  0.0741
   70MOL0     H 9213   3.677   0.186   7.643  0.5498 -0.2549 -0.3652
   70MOL0     H 9214   3.810  -0.026   7.664  0.0399  1.1456  0.2039
   70MOL0     H 9215   3.664  -0.051   7.559 -2.9103 -0.0672  0.5511
   70MOL0     H 9216   3.704  -0.138   7.866  2.9712  3.8660 -0.8771
   70MOL0     H 9217   3.704  -0.246   7.729 -4.0884 -1.5912 -0.6943
   70MOL0     H 9218   3.468  -0.137   7.863 -0.9855 -0.4208 -1.4611
   70MOL0     H 9219   3.450  -0.113   7.694  0.5739  0.3833  0.3019
   70MOL0     H 9220   3.474  -0.367   7.667  0.5835 -0.4791  0.3765
   70MOL0     H 9221   3.353  -0.329   7.792  0.1555 -0.5874 -0.8378
   70MOL0     H 9222   3.879   0.436   8.195 -0.5865 -0.1408 -2.7927
   70MOL0     H 9223   3.923   0.588   8.388 -1.7199 -1.4956  0.1318
   70MOL0     H 9224   3.678   1.019   8.702 -0.0291  2.2266 -0.7948
   70MOL0     H 9225   3.786   1.157   8.875  0.6889 -0.9912  0.7181
   70MOL0     H 9226   3.893   1.772   8.694  1.4525  1.0364 -0.4551
   70MOL0     H 9227   3.772   1.759   8.901 -3.9322 -1.3444  0.0302
   70MOL0     H 9228   3.352   1.988   9.083  1.9870  0.1909  1.1430
   70MOL0     H 9229   3.182   2.014   9.257 -0.2438  0.1420 -2.4990
   70MOL0     H 9230   2.987   1.981   9.380  0.4168 -0.8106 -0.1154
   70MOL0     H 9231   3.122   2.047   9.483 -0.3742 -0.1198  2.6672
   70MOL0     H 9232   3.042   1.966   9.680  1.2640 -1.4927 -0.2371
   70MOL0     H 9233   2.925   2.062   9.596 -3.8157 -2.0894  1.0734
   70MOL0     H 9234   2.811   1.877   9.691  1.5387  2.1440  0.0026
   70MOL0     H 9235   2.903   1.753   9.619 -1.8689 -0.6124 -1.6807
   70MOL0     H 9236   2.780   1.817   9.396  2.7691  2.6008 -0.6383
   70MOL0     H 9237   2.668   1.796   9.533 -1.7791  1.5385 -1.9053
   70MOL0     H 9238   2.648   2.207   9.415  1.1923  0.7325 -1.0608
   70MOL0     H 9239   3.318   1.662   9.452  2.2972 -0.0340  0.7272
   70MOL0     H 9240   3.496   1.643   9.277 -1.4070 -1.3837  0.2948
   71MOL0     O 9241   3.404   8.070   8.256 -0.1377  0.2571 -0.9644
   71MOL0     C 9242   3.433   7.952   8.219  0.4733  0.4500  0.4404
   71MOL0     O 9243   3.562   7.886   8.232  1.2984  0.7798 -0.0423
   71MOL0     C 9244   3.639   7.916   8.346 -0.2630 -0.3266  0.8193
   71MOL0     C 9245   3.587   7.961   8.466  0.8326 -0.8048 -0.2732
   71MOL0     C 9246   3.680   8.003   8.556 -0.3301  0.3468 -0.9576
   71MOL0     C 9247   3.818   7.973   8.541  0.3946  0.1534 -0.0288
   71MOL0     O 9248   3.913   8.018   8.627  0.6788 -0.4035  0.5265
   71MOL0     C 9249   3.877   8.056   8.759  0.6668  0.7435 -0.0078
   71MOL0     C 9250   3.999   8.145   8.807  0.4129 -0.3117 -0.1613
   71MOL0     C 9251   3.968   8.294   8.783 -0.6034 -0.3746  0.4779
   71MOL0     C 9252   4.096   8.377   8.814  0.4913 -0.2579 -0.1415
   71MOL0     C 9253   4.068   8.524   8.767  0.2485 -1.3592 -1.0720
   71MOL0     C 9254   4.032   8.548   8.619 -0.7188 -0.6054  0.5342
   71MOL0     C 9255   4.122   8.499   8.514  0.2618  0.4937 -1.0290
   71MOL0     C 9256   4.267   8.520   8.556 -0.6431  0.1793  0.3432
   71MOL0     N 9257   4.351   8.435   8.469 -0.1569 -0.3442 -0.2412
   71MOL0     C 9258   4.415   8.321   8.512 -0.3063  0.3276  0.8413
   71MOL0     C 9259   4.529   8.307   8.442 -0.5092  0.6713 -1.5240
   71MOL0     C 9260   4.642   8.219   8.482  1.1096  0.4572  0.3810
   71MOL0     C 9261   4.734   8.277   8.589 -0.2057  0.4435  0.9354
   71MOL0     C 9262   4.818   8.157   8.636  0.4610 -0.5872 -0.6444
   71MOL0     C 9263   4.933   8.204   8.737  0.5322  0.0681  0.2576
   71MOL0     O 9264   4.871   8.275   8.844  0.4088 -0.1329  0.7177
   71MOL0     C 9265   4.851   8.211   8.968 -0.2652  0.3841  0.2108
   71MOL0     C 9266   4.833   8.068   8.983 -0.5988  0.0813 -0.0974
   71MOL0     C 9267   4.816   8.009   9.107  0.0984 -0.3107  0.8050
   71MOL0     C 9268   4.815   8.095   9.220 -0.5702  0.3209 -0.4604
   71MOL0     C 9269   4.776   8.032   9.353 -0.8723 -0.9990 -0.4832
   71MOL0     O 9270   4.757   8.122   9.460  0.5147  0.0217  0.4323
   71MOL0     C 9271   4.698   8.072   9.577 -0.6956 -0.0353  0.9941
   71MOL0     C 9272   4.582   8.124   9.630  0.2298 -0.5064  0.0166
   71MOL0     C 9273   4.533   8.083   9.760  0.3076  0.7528  0.9817
   71MOL0     C 9274   4.599   7.983   9.834  0.6785  0.2520 -1.2630
   71MOL0     O 9275   4.531   7.951   9.953  0.7998 -0.4043 -0.0451
   71MOL0     C 9276   4.576   7.836  10.028  0.0668 -0.6308 -0.0249
   71MOL0     C 9277   4.485   7.790  10.142  0.2496  0.2154  1.0156
   71MOL0     C 9278   4.502   7.879  10.264  1.0630  0.4419  0.6559
   71MOL0     C 9279   4.633   7.873  10.339 -0.0107 -0.1365 -0.1154
   71MOL0     C 9280   4.643   7.947  10.462  0.5033 -0.2392 -0.3093
   71MOL0     C 9281   4.519   7.957  10.549  0.6510  0.7303 -0.2061
   71MOL0     C 9282   4.558   7.980  10.699 -0.1890 -0.3294 -0.0302
   71MOL0     C 9283   4.435   7.980  10.789  0.0340  0.4082  0.1771
   71MOL0    Cl 9284   4.320   8.111  10.742  0.4156  0.7352 -0.0420
   71MOL0     C 9285   4.717   7.937   9.782 -0.5041 -0.5815 -0.6281
   71MOL0     C 9286   4.766   7.983   9.657 -0.6596  0.7683 -0.5707
   71MOL0     O 9287   4.738   7.915   9.354 -0.7307 -0.1051 -0.5168
   71MOL0     C 9288   4.843   8.226   9.213  0.7881  0.0816  0.0509
   71MOL0     C 9289   4.860   8.287   9.085 -0.6562 -0.1480 -0.8758
   71MOL0     N 9290   4.538   8.419   8.369  0.6746  0.2468  0.6690
   71MOL0     N 9291   4.435   8.492   8.376  0.0057 -0.1401 -0.5486
   71MOL0     C 9292   3.867   7.916   8.427 -0.5118  0.8752  0.9170
   71MOL0     C 9293   3.777   7.884   8.331  0.9253  0.2704  0.2464
   71MOL0     C 9294   3.334   7.874   8.148 -0.4863  0.9643 -0.9180
   71MOL0     C 9295   3.370   7.779   8.051  0.3201  0.9975 -1.6201
   71MOL0     C 9296   3.270   7.712   7.980  0.0525 -0.2185 -0.1043
   71MOL0     C 9297   3.132   7.731   8.019 -0.8382 -0.3378 -0.0954
   71MOL0     O 9298   3.028   7.653   7.979 -0.2953 -0.4256 -1.0452
   71MOL0     C 9299   3.045   7.541   7.896 -1.2608 -0.4338  0.2390
   71MOL0     C 9300   2.915   7.458   7.896 -0.9034 -0.5434  0.3134
   71MOL0     C 9301   2.814   7.539   7.816  0.1761  0.1075 -0.1050
   71MOL0     C 9302   2.831   7.519   7.656 -0.7295  0.0415  0.3926
   71MOL0     C 9303   2.719   7.565   7.576 -0.0223  0.0143  0.0144
   71MOL0     C 9304   2.623   7.588   7.514  0.1978 -0.4423 -0.3447
   71MOL0     C 9305   3.102   7.822   8.115  0.3756  0.5900 -0.3847
   71MOL0     C 9306   3.197   7.893   8.176  0.1037  0.0329 -0.3479
   71MOL0     H 9307   3.482   7.985   8.475  0.5701 -2.2588  1.0371
   71MOL0     H 9308   3.658   8.072   8.637 -2.1709 -1.6919  0.3863
   71MOL0     H 9309   3.886   7.964   8.817  3.0598  0.5550 -0.5629
   71MOL0     H 9310   3.788   8.118   8.776  0.9309  1.2189 -0.3258
   71MOL0     H 9311   4.089   8.116   8.752 -0.2512 -1.0018 -0.9183
   71MOL0     H 9312   4.005   8.120   8.913 -2.3708 -1.0226 -0.0954
   71MOL0     H 9313   3.880   8.327   8.839 -0.6904 -0.1724  0.2252
   71MOL0     H 9314   3.954   8.302   8.675  3.1023 -1.7710 -0.2584
   71MOL0     H 9315   4.107   8.377   8.922  0.6362  1.9154 -0.1145
   71MOL0     H 9316   4.176   8.339   8.750  1.8951 -1.8333  2.3978
   71MOL0     H 9317   4.152   8.589   8.795 -0.8371  0.0705 -0.9810
   71MOL0     H 9318   3.974   8.563   8.808 -0.1711  0.5016 -3.5784
   71MOL0     H 9319   4.025   8.654   8.593 -1.9141 -1.3663 -2.7139
   71MOL0     H 9320   3.931   8.508   8.603 -1.7086  2.1450 -0.7045
   71MOL0     H 9321   4.098   8.395   8.490 -2.4733  1.1837 -1.6740
   71MOL0     H 9322   4.108   8.554   8.420  1.7864  0.5777 -1.2316
   71MOL0     H 9323   4.302   8.495   8.657  0.1183  0.5751  0.1879
   71MOL0     H 9324   4.303   8.623   8.548  2.5728 -0.8480  0.1752
   71MOL0     H 9325   4.394   8.259   8.599  1.8051 -2.4062 -0.4424
   71MOL0     H 9326   4.688   8.184   8.389  0.7142 -0.0719  0.3842
   71MOL0     H 9327   4.584   8.135   8.519  0.6338  0.2240 -0.8677
   71MOL0     H 9328   4.673   8.306   8.675  0.0459 -1.8794  1.9968
   71MOL0     H 9329   4.787   8.369   8.563  0.2500  0.7415  2.7650
   71MOL0     H 9330   4.756   8.082   8.686 -1.2973 -0.2851 -2.2638
   71MOL0     H 9331   4.861   8.106   8.549  1.3367  0.9184 -1.1429
   71MOL0     H 9332   5.001   8.267   8.680 -0.6610 -0.7571 -2.1833
   71MOL0     H 9333   4.995   8.120   8.769  0.0330 -0.2962  0.2805
   71MOL0     H 9334   4.824   8.027   8.883 -2.9021 -0.3805  0.2435
   71MOL0     H 9335   4.803   7.901   9.108 -1.5701 -0.1607  2.9288
   71MOL0     H 9336   4.537   8.202   9.570  3.5564  0.5515 -1.3783
   71MOL0     H 9337   4.448   8.132   9.807 -0.8168 -0.3941  0.2305
   71MOL0     H 9338   4.676   7.859  10.067  0.1471 -2.5298  0.9775
   71MOL0     H 9339   4.578   7.749   9.962 -1.7016 -2.1727  1.8426
   71MOL0     H 9340   4.497   7.682  10.159 -2.1428 -0.7929 -2.4309
   71MOL0     H 9341   4.381   7.791  10.105  0.2311  0.1365  1.0641
   71MOL0     H 9342   4.420   7.869  10.336  0.3814 -1.6204 -0.3356
   71MOL0     H 9343   4.488   7.977  10.219 -0.9172 -0.2972 -0.4515
   71MOL0     H 9344   4.670   7.770  10.342  0.0905 -0.1472 -1.3623
   71MOL0     H 9345   4.713   7.909  10.274  0.8404 -0.8655  0.5022
   71MOL0     H 9346   4.677   8.049  10.447  1.6458 -0.2708  1.6785
   71MOL0     H 9347   4.735   7.910  10.510 -0.0853  1.6088  2.4205
   71MOL0     H 9348   4.462   7.865  10.536  0.3009  1.0855 -1.2643
   71MOL0     H 9349   4.458   8.040  10.513  2.0394  1.6145 -0.5706
   71MOL0     H 9350   4.628   7.906  10.737 -2.4918 -0.3418  4.8926
   71MOL0     H 9351   4.619   8.068  10.720  3.5881 -2.9562  1.0455
   71MOL0     H 9352   4.464   8.003  10.891  1.9163  2.5941 -0.7629
   71MOL0     H 9353   4.391   7.880  10.793  2.6871 -0.8216  0.2206
   71MOL0     H 9354   4.772   7.860   9.835  0.6628 -1.4470 -2.9350
   71MOL0     H 9355   4.862   7.947   9.622 -1.3625 -0.2782 -1.4966
   71MOL0     H 9356   4.846   8.298   9.295 -0.3638  0.5347 -0.2835
   71MOL0     H 9357   4.889   8.392   9.083  0.8111 -0.5000 -3.7838
   71MOL0     H 9358   3.974   7.901   8.430 -0.2938  2.3587  1.0003
   71MOL0     H 9359   3.810   7.843   8.236 -0.2166 -0.3180  0.0807
   71MOL0     H 9360   3.475   7.749   8.053 -0.1457 -1.4935  3.8003
   71MOL0     H 9361   3.292   7.642   7.900  0.1023  0.4996 -0.7313
   71MOL0     H 9362   3.114   7.479   7.955 -0.1651 -0.2440 -0.8044
   71MOL0     H 9363   3.094   7.560   7.800 -3.0231 -3.8881 -1.5153
   71MOL0     H 9364   2.926   7.355   7.859 -3.3986 -0.5264 -0.6278
   71MOL0     H 9365   2.884   7.452   8.001  0.7061 -0.6696  0.8175
   71MOL0     H 9366   2.807   7.645   7.843  4.0362  0.3239  0.5682
   71MOL0     H 9367   2.723   7.494   7.858 -0.1928  2.5413  1.9604
   71MOL0     H 9368   2.919   7.578   7.627  0.3024 -0.8957  1.4678
   71MOL0     H 9369   2.858   7.416   7.632  1.0397  0.2745  1.2122
   71MOL0     H 9370   2.527   7.598   7.468  0.3170  1.5396 -0.2314
   71MOL0     H 9371   3.000   7.822   8.152 -0.6538 -1.3803 -2.9380
   71MOL0     H 9372   3.162   7.967   8.248 -1.2528  0.6553 -1.5911
   72MOL0     O 9373   2.221   4.650   1.603  0.6474  0.6614 -0.5320
   72MOL0     C 9374   2.125   4.663   1.680 -0.1372 -0.4481  0.1692
   72MOL0     O 9375   2.127   4.616   1.810  0.3462  0.6940 -0.2392
   72MOL0     C 9376   2.229   4.531   1.837 -0.1064 -0.5546 -0.6754
   72MOL0     C 9377   2.246   4.410   1.778  0.5423 -0.7126  0.9419
   72MOL0     C 9378   2.354   4.327   1.791  0.2438 -0.2804 -0.2223
   72MOL0     C 9379   2.439   4.364   1.896 -0.1039  0.3836 -0.1135
   72MOL0     O 9380   2.541   4.284   1.938 -0.0118  0.8787  1.0279
   72MOL0     C 9381   2.502   4.189   2.031 -0.4254  0.4232 -1.3217
   72MOL0     C 9382   2.443   4.054   1.989  0.8761 -0.4502 -0.3392
   72MOL0     C 9383   2.461   3.939   2.087  0.1788  0.3197  0.5547
   72MOL0     C 9384   2.427   3.986   2.240 -0.8396  0.6225  0.1279
   72MOL0     C 9385   2.281   4.008   2.270 -0.3738  0.5497  0.1736
   72MOL0     C 9386   2.244   4.074   2.402  0.2467  0.1903  0.4907
   72MOL0     C 9387   2.095   4.054   2.429 -0.4095  0.8567 -0.0927
   72MOL0     C 9388   2.024   4.159   2.521 -0.0952 -0.6176  0.9514
   72MOL0     N 9389   1.890   4.109   2.557  0.5603  0.2772 -0.3489
   72MOL0     C 9390   1.783   4.141   2.478 -0.2947  0.5418 -0.3803
   72MOL0     C 9391   1.686   4.054   2.526  0.7398  0.6088  0.1135
   72MOL0     C 9392   1.563   4.026   2.443  0.2238 -0.7837 -0.3774
   72MOL0     C 9393   1.573   3.890   2.371  0.5659 -0.6656 -0.0195
   72MOL0     C 9394   1.639   3.923   2.230 -2.1193  0.6397  0.4839
   72MOL0     C 9395   1.679   3.806   2.138  0.7410 -0.3626  0.6777
   72MOL0     O 9396   1.720   3.860   2.012  0.2544 -0.7456 -0.0190
   72MOL0     C 9397   1.748   3.769   1.911 -0.7710  0.0794  0.0849
   72MOL0     C 9398   1.763   3.816   1.777 -0.3109 -0.3390 -0.2986
   72MOL0     C 9399   1.792   3.729   1.676  0.8451 -0.6048  0.7170
   72MOL0     C 9400   1.815   3.592   1.690  0.0818  0.4621 -0.9899
   72MOL0     C 9401   1.864   3.504   1.585  0.0326  0.6937 -0.2682
   72MOL0     O 9402   1.825   3.527   1.463  0.4249 -0.5540 -0.4774
   72MOL0     C 9403   1.814   3.437   1.369 -0.0002 -0.6023 -0.5038
   72MOL0     C 9404   1.795   3.303   1.391  0.6091 -0.6978 -0.7408
   72MOL0     C 9405   1.788   3.211   1.296  1.6165 -0.0010  0.6699
   72MOL0     C 9406   1.802   3.246   1.163  0.7870  0.2139 -0.9779
   72MOL0     O 9407   1.780   3.147   1.070  0.5495  0.0007 -0.2570
   72MOL0     C 9408   1.805   3.167   0.935  0.1906  0.9134  0.7273
   72MOL0     C 9409   1.764   3.030   0.860  1.4643  1.0841  0.2238
   72MOL0     C 9410   1.620   2.990   0.898 -0.2370 -0.4229 -0.4402
   72MOL0     C 9411   1.568   2.863   0.818  0.2332 -0.7839 -0.3689
   72MOL0     C 9412   1.429   2.811   0.862  0.2002  0.6996 -0.1306
   72MOL0     C 9413   1.385   2.690   0.782  0.0719  0.7366 -0.6274
   72MOL0     C 9414   1.272   2.600   0.846 -0.3910 -0.7458 -0.5900
   72MOL0     C 9415   1.205   2.505   0.742  0.2655  0.6279 -1.4635
   72MOL0    Cl 9416   1.077   2.412   0.807 -0.4401  0.3991  0.4493
   72MOL0     C 9417   1.815   3.384   1.134 -0.1680  0.0792 -0.2410
   72MOL0     C 9418   1.819   3.482   1.237 -0.0757 -0.3446  0.1364
   72MOL0     O 9419   1.947   3.417   1.619  0.7572  0.8433 -0.1522
   72MOL0     C 9420   1.799   3.545   1.826  0.1173 -0.9870 -0.4636
   72MOL0     C 9421   1.764   3.633   1.933 -0.4193 -0.1201 -0.1338
   72MOL0     N 9422   1.734   3.979   2.627 -0.1925 -0.2465 -0.0964
   72MOL0     N 9423   1.851   4.021   2.651 -0.0914 -0.0164 -0.6549
   72MOL0     C 9424   2.419   4.479   1.967 -0.1500  0.7644 -0.6743
   72MOL0     C 9425   2.312   4.561   1.945  1.3692 -0.4366 -0.3273
   72MOL0     C 9426   2.002   4.739   1.640  0.8095  0.0151 -0.2353
   72MOL0     C 9427   1.884   4.751   1.717 -0.4985 -0.4734  0.0126
   72MOL0     C 9428   1.778   4.825   1.695 -0.0919 -0.7026  1.2923
   72MOL0     C 9429   1.784   4.915   1.588 -0.8008 -0.3626  1.0334
   72MOL0     O 9430   1.704   5.028   1.563 -0.8069 -0.5281  0.7923
   72MOL0     C 9431   1.631   5.079   1.668  0.3141  0.5237 -0.7571
   72MOL0     C 9432   1.626   5.223   1.669  0.8789  0.4360 -0.7144
   72MOL0     C 9433   1.766   5.292   1.675 -0.1586 -0.3638 -0.5488
   72MOL0     C 9434   1.840   5.279   1.808  0.0446  0.6133  0.8519
   72MOL0     C 9435   1.755   5.324   1.921 -0.8630 -0.3709 -0.2107
   72MOL0     C 9436   1.681   5.348   2.016 -0.1632  0.1112 -0.1027
   72MOL0     C 9437   1.898   4.914   1.503 -0.3032  0.6483  0.6828
   72MOL0     C 9438   2.005   4.823   1.534 -0.3903 -0.3477 -0.2080
   72MOL0     H 9439   2.169   4.387   1.705  0.3358 -0.0975  0.9626
   72MOL0     H 9440   2.372   4.238   1.731 -1.2954  1.0041 -2.7514
   72MOL0     H 9441   2.442   4.226   2.115 -2.0058 -1.4848 -1.5375
   72MOL0     H 9442   2.597   4.164   2.078  0.1974  4.3932 -0.1327
   72MOL0     H 9443   2.494   4.018   1.899  0.5846 -0.7120 -0.4029
   72MOL0     H 9444   2.340   4.066   1.952  0.9679 -1.0127 -0.7959
   72MOL0     H 9445   2.561   3.895   2.082  0.2161  0.1418  2.2040
   72MOL0     H 9446   2.389   3.862   2.057 -0.2124  0.1929  1.7639
   72MOL0     H 9447   2.465   3.898   2.293 -2.3644 -0.9934 -1.3682
   72MOL0     H 9448   2.476   4.073   2.285  0.6369  1.5287 -2.9388
   72MOL0     H 9449   2.231   3.912   2.251  0.3218 -0.3013  2.3484
   72MOL0     H 9450   2.246   4.080   2.195 -1.8486  0.1360  0.4266
   72MOL0     H 9451   2.260   4.182   2.393  0.3644  0.1664  0.4169
   72MOL0     H 9452   2.306   4.035   2.483  1.3439  3.8340  1.6413
   72MOL0     H 9453   2.044   4.049   2.332  1.8317 -2.5627 -1.2585
   72MOL0     H 9454   2.076   3.954   2.469  2.1764  1.5380  3.3944
   72MOL0     H 9455   2.025   4.256   2.470 -0.4139 -2.5501 -3.1680
   72MOL0     H 9456   2.080   4.166   2.615 -2.6801  0.3617  2.5016
   72MOL0     H 9457   1.779   4.212   2.396  0.3283  1.2263  0.1709
   72MOL0     H 9458   1.542   4.107   2.372  2.9061 -0.0780 -0.4876
   72MOL0     H 9459   1.472   4.032   2.504  1.3963  3.0349  1.2509
   72MOL0     H 9460   1.472   3.849   2.356  1.1816 -1.7934 -1.3306
   72MOL0     H 9461   1.630   3.820   2.432  0.6217 -0.9915 -0.4400
   72MOL0     H 9462   1.570   3.983   2.171  1.9198  3.2369 -2.1162
   72MOL0     H 9463   1.728   3.985   2.247 -3.2070  1.5839  3.0668
   72MOL0     H 9464   1.588   3.746   2.132 -1.7002  3.1252 -3.2418
   72MOL0     H 9465   1.765   3.757   2.184 -0.7247 -1.1759  2.6677
   72MOL0     H 9466   1.749   3.923   1.764  1.2892  0.3279  2.6235
   72MOL0     H 9467   1.788   3.762   1.572 -2.1626 -0.3487  0.8062
   72MOL0     H 9468   1.800   3.254   1.488 -1.0259 -1.1724 -0.8676
   72MOL0     H 9469   1.794   3.114   1.343 -0.4202 -1.2184 -1.4059
   72MOL0     H 9470   1.910   3.197   0.926  0.2934  0.8023  1.5063
   72MOL0     H 9471   1.743   3.253   0.908 -1.0500 -0.0051  0.5708
   72MOL0     H 9472   1.831   2.944   0.876 -1.2305 -1.4660 -1.2291
   72MOL0     H 9473   1.769   3.042   0.751 -0.0836 -0.8969 -0.1312
   72MOL0     H 9474   1.550   3.071   0.872  0.8065  1.3953  1.9845
   72MOL0     H 9475   1.606   2.967   1.004  2.0745  0.2181  0.0627
   72MOL0     H 9476   1.558   2.895   0.714 -0.6445 -3.6440 -1.2567
   72MOL0     H 9477   1.634   2.777   0.827 -1.3808 -2.0072  0.2992
   72MOL0     H 9478   1.357   2.892   0.854  1.1465  1.6142  0.4376
   72MOL0     H 9479   1.427   2.776   0.966  0.8024 -0.5405 -0.5063
   72MOL0     H 9480   1.472   2.626   0.766 -0.9532 -1.2842  1.3406
   72MOL0     H 9481   1.360   2.731   0.683  0.1470 -1.4266 -1.5956
   72MOL0     H 9482   1.312   2.538   0.927  0.2866  0.3496 -0.0447
   72MOL0     H 9483   1.202   2.668   0.895  1.7892 -0.8329  3.0166
   72MOL0     H 9484   1.281   2.440   0.696 -0.4317 -0.5040 -1.0684
   72MOL0     H 9485   1.158   2.567   0.666  1.3142 -1.6323 -4.1063
   72MOL0     H 9486   1.807   3.421   1.032 -0.8114 -1.7880 -0.9088
   72MOL0     H 9487   1.840   3.587   1.222 -1.1212  0.3243  2.7015
   72MOL0     H 9488   1.810   3.438   1.842 -0.9624 -1.0257  0.1414
   72MOL0     H 9489   1.759   3.577   2.026 -1.1623 -0.9615 -0.6664
   72MOL0     H 9490   2.490   4.488   2.048  1.1748 -0.8080 -1.5996
   72MOL0     H 9491   2.291   4.646   2.008 -4.0576 -0.7883 -1.1735
   72MOL0     H 9492   1.880   4.681   1.800 -2.1314  0.8066  1.0929
   72MOL0     H 9493   1.685   4.820   1.751  0.5091 -0.5136  2.3496
   72MOL0     H 9494   1.656   5.040   1.767 -1.8769 -1.8436 -1.0356
   72MOL0     H 9495   1.532   5.033   1.662  1.3373 -2.7449  3.2461
   72MOL0     H 9496   1.591   5.240   1.567 -0.8948 -0.1620 -0.2323
   72MOL0     H 9497   1.559   5.263   1.745  3.0725 -2.3195  3.0803
   72MOL0     H 9498   1.748   5.399   1.672 -0.5146 -0.3349  1.2481
   72MOL0     H 9499   1.830   5.261   1.592 -1.2399  0.1537 -1.6001
   72MOL0     H 9500   1.872   5.176   1.824  2.9597  1.2479 -0.3359
   72MOL0     H 9501   1.928   5.341   1.791 -0.2546  0.3316 -2.3955
   72MOL0     H 9502   1.607   5.354   2.094 -2.0229 -2.1064 -1.5735
   72MOL0     H 9503   1.910   4.981   1.418  5.8812  1.3369  1.5972
   72MOL0     H 9504   2.092   4.812   1.470  1.1711 -0.2860  1.8255
   73MOL0     O 9505   4.322   0.138   5.336  0.5221  0.3067 -0.5342
   73MOL0     C 9506   4.334   0.060   5.242  0.8637  0.4480  0.3668
   73MOL0     O 9507   4.422  -0.049   5.238  0.1274  0.4001 -0.1603
   73MOL0     C 9508   4.517  -0.055   5.339  0.6718 -0.1386  0.0117
   73MOL0     C 9509   4.648  -0.018   5.313  0.9914  0.7194  0.9632
   73MOL0     C 9510   4.736  -0.065   5.411  0.1275 -0.5785 -0.6416
   73MOL0     C 9511   4.708  -0.129   5.530 -0.0186 -0.4115  0.4815
   73MOL0     O 9512   4.815  -0.164   5.599 -0.1321 -0.3038 -0.5074
   73MOL0     C 9513   4.801  -0.261   5.707  0.3646  0.2505  0.1694
   73MOL0     C 9514   4.778  -0.188   5.836 -0.0968  0.0546  0.1050
   73MOL0     C 9515   4.788  -0.288   5.958 -0.5849  0.3609 -0.5074
   73MOL0     C 9516   4.939  -0.323   5.983 -0.7015  0.7647 -0.0320
   73MOL0     C 9517   4.972  -0.458   6.049  0.2993  0.0184  0.7413
   73MOL0     C 9518   4.922  -0.482   6.196  0.3425 -0.2712 -0.7478
   73MOL0     C 9519   4.955  -0.617   6.264 -0.1465 -0.4820  0.4379
   73MOL0     C 9520   4.850  -0.681   6.368 -0.4783 -0.5634  0.4336
   73MOL0     N 9521   4.838  -0.622   6.495  0.0618 -0.3220  0.5259
   73MOL0     C 9522   4.774  -0.501   6.516 -0.1681 -0.3337 -0.2828
   73MOL0     C 9523   4.767  -0.476   6.652 -0.5302 -0.2601  0.7702
   73MOL0     C 9524   4.696  -0.368   6.734 -0.4335  0.1914  0.0327
   73MOL0     C 9525   4.809  -0.310   6.822 -0.4000 -0.1849 -0.5104
   73MOL0     C 9526   4.771  -0.212   6.937  0.6508 -0.3385  0.4109
   73MOL0     C 9527   4.667  -0.109   6.877 -1.0288  0.3017  0.1118
   73MOL0     O 9528   4.732  -0.063   6.759 -0.2638  0.3904 -0.1038
   73MOL0     C 9529   4.810   0.050   6.777 -0.6603  0.0002  0.1188
   73MOL0     C 9530   4.931   0.043   6.707 -0.3963  0.4499 -0.3448
   73MOL0     C 9531   5.015   0.161   6.712 -0.1563 -1.0848  0.1957
   73MOL0     C 9532   4.975   0.275   6.788 -0.8557  0.9498 -0.2344
   73MOL0     C 9533   5.054   0.398   6.778  0.0487 -0.6628  0.8890
   73MOL0     O 9534   5.184   0.373   6.764 -1.1751  0.8329 -0.0300
   73MOL0     C 9535   5.287   0.462   6.772  0.6572  0.0993 -0.6006
   73MOL0     C 9536   5.418   0.417   6.770 -0.1285  0.0372  0.2875
   73MOL0     C 9537   5.530   0.496   6.770 -0.5493  0.2397 -0.6539
   73MOL0     C 9538   5.509   0.635   6.778 -1.4069 -0.0337 -0.5835
   73MOL0     O 9539   5.607   0.729   6.769  0.1994 -0.0867  0.1306
   73MOL0     C 9540   5.740   0.681   6.758 -0.0219 -0.4206 -0.2200
   73MOL0     C 9541   5.846   0.788   6.790  0.7423 -0.7239  0.0790
   73MOL0     C 9542   5.822   0.908   6.688 -0.4222 -0.2718 -0.0466
   73MOL0     C 9543   5.928   1.012   6.723 -0.3461 -0.3894  0.2056
   73MOL0     C 9544   5.922   1.159   6.667 -0.4471  0.7544  0.3293
   73MOL0     C 9545   5.935   1.151   6.515 -0.9161 -0.1655 -0.2609
   73MOL0     C 9546   5.922   1.296   6.451 -0.2271  0.1131  0.2126
   73MOL0     C 9547   5.939   1.300   6.299 -0.2613 -0.7826  1.1131
   73MOL0    Cl 9548   6.075   1.410   6.248  0.0553 -0.0921 -0.4170
   73MOL0     C 9549   5.385   0.681   6.791  1.2191  0.8367  1.5265
   73MOL0     C 9550   5.275   0.598   6.781  0.6888  0.1643  0.1444
   73MOL0     O 9551   4.994   0.506   6.781  0.6447  0.5890 -0.4101
   73MOL0     C 9552   4.863   0.277   6.864  0.4828 -0.1792  0.0135
   73MOL0     C 9553   4.772   0.169   6.852 -0.5776  0.5222 -0.5447
   73MOL0     N 9554   4.832  -0.581   6.712 -0.4670  0.4587 -0.1950
   73MOL0     N 9555   4.869  -0.663   6.622  0.7596  0.0834 -0.1607
   73MOL0     C 9556   4.574  -0.158   5.549 -0.3758  0.0441  0.0881
   73MOL0     C 9557   4.482  -0.113   5.468 -0.3237  0.1017  1.3015
   73MOL0     C 9558   4.232   0.049   5.143  0.0035 -0.8900 -0.3261
   73MOL0     C 9559   4.145  -0.059   5.155  0.0136 -0.6570 -0.7159
   73MOL0     C 9560   4.040  -0.074   5.062 -0.4529 -0.2869  0.3299
   73MOL0     C 9561   4.002   0.022   4.972  0.3443 -0.7243  0.1662
   73MOL0     O 9562   3.904   0.012   4.869  0.9811  0.3764  0.0907
   73MOL0     C 9563   3.814  -0.098   4.862  0.0212 -0.0917 -0.6345
   73MOL0     C 9564   3.711  -0.116   4.967  0.6897 -0.2662 -0.6689
   73MOL0     C 9565   3.622   0.000   4.997  0.3128  0.2341  1.0264
   73MOL0     C 9566   3.563  -0.019   5.135  0.7479  0.5469  1.2376
   73MOL0     C 9567   3.482   0.089   5.177  0.7748 -0.4082 -0.1362
   73MOL0     C 9568   3.409   0.182   5.203  0.4789 -0.0430 -0.3564
   73MOL0     C 9569   4.093   0.130   4.967 -0.6949 -0.4211 -0.3540
   73MOL0     C 9570   4.208   0.145   5.051 -0.3253 -0.5969  0.4655
   73MOL0     H 9571   4.676   0.025   5.217 -4.2423  0.3313 -1.0471
   73MOL0     H 9572   4.836  -0.028   5.393 -0.6510  1.7499 -0.5753
   73MOL0     H 9573   4.888  -0.327   5.701 -0.8299 -1.2548 -1.7864
   73MOL0     H 9574   4.716  -0.328   5.689 -0.2443  0.5513  1.7996
   73MOL0     H 9575   4.676  -0.147   5.833  0.1438  0.6394 -2.6072
   73MOL0     H 9576   4.850  -0.106   5.846  1.4539 -1.3927  1.2155
   73MOL0     H 9577   4.728  -0.379   5.951 -3.6620  2.1982  0.2017
   73MOL0     H 9578   4.755  -0.238   6.049  2.2902 -0.0329  0.8531
   73MOL0     H 9579   4.988  -0.347   5.889 -1.0771 -2.3182  0.4264
   73MOL0     H 9580   5.002  -0.248   6.031  0.4303 -0.3716  0.3077
   73MOL0     H 9581   5.082  -0.458   6.055  0.3901  0.1016 -0.5631
   73MOL0     H 9582   4.939  -0.532   5.976  0.9401  0.5931 -0.1505
   73MOL0     H 9583   4.815  -0.472   6.212  0.3068  0.2793 -1.2572
   73MOL0     H 9584   4.961  -0.411   6.271 -4.0904  0.6266  1.0476
   73MOL0     H 9585   4.971  -0.691   6.185  2.0087  3.4689 -3.2255
   73MOL0     H 9586   5.056  -0.615   6.307  0.8296  2.3990 -1.6730
   73MOL0     H 9587   4.862  -0.789   6.381 -1.4554 -0.7917 -0.4066
   73MOL0     H 9588   4.755  -0.676   6.314 -0.2618  0.6112  0.1332
   73MOL0     H 9589   4.747  -0.440   6.430  0.5028  1.2365  0.5680
   73MOL0     H 9590   4.614  -0.417   6.786  1.2847 -1.9750  0.8716
   73MOL0     H 9591   4.673  -0.292   6.659  1.4842 -1.7352 -2.7167
   73MOL0     H 9592   4.892  -0.280   6.758 -0.0417 -2.2604 -1.1131
   73MOL0     H 9593   4.849  -0.400   6.870  0.9274  0.4298 -0.4467
   73MOL0     H 9594   4.718  -0.273   7.011 -1.8274 -1.3672 -2.0428
   73MOL0     H 9595   4.856  -0.157   6.979  1.4044 -1.7738  0.8334
   73MOL0     H 9596   4.655  -0.035   6.957  1.9109 -0.6366  1.5713
   73MOL0     H 9597   4.572  -0.151   6.844 -0.8484  1.0921 -1.5080
   73MOL0     H 9598   4.965  -0.047   6.656  1.4639 -0.5443  2.4147
   73MOL0     H 9599   5.109   0.164   6.657  0.4260  3.9657  0.9948
   73MOL0     H 9600   5.415   0.309   6.755 -0.4286  0.0711  0.0782
   73MOL0     H 9601   5.630   0.454   6.772 -0.2960  0.4853 -3.4980
   73MOL0     H 9602   5.745   0.638   6.658 -3.7429  1.6644 -1.4658
   73MOL0     H 9603   5.767   0.598   6.825  0.5447  0.2179  0.3550
   73MOL0     H 9604   5.948   0.747   6.790  0.6439 -1.2759  3.5087
   73MOL0     H 9605   5.825   0.836   6.886 -2.3258  0.3711 -1.0407
   73MOL0     H 9606   5.730   0.964   6.705  1.0970  2.6555 -0.7704
   73MOL0     H 9607   5.826   0.874   6.584 -0.8309  2.9299 -1.2291
   73MOL0     H 9608   5.936   1.014   6.832 -0.0675  3.1246  0.2214
   73MOL0     H 9609   6.019   0.953   6.706 -1.2913 -1.5631 -1.0131
   73MOL0     H 9610   6.006   1.214   6.712  1.9755 -1.2985 -1.4237
   73MOL0     H 9611   5.825   1.202   6.696 -0.3235  1.0757  0.2671
   73MOL0     H 9612   5.867   1.081   6.465 -1.0273 -0.9226  0.9069
   73MOL0     H 9613   6.034   1.112   6.491 -0.8917 -0.2101 -0.0911
   73MOL0     H 9614   5.838   1.350   6.495 -1.5428 -2.1169  0.6047
   73MOL0     H 9615   6.012   1.351   6.480 -1.6881  2.3047  0.8319
   73MOL0     H 9616   5.859   1.345   6.240 -0.0480 -1.7266  0.0731
   73MOL0     H 9617   5.928   1.201   6.255 -2.1111  0.0441 -0.4119
   73MOL0     H 9618   5.364   0.787   6.794 -0.6212  0.8855 -3.8262
   73MOL0     H 9619   5.180   0.647   6.800  0.9955  0.0929  2.0529
   73MOL0     H 9620   4.855   0.364   6.929 -1.8450  0.0694 -0.5415
   73MOL0     H 9621   4.692   0.184   6.924  1.4856  0.8814  1.8229
   73MOL0     H 9622   4.547  -0.222   5.633 -3.1901  1.5896  0.4965
   73MOL0     H 9623   4.379  -0.127   5.500 -0.6035 -0.2272  0.3156
   73MOL0     H 9624   4.155  -0.139   5.228 -1.1328 -0.3138 -0.1567
   73MOL0     H 9625   3.996  -0.173   5.065 -0.7257 -0.1922  3.5411
   73MOL0     H 9626   3.869  -0.193   4.861  2.3490  1.1514  0.7787
   73MOL0     H 9627   3.769  -0.106   4.763 -0.0880 -3.9474 -0.4415
   73MOL0     H 9628   3.641  -0.199   4.952 -0.5665  0.4233  1.0345
   73MOL0     H 9629   3.769  -0.138   5.057 -1.5838 -2.6484  0.3204
   73MOL0     H 9630   3.533   0.008   4.934  1.0499  3.1291  0.1896
   73MOL0     H 9631   3.667   0.100   4.990  0.0781  0.2426 -2.2763
   73MOL0     H 9632   3.492  -0.102   5.125  0.3983  0.5984  3.0262
   73MOL0     H 9633   3.644  -0.029   5.208  2.2404  0.1461 -0.3882
   73MOL0     H 9634   3.348   0.266   5.230 -0.8713 -0.7432 -1.1090
   73MOL0     H 9635   4.089   0.205   4.888  2.4500 -1.0851 -1.2831
   73MOL0     H 9636   4.272   0.231   5.033  2.9458 -3.2010 -1.6228
   74MOL0     O 9637   4.167   5.112   2.924  0.1780 -0.6046  0.1363
   74MOL0     C 9638   4.144   5.073   3.036 -0.4649  0.3977 -0.6611
   74MOL0     O 9639   4.039   5.108   3.117  0.7906 -0.2936  0.7014
   74MOL0     C 9640   3.946   5.198   3.061 -0.4472  1.0713  1.7504
   74MOL0     C 9641   3.824   5.163   2.992  0.3238  0.3730 -0.0235
   74MOL0     C 9642   3.731   5.261   2.939  0.2720 -0.3337  0.6347
   74MOL0     C 9643   3.760   5.389   2.952  0.0421 -1.3261  0.5139
   74MOL0     O 9644   3.678   5.495   2.906 -0.6216  0.3322  0.3019
   74MOL0     C 9645   3.561   5.455   2.835 -0.1705  0.4755 -0.7835
   74MOL0     C 9646   3.458   5.574   2.810 -0.6208  0.0604 -0.0006
   74MOL0     C 9647   3.330   5.530   2.738 -0.5307 -0.1141  0.0862
   74MOL0     C 9648   3.213   5.617   2.784  0.0905  0.4907 -0.1075
   74MOL0     C 9649   3.081   5.568   2.731 -0.8664 -0.8684  0.8292
   74MOL0     C 9650   3.076   5.587   2.575 -1.3081 -0.1713  0.2287
   74MOL0     C 9651   2.928   5.541   2.544 -0.1667  0.2894 -0.3111
   74MOL0     C 9652   2.902   5.542   2.388  0.4484 -0.2936 -0.1517
   74MOL0     N 9653   2.790   5.461   2.340 -0.2756  0.5939  0.6718
   74MOL0     C 9654   2.765   5.323   2.361 -0.1902 -0.2009 -0.8476
   74MOL0     C 9655   2.648   5.297   2.287 -0.0661 -0.8618  0.8194
   74MOL0     C 9656   2.570   5.171   2.292 -0.5184 -0.1417 -0.8515
   74MOL0     C 9657   2.510   5.153   2.159  0.3141 -1.1138 -0.3688
   74MOL0     C 9658   2.370   5.232   2.162  0.1655  0.8987  0.6945
   74MOL0     C 9659   2.319   5.244   2.016 -0.6403 -0.3659 -1.1729
   74MOL0     O 9660   2.253   5.121   1.975 -0.5654  0.4732  0.2580
   74MOL0     C 9661   2.122   5.077   2.023 -0.7883  0.2847  0.3075
   74MOL0     C 9662   2.037   5.161   2.088  1.0067  0.4555 -1.0406
   74MOL0     C 9663   1.918   5.111   2.132 -0.0509  0.7294 -0.8012
   74MOL0     C 9664   1.868   4.975   2.097  0.0685 -0.2993 -0.6101
   74MOL0     C 9665   1.738   4.927   2.139  0.0985  0.0680 -0.2343
   74MOL0     O 9666   1.673   5.006   2.227 -0.3934  0.5447 -0.2757
   74MOL0     C 9667   1.569   4.975   2.301  0.5227 -1.2075 -0.0113
   74MOL0     C 9668   1.476   5.076   2.338 -0.8109 -0.4204  1.3660
   74MOL0     C 9669   1.362   5.044   2.409  0.1178 -0.2696  0.8118
   74MOL0     C 9670   1.340   4.915   2.454 -0.1261  0.4959  1.4177
   74MOL0     O 9671   1.231   4.891   2.529  0.2320 -0.0351 -0.1667
   74MOL0     C 9672   1.178   4.994   2.615 -1.0127  0.1086  0.2629
   74MOL0     C 9673   1.113   4.923   2.732 -0.3547  0.4194  0.4763
   74MOL0     C 9674   1.206   4.826   2.800 -0.7252  0.4775  0.2746
   74MOL0     C 9675   1.137   4.749   2.916  0.4185 -0.2348 -0.3683
   74MOL0     C 9676   1.082   4.830   3.040 -0.2264 -0.1321 -0.1859
   74MOL0     C 9677   0.944   4.872   3.020 -0.4144 -0.4905 -0.6478
   74MOL0     C 9678   0.901   4.922   3.162 -0.4718 -0.4109 -0.2217
   74MOL0     C 9679   0.763   4.994   3.171  0.0073  0.4785  0.4400
   74MOL0    Cl 9680   0.745   5.148   3.079 -0.2831  0.2931 -0.2529
   74MOL0     C 9681   1.435   4.818   2.426 -0.6947  1.2291 -0.2634
   74MOL0     C 9682   1.547   4.843   2.348  0.5174  0.0129  0.1273
   74MOL0     O 9683   1.700   4.819   2.086 -0.0709 -0.5353  0.3230
   74MOL0     C 9684   1.957   4.897   2.022  0.8944 -0.7872 -0.0406
   74MOL0     C 9685   2.075   4.952   1.983 -0.4582  0.3212  0.0076
   74MOL0     N 9686   2.617   5.408   2.211  0.7264  0.4768  0.7254
   74MOL0     N 9687   2.697   5.499   2.250  1.1779 -0.2886 -0.4254
   74MOL0     C 9688   3.887   5.430   3.015 -0.0237  0.1240  1.5465
   74MOL0     C 9689   3.972   5.334   3.074  0.3906  0.6697  0.4856
   74MOL0     C 9690   4.239   4.980   3.099  0.1590  0.6790  0.0202
   74MOL0     C 9691   4.367   4.962   3.057 -0.5302 -0.5827  0.1400
   74MOL0     C 9692   4.451   4.869   3.119 -0.8864  0.6504  0.5054
   74MOL0     C 9693   4.417   4.800   3.228 -0.2419 -0.6266 -0.4512
   74MOL0     O 9694   4.512   4.711   3.279  0.1280  0.1267  0.0825
   74MOL0     C 9695   4.510   4.706   3.417 -0.4208 -0.2645  0.2265
   74MOL0     C 9696   4.634   4.636   3.463  0.8289  0.4762 -0.1288
   74MOL0     C 9697   4.622   4.608   3.627 -0.8343  0.7613  0.6630
   74MOL0     C 9698   4.751   4.571   3.685 -1.0835 -0.6913 -0.2189
   74MOL0     C 9699   4.788   4.431   3.661  0.3610  0.6479  0.0907
   74MOL0     C 9700   4.825   4.319   3.642  0.7936  0.4655 -0.5000
   74MOL0     C 9701   4.286   4.822   3.277  0.1028  0.5462  0.4111
   74MOL0     C 9702   4.193   4.890   3.200 -0.0436 -0.0908  0.8201
   74MOL0     H 9703   3.789   5.063   2.968 -1.4238  0.8184  0.4679
   74MOL0     H 9704   3.644   5.213   2.897  0.5473 -0.3311  0.0455
   74MOL0     H 9705   3.512   5.401   2.917  0.2061  4.0819  2.0799
   74MOL0     H 9706   3.560   5.386   2.750 -1.5242 -1.4229  0.6939
   74MOL0     H 9707   3.501   5.649   2.743 -1.3255  0.4228 -0.0522
   74MOL0     H 9708   3.423   5.614   2.905  1.1206  2.4733 -0.2735
   74MOL0     H 9709   3.300   5.430   2.771 -0.7415 -0.4249 -1.0204
   74MOL0     H 9710   3.340   5.546   2.631 -0.6321 -0.2261  0.0600
   74MOL0     H 9711   3.195   5.598   2.890  2.4066 -2.7948 -0.1431
   74MOL0     H 9712   3.227   5.723   2.761 -2.2865  0.4512 -2.1827
   74MOL0     H 9713   2.999   5.627   2.773 -0.5288 -1.2703  2.1052
   74MOL0     H 9714   3.061   5.461   2.744  1.1832 -1.2225  1.4187
   74MOL0     H 9715   3.148   5.537   2.510 -0.0639  1.1746  0.5327
   74MOL0     H 9716   3.079   5.693   2.552 -1.5766  0.3412  2.3340
   74MOL0     H 9717   2.911   5.440   2.582  0.3881  0.8029  1.4173
   74MOL0     H 9718   2.858   5.611   2.591 -1.1008  0.6732 -2.1787
   74MOL0     H 9719   3.000   5.531   2.339  2.6112  2.6724  3.0640
   74MOL0     H 9720   2.867   5.641   2.358 -1.6878 -1.5447 -2.1087
   74MOL0     H 9721   2.827   5.262   2.425 -0.1534  0.4182 -0.2831
   74MOL0     H 9722   2.494   5.176   2.370 -1.5035  4.2973 -1.8634
   74MOL0     H 9723   2.640   5.092   2.320  0.6639  0.5402 -1.7597
   74MOL0     H 9724   2.485   5.047   2.145 -0.7945 -0.5683 -3.2664
   74MOL0     H 9725   2.583   5.172   2.079  1.5706 -3.2065  0.1819
   74MOL0     H 9726   2.298   5.183   2.227  3.3934 -1.3096  2.9430
   74MOL0     H 9727   2.382   5.336   2.194  1.4224  1.1532 -0.5217
   74MOL0     H 9728   2.411   5.265   1.960  0.2660  2.4498  1.1125
   74MOL0     H 9729   2.252   5.328   1.999  0.7181  0.5277 -2.3122
   74MOL0     H 9730   2.071   5.262   2.110 -2.5559  1.4566  0.6376
   74MOL0     H 9731   1.863   5.178   2.197  1.2040  1.7876 -0.8081
   74MOL0     H 9732   1.505   5.171   2.295  0.3942 -1.4468 -0.1967
   74MOL0     H 9733   1.278   5.113   2.417  1.4630  1.2791  2.6704
   74MOL0     H 9734   1.112   5.064   2.563 -0.1235  0.6820 -0.1206
   74MOL0     H 9735   1.265   5.045   2.658 -0.2908  0.6300 -1.7248
   74MOL0     H 9736   1.014   4.888   2.703 -0.6821  3.2295 -2.3757
   74MOL0     H 9737   1.086   4.990   2.814 -2.2363  1.0645 -0.5949
   74MOL0     H 9738   1.291   4.876   2.847  0.0357 -0.7934  0.2994
   74MOL0     H 9739   1.243   4.747   2.734  2.3441  1.1642  1.0226
   74MOL0     H 9740   1.066   4.686   2.863  1.5054 -0.1015 -2.0735
   74MOL0     H 9741   1.215   4.683   2.955  1.2018  0.5484 -0.5624
   74MOL0     H 9742   1.142   4.920   3.061  0.7156 -0.6033 -0.7900
   74MOL0     H 9743   1.083   4.752   3.117  0.8185  0.0957  0.0554
   74MOL0     H 9744   0.882   4.788   2.986  0.4965 -1.3135 -0.3523
   74MOL0     H 9745   0.930   4.944   2.939  1.5679  1.0079  0.2790
   74MOL0     H 9746   0.913   4.844   3.238  1.7992  0.2260  0.1562
   74MOL0     H 9747   0.969   4.992   3.213 -0.8031  1.8125 -2.6193
   74MOL0     H 9748   0.758   5.009   3.279 -1.8635 -1.2601  0.6623
   74MOL0     H 9749   0.682   4.924   3.148  0.9375 -1.2332  2.1482
   74MOL0     H 9750   1.420   4.717   2.462 -4.3252  1.3896 -0.9551
   74MOL0     H 9751   1.619   4.762   2.342  0.1486 -0.3076 -0.0711
   74MOL0     H 9752   1.944   4.795   1.988  0.5278  0.2982 -3.4639
   74MOL0     H 9753   2.152   4.889   1.940  0.4571  2.1446 -1.1754
   74MOL0     H 9754   3.906   5.537   3.015  1.0813  0.0952 -2.6787
   74MOL0     H 9755   4.060   5.367   3.128 -0.3064 -1.6663  3.3463
   74MOL0     H 9756   4.404   5.012   2.968 -0.1517  1.3204  1.3154
   74MOL0     H 9757   4.552   4.869   3.078 -0.6918 -0.1116  0.9768
   74MOL0     H 9758   4.427   4.643   3.453 -2.6699  1.8311 -1.0488
   74MOL0     H 9759   4.502   4.808   3.456  0.7997 -0.0935  0.0526
   74MOL0     H 9760   4.648   4.540   3.412 -1.8649  1.5741 -3.3701
   74MOL0     H 9761   4.712   4.710   3.441 -0.8680  3.2195  2.2751
   74MOL0     H 9762   4.551   4.534   3.662  1.2468 -2.4005 -1.2762
   74MOL0     H 9763   4.597   4.703   3.675 -2.5576  2.0163 -2.4517
   74MOL0     H 9764   4.828   4.636   3.642  1.1011 -1.6164  2.0481
   74MOL0     H 9765   4.757   4.584   3.794  2.5673 -1.0174 -0.2573
   74MOL0     H 9766   4.825   4.214   3.620 -1.4298 -0.1009  1.7517
   74MOL0     H 9767   4.265   4.750   3.356  1.7171 -0.1347  0.2460
   74MOL0     H 9768   4.088   4.906   3.225  0.3853  1.6360  1.6650
   75MOL0     O 9769   2.448   7.474   6.925 -0.4041 -0.5187  0.4343
   75MOL0     C 9770   2.361   7.555   6.946  1.0229 -0.0389  0.8958
   75MOL0     O 9771   2.235   7.551   6.880  1.1907  0.1799  0.1985
   75MOL0     C 9772   2.212   7.468   6.769 -0.5742  0.3589  0.3489
   75MOL0     C 9773   2.128   7.522   6.671 -0.2350 -0.1535 -0.0153
   75MOL0     C 9774   2.102   7.459   6.552 -0.2075 -0.5558  0.0747
   75MOL0     C 9775   2.135   7.333   6.532 -0.1472  1.4219  0.7360
   75MOL0     O 9776   2.098   7.250   6.430 -0.5239  0.2520  0.3803
   75MOL0     C 9777   2.063   7.299   6.293 -0.5791 -0.0460 -0.8794
   75MOL0     C 9778   2.178   7.367   6.212  0.2983 -0.4940 -0.3553
   75MOL0     C 9779   2.204   7.285   6.091 -0.0238  0.8715  0.5369
   75MOL0     C 9780   2.340   7.336   6.040  0.7598 -0.3873 -0.1619
   75MOL0     C 9781   2.381   7.276   5.894  0.3813 -0.3939  0.3050
   75MOL0     C 9782   2.364   7.381   5.776  0.6635 -0.4069 -0.0810
   75MOL0     C 9783   2.420   7.327   5.659 -0.7453 -0.3434  0.2299
   75MOL0     C 9784   2.347   7.198   5.623  0.6309  0.5337 -0.3494
   75MOL0     N 9785   2.345   7.190   5.477  0.6693  0.7509 -0.4843
   75MOL0     C 9786   2.408   7.100   5.400 -0.5129  0.6135  1.3010
   75MOL0     C 9787   2.331   7.086   5.294  0.1252 -0.5336 -1.0826
   75MOL0     C 9788   2.373   6.996   5.181  0.2960  0.0873 -0.5675
   75MOL0     C 9789   2.490   7.072   5.107  0.0942 -0.1607  0.4128
   75MOL0     C 9790   2.606   6.991   5.076 -1.4101  0.1872 -0.0281
   75MOL0     C 9791   2.730   7.076   5.038  0.3629  1.1038 -0.5585
   75MOL0     O 9792   2.754   7.173   5.141  0.0060  0.1667  1.6403
   75MOL0     C 9793   2.811   7.137   5.261  0.9818  0.4318 -0.4797
   75MOL0     C 9794   2.924   7.062   5.279 -0.4119 -0.6386  0.3707
   75MOL0     C 9795   2.948   6.997   5.399  0.5632  0.4317 -0.1665
   75MOL0     C 9796   2.870   7.020   5.515  0.7467  0.1725  0.1397
   75MOL0     C 9797   2.903   6.952   5.640 -0.0056 -0.2098 -0.1565
   75MOL0     O 9798   3.026   6.888   5.648  0.7278 -0.1277  0.5787
   75MOL0     C 9799   3.051   6.819   5.764  0.1322  0.1195  0.3648
   75MOL0     C 9800   3.132   6.873   5.861  0.5426 -0.4925 -0.6986
   75MOL0     C 9801   3.176   6.798   5.972  0.9397  0.0724  0.1319
   75MOL0     C 9802   3.134   6.669   5.982  0.0862  0.6592 -0.3401
   75MOL0     O 9803   3.196   6.596   6.083  0.1206 -0.1348  0.1726
   75MOL0     C 9804   3.106   6.493   6.144 -0.0761  0.0780  0.5130
   75MOL0     C 9805   3.187   6.400   6.242 -0.9810  0.6923  0.5806
   75MOL0     C 9806   3.275   6.307   6.150 -0.4880 -0.0840 -0.9167
   75MOL0     C 9807   3.333   6.196   6.235 -0.4069  0.2912 -0.3053
   75MOL0     C 9808   3.457   6.118   6.179  0.0290  0.0693  0.5585
   75MOL0     C 9809   3.574   6.213   6.177 -0.7988  0.6588  0.9519
   75MOL0     C 9810   3.668   6.200   6.296 -1.0315  0.4606 -0.3218
   75MOL0     C 9811   3.611   6.268   6.416  0.1554  0.2280 -0.5876
   75MOL0    Cl 9812   3.739   6.300   6.535 -0.3980  0.8901 -0.3039
   75MOL0     C 9813   3.035   6.624   5.883  0.8992  0.0502 -0.6191
   75MOL0     C 9814   2.990   6.698   5.784  0.0609 -0.4825  0.5454
   75MOL0     O 9815   2.814   6.935   5.721  0.3268 -0.1044 -0.5432
   75MOL0     C 9816   2.763   7.109   5.501  0.0634 -0.5436 -0.0506
   75MOL0     C 9817   2.731   7.165   5.375  0.0436 -0.4122  0.4378
   75MOL0     N 9818   2.239   7.181   5.292 -0.3831 -0.2065  0.1308
   75MOL0     N 9819   2.248   7.246   5.409  0.3561 -0.2075  0.0579
   75MOL0     C 9820   2.203   7.267   6.632 -1.3402  0.1733 -1.3083
   75MOL0     C 9821   2.258   7.336   6.747  0.4094 -0.3421 -0.9705
   75MOL0     C 9822   2.410   7.677   7.021 -0.2611  0.6052  0.5458
   75MOL0     C 9823   2.508   7.658   7.121 -0.5948  0.3049  0.0339
   75MOL0     C 9824   2.545   7.768   7.194  0.3221 -0.6410 -0.2082
   75MOL0     C 9825   2.493   7.889   7.165 -0.6461 -0.0187  0.7829
   75MOL0     O 9826   2.528   8.007   7.222  0.0817 -0.5370  0.0066
   75MOL0     C 9827   2.593   8.010   7.352 -0.6936  0.1015 -1.0286
   75MOL0     C 9828   2.751   8.008   7.331  0.3614 -0.8072 -0.7039
   75MOL0     C 9829   2.830   8.016   7.465  0.5606 -0.6339  1.1156
   75MOL0     C 9830   2.810   7.909   7.561  0.6037  0.3673 -0.1511
   75MOL0     C 9831   2.899   7.928   7.675 -0.7086 -0.6362 -0.2875
   75MOL0     C 9832   2.968   7.955   7.768 -0.1162 -0.0067 -0.2078
   75MOL0     C 9833   2.400   7.907   7.063 -0.9001 -0.3031 -0.0019
   75MOL0     C 9834   2.350   7.798   6.988 -0.4834 -0.5838  1.1113
   75MOL0     H 9835   2.087   7.623   6.673  0.8055  0.3269 -1.1381
   75MOL0     H 9836   2.037   7.515   6.484  1.4108  1.5119  0.1239
   75MOL0     H 9837   1.972   7.360   6.299 -0.3555  0.2913 -0.9078
   75MOL0     H 9838   2.025   7.218   6.230  1.4985 -1.5630 -0.2983
   75MOL0     H 9839   2.266   7.385   6.275  0.9893 -0.5502 -1.2902
   75MOL0     H 9840   2.141   7.464   6.177  0.4426  0.1435  1.1506
   75MOL0     H 9841   2.120   7.308   6.025  0.2196  3.3996  1.0032
   75MOL0     H 9842   2.220   7.179   6.115 -0.6347  0.5891 -0.2577
   75MOL0     H 9843   2.327   7.445   6.040  0.6900 -0.3604 -2.1164
   75MOL0     H 9844   2.415   7.311   6.116 -0.2159  1.1744  1.4078
   75MOL0     H 9845   2.315   7.193   5.868  0.5253 -0.5765  0.5123
   75MOL0     H 9846   2.484   7.239   5.903 -0.3742 -2.4595  1.1776
   75MOL0     H 9847   2.432   7.460   5.812  1.9500 -2.2971  1.8778
   75MOL0     H 9848   2.259   7.409   5.785 -0.1223 -3.6192  2.4914
   75MOL0     H 9849   2.416   7.404   5.582 -0.2114 -1.3788 -0.8609
   75MOL0     H 9850   2.525   7.301   5.676 -0.3549 -0.7487 -2.4680
   75MOL0     H 9851   2.248   7.215   5.666  1.4056  1.0767  1.3133
   75MOL0     H 9852   2.376   7.100   5.663  1.3180 -0.1497 -2.4124
   75MOL0     H 9853   2.490   7.033   5.426 -0.6677 -0.1551 -0.0963
   75MOL0     H 9854   2.287   6.979   5.116 -0.7388 -1.5723  1.1140
   75MOL0     H 9855   2.414   6.901   5.218  0.3935  0.3823  0.1010
   75MOL0     H 9856   2.527   7.160   5.161  3.4584 -0.2458 -1.5176
   75MOL0     H 9857   2.461   7.118   5.012  1.1516 -0.3637 -0.0196
   75MOL0     H 9858   2.619   6.931   5.166 -0.7019  1.7323  0.9388
   75MOL0     H 9859   2.592   6.926   4.989 -1.7050 -0.8755  0.7917
   75MOL0     H 9860   2.712   7.113   4.937  2.2981 -2.8453 -2.5441
   75MOL0     H 9861   2.810   7.009   5.005 -1.2514 -1.8651  1.0873
   75MOL0     H 9862   2.989   7.060   5.193 -1.8541 -1.3623 -0.7535
   75MOL0     H 9863   3.036   6.935   5.401 -0.3531 -0.9097  0.4556
   75MOL0     H 9864   3.185   6.966   5.840  1.2936 -0.8608 -0.4703
   75MOL0     H 9865   3.238   6.839   6.051 -0.4621 -0.0975  1.3627
   75MOL0     H 9866   3.059   6.437   6.064  2.6526 -0.8665 -0.5561
   75MOL0     H 9867   3.036   6.549   6.207 -0.7766  0.8751 -0.9138
   75MOL0     H 9868   3.120   6.341   6.305 -1.1578 -2.0301 -1.9046
   75MOL0     H 9869   3.247   6.460   6.310 -1.0526 -0.1340  1.3959
   75MOL0     H 9870   3.349   6.367   6.097 -2.6893  4.4010  0.5500
   75MOL0     H 9871   3.212   6.262   6.072  2.2801 -4.3746 -0.9889
   75MOL0     H 9872   3.372   6.237   6.328  2.8111 -1.0989 -0.9389
   75MOL0     H 9873   3.256   6.126   6.269  0.4467 -1.3461 -1.5635
   75MOL0     H 9874   3.422   6.071   6.087  1.9488 -0.6146  0.1227
   75MOL0     H 9875   3.474   6.034   6.247  0.7774 -0.3886 -0.1788
   75MOL0     H 9876   3.553   6.318   6.156  0.1582  0.9291  1.3108
   75MOL0     H 9877   3.626   6.188   6.084  2.3546  4.7540  1.3326
   75MOL0     H 9878   3.692   6.096   6.321  1.3212  1.2934  1.2996
   75MOL0     H 9879   3.761   6.252   6.269 -0.8586 -1.2518 -3.4890
   75MOL0     H 9880   3.532   6.214   6.468 -1.5838  1.7611 -1.5265
   75MOL0     H 9881   3.563   6.359   6.380  1.1444  0.8386 -0.4138
   75MOL0     H 9882   2.994   6.523   5.880  1.9768 -0.5121  1.4098
   75MOL0     H 9883   2.907   6.679   5.717  0.5734  2.4565 -1.0812
   75MOL0     H 9884   2.701   7.135   5.586  0.8208 -0.1391  0.3875
   75MOL0     H 9885   2.654   7.242   5.374  1.0715  0.6479  0.2850
   75MOL0     H 9886   2.221   7.162   6.613 -1.0298 -0.0000 -0.1314
   75MOL0     H 9887   2.313   7.275   6.818 -2.7341 -2.1961  0.0532
   75MOL0     H 9888   2.536   7.556   7.146  2.6760 -0.2543 -4.5762
   75MOL0     H 9889   2.604   7.740   7.281  1.6118  1.8869 -0.2002
   75MOL0     H 9890   2.571   7.922   7.413  0.1016  0.9968  0.6259
   75MOL0     H 9891   2.578   8.103   7.407  1.5861 -0.1379  0.1334
   75MOL0     H 9892   2.779   7.912   7.286  0.4254 -1.3423  0.4146
   75MOL0     H 9893   2.783   8.094   7.272 -0.0494  0.0753  0.3073
   75MOL0     H 9894   2.834   8.116   7.509 -2.8673  1.5001 -2.6879
   75MOL0     H 9895   2.927   8.008   7.415 -1.2554  3.2073 -3.9085
   75MOL0     H 9896   2.703   7.911   7.584 -0.2791  2.4131 -3.6193
   75MOL0     H 9897   2.815   7.810   7.514 -2.6575 -0.7516  1.5429
   75MOL0     H 9898   3.031   7.962   7.854 -0.1707 -1.1234 -0.0604
   75MOL0     H 9899   2.362   8.004   7.032  0.9857  0.0223 -1.4828
   75MOL0     H 9900   2.291   7.815   6.899  1.2855 -0.5591 -0.1088
   76MOL0     O 9901   7.640   8.541   9.876 -0.2314 -0.2126 -0.1385
   76MOL0     C 9902   7.526   8.498   9.847  0.2121 -0.4456 -0.7337
   76MOL0     O 9903   7.407   8.524   9.920  0.4996  0.3157 -0.3203
   76MOL0     C 9904   7.385   8.636   9.999  0.4353 -0.3761  1.3901
   76MOL0     C 9905   7.239   8.663  10.015 -0.1642  0.5067 -0.1318
   76MOL0     C 9906   7.196   8.779  10.073 -0.3934  0.9786 -0.2144
   76MOL0     C 9907   7.285   8.870  10.122  0.3223 -0.4777 -0.3970
   76MOL0     O 9908   7.244   8.982  10.195 -0.1593  0.6395 -0.1817
   76MOL0     C 9909   7.122   8.978  10.272 -0.3751  0.3903 -1.1285
   76MOL0     C 9910   7.130   8.866  10.383  0.1104  0.0106 -0.1994
   76MOL0     C 9911   6.995   8.831  10.456 -0.6134 -0.1866  0.3624
   76MOL0     C 9912   7.010   8.706  10.553  0.3743 -0.1165  0.1418
   76MOL0     C 9913   6.890   8.695  10.652  0.6197 -0.2064 -0.3172
   76MOL0     C 9914   6.745   8.697  10.604  0.4819  0.0340  0.2323
   76MOL0     C 9915   6.639   8.688  10.698 -0.2548 -0.7039 -0.0137
   76MOL0     C 9916   6.496   8.687  10.637  0.1458  0.5373  0.0708
   76MOL0     N 9917   6.389   8.699  10.739 -0.1058  0.9478  0.2083
   76MOL0     C 9918   6.373   8.813  10.811  0.8425  0.0811  0.1172
   76MOL0     C 9919   6.269   8.793  10.899 -0.8755 -0.3227  0.1799
   76MOL0     C 9920   6.228   8.881  11.011  0.2740  0.5049 -0.2829
   76MOL0     C 9921   6.310   9.012  11.015  0.9310  0.1950 -0.9292
   76MOL0     C 9922   6.261   9.093  11.137  1.0546  0.9513  0.1016
   76MOL0     C 9923   6.320   9.226  11.117 -0.7860  0.4107  0.0787
   76MOL0     O 9924   6.301   9.304  11.236  0.8724 -0.5697 -0.2625
   76MOL0     C 9925   6.385   9.294  11.348  0.7848  1.6436  0.0893
   76MOL0     C 9926   6.336   9.328  11.478 -0.2330 -0.0345 -0.5063
   76MOL0     C 9927   6.418   9.313  11.588  0.0408 -0.1026  0.0207
   76MOL0     C 9928   6.557   9.264  11.578  0.0870 -0.8693  0.3246
   76MOL0     C 9929   6.643   9.233  11.699  0.5554 -0.1861  0.3083
   76MOL0     O 9930   6.606   9.270  11.820 -0.1527 -0.1472  1.0886
   76MOL0     C 9931   6.661   9.216  11.936 -0.4931 -0.3504 -0.4370
   76MOL0     C 9932   6.715   9.101  11.954 -0.0896 -0.0706 -0.7517
   76MOL0     C 9933   6.759   9.063  12.088  0.1826 -1.0189  0.8077
   76MOL0     C 9934   6.730   9.139  12.200 -0.2747 -0.1638 -0.3945
   76MOL0     O 9935   6.768   9.092  12.322  0.4030  0.6733 -0.1155
   76MOL0     C 9936   6.720   9.166  12.438  0.7581 -0.6106  0.2949
   76MOL0     C 9937   6.724   9.085  12.566 -0.4495  0.7596 -0.4991
   76MOL0     C 9938   6.620   8.970  12.576 -0.2841 -0.7799  0.0063
   76MOL0     C 9939   6.650   8.884  12.693 -0.0895  0.0530  0.0069
   76MOL0     C 9940   6.742   8.768  12.662  0.0673 -0.4761  0.2578
   76MOL0     C 9941   6.765   8.694  12.794 -0.1223  0.5338 -0.6474
   76MOL0     C 9942   6.910   8.633  12.808  0.1929 -1.0749 -0.0021
   76MOL0     C 9943   7.016   8.743  12.826 -0.4463  0.4946  0.1698
   76MOL0    Cl 9944   7.006   8.809  12.985  0.3884  0.5438  0.5542
   76MOL0     C 9945   6.645   9.245  12.180 -0.2698 -0.0689 -0.2869
   76MOL0     C 9946   6.622   9.288  12.051  0.2244 -0.1092 -0.2023
   76MOL0     O 9947   6.729   9.151  11.673  0.1299 -0.5407  0.0357
   76MOL0     C 9948   6.606   9.236  11.449 -0.0593  0.6492 -0.0515
   76MOL0     C 9949   6.520   9.254  11.333 -0.6720  0.3308 -0.3974
   76MOL0     N 9950   6.216   8.665  10.874 -0.1553 -0.0665 -0.5562
   76MOL0     N 9951   6.286   8.606  10.775  0.3994  1.3511 -0.5334
   76MOL0     C 9952   7.420   8.845  10.112  0.5298 -0.9720  0.7475
   76MOL0     C 9953   7.467   8.732  10.046 -0.4907  0.0678  0.3551
   76MOL0     C 9954   7.509   8.401   9.737 -0.0754 -0.0160  0.6904
   76MOL0     C 9955   7.541   8.426   9.602 -0.0117 -0.7723 -0.4039
   76MOL0     C 9956   7.511   8.329   9.502 -0.1614  0.6887  0.0934
   76MOL0     C 9957   7.451   8.203   9.531 -1.6962  0.4295  0.8039
   76MOL0     O 9958   7.407   8.122   9.433 -0.3219  0.3910 -0.6721
   76MOL0     C 9959   7.386   7.987   9.464  1.2189  0.1409 -0.4065
   76MOL0     C 9960   7.336   7.907   9.348 -0.0495  0.7696 -0.1108
   76MOL0     C 9961   7.447   7.875   9.241 -0.5585  0.3976  0.5631
   76MOL0     C 9962   7.495   7.995   9.146  0.4446 -0.7652 -0.1721
   76MOL0     C 9963   7.576   7.935   9.047  0.1764 -0.3221 -0.1421
   76MOL0     C 9964   7.650   7.884   8.964 -1.1522 -0.1005 -0.1938
   76MOL0     C 9965   7.421   8.182   9.664  0.2419 -0.5000 -0.5760
   76MOL0     C 9966   7.449   8.271   9.759  0.2199  0.0503 -0.7020
   76MOL0     H 9967   7.170   8.599   9.962  1.7619  0.2887 -2.5496
   76MOL0     H 9968   7.089   8.802  10.070 -0.2914  1.3686 -1.2927
   76MOL0     H 9969   7.031   8.971  10.211 -0.8433 -0.8223 -0.3329
   76MOL0     H 9970   7.124   9.071  10.331  1.9830  0.4856 -1.2585
   76MOL0     H 9971   7.205   8.885  10.460 -1.7964  1.1704  1.4514
   76MOL0     H 9972   7.160   8.775  10.330 -1.0439  0.5906 -1.9217
   76MOL0     H 9973   6.915   8.817  10.383 -0.2946  2.1770 -0.5349
   76MOL0     H 9974   6.988   8.925  10.513 -0.4498  0.6322 -0.9346
   76MOL0     H 9975   7.027   8.615  10.494 -0.4666  0.9302 -1.8468
   76MOL0     H 9976   7.102   8.721  10.610  0.7928 -1.9540  0.0237
   76MOL0     H 9977   6.895   8.789  10.708  3.0161 -1.2119  1.3239
   76MOL0     H 9978   6.909   8.625  10.733 -0.3239  1.6908  1.6680
   76MOL0     H 9979   6.735   8.605  10.545  0.5840  1.9427 -3.0041
   76MOL0     H 9980   6.718   8.784  10.543 -1.4489  2.4552  4.1574
   76MOL0     H 9981   6.644   8.600  10.763 -0.5119 -1.3305 -0.8323
   76MOL0     H 9982   6.654   8.779  10.757  2.8066 -0.1792 -1.3817
   76MOL0     H 9983   6.479   8.600  10.574  5.3461  0.0266 -1.1002
   76MOL0     H 9984   6.484   8.768  10.564  3.8398  0.8677 -0.3550
   76MOL0     H 9985   6.438   8.899  10.805  1.1549 -0.2478 -1.5173
   76MOL0     H 9986   6.242   8.826  11.105 -2.1678 -0.2509 -0.2903
   76MOL0     H 9987   6.125   8.914  10.997  0.1115  0.6107  1.0166
   76MOL0     H 9988   6.285   9.065  10.923  0.5646  4.7268  1.4627
   76MOL0     H 9989   6.417   8.992  11.015  0.8041 -1.0855  2.1497
   76MOL0     H 9990   6.153   9.112  11.133  1.4635  3.6974 -4.5189
   76MOL0     H 9991   6.294   9.046  11.230  2.1568  0.3404 -0.5755
   76MOL0     H 9992   6.267   9.268  11.032  1.3207  1.4290 -0.7998
   76MOL0     H 9993   6.427   9.224  11.093 -0.8343 -0.6625 -0.0913
   76MOL0     H 9994   6.237   9.363  11.508  0.2060  1.9050 -1.1781
   76MOL0     H 9995   6.382   9.357  11.681  2.3542  5.1532 -1.1993
   76MOL0     H 9996   6.733   9.041  11.865 -2.9767 -0.9908 -0.8357
   76MOL0     H 9997   6.815   8.970  12.090 -0.7556 -1.5788  2.6886
   76MOL0     H 9998   6.614   9.190  12.430  0.3114 -2.6837 -0.9621
   76MOL0     H 9999   6.774   9.261  12.444 -2.7528  1.5383  0.1258
   76MOL0     H10000   6.725   9.153  12.651  0.1758  1.5964 -1.1568
   76MOL0     H10001   6.823   9.039  12.570 -0.0320  1.7191  1.3432
   76MOL0     H10002   6.617   8.912  12.483  0.4807  1.2123 -1.3171
   76MOL0     H10003   6.515   9.002  12.580  0.0943  0.3315  1.3717
   76MOL0     H10004   6.691   8.947  12.773 -0.4295 -1.1308  1.1654
   76MOL0     H10005   6.553   8.846  12.726  0.1444 -0.9535 -0.4325
   76MOL0     H10006   6.832   8.822  12.632 -1.3400  2.4682  0.9487
   76MOL0     H10007   6.703   8.711  12.577 -3.5588  1.3758  0.4795
   76MOL0     H10008   6.699   8.610  12.814 -1.9973  2.1785  0.4838
   76MOL0     H10009   6.769   8.760  12.881  1.5065  2.3166 -1.9703
   76MOL0     H10010   6.925   8.570  12.897  3.5303 -1.4521 -0.6859
   76MOL0     H10011   6.927   8.564  12.725 -0.8976 -0.6283 -0.6195
   76MOL0     H10012   6.995   8.827  12.759 -3.1663  1.0609  1.6068
   76MOL0     H10013   7.118   8.702  12.821 -0.7352 -0.1177 -1.5980
   76MOL0     H10014   6.593   9.312  12.248 -1.3422  0.1381 -1.2784
   76MOL0     H10015   6.567   9.377  12.024  2.1158  1.2115  0.1237
   76MOL0     H10016   6.711   9.207  11.441 -0.1929  0.1760 -0.1386
   76MOL0     H10017   6.575   9.241  11.240  0.0527 -2.0561  0.2752
   76MOL0     H10018   7.493   8.907  10.163  0.4980 -1.5891  1.5666
   76MOL0     H10019   7.570   8.730  10.013 -1.7006  2.5266 -4.5084
   76MOL0     H10020   7.600   8.513   9.576  1.1110 -1.2413  0.4162
   76MOL0     H10021   7.524   8.357   9.398 -1.5606 -1.2080 -0.6684
   76MOL0     H10022   7.304   8.000   9.534  1.3400  3.2025 -0.7060
   76MOL0     H10023   7.473   7.934   9.504  0.4799 -0.0850  0.9726
   76MOL0     H10024   7.297   7.807   9.369  0.9073  0.1756 -1.0855
   76MOL0     H10025   7.250   7.957   9.303 -0.3689  1.5835  1.3482
   76MOL0     H10026   7.424   7.793   9.173  1.6300 -1.5127  1.9859
   76MOL0     H10027   7.532   7.850   9.305  0.5485  0.6049 -0.7689
   76MOL0     H10028   7.415   8.046   9.092  0.4749 -2.2318 -1.6884
   76MOL0     H10029   7.546   8.059   9.218 -0.6193 -1.1142  0.9393
   76MOL0     H10030   7.713   7.847   8.886 -1.6365 -0.9545 -0.1923
   76MOL0     H10031   7.379   8.091   9.705  0.0518  0.4757  1.5023
   76MOL0     H10032   7.412   8.245   9.857 -1.0488 -0.2330 -1.2374
   77MOL0     O10033   5.406  11.157   8.323  0.3639  0.3190  0.3220
   77MOL0     C10034   5.428  11.066   8.401  0.2779 -0.3979  0.1843
   77MOL0     O10035   5.330  10.990   8.462  0.2219 -0.1032  0.2364
   77MOL0     C10036   5.202  11.038   8.473  0.7253  0.2637  0.1573
   77MOL0     C10037   5.138  11.128   8.392 -0.6014  0.0643 -0.8787
   77MOL0     C10038   5.010  11.178   8.429  0.1883 -0.0430 -0.7902
   77MOL0     C10039   4.945  11.125   8.546 -0.2814 -0.4860  0.7296
   77MOL0     O10040   4.828  11.163   8.597 -0.7359  0.0960  0.0799
   77MOL0     C10041   4.754  11.271   8.535  0.0591 -0.0765  0.4703
   77MOL0     C10042   4.698  11.247   8.392  0.1852 -1.1093 -0.8053
   77MOL0     C10043   4.568  11.173   8.395 -0.4100  0.8955 -0.6056
   77MOL0     C10044   4.500  11.165   8.261  0.2453 -0.1642 -0.0667
   77MOL0     C10045   4.381  11.068   8.249 -0.4849 -0.5577 -0.0898
   77MOL0     C10046   4.409  10.919   8.290 -0.4071  0.1329  0.7634
   77MOL0     C10047   4.281  10.830   8.274  0.0969  0.1773  0.9284
   77MOL0     C10048   4.283  10.684   8.321  0.3116 -0.0948  0.0060
   77MOL0     N10049   4.391  10.611   8.257 -0.4999  0.1087  0.1701
   77MOL0     C10050   4.509  10.577   8.316 -0.4010 -0.4782 -1.0911
   77MOL0     C10051   4.566  10.479   8.249 -0.7929 -0.1050  0.2286
   77MOL0     C10052   4.694  10.408   8.283  0.4286 -0.1709 -0.3892
   77MOL0     C10053   4.822  10.494   8.278  0.6711  0.6570  0.0844
   77MOL0     C10054   4.940  10.432   8.351 -0.3073  0.7449  0.2220
   77MOL0     C10055   5.013  10.329   8.265 -0.4528 -0.0967  0.1257
   77MOL0     O10056   5.151  10.321   8.311 -0.3497 -0.7376  0.0364
   77MOL0     C10057   5.227  10.261   8.228 -1.4621  0.9917  1.0865
   77MOL0     C10058   5.185  10.165   8.131  0.4501 -0.4833 -0.0163
   77MOL0     C10059   5.279  10.097   8.057  0.1900 -0.3104 -0.3193
   77MOL0     C10060   5.415  10.135   8.058 -0.0343 -0.4799  0.0153
   77MOL0     C10061   5.506  10.071   7.965 -0.4115  0.3356 -0.4341
   77MOL0     O10062   5.460   9.977   7.882  0.0796  0.0518 -0.3110
   77MOL0     C10063   5.549   9.899   7.812  0.3259 -0.5685  0.0299
   77MOL0     C10064   5.602   9.932   7.687  0.0104 -0.1939 -0.2948
   77MOL0     C10065   5.687   9.850   7.604 -0.1809  0.1302 -0.3868
   77MOL0     C10066   5.694   9.715   7.638 -0.1231 -0.3657 -0.0848
   77MOL0     O10067   5.735   9.619   7.559 -0.4991 -0.7392 -0.2317
   77MOL0     C10068   5.761   9.641   7.419 -0.4811 -0.5527 -0.2609
   77MOL0     C10069   5.825   9.515   7.357  0.1416  0.4007 -0.4968
   77MOL0     C10070   5.873   9.520   7.208  0.2106  0.6091 -0.6737
   77MOL0     C10071   5.915   9.374   7.170 -0.2659  0.1322  1.0900
   77MOL0     C10072   5.984   9.379   7.033 -0.8578  0.6016 -0.0038
   77MOL0     C10073   6.016   9.237   6.981  0.3241  1.3986 -0.2461
   77MOL0     C10074   6.067   9.261   6.838 -0.8950  0.0437 -0.8784
   77MOL0     C10075   6.086   9.139   6.767 -0.1148 -0.4350  0.0187
   77MOL0    Cl10076   5.932   9.061   6.719  0.1082 -0.5828  0.0198
   77MOL0     C10077   5.643   9.666   7.764 -0.0599  0.3041  0.0756
   77MOL0     C10078   5.575   9.768   7.850  0.2052  0.5442  0.2756
   77MOL0     O10079   5.626  10.100   7.978  0.4309 -0.2096  0.2946
   77MOL0     C10080   5.459  10.236   8.142 -1.1569  0.4329 -0.5054
   77MOL0     C10081   5.370  10.284   8.240  0.1576  0.0023  0.0403
   77MOL0     N10082   4.477  10.446   8.150  0.5173 -0.1149  0.5764
   77MOL0     N10083   4.371  10.521   8.153 -0.9000 -0.2459 -0.1584
   77MOL0     C10084   5.008  11.034   8.623 -0.5636  1.0028  0.0584
   77MOL0     C10085   5.137  10.996   8.592 -1.3286 -0.6112  0.3188
   77MOL0     C10086   5.569  11.038   8.439 -0.6651 -0.7792  0.5217
   77MOL0     C10087   5.611  10.939   8.530 -1.1897 -0.9144 -0.9353
   77MOL0     C10088   5.752  10.923   8.556 -0.0003  0.5215  1.4957
   77MOL0     C10089   5.852  10.994   8.481 -0.3044 -0.5440 -0.2539
   77MOL0     O10090   5.987  10.961   8.509 -0.1806 -0.0652 -0.2299
   77MOL0     C10091   6.090  11.058   8.482 -0.4030  0.2513 -1.0564
   77MOL0     C10092   6.077  11.193   8.553  0.9816 -1.0075 -0.9425
   77MOL0     C10093   6.040  11.212   8.706 -0.0513 -0.5805 -0.0757
   77MOL0     C10094   6.147  11.148   8.796 -0.1892  0.0614 -0.3114
   77MOL0     C10095   6.274  11.221   8.805 -0.3583  0.3097  0.9991
   77MOL0     C10096   6.383  11.282   8.832  0.3039  0.2670  1.0525
   77MOL0     C10097   5.805  11.091   8.384 -0.2939  0.0135 -0.0498
   77MOL0     C10098   5.671  11.102   8.354  0.2967  0.0226  0.1687
   77MOL0     H10099   5.173  11.166   8.296 -0.5593 -0.6733 -1.1566
   77MOL0     H10100   4.986  11.255   8.356  0.0691  1.5768  0.8754
   77MOL0     H10101   4.818  11.359   8.543 -0.5558  0.3975  0.3095
   77MOL0     H10102   4.672  11.311   8.597  1.8901  1.1288  2.2460
   77MOL0     H10103   4.764  11.198   8.319  3.1216  2.1423 -0.6125
   77MOL0     H10104   4.677  11.339   8.338  1.7019 -0.8347 -0.9741
   77MOL0     H10105   4.490  11.208   8.463 -4.4802 -2.4242 -3.0936
   77MOL0     H10106   4.609  11.081   8.438 -2.0867 -0.2116 -1.2595
   77MOL0     H10107   4.469  11.267   8.235 -3.1450 -1.2608 -0.8042
   77MOL0     H10108   4.579  11.143   8.189 -0.2315 -0.4572 -0.4979
   77MOL0     H10109   4.345  11.068   8.146  0.5990 -1.8404 -0.5035
   77MOL0     H10110   4.304  11.110   8.313 -1.0459  1.5285 -2.0293
   77MOL0     H10111   4.436  10.910   8.396  0.9294  0.0061  0.4398
   77MOL0     H10112   4.489  10.870   8.234 -2.8361 -2.5729 -0.5587
   77MOL0     H10113   4.201  10.883   8.327 -0.0968 -0.5594  1.3813
   77MOL0     H10114   4.251  10.849   8.171  5.1412  1.3732 -0.6090
   77MOL0     H10115   4.191  10.635   8.288 -0.8487  1.7784  0.2746
   77MOL0     H10116   4.283  10.671   8.430  0.1802 -5.4348 -0.3562
   77MOL0     H10117   4.537  10.608   8.416 -1.4853  0.2361 -0.9943
   77MOL0     H10118   4.708  10.330   8.207 -0.5195 -0.3252 -0.4214
   77MOL0     H10119   4.682  10.365   8.383  1.5665 -1.1256 -0.6415
   77MOL0     H10120   4.801  10.593   8.321  0.5604  1.9371 -2.6929
   77MOL0     H10121   4.854  10.525   8.178  0.3547 -2.4281 -1.0775
   77MOL0     H10122   5.007  10.516   8.373 -0.8798  2.1230 -2.7242
   77MOL0     H10123   4.902  10.381   8.440  0.9019 -1.4152 -0.4322
   77MOL0     H10124   5.008  10.357   8.159 -1.8702 -0.3995  0.1028
   77MOL0     H10125   4.964  10.232   8.273 -0.8967 -0.0086 -1.2237
   77MOL0     H10126   5.086  10.121   8.127  1.0845 -2.0908  0.7762
   77MOL0     H10127   5.243  10.008   8.005 -1.0855  0.6241 -1.0930
   77MOL0     H10128   5.573  10.030   7.650  0.8278 -0.3279 -1.3342
   77MOL0     H10129   5.729   9.886   7.510  0.4034 -0.4621 -0.3580
   77MOL0     H10130   5.833   9.723   7.417  2.3080 -2.7572  1.8017
   77MOL0     H10131   5.670   9.663   7.362  1.6472  0.9326 -3.4009
   77MOL0     H10132   5.750   9.436   7.369  1.2309 -0.8726 -1.7601
   77MOL0     H10133   5.910   9.487   7.420  0.0817  1.7205  0.1976
   77MOL0     H10134   5.968   9.573   7.218 -0.6362  2.1544 -0.5209
   77MOL0     H10135   5.808   9.566   7.133 -0.8864  1.0022  0.4841
   77MOL0     H10136   5.978   9.318   7.240 -0.4633 -3.8677 -1.5856
   77MOL0     H10137   5.827   9.313   7.152  0.5070 -0.9239  0.7847
   77MOL0     H10138   6.084   9.420   7.046  0.6381 -2.0050 -2.3009
   77MOL0     H10139   5.913   9.434   6.969 -0.7018  2.0814  1.0369
   77MOL0     H10140   5.923   9.181   6.965  2.3849 -1.6642 -3.0533
   77MOL0     H10141   6.077   9.182   7.053 -0.2997  2.4816  1.1388
   77MOL0     H10142   5.989   9.312   6.780 -2.7463 -4.6975 -3.0947
   77MOL0     H10143   6.160   9.319   6.843 -1.2010  0.6023 -1.4591
   77MOL0     H10144   6.146   9.075   6.833  3.3511  2.5812  0.1417
   77MOL0     H10145   6.146   9.155   6.677 -1.4744 -0.5272 -0.9145
   77MOL0     H10146   5.640   9.560   7.789  0.5023  0.2286 -0.1546
   77MOL0     H10147   5.526   9.740   7.943 -0.1708 -2.6831 -0.7790
   77MOL0     H10148   5.556  10.279   8.119 -0.9703  0.6479  0.6473
   77MOL0     H10149   5.414  10.361   8.303  3.5818  0.4652 -2.6381
   77MOL0     H10150   4.978  11.017   8.726  0.4762  0.0758  0.2219
   77MOL0     H10151   5.203  10.948   8.663 -0.6263  1.1573  0.9132
   77MOL0     H10152   5.534  10.890   8.588 -1.1666 -1.0669 -1.0331
   77MOL0     H10153   5.777  10.845   8.627 -2.5593  0.2452  2.1866
   77MOL0     H10154   6.111  11.064   8.375  2.3601  1.0660 -0.5635
   77MOL0     H10155   6.181  11.011   8.522 -0.5206  0.6420 -0.3090
   77MOL0     H10156   6.174  11.244   8.547 -0.0559  1.5144  1.4619
   77MOL0     H10157   6.007  11.255   8.496  0.3781 -2.3084 -1.6681
   77MOL0     H10158   5.944  11.166   8.728  0.7208 -2.5419 -0.6266
   77MOL0     H10159   6.028  11.318   8.732 -2.6681 -0.3780 -1.7465
   77MOL0     H10160   6.107  11.146   8.898 -0.9384  0.7031 -0.5799
   77MOL0     H10161   6.169  11.046   8.764 -1.7673 -0.1550 -0.7863
   77MOL0     H10162   6.473  11.337   8.849 -1.1710  2.2615  3.0196
   77MOL0     H10163   5.877  11.134   8.316 -2.0592  2.8409 -0.2923
   77MOL0     H10164   5.649  11.146   8.258 -0.3165  1.4290  0.9298
   78MOL0     O10165   2.167   6.366   8.357 -0.0044 -0.9559  0.1420
   78MOL0     C10166   2.161   6.251   8.311 -1.7559  0.8412 -0.8730
   78MOL0     O10167   2.044   6.183   8.299 -0.0413 -0.2228 -0.2296
   78MOL0     C10168   1.916   6.224   8.330  0.0994 -0.6229 -0.1218
   78MOL0     C10169   1.818   6.119   8.343 -0.0429 -0.1809  0.1766
   78MOL0     C10170   1.693   6.151   8.385 -0.3304 -0.2123  0.7901
   78MOL0     C10171   1.656   6.285   8.423  1.1250  0.0780  0.4337
   78MOL0     O10172   1.536   6.309   8.485 -0.1427 -0.1939  0.5291
   78MOL0     C10173   1.514   6.426   8.560  0.0278 -0.0859 -0.1385
   78MOL0     C10174   1.381   6.415   8.628 -0.7741 -0.9620  0.3524
   78MOL0     C10175   1.343   6.288   8.701 -0.1250 -0.0146  1.6171
   78MOL0     C10176   1.211   6.308   8.781  0.3934  0.1186 -0.0738
   78MOL0     C10177   1.087   6.354   8.714 -0.1615 -0.2309 -0.2846
   78MOL0     C10178   0.970   6.358   8.812 -0.3885  0.1445 -0.5819
   78MOL0     C10179   0.838   6.392   8.737  0.1043  0.4929  0.2007
   78MOL0     C10180   0.711   6.387   8.829  0.6093  0.4201 -0.1720
   78MOL0     N10181   0.586   6.389   8.757  0.0788 -0.2651  0.4208
   78MOL0     C10182   0.537   6.497   8.700 -0.3557  0.1345 -0.2738
   78MOL0     C10183   0.446   6.458   8.608  0.9107 -0.3092  0.0909
   78MOL0     C10184   0.367   6.548   8.513  0.3998  0.2357  0.0454
   78MOL0     C10185   0.243   6.604   8.588 -1.0667  0.1905  0.5630
   78MOL0     C10186   0.273   6.695   8.705 -0.0246  0.3181  0.2501
   78MOL0     C10187   0.142   6.775   8.733 -0.8770  0.0380 -0.2535
   78MOL0     O10188   0.034   6.682   8.742 -0.0449  0.7717  0.2122
   78MOL0     C10189  -0.085   6.741   8.702  0.5997  0.7629 -0.8355
   78MOL0     C10190  -0.145   6.848   8.773  0.2041  0.2914 -0.2191
   78MOL0     C10191  -0.255   6.913   8.718 -0.1625 -0.1073  0.7610
   78MOL0     C10192  -0.328   6.868   8.605  0.0030 -0.8931 -0.4358
   78MOL0     C10193  -0.445   6.946   8.558 -0.3646  1.0385 -0.5804
   78MOL0     O10194  -0.514   7.018   8.656 -0.9374 -0.2738 -0.0036
   78MOL0     C10195  -0.611   7.094   8.595 -0.6666 -0.9815 -1.0130
   78MOL0     C10196  -0.743   7.059   8.610  0.2379 -0.9291  0.0910
   78MOL0     C10197  -0.837   7.118   8.522  0.8203  0.1692 -0.5535
   78MOL0     C10198  -0.800   7.216   8.418  0.4984  0.7540 -0.3756
   78MOL0     O10199  -0.886   7.247   8.317 -0.0032  0.1629 -0.1762
   78MOL0     C10200  -0.931   7.387   8.321 -0.4325 -1.1517 -0.2579
   78MOL0     C10201  -1.083   7.401   8.276 -0.0828  0.1974  0.1449
   78MOL0     C10202  -1.180   7.318   8.368  0.2753 -0.0202  0.1105
   78MOL0     C10203  -1.331   7.335   8.331  0.2240 -0.7879 -0.7035
   78MOL0     C10204  -1.413   7.246   8.428 -0.2256  1.0539  0.3745
   78MOL0     C10205  -1.558   7.288   8.431 -0.0580  0.2466 -0.4895
   78MOL0     C10206  -1.643   7.167   8.492  0.2301  1.1784  0.0243
   78MOL0     C10207  -1.796   7.181   8.474  0.2181  0.1781 -0.0444
   78MOL0    Cl10208  -1.813   7.164   8.288 -0.0145  0.4465  0.3047
   78MOL0     C10209  -0.671   7.264   8.424 -0.2459 -0.2057 -0.3547
   78MOL0     C10210  -0.574   7.201   8.510 -0.2715  0.6196  1.0276
   78MOL0     O10211  -0.469   6.927   8.437  0.4446 -0.1315  0.9960
   78MOL0     C10212  -0.275   6.753   8.537  0.0621 -0.5137 -0.2302
   78MOL0     C10213  -0.166   6.693   8.591 -0.2718  0.1193 -0.5009
   78MOL0     N10214   0.434   6.317   8.610 -0.2162 -0.6561 -0.1508
   78MOL0     N10215   0.523   6.285   8.695 -0.3977 -0.0795 -1.2132
   78MOL0     C10216   1.754   6.383   8.399  0.4291  0.7474  0.5023
   78MOL0     C10217   1.878   6.359   8.346 -0.1532  0.4688 -0.0205
   78MOL0     C10218   2.290   6.177   8.282 -0.1189  0.9363  0.4018
   78MOL0     C10219   2.419   6.224   8.314  0.8035 -0.5570  0.5586
   78MOL0     C10220   2.539   6.158   8.283  0.0152 -0.0765  0.9675
   78MOL0     C10221   2.532   6.039   8.216  0.9112 -0.5455 -0.8906
   78MOL0     O10222   2.650   5.968   8.189 -0.6621  0.1371  0.3717
   78MOL0     C10223   2.645   5.839   8.128  0.8365 -0.4943  0.1912
   78MOL0     C10224   2.769   5.759   8.148 -0.3183 -0.1123 -0.2301
   78MOL0     C10225   2.771   5.631   8.065  0.0962 -0.9949  0.6664
   78MOL0     C10226   2.918   5.603   8.027 -1.0288  0.3006  0.1575
   78MOL0     C10227   2.994   5.510   8.118 -0.2897 -0.2819 -0.1002
   78MOL0     C10228   3.050   5.447   8.200  0.4311  0.4486 -1.1921
   78MOL0     C10229   2.407   5.988   8.186 -0.0979  0.6813 -0.0958
   78MOL0     C10230   2.288   6.051   8.224  0.3421 -0.5052 -1.4058
   78MOL0     H10231   1.839   6.020   8.302  1.4122  0.3455 -0.4365
   78MOL0     H10232   1.621   6.070   8.391  0.1099 -0.7719 -0.9955
   78MOL0     H10233   1.509   6.518   8.502 -2.3810  2.6086  3.8525
   78MOL0     H10234   1.588   6.441   8.640  1.6995  3.1794 -2.0585
   78MOL0     H10235   1.308   6.427   8.547 -0.3238 -2.0225 -0.2225
   78MOL0     H10236   1.382   6.500   8.698 -6.0935 -1.4578  1.4468
   78MOL0     H10237   1.419   6.265   8.775  4.9187  0.4248 -2.8234
   78MOL0     H10238   1.347   6.213   8.621 -1.9483  2.7418 -1.3094
   78MOL0     H10239   1.184   6.215   8.832  0.8837 -0.9016 -1.6028
   78MOL0     H10240   1.250   6.380   8.853  0.5113  0.3647 -0.3819
   78MOL0     H10241   1.068   6.320   8.612  0.9180  3.7744 -2.0340
   78MOL0     H10242   1.107   6.461   8.699 -0.9265 -0.1524 -0.7964
   78MOL0     H10243   0.989   6.417   8.902 -0.0570  2.2632 -1.9661
   78MOL0     H10244   0.956   6.254   8.843 -1.9752 -0.1286 -2.0581
   78MOL0     H10245   0.844   6.489   8.687 -1.4015  2.1320  2.9467
   78MOL0     H10246   0.826   6.321   8.654 -1.0877 -0.1052  0.8489
   78MOL0     H10247   0.721   6.472   8.897  2.6986 -1.4476  2.0075
   78MOL0     H10248   0.715   6.302   8.897  0.5986  0.7304  0.2162
   78MOL0     H10249   0.564   6.602   8.711  0.9168 -0.1142 -0.8317
   78MOL0     H10250   0.330   6.492   8.427 -1.7178  2.2603 -0.4733
   78MOL0     H10251   0.422   6.628   8.464  5.0660 -3.7290 -2.0264
   78MOL0     H10252   0.185   6.516   8.617 -0.1314 -0.7970 -0.4671
   78MOL0     H10253   0.198   6.655   8.502 -0.2607  1.7394  1.0332
   78MOL0     H10254   0.290   6.639   8.798 -0.1799  2.7938  1.8360
   78MOL0     H10255   0.358   6.762   8.688  2.1062 -2.2242  0.1050
   78MOL0     H10256   0.132   6.845   8.649 -0.4490  0.0964 -0.2552
   78MOL0     H10257   0.163   6.832   8.824  0.0305  0.2850 -0.6018
   78MOL0     H10258  -0.100   6.887   8.864  0.2123 -1.7225  0.7053
   78MOL0     H10259  -0.300   6.995   8.773 -0.4838 -0.6101  1.2486
   78MOL0     H10260  -0.777   6.983   8.679 -0.5081 -0.2034  0.5406
   78MOL0     H10261  -0.936   7.073   8.525  1.4027 -1.3211  3.9490
   78MOL0     H10262  -0.873   7.445   8.249 -3.3441 -1.2511 -2.9117
   78MOL0     H10263  -0.908   7.419   8.423 -0.8939 -1.6356  0.0025
   78MOL0     H10264  -1.087   7.358   8.176  0.0525 -1.1615  0.6952
   78MOL0     H10265  -1.101   7.509   8.278  2.3482  0.6766 -0.2056
   78MOL0     H10266  -1.162   7.345   8.472  3.8242 -1.0321 -0.0982
   78MOL0     H10267  -1.156   7.211   8.358 -0.2594 -0.2423  1.0729
   78MOL0     H10268  -1.359   7.437   8.359 -0.3973 -0.7759 -1.3190
   78MOL0     H10269  -1.349   7.325   8.224  0.0629  1.7655 -0.9732
   78MOL0     H10270  -1.366   7.247   8.527 -2.2841  0.1165  1.4274
   78MOL0     H10271  -1.404   7.142   8.395 -2.2154 -0.2207  3.3569
   78MOL0     H10272  -1.607   7.320   8.339 -0.1564  4.8467  0.9184
   78MOL0     H10273  -1.555   7.376   8.497  3.0611 -0.5719  0.6075
   78MOL0     H10274  -1.617   7.072   8.444 -5.5153  0.3586 -2.2400
   78MOL0     H10275  -1.625   7.148   8.599  1.0132  2.9027  0.2285
   78MOL0     H10276  -1.841   7.275   8.511  0.8669  1.0675 -1.4596
   78MOL0     H10277  -1.837   7.092   8.524 -2.2070  0.0757 -2.0086
   78MOL0     H10278  -0.645   7.353   8.366 -0.9164  0.7013  0.6896
   78MOL0     H10279  -0.475   7.241   8.532 -0.4289  0.8381  1.3519
   78MOL0     H10280  -0.330   6.716   8.451  3.0387 -0.6858 -2.2280
   78MOL0     H10281  -0.133   6.597   8.553 -2.1285  0.0567 -2.1329
   78MOL0     H10282   1.729   6.487   8.414 -1.3244  0.1977  1.6228
   78MOL0     H10283   1.952   6.438   8.338 -0.6060  1.2919  2.7703
   78MOL0     H10284   2.420   6.324   8.358 -4.1094  0.6879 -1.5322
   78MOL0     H10285   2.640   6.192   8.303  1.1136 -2.2434 -0.5323
   78MOL0     H10286   2.630   5.846   8.020 -0.0792 -3.7063 -0.0026
   78MOL0     H10287   2.557   5.780   8.157  0.6604 -1.2055 -1.6550
   78MOL0     H10288   2.863   5.816   8.145  1.8695 -3.4811 -0.9351
   78MOL0     H10289   2.749   5.728   8.251 -0.6184  0.9814  0.0566
   78MOL0     H10290   2.710   5.631   7.974 -2.1536  0.7209  2.0722
   78MOL0     H10291   2.736   5.545   8.123 -1.2822 -1.2650 -0.5156
   78MOL0     H10292   2.914   5.548   7.932  0.4650  1.9743 -0.9531
   78MOL0     H10293   2.977   5.691   7.999  0.5369 -0.1888  1.7024
   78MOL0     H10294   3.091   5.370   8.264  2.6698  2.7598  0.3778
   78MOL0     H10295   2.398   5.889   8.142  1.1369 -0.0217  1.1341
   78MOL0     H10296   2.197   5.997   8.199 -0.7016  1.2608 -1.5425
   79MOL0     O10297  10.353   2.610   0.655 -0.6829 -0.4170 -0.3127
   79MOL0     C10298  10.472   2.579   0.691  0.3251  0.2637 -0.1491
   79MOL0     O10299  10.505   2.542   0.822 -0.6059  0.6223  0.5340
   79MOL0     C10300  10.564   2.425   0.841 -0.0942 -0.7970 -0.8979
   79MOL0     C10301  10.667   2.420   0.941 -0.3250  0.8681 -0.1324
   79MOL0     C10302  10.741   2.302   0.968  0.4535 -0.3534  0.0648
   79MOL0     C10303  10.708   2.182   0.895 -0.2544 -0.1141 -0.3877
   79MOL0     O10304  10.759   2.054   0.905 -0.1788 -0.0756  0.1681
   79MOL0     C10305  10.863   2.023   1.007 -1.1931  0.2301  0.0801
   79MOL0     C10306  10.897   1.872   1.015 -0.2594  0.0924 -0.2791
   79MOL0     C10307  11.000   1.821   0.907 -0.1886 -0.3852  0.3614
   79MOL0     C10308  10.917   1.793   0.775  0.2871  0.0609  0.4569
   79MOL0     C10309  11.013   1.753   0.658  0.2357 -0.5578  0.2573
   79MOL0     C10310  11.148   1.827   0.650  1.2866  1.0721 -0.1797
   79MOL0     C10311  11.210   1.778   0.517 -0.5694 -0.4310  0.1589
   79MOL0     C10312  11.340   1.872   0.503 -0.2086  0.5064  0.1577
   79MOL0     N10313  11.396   1.855   0.378 -0.4666  0.6282  0.7119
   79MOL0     C10314  11.438   1.739   0.313 -0.8527  0.5233  0.1324
   79MOL0     C10315  11.507   1.785   0.201 -0.1754  0.2998 -1.3158
   79MOL0     C10316  11.577   1.708   0.096 -0.8412  0.0080  0.2042
   79MOL0     C10317  11.712   1.649   0.150  0.7196  0.2456  0.8981
   79MOL0     C10318  11.783   1.560   0.049 -0.0372 -0.1467 -0.6138
   79MOL0     C10319  11.842   1.633  -0.066  0.5841  0.3456 -0.2736
   79MOL0     O10320  11.947   1.728  -0.048 -0.3547  0.0838 -0.8349
   79MOL0     C10321  11.998   1.788  -0.160  0.3746  0.6261 -0.7737
   79MOL0     C10322  12.111   1.875  -0.151  0.5145 -0.3598  0.3202
   79MOL0     C10323  12.165   1.948  -0.259 -0.7078  0.7460  0.6555
   79MOL0     C10324  12.112   1.927  -0.387  0.6764  0.1987  0.7599
   79MOL0     C10325  12.185   1.984  -0.507  0.5147 -0.4795 -0.9499
   79MOL0     O10326  12.122   1.972  -0.624  0.2519  0.2465  0.6199
   79MOL0     C10327  12.182   1.998  -0.744  1.6352 -0.2588 -0.3587
   79MOL0     C10328  12.090   1.995  -0.854 -0.5220 -0.4014  0.2775
   79MOL0     C10329  12.137   2.028  -0.983  0.0805  0.1563 -1.1017
   79MOL0     C10330  12.270   2.051  -1.021  0.4336 -0.6676 -0.5703
   79MOL0     O10331  12.287   2.091  -1.154 -0.2126  0.0909 -0.7679
   79MOL0     C10332  12.416   2.159  -1.173 -0.4463  0.9726 -0.1849
   79MOL0     C10333  12.437   2.214  -1.318 -0.2177 -0.5789 -1.6006
   79MOL0     C10334  12.396   2.098  -1.420 -0.4029 -0.1028 -0.0721
   79MOL0     C10335  12.384   2.157  -1.563  0.2623 -0.0630 -0.0224
   79MOL0     C10336  12.278   2.259  -1.582 -0.6322  0.3876  0.5567
   79MOL0     C10337  12.146   2.225  -1.523 -0.0741  0.7277 -0.1178
   79MOL0     C10338  12.046   2.330  -1.566  0.7439 -0.2075  0.3234
   79MOL0     C10339  11.914   2.318  -1.497  0.3356 -0.8068  0.4885
   79MOL0    Cl10340  11.929   2.355  -1.323 -0.1343 -0.5542 -0.4649
   79MOL0     C10341  12.360   2.049  -0.912  0.7961  0.5229 -0.2246
   79MOL0     C10342  12.320   2.019  -0.782 -0.4803  0.0256  0.2103
   79MOL0     O10343  12.282   2.055  -0.487  0.6357  0.0180 -0.4794
   79MOL0     C10344  12.009   1.832  -0.399 -0.6646 -0.5744  1.1851
   79MOL0     C10345  11.955   1.776  -0.290  0.5443 -0.4220  0.3555
   79MOL0     N10346  11.501   1.925   0.205  0.6774 -0.2633  0.5916
   79MOL0     N10347  11.440   1.966   0.314 -0.8130 -0.5141  0.5605
   79MOL0     C10348  10.606   2.189   0.804 -0.0684  1.0098 -0.8526
   79MOL0     C10349  10.527   2.300   0.788  1.0267 -0.6028  0.6693
   79MOL0     C10350  10.577   2.569   0.583  0.7296 -0.0799 -0.3528
   79MOL0     C10351  10.709   2.580   0.610 -0.4498 -0.2513  0.4504
   79MOL0     C10352  10.803   2.536   0.518  0.3037  0.1738 -0.0913
   79MOL0     C10353  10.765   2.498   0.389 -0.1693  0.9566 -0.2328
   79MOL0     O10354  10.859   2.449   0.300  0.1694 -0.3751 -0.3304
   79MOL0     C10355  11.001   2.477   0.308 -0.1922  0.5762 -0.5146
   79MOL0     C10356  11.067   2.357   0.244  1.2195 -1.0202 -0.2127
   79MOL0     C10357  11.034   2.230   0.324 -0.1553 -0.2325  0.3438
   79MOL0     C10358  11.108   2.213   0.453 -0.6024  0.4182 -0.1641
   79MOL0     C10359  11.253   2.214   0.439  0.4265  1.1565  0.0526
   79MOL0     C10360  11.368   2.234   0.433  0.1828  0.0371 -0.3517
   79MOL0     C10361  10.630   2.507   0.357 -0.4490 -0.1291  0.7027
   79MOL0     C10362  10.536   2.542   0.457 -0.7146  1.1024  0.0766
   79MOL0     H10363  10.699   2.520   0.967 -1.0817  0.7338  1.4153
   79MOL0     H10364  10.811   2.315   1.051 -3.4943  1.0252  3.4980
   79MOL0     H10365  10.830   2.048   1.109  3.0234 -0.8649  1.9537
   79MOL0     H10366  10.958   2.077   1.003  0.1548 -2.0311  0.1723
   79MOL0     H10367  10.798   1.826   1.005 -1.3415  1.4221  2.8866
   79MOL0     H10368  10.943   1.850   1.112 -1.3356  2.3262  0.8219
   79MOL0     H10369  11.046   1.725   0.934  0.5327 -0.3913 -0.8368
   79MOL0     H10370  11.067   1.900   0.874  2.0328 -1.8627  1.0570
   79MOL0     H10371  10.833   1.724   0.793 -2.3135  2.7030 -0.7232
   79MOL0     H10372  10.876   1.891   0.750  2.7432  1.2397  0.7650
   79MOL0     H10373  10.959   1.767   0.565 -0.8785 -1.1978  0.7902
   79MOL0     H10374  11.028   1.644   0.654 -0.6595 -0.7278  1.1773
   79MOL0     H10375  11.205   1.800   0.739 -0.2280  0.6011  0.6912
   79MOL0     H10376  11.128   1.935   0.650 -1.1528  0.7259  2.0684
   79MOL0     H10377  11.244   1.675   0.524 -1.2429 -0.6020  0.9595
   79MOL0     H10378  11.142   1.793   0.432 -1.5321  1.1998  1.1615
   79MOL0     H10379  11.417   1.853   0.577  0.5608 -1.4805 -1.0708
   79MOL0     H10380  11.315   1.978   0.518 -2.4063 -0.1586  1.6832
   79MOL0     H10381  11.427   1.634   0.341  0.4906  0.3842  0.2037
   79MOL0     H10382  11.601   1.774   0.012 -0.6828 -1.6718 -1.1427
   79MOL0     H10383  11.505   1.629   0.071  0.8857 -2.2907  2.0079
   79MOL0     H10384  11.687   1.587   0.236  0.4692  1.4382  1.7109
   79MOL0     H10385  11.767   1.734   0.191  1.2290 -0.3746  1.5158
   79MOL0     H10386  11.878   1.528   0.093 -0.5882 -2.2985 -0.8594
   79MOL0     H10387  11.728   1.471   0.015  1.3894 -0.0415 -3.5175
   79MOL0     H10388  11.767   1.680  -0.130  0.6438  1.3392  0.3714
   79MOL0     H10389  11.892   1.552  -0.120  1.4573 -1.2325  2.6927
   79MOL0     H10390  12.153   1.897  -0.054 -0.7285 -0.9566  1.0233
   79MOL0     H10391  12.255   2.006  -0.244  1.3127 -2.1800  0.6459
   79MOL0     H10392  11.982   1.990  -0.850 -1.0072 -1.9737 -5.5330
   79MOL0     H10393  12.074   2.025  -1.072 -2.7121  0.2016  0.7390
   79MOL0     H10394  12.489   2.078  -1.156 -1.5859  0.2331  1.4412
   79MOL0     H10395  12.443   2.238  -1.103  5.5965  0.5223 -1.4295
   79MOL0     H10396  12.537   2.256  -1.327 -0.1942  0.0243  0.8703
   79MOL0     H10397  12.376   2.302  -1.338 -0.6307 -0.0437  1.6203
   79MOL0     H10398  12.295   2.064  -1.395 -1.6105  1.1130 -2.9145
   79MOL0     H10399  12.460   2.010  -1.418  2.2195  1.5622 -2.8049
   79MOL0     H10400  12.482   2.199  -1.588  1.8606 -1.1626  3.6921
   79MOL0     H10401  12.350   2.075  -1.628 -1.3116 -1.2714  2.1970
   79MOL0     H10402  12.266   2.274  -1.690  0.9132 -2.8215 -0.1970
   79MOL0     H10403  12.321   2.351  -1.541 -1.2519  1.3989 -0.9817
   79MOL0     H10404  12.148   2.216  -1.414 -0.9719  2.7516  0.1069
   79MOL0     H10405  12.115   2.131  -1.568  1.9116  0.6621 -1.5247
   79MOL0     H10406  12.073   2.425  -1.517 -0.7995 -0.6829  2.2071
   79MOL0     H10407  12.038   2.329  -1.675 -1.7720  0.9062  0.4493
   79MOL0     H10408  11.865   2.221  -1.512  0.6848 -1.2827  2.1464
   79MOL0     H10409  11.851   2.401  -1.528  0.8784  0.2002  1.9458
   79MOL0     H10410  12.467   2.061  -0.929  1.4647 -0.7149  2.6092
   79MOL0     H10411  12.392   2.021  -0.700 -3.9288  2.6538  3.5273
   79MOL0     H10412  11.970   1.814  -0.498 -0.0186  2.9501  0.1168
   79MOL0     H10413  11.876   1.707  -0.319 -1.3953  1.7180  0.2798
   79MOL0     H10414  10.571   2.104   0.747  2.7849  0.6878 -2.3138
   79MOL0     H10415  10.449   2.281   0.715 -0.5950  2.3909  1.4562
   79MOL0     H10416  10.740   2.628   0.702  0.8677  2.1191 -1.1163
   79MOL0     H10417  10.905   2.523   0.552  0.3277 -0.4334 -0.3748
   79MOL0     H10418  11.043   2.496   0.407 -0.3323  1.1567 -0.5632
   79MOL0     H10419  11.016   2.572   0.255 -0.9353  0.2635 -1.3019
   79MOL0     H10420  11.017   2.343   0.148  3.1939 -0.8811 -1.3181
   79MOL0     H10421  11.172   2.383   0.226  0.8771 -0.7156 -1.9782
   79MOL0     H10422  11.072   2.153   0.256  1.2422  1.1570 -0.5040
   79MOL0     H10423  10.928   2.227   0.351 -0.0134  2.2478  1.4072
   79MOL0     H10424  11.078   2.292   0.523 -3.2932 -1.5841  1.1305
   79MOL0     H10425  11.076   2.121   0.502  3.8878 -0.7404  1.0630
   79MOL0     H10426  11.468   2.269   0.416  0.1206  0.9958  1.0677
   79MOL0     H10427  10.597   2.501   0.253  0.5349 -1.9118  0.4430
   79MOL0     H10428  10.436   2.519   0.421 -0.7274  0.3039  0.5842
   80MOL0     O10429   6.308   7.303   8.250  0.4265 -0.1533 -0.4016
   80MOL0     C10430   6.266   7.196   8.216  0.6247 -0.3063  0.4995
   80MOL0     O10431   6.132   7.151   8.201 -1.0112 -0.2051  0.0455
   80MOL0     C10432   6.017   7.225   8.201 -0.9466 -0.6684 -0.6478
   80MOL0     C10433   6.009   7.361   8.241 -0.2532 -0.4868  0.8184
   80MOL0     C10434   5.884   7.426   8.247  0.6356  0.5671 -0.3832
   80MOL0     C10435   5.774   7.360   8.196  0.5073 -1.3491 -0.2953
   80MOL0     O10436   5.665   7.440   8.195  0.1775  0.1344  0.0793
   80MOL0     C10437   5.544   7.379   8.143 -0.3628  0.3016  0.1542
   80MOL0     C10438   5.430   7.483   8.129  0.4727 -0.5107  0.6597
   80MOL0     C10439   5.318   7.414   8.050 -0.4377 -0.5394  0.3183
   80MOL0     C10440   5.195   7.511   8.045 -0.0144  0.2957  0.0061
   80MOL0     C10441   5.125   7.505   7.913  0.2904 -0.1916 -0.4161
   80MOL0     C10442   4.982   7.545   7.935 -0.7604 -0.3985  0.3656
   80MOL0     C10443   4.899   7.543   7.801  1.0404  0.2178  0.4443
   80MOL0     C10444   4.795   7.431   7.787  0.3589 -0.6477 -0.0232
   80MOL0     N10445   4.666   7.486   7.836  0.5600  0.0564  0.1312
   80MOL0     C10446   4.574   7.558   7.762  0.1693  0.7623 -0.5668
   80MOL0     C10447   4.487   7.593   7.863  0.1239 -0.0027 -0.0196
   80MOL0     C10448   4.356   7.665   7.852  0.3961  0.2785  0.2207
   80MOL0     C10449   4.256   7.596   7.946 -0.5031  0.7055  0.3113
   80MOL0     C10450   4.115   7.664   7.925 -0.3306  0.3277 -0.7016
   80MOL0     C10451   4.011   7.608   8.021  0.4632 -0.0838 -0.2108
   80MOL0     O10452   3.891   7.695   8.029 -0.1151 -0.1070  0.5977
   80MOL0     C10453   3.803   7.708   7.920  0.9668 -0.2602 -0.2161
   80MOL0     C10454   3.792   7.614   7.813 -0.1534  0.0330 -0.2193
   80MOL0     C10455   3.690   7.624   7.723 -0.3905  0.8526 -0.1890
   80MOL0     C10456   3.588   7.718   7.725 -0.0978 -0.2555  0.0854
   80MOL0     C10457   3.480   7.696   7.632  0.2399 -1.0640  0.3028
   80MOL0     O10458   3.402   7.811   7.608 -0.2068 -0.0532  0.0049
   80MOL0     C10459   3.317   7.798   7.497 -0.8680  0.1959 -0.1616
   80MOL0     C10460   3.192   7.754   7.519  0.1897  0.3969  0.2833
   80MOL0     C10461   3.104   7.737   7.407 -0.3726  0.1958 -0.1793
   80MOL0     C10462   3.151   7.759   7.274 -0.7899 -0.0426 -0.2877
   80MOL0     O10463   3.062   7.746   7.169  0.0107 -0.1003 -0.1291
   80MOL0     C10464   3.106   7.698   7.046  0.1265  0.0958 -0.0976
   80MOL0     C10465   2.976   7.699   6.967 -0.1126 -0.2278 -0.9659
   80MOL0     C10466   3.004   7.665   6.822  0.0275  0.4432  0.7465
   80MOL0     C10467   2.873   7.660   6.741  0.0144 -0.0270 -0.2826
   80MOL0     C10468   2.805   7.531   6.743  0.0232  0.2400  0.0280
   80MOL0     C10469   2.666   7.541   6.679  0.1205 -0.2670 -0.9360
   80MOL0     C10470   2.657   7.523   6.528 -0.2070 -0.0075 -0.5372
   80MOL0     C10471   2.653   7.379   6.494  0.5063 -0.3984 -0.6563
   80MOL0    Cl10472   2.570   7.360   6.333 -0.5226  0.2091  0.3400
   80MOL0     C10473   3.287   7.788   7.256 -0.0093 -1.3910 -0.5275
   80MOL0     C10474   3.362   7.817   7.371  0.4284 -0.8886  0.1069
   80MOL0     O10475   3.459   7.582   7.593 -1.2061  0.3154  1.0531
   80MOL0     C10476   3.597   7.816   7.818 -0.5534 -0.6266 -0.1625
   80MOL0     C10477   3.710   7.809   7.914  0.0375 -0.3842  0.0229
   80MOL0     N10478   4.531   7.548   7.985  0.8846  0.5477  0.1543
   80MOL0     N10479   4.636   7.488   7.972 -0.0243 -0.3880 -0.4581
   80MOL0     C10480   5.787   7.226   8.156  0.3252 -0.2801 -0.7945
   80MOL0     C10481   5.908   7.161   8.160  0.5475  0.7091 -0.2952
   80MOL0     C10482   6.366   7.090   8.198 -0.4288 -0.0205 -0.3518
   80MOL0     C10483   6.498   7.129   8.175  0.5819  0.6759  0.0248
   80MOL0     C10484   6.590   7.023   8.166 -0.5477  0.3906  0.2453
   80MOL0     C10485   6.557   6.888   8.177 -0.2452 -0.2344 -0.3502
   80MOL0     O10486   6.670   6.806   8.163 -0.1667  0.7199  0.0248
   80MOL0     C10487   6.645   6.659   8.144 -0.4713 -0.2048  0.0497
   80MOL0     C10488   6.737   6.575   8.221 -0.6379  0.0095 -0.2226
   80MOL0     C10489   6.868   6.549   8.131 -0.1177 -0.4570  0.3562
   80MOL0     C10490   6.834   6.438   8.025 -1.1202 -0.2097  0.6699
   80MOL0     C10491   6.946   6.454   7.926 -0.4500 -0.0965  0.5955
   80MOL0     C10492   7.031   6.468   7.843  0.2393 -0.4453 -0.9807
   80MOL0     C10493   6.420   6.855   8.194 -0.3111  0.0225 -0.1712
   80MOL0     C10494   6.326   6.960   8.215 -0.1887 -0.4875  0.5754
   80MOL0     H10495   6.099   7.414   8.269  1.3841 -1.4572 -2.1127
   80MOL0     H10496   5.864   7.532   8.253 -0.1339  0.4984 -1.3703
   80MOL0     H10497   5.513   7.305   8.218 -0.9705  2.2072  1.8963
   80MOL0     H10498   5.573   7.348   8.043 -0.8367  1.5760 -0.4012
   80MOL0     H10499   5.477   7.567   8.075 -2.7808  1.0592  0.0340
   80MOL0     H10500   5.390   7.524   8.222  1.5500 -0.4718  1.1225
   80MOL0     H10501   5.287   7.315   8.084 -2.1470 -0.1572 -0.0310
   80MOL0     H10502   5.353   7.409   7.947 -1.4742  2.2615 -0.2747
   80MOL0     H10503   5.137   7.495   8.136 -0.1378 -2.3026 -0.4446
   80MOL0     H10504   5.229   7.615   8.041 -1.7847  0.9445  0.6351
   80MOL0     H10505   5.122   7.403   7.874 -1.0093  0.1776 -1.3817
   80MOL0     H10506   5.163   7.570   7.834  0.4458  1.3587  0.8847
   80MOL0     H10507   4.967   7.647   7.973 -0.8898  0.4382 -1.8001
   80MOL0     H10508   4.945   7.487   8.020 -0.8787  1.6660  1.8143
   80MOL0     H10509   4.841   7.635   7.796  0.3514 -0.2700 -0.8836
   80MOL0     H10510   4.964   7.526   7.715  1.6051 -1.6463  1.1791
   80MOL0     H10511   4.840   7.352   7.848  0.7345  0.6955  1.5201
   80MOL0     H10512   4.772   7.400   7.685  2.3005 -0.1143 -0.6638
   80MOL0     H10513   4.558   7.581   7.658 -1.0245 -1.9494 -1.0837
   80MOL0     H10514   4.315   7.689   7.754  1.0439  2.9182  0.5153
   80MOL0     H10515   4.385   7.766   7.885 -1.4243  0.3147  1.8409
   80MOL0     H10516   4.285   7.616   8.049 -3.1433  1.9834  0.8797
   80MOL0     H10517   4.261   7.488   7.927  0.3743  0.9871 -1.3220
   80MOL0     H10518   4.117   7.769   7.954  0.5271  0.5719 -1.6141
   80MOL0     H10519   4.087   7.649   7.821 -0.1861 -2.7361 -0.4112
   80MOL0     H10520   4.037   7.612   8.128 -3.8231  2.2647  1.0050
   80MOL0     H10521   3.987   7.502   8.012 -1.3221  0.1244  1.3130
   80MOL0     H10522   3.854   7.525   7.803  0.4973  0.5557 -1.0649
   80MOL0     H10523   3.688   7.549   7.645 -0.9419 -2.0243  2.3697
   80MOL0     H10524   3.164   7.720   7.619 -0.3507  1.4269  0.4940
   80MOL0     H10525   3.008   7.687   7.420  0.3132 -1.7819 -2.1470
   80MOL0     H10526   3.142   7.595   7.051  0.4912  0.2508  0.6546
   80MOL0     H10527   3.167   7.775   7.000 -2.5634  1.6393 -1.3160
   80MOL0     H10528   2.901   7.776   6.989  0.6253  0.0087  0.9592
   80MOL0     H10529   2.929   7.605   6.998 -0.5783  0.3756  0.2392
   80MOL0     H10530   3.058   7.570   6.821 -1.5761 -0.5022 -0.8106
   80MOL0     H10531   3.063   7.742   6.771 -0.9404  0.6716 -0.0487
   80MOL0     H10532   2.802   7.733   6.779  0.1207  0.7722 -1.5719
   80MOL0     H10533   2.897   7.680   6.636  1.1387 -0.2512 -0.0906
   80MOL0     H10534   2.786   7.486   6.840 -3.2355 -2.5300 -1.6694
   80MOL0     H10535   2.859   7.462   6.677  0.2162 -0.3132  0.7598
   80MOL0     H10536   2.619   7.636   6.708  1.4744  0.6071 -1.5393
   80MOL0     H10537   2.600   7.460   6.711  0.8321 -0.7717 -0.7283
   80MOL0     H10538   2.560   7.566   6.501  0.3107  2.2992  0.9406
   80MOL0     H10539   2.740   7.578   6.481  0.1893 -0.1148  0.0282
   80MOL0     H10540   2.598   7.317   6.565 -2.2277  3.2134  0.7184
   80MOL0     H10541   2.757   7.346   6.501 -0.1953 -2.5944  0.4443
   80MOL0     H10542   3.324   7.818   7.158 -1.7998  1.1004 -0.5325
   80MOL0     H10543   3.464   7.855   7.368 -0.7705  2.6646  0.4696
   80MOL0     H10544   3.529   7.901   7.828  2.2920  1.8004 -0.1173
   80MOL0     H10545   3.726   7.883   7.993  2.6267  2.8593 -3.1968
   80MOL0     H10546   5.706   7.166   8.116 -3.1047  0.7499  3.8418
   80MOL0     H10547   5.916   7.055   8.139 -3.9741  0.3882 -1.4363
   80MOL0     H10548   6.535   7.229   8.193  1.2256  0.1785  1.6025
   80MOL0     H10549   6.694   7.056   8.166 -0.7058  0.9246  1.3630
   80MOL0     H10550   6.646   6.646   8.036  4.0218 -0.2411 -0.0799
   80MOL0     H10551   6.551   6.619   8.183  0.6428 -1.2450  1.8206
   80MOL0     H10552   6.749   6.628   8.316  0.7163  0.5229 -0.6535
   80MOL0     H10553   6.690   6.480   8.248  1.3001 -0.6231  1.2349
   80MOL0     H10554   6.947   6.518   8.200  0.0295 -0.0301  0.3876
   80MOL0     H10555   6.895   6.650   8.098 -2.0252  1.2939  3.5970
   80MOL0     H10556   6.841   6.339   8.073 -0.1600 -1.3762 -1.7431
   80MOL0     H10557   6.737   6.453   7.976 -1.1902 -2.8485 -0.1783
   80MOL0     H10558   7.107   6.470   7.767 -0.8874  2.2643 -2.1697
   80MOL0     H10559   6.385   6.753   8.204 -1.6743  0.6349  2.4941
   80MOL0     H10560   6.226   6.933   8.247  0.7641 -0.8770  3.4706
   81MOL0     O10561   5.416   0.950   4.574  0.0970 -0.0879 -0.2684
   81MOL0     C10562   5.410   1.032   4.487 -0.3741 -0.1311  0.0119
   81MOL0     O10563   5.456   1.013   4.360  0.3388  0.6395 -0.0262
   81MOL0     C10564   5.514   0.896   4.312 -0.0533  0.5022 -0.1611
   81MOL0     C10565   5.606   0.821   4.377 -0.3376  1.1381 -0.0368
   81MOL0     C10566   5.667   0.711   4.320  0.3896 -0.2626  0.1075
   81MOL0     C10567   5.639   0.673   4.190  0.3379 -0.6188 -0.0149
   81MOL0     O10568   5.704   0.559   4.138  0.0750 -0.1634  0.4814
   81MOL0     C10569   5.772   0.593   4.020 -0.0347 -0.2116 -0.2555
   81MOL0     C10570   5.864   0.469   3.999 -0.2362 -0.8167  0.2475
   81MOL0     C10571   5.805   0.343   3.935  0.3449 -0.4085  0.8342
   81MOL0     C10572   5.910   0.234   3.929  0.1590 -0.4979 -0.4544
   81MOL0     C10573   5.856   0.106   3.872  0.4523  0.3890 -0.1939
   81MOL0     C10574   5.975   0.017   3.866 -0.8261  0.6122 -0.2562
   81MOL0     C10575   5.955  -0.130   3.838 -0.5606  0.7274  0.8890
   81MOL0     C10576   5.931  -0.148   3.687  0.5957 -0.7084 -0.2126
   81MOL0     N10577   5.922  -0.292   3.670  0.5578 -0.0416 -0.4823
   81MOL0     C10578   5.809  -0.347   3.619  1.5150 -0.1026  0.5409
   81MOL0     C10579   5.827  -0.479   3.617  0.8016 -0.1428  0.5109
   81MOL0     C10580   5.707  -0.570   3.571 -0.3755 -0.1953 -0.3622
   81MOL0     C10581   5.757  -0.700   3.509  0.5117 -0.9944 -0.4494
   81MOL0     C10582   5.660  -0.775   3.421  0.8678 -0.0486  0.5830
   81MOL0     C10583   5.734  -0.886   3.345 -0.4857  0.1207 -0.6739
   81MOL0     O10584   5.650  -0.993   3.332 -0.1549  0.0410 -0.0451
   81MOL0     C10585   5.702  -1.121   3.301  0.7627 -0.7200  0.9783
   81MOL0     C10586   5.827  -1.153   3.261  0.3488 -0.3049  0.0915
   81MOL0     C10587   5.857  -1.281   3.224  0.0439  0.0410 -0.5476
   81MOL0     C10588   5.754  -1.378   3.210  0.7373  1.2904  0.2815
   81MOL0     C10589   5.779  -1.510   3.163  0.2726  0.4074 -0.1197
   81MOL0     O10590   5.911  -1.538   3.124  0.5001 -0.2971  0.5594
   81MOL0     C10591   5.921  -1.673   3.115 -0.1199 -0.1495 -0.4212
   81MOL0     C10592   5.972  -1.726   2.998  0.4850  0.9810  0.0678
   81MOL0     C10593   6.023  -1.855   2.994  0.1165 -0.0582 -0.1388
   81MOL0     C10594   5.999  -1.941   3.103 -0.5408 -0.7130 -0.9314
   81MOL0     O10595   6.018  -2.075   3.083 -0.4072 -0.3497  0.3367
   81MOL0     C10596   5.953  -2.170   3.167  1.2713  1.5118 -0.5175
   81MOL0     C10597   5.981  -2.309   3.095  0.4281 -0.1451 -0.5339
   81MOL0     C10598   5.915  -2.424   3.187 -0.7028 -0.2449  0.3642
   81MOL0     C10599   5.959  -2.569   3.165  0.0992 -0.6042  0.4489
   81MOL0     C10600   5.915  -2.612   3.027  0.2177 -0.3206  0.2302
   81MOL0     C10601   5.985  -2.744   2.995  0.4059 -0.1026 -0.6919
   81MOL0     C10602   5.924  -2.811   2.857 -0.0782 -0.9821 -0.4879
   81MOL0     C10603   5.973  -2.950   2.842 -0.9594 -0.9430 -0.1312
   81MOL0    Cl10604   5.894  -3.061   2.946 -0.4133  0.1232 -0.1358
   81MOL0     C10605   5.951  -1.887   3.225 -0.2740 -0.0804  0.1547
   81MOL0     C10606   5.909  -1.750   3.230  0.0617  0.4617  0.7081
   81MOL0     O10607   5.680  -1.592   3.152  0.4949 -0.2576  0.4514
   81MOL0     C10608   5.623  -1.343   3.242  0.2892 -0.2692  0.1211
   81MOL0     C10609   5.600  -1.215   3.293 -0.9324 -0.2250  0.2569
   81MOL0     N10610   5.958  -0.503   3.661  0.5273  0.0607  0.1466
   81MOL0     N10611   6.015  -0.394   3.685 -0.6392 -0.0720  0.3653
   81MOL0     C10612   5.548   0.743   4.117  0.9962  0.0298  0.1556
   81MOL0     C10613   5.485   0.859   4.177 -0.0406 -0.1418 -0.8544
   81MOL0     C10614   5.343   1.163   4.517  0.1985  0.9659 -0.1103
   81MOL0     C10615   5.285   1.189   4.642  0.8887  1.6035  0.0727
   81MOL0     C10616   5.201   1.292   4.662 -0.7874 -0.2821 -0.1085
   81MOL0     C10617   5.191   1.391   4.562 -0.0525 -0.6444  0.0658
   81MOL0     O10618   5.123   1.506   4.595 -0.4515 -0.2214 -0.1342
   81MOL0     C10619   5.015   1.529   4.517  0.9403 -0.4086  0.8917
   81MOL0     C10620   4.883   1.566   4.592 -0.4479  0.3788 -0.8320
   81MOL0     C10621   4.842   1.451   4.693  0.5402  0.5133  0.2329
   81MOL0     C10622   4.692   1.477   4.733 -0.7249 -1.2237 -0.1803
   81MOL0     C10623   4.592   1.420   4.652  1.1828  0.9695  0.2876
   81MOL0     C10624   4.500   1.371   4.589 -0.0700  0.4341 -0.6112
   81MOL0     C10625   5.257   1.368   4.439 -0.7316  0.0780  0.4716
   81MOL0     C10626   5.337   1.254   4.418  0.0740 -0.0324  0.6077
   81MOL0     H10627   5.630   0.855   4.478 -1.1738  0.1890  0.5063
   81MOL0     H10628   5.740   0.661   4.382  3.0003  2.3584 -0.6537
   81MOL0     H10629   5.818   0.692   4.005 -3.0222  0.8877 -3.5350
   81MOL0     H10630   5.710   0.581   3.931  0.0215 -1.2006 -0.1683
   81MOL0     H10631   5.913   0.448   4.095  0.5225  1.2427  0.3750
   81MOL0     H10632   5.946   0.507   3.938 -0.1173  0.6874  1.2677
   81MOL0     H10633   5.786   0.372   3.831  1.9096  1.6077  1.0434
   81MOL0     H10634   5.710   0.309   3.979 -0.1916 -1.5824 -1.1242
   81MOL0     H10635   5.998   0.272   3.878 -0.4666  1.8768  0.0837
   81MOL0     H10636   5.934   0.207   4.033 -0.6413 -4.0817 -1.0770
   81MOL0     H10637   5.823   0.113   3.768  0.4148 -5.1106 -0.8339
   81MOL0     H10638   5.778   0.066   3.937 -0.1629  0.1725 -1.0491
   81MOL0     H10639   6.010   0.009   3.970  3.1728 -2.3163 -1.5998
   81MOL0     H10640   6.067   0.053   3.819 -0.1835 -0.8511 -0.1586
   81MOL0     H10641   6.041  -0.189   3.872 -1.5695 -1.6040 -0.3583
   81MOL0     H10642   5.872  -0.178   3.890  0.4703 -1.6412  0.4828
   81MOL0     H10643   6.017  -0.109   3.632 -0.8116  1.7353 -0.8355
   81MOL0     H10644   5.836  -0.105   3.655  0.5484  0.7537  1.6853
   81MOL0     H10645   5.715  -0.309   3.580  1.4694 -0.7742 -0.0288
   81MOL0     H10646   5.638  -0.526   3.499  2.6257  0.7613 -2.8406
   81MOL0     H10647   5.655  -0.586   3.667 -0.1084  1.6863  0.1401
   81MOL0     H10648   5.781  -0.766   3.593  1.9172  0.5705  0.4454
   81MOL0     H10649   5.852  -0.675   3.461  2.3033  0.3540  3.3825
   81MOL0     H10650   5.580  -0.819   3.481  0.4838  0.0067  0.1200
   81MOL0     H10651   5.632  -0.707   3.340  1.0440  0.1097  0.6540
   81MOL0     H10652   5.822  -0.910   3.404 -0.0801 -1.8099 -1.9719
   81MOL0     H10653   5.754  -0.858   3.241 -1.3184  3.1267 -0.1205
   81MOL0     H10654   5.904  -1.078   3.277 -0.3610 -0.1713  3.9968
   81MOL0     H10655   5.953  -1.313   3.185  0.7457  1.4191 -0.0191
   81MOL0     H10656   5.981  -1.661   2.911 -0.4578  0.3431 -0.5310
   81MOL0     H10657   6.065  -1.890   2.900  2.2060  1.3052  0.2081
   81MOL0     H10658   5.845  -2.186   3.162  1.7089 -1.6132 -3.5958
   81MOL0     H10659   5.984  -2.179   3.271 -2.7437 -2.0997  0.6402
   81MOL0     H10660   6.085  -2.343   3.093 -0.6843 -3.9895 -1.2465
   81MOL0     H10661   5.931  -2.307   2.998  0.9331  1.5200 -0.7797
   81MOL0     H10662   5.806  -2.419   3.176 -0.5139  1.1350 -1.2109
   81MOL0     H10663   5.936  -2.420   3.294  0.2991 -1.2118  0.2167
   81MOL0     H10664   6.068  -2.578   3.172  0.0945  0.5964  2.7884
   81MOL0     H10665   5.912  -2.633   3.240  0.2729 -0.5922  0.5683
   81MOL0     H10666   5.954  -2.538   2.956 -0.1318 -0.6738 -0.3327
   81MOL0     H10667   5.806  -2.620   3.023  0.1840  0.4054 -0.7306
   81MOL0     H10668   5.964  -2.808   3.081 -2.2607  0.5468 -0.7566
   81MOL0     H10669   6.091  -2.734   2.972  0.0234 -1.9921 -3.9374
   81MOL0     H10670   5.815  -2.824   2.858  0.0545 -2.2301 -0.4292
   81MOL0     H10671   5.961  -2.764   2.765  0.2074  0.2159  0.2235
   81MOL0     H10672   6.078  -2.956   2.874 -1.2507 -4.6254  0.5897
   81MOL0     H10673   5.979  -2.978   2.737  4.1147  1.7776 -0.8918
   81MOL0     H10674   5.947  -1.953   3.312  0.5105  0.0683  0.3146
   81MOL0     H10675   5.879  -1.709   3.325 -0.2188  1.8676  0.0365
   81MOL0     H10676   5.541  -1.413   3.228  1.1851 -1.3566  0.1647
   81MOL0     H10677   5.502  -1.180   3.324 -0.2882 -0.2945  2.5509
   81MOL0     H10678   5.519   0.715   4.016  0.6525 -0.0335  0.2721
   81MOL0     H10679   5.396   0.908   4.137 -1.0252 -0.9938  0.2303
   81MOL0     H10680   5.281   1.120   4.726  3.7465 -1.7719 -2.2201
   81MOL0     H10681   5.145   1.313   4.753  2.6461  1.8234  1.7328
   81MOL0     H10682   4.981   1.444   4.458  1.3680 -0.1751  0.3020
   81MOL0     H10683   5.033   1.609   4.444  3.4371 -0.4877  1.3564
   81MOL0     H10684   4.898   1.646   4.665 -1.4831 -1.3506  1.4393
   81MOL0     H10685   4.805   1.577   4.517 -0.9197 -1.7202 -0.7154
   81MOL0     H10686   4.906   1.460   4.781  1.7660  2.1891 -0.7687
   81MOL0     H10687   4.844   1.353   4.644 -2.8785 -1.3010  3.2222
   81MOL0     H10688   4.683   1.421   4.827  0.8264 -0.7342  0.2864
   81MOL0     H10689   4.673   1.582   4.754 -0.8145 -1.1352 -0.6939
   81MOL0     H10690   4.435   1.312   4.528  0.5438 -1.4323  0.4595
   81MOL0     H10691   5.236   1.428   4.350  4.0699 -0.7067 -1.4905
   81MOL0     H10692   5.366   1.232   4.316 -1.9778 -2.4186  0.4409
   82MOL0     O10693   0.800   9.476  11.313 -0.0433  1.1185  0.2476
   82MOL0     C10694   0.823   9.370  11.372 -0.8006 -0.6734  0.1792
   82MOL0     O10695   0.741   9.265  11.379  0.1897  0.4060  0.1792
   82MOL0     C10696   0.619   9.274  11.314  0.1570 -0.2802  0.3154
   82MOL0     C10697   0.512   9.359  11.354 -0.6067 -0.4008 -0.3216
   82MOL0     C10698   0.389   9.367  11.282 -0.9966 -0.2532 -0.9020
   82MOL0     C10699   0.372   9.298  11.154 -0.2760  0.7625 -0.3910
   82MOL0     O10700   0.250   9.319  11.085 -0.0197  0.5958 -0.5034
   82MOL0     C10701   0.220   9.259  10.958 -0.3956  0.1685  0.0826
   82MOL0     C10702   0.180   9.109  10.963 -0.5179  0.3102 -0.1590
   82MOL0     C10703   0.032   9.097  10.987  0.3820 -0.8199  0.0051
   82MOL0     C10704  -0.019   8.952  11.002 -0.2610 -0.5759  0.3587
   82MOL0     C10705  -0.136   8.939  11.100 -1.1071 -0.1950  0.3499
   82MOL0     C10706  -0.090   8.961  11.243 -0.8301 -0.3000 -0.4227
   82MOL0     C10707  -0.203   8.949  11.342  0.0477 -0.5224 -0.0607
   82MOL0     C10708  -0.157   8.963  11.490 -0.6774  0.1229 -0.0088
   82MOL0     N10709  -0.274   8.930  11.585 -0.2175 -0.3720 -0.0063
   82MOL0     C10710  -0.350   9.028  11.636  0.0174  0.3738  1.0449
   82MOL0     C10711  -0.415   8.972  11.748  0.8886 -1.0590  1.0913
   82MOL0     C10712  -0.492   9.062  11.836  0.2922  0.8492 -0.6702
   82MOL0     C10713  -0.636   9.094  11.787 -0.5261 -0.5049 -0.5042
   82MOL0     C10714  -0.747   9.108  11.900  0.5519 -0.1627  0.1841
   82MOL0     C10715  -0.881   9.170  11.850  0.1576 -0.2292  0.9102
   82MOL0     O10716  -1.004   9.157  11.923 -0.3555  0.8906  0.6513
   82MOL0     C10717  -1.047   9.022  11.948 -1.0479 -0.5900 -1.1038
   82MOL0     C10718  -1.126   8.966  11.860 -0.2710 -0.4259  0.5455
   82MOL0     C10719  -1.174   8.835  11.880 -1.1146 -0.4290 -0.2179
   82MOL0     C10720  -1.138   8.767  11.989 -0.1896  1.1208 -0.2003
   82MOL0     C10721  -1.155   8.616  11.992  0.3889  0.6306 -0.2134
   82MOL0     O10722  -1.176   8.565  12.121 -0.2315  1.0245  0.0039
   82MOL0     C10723  -1.201   8.432  12.134 -0.8370  0.0722 -0.0653
   82MOL0     C10724  -1.131   8.372  12.240 -0.1095  0.6461  0.5618
   82MOL0     C10725  -1.169   8.245  12.290 -0.2642  2.1557  0.5676
   82MOL0     C10726  -1.277   8.175  12.236 -0.2394 -1.0580  0.3665
   82MOL0     O10727  -1.316   8.056  12.278  0.6506 -0.0541  0.0398
   82MOL0     C10728  -1.232   7.964  12.348  0.5592  0.9699 -0.0342
   82MOL0     C10729  -1.319   7.832  12.360  0.2066 -0.7758  0.2434
   82MOL0     C10730  -1.237   7.702  12.382  0.4844 -0.1567 -0.0869
   82MOL0     C10731  -1.116   7.733  12.471  1.0922 -0.4449 -0.2444
   82MOL0     C10732  -1.160   7.726  12.619  0.3620 -0.1075  0.3941
   82MOL0     C10733  -1.059   7.789  12.715 -0.2709  0.7840 -0.9829
   82MOL0     C10734  -1.113   7.803  12.858 -0.3645  0.7274  1.3365
   82MOL0     C10735  -1.019   7.875  12.948  0.4087  0.3871 -0.0879
   82MOL0    Cl10736  -1.113   7.911  13.092 -0.1445 -0.1435  0.0044
   82MOL0     C10737  -1.356   8.241  12.135 -0.7328 -0.8674  0.1858
   82MOL0     C10738  -1.316   8.367  12.086  0.0329 -1.1939 -0.3754
   82MOL0     O10739  -1.147   8.549  11.886  0.1263  0.2156  0.2161
   82MOL0     C10740  -1.090   8.835  12.099  0.2398  0.6956 -0.5181
   82MOL0     C10741  -1.044   8.968  12.083  1.1438  0.3255  1.2798
   82MOL0     N10742  -0.394   8.835  11.749  0.0793 -0.7571  0.1277
   82MOL0     N10743  -0.310   8.809  11.647  0.1709 -0.2814  0.5576
   82MOL0     C10744   0.476   9.208  11.124 -0.0225 -0.5031 -0.1043
   82MOL0     C10745   0.593   9.200  11.195  0.7037  0.4204 -0.4661
   82MOL0     C10746   0.940   9.376  11.463 -0.3068 -0.0891 -0.7885
   82MOL0     C10747   1.002   9.260  11.495  0.7585  0.2992 -0.6648
   82MOL0     C10748   1.100   9.268  11.595  0.0736  0.6508 -0.7389
   82MOL0     C10749   1.134   9.382  11.663 -0.5686 -0.3234  0.2237
   82MOL0     O10750   1.221   9.381  11.773  0.9404  0.8649 -0.2786
   82MOL0     C10751   1.276   9.496  11.833 -0.0227 -0.3274  0.3053
   82MOL0     C10752   1.408   9.524  11.774  0.2171 -0.1737 -0.0575
   82MOL0     C10753   1.508   9.431  11.824 -0.0423 -0.0067  0.6520
   82MOL0     C10754   1.654   9.479  11.795  0.8446 -0.0080 -0.3044
   82MOL0     C10755   1.685   9.565  11.677 -0.5738  0.0830  0.4469
   82MOL0     C10756   1.705   9.634  11.571 -0.4244 -0.0358 -1.5173
   82MOL0     C10757   1.072   9.500  11.617  0.4177 -0.3882  0.2209
   82MOL0     C10758   0.967   9.498  11.517 -0.3457  0.1080 -0.2215
   82MOL0     H10759   0.533   9.422  11.440 -0.0705  1.7009 -1.9088
   82MOL0     H10760   0.316   9.439  11.317 -0.4890  0.8850 -2.0918
   82MOL0     H10761   0.300   9.274  10.885 -0.5945 -1.8767 -0.6510
   82MOL0     H10762   0.138   9.310  10.905 -1.9053 -0.3852  1.7730
   82MOL0     H10763   0.225   9.040  11.036 -0.9769  0.3586  0.1811
   82MOL0     H10764   0.196   9.075  10.861 -3.5729 -3.1426  0.2732
   82MOL0     H10765  -0.030   9.138  10.906 -2.6021  3.6673  3.9726
   82MOL0     H10766   0.002   9.152  11.076 -1.5639  0.0479 -1.1017
   82MOL0     H10767  -0.064   8.914  10.910  0.6944 -1.3446  0.1954
   82MOL0     H10768   0.063   8.898  11.051  0.1111  2.3775  3.4117
   82MOL0     H10769  -0.180   8.839  11.099 -0.4016 -0.5925  2.4018
   82MOL0     H10770  -0.212   9.015  11.080  0.5389  1.8098  1.2553
   82MOL0     H10771  -0.048   9.060  11.262  1.0025 -1.2599  0.8082
   82MOL0     H10772  -0.008   8.889  11.255 -2.5628 -2.3931 -0.4389
   82MOL0     H10773  -0.284   9.022  11.328  0.3824  0.1695  1.3731
   82MOL0     H10774  -0.244   8.850  11.321 -0.5722  0.0256 -1.5378
   82MOL0     H10775  -0.107   9.054  11.523  1.2061 -1.6163  2.3603
   82MOL0     H10776  -0.081   8.886  11.509  0.0025  0.7378 -0.1867
   82MOL0     H10777  -0.347   9.132  11.605  3.2707 -0.0836 -0.5795
   82MOL0     H10778  -0.439   9.157  11.847 -0.0576  1.0159 -0.3967
   82MOL0     H10779  -0.500   9.007  11.931 -0.7453 -0.2561 -1.3755
   82MOL0     H10780  -0.666   9.018  11.715  0.4342 -1.4373  0.0477
   82MOL0     H10781  -0.619   9.188  11.735  3.2536  1.0895  2.9796
   82MOL0     H10782  -0.766   9.013  11.950 -1.0878  0.8945  1.7340
   82MOL0     H10783  -0.707   9.166  11.983  1.5951 -1.6990  0.7897
   82MOL0     H10784  -0.900   9.151  11.744 -3.2103 -0.2978  1.4362
   82MOL0     H10785  -0.859   9.277  11.858  0.2474 -0.2761  1.3310
   82MOL0     H10786  -1.146   9.022  11.769  0.7084 -0.2822  0.4078
   82MOL0     H10787  -1.219   8.782  11.798 -2.5678 -0.8493  0.8193
   82MOL0     H10788  -1.041   8.428  12.264  0.1786  0.2964  0.3068
   82MOL0     H10789  -1.121   8.198  12.376 -1.5247 -3.0332 -1.1982
   82MOL0     H10790  -1.206   8.010  12.444 -1.9091  0.1626  1.1266
   82MOL0     H10791  -1.147   7.941  12.284  0.7235  0.7714  0.2568
   82MOL0     H10792  -1.373   7.822  12.265  3.3870  2.6715 -2.2180
   82MOL0     H10793  -1.401   7.849  12.430 -0.9284 -1.0275 -0.9812
   82MOL0     H10794  -1.199   7.668  12.285 -1.9053 -3.7864  0.0371
   82MOL0     H10795  -1.297   7.617  12.416 -3.1960  1.8349 -1.0440
   82MOL0     H10796  -1.051   7.645  12.474  0.4244 -0.9049  1.2434
   82MOL0     H10797  -1.062   7.827  12.463  1.3902 -0.2146  3.1320
   82MOL0     H10798  -1.179   7.621  12.643 -1.6500 -0.0741 -0.8371
   82MOL0     H10799  -1.260   7.769  12.631 -0.3284 -1.9805  1.9332
   82MOL0     H10800  -1.039   7.891  12.680  2.6574  1.9800  3.3462
   82MOL0     H10801  -0.968   7.730  12.701 -1.3190 -0.6225 -2.1441
   82MOL0     H10802  -1.211   7.851  12.855 -1.8987 -2.1873 -0.6177
   82MOL0     H10803  -1.130   7.703  12.900 -2.5258  1.2290  1.7599
   82MOL0     H10804  -0.977   7.965  12.900  2.3541 -1.8400 -2.9029
   82MOL0     H10805  -0.936   7.808  12.970 -0.5109 -1.3534 -1.7131
   82MOL0     H10806  -1.435   8.192  12.078 -1.4323  0.8044 -0.3352
   82MOL0     H10807  -1.372   8.406  12.001  0.3724 -1.5108 -0.7490
   82MOL0     H10808  -1.074   8.791  12.197 -2.8863  0.4327 -0.0487
   82MOL0     H10809  -0.994   9.013  12.167  2.2356 -2.7658  2.4279
   82MOL0     H10810   0.466   9.149  11.034  0.0256 -1.2834  0.3916
   82MOL0     H10811   0.680   9.144  11.161  1.0737 -0.1791  1.3442
   82MOL0     H10812   0.987   9.164  11.447  0.0231  0.1037 -0.0705
   82MOL0     H10813   1.159   9.183  11.628 -3.1117 -1.8060 -0.8672
   82MOL0     H10814   1.291   9.490  11.941 -0.1707 -2.2361  0.2586
   82MOL0     H10815   1.201   9.575  11.826  1.6651  1.2787 -0.7130
   82MOL0     H10816   1.402   9.516  11.665 -5.9721 -3.4105  0.1375
   82MOL0     H10817   1.436   9.629  11.787 -0.0059 -0.0178 -0.7866
   82MOL0     H10818   1.486   9.337  11.772 -0.0369  0.0252  0.5915
   82MOL0     H10819   1.503   9.409  11.931 -0.1446 -2.5510  0.1924
   82MOL0     H10820   1.678   9.550  11.875  2.1563  2.6682 -2.8686
   82MOL0     H10821   1.724   9.396  11.787 -0.4494 -0.9961 -2.1698
   82MOL0     H10822   1.715   9.684  11.477  1.0283 -0.1365 -1.4430
   82MOL0     H10823   1.097   9.600  11.650 -1.7132  0.1168  0.4874
   82MOL0     H10824   0.923   9.594  11.495  1.7889  2.0390  3.0888
   83MOL0     O10825   9.512   0.573   3.129 -0.3799 -0.2510 -0.2406
   83MOL0     C10826   9.550   0.659   3.216 -0.2706  0.3030  0.8499
   83MOL0     O10827   9.537   0.646   3.354  0.2385 -0.3821 -0.4939
   83MOL0     C10828   9.503   0.533   3.420  0.0071  0.0363 -0.1225
   83MOL0     C10829   9.543   0.533   3.552  0.7709  0.6576 -0.8898
   83MOL0     C10830   9.508   0.424   3.627  0.3239  1.0382 -0.3612
   83MOL0     C10831   9.421   0.323   3.585 -0.4216  0.9089  1.0443
   83MOL0     O10832   9.373   0.223   3.674  0.8237 -0.4448 -0.5945
   83MOL0     C10833   9.464   0.153   3.748 -0.4780  1.2263 -0.4968
   83MOL0     C10834   9.429   0.160   3.894 -0.3390 -0.5666 -0.6690
   83MOL0     C10835   9.304   0.084   3.939  0.6060  0.0747 -0.2266
   83MOL0     C10836   9.297   0.055   4.084  0.3082 -0.4963  0.3546
   83MOL0     C10837   9.146   0.001   4.114 -0.2385 -0.6980 -0.7597
   83MOL0     C10838   9.077  -0.117   4.042  0.3413  0.2327 -0.8998
   83MOL0     C10839   9.173  -0.242   4.042 -1.1180  0.7874  0.9675
   83MOL0     C10840   9.191  -0.302   4.179  0.2082  0.1257  0.6916
   83MOL0     N10841   9.278  -0.419   4.187 -0.1459 -0.6709  0.6740
   83MOL0     C10842   9.403  -0.429   4.135 -0.0645  0.3296 -0.2093
   83MOL0     C10843   9.464  -0.531   4.215 -0.1315 -0.4301  0.5097
   83MOL0     C10844   9.594  -0.597   4.205 -1.0485  0.6186  0.6681
   83MOL0     C10845   9.591  -0.743   4.166 -0.0137 -0.3644 -0.5989
   83MOL0     C10846   9.530  -0.765   4.030  0.2545  0.0410 -0.0343
   83MOL0     C10847   9.580  -0.905   3.983 -0.4581 -0.3461  0.5236
   83MOL0     O10848   9.562  -0.994   4.092  0.1947  0.0658 -0.2955
   83MOL0     C10849   9.561  -1.128   4.060 -0.6129  0.4130  1.0723
   83MOL0     C10850   9.672  -1.212   4.078  0.3632 -0.5690  0.1367
   83MOL0     C10851   9.670  -1.345   4.042  0.0316  1.0140  0.5186
   83MOL0     C10852   9.551  -1.399   3.988 -0.6485 -0.2767 -0.7945
   83MOL0     C10853   9.555  -1.549   3.965  0.1438  0.5092  0.1840
   83MOL0     O10854   9.669  -1.615   4.013  0.1429  0.0823 -0.6944
   83MOL0     C10855   9.662  -1.747   4.030  0.8480 -0.2502  0.0654
   83MOL0     C10856   9.691  -1.828   3.919 -0.1653 -0.5747 -0.2870
   83MOL0     C10857   9.666  -1.961   3.934 -0.0091  0.1957  0.7171
   83MOL0     C10858   9.632  -2.027   4.056 -0.2918 -0.6036 -0.1081
   83MOL0     O10859   9.619  -2.165   4.083  0.0048  0.1035  0.1057
   83MOL0     C10860   9.707  -2.260   4.011 -0.0163 -1.0700 -0.3811
   83MOL0     C10861   9.749  -2.388   4.091 -0.2106  1.4703  0.5237
   83MOL0     C10862   9.867  -2.459   4.018 -0.3148  0.5069 -0.7393
   83MOL0     C10863   9.901  -2.598   4.073 -1.0757 -0.4615  1.2113
   83MOL0     C10864  10.032  -2.633   3.997  0.1799  0.2724  0.1704
   83MOL0     C10865  10.055  -2.784   4.006 -0.1193 -0.8281  0.0470
   83MOL0     C10866  10.198  -2.828   3.985  0.6858  0.3265 -0.0106
   83MOL0     C10867  10.195  -2.937   3.879  0.6375  0.3172 -0.0232
   83MOL0    Cl10868  10.164  -2.857   3.716  0.0306  0.0951  0.0719
   83MOL0     C10869   9.604  -1.939   4.156  0.8614  0.2734 -0.1984
   83MOL0     C10870   9.612  -1.801   4.146 -0.3415  0.2222  1.4727
   83MOL0     O10871   9.452  -1.607   3.937  0.5888 -0.1366 -0.3881
   83MOL0     C10872   9.441  -1.316   3.967 -0.0944  0.3152 -0.2591
   83MOL0     C10873   9.448  -1.182   4.000  0.2735 -0.9616  0.2868
   83MOL0     N10874   9.376  -0.558   4.316 -0.1101 -0.9860 -0.4769
   83MOL0     N10875   9.268  -0.506   4.292 -0.8885 -0.0786  0.2182
   83MOL0     C10876   9.385   0.319   3.456  0.7753  0.5955  0.2909
   83MOL0     C10877   9.424   0.422   3.369 -0.2029  0.1728  0.7197
   83MOL0     C10878   9.595   0.786   3.157  0.3182 -0.3703 -0.0731
   83MOL0     C10879   9.667   0.783   3.038  0.7927  0.0413  0.0433
   83MOL0     C10880   9.693   0.906   2.964 -0.2854 -0.6298  0.3400
   83MOL0     C10881   9.681   1.029   3.026  0.3493 -0.3997 -0.6207
   83MOL0     O10882   9.715   1.158   2.981  0.2701  0.5375  0.6344
   83MOL0     C10883   9.821   1.164   2.886 -0.7850 -0.1151 -0.1041
   83MOL0     C10884   9.883   1.305   2.892  0.1076  0.5886  1.9739
   83MOL0     C10885   9.999   1.348   2.802 -0.9786  0.6078  0.6235
   83MOL0     C10886  10.122   1.248   2.820  0.2189 -0.3413  0.1472
   83MOL0     C10887  10.187   1.254   2.951  0.4661 -0.8471 -0.5175
   83MOL0     C10888  10.227   1.244   3.065 -0.5592 -0.5638  0.6489
   83MOL0     C10889   9.615   1.028   3.154 -0.7627 -0.6275  0.3287
   83MOL0     C10890   9.568   0.914   3.213 -0.1740 -0.5484  0.0330
   83MOL0     H10891   9.609   0.610   3.589 -1.0937  1.4793  0.9358
   83MOL0     H10892   9.534   0.425   3.732  1.5231  1.7587 -0.6523
   83MOL0     H10893   9.568   0.188   3.745  1.6211 -4.0507 -0.1969
   83MOL0     H10894   9.465   0.046   3.725  0.8939  0.0835  3.8073
   83MOL0     H10895   9.416   0.266   3.915 -3.1444 -1.2472  1.7612
   83MOL0     H10896   9.506   0.119   3.960 -2.0320 -1.5401  0.8115
   83MOL0     H10897   9.310  -0.015   3.893 -0.5002  0.4463 -1.2474
   83MOL0     H10898   9.216   0.132   3.894 -0.6224 -1.0977  0.8193
   83MOL0     H10899   9.373  -0.022   4.102 -0.1620 -0.9255  0.5383
   83MOL0     H10900   9.330   0.142   4.141  2.2237 -1.2891  0.5336
   83MOL0     H10901   9.069   0.078   4.104 -0.0684 -0.7112 -2.3863
   83MOL0     H10902   9.140  -0.014   4.222 -2.8834 -0.0744 -0.7618
   83MOL0     H10903   9.051  -0.092   3.939 -1.7396 -0.1641 -0.5169
   83MOL0     H10904   8.984  -0.140   4.095  0.7038 -1.9241 -1.0920
   83MOL0     H10905   9.131  -0.319   3.977  0.4256 -1.3023  2.3310
   83MOL0     H10906   9.261  -0.212   3.985 -3.5481  2.5716 -2.1946
   83MOL0     H10907   9.099  -0.334   4.228  0.6952  1.5374  2.6680
   83MOL0     H10908   9.232  -0.220   4.238 -0.8947  1.1818  0.0510
   83MOL0     H10909   9.436  -0.377   4.046  2.1154 -1.1746 -0.3655
   83MOL0     H10910   9.642  -0.589   4.303 -1.5148  0.7307  0.8873
   83MOL0     H10911   9.668  -0.552   4.139 -0.8843 -0.1475  0.3186
   83MOL0     H10912   9.524  -0.784   4.242 -1.0136  1.9273 -0.1536
   83MOL0     H10913   9.696  -0.770   4.178 -0.1514  0.0581  2.5034
   83MOL0     H10914   9.421  -0.758   4.034 -0.0542 -2.7424  4.4913
   83MOL0     H10915   9.559  -0.687   3.960  3.4090  0.2119  1.2940
   83MOL0     H10916   9.683  -0.902   3.948 -0.6108 -0.2780  0.0787
   83MOL0     H10917   9.522  -0.937   3.896 -0.4758  1.7523 -0.3025
   83MOL0     H10918   9.756  -1.162   4.126 -0.0148  0.5310 -0.3092
   83MOL0     H10919   9.755  -1.411   4.054 -1.0813 -0.8238 -1.0648
   83MOL0     H10920   9.740  -1.790   3.830  2.0726 -2.8645 -0.1539
   83MOL0     H10921   9.670  -2.024   3.846  0.0422  0.3934  0.5791
   83MOL0     H10922   9.796  -2.203   3.981  0.2247 -0.3084  1.6475
   83MOL0     H10923   9.657  -2.285   3.917  0.4394  0.6534 -1.1239
   83MOL0     H10924   9.659  -2.451   4.083  0.1237  1.2561 -2.8650
   83MOL0     H10925   9.770  -2.372   4.197 -0.4153 -0.1638  0.8384
   83MOL0     H10926   9.949  -2.388   4.027  1.5088 -1.7007  1.0160
   83MOL0     H10927   9.839  -2.463   3.912 -2.4358 -0.7983 -0.1876
   83MOL0     H10928   9.909  -2.600   4.182 -0.9091  0.3174  1.2243
   83MOL0     H10929   9.823  -2.666   4.039 -0.7928  0.3834 -1.4181
   83MOL0     H10930  10.108  -2.574   4.051 -0.3736  0.1598  1.1017
   83MOL0     H10931  10.039  -2.610   3.891  0.5145  0.6469  0.2676
   83MOL0     H10932   9.985  -2.817   3.929 -0.7146 -3.0469  1.4425
   83MOL0     H10933  10.025  -2.818   4.106  2.5474  0.5928  1.4573
   83MOL0     H10934  10.263  -2.741   3.969  2.0799 -0.4446  1.2326
   83MOL0     H10935  10.236  -2.877   4.075  0.9146  0.3222 -0.1078
   83MOL0     H10936  10.125  -3.013   3.913  0.0772  0.3389 -1.0644
   83MOL0     H10937  10.297  -2.978   3.878  2.6596  4.7955 -0.9400
   83MOL0     H10938   9.566  -1.991   4.244 -0.4125 -1.4690 -1.6773
   83MOL0     H10939   9.570  -1.734   4.220 -0.9440  0.0201  1.3147
   83MOL0     H10940   9.355  -1.367   3.924  1.8326 -2.1698 -1.4585
   83MOL0     H10941   9.354  -1.129   3.986 -0.0062 -1.3116  0.7989
   83MOL0     H10942   9.321   0.238   3.424  1.2796 -0.7743  2.5919
   83MOL0     H10943   9.392   0.415   3.265  1.2549  1.2889  0.1641
   83MOL0     H10944   9.717   0.690   3.014  2.2162  1.2615 -1.9508
   83MOL0     H10945   9.743   0.894   2.869 -4.6852 -1.4345 -2.1703
   83MOL0     H10946   9.788   1.142   2.784 -1.8391  0.6446  0.0559
   83MOL0     H10947   9.897   1.088   2.908  1.0692  0.8053 -2.7581
   83MOL0     H10948   9.792   1.363   2.871  0.3331  0.5263  0.7713
   83MOL0     H10949   9.902   1.334   2.996 -0.1193 -0.3843  2.3001
   83MOL0     H10950  10.033   1.450   2.822 -2.3224  1.3890 -0.8362
   83MOL0     H10951   9.967   1.333   2.699 -0.4182 -4.4125  0.9389
   83MOL0     H10952  10.090   1.147   2.791  0.2318 -0.9328  2.0635
   83MOL0     H10953  10.188   1.284   2.741 -1.9841 -0.1452 -1.7071
   83MOL0     H10954  10.267   1.259   3.163  1.5764  0.2266 -0.2863
   83MOL0     H10955   9.612   1.129   3.193 -0.2191  0.7676 -2.9015
   83MOL0     H10956   9.509   0.920   3.304 -0.4029 -0.3978 -0.1236
   84MOL0     O10957   4.130   6.867   7.147 -0.4780 -0.1382 -0.7275
   84MOL0     C10958   4.118   6.840   7.028 -0.3855 -0.2769 -0.3645
   84MOL0     O10959   4.184   6.898   6.935  0.5407  0.3312 -0.2205
   84MOL0     C10960   4.276   6.995   6.968 -0.3409  0.3633  1.0106
   84MOL0     C10961   4.230   7.122   6.999  0.3722 -0.5012  1.8754
   84MOL0     C10962   4.324   7.223   7.036  1.1616 -0.1474  0.1322
   84MOL0     C10963   4.452   7.188   7.046  0.3896  0.0920 -0.7180
   84MOL0     O10964   4.544   7.280   7.094  0.5349  0.0515 -0.4293
   84MOL0     C10965   4.579   7.396   7.020 -0.3915  0.2334 -1.0267
   84MOL0     C10966   4.720   7.358   6.970 -0.4054 -0.3647 -0.7423
   84MOL0     C10967   4.765   7.465   6.875 -1.5437 -0.2954  0.2322
   84MOL0     C10968   4.907   7.416   6.828  0.0025 -0.0589  0.0820
   84MOL0     C10969   5.000   7.529   6.800  0.4105  0.4844  0.5417
   84MOL0     C10970   4.964   7.614   6.675 -0.3916  0.8026 -1.0458
   84MOL0     C10971   4.941   7.543   6.543 -1.1942  0.7572  0.7920
   84MOL0     C10972   5.064   7.476   6.474 -0.0837 -0.3929 -0.8169
   84MOL0     N10973   5.026   7.400   6.352 -0.3700  1.5501  0.3988
   84MOL0     C10974   5.085   7.394   6.221 -0.1266 -0.3024 -0.3493
   84MOL0     C10975   5.001   7.325   6.146  0.9918 -0.1506 -0.2357
   84MOL0     C10976   5.019   7.289   5.998  0.8409 -0.3361 -0.7223
   84MOL0     C10977   5.165   7.267   5.961 -0.2462  0.3373 -0.3612
   84MOL0     C10978   5.167   7.232   5.809  0.3129 -0.2278 -1.2971
   84MOL0     C10979   5.102   7.101   5.770 -0.0148  0.5283  0.6136
   84MOL0     O10980   5.128   6.995   5.869  0.4699  0.4386  0.7603
   84MOL0     C10981   5.049   6.885   5.868 -0.6924 -0.4822 -0.4380
   84MOL0     C10982   5.085   6.790   5.963  0.2320  0.4478 -0.6443
   84MOL0     C10983   5.036   6.661   5.956  0.7453  0.3451 -0.5589
   84MOL0     C10984   4.921   6.642   5.883 -0.4327  0.5722  0.3748
   84MOL0     C10985   4.842   6.518   5.910 -0.0781  0.0562  0.8641
   84MOL0     O10986   4.764   6.475   5.807 -0.1462 -0.3892  0.2326
   84MOL0     C10987   4.702   6.357   5.819 -0.5576  0.0049  0.0382
   84MOL0     C10988   4.751   6.230   5.797 -0.5369  0.1685  0.9663
   84MOL0     C10989   4.681   6.116   5.828 -0.9982  0.2275 -0.2021
   84MOL0     C10990   4.557   6.124   5.897 -0.7447 -0.0124  0.5101
   84MOL0     O10991   4.500   6.018   5.961 -0.7474 -0.6680  0.0488
   84MOL0     C10992   4.522   6.015   6.107 -0.5471 -0.2617  0.7478
   84MOL0     C10993   4.428   5.911   6.165  0.6163 -0.3976  0.0573
   84MOL0     C10994   4.282   5.977   6.174  0.5377  0.4072  0.5510
   84MOL0     C10995   4.261   6.063   6.293  0.5603  0.3560 -0.5304
   84MOL0     C10996   4.106   6.065   6.330 -0.3985  0.1373 -0.3572
   84MOL0     C10997   4.099   6.131   6.469 -0.0702 -0.9387 -0.7955
   84MOL0     C10998   4.116   6.286   6.449 -0.1732 -1.4138 -0.4271
   84MOL0     C10999   4.125   6.356   6.577  0.3632 -0.7838  0.6816
   84MOL0    Cl11000   4.293   6.328   6.635 -0.4508  0.0330  0.3760
   84MOL0     C11001   4.496   6.251   5.928  0.4267 -0.1559  0.6084
   84MOL0     C11002   4.578   6.357   5.895  0.1047 -0.8514  0.1982
   84MOL0     O11003   4.854   6.464   6.016 -0.9099  0.9140  0.7197
   84MOL0     C11004   4.860   6.739   5.805  0.4415 -0.2549 -0.1553
   84MOL0     C11005   4.937   6.856   5.780 -0.3193  0.6730 -0.2414
   84MOL0     N11006   4.894   7.283   6.223 -0.5298  0.7971 -0.2992
   84MOL0     N11007   4.917   7.318   6.346  0.0340 -0.7453 -0.0461
   84MOL0     C11008   4.506   7.065   7.018  0.2648 -1.2045 -0.1788
   84MOL0     C11009   4.417   6.969   6.972  0.2248 -0.3521  0.3021
   84MOL0     C11010   4.014   6.744   6.995 -1.0547 -0.1502 -0.0028
   84MOL0     C11011   4.004   6.681   6.867  0.4578 -1.0828 -0.2721
   84MOL0     C11012   3.918   6.585   6.823 -0.4927  0.8305 -0.3458
   84MOL0     C11013   3.809   6.565   6.905  0.0356 -0.3888 -1.1798
   84MOL0     O11014   3.701   6.483   6.872  0.4898 -0.3017  1.2644
   84MOL0     C11015   3.578   6.543   6.861 -0.0904  0.5139 -0.2176
   84MOL0     C11016   3.489   6.482   6.754  0.2249  0.1430  0.0285
   84MOL0     C11017   3.421   6.357   6.808 -0.2371 -0.2681  0.3852
   84MOL0     C11018   3.330   6.300   6.693 -0.8504 -1.1740 -0.8534
   84MOL0     C11019   3.222   6.388   6.650  0.0374 -0.7787  0.6082
   84MOL0     C11020   3.129   6.460   6.613 -0.7956 -0.9991  0.5188
   84MOL0     C11021   3.813   6.612   7.032  0.1349  0.2891 -0.2287
   84MOL0     C11022   3.920   6.696   7.086  0.4914 -0.6638 -0.4258
   84MOL0     H11023   4.124   7.145   6.992  0.4454 -0.3279  1.2728
   84MOL0     H11024   4.279   7.320   7.055 -0.0917  0.2893 -4.1724
   84MOL0     H11025   4.597   7.476   7.092  0.9786  0.5001 -1.6401
   84MOL0     H11026   4.509   7.418   6.938  0.1440  0.2906 -1.4734
   84MOL0     H11027   4.711   7.264   6.914  0.0494 -0.4869 -0.6189
   84MOL0     H11028   4.782   7.331   7.056 -5.7266 -3.0096  2.7793
   84MOL0     H11029   4.763   7.561   6.928 -1.6619 -0.3568  0.3388
   84MOL0     H11030   4.701   7.460   6.786  0.9833  1.8352 -1.8748
   84MOL0     H11031   4.960   7.349   6.896  3.5108  2.5432  0.2048
   84MOL0     H11032   4.892   7.358   6.737 -0.5445 -0.4699  0.4219
   84MOL0     H11033   5.095   7.482   6.775 -2.0176 -3.3789 -2.4447
   84MOL0     H11034   5.004   7.593   6.889 -2.6994 -0.4364  1.4714
   84MOL0     H11035   5.041   7.691   6.658  1.2035 -0.5638 -0.2941
   84MOL0     H11036   4.875   7.667   6.710 -0.0439 -1.3775  3.9333
   84MOL0     H11037   4.855   7.476   6.549  0.2883 -1.4283 -1.0562
   84MOL0     H11038   4.909   7.623   6.476  1.5647  2.8505  1.7649
   84MOL0     H11039   5.121   7.415   6.544 -0.0508 -0.7895 -1.1859
   84MOL0     H11040   5.146   7.542   6.445 -0.4460 -0.7298 -2.7529
   84MOL0     H11041   5.181   7.437   6.195 -2.0675  4.4643 -0.6037
   84MOL0     H11042   4.973   7.373   5.946  3.1902  0.7201 -1.2287
   84MOL0     H11043   4.955   7.202   5.977  0.3967  0.1007 -1.1823
   84MOL0     H11044   5.216   7.193   6.024  1.4075  0.4390 -1.5139
   84MOL0     H11045   5.227   7.355   5.984  0.8425 -0.8954  1.7427
   84MOL0     H11046   5.118   7.316   5.759 -0.0173  2.0218  2.4832
   84MOL0     H11047   5.269   7.233   5.769  1.5555 -2.6596  1.4281
   84MOL0     H11048   5.138   7.063   5.674 -1.9683  2.0358 -0.7844
   84MOL0     H11049   4.996   7.119   5.750  0.2415 -0.8847 -2.6590
   84MOL0     H11050   5.162   6.823   6.033  1.8211 -5.2948  0.8569
   84MOL0     H11051   5.072   6.590   6.030 -3.1508 -0.0134  1.2217
   84MOL0     H11052   4.850   6.214   5.756  0.3089 -1.3550  3.3180
   84MOL0     H11053   4.720   6.015   5.814  0.9337  0.4547  2.5539
   84MOL0     H11054   4.515   6.113   6.156 -2.9355  0.3549 -0.6304
   84MOL0     H11055   4.625   5.979   6.113 -0.2856  0.1634 -0.8337
   84MOL0     H11056   4.466   5.862   6.255  2.3417  2.8162  1.2449
   84MOL0     H11057   4.411   5.826   6.098 -1.1478 -1.4968  1.7860
   84MOL0     H11058   4.208   5.897   6.185 -0.1550  1.3932  4.2855
   84MOL0     H11059   4.251   6.025   6.080 -1.4790 -0.8810  0.5069
   84MOL0     H11060   4.325   6.036   6.377  1.3112 -1.9148 -1.7475
   84MOL0     H11061   4.297   6.162   6.265 -1.2220  1.6017  1.3326
   84MOL0     H11062   4.066   5.964   6.345  3.9061 -1.6790  0.3439
   84MOL0     H11063   4.064   6.116   6.242  0.7862 -2.1016 -2.3349
   84MOL0     H11064   4.168   6.090   6.543 -0.1883 -2.9742 -1.7170
   84MOL0     H11065   4.000   6.108   6.510 -0.9540  0.9835 -1.7255
   84MOL0     H11066   4.207   6.307   6.393  2.3840 -1.1010  3.4296
   84MOL0     H11067   4.026   6.318   6.395  0.4323  3.9764  1.1740
   84MOL0     H11068   4.062   6.306   6.650  0.0500  0.5786  1.3866
   84MOL0     H11069   4.099   6.463   6.572 -0.7304 -0.8197  3.8955
   84MOL0     H11070   4.399   6.258   5.976 -0.2388 -0.0921 -0.6970
   84MOL0     H11071   4.537   6.453   5.927 -0.8897 -0.4082 -2.1797
   84MOL0     H11072   4.771   6.716   5.748  1.2941 -3.8384 -0.2665
   84MOL0     H11073   4.899   6.933   5.713  0.9315  0.8526 -0.7691
   84MOL0     H11074   4.610   7.033   7.023  1.4108  1.6351 -2.8309
   84MOL0     H11075   4.445   6.869   6.941  0.7627  0.4327 -2.0119
   84MOL0     H11076   4.077   6.721   6.797  0.5854 -2.1088 -0.7475
   84MOL0     H11077   3.918   6.541   6.724 -0.1044  1.0420 -0.4414
   84MOL0     H11078   3.601   6.644   6.828 -1.1955  0.3200 -1.6549
   84MOL0     H11079   3.519   6.530   6.953 -1.4809  0.0877 -1.1369
   84MOL0     H11080   3.419   6.566   6.746 -0.1313 -0.0611  0.9076
   84MOL0     H11081   3.536   6.475   6.656  1.7801 -0.6653  0.8008
   84MOL0     H11082   3.372   6.381   6.903 -1.8351  2.5479 -1.0357
   84MOL0     H11083   3.487   6.273   6.835 -2.8771 -3.1046 -1.3723
   84MOL0     H11084   3.401   6.266   6.618  1.7534  2.2282 -0.1709
   84MOL0     H11085   3.283   6.211   6.736  1.5131 -2.5095 -0.9170
   84MOL0     H11086   3.052   6.534   6.603 -0.8966 -0.9111  1.8285
   84MOL0     H11087   3.720   6.590   7.084  0.1694 -4.5366 -1.6945
   84MOL0     H11088   3.908   6.743   7.183  0.0888  0.2786 -0.9084
   85MOL0     O11089   6.676   6.113   2.629  0.0087  1.5014 -0.0005
   85MOL0     C11090   6.720   6.190   2.548 -0.9060  0.6825  1.0326
   85MOL0     O11091   6.844   6.229   2.540  0.2783  0.0191  0.1340
   85MOL0     C11092   6.941   6.163   2.614  0.5901  0.6534  0.2211
   85MOL0     C11093   7.050   6.245   2.648 -0.3670 -0.1785 -0.2846
   85MOL0     C11094   7.168   6.194   2.699 -1.0978 -0.1309  0.1271
   85MOL0     C11095   7.188   6.056   2.714 -0.0511  0.6223  0.0449
   85MOL0     O11096   7.311   6.008   2.762  0.6512 -0.5560  0.3827
   85MOL0     C11097   7.329   5.879   2.829  0.4685  0.5373 -0.7865
   85MOL0     C11098   7.475   5.840   2.806 -1.3956  0.3719  0.4105
   85MOL0     C11099   7.503   5.802   2.652  0.2602 -0.7766 -0.9299
   85MOL0     C11100   7.652   5.758   2.627  0.4381  0.4320 -0.2911
   85MOL0     C11101   7.767   5.844   2.688  0.3008  0.3017  0.0622
   85MOL0     C11102   7.897   5.793   2.624 -0.8898  0.8952 -0.1271
   85MOL0     C11103   8.019   5.869   2.672 -0.7111 -0.4475 -0.0897
   85MOL0     C11104   8.151   5.807   2.612 -0.4039 -0.7612 -1.4792
   85MOL0     N11105   8.136   5.818   2.473 -0.2750  0.5669 -0.2289
   85MOL0     C11106   8.143   5.718   2.382  0.8359  0.0313 -0.4990
   85MOL0     C11107   8.189   5.773   2.267  0.1879  0.1323 -0.3822
   85MOL0     C11108   8.228   5.706   2.134  1.0466  0.0208 -0.7060
   85MOL0     C11109   8.107   5.648   2.064 -0.1583 -0.1934  0.3261
   85MOL0     C11110   8.143   5.554   1.945 -0.2453 -0.2081  0.6499
   85MOL0     C11111   8.011   5.541   1.866 -0.5773  0.3536 -0.0941
   85MOL0     O11112   8.007   5.440   1.767 -0.2781 -0.2205  0.0368
   85MOL0     C11113   8.087   5.470   1.657 -0.3955 -1.2541 -0.3096
   85MOL0     C11114   8.211   5.410   1.660  0.1396  0.0014  0.2565
   85MOL0     C11115   8.315   5.450   1.576  0.2300  0.2501  0.1227
   85MOL0     C11116   8.284   5.548   1.485 -0.2708 -0.0165  0.0831
   85MOL0     C11117   8.386   5.576   1.375  0.1975  0.2719 -0.6849
   85MOL0     O11118   8.509   5.535   1.399 -0.6004  0.4762 -0.2481
   85MOL0     C11119   8.604   5.578   1.313  0.1273  0.1176  0.1407
   85MOL0     C11120   8.633   5.714   1.281 -0.7372  0.1796 -0.2484
   85MOL0     C11121   8.726   5.751   1.184 -0.0718  0.8784 -0.8616
   85MOL0     C11122   8.801   5.644   1.123  0.1939 -0.7034  0.0914
   85MOL0     O11123   8.913   5.682   1.036  0.4843 -0.4843  0.0079
   85MOL0     C11124   9.008   5.588   1.014 -0.2389 -0.3229  0.1185
   85MOL0     C11125   9.152   5.656   0.990  0.6801  1.2889  0.0399
   85MOL0     C11126   9.219   5.718   1.112 -0.4349 -0.7680  0.5170
   85MOL0     C11127   9.356   5.787   1.087 -0.0446 -1.0309 -0.1272
   85MOL0     C11128   9.446   5.764   1.208 -0.1049  0.4070 -0.7248
   85MOL0     C11129   9.531   5.640   1.218 -0.8674 -0.2164  0.1704
   85MOL0     C11130   9.574   5.620   1.360 -0.7464  0.5706  0.3393
   85MOL0     C11131   9.656   5.491   1.379  0.3877  0.0176 -0.1827
   85MOL0    Cl11132   9.527   5.352   1.353 -0.5172  0.4354 -0.0382
   85MOL0     C11133   8.772   5.513   1.147  0.7687  0.3897 -0.7652
   85MOL0     C11134   8.674   5.481   1.244 -0.7506 -0.2770 -0.2076
   85MOL0     O11135   8.347   5.627   1.270  0.2873 -0.1401 -0.4806
   85MOL0     C11136   8.158   5.609   1.475 -1.9300  0.2101  0.8129
   85MOL0     C11137   8.063   5.567   1.571  0.4263  0.2240  0.7886
   85MOL0     N11138   8.209   5.905   2.301  0.4667  0.1470 -0.0637
   85MOL0     N11139   8.167   5.936   2.415  0.2971  0.2808 -0.1942
   85MOL0     C11140   7.073   5.970   2.679 -0.0386  0.7313  0.5157
   85MOL0     C11141   6.953   6.019   2.621 -0.0796 -0.7626  0.3748
   85MOL0     C11142   6.625   6.228   2.436 -0.5050 -0.8765 -1.0967
   85MOL0     C11143   6.489   6.210   2.449  0.2032 -1.0694 -1.1947
   85MOL0     C11144   6.393   6.238   2.347 -0.0889  0.1789  0.2431
   85MOL0     C11145   6.438   6.291   2.227 -0.0129  0.6334 -0.4603
   85MOL0     O11146   6.348   6.322   2.133 -0.0764  0.4173 -0.4783
   85MOL0     C11147   6.210   6.344   2.167 -0.4276 -0.7121  0.9187
   85MOL0     C11148   6.129   6.386   2.033 -0.9062 -0.2308  0.5558
   85MOL0     C11149   6.209   6.491   1.950 -0.2764  0.1085  0.0712
   85MOL0     C11150   6.140   6.528   1.815 -0.2809 -0.5733 -0.0972
   85MOL0     C11151   6.044   6.638   1.829 -0.8812 -0.2792 -0.0370
   85MOL0     C11152   5.964   6.730   1.852 -0.3239  0.5318 -0.0304
   85MOL0     C11153   6.574   6.329   2.216 -0.1453  0.5447 -0.4220
   85MOL0     C11154   6.672   6.291   2.312  0.9272 -0.1376 -0.6220
   85MOL0     H11155   7.047   6.351   2.625  1.2710  0.1943  0.9984
   85MOL0     H11156   7.259   6.253   2.710  0.2544 -1.1118 -4.0701
   85MOL0     H11157   7.258   5.806   2.791 -1.2221  0.3255  2.4475
   85MOL0     H11158   7.300   5.881   2.935 -1.1944  0.2682 -1.2155
   85MOL0     H11159   7.505   5.753   2.866  2.6773  0.9386 -0.4745
   85MOL0     H11160   7.549   5.914   2.837 -0.2173 -0.8242  0.5489
   85MOL0     H11161   7.483   5.887   2.586  1.2563 -0.4991 -0.8799
   85MOL0     H11162   7.444   5.727   2.599 -0.5753 -0.4211 -0.5239
   85MOL0     H11163   7.658   5.659   2.675  3.0626  2.5638  4.4433
   85MOL0     H11164   7.670   5.737   2.522  3.1625 -0.9506  0.3606
   85MOL0     H11165   7.771   5.833   2.797  0.8043  0.1331  0.0290
   85MOL0     H11166   7.744   5.948   2.661  0.1192  0.9270  2.4099
   85MOL0     H11167   7.876   5.800   2.517 -0.4468  0.3007 -0.2564
   85MOL0     H11168   7.924   5.691   2.654  2.6864  2.9423  5.0559
   85MOL0     H11169   8.018   5.977   2.657  1.4840 -0.2054  1.2080
   85MOL0     H11170   8.038   5.856   2.779  0.3323  2.4991  0.1647
   85MOL0     H11171   8.160   5.704   2.648  3.6101 -0.0579  0.1288
   85MOL0     H11172   8.224   5.877   2.654 -2.9346 -0.9734  4.1020
   85MOL0     H11173   8.134   5.611   2.400 -0.1930  0.0603 -0.7771
   85MOL0     H11174   8.299   5.625   2.154  1.0073  0.5910  2.2412
   85MOL0     H11175   8.280   5.789   2.084 -1.0486  1.3688 -0.7754
   85MOL0     H11176   8.048   5.736   2.034 -3.6000 -2.0132  1.1967
   85MOL0     H11177   8.035   5.586   2.118 -1.6559  1.1300 -0.0866
   85MOL0     H11178   8.220   5.598   1.882 -2.0214  1.4410 -0.4675
   85MOL0     H11179   8.174   5.453   1.976 -2.0706 -1.6050 -1.6833
   85MOL0     H11180   7.978   5.638   1.825 -1.0883 -0.2633 -1.1878
   85MOL0     H11181   7.933   5.515   1.938 -0.8930  2.3130  0.3538
   85MOL0     H11182   8.218   5.327   1.730  1.0916 -1.8439 -1.9164
   85MOL0     H11183   8.417   5.416   1.590  0.3373  0.1057 -0.9585
   85MOL0     H11184   8.578   5.792   1.333  0.2215 -0.8403  2.4676
   85MOL0     H11185   8.765   5.852   1.174  0.4633  0.6632 -0.9837
   85MOL0     H11186   8.993   5.528   0.924 -0.8811  0.9171 -0.6229
   85MOL0     H11187   9.013   5.516   1.097 -0.3365 -0.4383  0.0240
   85MOL0     H11188   9.125   5.749   0.937  0.0730  2.6570  2.5720
   85MOL0     H11189   9.213   5.586   0.932 -1.9375  0.4973 -1.9725
   85MOL0     H11190   9.237   5.649   1.195 -0.2760  0.7710  1.8200
   85MOL0     H11191   9.158   5.804   1.143  3.1624  2.1837  0.0630
   85MOL0     H11192   9.403   5.751   0.994  1.5269  0.6996 -0.0615
   85MOL0     H11193   9.339   5.892   1.063  0.5159 -0.9519 -0.1887
   85MOL0     H11194   9.384   5.773   1.298  0.2324  0.2036 -0.4699
   85MOL0     H11195   9.510   5.852   1.203 -0.6044  0.7839 -0.5805
   85MOL0     H11196   9.622   5.651   1.158 -1.3628  1.7044 -0.2947
   85MOL0     H11197   9.478   5.555   1.174  0.1354  1.1524 -4.2210
   85MOL0     H11198   9.640   5.706   1.380  1.1753 -0.2773 -1.8662
   85MOL0     H11199   9.492   5.618   1.432 -0.3747  0.7126  0.7744
   85MOL0     H11200   9.691   5.480   1.482 -1.1098 -4.5925  0.0600
   85MOL0     H11201   9.739   5.478   1.309  0.6395 -1.7220  0.3998
   85MOL0     H11202   8.825   5.428   1.107  0.3903  0.9173 -2.4712
   85MOL0     H11203   8.661   5.375   1.263  2.6082 -1.0791 -1.7395
   85MOL0     H11204   8.140   5.677   1.392  1.9656  0.7897  0.2625
   85MOL0     H11205   7.963   5.606   1.591 -0.9675 -1.8978 -1.4300
   85MOL0     H11206   7.088   5.863   2.683 -0.5544  0.6859  1.7094
   85MOL0     H11207   6.869   5.963   2.580 -1.3524  2.2193 -1.3276
   85MOL0     H11208   6.449   6.185   2.547  3.9976  2.8317  1.6613
   85MOL0     H11209   6.293   6.218   2.382  1.0527 -2.2439  2.4989
   85MOL0     H11210   6.199   6.421   2.243  0.3991  1.9189 -1.4800
   85MOL0     H11211   6.164   6.254   2.210 -0.6543 -0.9103  0.2775
   85MOL0     H11212   6.134   6.289   1.983  1.8453  1.1238 -2.0802
   85MOL0     H11213   6.026   6.419   2.049 -0.2297  1.4913  1.6289
   85MOL0     H11214   6.305   6.450   1.917 -0.2300 -0.7576  1.2128
   85MOL0     H11215   6.225   6.583   2.007 -1.5431  0.5371 -0.2315
   85MOL0     H11216   6.208   6.561   1.735 -2.5095 -0.8149 -2.2315
   85MOL0     H11217   6.087   6.448   1.762 -0.5746 -0.9140  0.7047
   85MOL0     H11218   5.891   6.799   1.890 -0.9669  0.0178 -0.3068
   85MOL0     H11219   6.606   6.377   2.125  0.3151 -3.2339 -2.4418
   85MOL0     H11220   6.776   6.320   2.295  0.1469  2.3754 -1.6229
   86MOL0     O11221   7.573   0.265   4.146 -0.4999  0.8114 -0.0840
   86MOL0     C11222   7.472   0.255   4.218 -0.6710 -1.1402 -0.2477
   86MOL0     O11223   7.364   0.350   4.219 -0.6253  0.7233  0.5412
   86MOL0     C11224   7.339   0.413   4.098  0.3466  0.3589  0.5664
   86MOL0     C11225   7.339   0.552   4.084 -0.4655  0.0212  0.3038
   86MOL0     C11226   7.329   0.607   3.954 -0.5030  0.3889  0.8200
   86MOL0     C11227   7.331   0.528   3.835  0.2566  0.1658  0.3377
   86MOL0     O11228   7.349   0.590   3.705  0.3105  0.0223 -0.4930
   86MOL0     C11229   7.334   0.729   3.689  0.2441 -1.4640  0.5584
   86MOL0     C11230   7.296   0.758   3.543 -0.3298  0.0789  0.3550
   86MOL0     C11231   7.267   0.914   3.537 -0.5101  0.1902 -0.3104
   86MOL0     C11232   7.241   0.974   3.396  0.5241  0.3398  0.2736
   86MOL0     C11233   7.108   0.905   3.338 -0.2738  0.4321 -0.2658
   86MOL0     C11234   7.067   0.943   3.201 -0.5809  0.5549 -0.0698
   86MOL0     C11235   7.027   1.091   3.180 -0.1171 -0.8895 -0.0323
   86MOL0     C11236   6.974   1.120   3.033  0.4157  0.7626 -0.0349
   86MOL0     N11237   7.079   1.131   2.927 -0.0947  0.1551 -0.3517
   86MOL0     C11238   7.105   1.038   2.833 -0.4825 -0.5574  0.8555
   86MOL0     C11239   7.206   1.097   2.760 -0.7189 -1.6038 -0.0193
   86MOL0     C11240   7.274   1.044   2.637  0.6401 -0.5900 -0.1609
   86MOL0     C11241   7.421   1.060   2.641 -0.4166 -0.7676  0.1976
   86MOL0     C11242   7.482   1.024   2.503  0.3572 -0.0016 -0.1060
   86MOL0     C11243   7.437   0.897   2.425  0.0972  0.6295 -0.2586
   86MOL0     O11244   7.384   0.798   2.523  0.8028 -0.3135  0.3269
   86MOL0     C11245   7.277   0.710   2.499 -0.3431  0.2329  0.5291
   86MOL0     C11246   7.238   0.674   2.368  0.1276  0.1833 -0.0056
   86MOL0     C11247   7.112   0.612   2.348  0.1354 -0.1206 -0.0033
   86MOL0     C11248   7.038   0.574   2.460 -0.5432  0.2586 -0.3282
   86MOL0     C11249   6.914   0.500   2.443  0.3295  0.5094 -1.1851
   86MOL0     O11250   6.811   0.534   2.514  0.0244  0.3438 -0.2772
   86MOL0     C11251   6.674   0.504   2.490  0.0302  0.2381 -0.4611
   86MOL0     C11252   6.609   0.431   2.386  0.4293 -0.5342  0.5143
   86MOL0     C11253   6.479   0.411   2.374  0.2407 -0.0478 -0.0124
   86MOL0     C11254   6.398   0.437   2.484  0.2551  0.5711 -0.1341
   86MOL0     O11255   6.262   0.415   2.485 -0.4319 -0.0007  0.3998
   86MOL0     C11256   6.227   0.293   2.428  0.5094 -0.7468  0.1735
   86MOL0     C11257   6.084   0.256   2.469 -0.1012  0.2604  0.4463
   86MOL0     C11258   6.090   0.200   2.616  0.8455  0.8230  0.0609
   86MOL0     C11259   5.956   0.148   2.680  0.0916 -0.7564 -0.1291
   86MOL0     C11260   5.960   0.099   2.825  0.5350 -0.5602  0.5977
   86MOL0     C11261   5.832   0.039   2.862  0.4785  0.9335  0.4776
   86MOL0     C11262   5.706   0.129   2.861  0.7591  0.8966 -0.1587
   86MOL0     C11263   5.579   0.072   2.931  0.3634 -0.2284 -0.6189
   86MOL0    Cl11264   5.455   0.181   2.872 -0.3289  0.0670 -0.4132
   86MOL0     C11265   6.449   0.502   2.599 -0.2180  0.6419 -0.2415
   86MOL0     C11266   6.588   0.524   2.603  0.4153  0.4312  0.6242
   86MOL0     O11267   6.907   0.438   2.336  0.1643  0.5055  0.1265
   86MOL0     C11268   7.086   0.597   2.590 -1.0134  0.4761  1.0851
   86MOL0     C11269   7.206   0.673   2.608 -1.0045  0.4608  0.2711
   86MOL0     N11270   7.251   1.219   2.823  0.6659 -0.2084  0.1780
   86MOL0     N11271   7.165   1.235   2.919 -0.1590  0.3756  0.0273
   86MOL0     C11272   7.322   0.388   3.855  1.3779  0.7022  0.5366
   86MOL0     C11273   7.316   0.338   3.980 -0.3948  0.5371  0.6211
   86MOL0     C11274   7.474   0.160   4.330  0.1125  0.6563 -0.8155
   86MOL0     C11275   7.369   0.161   4.430 -0.0620 -0.6864  1.3052
   86MOL0     C11276   7.362   0.074   4.535 -1.2190  0.1532  0.2227
   86MOL0     C11277   7.462  -0.029   4.543 -0.1549 -1.0032  0.3125
   86MOL0     O11278   7.452  -0.130   4.636  0.2748 -0.4600 -0.0616
   86MOL0     C11279   7.330  -0.210   4.636  1.1784 -0.3344 -0.8264
   86MOL0     C11280   7.372  -0.342   4.585 -0.2123  0.6274 -0.7362
   86MOL0     C11281   7.444  -0.432   4.694  0.2034 -0.4727  0.3019
   86MOL0     C11282   7.516  -0.541   4.621 -0.5686  0.0679  0.2691
   86MOL0     C11283   7.566  -0.647   4.704  0.0301  0.1394  0.7590
   86MOL0     C11284   7.598  -0.732   4.780 -0.1281  0.3323  0.1910
   86MOL0     C11285   7.561  -0.041   4.449 -0.0589 -0.0543  0.0451
   86MOL0     C11286   7.570   0.055   4.340 -0.0394  0.2659 -0.3644
   86MOL0     H11287   7.350   0.608   4.176 -2.4524  0.5802  0.2529
   86MOL0     H11288   7.346   0.714   3.951  3.9857 -0.1374  1.1056
   86MOL0     H11289   7.423   0.787   3.717  0.5978 -2.5638  1.8001
   86MOL0     H11290   7.252   0.754   3.757 -0.7568 -1.1994 -0.7193
   86MOL0     H11291   7.210   0.698   3.513  1.9412 -2.7118 -1.1163
   86MOL0     H11292   7.379   0.734   3.476 -1.6294 -2.7655 -0.3626
   86MOL0     H11293   7.364   0.955   3.565  0.7915 -2.4526 -0.5563
   86MOL0     H11294   7.183   0.926   3.606  1.1201 -0.9994  1.9960
   86MOL0     H11295   7.236   1.083   3.406  0.0233  0.4511 -1.0226
   86MOL0     H11296   7.327   0.946   3.335 -0.2955 -2.1468  0.1824
   86MOL0     H11297   7.034   0.935   3.413  0.0352  0.2538  0.1137
   86MOL0     H11298   7.121   0.797   3.325 -0.8715  0.5134 -1.8548
   86MOL0     H11299   6.988   0.876   3.165 -0.0375 -0.6881  0.9633
   86MOL0     H11300   7.156   0.922   3.141 -0.2336  2.9665 -0.4854
   86MOL0     H11301   6.963   1.124   3.262  1.3364  1.2054  0.3357
   86MOL0     H11302   7.119   1.149   3.192 -0.7815  0.2651 -0.2957
   86MOL0     H11303   6.921   1.215   3.032  3.2738  2.4753 -0.3958
   86MOL0     H11304   6.921   1.034   2.992  0.9177  0.9602 -1.1395
   86MOL0     H11305   7.044   0.952   2.806  1.7536 -1.2344 -2.8120
   86MOL0     H11306   7.237   1.092   2.546 -0.2731 -1.0507 -0.0446
   86MOL0     H11307   7.231   0.944   2.621  0.6914 -0.7829  0.8579
   86MOL0     H11308   7.457   0.996   2.723  2.4781  1.8243  1.1527
   86MOL0     H11309   7.444   1.166   2.652 -1.3096 -0.2630 -2.2035
   86MOL0     H11310   7.489   1.105   2.431  2.4073 -1.1828 -1.3261
   86MOL0     H11311   7.587   1.010   2.529  0.9438  0.8076 -1.8816
   86MOL0     H11312   7.524   0.847   2.380 -0.2800 -0.9906  0.7264
   86MOL0     H11313   7.362   0.916   2.347 -0.3011  1.7655  0.3850
   86MOL0     H11314   7.301   0.705   2.285  0.1269 -1.8619 -0.8168
   86MOL0     H11315   7.081   0.594   2.246 -4.2044  0.5856  0.9879
   86MOL0     H11316   6.667   0.392   2.303  2.3609 -0.0011  1.5541
   86MOL0     H11317   6.446   0.352   2.289  0.0496 -2.7250  1.8046
   86MOL0     H11318   6.286   0.211   2.470 -1.3814 -1.5932  1.3166
   86MOL0     H11319   6.237   0.304   2.320  3.2035 -0.3920  0.3926
   86MOL0     H11320   6.051   0.174   2.405  2.1280 -0.3258 -0.0523
   86MOL0     H11321   6.024   0.346   2.456  0.1641  0.4194  0.3070
   86MOL0     H11322   6.137   0.277   2.679 -0.4935  4.0321 -2.5673
   86MOL0     H11323   6.156   0.113   2.618 -0.3222 -0.0811  0.2257
   86MOL0     H11324   5.892   0.237   2.675  0.2401 -0.1858  4.1571
   86MOL0     H11325   5.922   0.070   2.611  2.5289  0.3678 -2.8108
   86MOL0     H11326   5.972   0.184   2.893 -1.5391 -2.0799  3.0876
   86MOL0     H11327   6.044   0.036   2.852  0.3693 -1.9671 -1.8798
   86MOL0     H11328   5.836  -0.030   2.947 -0.7070 -1.2697 -1.1337
   86MOL0     H11329   5.827  -0.035   2.782 -1.4188  3.1586 -1.6044
   86MOL0     H11330   5.737   0.220   2.914  0.4522  0.5779  0.5842
   86MOL0     H11331   5.668   0.158   2.763 -0.8130  0.0052  0.1438
   86MOL0     H11332   5.591   0.089   3.039  2.4198 -1.0922 -0.6606
   86MOL0     H11333   5.566  -0.033   2.904 -0.7087 -0.0752 -0.7352
   86MOL0     H11334   6.395   0.525   2.691  1.4647  2.6420  0.3299
   86MOL0     H11335   6.634   0.552   2.697 -0.3970 -1.4036  1.6044
   86MOL0     H11336   7.021   0.576   2.675 -1.7201  1.0547  0.6966
   86MOL0     H11337   7.245   0.719   2.698 -0.7662  3.7179 -1.3662
   86MOL0     H11338   7.321   0.322   3.768  2.3814  0.2935  0.8296
   86MOL0     H11339   7.330   0.231   3.991 -0.8642  0.5193  1.0832
   86MOL0     H11340   7.314   0.253   4.444  0.8041  0.2294 -0.7911
   86MOL0     H11341   7.291   0.086   4.616  0.1125  2.3172  1.1721
   86MOL0     H11342   7.257  -0.172   4.565  2.1573  1.9007 -0.7275
   86MOL0     H11343   7.272  -0.226   4.728  0.8767 -0.4176 -1.0297
   86MOL0     H11344   7.282  -0.390   4.545  0.1797  0.0527 -0.9401
   86MOL0     H11345   7.435  -0.323   4.498 -0.1755 -0.0770 -0.8699
   86MOL0     H11346   7.374  -0.472   4.767 -1.3050  2.0853  0.3748
   86MOL0     H11347   7.510  -0.359   4.742 -0.4887 -0.0681  0.6372
   86MOL0     H11348   7.443  -0.584   4.552  0.8716  0.9967 -1.9576
   86MOL0     H11349   7.603  -0.506   4.565 -2.5689  2.6827 -1.4576
   86MOL0     H11350   7.635  -0.813   4.840  1.5561 -1.8879 -3.4681
   86MOL0     H11351   7.623  -0.130   4.442  0.4942 -0.1102  3.8939
   86MOL0     H11352   7.653   0.062   4.271  0.2252 -2.0009 -0.3203
   87MOL0     O11353   6.366   8.892   3.285  0.2363  0.0639 -0.1965
   87MOL0     C11354   6.274   8.900   3.366 -0.5276 -0.9206 -0.6941
   87MOL0     O11355   6.208   8.800   3.418 -0.3703 -0.0942  0.5265
   87MOL0     C11356   6.259   8.673   3.409  0.2143 -0.9828  0.0780
   87MOL0     C11357   6.388   8.637   3.448 -0.3944  0.6827  0.5973
   87MOL0     C11358   6.435   8.509   3.418  0.2561  0.2519 -0.4090
   87MOL0     C11359   6.359   8.406   3.357 -0.6169  0.2215  0.1131
   87MOL0     O11360   6.408   8.283   3.338 -0.6444  0.1577  0.1366
   87MOL0     C11361   6.418   8.204   3.455 -0.0599 -0.6116 -0.1221
   87MOL0     C11362   6.422   8.056   3.429  0.7320  0.3585  0.1913
   87MOL0     C11363   6.539   7.998   3.356 -0.4762  0.5989 -0.1323
   87MOL0     C11364   6.523   7.853   3.310 -0.5036 -0.8223  0.0476
   87MOL0     C11365   6.647   7.796   3.253  0.0949 -0.1571 -0.3431
   87MOL0     C11366   6.752   7.785   3.361 -0.5569  0.5859 -0.5654
   87MOL0     C11367   6.873   7.703   3.315  0.1187 -0.2710 -0.1966
   87MOL0     C11368   6.986   7.711   3.425  0.0895 -0.9868  1.2419
   87MOL0     N11369   7.024   7.853   3.452  0.0658  0.9086 -0.6267
   87MOL0     C11370   7.121   7.935   3.384 -0.2126  0.6251 -0.5715
   87MOL0     C11371   7.141   8.040   3.465 -0.0486  1.4597  0.2422
   87MOL0     C11372   7.242   8.145   3.447 -0.2371 -0.1158 -0.2836
   87MOL0     C11373   7.173   8.258   3.387  0.0605 -0.8845  0.6201
   87MOL0     C11374   7.248   8.391   3.394 -0.0849  0.8729  0.6801
   87MOL0     C11375   7.297   8.424   3.540 -0.1689 -0.2353  0.7177
   87MOL0     O11376   7.441   8.389   3.547  0.1832 -0.8215  0.4437
   87MOL0     C11377   7.489   8.398   3.672 -0.4593  0.5154  0.1857
   87MOL0     C11378   7.449   8.489   3.772 -0.2452  0.9072 -0.9511
   87MOL0     C11379   7.507   8.490   3.897  0.3530 -0.2852  0.3910
   87MOL0     C11380   7.613   8.398   3.927  0.6008 -0.5807 -0.4405
   87MOL0     C11381   7.667   8.392   4.061  0.1685  1.0202  0.8756
   87MOL0     O11382   7.614   8.465   4.167 -1.1449  0.5745  0.4087
   87MOL0     C11383   7.682   8.451   4.287 -0.6898 -0.0341 -0.2959
   87MOL0     C11384   7.697   8.326   4.346 -1.0671 -0.7755 -0.5274
   87MOL0     C11385   7.772   8.317   4.470  0.1606 -0.5486  0.1202
   87MOL0     C11386   7.815   8.437   4.535  0.1145 -1.3345  0.6840
   87MOL0     O11387   7.885   8.436   4.656 -0.1871 -0.3942 -0.0153
   87MOL0     C11388   8.021   8.380   4.657  0.3683 -0.0752  1.4222
   87MOL0     C11389   8.110   8.447   4.540 -0.1322 -0.0872 -0.2886
   87MOL0     C11390   8.258   8.442   4.574  0.4102  0.6837  0.0346
   87MOL0     C11391   8.360   8.452   4.455  0.5752 -0.1095 -0.1405
   87MOL0     C11392   8.349   8.329   4.364 -0.4408  0.3127  0.7980
   87MOL0     C11393   8.336   8.387   4.217  0.2670 -0.0057  0.3448
   87MOL0     C11394   8.304   8.275   4.116 -0.3001  0.5509  0.2621
   87MOL0     C11395   8.176   8.194   4.134 -0.2678 -0.4093 -0.8486
   87MOL0    Cl11396   8.174   8.043   4.041  0.2823  0.0540  0.1871
   87MOL0     C11397   7.775   8.565   4.480 -0.0757  0.0452 -0.2238
   87MOL0     C11398   7.707   8.567   4.358 -0.3932  0.3086 -0.6477
   87MOL0     O11399   7.771   8.336   4.054 -0.5911  0.4981 -0.5114
   87MOL0     C11400   7.660   8.322   3.818 -0.2360  0.4240 -0.6355
   87MOL0     C11401   7.603   8.323   3.695  0.6746  0.0282  1.0321
   87MOL0     N11402   7.069   8.029   3.580 -0.0816  0.4984 -0.1622
   87MOL0     N11403   6.982   7.922   3.563  0.3007  1.5771  0.2350
   87MOL0     C11404   6.223   8.445   3.329 -0.5321  0.2708  0.3620
   87MOL0     C11405   6.177   8.576   3.354  0.3674 -0.0942  0.4368
   87MOL0     C11406   6.223   9.038   3.393 -0.0508 -0.8289  0.6109
   87MOL0     C11407   6.259   9.148   3.312  0.1355  1.1703 -0.4707
   87MOL0     C11408   6.226   9.276   3.344 -0.1446 -0.7693 -0.9688
   87MOL0     C11409   6.145   9.315   3.456  0.5255  0.0892  1.0174
   87MOL0     O11410   6.110   9.444   3.478 -0.6269 -0.4184 -0.4999
   87MOL0     C11411   6.123   9.494   3.618 -1.5050 -0.2103  1.1621
   87MOL0     C11412   6.004   9.572   3.658  0.4783 -0.0660  0.1092
   87MOL0     C11413   6.039   9.661   3.781 -0.1149 -0.0997  0.4377
   87MOL0     C11414   5.922   9.737   3.846 -0.3405  0.6024  0.4169
   87MOL0     C11415   5.857   9.823   3.744 -0.2759  0.7449  0.5149
   87MOL0     C11416   5.787   9.869   3.649 -0.3189  0.0776 -1.3003
   87MOL0     C11417   6.108   9.208   3.536 -0.5519  0.1184 -1.3021
   87MOL0     C11418   6.147   9.073   3.513 -0.7914  0.5796  0.4858
   87MOL0     H11419   6.455   8.716   3.481 -2.1636  3.0554 -1.1070
   87MOL0     H11420   6.534   8.480   3.454  0.2392 -0.7109 -1.0996
   87MOL0     H11421   6.342   8.234   3.527 -2.2283 -1.3711 -1.9827
   87MOL0     H11422   6.511   8.231   3.506 -0.3349  3.4182 -1.3693
   87MOL0     H11423   6.337   8.041   3.362  1.0737  2.3272 -0.7567
   87MOL0     H11424   6.419   8.004   3.525  0.2985 -0.6264 -0.3348
   87MOL0     H11425   6.631   8.017   3.411  0.5470  2.9524 -2.4342
   87MOL0     H11426   6.552   8.047   3.259 -0.6482 -0.4859 -0.7192
   87MOL0     H11427   6.506   7.802   3.405  0.2907  1.1014  1.2906
   87MOL0     H11428   6.437   7.841   3.244 -0.6165  1.8121 -0.3856
   87MOL0     H11429   6.684   7.865   3.176  0.0211  0.8507  0.5067
   87MOL0     H11430   6.619   7.696   3.217 -2.0524 -1.3188  3.9220
   87MOL0     H11431   6.708   7.752   3.456 -1.2674  2.7929 -0.0687
   87MOL0     H11432   6.781   7.884   3.397 -2.2885  1.6157 -1.8445
   87MOL0     H11433   6.851   7.597   3.300  1.9821 -0.6348 -0.5563
   87MOL0     H11434   6.902   7.746   3.219  0.5466 -1.5192 -0.6430
   87MOL0     H11435   7.072   7.659   3.380 -0.3527 -0.8057  0.1618
   87MOL0     H11436   6.948   7.665   3.516 -0.3191 -1.4488  0.8485
   87MOL0     H11437   7.164   7.925   3.285  0.7110  3.0495 -0.4799
   87MOL0     H11438   7.318   8.105   3.380 -2.7751 -3.6373 -1.3953
   87MOL0     H11439   7.288   8.167   3.544  3.7899 -2.3062 -1.4693
   87MOL0     H11440   7.073   8.266   3.432 -0.9137  4.3395 -1.7387
   87MOL0     H11441   7.153   8.224   3.285  3.4592 -5.0203  1.0658
   87MOL0     H11442   7.321   8.386   3.313 -2.7398  1.9152 -1.9672
   87MOL0     H11443   7.167   8.460   3.368 -0.0591  0.7423  0.2456
   87MOL0     H11444   7.233   8.373   3.613 -0.3313 -1.8761 -0.5052
   87MOL0     H11445   7.292   8.533   3.549  3.8231  0.5559 -3.1154
   87MOL0     H11446   7.381   8.573   3.766  0.4119  1.4554 -0.8769
   87MOL0     H11447   7.480   8.565   3.971 -1.7773  1.2165 -1.7543
   87MOL0     H11448   7.655   8.239   4.296 -2.0790  0.5961 -2.1627
   87MOL0     H11449   7.794   8.219   4.509 -1.9457 -1.2497 -0.3223
   87MOL0     H11450   8.018   8.271   4.647  1.9206 -0.1223  1.0982
   87MOL0     H11451   8.065   8.394   4.757 -2.1896  0.2829  2.5742
   87MOL0     H11452   8.083   8.553   4.538 -3.9438 -0.9108 -1.2124
   87MOL0     H11453   8.081   8.416   4.439 -1.1973  0.5021 -0.1739
   87MOL0     H11454   8.266   8.346   4.626 -3.6644 -0.2459 -0.6905
   87MOL0     H11455   8.274   8.521   4.648  3.0305 -2.8908  3.7450
   87MOL0     H11456   8.329   8.541   4.399 -0.6541  1.2922  2.5579
   87MOL0     H11457   8.461   8.469   4.492  0.1244  0.6079  0.8011
   87MOL0     H11458   8.264   8.263   4.381 -1.5641  0.0767 -4.2975
   87MOL0     H11459   8.442   8.272   4.367 -0.6752 -0.2375 -1.3034
   87MOL0     H11460   8.430   8.435   4.188  0.9513 -1.0703  0.6841
   87MOL0     H11461   8.251   8.454   4.206  1.2292  0.9586 -1.8727
   87MOL0     H11462   8.293   8.326   4.020  0.2205 -0.2630 -0.2422
   87MOL0     H11463   8.386   8.203   4.115  1.4484  2.4668  0.1063
   87MOL0     H11464   8.086   8.251   4.108  0.5884  1.2860 -0.3070
   87MOL0     H11465   8.154   8.178   4.240 -1.7815 -2.8767 -1.4573
   87MOL0     H11466   7.796   8.650   4.544 -2.0464 -2.1996  3.8172
   87MOL0     H11467   7.672   8.666   4.330 -5.2043 -1.1695 -0.7580
   87MOL0     H11468   7.747   8.258   3.831 -1.5822 -1.5488 -1.0157
   87MOL0     H11469   7.634   8.262   3.611 -0.2970  2.7714 -1.5287
   87MOL0     H11470   6.162   8.363   3.292  1.4345 -1.5868  1.0439
   87MOL0     H11471   6.073   8.600   3.332  1.1356  0.3104 -3.4835
   87MOL0     H11472   6.330   9.133   3.231 -0.1070  0.8893 -0.6339
   87MOL0     H11473   6.269   9.351   3.278  2.9071 -0.8877  0.7147
   87MOL0     H11474   6.210   9.560   3.625 -3.3491  3.0687 -2.5188
   87MOL0     H11475   6.148   9.416   3.690  3.1261 -1.1205 -1.0528
   87MOL0     H11476   5.966   9.638   3.579  1.4436  1.4097  0.8360
   87MOL0     H11477   5.927   9.497   3.677 -0.4320  0.1756 -2.2511
   87MOL0     H11478   6.112   9.740   3.760  0.2203 -0.3665  0.5909
   87MOL0     H11479   6.079   9.585   3.848  0.0410  0.7070  1.2848
   87MOL0     H11480   5.846   9.661   3.867 -1.9987  1.8635 -0.6846
   87MOL0     H11481   5.942   9.801   3.933  1.4227  1.5508 -0.6262
   87MOL0     H11482   5.715   9.916   3.585 -1.7177  2.2685  1.6132
   87MOL0     H11483   6.038   9.216   3.619  1.0180  0.2916  0.0664
   87MOL0     H11484   6.113   8.991   3.575  1.2778 -0.1510  0.7304
   88MOL0     O11485   2.601   0.359   8.127 -0.2178 -0.7748 -0.2081
   88MOL0     C11486   2.663   0.294   8.046 -0.4138  0.0778 -0.0486
   88MOL0     O11487   2.612   0.212   7.950  0.1180 -0.0527  0.1945
   88MOL0     C11488   2.478   0.231   7.907  0.1618  1.0754 -0.3797
   88MOL0     C11489   2.415   0.125   7.846  0.7171 -0.0113  0.8754
   88MOL0     C11490   2.289   0.137   7.787  0.2949  0.2726  0.0340
   88MOL0     C11491   2.214   0.258   7.798  0.3127 -1.1196 -0.5842
   88MOL0     O11492   2.084   0.299   7.745  0.4775  0.1758  0.5811
   88MOL0     C11493   2.026   0.205   7.655  0.1869 -0.0742 -0.0201
   88MOL0     C11494   1.902   0.268   7.593 -0.4854  0.3341  0.3811
   88MOL0     C11495   1.815   0.153   7.524 -0.4634  0.2218 -0.2166
   88MOL0     C11496   1.690   0.201   7.454  0.3467 -0.0350  0.2344
   88MOL0     C11497   1.630   0.080   7.381 -1.3371 -0.1680 -0.1975
   88MOL0     C11498   1.503   0.115   7.313  0.4086 -0.2405  0.1557
   88MOL0     C11499   1.386   0.161   7.409  0.2395 -0.0100  0.5563
   88MOL0     C11500   1.336   0.051   7.509  0.4674 -0.2077 -0.2791
   88MOL0     N11501   1.205   0.097   7.561  0.3865  0.4132  0.3596
   88MOL0     C11502   1.171   0.099   7.689 -1.2825 -0.5947  0.5313
   88MOL0     C11503   1.036   0.086   7.680 -1.2265 -0.0566 -0.5357
   88MOL0     C11504   0.940   0.084   7.797  0.8107 -0.7126 -0.0155
   88MOL0     C11505   0.974  -0.016   7.908  0.6307 -0.2492  0.3018
   88MOL0     C11506   0.878  -0.034   8.025 -0.3076 -0.9165  0.2307
   88MOL0     C11507   0.858   0.094   8.112  0.4438 -0.4898  0.1627
   88MOL0     O11508   0.974   0.141   8.177  0.5323  0.4639 -0.2999
   88MOL0     C11509   0.959   0.165   8.313  0.4532 -0.7135 -0.3920
   88MOL0     C11510   0.950   0.294   8.362  1.5549  0.1052 -0.0602
   88MOL0     C11511   0.946   0.314   8.502  0.7865 -0.0314 -0.9813
   88MOL0     C11512   0.956   0.202   8.594 -0.0657 -0.9030  0.3178
   88MOL0     C11513   0.972   0.217   8.742  0.3408  0.1651 -0.2388
   88MOL0     O11514   0.953   0.104   8.820 -0.3494 -0.0883 -0.0446
   88MOL0     C11515   0.994   0.110   8.950  0.3915 -1.0050  0.8384
   88MOL0     C11516   1.100   0.025   8.974 -0.3267 -0.3913 -1.1605
   88MOL0     C11517   1.153   0.003   9.109 -0.2298 -0.2190  0.9535
   88MOL0     C11518   1.089   0.075   9.209  0.0163  0.2313  0.2935
   88MOL0     O11519   1.124   0.052   9.339 -0.7241 -0.5389 -0.0183
   88MOL0     C11520   1.020  -0.003   9.422  0.5087  0.0802  0.7266
   88MOL0     C11521   0.971   0.097   9.528  0.2867  0.8041 -1.0489
   88MOL0     C11522   0.903   0.037   9.656 -0.1903 -0.3229  0.3486
   88MOL0     C11523   0.857   0.161   9.734 -0.4253 -0.4344 -0.7598
   88MOL0     C11524   0.768   0.115   9.848 -0.2529 -0.2184 -0.3652
   88MOL0     C11525   0.835   0.033   9.961 -0.1595  0.1367 -0.1372
   88MOL0     C11526   0.952   0.105  10.026  0.4231 -0.2146  0.3707
   88MOL0     C11527   1.036   0.010  10.109  1.5498  1.1821 -0.1564
   88MOL0    Cl11528   1.152   0.087  10.211 -0.2371 -0.0906 -0.2929
   88MOL0     C11529   0.981   0.158   9.182  0.9202  0.5192  0.4758
   88MOL0     C11530   0.922   0.170   9.055 -0.3451 -0.6054 -0.5356
   88MOL0     O11531   1.024   0.325   8.785  0.5678 -0.4147  0.6467
   88MOL0     C11532   0.952   0.077   8.540  0.2503  0.0488  0.1390
   88MOL0     C11533   0.963   0.055   8.403 -0.0373  0.0089  1.3094
   88MOL0     N11534   0.994   0.091   7.547 -1.1448 -0.2516 -0.2126
   88MOL0     N11535   1.098   0.114   7.474 -0.3633 -0.5542 -0.0978
   88MOL0     C11536   2.290   0.369   7.847  0.1949  0.2557 -0.2566
   88MOL0     C11537   2.415   0.359   7.898 -0.6942  0.1516  0.0021
   88MOL0     C11538   2.811   0.313   8.054 -0.0851  0.2229 -0.2265
   88MOL0     C11539   2.902   0.279   7.951 -0.4258  0.6074 -0.0752
   88MOL0     C11540   3.039   0.309   7.978  0.8455 -0.0334  0.2996
   88MOL0     C11541   3.087   0.370   8.090 -0.3429  0.7584 -0.2325
   88MOL0     O11542   3.227   0.394   8.103 -0.0902  0.7253 -0.6542
   88MOL0     C11543   3.269   0.466   8.215 -0.4792 -0.7556 -0.0065
   88MOL0     C11544   3.428   0.463   8.237  0.0240  0.1535 -0.1065
   88MOL0     C11545   3.488   0.553   8.337 -0.9632  0.9193  0.4131
   88MOL0     C11546   3.525   0.477   8.464  0.0476 -0.5384  0.3495
   88MOL0     C11547   3.407   0.468   8.550  0.8546 -0.5584  0.0876
   88MOL0     C11548   3.301   0.481   8.625 -0.8489  0.7011  1.0035
   88MOL0     C11549   2.994   0.405   8.186  0.2678 -0.8143 -0.1330
   88MOL0     C11550   2.865   0.373   8.171  0.0860  0.7221  0.6287
   88MOL0     H11551   2.470   0.032   7.854  3.0776  1.1650 -0.4538
   88MOL0     H11552   2.251   0.046   7.741  2.8420 -0.2517 -1.1481
   88MOL0     H11553   1.998   0.106   7.694 -0.8138  0.2496  0.1028
   88MOL0     H11554   2.101   0.187   7.577  1.9482 -1.7295  1.9019
   88MOL0     H11555   1.929   0.342   7.517 -2.1525 -0.6656 -1.2702
   88MOL0     H11556   1.856   0.317   7.679  0.0961 -0.0144  0.8991
   88MOL0     H11557   1.794   0.084   7.606  4.1801  0.4248  1.4640
   88MOL0     H11558   1.889   0.104   7.459  0.4089 -5.2746  4.1768
   88MOL0     H11559   1.636   0.240   7.541 -1.2062 -0.4319 -0.5014
   88MOL0     H11560   1.692   0.280   7.378 -0.8569 -1.2160 -1.0989
   88MOL0     H11561   1.615   0.008   7.461  0.5836  2.4653  2.7721
   88MOL0     H11562   1.692   0.028   7.308 -1.6891 -1.7785  0.6040
   88MOL0     H11563   1.475   0.024   7.260 -1.4295 -0.1054  0.8069
   88MOL0     H11564   1.539   0.193   7.245 -0.3611 -0.6340 -0.7175
   88MOL0     H11565   1.419   0.246   7.470  3.5672 -2.2666  2.2144
   88MOL0     H11566   1.301   0.179   7.343 -0.8150 -2.1784  1.2244
   88MOL0     H11567   1.403   0.034   7.593 -2.7413  0.7519  2.6775
   88MOL0     H11568   1.322  -0.046   7.460  6.7962 -2.3995  1.2262
   88MOL0     H11569   1.245   0.081   7.766  1.3322  2.2154 -1.1154
   88MOL0     H11570   0.838   0.061   7.764  0.0186  2.8946 -0.4061
   88MOL0     H11571   0.936   0.187   7.833 -1.5361 -1.2748  1.6203
   88MOL0     H11572   1.074   0.014   7.943 -0.0495  3.0886 -0.3006
   88MOL0     H11573   0.976  -0.119   7.872 -0.4774 -0.4370  0.7322
   88MOL0     H11574   0.782  -0.058   7.979 -0.5715  0.0563  0.2628
   88MOL0     H11575   0.905  -0.115   8.094  2.5400  1.2848  1.9403
   88MOL0     H11576   0.778   0.071   8.183 -0.6563  2.1114 -0.1162
   88MOL0     H11577   0.829   0.179   8.048  1.8924 -1.1269 -1.4219
   88MOL0     H11578   0.955   0.381   8.297 -0.7344  4.0244  4.4016
   88MOL0     H11579   0.947   0.413   8.547  1.2086  0.1029 -1.2729
   88MOL0     H11580   1.128  -0.032   8.887  0.7614  1.1124 -1.8285
   88MOL0     H11581   1.249  -0.041   9.130 -0.6487 -1.0240  1.2126
   88MOL0     H11582   1.056  -0.094   9.470  2.8497 -0.3871 -1.7331
   88MOL0     H11583   0.928  -0.029   9.369  0.2952 -0.5922  1.4065
   88MOL0     H11584   0.896   0.167   9.490  1.0638  2.2144 -0.0533
   88MOL0     H11585   1.052   0.155   9.573  0.6807 -0.4999 -0.0191
   88MOL0     H11586   0.982  -0.024   9.700 -0.3502 -3.1927 -2.9193
   88MOL0     H11587   0.822  -0.027   9.621 -2.3652  3.6086 -2.6747
   88MOL0     H11588   0.944   0.217   9.769 -2.7512  1.4669  2.5672
   88MOL0     H11589   0.790   0.221   9.672 -0.2241  1.5606  0.8345
   88MOL0     H11590   0.693   0.043   9.814  0.0584 -0.9334  0.4358
   88MOL0     H11591   0.720   0.204   9.891 -2.9579 -1.8377  0.1623
   88MOL0     H11592   0.887  -0.048   9.908  2.5780  1.2144  0.7151
   88MOL0     H11593   0.758  -0.005  10.028  1.0226  0.0108  1.1873
   88MOL0     H11594   1.017   0.162   9.960 -3.1001 -0.3999 -3.7285
   88MOL0     H11595   0.915   0.182  10.095 -0.2903  0.0562 -0.2857
   88MOL0     H11596   1.079  -0.075  10.055 -0.5631  0.3074 -0.5546
   88MOL0     H11597   0.971  -0.052  10.171  1.5592 -0.3455 -1.5958
   88MOL0     H11598   0.933   0.204   9.268  0.5864 -2.0423  1.7507
   88MOL0     H11599   0.830   0.219   9.024  0.8540  0.1403 -3.2294
   88MOL0     H11600   0.960  -0.014   8.599 -0.9782  1.0830  1.9807
   88MOL0     H11601   0.980  -0.040   8.354  0.9207  0.8173  0.0106
   88MOL0     H11602   2.244   0.466   7.836  0.9262  0.3388 -3.5138
   88MOL0     H11603   2.469   0.449   7.926  1.5127 -0.2193 -2.5829
   88MOL0     H11604   2.878   0.226   7.859  1.6545  0.6122 -0.6777
   88MOL0     H11605   3.105   0.252   7.915 -0.3186  0.3037 -1.2701
   88MOL0     H11606   3.229   0.422   8.307  1.1015 -0.0977  1.0558
   88MOL0     H11607   3.224   0.565   8.203  0.6262 -0.2470 -0.1337
   88MOL0     H11608   3.454   0.363   8.272 -3.1822 -0.5556  0.5236
   88MOL0     H11609   3.471   0.475   8.137  1.2685 -1.5618  0.1810
   88MOL0     H11610   3.415   0.630   8.363 -1.1284  0.7150  0.5490
   88MOL0     H11611   3.571   0.603   8.286 -0.0801  0.1463  1.0642
   88MOL0     H11612   3.587   0.387   8.455  0.3712 -0.2159 -0.8090
   88MOL0     H11613   3.605   0.530   8.515  1.8932 -2.4173 -0.4525
   88MOL0     H11614   3.211   0.495   8.681 -1.2965  1.7336  0.0523
   88MOL0     H11615   3.017   0.463   8.275 -1.4587 -1.2834  0.6631
   88MOL0     H11616   2.794   0.396   8.250  1.2468  1.2880  1.5515
   89MOL0     O11617   1.231   1.328   3.720 -0.6339  0.7476  0.0949
   89MOL0     C11618   1.331   1.401   3.733  0.5292  0.7954  0.0763
   89MOL0     O11619   1.449   1.368   3.780  0.9662  1.0844 -0.4587
   89MOL0     C11620   1.479   1.245   3.836 -0.8369 -0.8215 -0.4394
   89MOL0     C11621   1.388   1.152   3.882  0.2214 -0.1996  0.6419
   89MOL0     C11622   1.424   1.033   3.938  0.0108  0.3220 -0.8816
   89MOL0     C11623   1.558   1.011   3.964  0.7459  0.7834  1.4479
   89MOL0     O11624   1.585   0.888   4.026 -0.6566  0.3426  0.7086
   89MOL0     C11625   1.720   0.835   4.017  0.0566 -0.0804  0.9429
   89MOL0     C11626   1.777   0.868   4.159  0.2006 -0.1574  0.4153
   89MOL0     C11627   1.916   0.823   4.179  1.1699  0.0312 -0.6767
   89MOL0     C11628   1.935   0.835   4.328  0.0687 -0.1251  0.6959
   89MOL0     C11629   2.071   0.767   4.366  0.6120 -0.7174 -0.5661
   89MOL0     C11630   2.196   0.804   4.280 -0.1657 -0.0300 -0.1054
   89MOL0     C11631   2.323   0.763   4.345 -1.0091 -0.6813  0.5585
   89MOL0     C11632   2.447   0.829   4.265 -0.4642  0.8583 -1.2035
   89MOL0     N11633   2.458   0.973   4.279  0.0984 -0.0239 -1.2288
   89MOL0     C11634   2.483   1.028   4.404  0.1312 -0.2913 -0.3114
   89MOL0     C11635   2.483   1.159   4.390  0.3363 -1.3843  0.7007
   89MOL0     C11636   2.500   1.274   4.493 -0.4815 -1.3060 -0.2532
   89MOL0     C11637   2.597   1.384   4.454  0.6724  0.2465 -0.5682
   89MOL0     C11638   2.608   1.507   4.544  0.3331 -1.0484  0.9539
   89MOL0     C11639   2.687   1.626   4.484 -0.2773  0.3662 -0.5697
   89MOL0     O11640   2.813   1.566   4.457 -0.0985  0.3456  0.3463
   89MOL0     C11641   2.862   1.614   4.337 -0.0950 -0.1897  0.5295
   89MOL0     C11642   2.924   1.524   4.256 -0.6780  0.9565 -0.3145
   89MOL0     C11643   3.010   1.571   4.150 -0.1941  0.1142  0.2941
   89MOL0     C11644   3.018   1.708   4.125  0.3314 -0.7303 -0.5638
   89MOL0     C11645   3.125   1.744   4.022  0.1526 -0.3231  0.1197
   89MOL0     O11646   3.216   1.649   3.991 -0.0954  0.3601 -0.2904
   89MOL0     C11647   3.304   1.653   3.884 -0.5987  0.1686 -0.5282
   89MOL0     C11648   3.310   1.554   3.784  1.0789  0.1497 -0.3391
   89MOL0     C11649   3.387   1.572   3.672 -0.3963  0.1237  1.2380
   89MOL0     C11650   3.469   1.679   3.656 -0.9858  0.3085  0.0622
   89MOL0     O11651   3.550   1.694   3.551 -0.3295 -1.2430 -0.2150
   89MOL0     C11652   3.576   1.573   3.466  0.6408 -0.3301  0.0381
   89MOL0     C11653   3.698   1.610   3.379 -0.3777  0.4720  0.6413
   89MOL0     C11654   3.746   1.512   3.266  0.1729 -0.1912  1.5088
   89MOL0     C11655   3.867   1.572   3.195  0.2739  0.9946 -0.3923
   89MOL0     C11656   3.910   1.502   3.067 -0.4433  0.8420 -0.5915
   89MOL0     C11657   3.956   1.361   3.087 -0.8019  0.0054  0.0311
   89MOL0     C11658   4.106   1.362   3.132  0.7921  0.0729 -0.6518
   89MOL0     C11659   4.148   1.215   3.167  0.8154 -0.4242  0.0239
   89MOL0    Cl11660   4.049   1.157   3.304  0.0765  0.3568 -0.0687
   89MOL0     C11661   3.472   1.773   3.759  0.4192  0.0644  0.4092
   89MOL0     C11662   3.385   1.760   3.869 -0.0353 -0.9115  0.5309
   89MOL0     O11663   3.125   1.862   3.977  0.3314 -0.6859  0.2070
   89MOL0     C11664   2.941   1.800   4.194 -0.4224  1.1547  0.0852
   89MOL0     C11665   2.865   1.752   4.301  0.3704 -0.0270  0.2492
   89MOL0     N11666   2.444   1.190   4.255 -0.0319  0.0100  1.0112
   89MOL0     N11667   2.429   1.074   4.201 -0.1477 -0.5180 -0.4299
   89MOL0     C11668   1.659   1.104   3.923 -0.3284 -0.5576  0.4548
   89MOL0     C11669   1.611   1.219   3.849 -0.1025  0.1652 -0.4047
   89MOL0     C11670   1.322   1.556   3.721 -0.1120 -0.7730  0.5282
   89MOL0     C11671   1.199   1.623   3.696 -0.0620 -0.1481 -0.8408
   89MOL0     C11672   1.206   1.764   3.679 -0.2550  0.0221 -0.3304
   89MOL0     C11673   1.324   1.837   3.680 -0.2799 -0.6275 -0.2221
   89MOL0     O11674   1.305   1.969   3.664  0.6638  0.6136 -0.5295
   89MOL0     C11675   1.428   2.057   3.649  0.0192 -0.6482  0.4485
   89MOL0     C11676   1.387   2.200   3.662 -1.4439 -0.8204 -0.8062
   89MOL0     C11677   1.513   2.299   3.639  0.0787  0.3420  0.1547
   89MOL0     C11678   1.601   2.298   3.781  0.7447 -0.5861  0.4996
   89MOL0     C11679   1.717   2.389   3.765  0.1782  0.0657 -0.0007
   89MOL0     C11680   1.813   2.462   3.745  0.3185  0.3403 -0.3275
   89MOL0     C11681   1.440   1.777   3.718  0.2738  0.8240 -0.6027
   89MOL0     C11682   1.441   1.635   3.727  0.4819  0.1122 -0.1245
   89MOL0     H11683   1.281   1.171   3.882  0.3918  0.8093  0.5589
   89MOL0     H11684   1.348   0.962   3.971 -1.1200  2.6569  1.9516
   89MOL0     H11685   1.783   0.871   3.935 -1.6348 -1.0531 -0.8618
   89MOL0     H11686   1.699   0.729   3.999 -2.9491  0.7277 -1.1523
   89MOL0     H11687   1.718   0.811   4.232 -2.6557 -2.4356 -3.3140
   89MOL0     H11688   1.778   0.975   4.183 -2.2124  0.6538 -2.4084
   89MOL0     H11689   1.991   0.890   4.138  3.1241 -2.1848 -0.9307
   89MOL0     H11690   1.912   0.723   4.135 -3.2640 -1.1353  1.7250
   89MOL0     H11691   1.937   0.939   4.359  3.1147  0.2424 -0.3914
   89MOL0     H11692   1.860   0.777   4.383 -0.2431 -1.7065 -1.2792
   89MOL0     H11693   2.055   0.659   4.360 -0.2895 -0.7562  1.5398
   89MOL0     H11694   2.095   0.792   4.470  2.9477  1.3909 -1.5188
   89MOL0     H11695   2.186   0.912   4.267 -4.9266 -0.3970 -1.3872
   89MOL0     H11696   2.199   0.762   4.179 -2.3042  2.0123 -1.1178
   89MOL0     H11697   2.308   0.786   4.451 -0.6105 -1.6856  0.8476
   89MOL0     H11698   2.348   0.657   4.337 -0.7179 -0.4583 -3.1234
   89MOL0     H11699   2.431   0.781   4.168 -0.7886  0.1709 -0.8213
   89MOL0     H11700   2.541   0.782   4.296 -0.0226  1.4326 -1.6535
   89MOL0     H11701   2.486   0.965   4.492 -0.5279 -0.9005 -0.7161
   89MOL0     H11702   2.522   1.237   4.594 -4.9367 -0.4242  1.2929
   89MOL0     H11703   2.399   1.317   4.498 -1.3314 -2.8984 -2.4208
   89MOL0     H11704   2.568   1.426   4.357 -1.8872 -2.0406 -0.9073
   89MOL0     H11705   2.696   1.339   4.453  0.3581 -0.4575 -0.2132
   89MOL0     H11706   2.509   1.551   4.556 -0.6817 -2.1488 -2.3370
   89MOL0     H11707   2.649   1.481   4.642 -2.2270  4.3945  3.8476
   89MOL0     H11708   2.697   1.711   4.553 -0.4704 -1.1268  1.3568
   89MOL0     H11709   2.634   1.649   4.391  0.2918 -0.7570 -1.1901
   89MOL0     H11710   2.911   1.418   4.270 -2.7200  0.9843 -1.7020
   89MOL0     H11711   3.061   1.499   4.087  3.6065  1.1018  1.9147
   89MOL0     H11712   3.254   1.461   3.794  2.2408 -0.7467 -1.6952
   89MOL0     H11713   3.380   1.503   3.589  3.3428  1.2253 -0.2444
   89MOL0     H11714   3.490   1.547   3.403  0.9072 -5.4484  1.3171
   89MOL0     H11715   3.596   1.486   3.529  0.0649 -1.9866 -1.9698
   89MOL0     H11716   3.787   1.641   3.435  1.0876  1.2049 -1.9017
   89MOL0     H11717   3.655   1.699   3.330 -1.5010 -1.2508 -1.7263
   89MOL0     H11718   3.670   1.493   3.190  0.4540 -0.8409  1.3855
   89MOL0     H11719   3.778   1.419   3.313  3.0415 -0.0110  0.1257
   89MOL0     H11720   3.832   1.672   3.167 -0.0737  1.4387  1.4664
   89MOL0     H11721   3.950   1.583   3.265  0.6315 -3.1371  0.1030
   89MOL0     H11722   3.997   1.549   3.020  0.2409 -2.2070 -2.6304
   89MOL0     H11723   3.825   1.500   2.998 -0.3033 -1.2631 -0.7431
   89MOL0     H11724   3.953   1.298   2.998 -0.0984  5.2406 -4.2027
   89MOL0     H11725   3.904   1.305   3.166  0.4536 -3.0606 -1.1853
   89MOL0     H11726   4.164   1.400   3.048  0.7428 -1.0867 -1.2292
   89MOL0     H11727   4.122   1.431   3.215  3.7895  1.3637 -2.1586
   89MOL0     H11728   4.254   1.197   3.188  1.3550 -0.1587 -2.1825
   89MOL0     H11729   4.120   1.153   3.081  0.8862 -2.7972  1.6218
   89MOL0     H11730   3.537   1.859   3.774  0.1449  0.7094 -1.7598
   89MOL0     H11731   3.402   1.824   3.955  3.4737 -3.3186  1.8914
   89MOL0     H11732   2.953   1.905   4.171  0.6940  0.8533 -0.8181
   89MOL0     H11733   2.806   1.825   4.356 -1.4875 -1.3308  0.0553
   89MOL0     H11734   1.764   1.102   3.949 -0.8197 -2.0712  2.5766
   89MOL0     H11735   1.689   1.294   3.842  0.8792 -0.7298  0.4262
   89MOL0     H11736   1.110   1.562   3.685  0.8781 -1.2857 -2.5998
   89MOL0     H11737   1.115   1.822   3.661  2.1298  3.1978 -3.6532
   89MOL0     H11738   1.461   2.057   3.545 -0.1213  4.4847  0.1103
   89MOL0     H11739   1.501   2.025   3.724 -0.3366 -4.9527 -0.7716
   89MOL0     H11740   1.325   2.228   3.577 -0.1859  1.5718 -1.0274
   89MOL0     H11741   1.336   2.228   3.755  0.7145  1.6385 -0.2359
   89MOL0     H11742   1.470   2.395   3.610 -1.4756 -0.7409 -1.2578
   89MOL0     H11743   1.579   2.260   3.561  2.7170  1.2282  1.8165
   89MOL0     H11744   1.543   2.329   3.868  2.1636  2.0434  0.5993
   89MOL0     H11745   1.637   2.195   3.795  0.6328 -1.0515 -2.0391
   89MOL0     H11746   1.900   2.522   3.728  1.4130 -1.5371 -1.6700
   89MOL0     H11747   1.529   1.831   3.750  1.5752 -0.4201 -2.0007
   89MOL0     H11748   1.536   1.582   3.730 -0.4383 -1.9642 -2.7910
   90MOL0     O11749   8.726  11.301   6.671  0.3442 -0.8332  0.0938
   90MOL0     C11750   8.750  11.253   6.563 -0.4531  0.1292  0.9877
   90MOL0     O11751   8.660  11.223   6.461 -0.7218 -0.0196  0.4550
   90MOL0     C11752   8.536  11.259   6.499  1.0768  1.2731 -0.1469
   90MOL0     C11753   8.473  11.370   6.446  0.1265 -0.0407 -0.1116
   90MOL0     C11754   8.331  11.374   6.438  1.3684  0.7557 -0.1389
   90MOL0     C11755   8.252  11.287   6.516  0.7288  1.3624 -0.0090
   90MOL0     O11756   8.115  11.304   6.512  0.5202 -0.3841 -1.3007
   90MOL0     C11757   8.029  11.206   6.572  0.2820 -1.1374 -0.0729
   90MOL0     C11758   7.882  11.254   6.561  0.4343  0.7804  0.2408
   90MOL0     C11759   7.854  11.357   6.673 -0.9515  0.4398  0.3617
   90MOL0     C11760   7.726  11.441   6.639 -0.4199  1.0122 -0.0287
   90MOL0     C11761   7.592  11.364   6.643 -0.7358 -0.0392 -0.2873
   90MOL0     C11762   7.471  11.455   6.632 -0.0933 -1.5645  0.5190
   90MOL0     C11763   7.346  11.371   6.665  0.2293  0.0152  0.9395
   90MOL0     C11764   7.216  11.424   6.613  0.4728  0.5260  0.1452
   90MOL0     N11765   7.217  11.568   6.629 -0.0475  0.7534  0.0169
   90MOL0     C11766   7.182  11.628   6.745  0.0690  0.2965  0.8911
   90MOL0     C11767   7.198  11.761   6.725  0.1189 -0.6688 -0.3122
   90MOL0     C11768   7.152  11.867   6.826  0.8789  0.2118 -0.4817
   90MOL0     C11769   6.994  11.901   6.808 -1.2889 -0.7364  0.8471
   90MOL0     C11770   6.971  11.963   6.667 -0.5765 -0.0207  0.1922
   90MOL0     C11771   7.031  12.083   6.630  0.4176  0.7972 -0.8659
   90MOL0     O11772   6.970  12.185   6.700  0.7276 -0.2908 -0.4134
   90MOL0     C11773   7.011  12.316   6.671 -0.0077  1.4245  0.2426
   90MOL0     C11774   7.102  12.350   6.567  0.2414 -0.5918  0.2794
   90MOL0     C11775   7.124  12.492   6.545 -0.4347  0.7475 -0.5706
   90MOL0     C11776   7.073  12.592   6.638 -0.6887  0.4307  0.6477
   90MOL0     C11777   7.105  12.733   6.637 -0.5940  0.2151 -0.0070
   90MOL0     O11778   7.103  12.798   6.768  0.0185 -0.0234  0.5749
   90MOL0     C11779   7.090  12.929   6.761  0.2745  0.1526  0.2074
   90MOL0     C11780   6.975  12.982   6.817  0.2629  0.7572  0.8162
   90MOL0     C11781   6.952  13.122   6.807  0.6525 -0.0810  0.4893
   90MOL0     C11782   7.042  13.197   6.733 -0.3152 -0.5896 -0.1027
   90MOL0     O11783   7.010  13.332   6.739 -0.6430 -0.2702  0.1294
   90MOL0     C11784   7.059  13.416   6.626 -0.3648  0.8723 -0.4376
   90MOL0     C11785   7.036  13.567   6.662 -0.0630 -0.8385  0.5465
   90MOL0     C11786   7.153  13.643   6.734 -0.7656  1.2460  0.0022
   90MOL0     C11787   7.118  13.788   6.735 -1.0388 -0.1849  0.8176
   90MOL0     C11788   7.235  13.875   6.769  0.1418  0.0672 -1.1048
   90MOL0     C11789   7.317  13.905   6.637  0.2561 -0.2012 -0.2378
   90MOL0     C11790   7.431  13.996   6.671  0.1036  0.1584  0.7717
   90MOL0     C11791   7.543  13.971   6.573  0.3650 -0.9005 -0.0370
   90MOL0    Cl11792   7.522  14.034   6.404 -0.2046 -0.5195  0.0649
   90MOL0     C11793   7.165  13.149   6.686  0.5191 -0.0752 -0.7348
   90MOL0     C11794   7.188  13.011   6.706  0.9725  0.4137  0.2889
   90MOL0     O11795   7.114  12.790   6.524  0.0464 -1.0694 -0.9741
   90MOL0     C11796   6.993  12.545   6.740  0.6008 -0.2055  0.5240
   90MOL0     C11797   6.957  12.405   6.756  0.8787  0.9049 -1.0441
   90MOL0     N11798   7.224  11.785   6.593 -0.4732  0.4001 -0.0115
   90MOL0     N11799   7.231  11.669   6.535  0.4187 -0.3440 -0.3027
   90MOL0     C11800   8.318  11.193   6.599  0.4234 -0.5560  1.5254
   90MOL0     C11801   8.454  11.178   6.593  0.3268  0.5153 -0.6476
   90MOL0     C11802   8.895  11.245   6.541  1.0829  0.1115  0.7808
   90MOL0     C11803   8.981  11.333   6.595 -0.2558 -0.7975  0.1640
   90MOL0     C11804   9.119  11.316   6.572 -1.1069 -0.0561 -0.0671
   90MOL0     C11805   9.174  11.224   6.481 -0.2392  0.4259  0.2889
   90MOL0     O11806   9.307  11.210   6.422 -1.1065 -0.1711 -0.1778
   90MOL0     C11807   9.410  11.299   6.481 -0.4505 -0.0856 -0.2025
   90MOL0     C11808   9.552  11.252   6.471  0.3218 -0.0737 -0.3386
   90MOL0     C11809   9.595  11.191   6.332  0.3241 -0.6002  0.2984
   90MOL0     C11810   9.736  11.122   6.346  1.0467 -0.5296 -0.3971
   90MOL0     C11811   9.756  11.039   6.232 -0.6261 -0.4021 -1.1756
   90MOL0     C11812   9.786  10.970   6.138 -0.1427 -0.3060 -0.3082
   90MOL0     C11813   9.082  11.124   6.437 -0.9169  0.5317  0.6890
   90MOL0     C11814   8.944  11.134   6.472 -0.6069  0.0171 -0.2920
   90MOL0     H11815   8.544  11.439   6.400  3.6892 -0.9632  3.4198
   90MOL0     H11816   8.279  11.459   6.395 -5.8100 -2.1007  1.4769
   90MOL0     H11817   8.052  11.192   6.678 -3.0985 -0.3294  0.8727
   90MOL0     H11818   8.042  11.119   6.507  0.0743 -0.5735 -0.8876
   90MOL0     H11819   7.815  11.172   6.588  2.8382 -1.3466  0.2255
   90MOL0     H11820   7.845  11.282   6.462 -1.5682  0.7081  0.9249
   90MOL0     H11821   7.940  11.424   6.681 -0.7767  0.3738 -0.7364
   90MOL0     H11822   7.838  11.305   6.768  1.3546  2.5992  2.0501
   90MOL0     H11823   7.724  11.525   6.709  0.4360  1.7994 -0.9243
   90MOL0     H11824   7.742  11.476   6.537  2.6239 -1.4578 -0.5489
   90MOL0     H11825   7.602  11.309   6.737  3.6952 -1.9890 -1.6321
   90MOL0     H11826   7.578  11.288   6.566  0.3107 -0.5710  0.0237
   90MOL0     H11827   7.464  11.492   6.529  1.0073 -2.6245  0.0448
   90MOL0     H11828   7.482  11.537   6.704  2.1455 -1.7834  0.4933
   90MOL0     H11829   7.349  11.275   6.613 -0.2550  0.1804  0.6027
   90MOL0     H11830   7.348  11.347   6.772  0.7056  1.8581  1.3722
   90MOL0     H11831   7.131  11.374   6.660 -1.5526  0.5805 -3.1944
   90MOL0     H11832   7.211  11.389   6.510 -0.3457 -1.2142  0.7424
   90MOL0     H11833   7.143  11.578   6.833 -2.1940 -0.9101 -0.7079
   90MOL0     H11834   7.212  11.958   6.819 -0.4128  1.1637  0.3660
   90MOL0     H11835   7.156  11.834   6.930 -1.2829  0.3692 -0.3023
   90MOL0     H11836   6.957  11.970   6.884 -1.7249  0.2432 -0.2236
   90MOL0     H11837   6.947  11.802   6.808  1.1142 -1.9592 -0.0285
   90MOL0     H11838   6.987  11.888   6.590 -1.1590  0.7012 -0.6587
   90MOL0     H11839   6.862  11.976   6.665 -0.6129 -0.1528  1.0497
   90MOL0     H11840   7.023  12.100   6.522  0.9458 -0.8129 -1.2011
   90MOL0     H11841   7.136  12.066   6.657 -0.7009 -2.0965  2.4526
   90MOL0     H11842   7.137  12.274   6.498 -0.0689  0.2633 -0.8611
   90MOL0     H11843   7.188  12.531   6.467 -3.8092  2.3481 -2.7635
   90MOL0     H11844   6.912  12.908   6.866  3.7036 -2.9133  0.2470
   90MOL0     H11845   6.879  13.181   6.862  0.2313 -0.6258  0.5340
   90MOL0     H11846   6.997  13.392   6.539 -0.1215 -0.0159 -0.3804
   90MOL0     H11847   7.166  13.399   6.612 -0.6363 -1.5940 -0.0945
   90MOL0     H11848   6.943  13.586   6.715  0.1780  0.1180  0.6441
   90MOL0     H11849   7.024  13.599   6.557  0.5929 -0.2449  0.6403
   90MOL0     H11850   7.245  13.625   6.678 -0.2001 -0.4217  1.3723
   90MOL0     H11851   7.176  13.604   6.833 -0.9868 -1.8970 -1.0631
   90MOL0     H11852   7.073  13.813   6.639 -3.3410  1.6167  2.2647
   90MOL0     H11853   7.035  13.801   6.805 -3.3018  2.5284 -2.1091
   90MOL0     H11854   7.294  13.827   6.847 -1.2094 -0.0617 -0.1199
   90MOL0     H11855   7.197  13.970   6.806 -0.9581 -0.5410 -0.5925
   90MOL0     H11856   7.241  13.944   6.569  0.5884  0.9901  0.0526
   90MOL0     H11857   7.360  13.818   6.588  0.8342 -1.4221  2.2763
   90MOL0     H11858   7.407  14.102   6.655 -0.6952 -0.2596 -0.9924
   90MOL0     H11859   7.467  13.968   6.770 -1.2667 -3.7321  0.3334
   90MOL0     H11860   7.578  13.868   6.571  1.3982 -0.5360 -1.2018
   90MOL0     H11861   7.627  14.030   6.611 -0.1033 -1.8439  2.7062
   90MOL0     H11862   7.243  13.215   6.650 -0.4535  1.4265 -0.1722
   90MOL0     H11863   7.278  12.956   6.678  1.5428  0.8626  1.1604
   90MOL0     H11864   6.947  12.620   6.803  3.2623  1.8658  0.2060
   90MOL0     H11865   6.886  12.360   6.824  0.5815  1.7224 -0.8045
   90MOL0     H11866   8.256  11.122   6.653 -0.4357 -0.1670  1.0719
   90MOL0     H11867   8.506  11.093   6.636  0.2382  0.6045 -0.3667
   90MOL0     H11868   8.937  11.408   6.659 -2.1155 -0.6140 -1.2310
   90MOL0     H11869   9.185  11.388   6.620 -1.0759  0.9609 -1.5814
   90MOL0     H11870   9.392  11.317   6.587 -0.4038  1.6062 -0.4561
   90MOL0     H11871   9.404  11.392   6.424 -0.8003 -2.4854 -4.4955
   90MOL0     H11872   9.622  11.330   6.502 -2.0354  1.9175  0.2723
   90MOL0     H11873   9.556  11.171   6.544 -0.6845  0.5295  0.4059
   90MOL0     H11874   9.596  11.265   6.252 -0.3986  0.4745  1.2669
   90MOL0     H11875   9.522  11.111   6.315  0.7935 -1.3163  1.5287
   90MOL0     H11876   9.811  11.202   6.342 -0.6406  1.2304  1.2578
   90MOL0     H11877   9.746  11.053   6.430  0.9832 -3.1770 -2.4633
   90MOL0     H11878   9.801  10.908   6.052  2.2654 -0.0747 -0.1287
   90MOL0     H11879   9.119  11.057   6.360 -0.9924  1.1586  0.0970
   90MOL0     H11880   8.874  11.073   6.416 -0.3331  1.0592 -1.8167
   91MOL0     O11881   1.952   8.351   3.438  0.2908 -0.4522  0.5182
   91MOL0     C11882   1.842   8.364   3.479  0.7711 -0.6696 -0.5833
   91MOL0     O11883   1.730   8.397   3.400 -0.6453  0.3965 -0.4009
   91MOL0     C11884   1.721   8.369   3.262  0.4778 -0.5484 -0.0141
   91MOL0     C11885   1.823   8.326   3.176  0.1099  0.1937  1.0571
   91MOL0     C11886   1.794   8.309   3.041  0.6787 -0.1716 -0.4494
   91MOL0     C11887   1.664   8.332   2.990  0.0584  0.5093 -0.8342
   91MOL0     O11888   1.624   8.309   2.863  0.4303 -0.1608 -0.5909
   91MOL0     C11889   1.705   8.377   2.764 -0.2153  0.7804  0.3401
   91MOL0     C11890   1.634   8.327   2.634 -0.2206  0.0485 -0.0363
   91MOL0     C11891   1.509   8.403   2.604  0.5220 -0.5246  1.1818
   91MOL0     C11892   1.448   8.336   2.471 -0.3906  0.7286 -0.6618
   91MOL0     C11893   1.347   8.428   2.394  0.0640  0.1816  0.6200
   91MOL0     C11894   1.314   8.377   2.246  0.2799  0.3872  0.6016
   91MOL0     C11895   1.244   8.243   2.241 -0.2410 -0.3208 -0.2334
   91MOL0     C11896   1.108   8.242   2.313 -0.0244 -0.4395  1.1318
   91MOL0     N11897   1.000   8.310   2.233 -0.4375  0.4044  0.7001
   91MOL0     C11898   0.889   8.365   2.292 -0.2622  0.3678  0.8747
   91MOL0     C11899   0.810   8.407   2.196 -0.0847 -0.7776 -0.6254
   91MOL0     C11900   0.673   8.467   2.204 -1.3018 -0.3016  0.6910
   91MOL0     C11901   0.659   8.586   2.108 -0.0320  0.4665  0.4018
   91MOL0     C11902   0.528   8.673   2.147 -0.4458  0.4564  0.7489
   91MOL0     C11903   0.525   8.758   2.270 -1.3236  0.0423 -0.1301
   91MOL0     O11904   0.645   8.839   2.288  0.5231 -0.5075  0.5800
   91MOL0     C11905   0.646   8.938   2.382  0.6422 -0.9089  0.9441
   91MOL0     C11906   0.750   9.028   2.369  0.5224  0.0985 -0.2758
   91MOL0     C11907   0.758   9.142   2.451  0.0162 -0.3147 -0.7059
   91MOL0     C11908   0.654   9.183   2.537  0.3346  0.1018 -0.7342
   91MOL0     C11909   0.652   9.306   2.617 -0.5210 -0.6729  0.4827
   91MOL0     O11910   0.768   9.386   2.601  0.1782 -0.0061  0.6706
   91MOL0     C11911   0.775   9.493   2.688 -0.3366  0.1754 -0.4282
   91MOL0     C11912   0.697   9.614   2.682 -0.5890 -0.7948  0.5627
   91MOL0     C11913   0.722   9.730   2.753  0.6937 -0.0150  0.4440
   91MOL0     C11914   0.843   9.741   2.824  0.4829 -0.7412 -0.0118
   91MOL0     O11915   0.873   9.848   2.898  0.1840  0.4022  0.8350
   91MOL0     C11916   0.968   9.937   2.837  0.5606 -0.6442  0.2971
   91MOL0     C11917   1.021  10.045   2.925  0.0854 -0.6364 -0.3120
   91MOL0     C11918   1.137  10.127   2.859  0.1352  0.1880 -0.8956
   91MOL0     C11919   1.263  10.053   2.910 -1.1399  0.9714  1.2923
   91MOL0     C11920   1.397  10.094   2.859 -0.5560  0.5094  0.5073
   91MOL0     C11921   1.506  10.016   2.926  0.5349 -0.4541  0.4957
   91MOL0     C11922   1.639  10.063   2.872  0.0071  0.1072 -0.1583
   91MOL0     C11923   1.744  10.024   2.985 -1.3601 -0.0054 -0.0561
   91MOL0    Cl11924   1.747   9.855   3.006 -0.1731 -0.1311 -0.0139
   91MOL0     C11925   0.923   9.623   2.838 -0.0107 -0.7453  0.0873
   91MOL0     C11926   0.889   9.500   2.778 -0.1010  0.4679  0.8883
   91MOL0     O11927   0.567   9.323   2.701  0.3519  0.6714  0.2771
   91MOL0     C11928   0.547   9.091   2.554  0.1408 -0.1056 -0.2134
   91MOL0     C11929   0.536   8.973   2.474 -0.4238 -0.1836 -0.1412
   91MOL0     N11930   0.886   8.408   2.081  0.1422  0.9154 -1.2961
   91MOL0     N11931   1.004   8.356   2.103  0.2286  0.4152  0.6517
   91MOL0     C11932   1.575   8.404   3.069 -0.0441 -0.2743  1.3280
   91MOL0     C11933   1.593   8.405   3.208  0.0442  0.7840 -0.2751
   91MOL0     C11934   1.829   8.359   3.626 -0.9405 -0.3069  0.6987
   91MOL0     C11935   1.931   8.307   3.702  0.3095 -0.0891  0.1420
   91MOL0     C11936   1.908   8.301   3.844  0.2426  0.3516  0.0554
   91MOL0     C11937   1.787   8.349   3.900 -0.9398  0.4549  0.6356
   91MOL0     O11938   1.769   8.354   4.036 -0.1127 -0.1996 -0.1009
   91MOL0     C11939   1.868   8.401   4.128 -1.1592  0.4910  0.0970
   91MOL0     C11940   1.917   8.304   4.237  0.2444  0.3016 -0.0477
   91MOL0     C11941   2.039   8.339   4.315 -0.4255 -0.5350 -0.0612
   91MOL0     C11942   2.007   8.444   4.419  0.3039  0.0552  0.3985
   91MOL0     C11943   2.120   8.521   4.470  0.0758  0.1319 -0.1147
   91MOL0     C11944   2.209   8.584   4.529  0.0191 -0.1568  0.4939
   91MOL0     C11945   1.685   8.375   3.814  0.1352 -0.1545 -0.3834
   91MOL0     C11946   1.698   8.377   3.679 -0.6565  0.9727  0.3293
   91MOL0     H11947   1.925   8.313   3.211  0.9790 -1.1313 -1.7004
   91MOL0     H11948   1.865   8.276   2.965 -0.0723 -1.5396 -0.5889
   91MOL0     H11949   1.810   8.349   2.769 -0.4166 -0.4028 -1.2187
   91MOL0     H11950   1.704   8.486   2.777  0.2229  0.4855  3.5965
   91MOL0     H11951   1.613   8.222   2.657  0.7545 -0.1161  0.1512
   91MOL0     H11952   1.702   8.333   2.548 -1.0960  1.2295 -0.6749
   91MOL0     H11953   1.539   8.507   2.590  0.3823 -0.1688  3.2399
   91MOL0     H11954   1.433   8.400   2.683 -2.7415  4.0254 -1.3049
   91MOL0     H11955   1.530   8.301   2.408 -1.8205 -1.2366 -1.5224
   91MOL0     H11956   1.388   8.249   2.499 -0.4867  0.5010 -1.5669
   91MOL0     H11957   1.391   8.528   2.384  0.1928  0.4366  3.1614
   91MOL0     H11958   1.252   8.435   2.447  0.2282  1.1599  0.8090
   91MOL0     H11959   1.403   8.367   2.184  1.4977 -2.0697  2.5726
   91MOL0     H11960   1.250   8.449   2.193 -1.0858  0.7653  2.6313
   91MOL0     H11961   1.229   8.209   2.139  4.7142 -0.2832 -1.2485
   91MOL0     H11962   1.315   8.170   2.281 -2.9632 -1.8588  2.1379
   91MOL0     H11963   1.110   8.295   2.408 -6.7343  0.9505  0.9672
   91MOL0     H11964   1.080   8.141   2.344  2.0316 -0.1085  4.6098
   91MOL0     H11965   0.862   8.362   2.397 -3.9520  0.1623  0.0436
   91MOL0     H11966   0.651   8.496   2.308 -3.7560  0.1333  0.1092
   91MOL0     H11967   0.608   8.383   2.178 -2.2710  0.5751  0.1999
   91MOL0     H11968   0.646   8.538   2.010  0.7034  1.3556 -0.1387
   91MOL0     H11969   0.745   8.652   2.094 -1.0730  2.1646  1.6748
   91MOL0     H11970   0.518   8.739   2.060  1.4544 -0.8295 -0.5234
   91MOL0     H11971   0.440   8.608   2.143 -0.6614  0.6710  1.6827
   91MOL0     H11972   0.518   8.700   2.362 -1.8046  0.9410  0.4176
   91MOL0     H11973   0.431   8.814   2.269 -2.6978 -1.8069  3.8273
   91MOL0     H11974   0.820   9.013   2.287  0.9585 -3.0876  0.5311
   91MOL0     H11975   0.840   9.211   2.435  1.5584 -2.2304 -1.5520
   91MOL0     H11976   0.611   9.624   2.617 -1.5659 -0.5295  1.8626
   91MOL0     H11977   0.661   9.820   2.746  1.0592  0.1084 -2.7295
   91MOL0     H11978   0.931   9.971   2.740 -1.5418  2.5741  2.0574
   91MOL0     H11979   1.057   9.876   2.816  1.2255  0.6142 -0.6090
   91MOL0     H11980   1.064  10.004   3.016  1.7289 -2.2267 -1.7260
   91MOL0     H11981   0.939  10.109   2.957 -2.1434 -3.6360  0.3927
   91MOL0     H11982   1.156  10.228   2.899  0.0329  0.1491 -0.7460
   91MOL0     H11983   1.119  10.137   2.752 -1.4260 -3.5412 -1.1317
   91MOL0     H11984   1.267  10.084   3.015  3.2539  2.4755  0.8914
   91MOL0     H11985   1.257   9.944   2.898  2.1103  0.9476 -2.1574
   91MOL0     H11986   1.411  10.200   2.881 -1.6357  0.4997  1.3161
   91MOL0     H11987   1.398  10.082   2.751 -3.1543  1.6034  0.2714
   91MOL0     H11988   1.490   9.909   2.913 -1.5549 -0.2808  1.3487
   91MOL0     H11989   1.495  10.040   3.032 -0.2371  2.0176 -0.0797
   91MOL0     H11990   1.667  10.014   2.779 -1.2542 -3.7187  1.2946
   91MOL0     H11991   1.651  10.172   2.861  0.4838 -0.0258 -1.0178
   91MOL0     H11992   1.712  10.058   3.084 -0.7670 -4.2316  1.8256
   91MOL0     H11993   1.844  10.059   2.961 -1.9241  0.9115 -1.1576
   91MOL0     H11994   1.016   9.628   2.894  0.3995  2.1039 -0.6595
   91MOL0     H11995   0.949   9.410   2.790 -1.3033 -0.5005  0.0034
   91MOL0     H11996   0.472   9.115   2.629 -0.4800  2.2017 -1.4581
   91MOL0     H11997   0.451   8.905   2.475 -0.5996  0.0343  0.1820
   91MOL0     H11998   1.476   8.426   3.031  0.5152  2.2328  1.1783
   91MOL0     H11999   1.517   8.453   3.269  1.0518  1.9614  0.0669
   91MOL0     H12000   2.027   8.269   3.668  0.1463 -0.7214  0.3634
   91MOL0     H12001   1.992   8.271   3.906  2.6804  3.9089 -1.1859
   91MOL0     H12002   1.822   8.480   4.188 -0.6388 -0.7096  2.1584
   91MOL0     H12003   1.956   8.433   4.071 -0.6113 -2.6151 -0.9764
   91MOL0     H12004   1.833   8.282   4.304 -0.8647 -2.2065 -2.0928
   91MOL0     H12005   1.943   8.205   4.198 -0.8106  0.9500 -2.6393
   91MOL0     H12006   2.112   8.379   4.243 -1.6243  0.4954 -0.7392
   91MOL0     H12007   2.087   8.253   4.363 -0.3250 -1.2141 -1.3342
   91MOL0     H12008   1.927   8.511   4.385  0.2429  0.5585  1.4718
   91MOL0     H12009   1.960   8.387   4.500 -0.6720 -2.4185 -1.7514
   91MOL0     H12010   2.296   8.644   4.543  1.2932 -1.2642 -2.0286
   91MOL0     H12011   1.587   8.402   3.854  1.3153  1.8348  1.3697
   91MOL0     H12012   1.607   8.412   3.631 -1.7277  0.4972  1.9135
   92MOL0     O12013   7.596   8.159   7.071  0.2161  0.1431  0.3633
   92MOL0     C12014   7.675   8.214   7.144  0.4172  1.1190  0.8824
   92MOL0     O12015   7.738   8.332   7.116  0.0317  0.4517 -0.0016
   92MOL0     C12016   7.683   8.414   7.013  0.8936  0.7094 -0.5569
   92MOL0     C12017   7.555   8.467   7.034 -0.8332  0.0387 -0.7214
   92MOL0     C12018   7.508   8.566   6.947  0.1951 -0.8884  0.7619
   92MOL0     C12019   7.602   8.617   6.851 -0.0215  0.2499  0.7407
   92MOL0     O12020   7.573   8.735   6.790 -0.3032 -0.4339 -0.7719
   92MOL0     C12021   7.680   8.824   6.807  0.4797  0.0289  0.2794
   92MOL0     C12022   7.627   8.971   6.841 -0.3832  0.1332 -0.9398
   92MOL0     C12023   7.562   9.033   6.722 -0.2703 -0.2891  0.2246
   92MOL0     C12024   7.416   9.000   6.686  0.6212 -0.4435  0.5625
   92MOL0     C12025   7.311   9.049   6.785  0.0251  0.3452  0.2191
   92MOL0     C12026   7.272   9.197   6.765 -0.4942 -0.5816 -0.2591
   92MOL0     C12027   7.158   9.241   6.857 -0.7810  0.0111  1.0059
   92MOL0     C12028   7.104   9.383   6.825  0.2450  0.4748  0.5828
   92MOL0     N12029   7.026   9.393   6.697  0.7605  0.3363  0.0887
   92MOL0     C12030   7.071   9.441   6.581 -0.7851 -0.7806  0.7838
   92MOL0     C12031   6.966   9.419   6.495  0.6155 -0.6564 -0.0233
   92MOL0     C12032   6.936   9.469   6.353 -0.2089 -0.7546  0.0313
   92MOL0     C12033   6.931   9.621   6.329  0.1341 -0.5562 -0.0916
   92MOL0     C12034   6.827   9.688   6.415  0.4061 -0.0089  0.8218
   92MOL0     C12035   6.781   9.828   6.353  0.8061  0.1631 -0.7287
   92MOL0     O12036   6.751   9.939   6.449  0.1156  0.6742 -0.1533
   92MOL0     C12037   6.631   9.945   6.522 -0.5213  0.1824 -0.3120
   92MOL0     C12038   6.605  10.067   6.578  0.1627  0.4849  0.2793
   92MOL0     C12039   6.491  10.085   6.658  0.6562 -0.2378 -0.2652
   92MOL0     C12040   6.399   9.978   6.682  0.2379  0.4599  0.3526
   92MOL0     C12041   6.284   9.986   6.774 -0.9903 -0.3999 -0.2751
   92MOL0     O12042   6.237   9.868   6.824  0.0209  0.3842  0.7684
   92MOL0     C12043   6.107   9.879   6.879  0.4144  0.6748  0.2557
   92MOL0     C12044   6.030   9.766   6.853 -0.7876  0.5802 -0.7307
   92MOL0     C12045   5.901   9.748   6.906  0.6474 -0.4196  0.2606
   92MOL0     C12046   5.835   9.843   6.983 -0.6235 -0.4548 -0.3879
   92MOL0     O12047   5.717   9.825   7.043 -0.2265 -0.4234 -0.6584
   92MOL0     C12048   5.627   9.746   6.965 -0.5891 -0.4091 -0.4950
   92MOL0     C12049   5.598   9.805   6.824 -0.9370 -0.5249  0.0946
   92MOL0     C12050   5.522   9.932   6.821 -0.0699  0.3539  0.2607
   92MOL0     C12051   5.479   9.959   6.671  0.2556  0.2891 -0.9648
   92MOL0     C12052   5.462  10.107   6.637  0.5518  0.6126  0.2751
   92MOL0     C12053   5.349  10.177   6.708 -0.6123 -0.0949 -0.2285
   92MOL0     C12054   5.347  10.336   6.687  0.1644  0.8231 -0.0358
   92MOL0     C12055   5.300  10.405   6.818 -0.3110 -0.6229  0.2201
   92MOL0    Cl12056   5.129  10.395   6.855 -0.0301  0.2522 -0.1380
   92MOL0     C12057   5.917   9.953   7.011  0.3741  0.6877 -0.5045
   92MOL0     C12058   6.050   9.968   6.972  0.7832 -0.3482 -0.0980
   92MOL0     O12059   6.242  10.100   6.794  0.7566 -0.5302  1.4213
   92MOL0     C12060   6.434   9.856   6.628  0.3020  0.4449 -0.7783
   92MOL0     C12061   6.550   9.843   6.543  0.7141  0.4084 -0.0202
   92MOL0     N12062   6.860   9.373   6.565  0.0247  0.0596  0.1276
   92MOL0     N12063   6.900   9.360   6.690  0.3251 -0.0264  0.3759
   92MOL0     C12064   7.727   8.552   6.826  0.3456 -0.3489 -0.3367
   92MOL0     C12065   7.770   8.459   6.921  0.8606  0.0214  0.0647
   92MOL0     C12066   7.705   8.130   7.267  0.1639 -0.7926 -0.0701
   92MOL0     C12067   7.635   8.007   7.292 -0.0896  0.0897 -0.0271
   92MOL0     C12068   7.668   7.937   7.410  0.6157 -0.3586 -0.5869
   92MOL0     C12069   7.759   7.990   7.498  0.8036 -0.8470  0.2794
   92MOL0     O12070   7.791   7.913   7.608 -0.8835  0.6170 -0.1968
   92MOL0     C12071   7.806   7.956   7.748  0.1149 -0.5491  0.5720
   92MOL0     C12072   7.825   7.854   7.840 -0.3058 -0.3840 -0.6489
   92MOL0     C12073   7.861   7.891   7.987 -1.0535  0.0450 -0.0085
   92MOL0     C12074   7.743   7.921   8.079  0.2472 -1.4201  0.3883
   92MOL0     C12075   7.777   7.971   8.214 -0.4048 -0.3770  0.0634
   92MOL0     C12076   7.807   8.040   8.304  0.2314 -0.6072 -0.3541
   92MOL0     C12077   7.817   8.119   7.476  0.5110 -0.2312  1.4895
   92MOL0     C12078   7.801   8.178   7.355  0.0969 -0.4770  0.6598
   92MOL0     H12079   7.510   8.429   7.125  1.1143 -3.6622 -1.1411
   92MOL0     H12080   7.413   8.613   6.969  0.5117 -0.1336  0.5421
   92MOL0     H12081   7.733   8.834   6.712  0.1427 -2.1576 -0.1835
   92MOL0     H12082   7.748   8.784   6.883 -0.8899  0.0520  1.5600
   92MOL0     H12083   7.718   9.025   6.867  0.0009 -1.9937  2.9225
   92MOL0     H12084   7.552   8.968   6.921 -1.4929 -1.1037 -1.9830
   92MOL0     H12085   7.625   9.006   6.636  1.0577 -1.7855  1.6061
   92MOL0     H12086   7.574   9.141   6.735 -2.1336  0.4854 -3.1450
   92MOL0     H12087   7.405   9.052   6.590  0.5157  1.0842  1.3828
   92MOL0     H12088   7.403   8.894   6.663 -3.0855  0.6470 -3.8183
   92MOL0     H12089   7.340   9.047   6.890 -1.1415 -0.5600  0.5514
   92MOL0     H12090   7.222   8.986   6.773 -0.0321  0.5978 -0.8066
   92MOL0     H12091   7.241   9.212   6.661 -1.5115  0.8669  0.2294
   92MOL0     H12092   7.360   9.262   6.774 -0.9092  0.7647 -3.9037
   92MOL0     H12093   7.081   9.163   6.861  2.0187 -2.9790  0.4974
   92MOL0     H12094   7.197   9.247   6.959 -1.6771  0.2857  1.3435
   92MOL0     H12095   7.184   9.458   6.822 -0.8539  1.6765 -1.6007
   92MOL0     H12096   7.037   9.400   6.909  1.1260 -1.1149  1.6512
   92MOL0     H12097   7.166   9.486   6.556 -1.2790 -0.6805 -1.0639
   92MOL0     H12098   6.839   9.422   6.333 -1.0289  0.4571  1.0262
   92MOL0     H12099   7.006   9.425   6.282  0.0219  0.5437 -0.5749
   92MOL0     H12100   6.889   9.643   6.231 -0.0092  2.1960  0.4906
   92MOL0     H12101   7.035   9.655   6.341  0.1805 -0.5652 -0.4629
   92MOL0     H12102   6.737   9.628   6.425 -0.3367  0.9409  0.0496
   92MOL0     H12103   6.876   9.706   6.511  1.4374 -0.5396  0.4177
   92MOL0     H12104   6.699   9.811   6.283  1.0224 -0.9096 -0.7433
   92MOL0     H12105   6.865   9.867   6.293  1.3565  0.7637  0.3941
   92MOL0     H12106   6.672  10.150   6.561  1.4950 -0.6475 -0.2033
   92MOL0     H12107   6.472  10.184   6.699  0.6834 -1.1613  2.1795
   92MOL0     H12108   6.075   9.683   6.799  0.4056  0.8916 -0.2574
   92MOL0     H12109   5.859   9.648   6.900 -0.6161  0.1689 -1.7744
   92MOL0     H12110   5.532   9.737   7.018 -1.0805  0.3775 -1.2063
   92MOL0     H12111   5.664   9.643   6.964  2.0260  0.4296  0.9878
   92MOL0     H12112   5.555   9.718   6.773  1.4427 -3.5732  2.7989
   92MOL0     H12113   5.695   9.812   6.772 -2.0206 -1.7291 -2.2913
   92MOL0     H12114   5.579  10.018   6.857  2.1489 -1.5360  1.5315
   92MOL0     H12115   5.434   9.930   6.887 -0.5716  0.4915 -0.3964
   92MOL0     H12116   5.559   9.912   6.614  1.2908  1.4680 -0.5354
   92MOL0     H12117   5.384   9.905   6.669  0.8879 -0.9383  0.1769
   92MOL0     H12118   5.442  10.115   6.530 -0.4659  0.2157  0.4283
   92MOL0     H12119   5.551  10.166   6.663  0.4088  0.7370  0.4819
   92MOL0     H12120   5.354  10.150   6.814  0.5104 -0.4325 -0.3550
   92MOL0     H12121   5.248  10.143   6.683 -1.1268 -0.3751  2.0636
   92MOL0     H12122   5.443  10.374   6.653 -0.0734 -2.0348 -4.7856
   92MOL0     H12123   5.274  10.356   6.608  0.5216  0.9070 -0.3415
   92MOL0     H12124   5.318  10.511   6.799  1.9808 -0.9287  0.3427
   92MOL0     H12125   5.362  10.390   6.907  0.4927 -2.8915 -0.6431
   92MOL0     H12126   5.881  10.019   7.088  0.4208 -1.2230  1.2464
   92MOL0     H12127   6.106  10.047   7.020 -3.7893  3.8617 -0.9403
   92MOL0     H12128   6.368   9.770   6.640 -1.1747  1.3413 -1.9801
   92MOL0     H12129   6.577   9.745   6.505 -4.5533 -1.2162 -0.3613
   92MOL0     H12130   7.783   8.582   6.738 -3.3817 -0.4907 -2.9911
   92MOL0     H12131   7.872   8.427   6.939  1.0657  1.7014  2.3331
   92MOL0     H12132   7.564   7.970   7.219  1.8406 -3.9574 -0.1384
   92MOL0     H12133   7.621   7.839   7.418 -0.9121  0.4259  0.2574
   92MOL0     H12134   7.709   8.005   7.752  1.0323  1.4716 -0.4837
   92MOL0     H12135   7.875   8.036   7.775 -0.6775 -0.7888  3.5753
   92MOL0     H12136   7.737   7.789   7.851 -0.8201  0.1759 -1.3476
   92MOL0     H12137   7.907   7.789   7.807 -0.8213 -1.0046 -0.7300
   92MOL0     H12138   7.931   7.975   7.987  0.8479 -1.4529  1.4063
   92MOL0     H12139   7.928   7.815   8.030  1.4007  2.8541  1.4711
   92MOL0     H12140   7.682   7.999   8.032 -1.1457 -0.4125  3.5399
   92MOL0     H12141   7.686   7.829   8.092 -2.7103  0.2040 -0.1377
   92MOL0     H12142   7.849   8.105   8.380  0.0707 -1.5072  0.5266
   92MOL0     H12143   7.895   8.152   7.544  2.0333  2.0573 -1.1558
   92MOL0     H12144   7.859   8.266   7.329 -0.1168 -1.4649 -4.0561
   93MOL0     O12145   2.550   5.174   9.293 -0.3554  0.2613 -1.4482
   93MOL0     C12146   2.610   5.098   9.373  0.2360  0.5020 -0.5499
   93MOL0     O12147   2.581   4.960   9.386 -0.0721  0.0374  0.3028
   93MOL0     C12148   2.501   4.905   9.285  0.0703  1.0066 -0.0072
   93MOL0     C12149   2.363   4.938   9.278  0.0398  1.0185 -0.3106
   93MOL0     C12150   2.285   4.895   9.173 -0.2090 -0.4469  0.5150
   93MOL0     C12151   2.333   4.802   9.080  0.1916 -0.0704  0.7180
   93MOL0     O12152   2.264   4.756   8.967 -1.1133 -0.0516 -0.0932
   93MOL0     C12153   2.182   4.845   8.887 -0.5917 -0.4573 -0.3859
   93MOL0     C12154   2.214   4.849   8.742 -1.0083  0.0385 -0.0141
   93MOL0     C12155   2.359   4.904   8.710  0.7464 -0.7179  0.1183
   93MOL0     C12156   2.380   5.047   8.744 -0.4665 -0.0425  0.4849
   93MOL0     C12157   2.489   5.069   8.848  0.2354  0.3370 -0.1725
   93MOL0     C12158   2.635   5.033   8.808  0.2449  0.1227  0.9019
   93MOL0     C12159   2.750   5.094   8.899 -0.3810  0.2054  0.3792
   93MOL0     C12160   2.747   5.043   9.037  0.2277  0.2696  0.0317
   93MOL0     N12161   2.849   5.086   9.131  0.2156 -0.1285 -0.4559
   93MOL0     C12162   2.883   5.219   9.165  0.2346 -0.0945 -0.2402
   93MOL0     C12163   2.991   5.203   9.245  0.4125  0.8280 -0.7866
   93MOL0     C12164   3.074   5.308   9.328  1.0063 -0.1500  0.3407
   93MOL0     C12165   3.191   5.251   9.385  0.5947 -0.0017  0.3016
   93MOL0     C12166   3.287   5.359   9.442  0.5383  0.1245 -0.6977
   93MOL0     C12167   3.238   5.422   9.570 -0.4853 -0.3074 -0.9810
   93MOL0     O12168   3.331   5.517   9.618  0.1784 -0.4270  0.2480
   93MOL0     C12169   3.310   5.597   9.717 -0.2350  0.1560 -0.4225
   93MOL0     C12170   3.413   5.682   9.768 -0.3389 -0.0076 -0.3027
   93MOL0     C12171   3.393   5.759   9.882  0.6820 -0.2179 -0.1683
   93MOL0     C12172   3.274   5.749   9.964  0.2929  0.1185  0.9738
   93MOL0     C12173   3.244   5.810  10.103 -0.5651  0.0062  0.1108
   93MOL0     O12174   3.122   5.798  10.161 -0.6215  0.8566 -0.0461
   93MOL0     C12175   3.100   5.824  10.291  0.0920  0.2580 -1.5849
   93MOL0     C12176   2.963   5.824  10.334 -0.2684 -1.2629  0.3020
   93MOL0     C12177   2.930   5.837  10.466 -0.2687 -0.3728 -0.5606
   93MOL0     C12178   3.028   5.865  10.569  0.2079  0.2139  0.0707
   93MOL0     O12179   2.992   5.890  10.703 -0.0275 -0.0290  0.5973
   93MOL0     C12180   2.887   5.983  10.723  0.3563 -0.1449 -0.0726
   93MOL0     C12181   2.916   6.066  10.851 -0.4355  1.0427 -0.3583
   93MOL0     C12182   2.788   6.106  10.926 -0.2323  0.2001  1.3670
   93MOL0     C12183   2.689   6.175  10.833  0.2784 -0.4099  0.2710
   93MOL0     C12184   2.547   6.197  10.882 -0.5408 -0.9635 -0.4179
   93MOL0     C12185   2.532   6.224  11.042  0.4095 -0.5861  0.2177
   93MOL0     C12186   2.573   6.370  11.073  0.1217 -0.1779  0.0607
   93MOL0     C12187   2.684   6.386  11.179 -0.2966  0.1908 -0.3403
   93MOL0    Cl12188   2.682   6.571  11.190  0.1505  0.1664 -0.3230
   93MOL0     C12189   3.161   5.863  10.529 -0.6898  0.1278 -0.5369
   93MOL0     C12190   3.195   5.845  10.397  0.1971  0.1824 -0.2276
   93MOL0     O12191   3.343   5.871  10.156  0.4198 -0.8510 -0.1510
   93MOL0     C12192   3.172   5.659   9.914 -0.6668 -0.2314 -0.1538
   93MOL0     C12193   3.185   5.601   9.788  0.4834 -0.0347 -1.0939
   93MOL0     N12194   3.015   5.065   9.261  0.1056 -0.3182 -0.3594
   93MOL0     N12195   2.936   4.993   9.186 -0.3221  0.7535  0.4652
   93MOL0     C12196   2.467   4.764   9.093  0.7156  0.6098 -0.1109
   93MOL0     C12197   2.552   4.819   9.189  1.0089  0.1167  0.3339
   93MOL0     C12198   2.706   5.150   9.470 -2.3476  0.2943  0.1418
   93MOL0     C12199   2.726   5.277   9.519 -0.1468  0.0735  0.7805
   93MOL0     C12200   2.825   5.317   9.606 -0.6977  0.8950  0.4643
   93MOL0     C12201   2.906   5.224   9.677 -0.5697 -0.5837  0.0396
   93MOL0     O12202   2.996   5.264   9.774 -0.2671  0.4997  0.3545
   93MOL0     C12203   2.965   5.249   9.910  0.3448 -1.3714 -0.3886
   93MOL0     C12204   2.822   5.300   9.949 -0.5231  0.6463 -0.5541
   93MOL0     C12205   2.810   5.451   9.955 -0.5746 -0.2798 -0.0258
   93MOL0     C12206   2.713   5.496  10.066 -0.1898 -1.0864  0.1748
   93MOL0     C12207   2.694   5.640  10.079  0.0775 -0.3162  0.1171
   93MOL0     C12208   2.666   5.759  10.075  1.1817 -0.4306 -0.7808
   93MOL0     C12209   2.901   5.091   9.627  0.4158 -0.0929 -0.1309
   93MOL0     C12210   2.800   5.051   9.530 -0.9967 -0.0432 -0.6304
   93MOL0     H12211   2.344   5.005   9.361 -0.7579 -0.7119  0.9657
   93MOL0     H12212   2.185   4.934   9.164 -0.9097 -2.4507 -1.1973
   93MOL0     H12213   2.167   4.945   8.927  2.0767 -1.0227  2.3943
   93MOL0     H12214   2.085   4.794   8.886 -0.4395 -0.7538 -0.2977
   93MOL0     H12215   2.128   4.896   8.693 -1.7355  0.5569  1.6889
   93MOL0     H12216   2.221   4.746   8.707  0.6495 -0.2801  1.1605
   93MOL0     H12217   2.371   4.891   8.602 -1.2579 -0.2853 -0.1857
   93MOL0     H12218   2.433   4.834   8.749  0.9257  0.7579  2.6536
   93MOL0     H12219   2.406   5.100   8.652 -0.6022  3.5091  2.3094
   93MOL0     H12220   2.288   5.095   8.780 -1.3154 -1.2872  0.0593
   93MOL0     H12221   2.468   5.005   8.934  0.5023 -1.4007 -1.3487
   93MOL0     H12222   2.475   5.176   8.864 -2.9831  0.1201 -0.8097
   93MOL0     H12223   2.650   5.065   8.705 -0.3799 -0.5132  0.6037
   93MOL0     H12224   2.643   4.924   8.800 -2.2652 -0.1162  0.7902
   93MOL0     H12225   2.846   5.069   8.853  0.2827  0.7946  1.3895
   93MOL0     H12226   2.738   5.203   8.903  1.0545  0.5133 -1.9074
   93MOL0     H12227   2.743   4.933   9.034  0.8299  0.2314  0.3287
   93MOL0     H12228   2.655   5.071   9.089  0.1206  1.5430 -0.8111
   93MOL0     H12229   2.824   5.307   9.143  0.2873  0.0074  0.0211
   93MOL0     H12230   3.015   5.347   9.411  2.1656  1.6768  0.3506
   93MOL0     H12231   3.099   5.391   9.262 -1.2953  0.2818 -0.0703
   93MOL0     H12232   3.249   5.196   9.310  1.9260  0.2179  1.1241
   93MOL0     H12233   3.165   5.189   9.472 -2.1500  2.1802  1.1845
   93MOL0     H12234   3.378   5.307   9.472 -1.3830 -1.0182  4.0127
   93MOL0     H12235   3.310   5.442   9.374 -1.0815  1.6105  0.4835
   93MOL0     H12236   3.231   5.346   9.648  0.3715  0.8195  0.2300
   93MOL0     H12237   3.150   5.482   9.546  0.8657  2.3144  0.2426
   93MOL0     H12238   3.514   5.678   9.727 -0.4921 -3.4754 -0.6365
   93MOL0     H12239   3.479   5.816   9.917  0.2689  0.6666 -0.5533
   93MOL0     H12240   2.892   5.814  10.252  1.0944  1.6840 -1.4259
   93MOL0     H12241   2.824   5.828  10.491  0.1203 -1.2821  0.8573
   93MOL0     H12242   2.792   5.929  10.723  0.7327 -0.9168  2.1675
   93MOL0     H12243   2.856   6.048  10.640 -1.8677 -1.9553 -0.7697
   93MOL0     H12244   2.981   6.151  10.829  3.4102 -2.4163 -4.1728
   93MOL0     H12245   2.977   6.005  10.918 -1.8731  1.7850  1.7136
   93MOL0     H12246   2.828   6.178  10.998  1.5520  1.0885 -0.4060
   93MOL0     H12247   2.747   6.018  10.976 -4.6742 -0.6506 -2.9583
   93MOL0     H12248   2.733   6.270  10.803 -1.0914  0.3982  0.7384
   93MOL0     H12249   2.680   6.114  10.742  1.5627  1.2796 -1.0544
   93MOL0     H12250   2.491   6.104  10.869  1.7420 -2.5736  0.6471
   93MOL0     H12251   2.494   6.280  10.835  0.0069  0.7134  1.7707
   93MOL0     H12252   2.587   6.148  11.097 -1.3448 -1.5375  0.7260
   93MOL0     H12253   2.424   6.211  11.056  0.8071 -2.3866  1.9739
   93MOL0     H12254   2.604   6.407  10.974 -0.9293 -0.3417 -0.3401
   93MOL0     H12255   2.491   6.434  11.105  2.1448  1.5364  2.1167
   93MOL0     H12256   2.781   6.347  11.147 -1.0243 -2.7419  0.6499
   93MOL0     H12257   2.657   6.351  11.279  1.2365  0.1611  0.0787
   93MOL0     H12258   3.233   5.871  10.610  0.8392 -1.6226 -1.6315
   93MOL0     H12259   3.299   5.844  10.367  0.5936 -0.8837  1.0864
   93MOL0     H12260   3.078   5.650   9.968 -0.6359  1.1239  0.1564
   93MOL0     H12261   3.099   5.543   9.757 -1.4656  1.1544  1.6776
   93MOL0     H12262   2.500   4.698   9.013 -1.3176 -2.6893  1.5700
   93MOL0     H12263   2.657   4.791   9.202  0.9814  0.9896  2.8306
   93MOL0     H12264   2.652   5.340   9.471 -2.4670 -2.7300  0.3334
   93MOL0     H12265   2.838   5.420   9.637  1.1946  0.2473  2.0328
   93MOL0     H12266   3.042   5.308   9.960 -0.4007 -0.5715 -0.1670
   93MOL0     H12267   2.980   5.144   9.940  0.5779 -1.3826 -0.5346
   93MOL0     H12268   2.748   5.254   9.883  1.3919 -4.0020  0.1245
   93MOL0     H12269   2.801   5.268  10.052  1.6789  1.9500  0.3796
   93MOL0     H12270   2.752   5.482   9.868  2.5376  0.6385 -1.9535
   93MOL0     H12271   2.910   5.496   9.952 -0.2404 -0.9306  0.8975
   93MOL0     H12272   2.615   5.454  10.045 -1.3610  1.2898  0.5369
   93MOL0     H12273   2.743   5.457  10.164  2.1838  1.4589  0.5984
   93MOL0     H12274   2.638   5.861  10.059 -2.4586 -1.0524  0.8221
   93MOL0     H12275   2.957   5.014   9.680  0.8385 -0.8346 -1.6177
   93MOL0     H12276   2.807   4.948   9.500  1.7474 -0.1340  0.0017
   94MOL0     O12277   3.676   4.179   4.055 -0.6249 -0.3593  0.4731
   94MOL0     C12278   3.717   4.065   4.087  0.5112  0.1892 -0.3196
   94MOL0     O12279   3.727   4.020   4.215 -0.5978 -0.6725 -0.0511
   94MOL0     C12280   3.678   4.076   4.332 -0.4874 -0.6188  0.0640
   94MOL0     C12281   3.563   4.162   4.338  0.2948  0.5801  0.2681
   94MOL0     C12282   3.531   4.223   4.462 -0.4325 -0.0561 -0.8740
   94MOL0     C12283   3.598   4.175   4.581 -0.7022  0.1963 -0.3993
   94MOL0     O12284   3.558   4.228   4.701  0.8300 -0.3862  0.0905
   94MOL0     C12285   3.481   4.150   4.785 -0.5568 -0.0615  0.2844
   94MOL0     C12286   3.539   4.151   4.921 -0.1580  0.9620 -0.2550
   94MOL0     C12287   3.516   4.278   5.000 -0.1876  0.4521  0.0297
   94MOL0     C12288   3.370   4.312   5.019 -0.1989  0.4392 -0.5242
   94MOL0     C12289   3.371   4.443   5.117 -0.3952  0.8108 -0.0355
   94MOL0     C12290   3.342   4.414   5.269 -0.7687  0.3366  0.6495
   94MOL0     C12291   3.201   4.349   5.280 -0.1613 -0.4256 -0.0256
   94MOL0     C12292   3.110   4.393   5.399  0.5227 -0.5679 -0.5627
   94MOL0     N12293   2.966   4.358   5.370 -0.0139 -0.7455 -0.8590
   94MOL0     C12294   2.868   4.432   5.318 -0.8168  0.8744  0.0971
   94MOL0     C12295   2.758   4.355   5.310  0.8765  0.8463 -0.8918
   94MOL0     C12296   2.623   4.405   5.249 -0.1588  0.0711  0.5189
   94MOL0     C12297   2.553   4.287   5.182 -0.2357 -0.4855 -0.1852
   94MOL0     C12298   2.611   4.217   5.057 -0.0794 -0.8448  0.2034
   94MOL0     C12299   2.746   4.146   5.070  0.7147 -0.4950 -0.5487
   94MOL0     O12300   2.795   4.065   4.964  0.0584 -0.2099  0.2887
   94MOL0     C12301   2.728   3.955   4.925 -0.2886  0.4506 -0.1563
   94MOL0     C12302   2.782   3.891   4.816  0.5649  1.9548 -0.1625
   94MOL0     C12303   2.728   3.762   4.782  0.6093  0.7677  0.6160
   94MOL0     C12304   2.638   3.691   4.856  0.1334 -0.0671 -0.2164
   94MOL0     C12305   2.595   3.550   4.826 -0.8004  0.4422  0.4038
   94MOL0     O12306   2.608   3.515   4.698 -1.0285  0.1050  0.1605
   94MOL0     C12307   2.597   3.384   4.662 -0.4325  0.1240  0.2256
   94MOL0     C12308   2.482   3.309   4.675 -0.5952  0.2809 -0.7096
   94MOL0     C12309   2.482   3.182   4.619 -0.3521 -0.2747 -0.8424
   94MOL0     C12310   2.590   3.127   4.556  0.8043  0.0572  0.2625
   94MOL0     O12311   2.597   3.005   4.495  0.0969  0.9570 -0.3136
   94MOL0     C12312   2.496   2.902   4.526 -0.3016  0.3390  0.5302
   94MOL0     C12313   2.568   2.765   4.503  0.5127 -0.3626 -0.6569
   94MOL0     C12314   2.572   2.712   4.360  0.0846 -0.0276 -0.3368
   94MOL0     C12315   2.709   2.712   4.299  0.4294  0.5831  0.9252
   94MOL0     C12316   2.830   2.655   4.370 -0.2845 -0.0378 -0.4584
   94MOL0     C12317   2.964   2.672   4.267  0.3155  0.5568 -0.4877
   94MOL0     C12318   3.071   2.771   4.318 -0.1424  0.9624 -0.1323
   94MOL0     C12319   3.017   2.912   4.333  0.5871 -0.1955 -0.0559
   94MOL0    Cl12320   3.003   2.986   4.172 -0.2771 -0.1118 -0.4365
   94MOL0     C12321   2.698   3.214   4.534  0.6393  1.0501  0.4953
   94MOL0     C12322   2.703   3.344   4.583  0.2606 -0.0620  0.5087
   94MOL0     O12323   2.538   3.471   4.913  0.3534  0.0660  0.7602
   94MOL0     C12324   2.598   3.749   4.981 -0.3431 -0.4653  1.0972
   94MOL0     C12325   2.633   3.881   5.011 -0.4021  0.2273 -0.3620
   94MOL0     N12326   2.794   4.233   5.378  0.9938 -0.5160  0.8480
   94MOL0     N12327   2.915   4.233   5.410  0.8516 -0.0461 -0.7685
   94MOL0     C12328   3.702   4.079   4.574 -0.5088  0.9508  0.3902
   94MOL0     C12329   3.751   4.043   4.446 -0.2276  0.6845  0.4913
   94MOL0     C12330   3.790   3.988   3.980  0.5958 -0.6378 -0.0782
   94MOL0     C12331   3.799   3.850   4.001 -0.1864  0.1399  0.1137
   94MOL0     C12332   3.855   3.775   3.891 -0.1804  0.0117 -0.7827
   94MOL0     C12333   3.921   3.826   3.788  0.3353 -0.2466 -0.1744
   94MOL0     O12334   3.976   3.732   3.710 -0.1010 -0.4273  0.4987
   94MOL0     C12335   4.053   3.767   3.591  0.0180 -0.0925 -0.0281
   94MOL0     C12336   3.960   3.790   3.482  1.6298 -0.9552 -0.1755
   94MOL0     C12337   3.873   3.673   3.458  1.2665 -0.7631  0.3187
   94MOL0     C12338   3.803   3.696   3.326  0.6892  0.2253  0.1060
   94MOL0     C12339   3.710   3.586   3.294  0.3682  0.3002 -0.5844
   94MOL0     C12340   3.632   3.496   3.295 -0.0785  0.6245 -0.1406
   94MOL0     C12341   3.912   3.967   3.774  1.5077  0.3546  0.5747
   94MOL0     C12342   3.846   4.046   3.871  0.6457 -0.6103 -0.3711
   94MOL0     H12343   3.519   4.199   4.246  1.2708 -0.1035 -0.5059
   94MOL0     H12344   3.460   4.304   4.475 -3.4434 -2.8847  2.3806
   94MOL0     H12345   3.467   4.044   4.760 -1.8010 -0.5046  2.5776
   94MOL0     H12346   3.381   4.195   4.790  0.3129  1.9457  0.3671
   94MOL0     H12347   3.647   4.130   4.921 -0.6293 -2.1500  1.4277
   94MOL0     H12348   3.506   4.058   4.969  0.3143  0.7293 -0.3709
   94MOL0     H12349   3.572   4.352   4.944 -1.2177 -0.6933 -2.6763
   94MOL0     H12350   3.564   4.251   5.095 -1.6907 -0.1854  0.6527
   94MOL0     H12351   3.323   4.337   4.923  1.1890 -0.1804 -1.4024
   94MOL0     H12352   3.306   4.241   5.072  0.8648  1.5854  2.4727
   94MOL0     H12353   3.294   4.516   5.090  1.6929  3.5774  0.9746
   94MOL0     H12354   3.468   4.494   5.112 -0.3411  0.6191 -1.3554
   94MOL0     H12355   3.346   4.516   5.309  0.7754  0.9298 -0.9043
   94MOL0     H12356   3.423   4.360   5.318 -1.4213  1.1967  2.7570
   94MOL0     H12357   3.154   4.363   5.182  0.0348  1.8525  0.1411
   94MOL0     H12358   3.214   4.241   5.289  0.6175 -0.7839 -3.6317
   94MOL0     H12359   3.119   4.500   5.419 -1.6388 -0.5935  0.8448
   94MOL0     H12360   3.137   4.338   5.489 -3.8983  0.7547  1.9065
   94MOL0     H12361   2.871   4.535   5.284 -0.1007  1.6356  2.2924
   94MOL0     H12362   2.637   4.491   5.183  2.2542 -0.3253  0.4400
   94MOL0     H12363   2.551   4.430   5.328  0.8751 -1.7447  2.1306
   94MOL0     H12364   2.456   4.320   5.145 -0.7604 -1.2785  0.4390
   94MOL0     H12365   2.528   4.210   5.256 -2.0516 -0.2203 -0.4716
   94MOL0     H12366   2.524   4.164   5.017  0.1910 -0.8593 -0.3701
   94MOL0     H12367   2.632   4.282   4.972  0.1265  2.3223  2.5309
   94MOL0     H12368   2.732   4.080   5.156 -0.0919  0.5188  0.1327
   94MOL0     H12369   2.828   4.212   5.097  0.7026  0.0806 -1.8086
   94MOL0     H12370   2.848   3.947   4.751  0.6114  1.1583 -0.8185
   94MOL0     H12371   2.751   3.702   4.695  5.4473  1.2872  1.2831
   94MOL0     H12372   2.396   3.350   4.727 -1.4468  2.7650 -3.7901
   94MOL0     H12373   2.390   3.124   4.618 -1.4639  1.4505 -0.8935
   94MOL0     H12374   2.410   2.903   4.458  0.9500  3.0586 -1.2317
   94MOL0     H12375   2.470   2.908   4.632 -0.5910 -1.5432  0.6023
   94MOL0     H12376   2.511   2.695   4.565  1.1120  1.2802  1.8939
   94MOL0     H12377   2.665   2.768   4.553 -0.5837  0.0985  1.6140
   94MOL0     H12378   2.507   2.777   4.301 -0.9032  1.1766  1.9498
   94MOL0     H12379   2.531   2.611   4.351 -0.8089  0.4931 -3.1358
   94MOL0     H12380   2.698   2.665   4.200  3.1385  1.8221 -0.0514
   94MOL0     H12381   2.734   2.815   4.275  0.0025  0.4714 -0.0412
   94MOL0     H12382   2.814   2.549   4.393  0.5505 -0.0145  0.2917
   94MOL0     H12383   2.842   2.706   4.465  0.4143  0.3905 -0.7618
   94MOL0     H12384   2.919   2.708   4.174 -1.4414  0.1488  0.1551
   94MOL0     H12385   2.999   2.569   4.257  3.8358  1.0264  3.8218
   94MOL0     H12386   3.107   2.740   4.417  2.7146  1.3951 -0.9463
   94MOL0     H12387   3.161   2.765   4.256 -0.4494  0.4770 -0.5334
   94MOL0     H12388   3.096   2.956   4.395  3.0227 -0.1669 -2.9443
   94MOL0     H12389   2.925   2.909   4.391  0.5422 -0.8651 -0.1480
   94MOL0     H12390   2.783   3.187   4.472 -0.0374  1.1728 -0.5235
   94MOL0     H12391   2.791   3.404   4.565 -1.0677  2.1535  0.9545
   94MOL0     H12392   2.526   3.702   5.048 -2.9555 -0.4708 -1.5013
   94MOL0     H12393   2.572   3.933   5.085  0.8992  2.3315 -0.6736
   94MOL0     H12394   3.751   4.031   4.658 -0.9817 -0.8656 -0.3105
   94MOL0     H12395   3.836   3.977   4.436  0.7940  2.3039 -2.5193
   94MOL0     H12396   3.771   3.803   4.095  2.5804 -0.0219  0.9431
   94MOL0     H12397   3.848   3.667   3.905  1.0788 -0.1385 -1.1724
   94MOL0     H12398   4.125   3.686   3.578 -2.8077 -3.2997  2.3572
   94MOL0     H12399   4.103   3.863   3.608  0.8344 -0.0098 -2.4919
   94MOL0     H12400   3.910   3.885   3.501  2.4135 -0.4168 -0.7602
   94MOL0     H12401   4.028   3.815   3.400  2.0449  0.9631  0.6970
   94MOL0     H12402   3.804   3.655   3.540  1.3822 -1.9609  0.1700
   94MOL0     H12403   3.944   3.590   3.450  1.4813 -0.6348  0.8748
   94MOL0     H12404   3.748   3.790   3.334 -1.2468 -1.0259  3.5941
   94MOL0     H12405   3.888   3.704   3.257  0.7102 -0.0765  0.0960
   94MOL0     H12406   3.550   3.428   3.288  0.1909 -0.0116  2.1739
   94MOL0     H12407   3.955   4.023   3.690 -2.2744  0.8564 -1.2539
   94MOL0     H12408   3.820   4.150   3.854 -1.7533 -1.8100 -6.2197
   95MOL0     O12409   4.435   2.329   2.394  0.4701  0.4367 -0.4283
   95MOL0     C12410   4.358   2.246   2.438 -0.9852 -0.3558  0.3834
   95MOL0     O12411   4.351   2.105   2.407 -0.1494 -0.2276  0.9087
   95MOL0     C12412   4.436   2.080   2.296  0.2195 -0.2843 -1.0989
   95MOL0     C12413   4.375   2.053   2.171  0.2004  0.4666  0.1064
   95MOL0     C12414   4.451   2.041   2.050  0.4542 -0.1485  0.8514
   95MOL0     C12415   4.591   2.056   2.052  0.2317  0.8402  0.1866
   95MOL0     O12416   4.655   2.068   1.930  0.6377  0.5836  0.2818
   95MOL0     C12417   4.790   2.034   1.924  0.0320  0.5333  0.0550
   95MOL0     C12418   4.878   2.161   1.926  0.5506  0.6263 -0.1235
   95MOL0     C12419   5.028   2.129   1.889  0.5048 -0.0209  0.8236
   95MOL0     C12420   5.119   2.249   1.938  1.0051 -0.1017 -0.0018
   95MOL0     C12421   5.259   2.255   1.900 -0.6059 -0.1971  0.1135
   95MOL0     C12422   5.328   2.388   1.934  0.5470  0.8555 -0.0257
   95MOL0     C12423   5.281   2.517   1.858 -0.3596  0.4400 -0.9141
   95MOL0     C12424   5.278   2.495   1.710  0.1703 -0.0154 -0.1755
   95MOL0     N12425   5.405   2.431   1.654  0.0464 -1.2965 -0.1732
   95MOL0     C12426   5.398   2.335   1.555 -0.6164 -0.3291 -0.0535
   95MOL0     C12427   5.529   2.315   1.516  0.2570  0.7485 -0.4015
   95MOL0     C12428   5.573   2.225   1.401 -0.0136 -0.0246 -0.0297
   95MOL0     C12429   5.696   2.286   1.333  0.2859 -0.3007 -0.2545
   95MOL0     C12430   5.726   2.212   1.200 -0.1129 -0.4878  1.3189
   95MOL0     C12431   5.797   2.078   1.226  0.5142 -0.1808 -0.4154
   95MOL0     O12432   5.835   2.036   1.094  1.0003 -0.2168 -0.6635
   95MOL0     C12433   5.813   1.907   1.065 -0.7606  0.2578  0.0570
   95MOL0     C12434   5.915   1.832   1.014 -0.8974  1.0030 -0.0175
   95MOL0     C12435   5.896   1.700   0.956 -0.3877  0.3008 -0.7552
   95MOL0     C12436   5.769   1.643   0.949 -0.1194 -0.4775 -0.5303
   95MOL0     C12437   5.738   1.510   0.895 -0.0899 -1.7569 -0.8685
   95MOL0     O12438   5.835   1.415   0.891  0.6454  0.6134  0.0975
   95MOL0     C12439   5.815   1.306   0.811  0.2948  0.4133 -0.4206
   95MOL0     C12440   5.725   1.210   0.861 -0.0318 -1.2595  0.1562
   95MOL0     C12441   5.723   1.085   0.800  0.5304 -0.0552 -0.0377
   95MOL0     C12442   5.793   1.053   0.683 -0.1318  0.6428  0.6707
   95MOL0     O12443   5.775   0.925   0.634 -0.6391 -0.0134  0.0519
   95MOL0     C12444   5.715   0.920   0.508  0.0164 -0.6870 -0.4474
   95MOL0     C12445   5.703   0.771   0.455  0.0066 -0.1844 -0.3746
   95MOL0     C12446   5.703   0.743   0.304  0.4992 -0.4431  0.0248
   95MOL0     C12447   5.566   0.772   0.237 -0.5505 -0.1727  0.2425
   95MOL0     C12448   5.551   0.730   0.089 -0.2704 -0.5172 -0.1531
   95MOL0     C12449   5.561   0.576   0.069 -0.0771 -0.1424  0.6026
   95MOL0     C12450   5.420   0.505   0.074 -1.4741 -0.1972 -1.1210
   95MOL0     C12451   5.421   0.385  -0.010 -0.2611 -0.3866  0.0820
   95MOL0    Cl12452   5.533   0.246   0.046  0.2483 -0.5015  0.4646
   95MOL0     C12453   5.873   1.155   0.629  1.0252  0.3054  0.3069
   95MOL0     C12454   5.891   1.278   0.695  0.2712 -0.5417 -0.7939
   95MOL0     O12455   5.637   1.512   0.831 -0.1301 -0.4959 -0.1954
   95MOL0     C12456   5.667   1.729   1.001  0.6669 -0.1414 -0.4751
   95MOL0     C12457   5.686   1.857   1.058  0.2747  0.3722  0.4785
   95MOL0     N12458   5.615   2.388   1.603  0.9728 -0.6639  0.6402
   95MOL0     N12459   5.539   2.461   1.684 -0.5318 -0.6174  0.8068
   95MOL0     C12460   4.647   2.079   2.177 -0.5760  0.2911  0.1763
   95MOL0     C12461   4.580   2.094   2.294 -0.0396 -0.0206 -0.0871
   95MOL0     C12462   4.280   2.297   2.558 -0.0005  0.0578 -0.1499
   95MOL0     C12463   4.289   2.435   2.607 -0.1406  0.9109  0.7444
   95MOL0     C12464   4.227   2.467   2.724 -0.5472 -0.0995 -0.7447
   95MOL0     C12465   4.160   2.371   2.798 -0.5994 -0.4860 -0.2721
   95MOL0     O12466   4.096   2.423   2.905 -0.4107 -0.5956 -0.3452
   95MOL0     C12467   4.034   2.330   2.997 -0.0287 -0.4178 -0.4961
   95MOL0     C12468   3.952   2.411   3.100  0.4739 -0.6499 -0.6073
   95MOL0     C12469   3.879   2.533   3.048  0.5243  0.3292 -0.1750
   95MOL0     C12470   3.781   2.493   2.935  0.2483  0.3188 -0.2168
   95MOL0     C12471   3.727   2.616   2.870 -0.6045  0.4861 -0.2522
   95MOL0     C12472   3.660   2.696   2.806 -0.8380  0.2663 -0.8270
   95MOL0     C12473   4.163   2.243   2.759  0.5723 -0.5219 -1.6456
   95MOL0     C12474   4.222   2.201   2.644  0.0536  1.1131 -0.4241
   95MOL0     H12475   4.273   2.017   2.171  0.4834 -0.4271  1.3409
   95MOL0     H12476   4.404   2.013   1.957  1.3263  1.6438 -0.1879
   95MOL0     H12477   4.818   1.993   1.827  1.0850  2.5094 -0.5453
   95MOL0     H12478   4.817   1.970   2.008 -0.1852  4.3625  3.3913
   95MOL0     H12479   4.874   2.211   2.023 -0.8488 -1.6927  1.0957
   95MOL0     H12480   4.846   2.239   1.856  3.1987  1.8170 -0.1303
   95MOL0     H12481   5.039   2.120   1.780 -2.6523  4.2837 -0.1282
   95MOL0     H12482   5.069   2.047   1.947  0.6204 -2.0576 -1.9051
   95MOL0     H12483   5.079   2.331   1.879  1.8542  1.6293  1.7233
   95MOL0     H12484   5.111   2.263   2.046  1.6654 -1.9931  0.3367
   95MOL0     H12485   5.269   2.237   1.792 -1.1177 -0.8792  0.1691
   95MOL0     H12486   5.327   2.180   1.942  1.4884  2.4585  1.7989
   95MOL0     H12487   5.433   2.369   1.911  0.0842 -0.5887 -1.1135
   95MOL0     H12488   5.322   2.407   2.041 -0.0433 -3.6687  0.9447
   95MOL0     H12489   5.180   2.540   1.892  1.4585  2.4559  4.0014
   95MOL0     H12490   5.346   2.600   1.887  0.9951 -0.9425  0.1547
   95MOL0     H12491   5.263   2.592   1.662 -1.4171  0.3451  0.9741
   95MOL0     H12492   5.194   2.432   1.679 -0.4543  1.1241 -0.8406
   95MOL0     H12493   5.313   2.293   1.503 -0.9382 -0.3679  0.4985
   95MOL0     H12494   5.494   2.226   1.325  1.9809  0.8969 -2.2038
   95MOL0     H12495   5.593   2.126   1.444  1.4996  0.3336  0.1550
   95MOL0     H12496   5.779   2.278   1.404  3.0393  0.1937 -3.1369
   95MOL0     H12497   5.663   2.389   1.316 -0.7849 -0.2941  1.6135
   95MOL0     H12498   5.638   2.180   1.144  0.7201 -3.9227  1.7170
   95MOL0     H12499   5.787   2.276   1.136  0.2290 -0.8653  1.2545
   95MOL0     H12500   5.740   2.000   1.277 -0.3923  1.3721  1.0701
   95MOL0     H12501   5.882   2.100   1.290 -1.3231  0.7533  1.8404
   95MOL0     H12502   6.012   1.880   1.011 -0.8140  0.8869  0.8117
   95MOL0     H12503   5.962   1.634   0.900 -2.8771 -2.9096 -0.2327
   95MOL0     H12504   5.662   1.213   0.949 -1.4446  0.4881 -0.8396
   95MOL0     H12505   5.665   1.004   0.843  0.2471  0.0728 -0.1760
   95MOL0     H12506   5.791   0.971   0.448  2.2042 -1.6376  1.3885
   95MOL0     H12507   5.619   0.972   0.514  1.1180  1.3535  3.1982
   95MOL0     H12508   5.608   0.732   0.492 -2.8227  5.1206 -1.0211
   95MOL0     H12509   5.781   0.706   0.496 -0.7717 -1.9249 -1.5100
   95MOL0     H12510   5.732   0.638   0.294 -0.1476 -0.8134  1.6631
   95MOL0     H12511   5.765   0.818   0.254 -2.0962  0.9374 -1.3707
   95MOL0     H12512   5.479   0.727   0.284 -1.9217  3.2521  1.3373
   95MOL0     H12513   5.546   0.880   0.238 -3.4718 -0.5237  4.2382
   95MOL0     H12514   5.628   0.780   0.031  0.5229 -0.8949  0.5593
   95MOL0     H12515   5.454   0.765   0.051  1.5690 -1.9577 -7.8819
   95MOL0     H12516   5.614   0.516   0.144 -1.5531 -1.6852  0.4711
   95MOL0     H12517   5.617   0.571  -0.024  0.3634  1.9509  0.7162
   95MOL0     H12518   5.387   0.477   0.175 -0.3561  1.2588 -0.2975
   95MOL0     H12519   5.352   0.581   0.035  0.1265  0.7759 -2.1442
   95MOL0     H12520   5.458   0.419  -0.108 -3.4432 -1.3640 -1.5907
   95MOL0     H12521   5.325   0.340  -0.037 -1.9045  2.8505  0.0291
   95MOL0     H12522   5.933   1.129   0.542  0.9396 -3.3879  1.1881
   95MOL0     H12523   5.963   1.351   0.660 -0.3370  0.0163 -0.9041
   95MOL0     H12524   5.562   1.706   0.987  0.3289  2.1470 -2.3414
   95MOL0     H12525   5.598   1.907   1.096 -2.3500 -2.4671 -1.3821
   95MOL0     H12526   4.754   2.091   2.187 -0.7042  1.1151  0.7175
   95MOL0     H12527   4.638   2.097   2.385  1.1932  0.8318 -0.8639
   95MOL0     H12528   4.337   2.505   2.540  4.7256 -2.8225 -0.2962
   95MOL0     H12529   4.208   2.569   2.756 -2.0220  0.1677 -2.3204
   95MOL0     H12530   4.103   2.265   3.051 -0.1579  0.1649  0.3792
   95MOL0     H12531   3.965   2.267   2.940  0.1156  0.6518 -1.9124
   95MOL0     H12532   3.888   2.336   3.148 -2.0436 -0.4806 -3.3971
   95MOL0     H12533   4.022   2.452   3.173  0.8927  0.9735 -1.8605
   95MOL0     H12534   3.944   2.609   3.005 -0.0913  1.4441  0.8028
   95MOL0     H12535   3.827   2.580   3.132 -0.6022 -0.1125 -0.6140
   95MOL0     H12536   3.825   2.425   2.860 -1.6754 -0.4963 -0.6765
   95MOL0     H12537   3.696   2.437   2.974  0.5337 -0.5771 -0.8420
   95MOL0     H12538   3.598   2.764   2.751 -3.6005 -2.1510 -0.9887
   95MOL0     H12539   4.120   2.173   2.830  2.2127 -1.0607 -1.1316
   95MOL0     H12540   4.220   2.094   2.624  0.4971  1.5538 -3.2553
   96MOL0     O12541   1.174   3.844   5.657  0.6060  0.0566  0.2834
   96MOL0     C12542   1.210   3.757   5.583 -1.0870  0.9134 -0.2035
   96MOL0     O12543   1.315   3.669   5.613  0.0090 -0.3011  0.2488
   96MOL0     C12544   1.340   3.653   5.739 -0.4091 -0.0652 -1.2618
   96MOL0     C12545   1.440   3.722   5.804  0.5007 -0.8781  0.6202
   96MOL0     C12546   1.472   3.696   5.937 -0.7471 -0.5764  0.1543
   96MOL0     C12547   1.406   3.596   6.004  0.5337  0.6338  0.3260
   96MOL0     O12548   1.439   3.544   6.121  0.2726  0.3050 -0.1225
   96MOL0     C12549   1.360   3.598   6.229 -0.6034  0.5011 -0.1596
   96MOL0     C12550   1.430   3.724   6.281  0.4206 -0.3988 -0.1343
   96MOL0     C12551   1.367   3.755   6.416  0.4235 -0.7676 -0.3346
   96MOL0     C12552   1.383   3.907   6.466 -0.0887  0.6306  0.3251
   96MOL0     C12553   1.338   3.924   6.606  0.0539  0.2526  0.3259
   96MOL0     C12554   1.365   4.068   6.647  0.3563  0.4867  0.6687
   96MOL0     C12555   1.311   4.099   6.785 -0.1187  0.1672  0.1687
   96MOL0     C12556   1.380   4.017   6.905  0.9473 -0.1022  0.9927
   96MOL0     N12557   1.522   4.045   6.921  0.2155  0.1730 -0.4927
   96MOL0     C12558   1.597   3.966   7.004  1.2573 -0.3192 -0.4194
   96MOL0     C12559   1.709   4.032   7.021 -0.3843 -0.0531 -0.2941
   96MOL0     C12560   1.836   4.007   7.102 -0.0173  0.8576 -0.4976
   96MOL0     C12561   1.879   4.126   7.187  1.2990 -0.9369 -0.6446
   96MOL0     C12562   2.005   4.080   7.269 -0.0091 -0.3035  0.2122
   96MOL0     C12563   2.097   4.195   7.317  0.7685 -0.3229 -0.7174
   96MOL0     O12564   2.040   4.258   7.432 -0.5466  0.2516 -1.3647
   96MOL0     C12565   2.108   4.228   7.556 -1.3000  0.1490 -1.0439
   96MOL0     C12566   2.129   4.335   7.643  0.5999  0.1795 -0.2934
   96MOL0     C12567   2.208   4.325   7.757 -0.4268  0.3585 -0.2318
   96MOL0     C12568   2.272   4.202   7.787 -0.1133 -0.0109  0.5172
   96MOL0     C12569   2.354   4.182   7.916  0.0731  0.4004  1.0840
   96MOL0     O12570   2.378   4.050   7.950 -0.9415 -0.3792  0.3336
   96MOL0     C12571   2.453   4.016   8.063 -0.5425  0.2410  0.4641
   96MOL0     C12572   2.567   4.091   8.107 -0.3089  0.4896  0.6658
   96MOL0     C12573   2.626   4.065   8.232 -0.1765  1.1074  0.5354
   96MOL0     C12574   2.584   3.954   8.308  0.1018  0.6947 -0.8245
   96MOL0     O12575   2.642   3.929   8.428 -0.2564  0.8192  0.2127
   96MOL0     C12576   2.557   3.877   8.533 -0.6870  0.2717  0.3352
   96MOL0     C12577   2.650   3.862   8.653 -0.7552  0.0378  0.2317
   96MOL0     C12578   2.755   3.745   8.629  0.5463  0.2804  0.9274
   96MOL0     C12579   2.810   3.692   8.759  0.2910  0.0831 -0.4406
   96MOL0     C12580   2.942   3.621   8.743 -0.4652  0.1146  0.1950
   96MOL0     C12581   3.068   3.714   8.749 -0.4312  1.3116  0.4704
   96MOL0     C12582   3.076   3.785   8.885 -0.7339  0.1906  0.0965
   96MOL0     C12583   3.221   3.779   8.925 -0.8566  0.3890 -0.4161
   96MOL0    Cl12584   3.334   3.855   8.817 -0.3039 -0.3602 -0.0268
   96MOL0     C12585   2.477   3.877   8.248 -0.1888 -0.2069  0.4318
   96MOL0     C12586   2.415   3.910   8.132  0.3496  0.5043  0.5985
   96MOL0     O12587   2.400   4.287   7.965  0.2611  0.2727 -0.1250
   96MOL0     C12588   2.266   4.099   7.688 -0.4247  0.4002 -0.2639
   96MOL0     C12589   2.172   4.102   7.586  0.0885  0.1624 -0.4698
   96MOL0     N12590   1.705   4.145   6.937  0.4298  0.2759 -0.6076
   96MOL0     N12591   1.588   4.161   6.891 -0.2888 -0.1468 -0.8320
   96MOL0     C12592   1.303   3.530   5.941  0.1808 -0.1032  0.3876
   96MOL0     C12593   1.262   3.562   5.812  0.6574 -0.4446 -0.1435
   96MOL0     C12594   1.155   3.761   5.446  0.1067  0.3678  0.2884
   96MOL0     C12595   1.056   3.859   5.398 -0.1782 -0.8771 -1.3807
   96MOL0     C12596   1.008   3.851   5.260 -0.6103 -0.3264  0.1014
   96MOL0     C12597   1.062   3.754   5.171 -0.1145  0.2352  0.3085
   96MOL0     O12598   1.025   3.758   5.041  0.3553 -0.7939  0.5025
   96MOL0     C12599   0.916   3.674   5.003 -0.4901 -1.0564 -0.7465
   96MOL0     C12600   0.942   3.615   4.858 -0.8717  1.1337  0.3291
   96MOL0     C12601   0.950   3.724   4.748  0.0171  0.4475  0.0718
   96MOL0     C12602   0.966   3.648   4.620 -0.3247 -0.0222  0.5160
   96MOL0     C12603   0.857   3.571   4.584  0.3802 -0.1284 -0.1456
   96MOL0     C12604   0.755   3.510   4.566  0.6071 -0.2588 -0.0179
   96MOL0     C12605   1.154   3.660   5.215 -0.0846  0.4760 -0.4077
   96MOL0     C12606   1.200   3.664   5.351  0.3263 -0.2202 -0.0088
   96MOL0     H12607   1.502   3.791   5.749 -3.3756  1.6287 -1.0744
   96MOL0     H12608   1.561   3.746   5.974 -0.7044 -2.3001  2.6203
   96MOL0     H12609   1.364   3.529   6.314  1.0441  0.0639 -0.5621
   96MOL0     H12610   1.254   3.596   6.202 -0.8402  2.5929  0.3815
   96MOL0     H12611   1.426   3.810   6.214 -2.5526 -0.0396  0.3834
   96MOL0     H12612   1.530   3.680   6.291  1.3998  2.2227  3.1601
   96MOL0     H12613   1.416   3.690   6.489  2.8639  1.9553  0.6060
   96MOL0     H12614   1.264   3.720   6.424  0.1766 -0.7112 -2.5849
   96MOL0     H12615   1.490   3.933   6.466  0.7016 -2.1222 -2.0325
   96MOL0     H12616   1.327   3.970   6.396 -1.6497  0.7606  1.6477
   96MOL0     H12617   1.389   3.860   6.678 -2.2589  1.3158  3.0899
   96MOL0     H12618   1.234   3.895   6.616  0.5519 -2.4983 -1.4005
   96MOL0     H12619   1.320   4.141   6.580  0.3914  0.5307  0.6924
   96MOL0     H12620   1.471   4.095   6.636  0.4570 -0.5420 -1.4657
   96MOL0     H12621   1.327   4.203   6.812 -1.3397 -0.2028  2.5913
   96MOL0     H12622   1.204   4.077   6.784 -0.0438 -0.7460 -3.6373
   96MOL0     H12623   1.359   3.909   6.898  1.3502 -0.0802 -2.7456
   96MOL0     H12624   1.336   4.061   6.995 -1.0605 -1.0593  0.5376
   96MOL0     H12625   1.567   3.880   7.063 -2.9297 -0.7038 -2.7588
   96MOL0     H12626   1.922   3.998   7.035  1.3058  3.7114  0.6302
   96MOL0     H12627   1.822   3.917   7.163  0.6927  2.1888  1.7605
   96MOL0     H12628   1.808   4.148   7.266 -1.3025 -3.0132 -2.2275
   96MOL0     H12629   1.903   4.216   7.129  0.1094  0.0884  0.4080
   96MOL0     H12630   1.976   4.020   7.355  1.8697 -0.0924  1.0427
   96MOL0     H12631   2.067   4.021   7.200  1.0053 -1.1328  1.7744
   96MOL0     H12632   2.119   4.263   7.234  1.8094 -1.3700 -1.3332
   96MOL0     H12633   2.194   4.151   7.343 -0.4834 -1.8469  1.7244
   96MOL0     H12634   2.085   4.431   7.617  0.6723  0.2515 -0.1528
   96MOL0     H12635   2.225   4.398   7.835 -0.3011 -1.1514  1.2215
   96MOL0     H12636   2.608   4.173   8.049  0.4475 -0.6288 -0.4313
   96MOL0     H12637   2.702   4.128   8.275 -1.7227  2.9081  0.7679
   96MOL0     H12638   2.524   3.774   8.519 -0.2828  0.0218  1.1887
   96MOL0     H12639   2.473   3.944   8.553 -1.5804 -0.3375 -1.1582
   96MOL0     H12640   2.596   3.833   8.744  1.4149  0.0784  1.6312
   96MOL0     H12641   2.703   3.950   8.690 -1.3668  0.2846  0.5349
   96MOL0     H12642   2.834   3.786   8.565 -2.5523  1.7392 -2.2931
   96MOL0     H12643   2.701   3.669   8.572 -0.4185  2.7039 -1.5763
   96MOL0     H12644   2.822   3.770   8.835  2.1079 -1.2474  0.7214
   96MOL0     H12645   2.731   3.624   8.789  2.5825 -2.3848  0.3567
   96MOL0     H12646   2.937   3.556   8.655 -1.4051 -1.8004  1.5927
   96MOL0     H12647   2.946   3.550   8.826 -0.7778  2.0762  1.9614
   96MOL0     H12648   3.052   3.783   8.666 -1.1903  1.7217  0.9454
   96MOL0     H12649   3.158   3.653   8.735  0.1249  1.4074  3.1442
   96MOL0     H12650   3.046   3.890   8.880  1.4251  0.8166 -1.4489
   96MOL0     H12651   3.014   3.733   8.958  0.3359  1.0732  1.6820
   96MOL0     H12652   3.243   3.673   8.936 -1.0320  0.5491  2.3283
   96MOL0     H12653   3.238   3.831   9.020  3.1861 -1.0185 -0.1957
   96MOL0     H12654   2.455   3.790   8.309  1.8619 -0.4473  0.9269
   96MOL0     H12655   2.341   3.837   8.099  0.7280  1.0362 -1.5427
   96MOL0     H12656   2.333   4.015   7.704 -1.9996 -0.7366  0.6365
   96MOL0     H12657   2.169   4.015   7.522  0.5084 -1.6454  1.8301
   96MOL0     H12658   1.245   3.448   5.983 -1.5295  0.0399 -1.5439
   96MOL0     H12659   1.170   3.517   5.775  0.9125 -2.1472  1.1363
   96MOL0     H12660   1.023   3.928   5.474  1.4728 -2.3744  0.8058
   96MOL0     H12661   0.949   3.935   5.226 -3.2600 -1.5830  1.2361
   96MOL0     H12662   0.828   3.738   4.994 -0.0078 -0.5894 -2.2948
   96MOL0     H12663   0.908   3.600   5.084 -1.5777  4.0865  4.5692
   96MOL0     H12664   1.032   3.554   4.872 -0.0123  1.4829 -3.0063
   96MOL0     H12665   0.859   3.545   4.843 -2.0947  2.4495  0.7286
   96MOL0     H12666   1.020   3.803   4.775 -1.7229  1.6136  1.3670
   96MOL0     H12667   0.850   3.768   4.741 -0.2175  0.1889  1.5174
   96MOL0     H12668   0.993   3.720   4.542  2.2679 -1.8072 -0.3655
   96MOL0     H12669   1.056   3.587   4.630  0.4507  0.8879 -0.6028
   96MOL0     H12670   0.668   3.449   4.549  0.2361  0.0760  0.6337
   96MOL0     H12671   1.195   3.590   5.142 -0.3298 -0.2753  0.1604
   96MOL0     H12672   1.273   3.588   5.376 -0.9285 -1.6184 -0.4645
   97MOL0     O12673   3.245   2.204   8.486  0.3203 -0.2273  0.5007
   97MOL0     C12674   3.286   2.090   8.507  0.0938 -0.1918  0.1734
   97MOL0     O12675   3.234   2.007   8.604  0.6094  0.1784  0.1254
   97MOL0     C12676   3.125   2.043   8.679  0.1326 -0.2906  0.3417
   97MOL0     C12677   3.016   2.122   8.643  1.3543 -0.9627 -0.1842
   97MOL0     C12678   2.910   2.135   8.732  0.0180  0.2516 -0.2748
   97MOL0     C12679   2.917   2.073   8.857  0.5830  0.3334 -0.3706
   97MOL0     O12680   2.803   2.078   8.932 -0.4048 -0.8196  0.2084
   97MOL0     C12681   2.710   1.970   8.910  0.1233 -0.1547 -0.4436
   97MOL0     C12682   2.576   2.012   8.963 -0.2246 -0.1495 -0.0562
   97MOL0     C12683   2.464   1.976   8.867  0.3208  0.7369 -0.0190
   97MOL0     C12684   2.335   2.039   8.927 -0.0483 -0.5089  0.6400
   97MOL0     C12685   2.230   2.061   8.816 -0.0819 -1.0636  0.7775
   97MOL0     C12686   2.180   1.938   8.736  0.5308  0.1873  0.1440
   97MOL0     C12687   2.093   1.976   8.620  2.0865  1.2150 -0.2119
   97MOL0     C12688   1.973   1.879   8.584  0.3775  0.2941  0.5431
   97MOL0     N12689   1.874   1.859   8.693 -0.2727 -1.0902 -0.2551
   97MOL0     C12690   1.841   1.940   8.805 -0.2232  1.2405 -0.3897
   97MOL0     C12691   1.724   1.885   8.852  0.0946  0.2685  0.5148
   97MOL0     C12692   1.655   1.937   8.970 -0.6072  0.0788  0.6499
   97MOL0     C12693   1.534   2.000   8.928  0.9030 -0.9129  0.2175
   97MOL0     C12694   1.455   2.041   9.048  0.0137  0.1790 -0.3162
   97MOL0     C12695   1.317   2.082   9.007 -0.4840  0.1124 -0.5863
   97MOL0     O12696   1.239   2.126   9.131 -0.2253 -0.1704  0.6231
   97MOL0     C12697   1.111   2.167   9.120  0.1907  0.4351  0.6001
   97MOL0     C12698   1.051   2.243   9.222 -1.1340 -0.1780  0.1661
   97MOL0     C12699   0.913   2.273   9.201  0.3771  0.3238  0.4443
   97MOL0     C12700   0.842   2.238   9.084 -0.3166 -0.9304  0.7301
   97MOL0     C12701   0.707   2.301   9.050 -0.2383 -0.6076 -0.2807
   97MOL0     O12702   0.656   2.373   9.147 -0.3305  0.2557  0.8240
   97MOL0     C12703   0.518   2.374   9.166 -0.6145 -0.2863  0.7870
   97MOL0     C12704   0.441   2.254   9.172 -0.0699  0.0129  0.2593
   97MOL0     C12705   0.301   2.264   9.185  0.1348  0.2059 -1.2552
   97MOL0     C12706   0.242   2.388   9.204  0.0776 -0.0489 -0.0814
   97MOL0     O12707   0.106   2.405   9.189 -0.8133 -0.0364 -0.1326
   97MOL0     C12708   0.012   2.299   9.235  0.2035  0.0800  0.5437
   97MOL0     C12709  -0.050   2.201   9.131 -0.5550  0.1719 -0.3818
   97MOL0     C12710  -0.168   2.128   9.196 -0.1695  0.7313  0.6517
   97MOL0     C12711  -0.231   2.009   9.114  0.1640 -0.0499 -0.4072
   97MOL0     C12712  -0.338   2.065   9.013 -0.1197 -0.1538 -0.1719
   97MOL0     C12713  -0.404   1.962   8.918 -0.2455  0.1942 -0.5801
   97MOL0     C12714  -0.517   2.022   8.836  0.4241  0.0744  0.1472
   97MOL0     C12715  -0.460   2.107   8.716 -0.0400 -0.3877 -0.1166
   97MOL0    Cl12716  -0.586   2.130   8.591 -0.3885  0.3580 -0.2733
   97MOL0     C12717   0.313   2.504   9.199  0.3215  0.3337 -0.1546
   97MOL0     C12718   0.452   2.494   9.185  0.9814 -0.0501  0.0095
   97MOL0     O12719   0.645   2.270   8.946 -0.4600 -0.2252 -0.1744
   97MOL0     C12720   0.904   2.155   8.993 -0.5213 -0.7860  0.1795
   97MOL0     C12721   1.038   2.121   9.010 -0.4348 -0.0223 -0.1222
   97MOL0     N12722   1.698   1.762   8.789  0.6868 -0.7629 -0.3195
   97MOL0     N12723   1.797   1.749   8.706 -0.4285 -1.7746  0.8515
   97MOL0     C12724   3.023   2.004   8.907 -0.0770 -0.3020 -0.3895
   97MOL0     C12725   3.128   1.991   8.810  0.4225  0.6905  0.3351
   97MOL0     C12726   3.396   2.034   8.427 -0.5100 -0.1553  0.5473
   97MOL0     C12727   3.463   2.111   8.331 -0.6091 -0.6889  0.4595
   97MOL0     C12728   3.562   2.064   8.243  0.6242  0.9894 -0.1705
   97MOL0     C12729   3.608   1.928   8.254 -0.0731 -0.5083 -0.6338
   97MOL0     O12730   3.705   1.877   8.184 -0.3675  0.4033  0.8180
   97MOL0     C12731   3.807   1.961   8.131 -0.3951  0.4909 -0.2504
   97MOL0     C12732   3.914   1.878   8.046  1.3168  1.7782  0.0758
   97MOL0     C12733   4.037   1.960   8.005  0.1475  0.2463 -0.5662
   97MOL0     C12734   4.146   1.988   8.097  0.2295  0.0020  0.0856
   97MOL0     C12735   4.224   1.865   8.121  0.6247 -0.7951 -0.1249
   97MOL0     C12736   4.292   1.780   8.165  0.7313  0.0240  0.1846
   97MOL0     C12737   3.546   1.844   8.345  0.5425  0.4374 -0.6228
   97MOL0     C12738   3.443   1.897   8.430  0.5401  0.7510  1.0565
   97MOL0     H12739   3.003   2.166   8.544  1.7903  0.5161  0.3949
   97MOL0     H12740   2.815   2.185   8.710  0.1915 -0.0048 -1.6899
   97MOL0     H12741   2.749   1.881   8.960 -3.5694 -1.7737 -0.0923
   97MOL0     H12742   2.699   1.951   8.803 -3.7344  6.0152 -1.6751
   97MOL0     H12743   2.571   2.121   8.975  3.8141  0.7367 -3.9280
   97MOL0     H12744   2.565   1.957   9.057  2.1750 -0.2851  0.2047
   97MOL0     H12745   2.464   1.868   8.851 -1.2582  0.5541  1.0384
   97MOL0     H12746   2.468   2.026   8.770 -1.6793  0.6174 -0.1938
   97MOL0     H12747   2.298   1.972   9.006 -5.0649 -0.2972 -1.1577
   97MOL0     H12748   2.351   2.139   8.968 -1.6198 -0.5859  1.5163
   97MOL0     H12749   2.261   2.127   8.734  0.4275  0.7003  2.3097
   97MOL0     H12750   2.142   2.102   8.866 -0.3160  2.3201 -1.9911
   97MOL0     H12751   2.143   1.860   8.803 -0.1794 -1.9956 -2.6076
   97MOL0     H12752   2.267   1.895   8.688  3.1761  5.3647 -0.3818
   97MOL0     H12753   2.039   2.068   8.644 -1.3728 -0.2606 -1.6631
   97MOL0     H12754   2.152   1.994   8.529  2.7407 -2.3724 -0.6356
   97MOL0     H12755   2.013   1.780   8.560 -0.9903 -0.8279  2.5808
   97MOL0     H12756   1.907   1.907   8.501  1.0026  0.1115 -0.0238
   97MOL0     H12757   1.896   2.026   8.840  0.8047 -0.6106  2.9670
   97MOL0     H12758   1.718   1.999   9.034 -0.1445  0.0657  0.2061
   97MOL0     H12759   1.619   1.846   9.020  1.0123  0.4413  2.5688
   97MOL0     H12760   1.473   1.937   8.862  2.9286 -0.1203 -2.6229
   97MOL0     H12761   1.556   2.093   8.874  1.7544 -0.1161  1.8577
   97MOL0     H12762   1.443   1.972   9.131 -2.3430 -0.4005 -1.0649
   97MOL0     H12763   1.506   2.130   9.086  1.5954 -1.1065  0.6865
   97MOL0     H12764   1.277   1.986   8.972 -1.1492 -0.4758  1.5951
   97MOL0     H12765   1.323   2.164   8.935  1.0989  0.9991  0.4926
   97MOL0     H12766   1.096   2.275   9.316  2.2316 -1.0813 -0.9799
   97MOL0     H12767   0.858   2.314   9.285 -0.1964  0.9913 -0.2352
   97MOL0     H12768   0.503   2.166   9.158  2.0391  1.4220  0.2627
   97MOL0     H12769   0.240   2.175   9.182 -2.5356  1.7684  1.4630
   97MOL0     H12770  -0.078   2.340   9.280  0.4238 -1.2276  2.3163
   97MOL0     H12771   0.051   2.243   9.321 -3.1702 -0.2951  1.9597
   97MOL0     H12772   0.030   2.130   9.107 -2.2678 -1.9425 -0.0916
   97MOL0     H12773  -0.080   2.243   9.035  1.0137 -1.1185 -1.4808
   97MOL0     H12774  -0.247   2.200   9.217 -2.9592 -2.1655  0.8602
   97MOL0     H12775  -0.132   2.086   9.290  2.5185 -0.5892 -0.8427
   97MOL0     H12776  -0.157   1.940   9.071 -1.4433 -0.3255 -2.9474
   97MOL0     H12777  -0.299   1.955   9.181 -0.4762  1.9546  0.6273
   97MOL0     H12778  -0.290   2.143   8.953 -1.1051  1.7654  1.4215
   97MOL0     H12779  -0.408   2.123   9.074  1.2089  2.1267 -0.7134
   97MOL0     H12780  -0.441   1.883   8.984  1.4272  0.8084  1.1899
   97MOL0     H12781  -0.321   1.925   8.856 -0.1162  2.2105 -1.7059
   97MOL0     H12782  -0.577   1.943   8.790  0.3895  0.4316 -0.4420
   97MOL0     H12783  -0.582   2.082   8.900  0.9160 -1.4045  2.1060
   97MOL0     H12784  -0.367   2.063   8.680 -0.2205 -0.8540 -0.0240
   97MOL0     H12785  -0.432   2.211   8.736  0.0275  0.2255 -3.0228
   97MOL0     H12786   0.261   2.598   9.193 -0.2540 -0.0221 -0.9398
   97MOL0     H12787   0.499   2.592   9.186 -0.0119  0.5926 -3.4812
   97MOL0     H12788   0.864   2.124   8.898  2.3196 -0.6411 -1.1598
   97MOL0     H12789   1.069   2.049   8.936 -0.0257  1.5100 -1.5003
   97MOL0     H12790   3.022   1.947   8.999 -3.9002 -4.0601 -2.4123
   97MOL0     H12791   3.209   1.922   8.829 -0.1863 -0.2352 -0.3736
   97MOL0     H12792   3.431   2.212   8.307 -0.4609 -0.5858  0.6933
   97MOL0     H12793   3.599   2.135   8.169  2.2846  1.2165  0.8173
   97MOL0     H12794   3.849   2.011   8.219 -0.5890  1.1256 -0.5153
   97MOL0     H12795   3.769   2.035   8.061 -0.6553 -0.6651 -1.3589
   97MOL0     H12796   3.946   1.789   8.101  0.4473  0.8217 -0.9144
   97MOL0     H12797   3.869   1.826   7.961 -0.3803  1.5792  1.0393
   97MOL0     H12798   4.001   2.057   7.971  2.8401  1.7795  0.6407
   97MOL0     H12799   4.081   1.914   7.915  0.6235 -1.7253  0.6114
   97MOL0     H12800   4.218   2.058   8.053  2.4572 -1.1036  1.8233
   97MOL0     H12801   4.105   2.027   8.190 -0.4082  0.9269 -0.5625
   97MOL0     H12802   4.360   1.707   8.204 -1.1695 -1.3595  1.0383
   97MOL0     H12803   3.587   1.745   8.358  1.6828  1.2774  3.9401
   97MOL0     H12804   3.397   1.828   8.499 -2.3580  3.8297  2.4503
   98MOL0     O12805   9.604  10.673   5.077  0.7737 -0.5620  0.1152
   98MOL0     C12806   9.621  10.700   5.192  0.1074  0.5490  0.3925
   98MOL0     O12807   9.554  10.639   5.289  0.0725  0.0668 -0.7989
   98MOL0     C12808   9.435  10.573   5.271 -0.0111  0.2655 -0.5974
   98MOL0     C12809   9.336  10.610   5.178  0.5517 -0.1221 -0.0073
   98MOL0     C12810   9.216  10.545   5.166  0.3581  0.5846  0.0672
   98MOL0     C12811   9.189  10.436   5.248 -0.5604 -0.3517 -0.0063
   98MOL0     O12812   9.073  10.368   5.252 -0.2465 -0.6600  0.4189
   98MOL0     C12813   8.951  10.447   5.222  0.0996 -0.2662 -0.2876
   98MOL0     C12814   8.829  10.387   5.303  0.1846 -0.1282 -0.7472
   98MOL0     C12815   8.694  10.460   5.276  0.3279  0.1671 -0.5717
   98MOL0     C12816   8.676  10.575   5.374 -0.3951  0.5811  0.0953
   98MOL0     C12817   8.642  10.536   5.523 -0.1068  0.5333 -1.1692
   98MOL0     C12818   8.518  10.591   5.605 -0.6182  0.3506 -0.3834
   98MOL0     C12819   8.552  10.724   5.676  0.3311  0.1982  0.5514
   98MOL0     C12820   8.569  10.843   5.583 -0.2686 -0.0802 -0.1190
   98MOL0     N12821   8.438  10.914   5.585  0.1544 -0.5310  0.3462
   98MOL0     C12822   8.321  10.860   5.547  0.5373 -0.4732  0.1982
   98MOL0     C12823   8.235  10.963   5.549  0.3841  0.7720  0.1878
   98MOL0     C12824   8.086  10.938   5.516  0.0823 -0.6042  0.9853
   98MOL0     C12825   8.049  11.014   5.383 -0.9569 -0.3575 -1.1851
   98MOL0     C12826   7.908  10.984   5.336  0.4752 -0.5225  0.0108
   98MOL0     C12827   7.875  11.088   5.227  1.0142 -0.0062 -0.5957
   98MOL0     O12828   7.817  11.208   5.281  0.4542  0.6564 -0.1457
   98MOL0     C12829   7.856  11.333   5.230  0.3267  0.0430  0.1716
   98MOL0     C12830   7.873  11.334   5.087  0.0799 -0.1872  0.4333
   98MOL0     C12831   7.925  11.445   5.019  0.3271 -0.1458 -0.0655
   98MOL0     C12832   7.947  11.557   5.091 -0.0756  0.2489  0.1887
   98MOL0     C12833   8.001  11.678   5.024  0.6516  0.5459 -0.2932
   98MOL0     O12834   8.020  11.790   5.105 -0.3754 -0.0361  0.8921
   98MOL0     C12835   8.054  11.911   5.054 -0.0318  0.6846 -0.0093
   98MOL0     C12836   8.189  11.950   5.066  0.4004  0.1671  0.0547
   98MOL0     C12837   8.221  12.069   4.990 -0.6177  0.1253 -0.2634
   98MOL0     C12838   8.126  12.134   4.915  0.3849  0.4954  0.6334
   98MOL0     O12839   8.178  12.233   4.825 -0.8606  0.3787 -0.8672
   98MOL0     C12840   8.186  12.366   4.883 -0.4880 -1.0636  0.1506
   98MOL0     C12841   8.060  12.422   4.942  0.0207 -0.7964  0.3716
   98MOL0     C12842   8.081  12.564   5.000 -0.8306  0.8063 -0.3047
   98MOL0     C12843   7.942  12.632   4.998  0.3244 -0.3970 -0.3864
   98MOL0     C12844   7.934  12.788   5.038  1.0926  0.3421 -0.2540
   98MOL0     C12845   8.013  12.876   4.932  1.1661  0.7416  0.1833
   98MOL0     C12846   7.975  13.026   4.938 -1.4408 -0.5025  0.0330
   98MOL0     C12847   8.052  13.109   4.836  0.0513  0.2585  0.1631
   98MOL0    Cl12848   8.002  13.074   4.665  0.4225  0.0228 -0.0599
   98MOL0     C12849   7.986  12.092   4.909 -0.0288 -0.9871  0.3364
   98MOL0     C12850   7.956  11.983   4.991  0.2519 -0.2883 -0.8038
   98MOL0     O12851   8.014  11.682   4.903 -0.4683  0.1145  0.0105
   98MOL0     C12852   7.912  11.563   5.231 -0.0514  0.6339 -0.0882
   98MOL0     C12853   7.873  11.450   5.296 -0.3766 -0.4879  0.1507
   98MOL0     N12854   8.297  11.082   5.579 -0.0909  0.8457  0.2503
   98MOL0     N12855   8.420  11.050   5.601 -0.2114  0.2050  0.0847
   98MOL0     C12856   9.293  10.391   5.332 -0.5434  0.6257 -1.0399
   98MOL0     C12857   9.405  10.466   5.352 -0.5186  0.0678  0.8749
   98MOL0     C12858   9.734  10.782   5.229  0.4855 -0.3660 -0.6687
   98MOL0     C12859   9.785  10.878   5.136 -0.3571 -0.7301  0.2543
   98MOL0     C12860   9.899  10.959   5.175  0.6495  0.7349  0.2042
   98MOL0     C12861   9.950  10.955   5.302 -0.5356  0.8511  0.3771
   98MOL0     O12862  10.053  11.034   5.344  0.3906 -0.2617 -0.3403
   98MOL0     C12863  10.079  11.169   5.290  0.5559 -0.1758 -0.6099
   98MOL0     C12864  10.209  11.174   5.206  0.7045 -0.2766  0.0641
   98MOL0     C12865  10.331  11.127   5.298 -0.6722 -0.7044 -0.0565
   98MOL0     C12866  10.471  11.141   5.228 -0.3466 -0.3998  0.7598
   98MOL0     C12867  10.479  11.041   5.116  0.2291  0.2187 -0.2914
   98MOL0     C12868  10.495  10.949   5.033 -0.1521  0.0923 -0.2965
   98MOL0     C12869   9.896  10.854   5.386  0.0325  1.0861  0.7179
   98MOL0     C12870   9.781  10.777   5.355 -0.6918 -0.2184  0.3504
   98MOL0     H12871   9.355  10.696   5.114  3.6206  0.6878  1.8231
   98MOL0     H12872   9.137  10.573   5.096 -0.2499 -2.5823 -0.6497
   98MOL0     H12873   8.926  10.460   5.117  1.8754  0.0731 -0.7052
   98MOL0     H12874   8.965  10.545   5.268 -0.7060 -0.3513  0.1550
   98MOL0     H12875   8.841  10.401   5.411 -1.6543  3.6806 -0.8582
   98MOL0     H12876   8.813  10.287   5.263 -2.4593 -0.7412  1.5420
   98MOL0     H12877   8.614  10.386   5.286  0.1281  0.3868 -0.5383
   98MOL0     H12878   8.697  10.500   5.174  1.7521  0.7373 -0.3276
   98MOL0     H12879   8.766  10.636   5.371  1.4846 -1.9913  0.1212
   98MOL0     H12880   8.600  10.646   5.341  0.1889  1.7005  1.0863
   98MOL0     H12881   8.730  10.550   5.587 -1.7867  3.8960  0.6400
   98MOL0     H12882   8.637  10.427   5.530 -0.7376  0.6249 -0.0613
   98MOL0     H12883   8.497  10.516   5.682 -0.1709 -1.4802 -1.9651
   98MOL0     H12884   8.427  10.600   5.544  0.1075 -1.5639 -1.8614
   98MOL0     H12885   8.476  10.753   5.749 -0.9337  1.6179 -1.2216
   98MOL0     H12886   8.645  10.704   5.729  0.0113 -6.1817 -0.5003
   98MOL0     H12887   8.608  10.827   5.482 -2.5427  1.0388 -1.2477
   98MOL0     H12888   8.640  10.913   5.629 -0.7816 -0.4621  1.3028
   98MOL0     H12889   8.274  10.763   5.532  1.3452 -1.1771  1.9751
   98MOL0     H12890   8.036  10.973   5.607  1.1379  2.3440  0.5404
   98MOL0     H12891   8.057  10.833   5.512 -0.6645 -0.3933  0.7597
   98MOL0     H12892   8.113  10.984   5.300  1.6075  2.4556 -0.4243
   98MOL0     H12893   8.072  11.119   5.406  1.9099 -1.4481  1.6820
   98MOL0     H12894   7.911  10.886   5.286  1.0999 -1.2857  1.4936
   98MOL0     H12895   7.831  10.987   5.413  2.4326  1.7832  2.0526
   98MOL0     H12896   7.794  11.044   5.168  0.2167  4.7816 -3.5824
   98MOL0     H12897   7.965  11.111   5.168  0.3704 -0.6073 -1.8406
   98MOL0     H12898   7.846  11.250   5.024 -2.9475 -0.6969  2.1589
   98MOL0     H12899   7.945  11.442   4.912  0.2350  0.6979 -0.1174
   98MOL0     H12900   8.266  11.898   5.123 -1.8342 -0.6677  2.4843
   98MOL0     H12901   8.326  12.096   4.986 -0.3042 -0.8156  0.9212
   98MOL0     H12902   8.212  12.440   4.807 -1.6391 -2.4751 -1.6954
   98MOL0     H12903   8.263  12.358   4.961 -3.2324 -1.0547  3.0751
   98MOL0     H12904   8.035  12.348   5.018  2.7647 -1.3048  0.8876
   98MOL0     H12905   7.990  12.431   4.858 -1.1871 -0.9646  1.3328
   98MOL0     H12906   8.156  12.626   4.951 -0.7372  0.8764 -0.0747
   98MOL0     H12907   8.109  12.552   5.105  0.0568  0.4975 -0.5706
   98MOL0     H12908   7.892  12.622   4.901 -0.5635 -4.1265  0.2867
   98MOL0     H12909   7.868  12.582   5.062  3.3812 -1.7705  2.3587
   98MOL0     H12910   7.974  12.806   5.139 -1.4760  1.8869  0.5910
   98MOL0     H12911   7.834  12.828   5.019  1.8452  2.9334  0.7822
   98MOL0     H12912   7.986  12.842   4.832  0.8514 -2.1360  1.1455
   98MOL0     H12913   8.122  12.865   4.943  1.0235  0.4308  1.4089
   98MOL0     H12914   7.869  13.051   4.945 -1.3704  1.7041 -3.8277
   98MOL0     H12915   8.019  13.060   5.032 -1.6281 -1.8148  0.6135
   98MOL0     H12916   8.158  13.085   4.845  0.3216  0.4962 -1.8686
   98MOL0     H12917   8.038  13.216   4.851  1.1473  0.6524 -1.4062
   98MOL0     H12918   7.905  12.122   4.843  2.5771  1.1380 -2.2150
   98MOL0     H12919   7.853  11.954   5.008  1.0704 -2.2237  1.4636
   98MOL0     H12920   7.926  11.649   5.295 -0.6150  1.7087 -1.3490
   98MOL0     H12921   7.860  11.468   5.403 -1.1085 -0.5964  0.0885
   98MOL0     H12922   9.280  10.306   5.398 -2.6724  2.1529  0.6348
   98MOL0     H12923   9.467  10.439   5.437  0.6001  1.2271  0.4715
   98MOL0     H12924   9.763  10.893   5.031  1.4137 -0.9251 -0.1785
   98MOL0     H12925   9.938  11.027   5.101 -0.6421  1.6966  0.3740
   98MOL0     H12926  10.091  11.237   5.375  2.5438  0.7622 -1.5557
   98MOL0     H12927   9.994  11.206   5.232 -1.8200  1.2845  3.4030
   98MOL0     H12928  10.196  11.112   5.117  1.7117 -0.1928 -0.1559
   98MOL0     H12929  10.223  11.280   5.183  0.2063  0.0141  1.0207
   98MOL0     H12930  10.323  11.028   5.343  3.0336 -0.6763  0.9641
   98MOL0     H12931  10.325  11.207   5.373 -1.3205  1.0821 -1.8989
   98MOL0     H12932  10.482  11.240   5.182  0.3150 -1.5947 -1.8771
   98MOL0     H12933  10.557  11.135   5.296  2.0147 -0.2828 -1.9925
   98MOL0     H12934  10.484  10.877   4.955 -1.0674 -0.4470  0.3115
   98MOL0     H12935   9.961  10.840   5.472  2.6917 -2.0089 -1.5163
   98MOL0     H12936   9.741  10.715   5.435 -2.2636 -1.1420 -1.0899
   99MOL0     O12937   6.951   1.074   5.633 -0.2587  0.1448 -0.3835
   99MOL0     C12938   7.057   1.013   5.632 -0.5339  0.5367 -0.0349
   99MOL0     O12939   7.079   0.897   5.700  0.1455 -0.4009 -0.3311
   99MOL0     C12940   6.975   0.809   5.732  0.4502  0.1853  0.6859
   99MOL0     C12941   7.013   0.714   5.823  0.5263  0.2615 -0.5676
   99MOL0     C12942   6.922   0.614   5.879 -0.3850 -0.2362 -0.0423
   99MOL0     C12943   6.783   0.626   5.861 -1.1687  0.1745  0.0726
   99MOL0     O12944   6.691   0.541   5.911  0.7165 -0.0753 -0.1492
   99MOL0     C12945   6.723   0.397   5.918  0.4687 -0.0591  0.7581
   99MOL0     C12946   6.670   0.334   5.797 -0.1287  0.0837 -0.5847
   99MOL0     C12947   6.719   0.188   5.798 -0.1693 -0.4198 -0.3212
   99MOL0     C12948   6.656   0.097   5.688 -0.5874 -1.3189  0.6383
   99MOL0     C12949   6.688  -0.044   5.710  0.5498  1.0324  0.2173
   99MOL0     C12950   6.712  -0.141   5.588 -0.1703 -0.5966 -0.1429
   99MOL0     C12951   6.701  -0.277   5.634 -0.0567  0.2106  0.0726
   99MOL0     C12952   6.747  -0.368   5.513 -0.3377 -0.2442  0.5477
   99MOL0     N12953   6.891  -0.393   5.508 -0.0282 -0.3387  0.3663
   99MOL0     C12954   6.977  -0.437   5.610 -0.0423  0.1254  0.4437
   99MOL0     C12955   7.091  -0.463   5.540 -0.4796  0.5292  0.9386
   99MOL0     C12956   7.204  -0.527   5.605  0.2890 -0.9435 -0.4686
   99MOL0     C12957   7.273  -0.627   5.516  0.5724  0.1121 -0.2953
   99MOL0     C12958   7.196  -0.759   5.485  0.5040 -0.5400 -0.8880
   99MOL0     C12959   7.288  -0.867   5.497 -0.5740  0.8228  0.6259
   99MOL0     O12960   7.211  -0.991   5.483 -0.6219 -0.8464  0.7025
   99MOL0     C12961   7.271  -1.115   5.504 -0.1373 -0.8690 -0.3105
   99MOL0     C12962   7.411  -1.138   5.525  0.3230 -0.3863  0.6187
   99MOL0     C12963   7.465  -1.261   5.525 -0.0652  0.0633  1.1389
   99MOL0     C12964   7.378  -1.367   5.517  0.0571  0.0881  0.0359
   99MOL0     C12965   7.431  -1.499   5.551  1.5311  0.6674 -0.5531
   99MOL0     O12966   7.362  -1.598   5.493 -0.2948 -0.0152 -0.5333
   99MOL0     C12967   7.407  -1.734   5.507  0.5660  0.0840 -0.8162
   99MOL0     C12968   7.526  -1.766   5.443 -0.1607  0.4937 -0.1963
   99MOL0     C12969   7.589  -1.893   5.449  0.4029  0.3552 -0.4042
   99MOL0     C12970   7.522  -1.998   5.514  0.8068  0.2650  0.7270
   99MOL0     O12971   7.575  -2.127   5.533 -0.3119  0.8904  0.6697
   99MOL0     C12972   7.672  -2.174   5.433  0.4015 -0.3441 -0.4798
   99MOL0     C12973   7.671  -2.332   5.420  0.4130  0.0886 -0.0468
   99MOL0     C12974   7.550  -2.386   5.356  0.4475  0.4756  0.5575
   99MOL0     C12975   7.533  -2.532   5.398 -0.4439  0.4932  0.5949
   99MOL0     C12976   7.406  -2.603   5.357 -0.0399  0.1984  0.3373
   99MOL0     C12977   7.269  -2.538   5.404  0.3621  0.3986 -0.0381
   99MOL0     C12978   7.267  -2.561   5.565  0.2603 -0.5126  0.3059
   99MOL0     C12979   7.133  -2.519   5.622  0.0685 -0.0895 -0.2554
   99MOL0    Cl12980   7.006  -2.617   5.550 -0.4349 -0.0610 -0.6260
   99MOL0     C12981   7.395  -1.976   5.570 -0.6182 -0.2527  0.5027
   99MOL0     C12982   7.337  -1.851   5.562  0.2873 -0.4245  0.5614
   99MOL0     O12983   7.518  -1.507   5.638 -0.0198  0.7972  0.3607
   99MOL0     C12984   7.234  -1.351   5.508 -0.2300  0.3283  0.0824
   99MOL0     C12985   7.176  -1.220   5.501  0.6960 -0.6405 -0.8743
   99MOL0     N12986   7.073  -0.418   5.407  0.0653  0.7838  0.6225
   99MOL0     N12987   6.959  -0.372   5.396  1.0739 -0.1753 -0.6771
   99MOL0     C12988   6.735   0.733   5.779 -0.0881  0.2596 -0.5065
   99MOL0     C12989   6.827   0.828   5.716 -1.0252 -0.7176 -0.5703
   99MOL0     C12990   7.164   1.092   5.566  0.4590 -0.1256 -0.4537
   99MOL0     C12991   7.295   1.066   5.597 -0.0477  0.1944 -0.3025
   99MOL0     C12992   7.396   1.121   5.511  1.0017 -0.6476  0.9369
   99MOL0     C12993   7.369   1.193   5.402 -0.1749 -0.2056  1.0632
   99MOL0     O12994   7.487   1.234   5.339  0.0976  0.1162  0.3954
   99MOL0     C12995   7.474   1.370   5.299 -0.2040 -0.2723  0.6363
   99MOL0     C12996   7.611   1.429   5.275 -0.0255 -0.5540 -0.5628
   99MOL0     C12997   7.631   1.563   5.353  0.4138 -0.3537  0.4474
   99MOL0     C12998   7.730   1.655   5.288  0.6680 -0.2530  0.4808
   99MOL0     C12999   7.718   1.797   5.319 -1.2768 -0.0942  0.1677
   99MOL0     C13000   7.683   1.906   5.353 -0.5031  0.0567 -0.0788
   99MOL0     C13001   7.236   1.219   5.371  0.5750 -0.7055 -0.0121
   99MOL0     C13002   7.128   1.174   5.452 -0.0464 -0.8808 -0.3702
   99MOL0     H13003   7.119   0.700   5.842  0.0548 -2.2976  0.5600
   99MOL0     H13004   6.951   0.541   5.953  0.6197  0.8830  0.6987
   99MOL0     H13005   6.672   0.351   6.002  0.5307  1.4650  1.6724
   99MOL0     H13006   6.832   0.381   5.919  0.3403 -1.0769  0.1437
   99MOL0     H13007   6.702   0.381   5.703 -1.4438  0.9162 -0.6487
   99MOL0     H13008   6.561   0.335   5.799 -0.1767 -1.7599  1.4659
   99MOL0     H13009   6.698   0.137   5.892  0.4082 -3.4426 -1.7293
   99MOL0     H13010   6.825   0.189   5.772  0.0366  0.6785  0.5065
   99MOL0     H13011   6.549   0.114   5.702 -0.3261  2.8629 -0.7855
   99MOL0     H13012   6.677   0.130   5.586 -1.6743 -3.3101 -0.2737
   99MOL0     H13013   6.603  -0.084   5.765  0.6888  1.3764  0.6859
   99MOL0     H13014   6.780  -0.050   5.769  2.3307  1.3542 -2.3334
   99MOL0     H13015   6.811  -0.121   5.547 -0.6426  2.1531 -0.1430
   99MOL0     H13016   6.639  -0.119   5.510 -1.3249  0.3230  1.1528
   99MOL0     H13017   6.751  -0.298   5.728 -3.3119 -1.0072  1.6900
   99MOL0     H13018   6.599  -0.312   5.652 -0.2435  0.7179  0.0458
   99MOL0     H13019   6.720  -0.322   5.418 -0.6468 -1.0487  0.2429
   99MOL0     H13020   6.706  -0.468   5.525  0.6382 -0.7174  0.0615
   99MOL0     H13021   6.961  -0.448   5.716  4.1165 -0.9614  1.1674
   99MOL0     H13022   7.168  -0.579   5.694 -1.9968 -1.1582 -1.4563
   99MOL0     H13023   7.272  -0.444   5.628  0.3070 -0.0685 -3.2675
   99MOL0     H13024   7.375  -0.647   5.548 -0.0637 -4.9501 -0.6723
   99MOL0     H13025   7.271  -0.582   5.416  0.3319  0.1869 -0.2592
   99MOL0     H13026   7.112  -0.780   5.552 -0.2884 -1.4723 -2.1334
   99MOL0     H13027   7.151  -0.746   5.386  2.4875  1.5191 -1.5896
   99MOL0     H13028   7.351  -0.851   5.585  2.2763  0.9196 -1.2679
   99MOL0     H13029   7.357  -0.862   5.412 -1.3814  0.0519 -0.1027
   99MOL0     H13030   7.482  -1.056   5.530 -0.7645  0.7059 -0.9812
   99MOL0     H13031   7.572  -1.274   5.537  0.2649 -1.7948 -2.3580
   99MOL0     H13032   7.579  -1.694   5.382  2.8793 -0.8747  0.6632
   99MOL0     H13033   7.689  -1.896   5.407  0.6063  2.5598 -0.1659
   99MOL0     H13034   7.769  -2.153   5.480 -0.6907  2.1878  0.8321
   99MOL0     H13035   7.666  -2.129   5.334 -0.7569  0.6928  0.0325
   99MOL0     H13036   7.679  -2.370   5.522  2.1778  0.6423  0.0549
   99MOL0     H13037   7.762  -2.355   5.364 -0.3345 -0.6960 -0.9605
   99MOL0     H13038   7.553  -2.387   5.247  2.7022  0.5646  0.5686
   99MOL0     H13039   7.462  -2.333   5.394 -0.5690  1.6352 -3.0239
   99MOL0     H13040   7.622  -2.589   5.368 -0.0317 -0.7759  3.7252
   99MOL0     H13041   7.531  -2.539   5.508 -0.0790  3.9376  0.9215
   99MOL0     H13042   7.409  -2.705   5.399  1.6644  0.1674  0.2120
   99MOL0     H13043   7.414  -2.617   5.249  1.2208  0.9498  0.3137
   99MOL0     H13044   7.180  -2.583   5.358 -0.3930  0.5498  1.2373
   99MOL0     H13045   7.257  -2.431   5.382 -1.0992  0.3861  0.5420
   99MOL0     H13046   7.287  -2.668   5.583 -2.2050 -1.3878 -1.5915
   99MOL0     H13047   7.339  -2.498   5.617  1.0896 -1.6694  0.6065
   99MOL0     H13048   7.118  -2.411   5.607  2.2637  0.1960 -0.8503
   99MOL0     H13049   7.136  -2.526   5.731  4.2882  0.0149 -0.2041
   99MOL0     H13050   7.347  -2.067   5.606 -0.1642 -0.4847  0.5224
   99MOL0     H13051   7.240  -1.832   5.608  0.2550 -1.3705  0.9118
   99MOL0     H13052   7.160  -1.430   5.501  1.6710 -1.6155  0.6452
   99MOL0     H13053   7.072  -1.193   5.483  1.1635  1.1230 -1.1878
   99MOL0     H13054   6.629   0.755   5.779 -0.8061 -2.7632  0.0021
   99MOL0     H13055   6.786   0.910   5.657 -0.5601 -0.7434 -0.9405
   99MOL0     H13056   7.314   0.992   5.674  2.0712  1.3666  0.3891
   99MOL0     H13057   7.501   1.101   5.530  1.1431 -0.3332  0.4839
   99MOL0     H13058   7.428   1.431   5.378 -0.1311  0.1274  0.3717
   99MOL0     H13059   7.411   1.384   5.211 -0.6748  0.5386  1.0895
   99MOL0     H13060   7.686   1.353   5.299 -2.1954 -2.0216  2.2052
   99MOL0     H13061   7.617   1.447   5.167 -1.2563 -4.2667 -1.3994
   99MOL0     H13062   7.675   1.536   5.450  2.4312 -0.6668 -0.5134
   99MOL0     H13063   7.544   1.629   5.357  1.2285  1.2033 -3.4327
   99MOL0     H13064   7.833   1.618   5.284  1.6971  2.4771 -1.6890
   99MOL0     H13065   7.710   1.656   5.181  3.3803 -0.8323 -0.1096
   99MOL0     H13066   7.653   2.006   5.374  1.6207  1.4335 -2.9761
   99MOL0     H13067   7.217   1.274   5.280  2.1307  1.2388  0.7657
   99MOL0     H13068   7.024   1.180   5.420 -0.9755 -0.6740  2.4650
  100MOL0     O13069   6.018  11.395   7.716  0.7853  0.0773 -0.4965
  100MOL0     C13070   6.118  11.461   7.703 -0.9871 -0.5122  0.4572
  100MOL0     O13071   6.223  11.449   7.611  0.4659  0.0261  1.4879
  100MOL0     C13072   6.209  11.340   7.525 -0.5080  0.5723 -0.7007
  100MOL0     C13073   6.294  11.229   7.525 -0.1844 -0.8198  0.3799
  100MOL0     C13074   6.270  11.124   7.449  1.0481 -0.6247  0.5020
  100MOL0     C13075   6.169  11.128   7.368  0.4515  0.3811  0.7648
  100MOL0     O13076   6.157  11.017   7.293  0.4826  0.7972  0.1558
  100MOL0     C13077   6.039  10.963   7.233  0.2234  0.1824  0.2093
  100MOL0     C13078   5.992  10.832   7.307 -1.1445 -0.4039 -0.7929
  100MOL0     C13079   5.977  10.829   7.462 -0.5149 -0.3950 -0.9017
  100MOL0     C13080   5.951  10.694   7.518  0.5327  0.0025 -0.7108
  100MOL0     C13081   5.808  10.642   7.487 -0.0519 -0.5219  0.1942
  100MOL0     C13082   5.694  10.740   7.508  0.7451 -0.8794 -0.3079
  100MOL0     C13083   5.550  10.686   7.474 -0.2788  0.2945  0.0617
  100MOL0     C13084   5.438  10.770   7.525  0.3986 -0.2126 -0.6932
  100MOL0     N13085   5.309  10.734   7.479 -0.2280 -0.0355 -0.5152
  100MOL0     C13086   5.234  10.632   7.544 -0.0472 -0.2686  0.5502
  100MOL0     C13087   5.116  10.641   7.488  0.0284 -0.0497  0.2763
  100MOL0     C13088   5.014  10.543   7.537 -0.2550  0.3493 -0.0354
  100MOL0     C13089   4.864  10.592   7.512  1.0065  0.2188 -0.0563
  100MOL0     C13090   4.766  10.507   7.603  0.5067 -0.1181  0.2081
  100MOL0     C13091   4.619  10.513   7.560  0.8252  0.1261  0.0880
  100MOL0     O13092   4.580  10.649   7.560  0.2331 -0.1302 -0.3602
  100MOL0     C13093   4.460  10.676   7.509  0.4552 -0.1911  0.4077
  100MOL0     C13094   4.420  10.812   7.483 -0.6601  1.1927 -0.4387
  100MOL0     C13095   4.300  10.841   7.415  0.1230  0.5581 -0.3630
  100MOL0     C13096   4.218  10.746   7.364  0.6036  0.7453 -0.0869
  100MOL0     C13097   4.090  10.779   7.291  0.7750 -0.1780  0.1596
  100MOL0     O13098   4.005  10.673   7.270  0.3196 -0.2663 -0.3904
  100MOL0     C13099   3.891  10.696   7.203 -0.6414 -0.0472  1.2760
  100MOL0     C13100   3.769  10.688   7.264 -0.5511 -0.1819 -0.3165
  100MOL0     C13101   3.648  10.724   7.208  0.5688 -0.6028  0.3911
  100MOL0     C13102   3.647  10.779   7.073  0.7244  0.3245  0.5931
  100MOL0     O13103   3.526  10.822   7.012 -0.1134 -0.3385 -0.7109
  100MOL0     C13104   3.527  10.843   6.871 -0.1547  0.0081  0.5548
  100MOL0     C13105   3.518  10.721   6.776  0.6342 -0.2118 -0.2102
  100MOL0     C13106   3.405  10.622   6.823  0.4886 -0.3865 -0.2870
  100MOL0     C13107   3.257  10.669   6.798  0.7880  0.3050 -0.0600
  100MOL0     C13108   3.149  10.563   6.845 -0.6737  0.4939  0.3641
  100MOL0     C13109   3.028  10.607   6.769  0.1725 -0.0841  0.1459
  100MOL0     C13110   2.965  10.736   6.812 -0.2921 -0.1750 -0.0824
  100MOL0     C13111   2.852  10.776   6.725  0.0645  0.0541 -0.2694
  100MOL0    Cl13112   2.892  10.794   6.554 -0.2383  0.4111  0.2961
  100MOL0     C13113   3.781  10.792   7.005  0.6983 -0.4258  0.6459
  100MOL0     C13114   3.897  10.747   7.069  0.4165  0.1120 -0.4524
  100MOL0     O13115   4.073  10.898   7.268 -0.3683 -0.2256  0.3151
  100MOL0     C13116   4.249  10.614   7.395  0.0261  0.3319  0.8701
  100MOL0     C13117   4.362  10.581   7.472 -0.6295  0.2684 -0.2308
  100MOL0     N13118   5.114  10.743   7.393  0.9098 -0.1931  0.6916
  100MOL0     N13119   5.229  10.803   7.391  0.2742 -0.9218  0.6952
  100MOL0     C13120   6.071  11.228   7.367  0.2491 -0.8973  0.0228
  100MOL0     C13121   6.095  11.339   7.443  0.0903 -1.0421 -0.1519
  100MOL0     C13122   6.141  11.572   7.799  0.2981  0.5395 -0.0974
  100MOL0     C13123   6.259  11.653   7.794  0.7224  0.6397  0.4050
  100MOL0     C13124   6.274  11.756   7.901 -0.4042  0.7894  0.7218
  100MOL0     C13125   6.167  11.789   7.992  0.2993  0.3223  0.6424
  100MOL0     O13126   6.190  11.900   8.066  0.1161 -0.0745  0.2913
  100MOL0     C13127   6.080  11.996   8.080  0.0573  0.0966 -0.0358
  100MOL0     C13128   6.038  12.005   8.224 -0.4081  0.0409  1.1835
  100MOL0     C13129   6.142  12.043   8.321 -0.5888  0.5535  0.4842
  100MOL0     C13130   6.162  12.196   8.333  1.1797 -0.6385 -0.4736
  100MOL0     C13131   6.076  12.236   8.448  0.2564 -0.4506  0.6895
  100MOL0     C13132   6.005  12.273   8.538 -0.2112  0.3975  0.6448
  100MOL0     C13133   6.059  11.700   7.998 -0.0654 -0.4164 -0.4797
  100MOL0     C13134   6.048  11.589   7.903  0.5808 -0.3942  0.2631
  100MOL0     H13135   6.370  11.219   7.602  0.0442 -3.1412 -0.0620
  100MOL0     H13136   6.341  11.042   7.448  1.4065 -0.3797 -2.3003
  100MOL0     H13137   6.059  10.944   7.127  2.3342  1.4215  0.3130
  100MOL0     H13138   5.955  11.033   7.234  2.6240  3.3061  1.0347
  100MOL0     H13139   6.057  10.749   7.278  0.7462  0.3324  1.0876
  100MOL0     H13140   5.887  10.810   7.284 -1.8322  1.1390  0.6458
  100MOL0     H13141   5.897  10.898   7.488  1.4476  3.5179 -4.1366
  100MOL0     H13142   6.073  10.865   7.499 -0.0491 -1.6505 -0.8396
  100MOL0     H13143   6.023  10.622   7.480  3.9751  3.1463 -0.7154
  100MOL0     H13144   5.964  10.705   7.627  0.1896 -0.3864 -0.6273
  100MOL0     H13145   5.793  10.554   7.551  0.6988 -0.0990  0.9632
  100MOL0     H13146   5.809  10.602   7.385 -3.3185  0.5421 -0.3777
  100MOL0     H13147   5.716  10.819   7.435 -1.2735 -3.2387 -3.8213
  100MOL0     H13148   5.697  10.769   7.613  2.8599 -4.2317  0.6986
  100MOL0     H13149   5.545  10.674   7.365  0.0420  2.4488 -0.2363
  100MOL0     H13150   5.551  10.589   7.523  1.4557  0.8917  1.2979
  100MOL0     H13151   5.464  10.874   7.503 -0.3382  0.6803  2.2420
  100MOL0     H13152   5.440  10.752   7.633 -0.9368 -0.5721 -0.7111
  100MOL0     H13153   5.260  10.551   7.612 -1.6552 -1.0187  0.3063
  100MOL0     H13154   5.030  10.526   7.644  1.5820 -5.5306 -0.8764
  100MOL0     H13155   5.023  10.440   7.502 -1.7094 -0.6847  2.3601
  100MOL0     H13156   4.846  10.567   7.407 -0.1788  1.1367 -0.0958
  100MOL0     H13157   4.844  10.699   7.516 -1.7898 -0.2464  1.7208
  100MOL0     H13158   4.784  10.399   7.597 -0.3573 -0.2668  0.1662
  100MOL0     H13159   4.767  10.540   7.707  1.0198  1.6011 -0.2943
  100MOL0     H13160   4.554  10.452   7.623  0.1925  2.2723  1.5874
  100MOL0     H13161   4.622  10.476   7.457  0.2118 -1.3431  0.5665
  100MOL0     H13162   4.496  10.886   7.503  3.4652 -1.9464 -2.8440
  100MOL0     H13163   4.289  10.946   7.390  3.0495  0.4003 -3.0236
  100MOL0     H13164   3.774  10.636   7.359 -0.8552  2.3593  1.1868
  100MOL0     H13165   3.555  10.732   7.264  0.5599  3.7212  0.1530
  100MOL0     H13166   3.614  10.900   6.838  2.3606 -2.9162  1.6514
  100MOL0     H13167   3.446  10.909   6.841 -0.8881 -1.7323 -1.5437
  100MOL0     H13168   3.622  10.687   6.776  0.5126 -0.5914 -0.2430
  100MOL0     H13169   3.481  10.749   6.678 -0.7415 -0.4049  0.2267
  100MOL0     H13170   3.426  10.601   6.928  2.2650  0.0644 -0.5102
  100MOL0     H13171   3.422  10.531   6.764  2.2477 -2.9583  3.7244
  100MOL0     H13172   3.236  10.766   6.845 -1.7653  0.3959 -1.2466
  100MOL0     H13173   3.254  10.691   6.691 -0.6213 -1.2869 -0.3915
  100MOL0     H13174   3.138  10.557   6.954 -0.2454  1.1201  0.4429
  100MOL0     H13175   3.164  10.458   6.818 -3.5472  0.1567 -0.3149
  100MOL0     H13176   2.958  10.528   6.798 -4.5680  2.6866 -2.4869
  100MOL0     H13177   3.058  10.600   6.664  5.1470 -2.1444  1.4246
  100MOL0     H13178   2.931  10.730   6.916  1.9288  2.1649  0.9156
  100MOL0     H13179   3.021  10.829   6.798 -0.8333  0.2178  0.3236
  100MOL0     H13180   2.814  10.871   6.763 -1.2510 -0.1200 -1.0595
  100MOL0     H13181   2.760  10.720   6.744 -0.7558  0.8688 -1.6407
  100MOL0     H13182   3.795  10.849   6.914 -0.8492  0.4384  0.9193
  100MOL0     H13183   3.993  10.780   7.030  1.3157 -1.0329  0.6814
  100MOL0     H13184   4.181  10.534   7.367 -0.1345  1.2349 -1.5960
  100MOL0     H13185   4.370  10.475   7.493  0.1948  0.2540 -0.5750
  100MOL0     H13186   5.989  11.228   7.295  1.2531  0.7998 -1.1995
  100MOL0     H13187   6.027  11.423   7.442  1.4646  0.1189  0.2761
  100MOL0     H13188   6.324  11.651   7.707 -0.5741 -1.5577 -0.6016
  100MOL0     H13189   6.364  11.817   7.903 -1.4458  2.4487  3.4830
  100MOL0     H13190   5.999  11.959   8.017  0.8520 -1.6253 -0.0960
  100MOL0     H13191   6.110  12.095   8.046  6.3429 -0.8055  1.6500
  100MOL0     H13192   5.949  12.067   8.217 -1.0577 -0.9346 -4.9036
  100MOL0     H13193   6.010  11.904   8.257  0.5614 -1.7010 -2.6978
  100MOL0     H13194   6.241  12.011   8.285 -1.5920  1.4645 -3.6339
  100MOL0     H13195   6.107  11.999   8.414  2.0726  0.8983  1.7634
  100MOL0     H13196   6.267  12.224   8.341  0.8018  1.4373 -1.7950
  100MOL0     H13197   6.121  12.250   8.247 -0.2437  1.8845  1.6325
  100MOL0     H13198   5.940  12.293   8.620 -1.0981 -0.4267  0.1661
  100MOL0     H13199   5.984  11.742   8.065  1.6410  1.6455  0.2400
  100MOL0     H13200   5.959  11.527   7.898 -0.3854  0.9934 -0.6967
  101MOL0     O13201   4.708   5.186   8.563  0.6301 -0.2936 -0.0461
  101MOL0     C13202   4.663   5.268   8.486 -0.1749 -0.3470  0.2034
  101MOL0     O13203   4.560   5.363   8.510  0.1871  0.5906  0.0926
  101MOL0     C13204   4.491   5.351   8.628  0.3722  0.5461  0.7824
  101MOL0     C13205   4.465   5.450   8.719 -0.2173 -0.1391  0.1455
  101MOL0     C13206   4.397   5.417   8.840 -0.8859  0.8743  0.3195
  101MOL0     C13207   4.346   5.290   8.860 -0.4935 -0.8780 -1.1651
  101MOL0     O13208   4.261   5.254   8.960 -0.0940 -0.5432 -0.8834
  101MOL0     C13209   4.332   5.242   9.086 -0.4962  0.6956 -0.2457
  101MOL0     C13210   4.230   5.284   9.195  0.1643  0.8924 -0.3347
  101MOL0     C13211   4.242   5.189   9.315  0.1456 -0.3911 -0.0102
  101MOL0     C13212   4.364   5.232   9.397 -0.5565  0.1491 -0.1097
  101MOL0     C13213   4.413   5.154   9.523  0.0841  0.1184 -0.3704
  101MOL0     C13214   4.427   5.246   9.648  0.1077 -0.2006  0.4672
  101MOL0     C13215   4.559   5.312   9.676 -0.5980 -0.0908  1.0246
  101MOL0     C13216   4.667   5.223   9.742  0.3287 -0.0652  0.3770
  101MOL0     N13217   4.719   5.138   9.637 -0.5383  0.0715 -0.4932
  101MOL0     C13218   4.721   4.996   9.644 -0.1146  0.0140  0.6242
  101MOL0     C13219   4.801   4.956   9.542 -0.7378 -0.4124  0.2177
  101MOL0     C13220   4.832   4.816   9.499 -0.7099 -0.8703  0.4269
  101MOL0     C13221   4.876   4.786   9.356  0.2528  0.2566 -0.0689
  101MOL0     C13222   4.869   4.633   9.321 -0.8596  0.0911  0.3372
  101MOL0     C13223   4.914   4.626   9.177  0.3846 -0.8387 -0.8414
  101MOL0     O13224   4.915   4.484   9.151 -1.2527  0.1461 -0.2973
  101MOL0     C13225   4.949   4.440   9.028 -0.2174 -0.6650  0.7242
  101MOL0     C13226   4.977   4.305   9.023 -0.1096  0.1287  0.3021
  101MOL0     C13227   5.020   4.239   8.901 -0.4852  0.3283 -0.1000
  101MOL0     C13228   5.037   4.317   8.782 -0.8691 -0.2444  0.0084
  101MOL0     C13229   5.081   4.249   8.653  0.2751  0.0291  0.0526
  101MOL0     O13230   5.104   4.328   8.544  0.0202 -0.0535  0.8245
  101MOL0     C13231   5.153   4.278   8.419 -0.1517  1.3077 -0.9602
  101MOL0     C13232   5.074   4.250   8.306  0.4456 -0.2332 -0.0207
  101MOL0     C13233   5.123   4.200   8.193  0.2954 -0.3290 -0.3480
  101MOL0     C13234   5.263   4.174   8.183  0.4668 -0.0301 -0.7004
  101MOL0     O13235   5.315   4.135   8.064  0.0982  0.4401  0.4612
  101MOL0     C13236   5.416   4.034   8.048  0.0191 -0.1187  0.5669
  101MOL0     C13237   5.450   4.014   7.896  0.2635  1.1586 -0.4781
  101MOL0     C13238   5.335   3.966   7.807 -0.1354  0.0479  0.1218
  101MOL0     C13239   5.228   4.064   7.758 -1.0651  0.1244 -0.3321
  101MOL0     C13240   5.128   3.992   7.675  0.1022 -0.2288 -0.5382
  101MOL0     C13241   5.043   4.098   7.617 -0.1048  0.1105  0.2561
  101MOL0     C13242   4.941   4.045   7.512  0.7380  0.3939  0.6229
  101MOL0     C13243   4.833   3.954   7.566  0.5199 -0.7241 -0.3725
  101MOL0    Cl13244   4.710   4.055   7.651 -0.2491 -0.4615  0.4458
  101MOL0     C13245   5.346   4.201   8.286  0.4186  0.3636 -0.4214
  101MOL0     C13246   5.289   4.253   8.402  0.1561  0.7251 -0.6839
  101MOL0     O13247   5.109   4.127   8.655  0.5270 -0.3781  0.6688
  101MOL0     C13248   5.013   4.456   8.786 -0.2503  0.8106  0.3132
  101MOL0     C13249   4.970   4.518   8.905  0.0865  0.0340 -0.6100
  101MOL0     N13250   4.846   5.077   9.482 -1.3222  0.2908  0.4273
  101MOL0     N13251   4.804   5.175   9.538  0.9433 -0.0203 -1.8745
  101MOL0     C13252   4.356   5.200   8.760 -0.7494  0.6309  0.4844
  101MOL0     C13253   4.427   5.234   8.645  0.0098 -0.0701  0.6828
  101MOL0     C13254   4.718   5.252   8.349  0.2675 -0.0108  0.8304
  101MOL0     C13255   4.841   5.175   8.324  0.8840 -0.9110 -0.5244
  101MOL0     C13256   4.896   5.172   8.200 -0.2310 -0.4720 -0.3742
  101MOL0     C13257   4.843   5.232   8.093  0.0617 -0.0239 -0.0819
  101MOL0     O13258   4.902   5.211   7.969 -0.0033  0.4223 -0.2150
  101MOL0     C13259   5.008   5.306   7.936 -0.6960  1.2441 -0.4026
  101MOL0     C13260   5.144   5.246   7.980  0.5577 -0.7854  0.2976
  101MOL0     C13261   5.271   5.315   7.922  0.1206 -0.2238  0.1417
  101MOL0     C13262   5.401   5.248   7.978 -0.4160  0.7366  0.6950
  101MOL0     C13263   5.426   5.110   7.934  0.4476 -0.5270  0.0426
  101MOL0     C13264   5.428   4.999   7.889  0.3002  0.9681  0.0870
  101MOL0     C13265   4.742   5.326   8.114 -0.6051  0.2375  0.1287
  101MOL0     C13266   4.684   5.332   8.240 -0.3154 -0.1503  0.9509
  101MOL0     H13267   4.501   5.552   8.705 -3.1997  0.5501 -5.7874
  101MOL0     H13268   4.364   5.488   8.915 -2.5735 -0.1597  0.5976
  101MOL0     H13269   4.421   5.305   9.096  0.9048 -1.2632  0.1215
  101MOL0     H13270   4.371   5.141   9.097  1.6583  1.4650 -0.1634
  101MOL0     H13271   4.131   5.270   9.150  0.2162  3.7977 -1.5652
  101MOL0     H13272   4.238   5.391   9.215  1.1320  1.6923 -4.2393
  101MOL0     H13273   4.244   5.082   9.292  1.0259 -0.2092 -0.8537
  101MOL0     H13274   4.156   5.205   9.380 -1.1880  0.5052 -1.8923
  101MOL0     H13275   4.448   5.219   9.329 -0.3986  3.8953 -0.8582
  101MOL0     H13276   4.368   5.338   9.426 -0.1709 -0.0205  0.4733
  101MOL0     H13277   4.505   5.108   9.487 -1.2864 -1.9252 -1.5072
  101MOL0     H13278   4.347   5.069   9.545 -1.6312  1.2678 -0.8573
  101MOL0     H13279   4.413   5.181   9.735  0.0806 -0.7460  0.0600
  101MOL0     H13280   4.347   5.319   9.637 -1.1327 -1.8689 -2.5969
  101MOL0     H13281   4.601   5.359   9.587 -3.1659  4.2720  1.8504
  101MOL0     H13282   4.536   5.400   9.738 -1.3990  0.7003 -0.3594
  101MOL0     H13283   4.640   5.170   9.834 -3.2715  0.0877 -0.4580
  101MOL0     H13284   4.745   5.297   9.761 -0.3630  1.3213 -1.8075
  101MOL0     H13285   4.678   4.944   9.729  0.6860 -0.5399  0.7014
  101MOL0     H13286   4.738   4.762   9.513 -0.7027 -1.5975 -1.8764
  101MOL0     H13287   4.903   4.776   9.572  0.5638 -0.0480 -0.3091
  101MOL0     H13288   4.976   4.829   9.345 -1.1395  4.2867  1.2976
  101MOL0     H13289   4.813   4.840   9.284  0.1120  0.2978  0.0853
  101MOL0     H13290   4.945   4.593   9.390 -2.3422 -0.3451  1.7939
  101MOL0     H13291   4.776   4.577   9.336  1.1279 -3.4194  0.6297
  101MOL0     H13292   5.008   4.676   9.154  1.6520 -3.0501 -0.7943
  101MOL0     H13293   4.831   4.669   9.120 -1.3929 -1.0463  1.4505
  101MOL0     H13294   4.975   4.242   9.111  1.8136 -2.4929 -1.3782
  101MOL0     H13295   5.038   4.132   8.903 -1.9275  0.0456 -1.2362
  101MOL0     H13296   4.968   4.271   8.313  0.8571  1.3781  3.8000
  101MOL0     H13297   5.064   4.167   8.109  2.4454  0.9486 -2.4939
  101MOL0     H13298   5.395   3.935   8.091 -1.2770 -1.3270 -2.5054
  101MOL0     H13299   5.507   4.073   8.095  1.1756 -2.4820  0.4245
  101MOL0     H13300   5.531   3.943   7.880  0.7867  1.6355  0.0267
  101MOL0     H13301   5.490   4.111   7.865  0.6352  1.3248  0.4919
  101MOL0     H13302   5.276   3.891   7.859 -2.3636  1.5913 -0.0385
  101MOL0     H13303   5.384   3.923   7.719  0.0757  0.9423 -0.2035
  101MOL0     H13304   5.183   4.108   7.847 -2.4406 -0.7776 -0.5540
  101MOL0     H13305   5.281   4.132   7.689  0.7848  0.1851  1.0568
  101MOL0     H13306   5.060   3.927   7.731 -3.8218  2.9871 -1.1285
  101MOL0     H13307   5.180   3.950   7.588 -1.8575 -0.1982 -1.7881
  101MOL0     H13308   5.100   4.182   7.576  0.2367  0.1689  0.8271
  101MOL0     H13309   4.980   4.140   7.696 -1.4086  2.7363 -2.0466
  101MOL0     H13310   4.897   4.130   7.458 -0.4744 -1.0793 -0.8177
  101MOL0     H13311   4.992   3.989   7.433 -1.0521 -1.0422  0.4207
  101MOL0     H13312   4.875   3.891   7.645 -0.1797  3.5499  3.8980
  101MOL0     H13313   4.789   3.895   7.484  2.2806 -2.0713 -0.4078
  101MOL0     H13314   5.453   4.194   8.273  1.0079  0.4638  3.2098
  101MOL0     H13315   5.356   4.282   8.482  1.7210  1.1536 -2.1086
  101MOL0     H13316   5.028   4.511   8.694 -0.2374 -1.3999 -1.0602
  101MOL0     H13317   4.963   4.626   8.910 -1.4696 -0.0068 -1.2017
  101MOL0     H13318   4.298   5.108   8.761 -2.1594  1.3606  4.3410
  101MOL0     H13319   4.414   5.156   8.570 -0.7718  1.2294 -0.5735
  101MOL0     H13320   4.883   5.133   8.415 -2.0030 -1.4379  0.6721
  101MOL0     H13321   4.986   5.116   8.175  0.5882  0.6776 -0.1163
  101MOL0     H13322   4.991   5.397   7.995 -2.9645 -0.2895  1.5089
  101MOL0     H13323   5.010   5.327   7.829  1.9751 -1.2770 -0.9909
  101MOL0     H13324   5.143   5.258   8.089 -0.8107 -0.7892  0.3018
  101MOL0     H13325   5.143   5.142   7.947 -1.1077 -1.5922  2.6026
  101MOL0     H13326   5.264   5.420   7.954 -1.5225  0.2608 -1.6329
  101MOL0     H13327   5.271   5.317   7.813  0.5784  0.7836  0.1483
  101MOL0     H13328   5.490   5.306   7.952 -0.1837  0.2656  0.4374
  101MOL0     H13329   5.395   5.249   8.088  4.2432 -1.0037  1.1802
  101MOL0     H13330   5.448   4.905   7.841  3.1242  1.4129  0.2252
  101MOL0     H13331   4.692   5.379   8.034  1.1130 -0.0726 -1.2179
  101MOL0     H13332   4.607   5.408   8.256 -0.3158  0.0354  0.1038
  102MOL0     O13333   6.153   5.857   9.221  0.4524 -0.3760 -0.2839
  102MOL0     C13334   6.140   5.900   9.336 -0.1823 -0.7574 -0.6426
  102MOL0     O13335   6.250   5.924   9.419  0.0096  0.1187 -0.5468
  102MOL0     C13336   6.368   5.873   9.386 -0.0020 -0.3224 -0.8347
  102MOL0     C13337   6.471   5.958   9.420 -0.3501 -0.1571  0.0994
  102MOL0     C13338   6.601   5.910   9.388 -0.1595 -0.4297 -0.5856
  102MOL0     C13339   6.616   5.789   9.328  0.0548  0.5229 -0.4314
  102MOL0     O13340   6.729   5.746   9.274 -0.0527 -0.6148  0.2335
  102MOL0     C13341   6.837   5.838   9.257  0.2928 -0.8509  0.0151
  102MOL0     C13342   6.952   5.786   9.176  0.1172  0.3516  0.3567
  102MOL0     C13343   7.053   5.892   9.140  0.2870 -0.4202  0.5029
  102MOL0     C13344   7.168   5.829   9.074 -0.2488 -0.4980  0.3085
  102MOL0     C13345   7.281   5.935   9.053 -0.4313 -0.2222  0.9318
  102MOL0     C13346   7.413   5.874   9.007 -0.4029 -0.3203  0.8198
  102MOL0     C13347   7.385   5.787   8.890 -0.2568 -0.0774  0.7897
  102MOL0     C13348   7.514   5.772   8.820 -0.0480  0.8890 -1.0249
  102MOL0     N13349   7.616   5.706   8.898  0.7524  0.1872  0.4067
  102MOL0     C13350   7.703   5.761   8.983  0.6329  0.1380  0.9228
  102MOL0     C13351   7.788   5.663   9.010 -0.1153 -0.4817  0.2002
  102MOL0     C13352   7.913   5.668   9.098  0.3476 -0.3432 -0.4163
  102MOL0     C13353   8.040   5.723   9.018 -0.5807  0.6205  0.1724
  102MOL0     C13354   8.083   5.868   9.047 -0.1997 -0.7410 -0.6692
  102MOL0     C13355   8.183   5.908   8.944 -0.6234  0.3354  0.1210
  102MOL0     O13356   8.306   5.842   8.966  0.0393 -0.1839  0.2189
  102MOL0     C13357   8.359   5.762   8.867 -0.1043  0.3059  0.3453
  102MOL0     C13358   8.401   5.629   8.897  0.0145 -0.0821 -0.2545
  102MOL0     C13359   8.466   5.560   8.798 -0.1108  0.6828 -1.2280
  102MOL0     C13360   8.496   5.607   8.671 -0.6576  0.0636 -0.1433
  102MOL0     C13361   8.549   5.506   8.572 -0.2849  0.0345  0.1581
  102MOL0     O13362   8.649   5.426   8.615  0.1115  0.7352  0.1144
  102MOL0     C13363   8.688   5.312   8.546 -0.1769 -0.3806  0.9339
  102MOL0     C13364   8.814   5.260   8.566  0.2669  0.9008 -0.4831
  102MOL0     C13365   8.861   5.150   8.487  0.1336  0.9437 -1.5171
  102MOL0     C13366   8.776   5.087   8.395  0.6618  0.7806  0.7433
  102MOL0     O13367   8.822   4.986   8.317  0.0580  0.2883 -0.1395
  102MOL0     C13368   8.750   4.909   8.209  0.5546 -0.2210 -0.5466
  102MOL0     C13369   8.842   4.794   8.164 -0.3420 -0.3171 -0.1856
  102MOL0     C13370   8.907   4.831   8.034  0.3759 -0.2375  0.6579
  102MOL0     C13371   8.819   4.794   7.906 -0.3904  0.3721 -0.8263
  102MOL0     C13372   8.866   4.850   7.777 -0.2342 -1.1519  0.5794
  102MOL0     C13373   8.772   4.849   7.655 -0.1471 -0.6179 -0.6797
  102MOL0     C13374   8.662   4.959   7.644 -0.9145 -0.2639  0.1904
  102MOL0     C13375   8.592   4.965   7.510 -0.2722 -0.4988  0.3524
  102MOL0    Cl13376   8.500   5.118   7.477 -0.2412 -0.3981 -0.0157
  102MOL0     C13377   8.644   5.136   8.382 -0.7853 -0.2529 -0.2603
  102MOL0     C13378   8.600   5.244   8.460 -0.4353 -1.6982 -0.0565
  102MOL0     O13379   8.515   5.512   8.456 -0.8335 -0.2526  0.6375
  102MOL0     C13380   8.441   5.733   8.637 -0.0844  0.1978 -0.8530
  102MOL0     C13381   8.390   5.811   8.741 -2.0433  0.3925  0.0328
  102MOL0     N13382   7.746   5.555   8.943  0.2186 -0.0127  0.0759
  102MOL0     N13383   7.642   5.580   8.869  0.2218 -0.5496  0.3803
  102MOL0     C13384   6.512   5.712   9.292  0.3582  0.1470 -0.5236
  102MOL0     C13385   6.381   5.745   9.333  0.0226  0.2770 -0.0570
  102MOL0     C13386   6.016   5.932   9.385  0.8199 -0.0619  0.4713
  102MOL0     C13387   5.897   5.868   9.355 -0.0471  0.1102  0.9097
  102MOL0     C13388   5.780   5.896   9.413 -0.2544 -0.8932  1.0435
  102MOL0     C13389   5.769   5.992   9.506  0.2224  0.2563  0.0047
  102MOL0     O13390   5.647   5.994   9.564  0.7924  0.4832  0.0356
  102MOL0     C13391   5.630   6.072   9.688  0.0638  0.0702  0.5739
  102MOL0     C13392   5.602   6.219   9.673  1.1105 -0.3715 -0.4293
  102MOL0     C13393   5.491   6.272   9.576  0.0970  0.1671 -1.0430
  102MOL0     C13394   5.538   6.286   9.425  0.6935  0.1744 -0.0377
  102MOL0     C13395   5.650   6.391   9.416  0.7898 -0.5155  0.6970
  102MOL0     C13396   5.741   6.472   9.418 -0.1522  0.4796 -0.4671
  102MOL0     C13397   5.884   6.069   9.535 -0.1702 -0.5405 -0.3908
  102MOL0     C13398   6.007   6.030   9.479 -1.1187  0.0068  0.8584
  102MOL0     H13399   6.447   6.059   9.451 -0.0220 -0.1637  0.3847
  102MOL0     H13400   6.684   5.976   9.411 -0.0148  0.5233 -3.5061
  102MOL0     H13401   6.877   5.867   9.354 -0.6055  4.3053 -0.8658
  102MOL0     H13402   6.810   5.927   9.199  0.8372 -2.3268 -2.7308
  102MOL0     H13403   6.898   5.738   9.094  0.1950  0.1509  0.4231
  102MOL0     H13404   6.998   5.709   9.238 -1.0462  0.5686  1.5305
  102MOL0     H13405   7.097   5.927   9.234  1.1878 -0.2781  0.0455
  102MOL0     H13406   7.015   5.973   9.077 -0.5369 -0.8649  0.4196
  102MOL0     H13407   7.216   5.751   9.134  3.1692  1.1377 -0.0547
  102MOL0     H13408   7.135   5.782   8.981  1.3555  0.0345 -0.5794
  102MOL0     H13409   7.300   5.979   9.151 -1.8107 -1.4225  1.7781
  102MOL0     H13410   7.253   6.018   8.987  0.4457 -1.3951 -1.0326
  102MOL0     H13411   7.457   5.809   9.083  0.5057 -0.7296 -0.0330
  102MOL0     H13412   7.493   5.946   8.987  2.0459 -2.5785  1.8888
  102MOL0     H13413   7.342   5.692   8.924  1.7664 -1.1239  0.5937
  102MOL0     H13414   7.325   5.835   8.812  0.5135  1.4940  1.1327
  102MOL0     H13415   7.537   5.871   8.779  1.6034  0.1672 -1.9457
  102MOL0     H13416   7.496   5.716   8.727 -4.4333 -0.7368  0.5479
  102MOL0     H13417   7.715   5.864   9.014 -4.1863  0.8400  1.0726
  102MOL0     H13418   7.931   5.565   9.128  0.5047  0.6132  3.2731
  102MOL0     H13419   7.891   5.721   9.192 -0.0724  1.7366 -1.6048
  102MOL0     H13420   8.036   5.698   8.912  0.2139 -2.6012  0.7787
  102MOL0     H13421   8.129   5.673   9.058  1.5348  1.7489 -2.7785
  102MOL0     H13422   8.002   5.939   9.025  0.6824  0.5266  0.0080
  102MOL0     H13423   8.118   5.887   9.148 -1.5297 -1.8599  0.0344
  102MOL0     H13424   8.205   6.014   8.963  2.1176 -0.2776  0.7975
  102MOL0     H13425   8.141   5.906   8.843  1.3965 -1.0807 -0.7615
  102MOL0     H13426   8.379   5.582   8.992 -1.0780  0.6648 -0.1250
  102MOL0     H13427   8.496   5.459   8.825  0.2637  1.0978 -0.0563
  102MOL0     H13428   8.872   5.321   8.634  0.7657 -1.0663  0.9210
  102MOL0     H13429   8.965   5.121   8.495  0.7075  2.6641 -2.2482
  102MOL0     H13430   8.707   4.974   8.133 -4.0716 -1.4388  0.7186
  102MOL0     H13431   8.669   4.862   8.267  1.3304  1.2577  1.8622
  102MOL0     H13432   8.801   4.692   8.163 -0.5666 -0.2773  1.7581
  102MOL0     H13433   8.923   4.782   8.237 -0.8392 -1.5206  0.1935
  102MOL0     H13434   9.004   4.781   8.033 -0.5879 -2.1863 -0.5760
  102MOL0     H13435   8.923   4.939   8.037 -3.1003  0.4361 -0.4064
  102MOL0     H13436   8.824   4.686   7.892  0.2923  0.4867 -1.5475
  102MOL0     H13437   8.717   4.824   7.931 -0.5885 -0.0575 -1.0978
  102MOL0     H13438   8.944   4.778   7.753  0.6183 -0.4288  1.1026
  102MOL0     H13439   8.905   4.951   7.790  0.4626 -1.3053 -0.2491
  102MOL0     H13440   8.736   4.746   7.646  0.4111 -0.8775 -0.0570
  102MOL0     H13441   8.828   4.861   7.561  0.6339  0.4829 -0.0925
  102MOL0     H13442   8.583   4.948   7.719 -0.5511 -0.1644  0.5935
  102MOL0     H13443   8.710   5.055   7.664 -0.6453 -0.3965  0.1744
  102MOL0     H13444   8.523   4.880   7.504  1.6110 -2.0199 -2.7446
  102MOL0     H13445   8.659   4.956   7.424 -0.7158 -0.3216 -0.0184
  102MOL0     H13446   8.573   5.079   8.324 -0.5446 -0.1862 -0.6227
  102MOL0     H13447   8.499   5.282   8.449  0.9379  2.4035 -0.1169
  102MOL0     H13448   8.440   5.784   8.542 -0.0392  0.5210 -0.6820
  102MOL0     H13449   8.351   5.906   8.706 -2.3308 -0.1606 -1.1934
  102MOL0     H13450   6.522   5.628   9.225 -1.0922  0.8037 -1.6101
  102MOL0     H13451   6.296   5.679   9.323  0.0611  0.4625 -1.8298
  102MOL0     H13452   5.894   5.786   9.283 -1.5065  1.6966 -0.9436
  102MOL0     H13453   5.694   5.836   9.387  0.2881 -0.7145 -1.4708
  102MOL0     H13454   5.712   6.052   9.757  0.5679  1.8103  0.5117
  102MOL0     H13455   5.539   6.023   9.725  2.5199 -4.7303  1.0796
  102MOL0     H13456   5.555   6.259   9.763 -0.3736  1.0284 -1.7467
  102MOL0     H13457   5.690   6.276   9.644  0.0048  0.8082 -1.6318
  102MOL0     H13458   5.441   6.361   9.613 -0.3306 -0.5499  0.1786
  102MOL0     H13459   5.408   6.201   9.579  0.6592 -0.4767 -0.2107
  102MOL0     H13460   5.589   6.196   9.388 -1.4695 -1.0369 -0.1956
  102MOL0     H13461   5.458   6.320   9.358  0.4890 -1.6320 -0.7650
  102MOL0     H13462   5.828   6.534   9.417 -2.5628  4.2076 -0.6046
  102MOL0     H13463   5.874   6.140   9.616 -2.1583 -0.6219 -0.5371
  102MOL0     H13464   6.094   6.090   9.500 -1.1622  0.7544 -0.9696
  103MOL0     O13465   4.714   4.921   5.566 -0.2990 -0.2113  0.9026
  103MOL0     C13466   4.759   4.980   5.661 -0.5985 -0.1484 -0.7102
  103MOL0     O13467   4.885   4.973   5.714  0.7829  0.4245 -0.3699
  103MOL0     C13468   4.984   4.910   5.647 -1.0238  0.4623  0.8808
  103MOL0     C13469   5.088   4.853   5.717  0.9719 -0.7308  0.2615
  103MOL0     C13470   5.191   4.790   5.643  0.5274 -0.0625 -0.3160
  103MOL0     C13471   5.191   4.788   5.505  0.3255  0.0477  0.6416
  103MOL0     O13472   5.290   4.735   5.427  0.6301  0.0951  1.3291
  103MOL0     C13473   5.425   4.736   5.462  0.3411  0.3842 -0.2116
  103MOL0     C13474   5.494   4.654   5.348 -0.0064 -0.0575  0.6038
  103MOL0     C13475   5.636   4.667   5.346  0.0095  0.4725  0.2289
  103MOL0     C13476   5.715   4.557   5.259  0.1452 -0.3781  0.2498
  103MOL0     C13477   5.676   4.552   5.107 -0.4426  0.3566 -0.6090
  103MOL0     C13478   5.762   4.461   5.029  0.0923 -0.2608  0.0987
  103MOL0     C13479   5.722   4.432   4.883 -0.2491  0.1936 -0.3994
  103MOL0     C13480   5.805   4.322   4.826 -1.0247 -0.3694 -0.9321
  103MOL0     N13481   5.766   4.290   4.692 -0.0302  0.2384 -0.2396
  103MOL0     C13482   5.652   4.211   4.655 -0.4485 -0.0061  0.2190
  103MOL0     C13483   5.673   4.190   4.518 -0.2589  0.4282 -0.2318
  103MOL0     C13484   5.568   4.123   4.442  0.3473 -0.2757  0.1834
  103MOL0     C13485   5.433   4.192   4.444 -0.0495  0.3176 -0.1954
  103MOL0     C13486   5.325   4.107   4.383  0.3479 -0.3905 -0.8439
  103MOL0     C13487   5.335   4.087   4.240 -0.4481  0.3537  0.1724
  103MOL0     O13488   5.342   4.206   4.161 -0.2424  0.2379  0.4947
  103MOL0     C13489   5.233   4.284   4.147  0.2211  0.3620 -0.8649
  103MOL0     C13490   5.103   4.250   4.199  0.4236 -0.1128 -0.2762
  103MOL0     C13491   4.985   4.329   4.181  0.1221 -0.9997  0.7692
  103MOL0     C13492   5.004   4.451   4.111 -0.4895 -0.6616 -1.2105
  103MOL0     C13493   4.889   4.551   4.098 -0.9175 -0.1982  0.4366
  103MOL0     O13494   4.911   4.662   4.023 -0.3676  0.4867 -0.4222
  103MOL0     C13495   4.828   4.775   4.056 -0.4089 -0.0381 -0.3363
  103MOL0     C13496   4.880   4.868   4.158  1.3228 -0.3083  0.3373
  103MOL0     C13497   4.808   4.973   4.212 -0.2344 -0.3987  0.3668
  103MOL0     C13498   4.682   4.991   4.157 -0.1193 -0.2888 -1.0182
  103MOL0     O13499   4.597   5.099   4.205 -0.4775  0.0460  0.1505
  103MOL0     C13500   4.611   5.123   4.349  1.0691 -0.6677  0.3201
  103MOL0     C13501   4.475   5.134   4.422  0.5155  0.0063  0.2596
  103MOL0     C13502   4.406   5.267   4.400  0.5482 -0.4293 -0.3797
  103MOL0     C13503   4.270   5.275   4.473 -0.2183  0.0253  0.5014
  103MOL0     C13504   4.215   5.416   4.451  1.1821  0.4681  0.2171
  103MOL0     C13505   4.064   5.426   4.484 -1.0854  0.5777  0.4319
  103MOL0     C13506   4.017   5.410   4.633  0.5905  0.2123 -0.4827
  103MOL0     C13507   3.867   5.395   4.660  0.4638  0.6590  0.3924
  103MOL0    Cl13508   3.791   5.552   4.695  0.1949  0.1203  0.2929
  103MOL0     C13509   4.635   4.916   4.046  0.6832 -0.2290  1.0061
  103MOL0     C13510   4.713   4.810   3.991 -0.0120 -0.2416 -1.0335
  103MOL0     O13511   4.785   4.530   4.161 -0.1087  0.2300  1.2612
  103MOL0     C13512   5.131   4.482   4.053 -0.5524 -0.1850 -0.1208
  103MOL0     C13513   5.244   4.394   4.069 -0.0859 -0.5402 -0.0334
  103MOL0     N13514   5.794   4.246   4.487 -0.8368 -0.6818 -0.0293
  103MOL0     N13515   5.845   4.310   4.584  0.0687  0.0870  0.5434
  103MOL0     C13516   5.088   4.847   5.434  0.7177 -0.2200  0.4957
  103MOL0     C13517   4.986   4.910   5.509 -0.0010 -0.3129 -0.3451
  103MOL0     C13518   4.671   5.082   5.719 -0.1171  1.0911  0.3898
  103MOL0     C13519   4.561   5.134   5.652  0.1767 -0.0030  0.0878
  103MOL0     C13520   4.474   5.230   5.705 -0.4837 -0.2749  0.3169
  103MOL0     C13521   4.492   5.270   5.836  1.5526 -0.7900  0.6900
  103MOL0     O13522   4.402   5.358   5.898 -0.0492  0.4946  0.4720
  103MOL0     C13523   4.327   5.454   5.811 -0.3544  0.5871 -0.4245
  103MOL0     C13524   4.258   5.586   5.862 -0.3075  0.4105 -0.5296
  103MOL0     C13525   4.221   5.591   6.014 -0.6160  0.5833  0.0124
  103MOL0     C13526   4.074   5.650   6.035 -0.3309 -0.3400 -1.0062
  103MOL0     C13527   3.988   5.574   6.132 -0.0125 -0.8479  0.7573
  103MOL0     C13528   3.902   5.536   6.204  0.1121  0.5898 -0.0208
  103MOL0     C13529   4.591   5.203   5.918 -0.7419 -0.1602 -1.0526
  103MOL0     C13530   4.688   5.120   5.858  1.0800  0.3910  0.4254
  103MOL0     H13531   5.094   4.861   5.825  0.6626  0.8281  0.1857
  103MOL0     H13532   5.258   4.739   5.712  0.2527 -0.0916 -0.0706
  103MOL0     H13533   5.444   4.676   5.552  0.5949  0.3348 -0.2976
  103MOL0     H13534   5.471   4.835   5.473  1.4443 -0.2770  1.7193
  103MOL0     H13535   5.462   4.698   5.254 -3.3843  0.2121  1.7582
  103MOL0     H13536   5.473   4.547   5.363  0.9290 -0.3616 -0.1073
  103MOL0     H13537   5.661   4.656   5.452 -1.5759 -4.6857  0.3658
  103MOL0     H13538   5.670   4.764   5.308 -2.1275  1.3051  0.3349
  103MOL0     H13539   5.824   4.563   5.269  0.6603  0.0802 -3.9821
  103MOL0     H13540   5.704   4.457   5.303  0.1508 -0.7503 -0.5812
  103MOL0     H13541   5.682   4.657   5.079 -0.8682  0.9096  1.1936
  103MOL0     H13542   5.570   4.525   5.104 -0.6867  1.2867 -0.6406
  103MOL0     H13543   5.762   4.366   5.082 -1.4859 -1.6811 -2.3117
  103MOL0     H13544   5.868   4.489   5.034  0.4543 -1.1309 -1.9465
  103MOL0     H13545   5.623   4.385   4.874 -0.1901 -0.1044  0.4797
  103MOL0     H13546   5.720   4.517   4.814  2.9123  0.5070 -0.2305
  103MOL0     H13547   5.810   4.232   4.888  1.2302  1.8605  2.4715
  103MOL0     H13548   5.907   4.360   4.841  0.4725 -5.2104  4.2538
  103MOL0     H13549   5.568   4.172   4.711 -0.8543 -0.9336 -0.9863
  103MOL0     H13550   5.558   4.025   4.490  1.0064  1.4073  4.2032
  103MOL0     H13551   5.604   4.121   4.339 -0.1778  0.0699 -0.0076
  103MOL0     H13552   5.433   4.296   4.408 -3.2599  0.8484  1.0014
  103MOL0     H13553   5.412   4.200   4.551 -1.7019  2.4784 -0.6097
  103MOL0     H13554   5.317   4.009   4.430 -2.1182  0.5146  0.7836
  103MOL0     H13555   5.224   4.135   4.415  0.3788 -1.0908 -0.1083
  103MOL0     H13556   5.253   4.027   4.200 -1.7884  2.5670 -0.6287
  103MOL0     H13557   5.425   4.029   4.217  0.0852  1.5073 -0.7887
  103MOL0     H13558   5.081   4.162   4.258 -0.4768  0.6108  0.4968
  103MOL0     H13559   4.883   4.308   4.211 -0.8116  1.0950 -0.7062
  103MOL0     H13560   4.966   4.843   4.220  1.9794  0.8289 -0.0997
  103MOL0     H13561   4.862   5.038   4.280  2.9253 -0.9055 -1.4485
  103MOL0     H13562   4.670   5.215   4.352 -2.5224  1.9824 -1.3167
  103MOL0     H13563   4.669   5.043   4.394 -1.1728 -1.9116  1.1786
  103MOL0     H13564   4.486   5.129   4.531  0.3744  3.3541  0.5461
  103MOL0     H13565   4.410   5.051   4.393 -1.2603  1.1334  0.8666
  103MOL0     H13566   4.377   5.279   4.295 -2.1356 -0.1332  0.3402
  103MOL0     H13567   4.468   5.351   4.433  0.3910 -0.9693  1.3560
  103MOL0     H13568   4.215   5.187   4.436 -2.5839  1.6560 -0.0638
  103MOL0     H13569   4.287   5.264   4.581  2.4708  1.0879  0.2443
  103MOL0     H13570   4.222   5.449   4.347 -0.9671  2.1008  0.5058
  103MOL0     H13571   4.265   5.483   4.521 -1.6114  1.7977  1.0984
  103MOL0     H13572   3.999   5.359   4.426  0.3944  1.9957 -3.1256
  103MOL0     H13573   4.037   5.526   4.450  0.9579 -0.0426 -3.6006
  103MOL0     H13574   4.067   5.321   4.674  1.5562  1.3989  1.0316
  103MOL0     H13575   4.045   5.501   4.687  0.8093 -0.6782  0.9591
  103MOL0     H13576   3.837   5.322   4.736 -0.1429 -1.1292 -1.4611
  103MOL0     H13577   3.822   5.339   4.577 -2.5005 -1.2107  2.9868
  103MOL0     H13578   4.541   4.935   3.996  2.0895 -0.2193 -1.8624
  103MOL0     H13579   4.686   4.767   3.894  1.6676  3.2268 -3.2567
  103MOL0     H13580   5.132   4.569   3.988 -2.0558  0.0306  0.1081
  103MOL0     H13581   5.339   4.417   4.022 -0.4405 -0.0556 -0.5236
  103MOL0     H13582   5.092   4.848   5.325 -1.1413  0.5182  0.4026
  103MOL0     H13583   4.915   4.964   5.447  1.4846  1.0067 -0.9687
  103MOL0     H13584   4.534   5.101   5.552 -2.3209  1.9770 -0.0036
  103MOL0     H13585   4.392   5.253   5.638 -0.2368 -0.6630 -0.1190
  103MOL0     H13586   4.236   5.400   5.783 -0.7583  0.4372  1.0870
  103MOL0     H13587   4.372   5.484   5.716 -0.0911  0.6314 -0.2876
  103MOL0     H13588   4.331   5.665   5.844  0.8407 -0.1261  1.4305
  103MOL0     H13589   4.169   5.593   5.798  0.0772 -0.7814 -1.2390
  103MOL0     H13590   4.297   5.634   6.080  0.8524 -1.0254 -0.5478
  103MOL0     H13591   4.227   5.492   6.061  2.9925  1.1928  1.1632
  103MOL0     H13592   4.086   5.755   6.061  2.7819 -0.8966  0.2933
  103MOL0     H13593   4.014   5.654   5.944 -0.1366 -2.1603 -1.2610
  103MOL0     H13594   3.844   5.502   6.287 -1.0605 -1.6456 -1.6662
  103MOL0     H13595   4.598   5.232   6.022 -1.6343 -0.4180 -0.9149
  103MOL0     H13596   4.781   5.090   5.906  2.3402  3.3043  0.0354
  104MOL0     O13597   6.667  11.173   4.804  0.4756 -0.7293  0.2430
  104MOL0     C13598   6.748  11.206   4.721 -0.1574  0.0065 -0.4937
  104MOL0     O13599   6.778  11.335   4.678 -0.3510 -0.0806  0.4936
  104MOL0     C13600   6.706  11.447   4.728  0.0326  0.4896 -0.1340
  104MOL0     C13601   6.774  11.567   4.705  0.7432 -1.6783 -0.3689
  104MOL0     C13602   6.729  11.678   4.781  0.2573  0.2422 -0.2401
  104MOL0     C13603   6.617  11.663   4.870 -0.1175 -0.4986 -0.3181
  104MOL0     O13604   6.590  11.770   4.952  0.1934 -0.6433 -0.2770
  104MOL0     C13605   6.449  11.799   4.979  0.3893  0.0365 -0.3062
  104MOL0     C13606   6.431  11.944   5.027  0.1735 -0.0987 -0.4796
  104MOL0     C13607   6.477  12.053   4.929 -0.9228  0.6078  0.1131
  104MOL0     C13608   6.407  12.180   4.944 -1.1106  0.2519 -0.2646
  104MOL0     C13609   6.417  12.285   4.826 -0.6726 -0.6531 -0.4822
  104MOL0     C13610   6.382  12.431   4.866 -0.1633  0.0425  0.0298
  104MOL0     C13611   6.343  12.530   4.759  0.5227 -0.5263  0.5629
  104MOL0     C13612   6.205  12.489   4.693  0.5503 -0.0069  0.3292
  104MOL0     N13613   6.100  12.457   4.790  0.6490 -0.1181  0.0125
  104MOL0     C13614   6.055  12.547   4.883  0.2992  0.8139  0.2690
  104MOL0     C13615   5.985  12.468   4.973 -0.1894 -0.8642  0.2596
  104MOL0     C13616   5.903  12.496   5.100  0.8574  0.1891 -1.3675
  104MOL0     C13617   5.761  12.557   5.066  0.3781  0.5390  0.2126
  104MOL0     C13618   5.687  12.607   5.187 -0.1199  0.8481 -0.0832
  104MOL0     C13619   5.536  12.640   5.154  0.4842  0.0309  0.1531
  104MOL0     O13620   5.452  12.536   5.086 -0.0423  0.0866 -0.1029
  104MOL0     C13621   5.322  12.554   5.057  0.6829 -0.1076  0.1095
  104MOL0     C13622   5.257  12.679   5.057  0.1876 -1.1863  0.1879
  104MOL0     C13623   5.121  12.694   5.026  0.4709  0.2807 -0.5026
  104MOL0     C13624   5.042  12.577   4.988  1.1771  1.3013 -0.6315
  104MOL0     C13625   4.895  12.583   4.973  0.0473 -0.2162  0.1755
  104MOL0     O13626   4.829  12.470   4.944 -0.3291  0.4409  0.2124
  104MOL0     C13627   4.725  12.463   4.857 -0.7906 -0.0853  0.2206
  104MOL0     C13628   4.621  12.380   4.877  0.4769  1.0630 -0.4097
  104MOL0     C13629   4.512  12.391   4.792 -0.0106  0.4555 -1.1713
  104MOL0     C13630   4.517  12.472   4.683 -0.5635  1.1094 -0.2558
  104MOL0     O13631   4.408  12.485   4.600 -0.5685  0.2324 -0.3855
  104MOL0     C13632   4.405  12.372   4.520 -0.0016 -0.1476  0.3838
  104MOL0     C13633   4.477  12.379   4.386 -0.4886  0.5153 -1.2036
  104MOL0     C13634   4.455  12.266   4.290 -0.1815  0.8669 -0.1814
  104MOL0     C13635   4.491  12.290   4.146  0.9047  0.2241 -0.3515
  104MOL0     C13636   4.644  12.280   4.129  0.0842  0.1846  0.2062
  104MOL0     C13637   4.686  12.292   3.986 -0.9254  0.1341  0.1725
  104MOL0     C13638   4.679  12.158   3.906 -0.1128 -0.6885 -0.3005
  104MOL0     C13639   4.707  12.170   3.766 -0.4297 -0.3789  0.0129
  104MOL0    Cl13640   4.703  12.003   3.703 -0.4728 -0.0669  0.1641
  104MOL0     C13641   4.629  12.545   4.652 -0.1904  0.4554  0.2369
  104MOL0     C13642   4.730  12.546   4.741 -0.1711  0.2803 -0.4050
  104MOL0     O13643   4.844  12.693   4.988  0.3699  0.6902 -0.5558
  104MOL0     C13644   5.113  12.459   4.988 -0.4184 -0.1358 -0.6105
  104MOL0     C13645   5.249  12.444   5.027  0.3796  0.7850 -0.0925
  104MOL0     N13646   5.987  12.342   4.923 -0.0408  0.3125  0.0865
  104MOL0     N13647   6.061  12.336   4.817  0.2935  0.8558 -0.4922
  104MOL0     C13648   6.542  11.547   4.869  0.0240 -0.9223 -0.1049
  104MOL0     C13649   6.574  11.444   4.793 -0.8550  0.0111 -0.7512
  104MOL0     C13650   6.822  11.102   4.652 -1.3449  0.2997 -0.8957
  104MOL0     C13651   6.896  11.123   4.533  0.1925  0.9727  1.2310
  104MOL0     C13652   6.971  11.021   4.466 -1.1052 -0.1993  0.2446
  104MOL0     C13653   6.959  10.891   4.514  0.1697  0.7304  0.6660
  104MOL0     O13654   7.014  10.785   4.450  0.5975 -0.0765 -0.4460
  104MOL0     C13655   7.151  10.816   4.410 -0.0471 -0.3952 -0.5049
  104MOL0     C13656   7.205  10.686   4.359 -0.0102 -0.3553 -0.5706
  104MOL0     C13657   7.310  10.685   4.250  0.0002 -0.3315  0.9784
  104MOL0     C13658   7.454  10.735   4.293 -0.1866  0.4318 -0.6559
  104MOL0     C13659   7.473  10.885   4.278  0.4536 -1.0497 -0.2942
  104MOL0     C13660   7.492  11.006   4.254  1.7439 -0.4300 -0.4962
  104MOL0     C13661   6.876  10.866   4.626  0.5795  0.5184  0.1911
  104MOL0     C13662   6.814  10.972   4.690  0.8639  0.5074 -0.3806
  104MOL0     H13663   6.859  11.576   4.638  2.0011  1.2430  1.4243
  104MOL0     H13664   6.785  11.771   4.775  3.2651 -1.5513 -2.0948
  104MOL0     H13665   6.414  11.736   5.061  0.3907  2.1639  1.4066
  104MOL0     H13666   6.391  11.785   4.887 -1.6726 -0.1079  0.9528
  104MOL0     H13667   6.485  11.945   5.122  0.8337 -0.9381 -0.8352
  104MOL0     H13668   6.323  11.948   5.042 -0.0278 -1.7308 -1.3223
  104MOL0     H13669   6.470  11.995   4.837 -2.3182 -3.9207  2.7553
  104MOL0     H13670   6.586  12.060   4.931 -0.9173  0.4647  0.5790
  104MOL0     H13671   6.302  12.160   4.967 -1.1074  0.2983 -0.2117
  104MOL0     H13672   6.455  12.213   5.037 -3.4490 -0.9490  1.5018
  104MOL0     H13673   6.349  12.249   4.749 -2.8453  1.7293  0.1368
  104MOL0     H13674   6.518  12.283   4.785  0.2664 -0.0255  1.6304
  104MOL0     H13675   6.468  12.475   4.917  0.7404  1.3885 -2.4754
  104MOL0     H13676   6.298  12.429   4.936  1.4363  0.0665  2.0422
  104MOL0     H13677   6.327  12.623   4.814 -2.3890  1.4541 -3.1897
  104MOL0     H13678   6.414  12.547   4.678  0.0748 -4.2171 -0.7793
  104MOL0     H13679   6.213  12.405   4.623  1.7594 -0.5486  1.0826
  104MOL0     H13680   6.157  12.577   4.650 -2.6940 -0.7578  2.0850
  104MOL0     H13681   6.074  12.654   4.875  0.1175  0.9106  1.0835
  104MOL0     H13682   5.965  12.550   5.172  1.8372 -2.2770 -0.2351
  104MOL0     H13683   5.902  12.391   5.129 -0.7934 -0.4494 -3.5238
  104MOL0     H13684   5.703  12.493   5.000  2.3864  1.8883 -3.1298
  104MOL0     H13685   5.800  12.637   5.001  2.8244  0.0220  0.9431
  104MOL0     H13686   5.686  12.537   5.271  2.4638  3.1156  2.0748
  104MOL0     H13687   5.750  12.689   5.223 -0.8154  0.2807  2.6356
  104MOL0     H13688   5.520  12.736   5.103  0.4293  0.5248  1.0674
  104MOL0     H13689   5.477  12.675   5.239 -0.4330 -0.0720 -0.4182
  104MOL0     H13690   5.327  12.758   5.085 -0.1491 -0.4556 -0.9731
  104MOL0     H13691   5.078  12.794   5.035 -1.0589 -0.1698 -2.1351
  104MOL0     H13692   4.621  12.319   4.967  0.4030  0.9950 -0.4557
  104MOL0     H13693   4.427  12.328   4.818  0.8216 -0.5575 -0.8545
  104MOL0     H13694   4.301  12.345   4.501 -0.2013  0.6810  0.2452
  104MOL0     H13695   4.433  12.279   4.570  0.2779  0.7676  1.9748
  104MOL0     H13696   4.583  12.392   4.413 -0.1431  0.1964 -2.3548
  104MOL0     H13697   4.450  12.478   4.349  0.1099  0.4184 -1.9119
  104MOL0     H13698   4.346  12.254   4.295 -0.2686  0.8627 -1.6285
  104MOL0     H13699   4.510  12.176   4.319  1.7313  2.4766  1.4889
  104MOL0     H13700   4.453  12.209   4.083 -0.4004  0.7693 -0.2953
  104MOL0     H13701   4.449  12.384   4.108 -0.9679 -1.6537 -3.3245
  104MOL0     H13702   4.692  12.199   4.183 -2.5845  1.3457  4.9185
  104MOL0     H13703   4.664  12.375   4.179 -2.6383  2.5616 -2.6976
  104MOL0     H13704   4.789  12.326   3.972  0.4227 -3.8844 -0.8763
  104MOL0     H13705   4.609  12.359   3.945 -1.1010 -0.6385 -0.7979
  104MOL0     H13706   4.738  12.076   3.948 -2.9012 -2.7952 -0.2483
  104MOL0     H13707   4.580  12.113   3.914 -2.6156  3.8153 -2.2508
  104MOL0     H13708   4.800  12.224   3.750  0.2605 -1.6820 -0.5516
  104MOL0     H13709   4.629  12.221   3.709 -1.5141 -1.5361  0.4102
  104MOL0     H13710   4.616  12.599   4.559 -1.9766 -0.4589 -0.0983
  104MOL0     H13711   4.821  12.602   4.721 -0.4028  0.9998  0.4588
  104MOL0     H13712   5.064  12.366   4.959  2.6995 -2.1363  0.0828
  104MOL0     H13713   5.294  12.345   5.019  3.5202  1.7447  2.8607
  104MOL0     H13714   6.450  11.538   4.927 -1.4156 -1.2026 -2.3354
  104MOL0     H13715   6.504  11.361   4.785 -3.2705  1.8671 -0.1809
  104MOL0     H13716   6.908  11.224   4.495 -3.9339  2.2223  2.6975
  104MOL0     H13717   7.035  11.041   4.381 -0.8983 -3.4208 -0.4821
  104MOL0     H13718   7.207  10.861   4.493 -1.5364  3.0374 -1.1918
  104MOL0     H13719   7.160  10.889   4.330 -2.4305 -0.5175 -0.9609
  104MOL0     H13720   7.235  10.625   4.445 -2.0083 -0.4914  0.0859
  104MOL0     H13721   7.123  10.636   4.306 -0.2273  0.4496 -1.0083
  104MOL0     H13722   7.272  10.748   4.169  0.2898  2.1170  2.6330
  104MOL0     H13723   7.315  10.579   4.223 -2.3143 -1.1787  3.4257
  104MOL0     H13724   7.459  10.701   4.396  1.0348 -0.0595 -0.8554
  104MOL0     H13725   7.535  10.704   4.226 -0.4981 -0.4028 -0.6588
  104MOL0     H13726   7.505  11.100   4.204  0.2306 -0.5771 -1.2318
  104MOL0     H13727   6.871  10.767   4.672 -2.0898  1.6356  2.6619
  104MOL0     H13728   6.759  10.943   4.779  1.9405 -0.3715  0.0300
  105MOL0     O13729   3.586   3.810   7.516  0.1946  0.1376 -0.0001
  105MOL0     C13730   3.521   3.889   7.586  0.6278 -0.4050  0.4347
  105MOL0     O13731   3.430   3.988   7.537 -0.2532  0.4220  0.1362
  105MOL0     C13732   3.415   4.004   7.402 -1.3571 -0.1521 -0.4079
  105MOL0     C13733   3.284   4.020   7.345 -0.3796  0.4963 -0.8175
  105MOL0     C13734   3.269   4.038   7.204 -0.3169 -0.4010 -0.1576
  105MOL0     C13735   3.384   4.047   7.125  0.7552 -0.7273 -0.2144
  105MOL0     O13736   3.360   4.069   6.991 -0.1999 -0.3089 -0.3547
  105MOL0     C13737   3.470   4.086   6.897 -0.7677  0.8748 -1.0285
  105MOL0     C13738   3.484   4.235   6.881  0.0180 -0.0055  0.2349
  105MOL0     C13739   3.609   4.264   6.801 -0.5174  0.3452  0.9292
  105MOL0     C13740   3.732   4.254   6.892  1.1551 -0.7603 -0.3189
  105MOL0     C13741   3.842   4.346   6.835  0.3683  0.3855  0.5911
  105MOL0     C13742   3.884   4.306   6.696 -0.0691  0.2990 -0.4397
  105MOL0     C13743   4.005   4.381   6.644  0.6745  0.8188  0.5217
  105MOL0     C13744   4.053   4.326   6.514 -0.9444  0.6084 -0.6770
  105MOL0     N13745   4.152   4.418   6.456  0.1088 -0.3538  0.3385
  105MOL0     C13746   4.278   4.444   6.510 -0.0851 -0.4411 -0.0951
  105MOL0     C13747   4.335   4.534   6.424  0.1525  0.0873 -0.3094
  105MOL0     C13748   4.464   4.604   6.449 -0.2238 -1.1653 -0.3026
  105MOL0     C13749   4.597   4.541   6.410 -0.4123 -0.2409  0.1268
  105MOL0     C13750   4.700   4.657   6.387 -0.3120  0.2208 -0.0249
  105MOL0     C13751   4.831   4.597   6.342  1.0479 -0.9788  0.6969
  105MOL0     O13752   4.925   4.706   6.334  0.1047 -0.7505 -0.0408
  105MOL0     C13753   5.048   4.706   6.283  0.1459  0.7492  0.3308
  105MOL0     C13754   5.114   4.581   6.250 -0.0967 -0.8218  0.2746
  105MOL0     C13755   5.244   4.577   6.199 -0.3192 -0.2911 -0.8427
  105MOL0     C13756   5.314   4.697   6.181 -0.2800  0.4223  0.4182
  105MOL0     C13757   5.462   4.680   6.130  0.4857 -0.1465  0.8808
  105MOL0     O13758   5.507   4.769   6.032  0.7349  0.1948  0.5027
  105MOL0     C13759   5.626   4.749   5.969  0.0637 -0.2689 -0.0725
  105MOL0     C13760   5.745   4.791   6.025 -0.0836 -1.8239  0.6396
  105MOL0     C13761   5.862   4.787   5.944  0.1691 -0.0834  0.3943
  105MOL0     C13762   5.860   4.754   5.810  0.0425 -0.0594  0.0780
  105MOL0     O13763   5.977   4.757   5.743 -0.1022 -0.0856 -0.0428
  105MOL0     C13764   5.990   4.687   5.615 -0.3025 -0.5027 -0.5245
  105MOL0     C13765   6.129   4.618   5.614 -0.3478  0.6276  0.5020
  105MOL0     C13766   6.166   4.537   5.734  0.2772 -0.5597  0.6857
  105MOL0     C13767   6.301   4.462   5.715  0.2529 -0.7749  0.2043
  105MOL0     C13768   6.313   4.325   5.789  0.1789  0.9614  0.1800
  105MOL0     C13769   6.457   4.271   5.793  0.0083  0.1758 -0.1862
  105MOL0     C13770   6.444   4.128   5.836  0.4146  0.4790 -0.5004
  105MOL0     C13771   6.579   4.069   5.849 -0.4055  1.0497 -0.5212
  105MOL0    Cl13772   6.649   4.056   5.679 -0.0920  0.2646 -0.0253
  105MOL0     C13773   5.733   4.717   5.756 -1.3254  0.3882  0.6173
  105MOL0     C13774   5.619   4.716   5.830  0.4514 -0.8015 -0.4179
  105MOL0     O13775   5.518   4.573   6.155  0.0735  0.3045  0.0139
  105MOL0     C13776   5.251   4.818   6.203  0.3351 -0.7930 -0.6021
  105MOL0     C13777   5.122   4.823   6.262 -0.3184 -0.0065 -0.1335
  105MOL0     N13778   4.243   4.562   6.322 -0.4865  0.9206 -0.6862
  105MOL0     N13779   4.129   4.498   6.349  0.4312 -0.5208  0.2887
  105MOL0     C13780   3.506   4.042   7.184 -0.4785 -0.5665  0.4165
  105MOL0     C13781   3.528   4.024   7.319 -0.0396  0.6025 -1.5308
  105MOL0     C13782   3.556   3.896   7.733  0.3276 -0.1725  0.1945
  105MOL0     C13783   3.476   3.985   7.816 -0.6795  1.1504  0.5452
  105MOL0     C13784   3.514   3.983   7.956  1.0924 -0.1155 -0.5954
  105MOL0     C13785   3.624   3.913   8.006 -0.1981 -0.5830  0.3964
  105MOL0     O13786   3.671   3.907   8.131  0.9033 -0.6863  0.3999
  105MOL0     C13787   3.630   3.995   8.231  0.1774 -1.0341  0.1079
  105MOL0     C13788   3.711   4.010   8.363  0.1845 -0.4434 -0.0886
  105MOL0     C13789   3.654   4.112   8.469  0.5495  0.1739  0.5543
  105MOL0     C13790   3.737   4.099   8.600 -0.8871  0.0576  0.3351
  105MOL0     C13791   3.686   4.188   8.697 -0.3362 -0.1035 -0.7541
  105MOL0     C13792   3.627   4.251   8.792  0.0790  0.5410 -0.2774
  105MOL0     C13793   3.696   3.835   7.918  0.1769 -0.2135  0.2333
  105MOL0     C13794   3.663   3.822   7.782 -0.6072 -0.1858  0.3173
  105MOL0     H13795   3.195   4.014   7.406  0.4358  6.0573  1.5492
  105MOL0     H13796   3.171   4.051   7.158 -0.9128 -0.8639  0.9435
  105MOL0     H13797   3.447   4.034   6.803 -0.8903 -0.7185 -0.1473
  105MOL0     H13798   3.562   4.039   6.934 -0.7998  0.4041 -1.5398
  105MOL0     H13799   3.497   4.280   6.980  1.1289 -0.8183  0.4788
  105MOL0     H13800   3.399   4.283   6.832  0.3007  1.3465  1.0113
  105MOL0     H13801   3.595   4.368   6.771 -1.0614  0.3412  1.1510
  105MOL0     H13802   3.629   4.207   6.710  1.8354  0.9006  1.0225
  105MOL0     H13803   3.701   4.284   6.992  4.0425  1.1610  0.1062
  105MOL0     H13804   3.771   4.152   6.884  3.3096  0.1679 -3.5031
  105MOL0     H13805   3.928   4.349   6.902  1.5947  3.1519 -0.9505
  105MOL0     H13806   3.803   4.448   6.832 -0.0317  0.2083 -1.0309
  105MOL0     H13807   3.811   4.323   6.617 -1.9829 -0.9971  0.9517
  105MOL0     H13808   3.907   4.199   6.701 -1.5339  0.0302  2.0841
  105MOL0     H13809   3.973   4.485   6.629 -1.4997  0.2581  0.9573
  105MOL0     H13810   4.086   4.375   6.718  0.1324 -0.7660  1.0274
  105MOL0     H13811   3.968   4.336   6.445 -0.6996 -0.2282 -1.1143
  105MOL0     H13812   4.095   4.225   6.519  0.5743  1.0363 -3.0092
  105MOL0     H13813   4.310   4.400   6.605 -4.1831  0.0628  1.7490
  105MOL0     H13814   4.473   4.612   6.558  2.8855 -0.4400 -0.5105
  105MOL0     H13815   4.445   4.704   6.411 -0.5579 -0.1103  2.4082
  105MOL0     H13816   4.584   4.471   6.327 -1.5232 -1.7450  1.4957
  105MOL0     H13817   4.632   4.472   6.487  1.3288 -2.1166 -2.1783
  105MOL0     H13818   4.669   4.736   6.318 -2.8729  1.4383  2.3169
  105MOL0     H13819   4.717   4.709   6.482 -2.5469  0.5128  0.2650
  105MOL0     H13820   4.805   4.565   6.241  4.0328  4.3888 -2.2044
  105MOL0     H13821   4.857   4.511   6.404  0.8636 -3.3653 -2.2986
  105MOL0     H13822   5.063   4.489   6.276 -0.3895 -0.5466  0.6894
  105MOL0     H13823   5.288   4.479   6.191 -0.7386 -0.4107 -1.7793
  105MOL0     H13824   5.748   4.827   6.127  3.0951  0.7982 -0.2284
  105MOL0     H13825   5.955   4.827   5.983 -1.0225  1.4809  1.7844
  105MOL0     H13826   5.977   4.768   5.543  1.8263  0.9344  0.5803
  105MOL0     H13827   5.916   4.608   5.598  2.6620 -3.4784 -0.6295
  105MOL0     H13828   6.213   4.685   5.591 -0.4190  0.6022  0.1619
  105MOL0     H13829   6.122   4.546   5.532 -1.7903 -0.8091  1.8175
  105MOL0     H13830   6.096   4.459   5.764 -1.5923  0.2529 -1.2638
  105MOL0     H13831   6.160   4.600   5.823 -1.8788 -1.3035  1.1088
  105MOL0     H13832   6.320   4.437   5.611  0.2181 -1.6673  0.4076
  105MOL0     H13833   6.378   4.537   5.738  0.3757 -0.4944 -1.0811
  105MOL0     H13834   6.247   4.245   5.755 -0.0768 -0.6414  3.9378
  105MOL0     H13835   6.281   4.351   5.890  4.6917  1.6195  1.7082
  105MOL0     H13836   6.519   4.320   5.868  2.3934  2.3936 -3.3288
  105MOL0     H13837   6.514   4.273   5.700  0.4956 -1.1797  0.0605
  105MOL0     H13838   6.397   4.128   5.935  0.3995  0.4008 -0.5078
  105MOL0     H13839   6.380   4.058   5.782  1.3835 -1.8930  1.2908
  105MOL0     H13840   6.566   3.969   5.890 -0.1954  0.5427 -1.6545
  105MOL0     H13841   6.633   4.135   5.918 -2.3457 -0.5808  2.8388
  105MOL0     H13842   5.729   4.704   5.648  4.8889 -0.1686  0.1254
  105MOL0     H13843   5.523   4.703   5.781 -0.9434 -0.2578  1.9815
  105MOL0     H13844   5.305   4.912   6.204 -1.0308  0.1055 -3.2947
  105MOL0     H13845   5.092   4.921   6.298  2.7239  0.7575  0.6213
  105MOL0     H13846   3.596   4.051   7.123 -2.1104 -0.3627 -2.1324
  105MOL0     H13847   3.630   4.000   7.348 -0.9415 -1.3880  0.3041
  105MOL0     H13848   3.387   4.040   7.784  1.3857  2.5204 -3.4753
  105MOL0     H13849   3.457   4.028   8.036  1.0642 -0.2837 -0.5223
  105MOL0     H13850   3.529   3.981   8.272  1.0910 -1.0606  2.4523
  105MOL0     H13851   3.640   4.095   8.188  3.7555 -0.9209  0.9449
  105MOL0     H13852   3.691   3.914   8.410 -0.9950 -0.4066 -0.4856
  105MOL0     H13853   3.818   4.034   8.361  0.3698 -1.2939 -0.5226
  105MOL0     H13854   3.556   4.070   8.491  2.1587 -4.5262 -0.1464
  105MOL0     H13855   3.644   4.215   8.432 -1.6064 -0.8589 -2.0444
  105MOL0     H13856   3.746   3.994   8.626  3.1934  0.5381  1.4170
  105MOL0     H13857   3.839   4.129   8.573 -0.7927 -0.4048  0.1789
  105MOL0     H13858   3.562   4.284   8.870  0.7100  0.8321  0.1346
  105MOL0     H13859   3.778   3.773   7.954  1.6797 -0.0507 -2.5951
  105MOL0     H13860   3.731   3.768   7.718  0.8503  1.4396  0.4205
  106MOL0     O13861   9.862   0.187  11.048 -0.2490  0.0278 -0.7913
  106MOL0     C13862   9.946   0.099  11.033 -0.5227  0.9342 -0.6813
  106MOL0     O13863  10.072   0.095  11.086  0.2188 -0.8019 -0.9387
  106MOL0     C13864  10.131   0.203  11.150 -0.5312  0.2118  0.6826
  106MOL0     C13865  10.239   0.173  11.233  0.0034 -1.0169 -0.6797
  106MOL0     C13866  10.294   0.272  11.314 -0.4716 -0.4028  0.1515
  106MOL0     C13867  10.233   0.388  11.334  0.4838 -0.0669 -0.0778
  106MOL0     O13868  10.273   0.452  11.442 -0.0809  0.9285  0.0828
  106MOL0     C13869  10.177   0.524  11.519 -0.0267  1.4920  0.9565
  106MOL0     C13870  10.201   0.488  11.661  0.3441  0.4153 -0.3202
  106MOL0     C13871  10.350   0.484  11.705  0.1770 -0.3954  0.1414
  106MOL0     C13872  10.359   0.455  11.855 -0.6407  0.4760 -0.5721
  106MOL0     C13873  10.500   0.493  11.906 -0.4439 -0.3457 -0.5416
  106MOL0     C13874  10.591   0.367  11.900  0.1595 -0.4671  0.6735
  106MOL0     C13875  10.729   0.379  11.970  0.3146 -0.6768  0.3612
  106MOL0     C13876  10.703   0.412  12.120 -0.5652 -0.3514  0.4716
  106MOL0     N13877  10.836   0.380  12.187  0.4279  0.0400 -0.1136
  106MOL0     C13878  10.926   0.465  12.244  0.8333  0.1885 -0.5766
  106MOL0     C13879  11.031   0.395  12.282 -0.6932 -0.3307  0.2838
  106MOL0     C13880  11.169   0.446  12.332  0.6542 -0.7238  0.0281
  106MOL0     C13881  11.186   0.431  12.480 -0.0224  0.0100 -0.5275
  106MOL0     C13882  11.324   0.484  12.525  0.0455  0.1207 -0.4762
  106MOL0     C13883  11.332   0.474  12.674 -1.0108 -0.2226 -0.0198
  106MOL0     O13884  11.467   0.444  12.683  0.7156  0.4914 -0.9420
  106MOL0     C13885  11.534   0.460  12.803  0.4643 -0.0919 -0.7384
  106MOL0     C13886  11.665   0.413  12.793  0.0710 -0.4509 -0.3660
  106MOL0     C13887  11.754   0.408  12.907 -0.2646 -0.3391  0.4022
  106MOL0     C13888  11.707   0.454  13.029 -0.0247 -0.3269  1.9900
  106MOL0     C13889  11.786   0.464  13.152 -0.1693  0.2939  0.9905
  106MOL0     O13890  11.877   0.365  13.174  0.7358  0.4918  0.2617
  106MOL0     C13891  11.960   0.391  13.277 -0.2838  0.5207 -0.6477
  106MOL0     C13892  11.925   0.399  13.411  0.6904  0.5541 -0.3018
  106MOL0     C13893  12.027   0.414  13.510  0.3390 -0.2987 -0.1561
  106MOL0     C13894  12.165   0.429  13.471  0.2837 -0.2803  0.2037
  106MOL0     O13895  12.267   0.441  13.560 -0.3980  0.4098  0.1577
  106MOL0     C13896  12.236   0.536  13.671  0.8595 -0.5237  0.5102
  106MOL0     C13897  12.373   0.573  13.741  1.1161  0.2520  0.0877
  106MOL0     C13898  12.443   0.659  13.636 -0.0992  1.2706 -0.6354
  106MOL0     C13899  12.582   0.715  13.693 -0.2949 -0.6898  0.9257
  106MOL0     C13900  12.580   0.775  13.833 -0.1786  0.3103  0.2660
  106MOL0     C13901  12.462   0.874  13.862  0.3713 -0.8461  1.2898
  106MOL0     C13902  12.452   0.913  14.002  0.3066  0.3111  0.1280
  106MOL0     C13903  12.322   0.999  14.012  0.2116 -0.3536  0.7826
  106MOL0    Cl13904  12.314   1.141  13.902  0.1245  0.2757 -0.6807
  106MOL0     C13905  12.200   0.423  13.340 -0.2310  0.3800  0.5926
  106MOL0     C13906  12.100   0.409  13.247  0.0932  0.5440  0.5054
  106MOL0     O13907  11.777   0.564  13.218 -0.4416  0.1995  0.0304
  106MOL0     C13908  11.571   0.501  13.040  0.3257 -0.6671 -0.1304
  106MOL0     C13909  11.484   0.508  12.925 -0.0889  0.1873 -0.0413
  106MOL0     N13910  11.010   0.272  12.236  0.2250  0.3076 -1.3096
  106MOL0     N13911  10.887   0.257  12.189  0.5091  0.0526 -0.4186
  106MOL0     C13912  10.125   0.427  11.244  0.1683 -0.1007 -0.5986
  106MOL0     C13913  10.081   0.332  11.156  0.4345 -0.1657  0.2962
  106MOL0     C13914   9.913  -0.020  10.940 -0.6030 -0.4317  0.3139
  106MOL0     C13915  10.015  -0.121  10.915  0.5658 -0.5463 -0.3609
  106MOL0     C13916   9.989  -0.235  10.841 -0.7749 -0.4805  0.3020
  106MOL0     C13917   9.864  -0.250  10.779 -1.0462 -0.2455 -0.2579
  106MOL0     O13918   9.827  -0.353  10.701  0.4930  0.8157  0.6580
  106MOL0     C13919   9.924  -0.388  10.595  0.0068 -0.2514 -0.2970
  106MOL0     C13920   9.884  -0.325  10.454  0.0675 -1.3135 -0.7444
  106MOL0     C13921   9.918  -0.170  10.444  0.0047  0.4623 -0.5720
  106MOL0     C13922   9.901  -0.110  10.310  0.4099 -0.1301  0.1389
  106MOL0     C13923   9.767  -0.109  10.258  0.0540  0.1395 -0.2189
  106MOL0     C13924   9.646  -0.090  10.231 -0.0660  0.4189  0.3346
  106MOL0     C13925   9.767  -0.157  10.800  0.2031 -0.1623  0.6572
  106MOL0     C13926   9.790  -0.045  10.872  0.5358 -1.1481 -1.6517
  106MOL0     H13927  10.285   0.074  11.231 -1.4842 -1.7496 -0.1497
  106MOL0     H13928  10.386   0.251  11.367  0.4575  0.9541 -0.8730
  106MOL0     H13929  10.075   0.495  11.491 -0.0987  0.6414  2.0353
  106MOL0     H13930  10.191   0.631  11.499  2.5653  1.1308  0.4436
  106MOL0     H13931  10.178   0.383  11.679 -0.0831  0.8311  1.8400
  106MOL0     H13932  10.134   0.539  11.731  0.3820 -0.4421  0.3572
  106MOL0     H13933  10.399   0.580  11.684  4.1704 -1.5430  3.0405
  106MOL0     H13934  10.403   0.408  11.646 -0.3752 -0.1937 -0.6268
  106MOL0     H13935  10.274   0.503  11.905 -1.5523 -2.8314  1.3719
  106MOL0     H13936  10.330   0.353  11.879 -3.4356  1.1871 -0.6123
  106MOL0     H13937  10.495   0.534  12.008  3.6574 -0.4854 -0.1264
  106MOL0     H13938  10.541   0.576  11.848 -0.1763  1.3679  1.9196
  106MOL0     H13939  10.600   0.341  11.794  1.1594 -3.5501  1.3981
  106MOL0     H13940  10.542   0.278  11.941  2.1757 -1.3414  1.3150
  106MOL0     H13941  10.791   0.290  11.955 -1.0225 -1.4409 -0.9258
  106MOL0     H13942  10.778   0.468  11.928 -0.3977 -1.1450 -1.5984
  106MOL0     H13943  10.628   0.348  12.167 -0.3313  0.6566  2.2984
  106MOL0     H13944  10.680   0.517  12.137 -0.8009 -0.7016  2.6071
  106MOL0     H13945  10.905   0.572  12.244 -2.1761 -0.2524  1.4925
  106MOL0     H13946  11.187   0.552  12.311  0.2964 -0.6649 -0.0045
  106MOL0     H13947  11.240   0.376  12.289 -0.3344 -0.9642 -1.2953
  106MOL0     H13948  11.190   0.324  12.501 -1.9105  0.7816  6.0302
  106MOL0     H13949  11.097   0.470  12.531 -1.0714 -3.1816  0.2714
  106MOL0     H13950  11.408   0.447  12.465  1.0085  1.3626  0.0432
  106MOL0     H13951  11.325   0.590  12.494  0.1386  0.4195  0.5348
  106MOL0     H13952  11.274   0.392  12.716  2.4026 -1.9318  1.7757
  106MOL0     H13953  11.311   0.566  12.729 -2.0402  0.0262 -0.7829
  106MOL0     H13954  11.692   0.397  12.689 -2.9196 -0.2317 -1.2860
  106MOL0     H13955  11.858   0.377  12.899  0.1691  1.4083 -1.6853
  106MOL0     H13956  11.821   0.382  13.435 -0.1780  1.5470 -2.9022
  106MOL0     H13957  11.997   0.414  13.614  0.4596  0.6220 -0.1118
  106MOL0     H13958  12.166   0.484  13.737 -2.1939 -1.3552 -3.0778
  106MOL0     H13959  12.186   0.627  13.637 -1.1930 -2.5657 -2.4114
  106MOL0     H13960  12.438   0.492  13.777 -0.0673 -0.4161  0.7790
  106MOL0     H13961  12.345   0.631  13.830  1.1803  3.3865 -1.7744
  106MOL0     H13962  12.373   0.740  13.616  0.0090  0.9709 -2.3525
  106MOL0     H13963  12.464   0.613  13.539  1.5957 -1.9553  1.0994
  106MOL0     H13964  12.649   0.629  13.686  0.6348  0.1518 -1.5575
  106MOL0     H13965  12.635   0.787  13.630 -1.0008 -1.0692 -0.1413
  106MOL0     H13966  12.669   0.837  13.849  0.4407 -0.4110 -0.3204
  106MOL0     H13967  12.575   0.687  13.898  1.4751 -1.5797 -1.9983
  106MOL0     H13968  12.362   0.836  13.838 -0.3072  0.7658  1.3905
  106MOL0     H13969  12.485   0.963  13.803 -1.6632  0.9122  2.9519
  106MOL0     H13970  12.444   0.820  14.059 -1.3091  0.0831 -0.4362
  106MOL0     H13971  12.539   0.972  14.033  2.1980 -1.8031 -0.9023
  106MOL0     H13972  12.300   1.023  14.116  1.4436  0.7605  0.8167
  106MOL0     H13973  12.237   0.941  13.975  0.3821 -0.4029  0.4587
  106MOL0     H13974  12.305   0.439  13.316 -0.0623  0.2273  1.1926
  106MOL0     H13975  12.129   0.394  13.144 -1.4044 -0.0680  0.1499
  106MOL0     H13976  11.523   0.532  13.132 -1.6409 -0.0170 -1.2925
  106MOL0     H13977  11.381   0.541  12.932 -1.6702 -3.9249 -0.8995
  106MOL0     H13978  10.080   0.525  11.256  1.3474  0.4159 -0.2480
  106MOL0     H13979  10.016   0.351  11.071  1.9725  0.0722 -0.8592
  106MOL0     H13980  10.113  -0.096  10.953  1.3797 -0.3339 -2.4758
  106MOL0     H13981  10.069  -0.304  10.817 -1.0017 -0.7028  0.1792
  106MOL0     H13982   9.922  -0.497  10.588 -0.7492 -0.4328  1.8741
  106MOL0     H13983  10.027  -0.359  10.619  0.3624 -1.0584 -0.8142
  106MOL0     H13984   9.941  -0.387  10.385 -0.6032  1.0877 -3.6560
  106MOL0     H13985   9.781  -0.346  10.423 -0.1547 -0.2237 -0.7992
  106MOL0     H13986  10.024  -0.158  10.465 -0.7566  2.1162  3.0280
  106MOL0     H13987   9.857  -0.112  10.514 -0.8105 -0.8529 -0.1586
  106MOL0     H13988   9.934  -0.006  10.314 -0.3188  0.2319 -2.1306
  106MOL0     H13989   9.968  -0.165  10.244 -0.3639 -0.6196 -0.2581
  106MOL0     H13990   9.544  -0.067  10.206  0.3738 -0.3564 -2.4837
  106MOL0     H13991   9.674  -0.162  10.744  0.5509 -1.3542  0.1628
  106MOL0     H13992   9.724   0.042  10.872  0.5319 -1.1337 -0.4504
  107MOL0     O13993   5.117   6.407   4.735 -0.6427 -0.4258  0.3054
  107MOL0     C13994   5.181   6.451   4.837  0.7589 -0.7174  0.3930
  107MOL0     O13995   5.298   6.524   4.844  0.5838 -0.1040 -0.1448
  107MOL0     C13996   5.352   6.569   4.729  0.2974 -0.2139 -0.2602
  107MOL0     C13997   5.416   6.702   4.736  0.3341 -0.6511  1.0669
  107MOL0     C13998   5.490   6.756   4.627 -0.0549  0.2472 -0.2102
  107MOL0     C13999   5.511   6.680   4.514 -0.0297 -0.0799 -0.4713
  107MOL0     O14000   5.584   6.750   4.412  0.6818 -0.3717 -0.7738
  107MOL0     C14001   5.607   6.688   4.286 -0.2967 -0.1932 -0.1456
  107MOL0     C14002   5.675   6.777   4.181  0.4921  0.6743 -0.4171
  107MOL0     C14003   5.589   6.890   4.115  0.0207 -0.0426  0.3889
  107MOL0     C14004   5.466   6.852   4.030  0.9474  0.9201  0.7193
  107MOL0     C14005   5.496   6.768   3.901 -0.4650  0.0296  1.0633
  107MOL0     C14006   5.388   6.771   3.791 -0.9623  0.5091  0.7046
  107MOL0     C14007   5.431   6.678   3.676 -0.0167 -0.1709  0.7935
  107MOL0     C14008   5.427   6.523   3.701 -0.2479 -0.5757 -0.2173
  107MOL0     N14009   5.514   6.436   3.623  0.1531 -0.3258 -0.3174
  107MOL0     C14010   5.507   6.436   3.493  0.1335 -0.1665  0.4864
  107MOL0     C14011   5.590   6.336   3.447  1.7648  0.1327 -0.0214
  107MOL0     C14012   5.603   6.286   3.302  0.0326 -0.0310  0.6225
  107MOL0     C14013   5.730   6.364   3.244  0.3094  0.1826  0.0020
  107MOL0     C14014   5.865   6.313   3.299  0.8137 -0.1691 -0.0002
  107MOL0     C14015   5.968   6.392   3.230 -0.2532  0.1876  0.6684
  107MOL0     O14016   5.982   6.540   3.250 -0.0331 -0.3323 -0.4220
  107MOL0     C14017   6.055   6.602   3.148 -0.3283 -0.0886  0.0662
  107MOL0     C14018   6.004   6.720   3.104  0.4757  0.1869 -0.4622
  107MOL0     C14019   6.076   6.780   3.011 -0.7700 -0.6582  0.2521
  107MOL0     C14020   6.181   6.728   2.944 -0.4969 -0.3579  0.0779
  107MOL0     C14021   6.250   6.812   2.836  0.5501  0.0051 -0.3617
  107MOL0     O14022   6.376   6.772   2.816  0.0513 -0.3356  0.2120
  107MOL0     C14023   6.461   6.842   2.741 -0.3280 -0.0617  0.9677
  107MOL0     C14024   6.600   6.819   2.764  0.2481  0.5375  0.2688
  107MOL0     C14025   6.691   6.903   2.708 -0.4216 -0.4826  1.1804
  107MOL0     C14026   6.661   7.019   2.629 -0.4634  0.8465  0.1787
  107MOL0     O14027   6.768   7.086   2.575  0.0231 -0.1479 -0.0403
  107MOL0     C14028   6.737   7.173   2.463 -0.5058 -0.2518  0.3020
  107MOL0     C14029   6.872   7.247   2.426  0.4743  0.6369 -0.1438
  107MOL0     C14030   6.916   7.337   2.541  0.0612 -0.6578  0.1432
  107MOL0     C14031   7.060   7.366   2.538  0.5879  0.6669  0.1652
  107MOL0     C14032   7.095   7.471   2.643 -1.0314  0.1490 -1.0376
  107MOL0     C14033   7.246   7.503   2.647  0.0579 -0.0611 -0.6293
  107MOL0     C14034   7.333   7.393   2.696 -0.2712  0.3565 -0.1841
  107MOL0     C14035   7.469   7.450   2.734 -0.5912 -1.3978 -0.0348
  107MOL0    Cl14036   7.564   7.510   2.592  0.2341  0.7019 -0.7119
  107MOL0     C14037   6.525   7.026   2.588 -0.7317  1.2059 -0.2370
  107MOL0     C14038   6.429   6.932   2.637 -0.0026  0.3886 -0.5526
  107MOL0     O14039   6.187   6.904   2.787 -0.6376 -0.3233 -0.2649
  107MOL0     C14040   6.227   6.608   2.983 -1.0969  0.1303  0.0476
  107MOL0     C14041   6.168   6.538   3.088 -0.8051 -0.5024 -0.1330
  107MOL0     N14042   5.657   6.290   3.559 -0.0602 -0.2697  0.1942
  107MOL0     N14043   5.616   6.360   3.664 -1.8968  0.3364  0.2330
  107MOL0     C14044   5.452   6.551   4.508 -0.1387 -0.2333 -0.0015
  107MOL0     C14045   5.375   6.492   4.608 -0.2553 -0.1873  0.1047
  107MOL0     C14046   5.125   6.423   4.967  0.3425  0.3278 -0.6440
  107MOL0     C14047   5.199   6.445   5.083 -0.6247 -0.2925 -0.0726
  107MOL0     C14048   5.150   6.400   5.204  0.0368  0.4054  0.3795
  107MOL0     C14049   5.023   6.346   5.222 -0.2055  0.6076 -0.5379
  107MOL0     O14050   4.964   6.289   5.331  0.0263  0.4809  0.4859
  107MOL0     C14051   5.042   6.301   5.450  0.4575 -0.0249 -0.5316
  107MOL0     C14052   5.005   6.433   5.524  0.5489  0.0484  0.4005
  107MOL0     C14053   5.121   6.471   5.618 -0.1895  0.2208 -0.1164
  107MOL0     C14054   5.141   6.370   5.729 -0.0042 -0.0599  0.2412
  107MOL0     C14055   5.240   6.431   5.825  0.1192  0.1826 -1.0879
  107MOL0     C14056   5.311   6.495   5.912  1.4631  0.4282 -0.0995
  107MOL0     C14057   4.944   6.345   5.111 -0.2287  0.1852 -0.8049
  107MOL0     C14058   4.998   6.378   4.982  0.4036 -0.0565 -0.4394
  107MOL0     H14059   5.408   6.765   4.825  2.4662  1.4733 -0.1512
  107MOL0     H14060   5.532   6.856   4.623  1.4815 -0.3758 -0.5283
  107MOL0     H14061   5.513   6.653   4.243  0.6453 -1.6860 -1.0850
  107MOL0     H14062   5.666   6.598   4.303 -2.8905 -2.2025 -1.1449
  107MOL0     H14063   5.724   6.721   4.101 -2.0278 -0.4047 -1.2956
  107MOL0     H14064   5.749   6.832   4.240 -2.8024  1.7958  3.0623
  107MOL0     H14065   5.665   6.952   4.067  1.0323 -1.9544 -0.6143
  107MOL0     H14066   5.548   6.965   4.184  0.4759  1.3179 -0.7792
  107MOL0     H14067   5.382   6.804   4.080 -0.4530 -0.1061 -2.4245
  107MOL0     H14068   5.425   6.942   3.984 -0.8401 -1.6879 -3.3608
  107MOL0     H14069   5.509   6.668   3.942  0.4148 -0.6110 -0.6847
  107MOL0     H14070   5.580   6.815   3.850 -0.6880  1.3088  1.8148
  107MOL0     H14071   5.389   6.875   3.757  0.0119  0.8782  1.8005
  107MOL0     H14072   5.285   6.743   3.816 -1.0678 -3.6862 -3.1226
  107MOL0     H14073   5.366   6.696   3.590 -3.2102 -1.7735  2.6656
  107MOL0     H14074   5.531   6.704   3.640  0.3018 -0.4909  1.4454
  107MOL0     H14075   5.324   6.489   3.683 -0.3279 -1.2719  1.4013
  107MOL0     H14076   5.444   6.512   3.809 -0.9444 -0.9181 -0.1351
  107MOL0     H14077   5.442   6.507   3.441  3.2979  1.6125 -1.3554
  107MOL0     H14078   5.512   6.310   3.247  0.1796 -1.0653 -0.0873
  107MOL0     H14079   5.623   6.179   3.293  0.1552  0.1288 -1.5341
  107MOL0     H14080   5.729   6.465   3.284 -2.3358  0.5764 -0.8767
  107MOL0     H14081   5.721   6.365   3.135 -3.0746  4.0242  0.1138
  107MOL0     H14082   5.869   6.314   3.408 -1.0881  2.3203  0.1467
  107MOL0     H14083   5.872   6.205   3.286 -0.5463 -0.5927  2.2477
  107MOL0     H14084   5.967   6.373   3.123  2.1225  0.9142  0.4636
  107MOL0     H14085   6.064   6.353   3.264  0.1080 -0.3175 -0.8668
  107MOL0     H14086   5.918   6.766   3.152  1.2450 -0.2723  1.4483
  107MOL0     H14087   6.038   6.879   2.991  6.0752  2.1437 -2.1976
  107MOL0     H14088   6.629   6.745   2.838  0.9913  0.8900  0.3374
  107MOL0     H14089   6.797   6.896   2.726  0.0909  2.3828 -0.1029
  107MOL0     H14090   6.653   7.241   2.477 -2.1818 -1.4895 -2.7178
  107MOL0     H14091   6.714   7.111   2.376  0.8801 -0.3132 -0.0486
  107MOL0     H14092   6.868   7.308   2.335  0.1369 -1.2569 -1.4612
  107MOL0     H14093   6.944   7.165   2.414  3.4564  2.9366  0.7934
  107MOL0     H14094   6.884   7.298   2.638 -2.1345 -2.5909 -1.2429
  107MOL0     H14095   6.863   7.431   2.523  0.6566 -0.3800 -0.1921
  107MOL0     H14096   7.129   7.281   2.549 -0.9747 -0.6881 -0.2185
  107MOL0     H14097   7.086   7.397   2.436 -1.9856 -0.8732 -1.0538
  107MOL0     H14098   7.075   7.442   2.746 -0.5267  1.8121 -0.4390
  107MOL0     H14099   7.035   7.561   2.629 -1.0330  0.4368  0.6885
  107MOL0     H14100   7.268   7.586   2.715 -1.5734  0.6546 -0.9168
  107MOL0     H14101   7.290   7.519   2.548  1.9136 -2.5516 -0.3151
  107MOL0     H14102   7.292   7.360   2.792  2.6641 -1.1178  0.6813
  107MOL0     H14103   7.337   7.309   2.626  2.2527  2.4330 -2.8249
  107MOL0     H14104   7.541   7.385   2.786  1.4963 -0.0981 -1.1724
  107MOL0     H14105   7.455   7.530   2.806  2.6597 -0.4960 -0.2174
  107MOL0     H14106   6.493   7.089   2.506  2.9060  1.3394 -1.7553
  107MOL0     H14107   6.328   6.946   2.600  0.0197  2.5848  0.0764
  107MOL0     H14108   6.302   6.564   2.918 -0.3897 -2.2469  2.2424
  107MOL0     H14109   6.203   6.441   3.122  0.2500  0.4132  1.5814
  107MOL0     H14110   5.467   6.496   4.416  0.2701  0.5243 -0.3990
  107MOL0     H14111   5.326   6.396   4.593  0.4159 -0.3884 -0.9364
  107MOL0     H14112   5.299   6.486   5.075  1.2783 -4.4618 -0.5381
  107MOL0     H14113   5.229   6.409   5.278 -0.6804  2.2701  0.9896
  107MOL0     H14114   5.150   6.295   5.433  1.0348  3.4602  1.0254
  107MOL0     H14115   5.008   6.212   5.503 -0.7908 -1.1534 -3.0459
  107MOL0     H14116   4.996   6.511   5.448  2.4155 -1.3093 -1.2915
  107MOL0     H14117   4.910   6.418   5.578  0.6188 -0.0430  0.4986
  107MOL0     H14118   5.085   6.563   5.665 -2.5769 -0.5983 -0.2063
  107MOL0     H14119   5.210   6.495   5.558 -1.2825  0.5203 -1.6762
  107MOL0     H14120   5.043   6.360   5.776 -0.7015  2.6614 -0.4853
  107MOL0     H14121   5.178   6.274   5.691  0.4478 -1.0586  3.0253
  107MOL0     H14122   5.379   6.550   5.974  2.4661 -3.3350  2.4850
  107MOL0     H14123   4.848   6.294   5.113 -0.8542  1.2821 -1.6610
  107MOL0     H14124   4.929   6.367   4.899 -2.2917  2.2550  1.3053
  108MOL0     O14125   8.930   8.220   7.431 -0.3721 -0.1792  0.2193
  108MOL0     C14126   8.970   8.272   7.534 -0.7281 -0.5200 -0.4598
  108MOL0     O14127   9.090   8.334   7.557  0.5982  0.5706  0.5332
  108MOL0     C14128   9.198   8.283   7.480  0.1098 -0.1340  0.5505
  108MOL0     C14129   9.252   8.155   7.482 -0.6417  0.0128 -0.1900
  108MOL0     C14130   9.362   8.117   7.405  0.3048  0.1410  0.4151
  108MOL0     C14131   9.435   8.215   7.336 -0.1822  0.4362  0.0295
  108MOL0     O14132   9.553   8.178   7.281  0.3663  0.1644  0.2698
  108MOL0     C14133   9.624   8.257   7.187 -0.6077 -0.8425  0.1036
  108MOL0     C14134   9.744   8.349   7.223  0.5102  0.2080 -0.3754
  108MOL0     C14135   9.820   8.378   7.096 -0.2690 -0.3619 -0.0977
  108MOL0     C14136   9.960   8.449   7.129  1.3494  0.4951 -0.3960
  108MOL0     C14137  10.051   8.493   7.016 -0.6992 -0.7256  0.1129
  108MOL0     C14138   9.972   8.603   6.941 -0.0108 -0.1183  0.0570
  108MOL0     C14139  10.050   8.717   6.878 -0.0298 -0.3902 -0.4355
  108MOL0     C14140  10.159   8.683   6.784  0.1956  0.1937  0.2312
  108MOL0     N14141  10.111   8.630   6.665 -0.1038 -0.3209 -0.6188
  108MOL0     C14142  10.085   8.696   6.551  0.1082  0.0787  0.6786
  108MOL0     C14143  10.075   8.600   6.451 -0.4011 -0.0720  0.1645
  108MOL0     C14144  10.040   8.611   6.306  0.0096 -0.4314 -0.6732
  108MOL0     C14145   9.895   8.590   6.276 -0.3585 -0.4794  0.5130
  108MOL0     C14146   9.836   8.470   6.354 -0.2219 -0.5985  0.6001
  108MOL0     C14147   9.884   8.331   6.304 -0.5417 -1.3714 -1.1878
  108MOL0     O14148   9.840   8.305   6.171  0.3360  0.3839 -0.2536
  108MOL0     C14149   9.872   8.188   6.121  0.7450 -0.0808 -0.6648
  108MOL0     C14150   9.812   8.158   6.002 -0.8830 -0.0461 -0.3189
  108MOL0     C14151   9.833   8.038   5.935  0.1111 -0.3318 -0.5505
  108MOL0     C14152   9.903   7.938   5.989 -0.3875 -0.2941 -0.9133
  108MOL0     C14153   9.929   7.809   5.922  0.5567  0.2188  0.4210
  108MOL0     O14154   9.964   7.690   5.990  0.1447 -0.2297 -0.0871
  108MOL0     C14155   9.938   7.575   5.932 -0.0348 -0.3305  0.7908
  108MOL0     C14156   9.805   7.541   5.919  0.2394 -0.5798 -0.0987
  108MOL0     C14157   9.768   7.424   5.850 -0.1196 -0.6075 -0.2165
  108MOL0     C14158   9.865   7.339   5.800 -0.0907  0.3241 -0.0628
  108MOL0     O14159   9.829   7.228   5.719  0.2498 -0.0852 -1.0601
  108MOL0     C14160   9.687   7.194   5.679  0.4150  0.1771 -0.8585
  108MOL0     C14161   9.648   7.273   5.552 -0.2933 -0.0317 -0.3569
  108MOL0     C14162   9.508   7.233   5.500  0.1537 -0.4454  0.5847
  108MOL0     C14163   9.448   7.348   5.423  0.1191  0.2685 -0.3685
  108MOL0     C14164   9.297   7.326   5.399 -0.3131 -0.9750 -0.2039
  108MOL0     C14165   9.222   7.446   5.350 -0.4807 -0.2387 -0.1305
  108MOL0     C14166   9.077   7.455   5.391  0.8392  0.3217  0.6251
  108MOL0     C14167   9.017   7.575   5.329  1.1987  0.3309  0.8804
  108MOL0    Cl14168   8.990   7.535   5.156 -0.2907 -0.0395  0.2575
  108MOL0     C14169   9.995   7.359   5.833 -0.2010  0.6764 -0.2918
  108MOL0     C14170  10.030   7.481   5.880  0.0153 -0.6118 -0.4158
  108MOL0     O14171   9.911   7.822   5.799 -0.0504  0.3934 -0.3203
  108MOL0     C14172   9.965   7.966   6.113  1.7067 -0.9119 -0.2903
  108MOL0     C14173   9.957   8.094   6.177  0.6523  0.2811  0.2732
  108MOL0     N14174  10.088   8.475   6.512  0.3962  0.0266 -0.4146
  108MOL0     N14175  10.115   8.497   6.639 -0.5697  0.4396 -0.5317
  108MOL0     C14176   9.391   8.351   7.339  0.6416  0.5083 -0.8072
  108MOL0     C14177   9.262   8.373   7.401  0.4217 -0.5167 -0.5112
  108MOL0     C14178   8.882   8.273   7.649  0.2038 -0.9370 -0.0115
  108MOL0     C14179   8.926   8.301   7.774 -0.4595  0.7978  0.0573
  108MOL0     C14180   8.847   8.293   7.885 -0.6210 -0.0132 -0.4094
  108MOL0     C14181   8.713   8.260   7.867 -0.4214 -0.0193 -1.9273
  108MOL0     O14182   8.656   8.263   7.988  0.3544 -0.0341  0.0447
  108MOL0     C14183   8.574   8.150   8.023  0.3853  0.0366 -0.0610
  108MOL0     C14184   8.579   8.115   8.165 -0.5327 -0.3948  0.0780
  108MOL0     C14185   8.715   8.046   8.189  1.1183 -0.0921  0.2799
  108MOL0     C14186   8.712   7.960   8.319  0.8936  0.3424 -0.0446
  108MOL0     C14187   8.645   7.833   8.295  0.2533  0.0462  0.2275
  108MOL0     C14188   8.585   7.731   8.273 -0.2034 -0.3993  0.7980
  108MOL0     C14189   8.658   8.232   7.745  0.1055 -0.2822  1.0881
  108MOL0     C14190   8.743   8.238   7.635  0.3599 -0.7115 -0.4745
  108MOL0     H14191   9.219   8.066   7.535 -0.4642 -2.3809 -3.6927
  108MOL0     H14192   9.389   8.012   7.417 -0.0292 -0.3488 -2.4451
  108MOL0     H14193   9.553   8.324   7.138 -0.4056  0.2099  1.2046
  108MOL0     H14194   9.660   8.177   7.122  1.0537 -2.7679  3.1416
  108MOL0     H14195   9.817   8.297   7.287  1.7664  3.5322  1.1079
  108MOL0     H14196   9.706   8.440   7.270 -1.8121  0.8903 -3.3314
  108MOL0     H14197   9.768   8.444   7.027 -0.7820 -0.7710 -0.1080
  108MOL0     H14198   9.840   8.278   7.055  0.4587 -1.1369  2.0055
  108MOL0     H14199   9.930   8.536   7.188  0.2045  3.5637 -4.9604
  108MOL0     H14200  10.023   8.386   7.192  4.1536  0.3301 -3.1205
  108MOL0     H14201  10.075   8.406   6.954  1.4003 -0.2063  0.1187
  108MOL0     H14202  10.134   8.552   7.056 -0.6193 -0.3513 -0.5985
  108MOL0     H14203   9.890   8.647   6.998 -0.4995 -1.0011  0.0366
  108MOL0     H14204   9.921   8.558   6.855  1.4903  0.3012 -1.1107
  108MOL0     H14205   9.987   8.782   6.817 -1.2828 -0.8695  0.3027
  108MOL0     H14206  10.079   8.790   6.954  1.3258  0.0835 -1.3754
  108MOL0     H14207  10.221   8.616   6.844  2.3349  1.0192 -0.9405
  108MOL0     H14208  10.222   8.768   6.757  0.3553 -0.5553 -1.9405
  108MOL0     H14209  10.085   8.803   6.534  1.3637 -0.2865 -2.1325
  108MOL0     H14210  10.102   8.536   6.257  1.2626 -0.0346  0.2594
  108MOL0     H14211  10.062   8.708   6.260  1.9251  0.0055  1.0369
  108MOL0     H14212   9.896   8.580   6.168  0.4923  0.0670  0.4634
  108MOL0     H14213   9.831   8.670   6.314  1.5403  1.2127  0.2733
  108MOL0     H14214   9.859   8.488   6.459  1.3643  2.4880 -0.1592
  108MOL0     H14215   9.728   8.483   6.343 -0.4822 -2.5810  0.3567
  108MOL0     H14216   9.844   8.251   6.367 -1.2352  2.1819  3.4994
  108MOL0     H14217   9.993   8.324   6.306 -0.5889 -3.7521  2.4233
  108MOL0     H14218   9.736   8.229   5.971  1.3333  2.6369 -0.0299
  108MOL0     H14219   9.779   8.034   5.841  2.9408 -1.0919 -2.2897
  108MOL0     H14220   9.726   7.595   5.970  1.8786 -0.0898  2.0731
  108MOL0     H14221   9.661   7.407   5.842  0.2598 -2.8257 -1.1102
  108MOL0     H14222   9.613   7.196   5.759  2.0261 -0.3922  0.6922
  108MOL0     H14223   9.683   7.087   5.654 -4.4604  0.1340 -0.8092
  108MOL0     H14224   9.721   7.249   5.474 -1.3214 -1.3904 -0.9262
  108MOL0     H14225   9.636   7.376   5.587 -2.6404  0.6045 -2.6933
  108MOL0     H14226   9.440   7.209   5.583  0.6646  0.3864  1.2530
  108MOL0     H14227   9.513   7.145   5.435  3.0207  0.5813 -0.7620
  108MOL0     H14228   9.458   7.443   5.477  0.6019 -0.5305  1.0145
  108MOL0     H14229   9.506   7.370   5.334  1.2503  1.3255  0.6030
  108MOL0     H14230   9.253   7.292   5.493 -0.1899 -1.1755 -0.2182
  108MOL0     H14231   9.285   7.254   5.319  2.9537 -2.0673  0.1311
  108MOL0     H14232   9.224   7.442   5.241 -1.4647 -1.3886 -0.1307
  108MOL0     H14233   9.269   7.537   5.388 -0.9203 -0.2656  0.4908
  108MOL0     H14234   9.031   7.361   5.361  3.0356  0.1551 -2.7632
  108MOL0     H14235   9.088   7.475   5.498 -0.0104  1.2571  0.5584
  108MOL0     H14236   9.080   7.665   5.328  1.3243  0.2859 -1.3051
  108MOL0     H14237   8.922   7.582   5.383  0.3986  2.8848 -0.6642
  108MOL0     H14238  10.057   7.280   5.792 -0.8711  0.3793 -0.7417
  108MOL0     H14239  10.135   7.508   5.887 -0.3826  0.9591 -0.0006
  108MOL0     H14240  10.016   7.881   6.157 -0.3908 -1.5094  1.0917
  108MOL0     H14241  10.010   8.108   6.271  0.3573  1.5461  0.2623
  108MOL0     H14242   9.440   8.439   7.298  1.7746  0.6745  0.8069
  108MOL0     H14243   9.227   8.475   7.416  2.3229  0.3606 -1.8027
  108MOL0     H14244   9.033   8.319   7.780 -0.2222  0.7635 -2.6806
  108MOL0     H14245   8.881   8.323   7.984  0.1624  0.9737 -0.9571
  108MOL0     H14246   8.593   8.065   7.956 -3.2333  1.4200 -3.2626
  108MOL0     H14247   8.467   8.174   8.011 -0.1105 -2.6165 -1.9991
  108MOL0     H14248   8.566   8.199   8.235  3.0074 -0.7725  1.3495
  108MOL0     H14249   8.497   8.050   8.196  0.4896 -2.7156 -1.8209
  108MOL0     H14250   8.788   8.124   8.209  1.0150 -0.3514  1.7237
  108MOL0     H14251   8.755   7.990   8.104 -1.7533  2.0561 -2.7445
  108MOL0     H14252   8.812   7.918   8.332 -0.3281 -3.4500 -1.5579
  108MOL0     H14253   8.685   8.014   8.410  2.6953  0.8628  0.2192
  108MOL0     H14254   8.524   7.644   8.256  2.7420 -2.3071 -0.8470
  108MOL0     H14255   8.554   8.211   7.725  0.4721 -0.4815 -0.7681
  108MOL0     H14256   8.705   8.221   7.534  2.2572 -1.4987 -1.1095
  109MOL0     O14257   9.073   5.597   6.986 -0.1586 -0.0048  1.3675
  109MOL0     C14258   9.188   5.547   6.998  0.7890 -0.0410  0.4878
  109MOL0     O14259   9.224   5.431   6.957 -0.8595 -0.3545 -0.9630
  109MOL0     C14260   9.139   5.349   6.895 -0.5260 -0.1804 -0.2505
  109MOL0     C14261   9.060   5.254   6.961 -0.2594 -0.0928 -0.3435
  109MOL0     C14262   8.967   5.175   6.889 -0.4494  0.3833 -0.0263
  109MOL0     C14263   8.934   5.211   6.756  0.4856  0.5221 -0.0543
  109MOL0     O14264   8.838   5.131   6.692 -0.5172  0.3635 -0.6328
  109MOL0     C14265   8.740   5.177   6.609 -0.6486 -1.4112 -0.3187
  109MOL0     C14266   8.648   5.266   6.698  0.0905  0.5656  0.4780
  109MOL0     C14267   8.521   5.342   6.622 -0.1128  1.6260  0.0069
  109MOL0     C14268   8.451   5.441   6.722  0.8263  0.3467 -1.1436
  109MOL0     C14269   8.298   5.476   6.692 -0.5524 -0.7544 -0.5336
  109MOL0     C14270   8.283   5.572   6.577 -0.1221 -0.3729  0.8252
  109MOL0     C14271   8.126   5.585   6.549 -0.4340 -0.4704  0.2992
  109MOL0     C14272   8.062   5.458   6.479 -0.0996 -0.5950  0.1595
  109MOL0     N14273   7.922   5.482   6.460  0.3858  0.7391  0.3169
  109MOL0     C14274   7.808   5.402   6.503 -1.2364 -0.8216  0.7751
  109MOL0     C14275   7.712   5.408   6.411  1.0785  0.3417 -0.7032
  109MOL0     C14276   7.576   5.347   6.418  0.1014 -0.0782 -1.4567
  109MOL0     C14277   7.489   5.427   6.509  1.4424 -0.0768  0.5932
  109MOL0     C14278   7.353   5.362   6.518 -0.1539 -0.1175 -0.0136
  109MOL0     C14279   7.254   5.447   6.589 -0.1128  0.1344 -1.1306
  109MOL0     O14280   7.122   5.390   6.591  0.5644  0.1103 -0.3984
  109MOL0     C14281   7.019   5.468   6.648 -0.3697 -0.2839  0.0394
  109MOL0     C14282   6.903   5.401   6.652  0.1167  0.5871  0.1132
  109MOL0     C14283   6.778   5.459   6.702 -0.7041  0.6023 -0.5419
  109MOL0     C14284   6.784   5.593   6.748  0.9629 -1.4826 -0.3388
  109MOL0     C14285   6.651   5.671   6.785 -0.7616  0.2860  0.0259
  109MOL0     O14286   6.546   5.596   6.789 -0.2345  0.5652 -0.3888
  109MOL0     C14287   6.436   5.654   6.840 -0.1348 -0.2407  0.0201
  109MOL0     C14288   6.366   5.758   6.785 -0.1814  0.8636 -0.0173
  109MOL0     C14289   6.259   5.817   6.852  0.3902 -0.0302 -0.3186
  109MOL0     C14290   6.223   5.773   6.978 -0.1622  0.3569 -0.4497
  109MOL0     O14291   6.110   5.821   7.041  0.1292 -0.3141  0.2961
  109MOL0     C14292   6.105   5.814   7.183 -0.4562 -0.4681  0.2768
  109MOL0     C14293   6.007   5.906   7.241 -0.2941  0.3396  0.6303
  109MOL0     C14294   5.965   5.883   7.377 -0.9595 -1.2314 -0.0598
  109MOL0     C14295   5.847   5.979   7.409  0.4302 -0.0717  0.1140
  109MOL0     C14296   5.796   5.938   7.551 -0.7273  0.0369  0.2830
  109MOL0     C14297   5.664   6.003   7.580  0.3567 -0.5518 -0.7198
  109MOL0     C14298   5.610   5.985   7.732 -0.7369  0.2330  0.2680
  109MOL0     C14299   5.485   6.072   7.765  1.1281  0.0063  0.5439
  109MOL0    Cl14300   5.540   6.239   7.789  0.1942 -0.0305  0.1551
  109MOL0     C14301   6.297   5.666   7.030 -0.8492  0.0671  0.4419
  109MOL0     C14302   6.405   5.612   6.965  0.9265 -0.0959  0.7987
  109MOL0     O14303   6.653   5.795   6.808  0.3453 -0.2390  0.6490
  109MOL0     C14304   6.908   5.661   6.750  0.1115 -0.1206  0.1055
  109MOL0     C14305   7.025   5.598   6.696  0.1629 -0.0183  0.4164
  109MOL0     N14306   7.768   5.494   6.308  0.3781  0.4801  0.4655
  109MOL0     N14307   7.890   5.521   6.335 -0.3563  0.0878  0.1264
  109MOL0     C14308   9.004   5.316   6.691 -0.5522  0.4107  0.3315
  109MOL0     C14309   9.106   5.382   6.759 -1.1858  0.2240 -0.1242
  109MOL0     C14310   9.281   5.621   7.066  1.4957 -0.2803  0.2288
  109MOL0     C14311   9.274   5.760   7.067  0.5659 -0.5248  0.3400
  109MOL0     C14312   9.375   5.840   7.121  0.5025  0.3587  0.9577
  109MOL0     C14313   9.484   5.781   7.185 -0.5543 -0.2038  0.6013
  109MOL0     O14314   9.604   5.845   7.207 -0.6303  0.1743 -0.2924
  109MOL0     C14315   9.629   5.980   7.147  0.6929  0.2496 -0.2852
  109MOL0     C14316   9.637   5.983   6.999  0.2320  0.4103  0.2015
  109MOL0     C14317   9.746   5.906   6.930  0.1204 -0.3080 -0.5940
  109MOL0     C14318   9.891   5.949   6.960  0.5390 -0.7886  0.0571
  109MOL0     C14319   9.984   5.899   6.852 -0.5549 -0.1469 -0.0626
  109MOL0     C14320  10.077   5.864   6.777 -0.1666 -0.0669  0.2745
  109MOL0     C14321   9.497   5.642   7.178  0.4780 -0.6055 -0.7543
  109MOL0     C14322   9.391   5.559   7.128 -0.6548  0.4136 -0.6798
  109MOL0     H14323   9.075   5.233   7.066 -1.8243 -2.2914 -0.4954
  109MOL0     H14324   8.902   5.095   6.925  0.7512  0.4392  2.3900
  109MOL0     H14325   8.687   5.096   6.556 -1.1786 -0.2595 -1.6182
  109MOL0     H14326   8.772   5.228   6.518 -4.2500 -2.7605 -2.5957
  109MOL0     H14327   8.710   5.333   6.758  0.1767 -1.8232  3.2410
  109MOL0     H14328   8.607   5.212   6.784 -0.6334  0.6358  0.1901
  109MOL0     H14329   8.449   5.269   6.584 -2.6584  2.2195  3.2383
  109MOL0     H14330   8.572   5.404   6.548  2.0580 -0.0541 -0.0272
  109MOL0     H14331   8.449   5.372   6.807 -0.0190 -2.5835 -3.3503
  109MOL0     H14332   8.508   5.533   6.738  0.3210  0.4601  0.1028
  109MOL0     H14333   8.263   5.509   6.789  1.7227 -3.2213  1.2918
  109MOL0     H14334   8.255   5.377   6.671  1.8837 -1.3518 -3.4929
  109MOL0     H14335   8.341   5.553   6.486  2.2311 -2.1582  2.5865
  109MOL0     H14336   8.325   5.670   6.603  0.2218  0.3804 -2.1086
  109MOL0     H14337   8.065   5.606   6.637 -2.0344 -0.9826 -0.6568
  109MOL0     H14338   8.125   5.674   6.486  0.6276 -0.6913 -0.0485
  109MOL0     H14339   8.062   5.377   6.552  2.3102 -1.6672 -0.9049
  109MOL0     H14340   8.108   5.437   6.382 -0.4294  2.5718 -0.7965
  109MOL0     H14341   7.822   5.354   6.600  2.7164  3.2604  2.5850
  109MOL0     H14342   7.569   5.239   6.438 -1.5408  0.0784 -0.9648
  109MOL0     H14343   7.536   5.361   6.318 -2.7745  0.5858 -0.3231
  109MOL0     H14344   7.464   5.518   6.454 -0.9552 -1.5374 -0.9234
  109MOL0     H14345   7.530   5.454   6.607  0.5824 -3.0260  1.8660
  109MOL0     H14346   7.318   5.350   6.415  0.4278 -0.1367 -0.2161
  109MOL0     H14347   7.364   5.262   6.562  0.7290 -0.9039 -1.8928
  109MOL0     H14348   7.252   5.538   6.528 -0.3860 -1.4448 -3.6722
  109MOL0     H14349   7.284   5.481   6.688  1.8980 -0.1763 -1.5913
  109MOL0     H14350   6.905   5.293   6.642  0.2117  0.4062  1.7650
  109MOL0     H14351   6.684   5.404   6.708 -0.3549  0.1847  2.5553
  109MOL0     H14352   6.384   5.779   6.680  0.0065 -0.0091 -0.1661
  109MOL0     H14353   6.215   5.903   6.803 -2.4010 -1.1946 -0.0314
  109MOL0     H14354   6.200   5.846   7.228 -1.5724  2.5750  0.7429
  109MOL0     H14355   6.081   5.711   7.210  2.6516 -0.7950  2.2989
  109MOL0     H14356   5.915   5.897   7.182 -1.1215  3.2075  1.3406
  109MOL0     H14357   6.052   6.006   7.238  1.6181 -0.4722 -2.0313
  109MOL0     H14358   6.042   5.897   7.453 -2.0530  1.6279  0.6239
  109MOL0     H14359   5.925   5.781   7.381 -0.2742 -1.5439 -0.8484
  109MOL0     H14360   5.874   6.086   7.413 -1.4812  0.4100  1.0853
  109MOL0     H14361   5.762   5.968   7.341  0.7322 -0.2613 -0.2383
  109MOL0     H14362   5.871   5.959   7.628  0.7074  1.9455 -1.5019
  109MOL0     H14363   5.783   5.830   7.546 -0.1463 -0.1572  2.1244
  109MOL0     H14364   5.588   5.982   7.505  1.1248  2.0684 -2.3664
  109MOL0     H14365   5.657   6.110   7.557  2.3560 -0.4607 -1.0437
  109MOL0     H14366   5.588   5.878   7.738  3.2679 -0.7429  0.4571
  109MOL0     H14367   5.688   6.010   7.804  1.8993 -3.1492 -1.1130
  109MOL0     H14368   5.439   6.021   7.850  0.0810  0.1262  0.0644
  109MOL0     H14369   5.415   6.074   7.680  0.9526 -1.5495  0.6148
  109MOL0     H14370   6.256   5.617   7.117 -1.4997 -0.9750 -0.4306
  109MOL0     H14371   6.435   5.517   7.009 -3.4144 -5.1818 -5.2263
  109MOL0     H14372   6.915   5.767   6.772 -1.8601  0.8933 -3.4237
  109MOL0     H14373   7.116   5.656   6.706 -0.2129  0.3158  2.3181
  109MOL0     H14374   8.969   5.343   6.592  0.2063  0.1420 -0.0132
  109MOL0     H14375   9.160   5.447   6.689  0.2364  0.9513  1.5739
  109MOL0     H14376   9.193   5.810   7.014  0.6270  1.1677  1.7500
  109MOL0     H14377   9.364   5.947   7.107  0.4354  0.2901  0.4569
  109MOL0     H14378   9.726   6.021   7.177  0.7724  0.3343 -0.6459
  109MOL0     H14379   9.547   6.044   7.182 -0.5189 -2.4900  2.2333
  109MOL0     H14380   9.552   5.937   6.948  1.3088 -0.5281 -0.8013
  109MOL0     H14381   9.652   6.086   6.967  0.2119 -0.0600 -1.4057
  109MOL0     H14382   9.727   5.922   6.823 -2.0510  1.5177 -0.0004
  109MOL0     H14383   9.729   5.799   6.947 -0.8111 -0.0251  0.3061
  109MOL0     H14384   9.900   6.058   6.956  1.5001 -0.8728 -0.5374
  109MOL0     H14385   9.925   5.904   7.054  2.3661  0.7501  0.1855
  109MOL0     H14386  10.163   5.835   6.719 -0.4326  0.4446 -0.3960
  109MOL0     H14387   9.593   5.601   7.210  0.3020 -0.9714 -0.6899
  109MOL0     H14388   9.403   5.452   7.127 -1.8683  0.2632 -0.1036
  110MOL0     O14389   2.824   5.851   7.166  0.2232 -0.5495 -0.0484
  110MOL0     C14390   2.835   5.740   7.112 -0.0383  0.2291  0.1965
  110MOL0     O14391   2.872   5.620   7.162  0.3345  0.8232  0.5544
  110MOL0     C14392   2.925   5.627   7.287  0.1059 -0.5788  0.2411
  110MOL0     C14393   3.042   5.699   7.314  0.6951 -0.1055 -0.1170
  110MOL0     C14394   3.084   5.707   7.447 -0.3388 -0.1299 -0.5613
  110MOL0     C14395   3.015   5.643   7.551  0.8333 -0.8360 -0.1012
  110MOL0     O14396   3.042   5.664   7.685  0.0284 -0.2288  0.0743
  110MOL0     C14397   3.078   5.799   7.717  0.1861 -0.9721 -0.6546
  110MOL0     C14398   2.944   5.883   7.731  0.1819 -0.6065  0.2671
  110MOL0     C14399   2.963   6.034   7.766  0.0928  0.6293  0.5159
  110MOL0     C14400   2.837   6.101   7.721 -0.0764  0.6409  0.5239
  110MOL0     C14401   2.829   6.254   7.726 -0.5991  1.3438 -0.4301
  110MOL0     C14402   2.687   6.311   7.733 -0.3878  0.0395 -0.5146
  110MOL0     C14403   2.615   6.297   7.603  0.6561 -0.4904 -0.4660
  110MOL0     C14404   2.492   6.390   7.591 -1.0947 -0.0371  0.0671
  110MOL0     N14405   2.535   6.529   7.564 -0.2079  0.3009  0.8806
  110MOL0     C14406   2.582   6.576   7.446 -0.5534 -0.5495  1.0229
  110MOL0     C14407   2.643   6.695   7.479 -0.3235 -0.6970 -0.4554
  110MOL0     C14408   2.706   6.792   7.376 -0.2479  0.7722 -0.7388
  110MOL0     C14409   2.855   6.754   7.372  0.7343  0.7080  0.4828
  110MOL0     C14410   2.922   6.824   7.258  0.1041  0.2869  0.6401
  110MOL0     C14411   2.997   6.963   7.292 -0.3656 -0.2375 -0.2917
  110MOL0     O14412   3.099   6.928   7.379 -0.3742  0.4480 -0.3497
  110MOL0     C14413   3.146   7.026   7.468  0.5950 -0.3472  0.0710
  110MOL0     C14414   3.110   7.165   7.471  0.7790  0.2278  1.5093
  110MOL0     C14415   3.172   7.250   7.562  0.1900 -0.3605 -0.0448
  110MOL0     C14416   3.265   7.197   7.665 -0.3693  0.9526  1.3969
  110MOL0     C14417   3.306   7.275   7.778  0.0541 -0.2429 -0.4990
  110MOL0     O14418   3.365   7.209   7.877 -0.3964 -0.0064 -0.6843
  110MOL0     C14419   3.431   7.275   7.979  0.2727 -0.7818 -0.3594
  110MOL0     C14420   3.527   7.377   7.954 -1.4086 -0.5368  0.1209
  110MOL0     C14421   3.617   7.408   8.061 -0.5373  0.2713 -1.1643
  110MOL0     C14422   3.618   7.330   8.181  1.0604  0.5908 -0.4893
  110MOL0     O14423   3.711   7.343   8.283  0.5251 -0.2180  0.2074
  110MOL0     C14424   3.732   7.484   8.317  0.7279  0.0440 -0.7926
  110MOL0     C14425   3.782   7.507   8.458 -0.1222  0.7492 -0.8247
  110MOL0     C14426   3.879   7.401   8.510  0.1517  0.2707 -0.7940
  110MOL0     C14427   3.952   7.440   8.630 -0.0661 -0.2231 -0.2645
  110MOL0     C14428   4.035   7.568   8.628  0.5112  0.3014  0.4643
  110MOL0     C14429   4.122   7.588   8.759  0.3937  0.1553 -0.2528
  110MOL0     C14430   4.197   7.719   8.741  0.2708 -0.7703 -0.2122
  110MOL0     C14431   4.299   7.771   8.850  0.4224 -0.3696 -0.6060
  110MOL0    Cl14432   4.353   7.632   8.945 -0.4143 -0.0771 -0.2206
  110MOL0     C14433   3.524   7.228   8.199  0.4176  0.0255  0.1158
  110MOL0     C14434   3.433   7.209   8.096 -1.0065 -0.2360  0.8324
  110MOL0     O14435   3.279   7.398   7.777 -0.5150  0.4078 -0.6738
  110MOL0     C14436   3.300   7.056   7.655 -0.6635 -0.3783  0.8347
  110MOL0     C14437   3.246   6.977   7.546  0.0311  0.1045  0.1698
  110MOL0     N14438   2.612   6.725   7.608 -0.4392  0.4058  0.1474
  110MOL0     N14439   2.554   6.622   7.660  0.1431 -0.5224 -0.7512
  110MOL0     C14440   2.903   5.560   7.518  0.2987  1.8433 -0.0175
  110MOL0     C14441   2.860   5.555   7.384  0.3284 -0.0552  0.0205
  110MOL0     C14442   2.803   5.735   6.966  0.2075 -0.6297  0.2699
  110MOL0     C14443   2.735   5.622   6.916 -0.7238 -0.3123  0.4627
  110MOL0     C14444   2.700   5.627   6.777  0.2622  0.7248 -0.4433
  110MOL0     C14445   2.723   5.738   6.697  0.3973 -0.1788  0.1746
  110MOL0     O14446   2.661   5.758   6.572  0.3518  0.5497 -0.5087
  110MOL0     C14447   2.510   5.759   6.579 -0.2905  0.0672 -0.2295
  110MOL0     C14448   2.435   5.721   6.455 -0.4164 -0.8493  0.0479
  110MOL0     C14449   2.287   5.773   6.442 -0.0845  0.8469 -0.7271
  110MOL0     C14450   2.191   5.687   6.522  0.0972  0.1315  0.0621
  110MOL0     C14451   2.199   5.678   6.667  0.2938  0.4156 -0.0524
  110MOL0     C14452   2.209   5.671   6.789  0.4604 -0.5189  0.3868
  110MOL0     C14453   2.797   5.843   6.751 -0.7002  0.0843 -0.1704
  110MOL0     C14454   2.846   5.840   6.885  0.4063 -0.9175 -0.4747
  110MOL0     H14455   3.093   5.738   7.227  0.9626 -2.3645 -1.0197
  110MOL0     H14456   3.173   5.767   7.465 -2.3347  2.9176  0.0336
  110MOL0     H14457   3.132   5.862   7.646 -0.0422  0.8158  0.6827
  110MOL0     H14458   3.134   5.802   7.811 -1.1706 -0.7170  0.1570
  110MOL0     H14459   2.882   5.831   7.805 -1.7344 -0.6252 -1.2780
  110MOL0     H14460   2.901   5.874   7.631  3.2799 -1.5168 -1.1013
  110MOL0     H14461   3.051   6.074   7.716 -0.2527 -0.4278 -0.9911
  110MOL0     H14462   2.975   6.045   7.875  2.4496 -2.8894  0.7745
  110MOL0     H14463   2.825   6.084   7.613  1.8254  2.6975 -0.0855
  110MOL0     H14464   2.752   6.061   7.777 -1.1111  2.6127  0.4764
  110MOL0     H14465   2.894   6.290   7.646 -1.2559  0.2093 -1.5057
  110MOL0     H14466   2.873   6.276   7.824  1.3591  0.4516 -1.0504
  110MOL0     H14467   2.703   6.419   7.742  2.8807 -0.3145 -0.8657
  110MOL0     H14468   2.631   6.281   7.822 -0.4421 -0.1866 -0.6240
  110MOL0     H14469   2.687   6.308   7.522  0.3858 -0.4054 -0.6948
  110MOL0     H14470   2.574   6.196   7.604  1.7261 -0.9433 -0.1759
  110MOL0     H14471   2.445   6.394   7.690 -0.4680 -1.2707  0.4397
  110MOL0     H14472   2.423   6.364   7.511  1.8323  1.8826 -3.3799
  110MOL0     H14473   2.597   6.516   7.357  3.2640 -0.9849  1.7942
  110MOL0     H14474   2.706   6.891   7.422  4.6174  1.3084 -1.4128
  110MOL0     H14475   2.649   6.791   7.283 -0.8397  1.2889 -0.3966
  110MOL0     H14476   2.871   6.646   7.371  0.3214  0.4459 -4.6334
  110MOL0     H14477   2.895   6.800   7.463 -3.4350  3.6843  1.0939
  110MOL0     H14478   2.998   6.753   7.224 -1.7352 -1.9458  0.9213
  110MOL0     H14479   2.852   6.842   7.176  1.0724 -1.3084 -0.5940
  110MOL0     H14480   2.929   7.030   7.345  1.7299  0.3729  1.7647
  110MOL0     H14481   3.029   7.013   7.200  1.5821  0.9095  0.9497
  110MOL0     H14482   3.032   7.204   7.406  1.1519 -0.4902  0.6137
  110MOL0     H14483   3.147   7.356   7.559 -1.8282 -0.7995 -1.7128
  110MOL0     H14484   3.515   7.438   7.865 -1.6134  1.0703  1.2216
  110MOL0     H14485   3.693   7.484   8.047  0.7816 -0.8583 -0.3947
  110MOL0     H14486   3.636   7.534   8.299  0.2914 -1.4263 -2.9927
  110MOL0     H14487   3.799   7.534   8.246  3.2678  0.3439  1.6856
  110MOL0     H14488   3.691   7.510   8.520 -0.3518  1.1283 -1.1769
  110MOL0     H14489   3.828   7.606   8.457  2.8372 -0.4242  1.7241
  110MOL0     H14490   3.959   7.388   8.436  0.9204 -1.3116  0.2504
  110MOL0     H14491   3.843   7.299   8.521  2.8301 -0.8502 -1.5007
  110MOL0     H14492   3.886   7.461   8.715  0.3254  1.2514 -0.2991
  110MOL0     H14493   4.026   7.361   8.648  1.3192  1.4383  1.8397
  110MOL0     H14494   3.953   7.639   8.641  0.6304  0.6883 -0.7901
  110MOL0     H14495   4.095   7.593   8.540  1.5593  0.2110  1.1340
  110MOL0     H14496   4.207   7.518   8.761  3.6834  3.7440 -1.0411
  110MOL0     H14497   4.051   7.575   8.841  1.7616 -1.6547  0.7321
  110MOL0     H14498   4.264   7.706   8.655  0.1579 -1.6371 -0.1774
  110MOL0     H14499   4.132   7.803   8.710 -1.4191 -2.5783 -1.8983
  110MOL0     H14500   4.255   7.853   8.907 -0.8628  0.0755 -2.1812
  110MOL0     H14501   4.383   7.819   8.799 -0.7107  2.9500  0.3472
  110MOL0     H14502   3.518   7.163   8.286 -0.2045  1.0474  0.8560
  110MOL0     H14503   3.363   7.126   8.100  2.3723 -3.5051 -1.2971
  110MOL0     H14504   3.384   7.025   7.715  0.9707 -0.2208 -1.2560
  110MOL0     H14505   3.284   6.877   7.530 -0.4122  0.0696 -0.7601
  110MOL0     H14506   2.852   5.496   7.590  2.0781  0.5564  0.1809
  110MOL0     H14507   2.774   5.492   7.366  3.3668 -4.2038 -1.6912
  110MOL0     H14508   2.718   5.538   6.982 -1.0477 -2.4553 -2.1887
  110MOL0     H14509   2.656   5.538   6.734 -0.0125  1.0752 -0.8976
  110MOL0     H14510   2.481   5.860   6.611 -3.4110 -0.9830  0.5813
  110MOL0     H14511   2.474   5.690   6.655 -0.8218  0.6813  0.0886
  110MOL0     H14512   2.478   5.753   6.359 -2.3680  1.9413 -0.0248
  110MOL0     H14513   2.434   5.612   6.455 -2.4708 -0.8872  2.0312
  110MOL0     H14514   2.240   5.768   6.344 -2.4703 -0.2298  0.3888
  110MOL0     H14515   2.285   5.876   6.479  1.5543  0.6188  0.0859
  110MOL0     H14516   2.087   5.712   6.497  0.1538 -1.3313 -1.8659
  110MOL0     H14517   2.207   5.585   6.484 -3.3219 -0.4825 -0.1172
  110MOL0     H14518   2.239   5.660   6.891 -1.3768 -0.6201  0.9385
  110MOL0     H14519   2.829   5.924   6.686  2.0369 -0.3979  0.4375
  110MOL0     H14520   2.904   5.920   6.929 -0.3329 -1.8958  2.4976
  111MOL0     O14521   4.651   6.592   3.339 -0.1408 -0.7095 -0.5505
  111MOL0     C14522   4.740   6.526   3.398  0.1647 -0.3824  0.3203
  111MOL0     O14523   4.709   6.438   3.492 -0.0598 -0.7685  0.1575
  111MOL0     C14524   4.573   6.403   3.515 -0.5785 -0.9457  0.6606
  111MOL0     C14525   4.530   6.410   3.646 -0.4907  0.8031  0.9046
  111MOL0     C14526   4.407   6.362   3.681  0.3973 -0.2881  0.1354
  111MOL0     C14527   4.329   6.296   3.585 -0.7100  0.3986  1.4630
  111MOL0     O14528   4.204   6.242   3.602  0.0425 -0.4233 -0.0812
  111MOL0     C14529   4.184   6.165   3.719  0.3989  0.8237  0.9496
  111MOL0     C14530   4.046   6.093   3.694  0.1453 -0.1806  1.1457
  111MOL0     C14531   4.054   6.003   3.566  0.1259  0.0689  0.5597
  111MOL0     C14532   3.931   5.909   3.537  0.0325  0.4560 -0.2421
  111MOL0     C14533   3.917   5.769   3.613  0.1549  0.1413 -0.5386
  111MOL0     C14534   4.042   5.671   3.609 -0.3697  0.1752  0.4883
  111MOL0     C14535   4.085   5.630   3.466 -0.7402 -0.6956 -1.0584
  111MOL0     C14536   3.997   5.544   3.381 -0.3402  0.7641  0.3388
  111MOL0     N14537   3.969   5.406   3.433 -0.7346 -0.3055 -0.1351
  111MOL0     C14538   3.846   5.345   3.424  0.1672 -0.2537 -0.1674
  111MOL0     C14539   3.861   5.232   3.492 -0.3881 -0.8641  0.9300
  111MOL0     C14540   3.755   5.139   3.522 -0.6132 -0.6547 -0.2179
  111MOL0     C14541   3.694   5.079   3.398  0.6590  0.3022  0.6331
  111MOL0     C14542   3.786   4.978   3.331 -1.3459  0.1756 -0.3382
  111MOL0     C14543   3.823   4.851   3.420 -1.0363 -0.8893 -0.1365
  111MOL0     O14544   3.917   4.761   3.351  0.3195  0.1117 -0.6625
  111MOL0     C14545   3.952   4.662   3.437  0.5120  0.2341  0.4702
  111MOL0     C14546   4.054   4.693   3.528  0.6398 -0.0275 -0.2966
  111MOL0     C14547   4.120   4.597   3.609  0.1198  0.6187 -0.3828
  111MOL0     C14548   4.087   4.462   3.590  0.0525  0.7084 -0.4129
  111MOL0     C14549   4.163   4.353   3.657 -0.2125  0.3553 -0.3810
  111MOL0     O14550   4.260   4.391   3.759  0.2591 -0.4651 -0.2472
  111MOL0     C14551   4.364   4.306   3.800  0.2533 -0.1777 -0.6016
  111MOL0     C14552   4.402   4.177   3.752  0.9761  0.2675 -0.0054
  111MOL0     C14553   4.518   4.113   3.796  0.1314 -1.3687 -0.2498
  111MOL0     C14554   4.608   4.189   3.870  0.2415  0.3997 -1.1065
  111MOL0     O14555   4.718   4.142   3.922  0.3069  0.2179 -1.5512
  111MOL0     C14556   4.777   4.017   3.888 -0.2255  0.7294  0.4635
  111MOL0     C14557   4.930   4.026   3.901  0.1839  0.0202 -0.8903
  111MOL0     C14558   4.996   3.885   3.885  0.0863 -0.1137  0.2888
  111MOL0     C14559   5.127   3.897   3.952 -1.0127  0.6267 -0.5479
  111MOL0     C14560   5.213   3.768   3.929  0.5296  0.0343 -0.1616
  111MOL0     C14561   5.363   3.768   3.978  0.1461 -0.4970  0.0113
  111MOL0     C14562   5.383   3.717   4.121 -0.7981 -0.3472  0.5068
  111MOL0     C14563   5.533   3.728   4.146 -0.1891 -0.2381 -0.6987
  111MOL0    Cl14564   5.559   3.689   4.317  0.6769 -0.2252  0.2715
  111MOL0     C14565   4.572   4.310   3.926  0.4207  1.0911  0.1236
  111MOL0     C14566   4.455   4.370   3.888  0.1987  0.8110  0.1095
  111MOL0     O14567   4.135   4.234   3.632 -0.1119 -0.1966 -0.5231
  111MOL0     C14568   3.978   4.434   3.498 -0.7253  0.8261 -0.7988
  111MOL0     C14569   3.925   4.527   3.412  0.2371  0.2942 -0.4397
  111MOL0     N14570   3.989   5.215   3.539 -0.2599 -0.5961 -0.1314
  111MOL0     N14571   4.057   5.325   3.507 -0.6631  0.2413  0.6580
  111MOL0     C14572   4.370   6.296   3.453 -0.1052 -0.7350  0.6085
  111MOL0     C14573   4.487   6.355   3.415  0.2734  0.1757 -0.7352
  111MOL0     C14574   4.886   6.574   3.367 -0.8869  0.3742  0.9450
  111MOL0     C14575   4.927   6.606   3.231  0.3000  1.0955  0.4128
  111MOL0     C14576   5.059   6.636   3.201 -0.8404 -0.6640 -0.7216
  111MOL0     C14577   5.162   6.628   3.301  0.8935 -0.8610 -0.4429
  111MOL0     O14578   5.300   6.655   3.291 -0.6633  0.2107 -0.0913
  111MOL0     C14579   5.348   6.677   3.162  0.9545 -0.2943  0.6298
  111MOL0     C14580   5.491   6.641   3.150 -0.6888  0.7190  0.3540
  111MOL0     C14581   5.593   6.750   3.196 -0.2234 -0.1893  0.3122
  111MOL0     C14582   5.577   6.796   3.344  0.8126  0.1523 -0.7171
  111MOL0     C14583   5.481   6.905   3.359  0.2939 -0.4127  0.5322
  111MOL0     C14584   5.415   7.005   3.369  0.2233 -0.0216  0.6408
  111MOL0     C14585   5.123   6.592   3.425  0.2332  0.2689  0.1403
  111MOL0     C14586   4.989   6.562   3.459 -1.0382  0.0664 -0.0135
  111MOL0     H14587   4.590   6.452   3.725 -1.1861  0.0499  1.8541
  111MOL0     H14588   4.373   6.388   3.780 -2.3262  3.4027 -1.5190
  111MOL0     H14589   4.180   6.233   3.804  0.9318  1.4820  0.4556
  111MOL0     H14590   4.270   6.099   3.736  2.1598  2.7512  0.0108
  111MOL0     H14591   3.964   6.159   3.664 -0.3985  0.0862  3.1047
  111MOL0     H14592   4.006   6.037   3.779 -1.6480  1.5493  1.5013
  111MOL0     H14593   4.144   5.942   3.565  0.0574 -0.1354  2.7367
  111MOL0     H14594   4.054   6.067   3.478 -0.5509 -0.5006  0.1322
  111MOL0     H14595   3.845   5.975   3.551 -1.6125 -0.8153 -3.2778
  111MOL0     H14596   3.931   5.877   3.433 -1.5784 -0.9620  0.1593
  111MOL0     H14597   3.820   5.722   3.594  0.7333 -4.6208  5.3542
  111MOL0     H14598   3.909   5.804   3.716  1.0318 -0.5059 -0.2432
  111MOL0     H14599   4.021   5.582   3.670 -0.2997  0.1247  0.4371
  111MOL0     H14600   4.126   5.721   3.659  1.1216  0.1460 -1.8521
  111MOL0     H14601   4.127   5.714   3.410 -0.1914 -1.1544 -1.3531
  111MOL0     H14602   4.177   5.575   3.490 -2.0241 -1.4289  2.8792
  111MOL0     H14603   4.050   5.534   3.285  1.5930  1.6822  1.2515
  111MOL0     H14604   3.907   5.596   3.347 -1.2471 -1.4417 -0.8062
  111MOL0     H14605   3.758   5.384   3.373 -0.3980  1.3875  1.8860
  111MOL0     H14606   3.675   5.180   3.584 -2.0091 -1.3935 -1.4520
  111MOL0     H14607   3.815   5.073   3.584  3.2692  0.1200 -2.8178
  111MOL0     H14608   3.665   5.158   3.328  1.1444  0.5296  0.6812
  111MOL0     H14609   3.604   5.024   3.426  2.0731 -1.5231  1.8237
  111MOL0     H14610   3.743   4.954   3.233  1.4004 -0.1495 -1.5453
  111MOL0     H14611   3.885   5.020   3.314 -0.3723  1.1270  5.6313
  111MOL0     H14612   3.726   4.802   3.433 -0.4326 -2.2890 -0.7423
  111MOL0     H14613   3.866   4.897   3.510 -1.3788  3.6028 -2.0119
  111MOL0     H14614   4.096   4.793   3.532  1.8378 -0.2939 -3.4938
  111MOL0     H14615   4.209   4.623   3.664  1.0650 -1.7737 -0.6662
  111MOL0     H14616   4.341   4.122   3.681  3.4334 -1.4925 -0.9078
  111MOL0     H14617   4.540   4.015   3.756  0.3370  0.3824 -5.2768
  111MOL0     H14618   4.744   3.982   3.790  0.6872  1.0975  0.0141
  111MOL0     H14619   4.731   3.950   3.962 -0.3477  0.7843  0.4379
  111MOL0     H14620   4.955   4.061   4.001 -1.6748  0.8883 -0.6829
  111MOL0     H14621   4.971   4.095   3.828  1.6848  0.7666  0.5994
  111MOL0     H14622   5.011   3.858   3.781  0.0982 -2.2035  0.7840
  111MOL0     H14623   4.942   3.805   3.938 -0.1931  2.1664  3.8025
  111MOL0     H14624   5.172   3.994   3.929 -0.9837  0.2726 -2.0352
  111MOL0     H14625   5.101   3.896   4.058 -0.0201 -0.2682 -0.2990
  111MOL0     H14626   5.215   3.756   3.820 -0.1341  2.3433 -0.4962
  111MOL0     H14627   5.158   3.690   3.982 -0.0553  0.5812  0.0625
  111MOL0     H14628   5.402   3.870   3.970 -0.7409  0.0027  1.6123
  111MOL0     H14629   5.414   3.699   3.911 -1.2788 -1.1092 -0.4860
  111MOL0     H14630   5.323   3.788   4.178 -0.1960 -0.3226  1.1219
  111MOL0     H14631   5.339   3.617   4.137  1.2510 -1.5204 -0.7482
  111MOL0     H14632   5.568   3.831   4.132 -1.0416 -0.1642 -2.5347
  111MOL0     H14633   5.587   3.684   4.061  2.9092 -0.0952  1.0463
  111MOL0     H14634   4.657   4.353   3.979  1.4897 -1.4680  0.6563
  111MOL0     H14635   4.437   4.467   3.933  1.5544  1.3110 -0.3623
  111MOL0     H14636   3.947   4.330   3.492  0.1194  0.6138 -1.7669
  111MOL0     H14637   3.841   4.515   3.344 -1.0463  1.6553  0.8267
  111MOL0     H14638   4.314   6.254   3.371  0.3416  0.8023 -0.5231
  111MOL0     H14639   4.520   6.357   3.311  1.7238 -1.2826 -0.3490
  111MOL0     H14640   4.858   6.598   3.148  1.4271 -0.0526 -0.4541
  111MOL0     H14641   5.078   6.676   3.102  2.5035 -0.1317  0.0062
  111MOL0     H14642   5.330   6.782   3.138  1.4199  0.4326  3.1150
  111MOL0     H14643   5.297   6.615   3.088 -0.2988  1.3255  0.0938
  111MOL0     H14644   5.510   6.556   3.216 -1.3101 -1.1645 -1.7352
  111MOL0     H14645   5.523   6.601   3.053 -1.6796  0.7483  0.0020
  111MOL0     H14646   5.591   6.836   3.129  1.0695 -0.3040  0.1096
  111MOL0     H14647   5.696   6.716   3.184 -0.4275 -0.9091  0.5843
  111MOL0     H14648   5.530   6.713   3.397  0.2423  0.3685 -0.8838
  111MOL0     H14649   5.673   6.803   3.396  0.2776  0.1316  0.2867
  111MOL0     H14650   5.361   7.097   3.378 -1.7642 -0.9969 -0.6241
  111MOL0     H14651   5.190   6.587   3.510 -0.8114 -0.5852  0.9450
  111MOL0     H14652   4.959   6.523   3.556  0.1236 -0.7647  0.0320
  112MOL0     O14653   5.891   7.940   7.994 -0.8241  0.0555 -0.6660
  112MOL0     C14654   5.912   7.826   8.046 -0.1327 -0.2029 -0.2511
  112MOL0     O14655   5.839   7.714   8.017 -0.5193  0.7688  0.0447
  112MOL0     C14656   5.718   7.734   7.967 -0.2273 -0.9999  0.0722
  112MOL0     C14657   5.626   7.830   8.006  1.4344 -0.7969 -0.6951
  112MOL0     C14658   5.500   7.837   7.949  0.2599  0.1491  0.3420
  112MOL0     C14659   5.462   7.756   7.840  0.2556  0.4173  1.5334
  112MOL0     O14660   5.342   7.764   7.774  0.1162 -0.1218 -0.6678
  112MOL0     C14661   5.246   7.864   7.806  0.5394 -0.3288 -0.0968
  112MOL0     C14662   5.134   7.841   7.699 -0.0793  0.4745 -0.0287
  112MOL0     C14663   5.038   7.963   7.691  0.2799  0.0091  0.5935
  112MOL0     C14664   4.894   7.910   7.667  0.8804 -0.8899 -0.0026
  112MOL0     C14665   4.788   8.024   7.677 -0.3471 -0.7982  0.0617
  112MOL0     C14666   4.766   8.100   7.552  0.0830  0.2540  0.3502
  112MOL0     C14667   4.657   8.203   7.556  0.2571  0.3253 -0.1583
  112MOL0     C14668   4.682   8.307   7.655  0.3859 -0.5511 -1.5080
  112MOL0     N14669   4.806   8.374   7.606  0.3088 -0.0873  0.0137
  112MOL0     C14670   4.932   8.358   7.667  0.7630 -0.7616 -0.4966
  112MOL0     C14671   5.011   8.450   7.599 -0.3247  0.6052  0.1822
  112MOL0     C14672   5.155   8.468   7.627  0.7285 -0.2294 -0.6913
  112MOL0     C14673   5.241   8.342   7.589  0.5493  0.2017  0.4890
  112MOL0     C14674   5.389   8.374   7.585  0.0273  0.4327 -0.0049
  112MOL0     C14675   5.467   8.256   7.515  0.0507  0.6905 -1.0284
  112MOL0     O14676   5.596   8.311   7.495  0.0053  0.8758  0.4474
  112MOL0     C14677   5.697   8.311   7.580  0.3952 -0.0425  0.2908
  112MOL0     C14678   5.744   8.181   7.629  0.4179  0.1292  0.2339
  112MOL0     C14679   5.866   8.176   7.690  0.3535  0.0054 -0.7635
  112MOL0     C14680   5.931   8.291   7.737 -0.4268 -1.1274 -0.4135
  112MOL0     C14681   6.052   8.281   7.825  0.5916  0.2340 -0.8455
  112MOL0     O14682   6.082   8.164   7.876  0.0777  1.0827  0.1976
  112MOL0     C14683   6.214   8.136   7.925  0.3644 -0.7519  1.0668
  112MOL0     C14684   6.248   8.003   7.948 -0.7047  1.6005 -1.0964
  112MOL0     C14685   6.384   7.967   7.983  0.7445  0.3733  0.5180
  112MOL0     C14686   6.479   8.064   8.000  0.6850 -0.1937 -0.4154
  112MOL0     O14687   6.598   8.017   8.040  0.8714  0.0063  1.2288
  112MOL0     C14688   6.716   8.080   7.983  0.2238 -0.1690 -0.4882
  112MOL0     C14689   6.729   8.071   7.833 -0.3380 -0.0049 -0.4282
  112MOL0     C14690   6.734   7.943   7.771  0.2533 -0.2229 -0.0340
  112MOL0     C14691   6.734   7.944   7.617  0.4844  0.1976 -0.2781
  112MOL0     C14692   6.745   7.805   7.556 -1.0589 -0.1753 -0.3663
  112MOL0     C14693   6.880   7.732   7.581  0.1622  0.0138  0.1807
  112MOL0     C14694   6.919   7.628   7.474  0.0113  0.4192 -0.0703
  112MOL0     C14695   6.816   7.521   7.454 -0.2219 -0.7494  0.1991
  112MOL0    Cl14696   6.802   7.415   7.606  0.0182 -0.0976  0.5219
  112MOL0     C14697   6.441   8.199   7.990  0.1973  0.5031  0.1158
  112MOL0     C14698   6.312   8.234   7.947 -0.0272 -0.3315  0.0806
  112MOL0     O14699   6.110   8.392   7.834 -0.2308  0.5800 -0.7562
  112MOL0     C14700   5.885   8.416   7.687  0.1444 -0.6821 -0.3714
  112MOL0     C14701   5.777   8.433   7.601  0.3171  0.6451 -0.0023
  112MOL0     N14702   4.932   8.525   7.517  0.4665  0.3528  0.1744
  112MOL0     N14703   4.811   8.485   7.523  0.7710  0.3963  0.2011
  112MOL0     C14704   5.562   7.654   7.801  1.1618 -1.2668  0.8619
  112MOL0     C14705   5.680   7.642   7.863 -0.4026 -0.0752 -0.3883
  112MOL0     C14706   6.035   7.811   8.123 -0.1426 -0.2773  0.5688
  112MOL0     C14707   6.083   7.919   8.201 -0.3800  0.5750 -0.0110
  112MOL0     C14708   6.185   7.894   8.291  0.6250 -0.5826  0.3329
  112MOL0     C14709   6.249   7.774   8.296  0.5329 -0.0543 -1.0530
  112MOL0     O14710   6.359   7.769   8.378  0.3952 -0.1087  0.0817
  112MOL0     C14711   6.461   7.661   8.369  0.1015  0.0500 -0.4823
  112MOL0     C14712   6.549   7.686   8.253  0.8453  0.6425  0.0352
  112MOL0     C14713   6.666   7.592   8.242 -0.4487  0.5611 -0.5599
  112MOL0     C14714   6.773   7.636   8.146 -0.3494 -0.2878  0.7505
  112MOL0     C14715   6.724   7.632   8.012  0.2178  0.4654 -0.6153
  112MOL0     C14716   6.675   7.620   7.896 -0.4126 -0.2033  0.2321
  112MOL0     C14717   6.210   7.666   8.217  0.0763 -0.2019  0.0931
  112MOL0     C14718   6.096   7.682   8.138  0.4738  0.4129  0.6451
  112MOL0     H14719   5.656   7.906   8.078 -1.4536 -2.5031  2.6500
  112MOL0     H14720   5.425   7.909   7.980 -2.0914 -2.4702  1.2571
  112MOL0     H14721   5.285   7.965   7.809  0.5058 -0.3286  2.3555
  112MOL0     H14722   5.197   7.831   7.898  0.4681 -3.2707 -1.0514
  112MOL0     H14723   5.086   7.748   7.731 -0.5033  0.2885 -1.1632
  112MOL0     H14724   5.170   7.830   7.596  1.1639  0.9433  0.3360
  112MOL0     H14725   5.059   8.029   7.606 -3.2143 -0.5393 -0.8582
  112MOL0     H14726   5.047   8.022   7.783  0.5007 -0.9598  1.2188
  112MOL0     H14727   4.891   7.871   7.565  1.2533 -1.6982  0.2855
  112MOL0     H14728   4.873   7.829   7.738 -1.7390 -0.6761 -0.4407
  112MOL0     H14729   4.822   8.089   7.758  1.1819  1.0679 -1.9630
  112MOL0     H14730   4.690   7.986   7.708 -0.2507 -0.9791  0.1518
  112MOL0     H14731   4.741   8.021   7.481  6.2968 -2.3376  0.4905
  112MOL0     H14732   4.849   8.151   7.504 -0.3177  0.8412  0.2669
  112MOL0     H14733   4.623   8.251   7.463 -2.2838 -0.8211  0.0758
  112MOL0     H14734   4.563   8.157   7.589 -0.7066  1.3014 -1.4250
  112MOL0     H14735   4.705   8.268   7.755  1.6228  3.5335  0.0144
  112MOL0     H14736   4.601   8.379   7.663  1.1139  0.2107 -0.7827
  112MOL0     H14737   4.968   8.288   7.741  2.9507  1.9627  1.1856
  112MOL0     H14738   5.173   8.503   7.729  2.2740  1.8886 -1.5995
  112MOL0     H14739   5.193   8.544   7.558 -0.4759 -1.7847 -3.2259
  112MOL0     H14740   5.219   8.316   7.485  0.5216  2.1363 -0.0213
  112MOL0     H14741   5.217   8.254   7.649  1.6019 -1.5477 -1.5274
  112MOL0     H14742   5.407   8.468   7.531  0.8157  0.4035  0.1844
  112MOL0     H14743   5.424   8.393   7.687  0.8671 -2.1757  0.2529
  112MOL0     H14744   5.428   8.229   7.417  0.6245  1.8524 -1.5968
  112MOL0     H14745   5.454   8.168   7.579 -0.8381  0.1297 -1.9503
  112MOL0     H14746   5.687   8.090   7.615 -0.9073  1.0220 -0.4025
  112MOL0     H14747   5.897   8.082   7.734  1.4782  0.2636 -0.9509
  112MOL0     H14748   6.172   7.926   7.959  1.0945  0.0677  1.6585
  112MOL0     H14749   6.400   7.860   7.992  1.8643  0.1408 -2.8862
  112MOL0     H14750   6.809   8.029   8.011  1.4470  2.0727 -0.2475
  112MOL0     H14751   6.737   8.179   8.024  1.1113  0.5502 -2.5395
  112MOL0     H14752   6.822   8.119   7.802  0.4653 -0.7567  0.7458
  112MOL0     H14753   6.641   8.128   7.802 -0.5764 -2.0740 -4.1736
  112MOL0     H14754   6.650   7.876   7.792  1.2760 -1.1350  1.2901
  112MOL0     H14755   6.824   7.899   7.814 -1.2026 -1.3095  2.0354
  112MOL0     H14756   6.641   7.988   7.580  0.0083 -1.9597 -1.9333
  112MOL0     H14757   6.817   8.004   7.580 -1.6487  1.7971 -2.8868
  112MOL0     H14758   6.730   7.805   7.448 -3.5462  3.2510 -0.1662
  112MOL0     H14759   6.661   7.750   7.599  0.4733  1.6465  6.0962
  112MOL0     H14760   6.873   7.684   7.679  2.3862  0.1668  0.4697
  112MOL0     H14761   6.969   7.795   7.591 -0.1309  0.2641  1.3238
  112MOL0     H14762   6.935   7.679   7.379  0.9485 -0.6702 -0.5341
  112MOL0     H14763   7.014   7.580   7.500 -0.3338 -0.5012 -0.4528
  112MOL0     H14764   6.834   7.468   7.360 -2.7609  2.0261 -2.0557
  112MOL0     H14765   6.724   7.581   7.446  1.7950  2.3883 -1.3065
  112MOL0     H14766   6.509   8.280   8.014 -1.9003  1.6931  2.4616
  112MOL0     H14767   6.294   8.340   7.953  2.2240  0.0531  1.3546
  112MOL0     H14768   5.940   8.505   7.718 -1.1210  0.2827 -0.7956
  112MOL0     H14769   5.753   8.536   7.576  1.4362  0.9667  0.2058
  112MOL0     H14770   5.533   7.586   7.723  0.3310 -0.3183  0.3253
  112MOL0     H14771   5.754   7.567   7.835 -1.4819 -1.2700 -0.1580
  112MOL0     H14772   6.040   8.017   8.216  0.4248  0.6547  2.0688
  112MOL0     H14773   6.216   7.986   8.341  0.1232  0.4345 -1.1423
  112MOL0     H14774   6.417   7.561   8.365  1.1413 -0.6633  2.6283
  112MOL0     H14775   6.511   7.661   8.466 -1.6819  1.7447  0.5123
  112MOL0     H14776   6.501   7.677   8.155  4.4786 -0.0221 -1.8462
  112MOL0     H14777   6.582   7.790   8.256 -1.3316  1.4710 -1.6722
  112MOL0     H14778   6.610   7.505   8.207 -5.2579  3.6589 -1.5584
  112MOL0     H14779   6.712   7.582   8.341 -0.9915  2.7539 -0.0411
  112MOL0     H14780   6.800   7.741   8.157 -0.6945 -0.0531 -0.4696
  112MOL0     H14781   6.857   7.568   8.161  1.3464  2.0392  2.5786
  112MOL0     H14782   6.643   7.617   7.794  1.4097  1.2681 -0.4557
  112MOL0     H14783   6.259   7.570   8.203 -1.7475 -1.3450  1.0381
  112MOL0     H14784   6.055   7.596   8.088 -1.4385  0.9455  1.2117
  113MOL0     O14785   8.513   8.633   5.498 -0.8434 -0.0649 -0.6353
  113MOL0     C14786   8.618   8.702   5.528 -0.4020  0.0236  0.5183
  113MOL0     O14787   8.708   8.657   5.611  0.2918  0.0550 -0.2431
  113MOL0     C14788   8.691   8.537   5.677 -0.1097 -0.3256  0.2702
  113MOL0     C14789   8.728   8.535   5.812  0.2794  0.0139  0.1802
  113MOL0     C14790   8.723   8.412   5.876  0.0685 -0.0591 -0.5124
  113MOL0     C14791   8.683   8.295   5.816 -0.4943  0.3545  0.1043
  113MOL0     O14792   8.657   8.179   5.885 -0.0020  0.5965  0.1126
  113MOL0     C14793   8.591   8.197   6.009 -0.3935  0.6887  0.4412
  113MOL0     C14794   8.525   8.068   6.044 -0.0150 -0.5020  0.1147
  113MOL0     C14795   8.445   8.010   5.929 -0.3128  0.1610  0.1058
  113MOL0     C14796   8.374   7.871   5.942 -0.4127  0.3210 -0.0862
  113MOL0     C14797   8.476   7.762   5.912 -0.1406 -0.5278 -0.2968
  113MOL0     C14798   8.528   7.754   5.764 -0.2453 -0.4292  1.0844
  113MOL0     C14799   8.603   7.622   5.748 -0.4681  0.1118  0.4055
  113MOL0     C14800   8.743   7.616   5.813 -0.2749 -0.1835  0.2418
  113MOL0     N14801   8.843   7.700   5.752 -1.1153 -0.1463 -0.4304
  113MOL0     C14802   8.853   7.835   5.772  0.1229 -0.1442  0.8135
  113MOL0     C14803   8.977   7.873   5.736  0.5951 -0.2557  0.7107
  113MOL0     C14804   9.039   8.014   5.723 -0.0942  0.0331  0.1961
  113MOL0     C14805   9.110   8.059   5.846 -0.1455  0.4771 -0.2531
  113MOL0     C14806   9.020   8.123   5.955  0.5405  0.0938 -0.5124
  113MOL0     C14807   9.094   8.153   6.084  0.2143  0.0068 -0.1137
  113MOL0     O14808   8.993   8.201   6.178  0.6862 -0.1926 -0.3968
  113MOL0     C14809   8.969   8.335   6.189  0.1744 -0.0751 -0.6069
  113MOL0     C14810   9.021   8.434   6.109  0.6569  0.1323  0.2261
  113MOL0     C14811   8.970   8.561   6.109 -0.2430 -0.0069 -0.2374
  113MOL0     C14812   8.867   8.589   6.200  0.1760 -0.3327 -0.2444
  113MOL0     C14813   8.825   8.731   6.209 -0.1944 -0.0671 -0.7948
  113MOL0     O14814   8.875   8.812   6.111  0.2201 -0.6476 -0.0438
  113MOL0     C14815   8.836   8.949   6.106 -1.9333  0.5120  0.3666
  113MOL0     C14816   8.937   9.052   6.086  0.1379  0.0860  0.1553
  113MOL0     C14817   8.895   9.190   6.073  0.6620  0.6461 -0.8449
  113MOL0     C14818   8.763   9.216   6.053 -0.2960  1.1901 -0.0615
  113MOL0     O14819   8.723   9.347   6.032 -0.3468 -0.4907  0.1902
  113MOL0     C14820   8.606   9.385   6.094 -0.0266  0.6371  0.6269
  113MOL0     C14821   8.600   9.546   6.093  0.0534  0.2807 -0.1584
  113MOL0     C14822   8.466   9.592   6.159 -0.4631  0.3037  0.8007
  113MOL0     C14823   8.458   9.744   6.188  0.6845 -0.4415 -0.1171
  113MOL0     C14824   8.464   9.850   6.073  0.2189 -0.5028  0.1046
  113MOL0     C14825   8.325   9.848   6.001 -0.1816  0.6210  0.6055
  113MOL0     C14826   8.311   9.960   5.892  0.6116  1.2860 -0.2174
  113MOL0     C14827   8.167   9.988   5.861 -0.0510  0.6443 -0.6438
  113MOL0    Cl14828   8.096  10.077   6.003  0.4047  0.4822 -0.4399
  113MOL0     C14829   8.671   9.108   6.073 -0.0466  0.1179  0.4838
  113MOL0     C14830   8.706   8.976   6.096  0.3605 -0.3178 -0.0745
  113MOL0     O14831   8.737   8.756   6.291  0.2004  0.0586  0.1437
  113MOL0     C14832   8.817   8.492   6.283 -0.1547  0.2125 -0.1768
  113MOL0     C14833   8.865   8.361   6.277 -0.0945  0.5249 -0.8738
  113MOL0     N14834   9.032   7.752   5.691 -0.0441 -0.9030 -0.4165
  113MOL0     N14835   8.962   7.652   5.691 -0.1491  0.5626  0.7200
  113MOL0     C14836   8.662   8.287   5.673 -0.7478 -0.0778 -0.5034
  113MOL0     C14837   8.662   8.412   5.610  0.3728  0.3808  0.1007
  113MOL0     C14838   8.646   8.831   5.471 -0.2776 -0.4207 -0.7711
  113MOL0     C14839   8.749   8.908   5.523 -0.5903  0.5850 -0.5258
  113MOL0     C14840   8.787   9.029   5.472 -1.9051  0.3825  0.6863
  113MOL0     C14841   8.720   9.075   5.361  0.0397  0.6411  0.5688
  113MOL0     O14842   8.735   9.201   5.311  0.4703 -0.3017 -0.5159
  113MOL0     C14843   8.765   9.309   5.410  0.0801  1.0657  0.0988
  113MOL0     C14844   8.647   9.391   5.454  0.5984 -0.2383 -0.2224
  113MOL0     C14845   8.677   9.497   5.565  0.1684  0.1337 -0.2127
  113MOL0     C14846   8.555   9.576   5.619  0.8645 -0.1141  0.2944
  113MOL0     C14847   8.596   9.700   5.684 -0.7190 -0.0890  0.5220
  113MOL0     C14848   8.630   9.793   5.749  0.6171  0.1437  0.3927
  113MOL0     C14849   8.613   8.994   5.315 -0.2104 -0.9000 -0.3733
  113MOL0     C14850   8.569   8.874   5.362 -0.2470  0.1480 -0.3137
  113MOL0     H14851   8.768   8.621   5.865  2.5680 -1.5479  1.1455
  113MOL0     H14852   8.726   8.404   5.985  0.7104 -0.4715 -0.5516
  113MOL0     H14853   8.508   8.267   5.995 -0.2189  0.7991 -0.1000
  113MOL0     H14854   8.659   8.229   6.089  0.8712 -0.2008 -0.2414
  113MOL0     H14855   8.457   8.087   6.127 -0.1629  0.5522 -0.2331
  113MOL0     H14856   8.605   7.996   6.063  0.3652 -0.6675 -1.8569
  113MOL0     H14857   8.497   8.023   5.834 -1.4150  1.4797 -0.3546
  113MOL0     H14858   8.359   8.078   5.926 -0.1253  0.3711 -0.8905
  113MOL0     H14859   8.328   7.860   6.040  1.3013  1.4299  0.8770
  113MOL0     H14860   8.292   7.862   5.869 -1.4565 -3.0114  1.2819
  113MOL0     H14861   8.440   7.665   5.946  0.8579 -1.2494 -1.2571
  113MOL0     H14862   8.555   7.783   5.984  0.1210 -4.2794  0.6689
  113MOL0     H14863   8.576   7.847   5.730 -1.2731 -0.4190 -0.4107
  113MOL0     H14864   8.441   7.751   5.698  0.5029  1.4869 -0.0913
  113MOL0     H14865   8.539   7.551   5.802 -1.3605  0.5222 -0.0932
  113MOL0     H14866   8.614   7.601   5.641  3.8475  0.9772  0.5026
  113MOL0     H14867   8.777   7.512   5.815  1.0113  0.1812 -0.8080
  113MOL0     H14868   8.727   7.648   5.916 -0.7739 -0.3871  0.2265
  113MOL0     H14869   8.774   7.901   5.807 -1.8735 -0.4411 -2.7227
  113MOL0     H14870   8.949   8.074   5.708 -0.5435 -1.0702 -1.9248
  113MOL0     H14871   9.102   8.015   5.634 -1.1434 -1.8392 -0.6169
  113MOL0     H14872   9.184   8.137   5.826  0.4160  0.3301  1.1375
  113MOL0     H14873   9.177   7.978   5.877  1.4190  0.6154 -2.9193
  113MOL0     H14874   8.964   8.209   5.915  3.7698  0.7733 -4.1589
  113MOL0     H14875   8.949   8.048   5.991  0.4084  1.5998  2.7814
  113MOL0     H14876   9.170   8.232   6.082 -1.9399  2.2811  1.1811
  113MOL0     H14877   9.138   8.061   6.124  0.3153  1.3632  3.2814
  113MOL0     H14878   9.092   8.417   6.029 -1.5910 -3.0263 -1.3237
  113MOL0     H14879   9.025   8.632   6.049  3.6654 -2.0067  0.5616
  113MOL0     H14880   9.032   9.002   6.107 -0.2277  0.0267  1.8335
  113MOL0     H14881   8.963   9.273   6.089 -0.8987  1.7320  0.4288
  113MOL0     H14882   8.593   9.346   6.195  1.3950 -0.9114  0.2503
  113MOL0     H14883   8.515   9.355   6.041 -0.3890  1.6061  0.6796
  113MOL0     H14884   8.599   9.591   5.993 -1.9475  0.5724 -0.0479
  113MOL0     H14885   8.690   9.578   6.145  1.5131 -2.3361 -0.9076
  113MOL0     H14886   8.446   9.543   6.255 -2.3803  2.1087  1.3666
  113MOL0     H14887   8.390   9.564   6.086  1.2995 -2.1458 -0.2796
  113MOL0     H14888   8.366   9.751   6.247  0.5713 -2.1472 -0.0315
  113MOL0     H14889   8.536   9.758   6.264  1.8465 -1.3046 -1.1209
  113MOL0     H14890   8.546   9.840   6.001 -0.0055  0.1252 -0.2418
  113MOL0     H14891   8.469   9.949   6.120  2.0396 -2.1563  3.8511
  113MOL0     H14892   8.258   9.867   6.085 -0.7138 -1.6139  0.7436
  113MOL0     H14893   8.296   9.752   5.959 -0.1246  2.0039 -2.9246
  113MOL0     H14894   8.354  10.052   5.933 -1.7627  1.9511  0.9710
  113MOL0     H14895   8.360   9.924   5.801 -0.8590 -0.6341 -0.3298
  113MOL0     H14896   8.106   9.900   5.839  2.5933 -1.1661 -1.3242
  113MOL0     H14897   8.164  10.050   5.771  1.1324 -2.4785 -3.0317
  113MOL0     H14898   8.567   9.137   6.068  0.6619  2.8311 -0.4943
  113MOL0     H14899   8.633   8.899   6.117  1.2273 -1.5208 -1.2791
  113MOL0     H14900   8.727   8.517   6.338  1.3716  1.1101  2.0679
  113MOL0     H14901   8.818   8.275   6.322  1.2175  0.7601  1.0543
  113MOL0     H14902   8.642   8.201   5.610  1.9431 -0.3493 -1.1319
  113MOL0     H14903   8.646   8.395   5.505 -0.4976 -0.3214  0.3373
  113MOL0     H14904   8.796   8.880   5.617 -3.6554 -0.7757  0.7396
  113MOL0     H14905   8.868   9.089   5.512 -0.6767 -1.7900  1.5928
  113MOL0     H14906   8.837   9.370   5.355 -0.2280  0.3388 -1.1461
  113MOL0     H14907   8.805   9.279   5.507 -2.3246  0.6638  1.0433
  113MOL0     H14908   8.594   9.447   5.376 -1.3017  0.8038  1.7076
  113MOL0     H14909   8.578   9.315   5.493  0.2724  0.8360  1.4106
  113MOL0     H14910   8.756   9.565   5.530  0.0633 -0.9186 -2.6906
  113MOL0     H14911   8.712   9.441   5.653  0.5569 -0.4314 -0.7168
  113MOL0     H14912   8.463   9.586   5.560  2.3782 -2.9051 -2.8798
  113MOL0     H14913   8.520   9.506   5.695  1.6623 -1.7168 -0.7525
  113MOL0     H14914   8.667   9.871   5.813  4.2852 -2.7889  2.2415
  113MOL0     H14915   8.540   9.027   5.241 -0.4105 -1.0814 -0.2562
  113MOL0     H14916   8.477   8.821   5.338 -0.1432 -0.5972  0.8696
  114MOL0     O14917   8.847   9.471   8.164  0.6757 -0.0121  0.1197
  114MOL0     C14918   8.798   9.393   8.242 -0.4334  0.8385  0.3921
  114MOL0     O14919   8.850   9.268   8.283  0.7168  0.0434  0.7985
  114MOL0     C14920   8.965   9.211   8.240 -0.1095 -0.7863 -0.7058
  114MOL0     C14921   9.062   9.272   8.158  0.0337  0.1370  0.8365
  114MOL0     C14922   9.180   9.199   8.133  0.7385 -0.4516  0.8249
  114MOL0     C14923   9.197   9.065   8.160  0.4435 -0.2703 -0.2823
  114MOL0     O14924   9.318   9.006   8.139 -0.6784  0.1470  0.7432
  114MOL0     C14925   9.311   8.873   8.071 -0.2973  0.4522 -0.9908
  114MOL0     C14926   9.449   8.809   8.112  0.2115 -0.0717 -0.2475
  114MOL0     C14927   9.567   8.838   8.008 -0.4979  0.0566 -0.0506
  114MOL0     C14928   9.678   8.755   8.048  0.0595 -0.1467 -0.2795
  114MOL0     C14929   9.801   8.759   7.960 -0.3585 -0.6936  0.3091
  114MOL0     C14930   9.898   8.648   7.988  0.3593 -0.3516 -0.2326
  114MOL0     C14931  10.039   8.653   7.918 -0.0957 -0.5694  0.0271
  114MOL0     C14932  10.028   8.611   7.776 -0.6394 -0.4462  0.4000
  114MOL0     N14933  10.169   8.610   7.720  0.2547  0.5188  0.3949
  114MOL0     C14934  10.256   8.718   7.720  0.3040  0.5652 -0.4157
  114MOL0     C14935  10.370   8.668   7.670  0.2209 -0.0645 -0.8329
  114MOL0     C14936  10.488   8.756   7.637 -0.4466  0.4223 -0.5670
  114MOL0     C14937  10.624   8.696   7.654  0.6570  0.3950  0.3975
  114MOL0     C14938  10.677   8.602   7.543  1.0015  0.4875 -0.1472
  114MOL0     C14939  10.806   8.535   7.584  0.4674  0.1201  0.3568
  114MOL0     O14940  10.924   8.627   7.588  0.7699  0.8626 -0.1334
  114MOL0     C14941  10.992   8.653   7.472  0.0204 -0.2280 -0.0393
  114MOL0     C14942  10.963   8.601   7.343  0.2145 -0.4366  0.3628
  114MOL0     C14943  11.031   8.646   7.233 -0.7524 -0.0351  0.7938
  114MOL0     C14944  11.146   8.731   7.248  0.3085  1.3071  0.9162
  114MOL0     C14945  11.211   8.798   7.128  0.2733  0.4468 -0.6171
  114MOL0     O14946  11.195   8.743   7.004  0.7039  0.1110  0.1947
  114MOL0     C14947  11.242   8.812   6.888  0.1556  0.7273  0.3186
  114MOL0     C14948  11.370   8.775   6.847 -0.2370  1.1873 -0.4385
  114MOL0     C14949  11.427   8.843   6.733  0.2341  0.5115 -0.6184
  114MOL0     C14950  11.349   8.929   6.650  0.6828 -0.0769  0.8879
  114MOL0     O14951  11.404   8.966   6.529  0.0077  0.1636 -0.1637
  114MOL0     C14952  11.443   8.854   6.456 -0.7383  0.4371 -0.4616
  114MOL0     C14953  11.347   8.810   6.350  0.8764  0.6482 -0.1340
  114MOL0     C14954  11.413   8.703   6.258  0.1016 -0.1407  0.0273
  114MOL0     C14955  11.316   8.638   6.168  0.0082  0.0893 -0.9094
  114MOL0     C14956  11.367   8.529   6.081  0.2492 -0.3216  0.7711
  114MOL0     C14957  11.509   8.538   6.016  0.2871  0.3420  0.2357
  114MOL0     C14958  11.621   8.516   6.107  0.2628  0.8661 -0.0881
  114MOL0     C14959  11.744   8.463   6.030 -0.2425 -0.6849 -1.0849
  114MOL0    Cl14960  11.814   8.576   5.913 -0.0718 -0.4226  0.1401
  114MOL0     C14961  11.217   8.960   6.696  0.6193  0.6064 -0.3477
  114MOL0     C14962  11.171   8.902   6.810 -0.5371  0.3056  0.4761
  114MOL0     O14963  11.263   8.906   7.150 -0.8355 -0.2649  0.1007
  114MOL0     C14964  11.177   8.767   7.376 -0.4925 -0.5749  0.8244
  114MOL0     C14965  11.094   8.749   7.489 -0.3608 -0.4237  0.1531
  114MOL0     N14966  10.355   8.527   7.644 -0.2648  0.8094  0.5653
  114MOL0     N14967  10.241   8.496   7.696  0.3934 -0.0764 -0.1603
  114MOL0     C14968   9.087   9.003   8.228  0.8304  0.7186  0.6731
  114MOL0     C14969   8.986   9.076   8.280 -0.4730 -0.2202  0.4907
  114MOL0     C14970   8.671   9.437   8.305 -1.0789 -0.3690 -0.9501
  114MOL0     C14971   8.600   9.547   8.248  0.5100 -1.0651  0.1085
  114MOL0     C14972   8.480   9.603   8.299  0.4422  0.5802 -0.0280
  114MOL0     C14973   8.426   9.543   8.413 -0.1021  0.7333 -0.0994
  114MOL0     O14974   8.307   9.582   8.458 -0.8074 -0.4425 -0.1436
  114MOL0     C14975   8.286   9.581   8.601 -1.0004 -0.3876  0.1455
  114MOL0     C14976   8.173   9.681   8.654 -0.1696  0.5681 -0.6783
  114MOL0     C14977   8.188   9.826   8.611 -0.4286 -0.5453  0.6026
  114MOL0     C14978   8.325   9.876   8.629  0.3132 -0.5218 -0.1897
  114MOL0     C14979   8.360   9.886   8.770 -0.9264 -0.2895  0.1249
  114MOL0     C14980   8.402   9.892   8.887 -0.0441 -0.0657  0.3334
  114MOL0     C14981   8.494   9.434   8.469  0.0309 -0.3191 -0.2361
  114MOL0     C14982   8.615   9.383   8.427 -0.1614 -0.8829  0.0206
  114MOL0     H14983   9.074   9.380   8.153  0.8975  0.1498  2.4623
  114MOL0     H14984   9.265   9.254   8.094  1.6042 -1.1180  1.7302
  114MOL0     H14985   9.288   8.886   7.965 -0.7388  0.7856 -0.8568
  114MOL0     H14986   9.237   8.813   8.123 -2.2850  4.2262  0.9480
  114MOL0     H14987   9.444   8.699   8.109  0.4135 -0.0581 -1.3210
  114MOL0     H14988   9.488   8.838   8.210 -0.3944 -1.4411  0.4269
  114MOL0     H14989   9.594   8.944   8.015 -0.7871  0.1259  0.0345
  114MOL0     H14990   9.531   8.823   7.905  1.0849  0.3772 -0.6815
  114MOL0     H14991   9.689   8.781   8.154 -0.7432 -3.0604  0.5990
  114MOL0     H14992   9.659   8.648   8.055  3.5592 -0.9212 -0.4679
  114MOL0     H14993   9.841   8.860   7.948 -3.2776  0.7246  1.5109
  114MOL0     H14994   9.767   8.740   7.858 -0.7124 -2.1677  0.6790
  114MOL0     H14995   9.847   8.552   7.978  1.5119 -1.1887  1.4217
  114MOL0     H14996   9.926   8.665   8.092  0.8651 -1.1169 -0.2317
  114MOL0     H14997  10.075   8.755   7.930 -3.5534  0.6389  1.4301
  114MOL0     H14998  10.111   8.589   7.969  0.9675  2.9087  3.2998
  114MOL0     H14999   9.972   8.680   7.712  0.0465  0.0532  0.3263
  114MOL0     H15000   9.980   8.513   7.776 -3.5809  0.8754 -0.1342
  114MOL0     H15001  10.227   8.818   7.753  0.9015  1.0617 -1.3707
  114MOL0     H15002  10.480   8.851   7.690 -2.1890  0.1738 -0.3341
  114MOL0     H15003  10.483   8.785   7.531  2.2075  0.0487 -0.8566
  114MOL0     H15004  10.624   8.639   7.748  1.1879 -0.7462 -0.2808
  114MOL0     H15005  10.692   8.778   7.680  0.7418  0.7936 -1.0089
  114MOL0     H15006  10.611   8.516   7.529  0.3003  0.8150  1.0153
  114MOL0     H15007  10.695   8.651   7.448 -1.9044 -1.9393 -2.1424
  114MOL0     H15008  10.840   8.457   7.515  2.4362 -0.5483  1.9910
  114MOL0     H15009  10.798   8.488   7.683 -0.7707  2.0838  1.2527
  114MOL0     H15010  10.878   8.536   7.326  0.5095 -0.5946 -0.5872
  114MOL0     H15011  11.004   8.619   7.132 -5.5638  4.0355  0.5959
  114MOL0     H15012  11.442   8.728   6.914  0.6657  4.6834  1.2901
  114MOL0     H15013  11.534   8.828   6.718  0.9339  2.3641  1.9775
  114MOL0     H15014  11.467   8.764   6.514  0.6209 -0.4307 -2.2632
  114MOL0     H15015  11.537   8.878   6.405 -0.6423 -0.6912 -0.8354
  114MOL0     H15016  11.320   8.893   6.284  3.6188  2.3743  0.7812
  114MOL0     H15017  11.253   8.766   6.385  2.0265 -1.4134  0.5508
  114MOL0     H15018  11.475   8.635   6.319 -1.3939 -0.3434  1.4048
  114MOL0     H15019  11.482   8.770   6.207  4.2040 -3.1559  1.0867
  114MOL0     H15020  11.248   8.594   6.242  0.4541  1.5281  0.4281
  114MOL0     H15021  11.268   8.716   6.109 -1.3665 -1.5488 -2.0755
  114MOL0     H15022  11.291   8.528   6.003 -0.8599  2.5171  1.6989
  114MOL0     H15023  11.349   8.433   6.131 -1.2641 -0.6446 -0.3317
  114MOL0     H15024  11.513   8.633   5.962 -0.3402 -1.1622 -2.6333
  114MOL0     H15025  11.509   8.456   5.944 -0.5060 -2.0333  2.7945
  114MOL0     H15026  11.640   8.615   6.150  2.5303  0.0614  0.9193
  114MOL0     H15027  11.611   8.440   6.185  2.5649 -1.2043 -1.6370
  114MOL0     H15028  11.722   8.363   5.991 -3.2314 -1.1553  1.4398
  114MOL0     H15029  11.823   8.455   6.104  0.4011  2.5311 -1.2764
  114MOL0     H15030  11.156   9.020   6.629  1.6599  2.6945  0.4973
  114MOL0     H15031  11.079   8.943   6.849  0.2603  2.9428 -0.1997
  114MOL0     H15032  11.266   8.829   7.374  0.5530 -1.9878 -1.7581
  114MOL0     H15033  11.104   8.814   7.575 -0.2576 -1.6016  1.0463
  114MOL0     H15034   9.091   8.901   8.266 -2.2056  0.5238  0.6945
  114MOL0     H15035   8.918   9.030   8.351 -0.0362 -2.1601 -0.2790
  114MOL0     H15036   8.630   9.606   8.162  2.4827 -1.1976  0.6421
  114MOL0     H15037   8.419   9.676   8.246  2.3883  0.9963 -1.8573
  114MOL0     H15038   8.376   9.604   8.658 -0.8789 -1.2487  0.3069
  114MOL0     H15039   8.254   9.479   8.626 -0.9981 -0.9187 -1.8274
  114MOL0     H15040   8.074   9.643   8.625  0.0879 -0.7653  0.0748
  114MOL0     H15041   8.183   9.689   8.763  1.8028 -2.9218 -0.4591
  114MOL0     H15042   8.111   9.892   8.653  0.5534  1.5986 -0.7805
  114MOL0     H15043   8.169   9.834   8.503 -1.2364  0.1525  0.7867
  114MOL0     H15044   8.395   9.815   8.572 -1.1247 -1.8658 -0.5968
  114MOL0     H15045   8.315   9.978   8.591  0.5271  0.7531  2.9021
  114MOL0     H15046   8.448   9.898   8.983  0.9085  1.0404 -0.1529
  114MOL0     H15047   8.454   9.388   8.559 -1.3484  1.0335 -0.1087
  114MOL0     H15048   8.645   9.287   8.468 -0.2572 -0.5301  0.9338
  115MOL0     O15049   1.745   9.196   5.932 -0.0274 -0.0888 -0.3418
  115MOL0     C15050   1.715   9.115   5.843 -0.3602 -0.3589 -0.3159
  115MOL0     O15051   1.780   9.105   5.720  0.2758  0.5593 -0.3024
  115MOL0     C15052   1.885   9.180   5.679  0.0420  0.8551  1.4239
  115MOL0     C15053   1.995   9.192   5.762 -0.5262 -0.3131 -0.1345
  115MOL0     C15054   2.098   9.281   5.726  0.3804  0.5149 -0.5005
  115MOL0     C15055   2.092   9.354   5.603  1.0629 -0.0642 -0.2071
  115MOL0     O15056   2.176   9.455   5.556 -0.1830  0.3162 -0.1719
  115MOL0     C15057   2.275   9.493   5.659  0.3585 -0.2810  0.4699
  115MOL0     C15058   2.362   9.602   5.601  0.2008 -0.6399  0.0586
  115MOL0     C15059   2.279   9.732   5.597  0.3497  0.6309  0.2253
  115MOL0     C15060   2.360   9.830   5.494  0.0147 -0.4135  0.2501
  115MOL0     C15061   2.299   9.813   5.351 -1.0195 -0.5924  0.4012
  115MOL0     C15062   2.156   9.865   5.342 -0.4801  0.0348  0.4417
  115MOL0     C15063   2.140   9.975   5.233  0.1594 -0.3491  0.0678
  115MOL0     C15064   2.176  10.114   5.283 -0.4609  0.5422  0.4754
  115MOL0     N15065   2.098  10.148   5.400  0.6013 -0.1363  0.5885
  115MOL0     C15066   1.975  10.213   5.404  0.6764  0.3238  0.2850
  115MOL0     C15067   1.966  10.257   5.532  0.8524 -0.1467  0.7859
  115MOL0     C15068   1.867  10.354   5.577 -0.8895  0.7119 -0.2930
  115MOL0     C15069   1.922  10.486   5.639 -0.5944  0.3126 -0.6103
  115MOL0     C15070   1.817  10.582   5.660  0.3374 -0.8000  0.5140
  115MOL0     C15071   1.753  10.648   5.535 -0.4034  0.2344 -0.5984
  115MOL0     O15072   1.711  10.777   5.573  0.2323  0.2472  0.5999
  115MOL0     C15073   1.800  10.882   5.578 -0.0131  0.1772 -0.4951
  115MOL0     C15074   1.902  10.901   5.487 -0.2110  0.1744  0.0289
  115MOL0     C15075   1.981  11.019   5.496 -0.7733 -1.3947 -0.4732
  115MOL0     C15076   1.955  11.126   5.585  0.0721 -0.7046  0.6055
  115MOL0     C15077   2.022  11.252   5.573  0.0277 -0.1798 -0.5954
  115MOL0     O15078   1.949  11.360   5.622  0.2182  0.1166 -0.1372
  115MOL0     C15079   1.990  11.489   5.603 -0.4762  0.8343 -0.4802
  115MOL0     C15080   1.976  11.565   5.716 -0.1900 -0.2786  0.1917
  115MOL0     C15081   2.024  11.692   5.712 -0.1733 -0.3450 -0.1601
  115MOL0     C15082   2.063  11.757   5.588 -0.2397  1.7186  0.1297
  115MOL0     O15083   2.105  11.881   5.575  0.0104 -0.6371 -0.0775
  115MOL0     C15084   2.048  11.979   5.669  0.3914 -0.4820 -0.1830
  115MOL0     C15085   2.086  12.129   5.630  0.3176 -0.0438 -0.9450
  115MOL0     C15086   1.990  12.214   5.707  0.3032 -0.6589 -0.4374
  115MOL0     C15087   1.997  12.216   5.857 -0.3791 -0.0090 -0.6430
  115MOL0     C15088   1.920  12.330   5.928  1.0528 -0.2264  0.9968
  115MOL0     C15089   1.764  12.310   5.949 -0.4652  0.2359 -0.6131
  115MOL0     C15090   1.673  12.328   5.831 -0.4462 -0.5533  0.0908
  115MOL0     C15091   1.682  12.467   5.767 -0.0925 -0.0258  0.4908
  115MOL0    Cl15092   1.611  12.597   5.869  0.1425  0.1222  0.1883
  115MOL0     C15093   2.069  11.678   5.480  0.0996  0.3938 -0.2268
  115MOL0     C15094   2.030  11.539   5.480 -0.0520 -0.2069 -0.5329
  115MOL0     O15095   2.123  11.265   5.506 -0.5853 -0.5985 -0.0351
  115MOL0     C15096   1.852  11.101   5.672 -0.3816 -0.5154 -0.0112
  115MOL0     C15097   1.777  10.982   5.667  0.0390 -0.4565  0.9174
  115MOL0     N15098   2.067  10.203   5.602  0.0846  0.2376  0.8820
  115MOL0     N15099   2.151  10.142   5.528 -0.6684  0.1223  1.1376
  115MOL0     C15100   1.988   9.327   5.517  0.5238 -0.5547  0.0543
  115MOL0     C15101   1.880   9.241   5.552 -0.8414 -0.0218  0.3221
  115MOL0     C15102   1.604   9.025   5.888  0.5672 -0.5034  0.3533
  115MOL0     C15103   1.560   8.915   5.810 -0.2266 -0.0804  0.1329
  115MOL0     C15104   1.454   8.833   5.844 -0.1835 -0.0273  0.5081
  115MOL0     C15105   1.387   8.856   5.966 -0.7405 -0.2384  0.3301
  115MOL0     O15106   1.298   8.766   6.007  0.1098  0.6236 -0.1139
  115MOL0     C15107   1.187   8.815   6.098 -0.7476 -0.2949  0.2479
  115MOL0     C15108   1.079   8.888   6.020  0.2621 -0.3600 -0.1842
  115MOL0     C15109   0.975   8.965   6.098 -0.1789  0.3324 -0.1339
  115MOL0     C15110   0.877   9.033   6.005 -1.2373 -0.9254 -0.3086
  115MOL0     C15111   0.797   8.948   5.914 -0.2863  0.0171 -0.2558
  115MOL0     C15112   0.732   8.864   5.847 -0.1663 -0.0863 -0.0667
  115MOL0     C15113   1.426   8.967   6.046 -0.1537 -0.9362  0.3217
  115MOL0     C15114   1.540   9.041   6.013  0.0561  0.1669 -0.4233
  115MOL0     H15115   1.983   9.147   5.860 -1.5581 -1.9258 -0.9627
  115MOL0     H15116   2.187   9.292   5.787  0.0071  1.7808 -0.1625
  115MOL0     H15117   2.343   9.412   5.684  0.7068 -0.8240 -1.9995
  115MOL0     H15118   2.224   9.525   5.750 -0.1561 -1.8115  0.7450
  115MOL0     H15119   2.402   9.570   5.504  2.4815 -0.6642  0.9337
  115MOL0     H15120   2.441   9.618   5.676  4.5954 -1.0701 -3.9526
  115MOL0     H15121   2.265   9.789   5.689 -0.0435  0.6028  0.1839
  115MOL0     H15122   2.174   9.726   5.566  0.2109  1.4762  0.5099
  115MOL0     H15123   2.349   9.933   5.527  1.5939  0.4914 -1.8566
  115MOL0     H15124   2.466   9.803   5.499  0.5912  1.0749 -2.3801
  115MOL0     H15125   2.300   9.708   5.321  0.3196  0.2899 -3.0890
  115MOL0     H15126   2.371   9.866   5.288 -1.1175 -0.0939  0.6978
  115MOL0     H15127   2.134   9.902   5.443 -0.4861  1.4170 -0.0358
  115MOL0     H15128   2.087   9.783   5.321  2.0705 -2.3506  0.7850
  115MOL0     H15129   2.201   9.945   5.147 -0.7091 -1.8853 -0.0625
  115MOL0     H15130   2.037   9.976   5.195  1.6831  1.5505 -4.7882
  115MOL0     H15131   2.159  10.193   5.210 -5.9959  0.2029  0.9750
  115MOL0     H15132   2.282  10.108   5.312  0.6611 -1.1196 -3.3274
  115MOL0     H15133   1.910  10.245   5.323 -0.1615 -0.8831  0.4597
  115MOL0     H15134   1.790  10.304   5.636 -0.4761  0.7194  0.2558
  115MOL0     H15135   1.801  10.386   5.496  0.0312  1.5506 -0.7248
  115MOL0     H15136   2.011  10.514   5.582 -0.3481 -1.0300 -0.9012
  115MOL0     H15137   1.959  10.456   5.737  0.9829  1.8288 -0.6940
  115MOL0     H15138   1.748  10.537   5.732  1.2323 -3.1788 -0.0303
  115MOL0     H15139   1.870  10.663   5.711 -0.7231  0.1962  0.0988
  115MOL0     H15140   1.665  10.584   5.525  1.5287 -2.3596 -2.5484
  115MOL0     H15141   1.814  10.648   5.444  0.7579  0.0421  0.1572
  115MOL0     H15142   1.917  10.836   5.402 -3.1331 -0.7018  0.0623
  115MOL0     H15143   2.056  11.041   5.421 -1.2727  2.3443 -0.0662
  115MOL0     H15144   1.928  11.521   5.803 -4.1537 -1.0171 -2.0972
  115MOL0     H15145   2.027  11.752   5.802  4.5622 -2.1734  1.2037
  115MOL0     H15146   2.095  11.953   5.764 -0.9234  2.1226  1.2965
  115MOL0     H15147   1.939  11.969   5.668  0.3014 -0.4588 -3.8630
  115MOL0     H15148   2.075  12.146   5.522  3.3369 -1.9753 -1.7083
  115MOL0     H15149   2.189  12.146   5.664 -0.6087 -0.8012  2.5779
  115MOL0     H15150   1.888  12.198   5.671  0.1966 -2.2605  0.4958
  115MOL0     H15151   2.021  12.315   5.675  1.8629 -0.0723  2.5359
  115MOL0     H15152   1.959  12.118   5.889  1.4806 -0.0574  1.7664
  115MOL0     H15153   2.104  12.220   5.879 -0.3925 -1.8657 -0.0191
  115MOL0     H15154   1.960  12.414   5.872 -0.5636 -2.2382 -3.7026
  115MOL0     H15155   1.965  12.341   6.027 -1.0643 -3.4481  2.5117
  115MOL0     H15156   1.731  12.386   6.021 -0.4515  0.5449 -0.9280
  115MOL0     H15157   1.752  12.219   6.009 -0.9427  2.1803  2.4781
  115MOL0     H15158   1.698  12.242   5.768 -4.0493 -3.0182  1.6881
  115MOL0     H15159   1.565  12.320   5.844 -0.8806 -2.2927 -3.4755
  115MOL0     H15160   1.629  12.460   5.671  0.5638  2.0181 -0.0696
  115MOL0     H15161   1.784  12.498   5.743 -0.0894  1.2630  1.9900
  115MOL0     H15162   2.117  11.706   5.387 -0.0916 -2.6008 -1.3315
  115MOL0     H15163   2.042  11.483   5.388  3.7414 -2.0147  0.8539
  115MOL0     H15164   1.797  11.179   5.724  0.0318 -1.0947  1.3359
  115MOL0     H15165   1.704  10.969   5.746  0.8190 -1.1908  1.5408
  115MOL0     H15166   1.990   9.399   5.437 -2.2836  0.8764  1.1533
  115MOL0     H15167   1.786   9.241   5.496 -1.8630 -0.1287  1.9709
  115MOL0     H15168   1.612   8.884   5.720  1.4064  3.3050 -0.2256
  115MOL0     H15169   1.415   8.754   5.780 -1.8300  1.8430 -0.9249
  115MOL0     H15170   1.217   8.882   6.179 -3.1362  0.0322  0.9081
  115MOL0     H15171   1.138   8.729   6.143  1.2076 -2.6185 -1.7517
  115MOL0     H15172   1.135   8.956   5.955  4.9592  0.0341  3.7026
  115MOL0     H15173   1.023   8.809   5.969  1.4363 -3.2670  2.6681
  115MOL0     H15174   1.018   9.050   6.153 -2.4518 -0.3054  2.8915
  115MOL0     H15175   0.926   8.901   6.172 -1.0680  1.5990  0.4057
  115MOL0     H15176   0.809   9.102   6.055 -2.1268 -2.9755  1.5001
  115MOL0     H15177   0.928   9.095   5.930 -0.5270 -0.5301  0.4931
  115MOL0     H15178   0.698   8.803   5.766  1.4696 -0.0543 -0.8065
  115MOL0     H15179   1.389   8.984   6.146 -0.9015  1.3802 -0.2877
  115MOL0     H15180   1.562   9.133   6.067  0.7866 -0.6752  0.7911
  116MOL0     O15181   2.443   7.059   4.093  0.5381 -0.4912 -0.0873
  116MOL0     C15182   2.385   7.070   4.203 -0.2776  0.6941  0.5727
  116MOL0     O15183   2.431   7.144   4.305 -0.1133 -0.2361 -0.5103
  116MOL0     C15184   2.556   7.213   4.294  0.1582 -0.5278 -0.4111
  116MOL0     C15185   2.676   7.138   4.287 -0.4663  0.0504  0.6291
  116MOL0     C15186   2.796   7.205   4.252  0.5774  0.0164 -0.0214
  116MOL0     C15187   2.795   7.344   4.216  0.1115 -0.3408  0.0673
  116MOL0     O15188   2.903   7.404   4.165  0.2695  0.2359  0.1613
  116MOL0     C15189   3.024   7.383   4.245 -0.2274  0.3202  0.3691
  116MOL0     C15190   3.124   7.301   4.161  0.0273  0.3633  0.1034
  116MOL0     C15191   3.258   7.250   4.229  0.5021  0.2572  0.9387
  116MOL0     C15192   3.242   7.202   4.370  0.4319  0.8262  0.1816
  116MOL0     C15193   3.249   7.311   4.481  0.0480 -0.5503  0.0157
  116MOL0     C15194   3.211   7.245   4.618  0.2636 -0.2824 -0.5524
  116MOL0     C15195   3.118   7.339   4.694  0.0241 -0.4022 -0.6628
  116MOL0     C15196   3.070   7.286   4.828  0.1415  0.5148 -0.1241
  116MOL0     N15197   3.169   7.262   4.929  0.2220 -0.2140  0.1608
  116MOL0     C15198   3.236   7.365   4.991 -0.0676 -0.7227  0.3195
  116MOL0     C15199   3.329   7.292   5.064  0.0226  0.2368 -0.4315
  116MOL0     C15200   3.439   7.348   5.138  0.4736 -0.2754 -0.0626
  116MOL0     C15201   3.573   7.292   5.087 -0.6807  0.0634  0.1518
  116MOL0     C15202   3.587   7.328   4.939 -0.2897  0.1869  0.3302
  116MOL0     C15203   3.721   7.307   4.868  0.0494  0.3762 -0.0932
  116MOL0     O15204   3.823   7.370   4.949  0.6315  0.1654 -0.3013
  116MOL0     C15205   3.832   7.510   4.949  0.1342 -0.5802 -1.0034
  116MOL0     C15206   3.902   7.561   5.055  0.5266  0.3398 -0.4527
  116MOL0     C15207   3.926   7.702   5.062 -0.0388 -0.1646  0.8851
  116MOL0     C15208   3.868   7.792   4.965 -0.4566  0.5768  0.1317
  116MOL0     C15209   3.898   7.932   4.971  0.6434 -0.4507  0.0222
  116MOL0     O15210   3.871   8.004   4.857 -0.8399 -0.0777 -0.5532
  116MOL0     C15211   3.863   8.138   4.865 -0.2236  0.1805 -0.6673
  116MOL0     C15212   3.923   8.224   4.774  0.1137 -0.1371 -0.9919
  116MOL0     C15213   3.917   8.364   4.796  0.0438 -0.7981 -0.0174
  116MOL0     C15214   3.857   8.420   4.918  0.4418 -0.3476 -0.2486
  116MOL0     O15215   3.851   8.555   4.949 -0.5578 -0.3798  0.4195
  116MOL0     C15216   3.964   8.631   4.920 -0.4856 -0.4722  1.1094
  116MOL0     C15217   3.930   8.770   4.959  0.8610  0.3336 -0.3546
  116MOL0     C15218   4.041   8.872   4.977  0.1385  0.4085 -0.2972
  116MOL0     C15219   3.991   9.009   4.923 -0.2832  0.8959  0.4397
  116MOL0     C15220   4.122   9.111   4.903 -0.6382  0.2593  0.0194
  116MOL0     C15221   4.072   9.247   4.851  0.2688  0.0284  0.3466
  116MOL0     C15222   4.145   9.378   4.893 -0.1342  0.2049  0.3565
  116MOL0     C15223   4.299   9.361   4.885  0.5183 -0.7063  0.7193
  116MOL0    Cl15224   4.379   9.403   4.733  0.0415  0.3426  0.0174
  116MOL0     C15225   3.792   8.337   5.002  0.5916  0.0588 -0.6055
  116MOL0     C15226   3.794   8.202   4.972  0.6075 -0.7028  0.1525
  116MOL0     O15227   3.937   7.985   5.080  0.7312 -0.6446 -0.0423
  116MOL0     C15228   3.779   7.733   4.868 -0.4720 -0.0693 -0.2702
  116MOL0     C15229   3.761   7.596   4.865 -0.4300 -0.9052 -0.1547
  116MOL0     N15230   3.312   7.154   5.026  0.3627 -0.8280  0.0950
  116MOL0     N15231   3.214   7.139   4.953 -0.3258  0.1303  0.0556
  116MOL0     C15232   2.673   7.417   4.234 -0.3826 -0.4833  0.2132
  116MOL0     C15233   2.565   7.354   4.282  0.4670 -0.3486 -0.8939
  116MOL0     C15234   2.258   6.998   4.215  0.1105 -0.1157  0.3649
  116MOL0     C15235   2.172   7.027   4.324 -1.0819 -0.6366 -0.2770
  116MOL0     C15236   2.059   6.944   4.352  0.1487 -0.5734 -0.7775
  116MOL0     C15237   2.028   6.844   4.256  0.5343  0.5471  0.6076
  116MOL0     O15238   1.922   6.768   4.247  0.3962  0.0205  0.3728
  116MOL0     C15239   1.813   6.783   4.344  0.7006 -0.1384  0.1578
  116MOL0     C15240   1.695   6.689   4.280 -0.6033 -0.4195 -0.0398
  116MOL0     C15241   1.563   6.683   4.366  0.2001  0.4685 -0.2710
  116MOL0     C15242   1.502   6.824   4.392  0.1396  0.9456  0.3160
  116MOL0     C15243   1.508   6.909   4.273 -0.0573 -0.1152 -0.5098
  116MOL0     C15244   1.518   6.977   4.173  0.5350  0.4217  0.6406
  116MOL0     C15245   2.114   6.816   4.145 -0.0330 -0.4268 -0.4955
  116MOL0     C15246   2.226   6.894   4.123  0.8774  0.3594 -0.0196
  116MOL0     H15247   2.677   7.030   4.296  1.5105 -0.4960 -3.6120
  116MOL0     H15248   2.888   7.150   4.241 -0.4262 -1.4730 -1.3912
  116MOL0     H15249   3.012   7.350   4.349  4.0346  0.2636  1.0390
  116MOL0     H15250   3.068   7.482   4.257  1.4567  0.3585 -4.3105
  116MOL0     H15251   3.152   7.361   4.073  0.3013 -0.7205 -0.5626
  116MOL0     H15252   3.071   7.215   4.121  1.5896 -0.2071 -0.8573
  116MOL0     H15253   3.322   7.338   4.231  0.2769  0.4183  2.9566
  116MOL0     H15254   3.291   7.181   4.150 -1.6005  0.0748  0.1330
  116MOL0     H15255   3.141   7.160   4.372 -0.9091  3.7456  3.0120
  116MOL0     H15256   3.317   7.125   4.389 -0.1525  0.2669  0.2956
  116MOL0     H15257   3.195   7.404   4.462  2.8889  1.4467  1.0615
  116MOL0     H15258   3.349   7.356   4.490 -0.3722  0.3719  0.1780
  116MOL0     H15259   3.307   7.229   4.669 -1.3238 -0.6697  2.5372
  116MOL0     H15260   3.169   7.144   4.614 -2.7929  0.8124  0.8365
  116MOL0     H15261   3.178   7.429   4.709 -0.8780  0.2069 -0.6387
  116MOL0     H15262   3.041   7.345   4.616  0.3833 -2.3130 -1.2090
  116MOL0     H15263   3.017   7.192   4.813  1.2432 -0.0163 -0.7554
  116MOL0     H15264   3.001   7.361   4.869  1.6749  2.3311 -0.7038
  116MOL0     H15265   3.211   7.471   4.987 -1.0155 -0.9113  0.9247
  116MOL0     H15266   3.417   7.325   5.242 -3.0638  1.2079 -0.3394
  116MOL0     H15267   3.425   7.456   5.125 -2.0817 -0.7802 -2.4407
  116MOL0     H15268   3.591   7.190   5.120 -0.5073 -0.8075 -2.4497
  116MOL0     H15269   3.657   7.343   5.137  3.4666 -4.5666 -1.3205
  116MOL0     H15270   3.524   7.261   4.881 -0.2754 -0.5438  1.1341
  116MOL0     H15271   3.562   7.433   4.924  1.7789  0.5299 -1.3993
  116MOL0     H15272   3.720   7.349   4.767 -1.1490  1.3319  0.2984
  116MOL0     H15273   3.730   7.200   4.846 -1.9150  0.4740 -1.6624
  116MOL0     H15274   3.938   7.499   5.137  1.1663  0.7218 -0.4408
  116MOL0     H15275   3.986   7.739   5.144  1.0017 -0.0258  0.0881
  116MOL0     H15276   3.949   8.186   4.676  0.5548  1.4324 -1.5071
  116MOL0     H15277   3.960   8.439   4.730 -0.7794  3.0704  3.4738
  116MOL0     H15278   3.965   8.641   4.811 -0.5699  4.7617  1.3481
  116MOL0     H15279   4.056   8.581   4.952 -0.5333 -0.4138  1.3437
  116MOL0     H15280   3.870   8.766   5.051  1.8216 -1.1378  0.2431
  116MOL0     H15281   3.871   8.816   4.879  0.1506  0.9191  0.4792
  116MOL0     H15282   4.133   8.843   4.926  0.9396 -0.0290  1.3428
  116MOL0     H15283   4.068   8.877   5.083 -1.8099  2.2708  0.1814
  116MOL0     H15284   3.945   9.000   4.824 -0.1397  0.8320  0.3783
  116MOL0     H15285   3.930   9.065   4.995 -3.2582 -2.7600  1.0779
  116MOL0     H15286   4.198   9.057   4.846  2.1221 -0.3238  3.8611
  116MOL0     H15287   4.174   9.125   4.998  1.8971 -1.3755 -1.0227
  116MOL0     H15288   3.967   9.263   4.874  0.1049  0.9102 -0.8815
  116MOL0     H15289   4.084   9.230   4.743  1.7489 -1.0094  0.6411
  116MOL0     H15290   4.120   9.460   4.826  1.2072  2.3817  2.3734
  116MOL0     H15291   4.112   9.418   4.990  3.0973 -0.6965  1.9601
  116MOL0     H15292   4.328   9.261   4.918 -0.4017 -1.6996 -1.3421
  116MOL0     H15293   4.351   9.419   4.962  0.2863 -0.5677  0.7752
  116MOL0     H15294   3.743   8.385   5.086 -1.4733  1.0075 -2.2565
  116MOL0     H15295   3.735   8.138   5.036 -2.1013  2.9638  1.6977
  116MOL0     H15296   3.747   7.789   4.780  0.9947  2.6362  0.8068
  116MOL0     H15297   3.690   7.558   4.792 -4.2043 -0.2354  2.8203
  116MOL0     H15298   2.675   7.526   4.234  1.1848 -0.4647  1.5279
  116MOL0     H15299   2.474   7.408   4.305 -0.8200 -1.3368 -3.2311
  116MOL0     H15300   2.211   7.110   4.381 -0.3947 -0.9738 -0.2458
  116MOL0     H15301   1.992   6.968   4.434 -1.6422  2.9382 -3.0281
  116MOL0     H15302   1.779   6.886   4.347 -1.8906 -0.9371  0.2787
  116MOL0     H15303   1.835   6.756   4.448 -4.7102 -1.9374  1.1468
  116MOL0     H15304   1.671   6.710   4.176 -0.7026 -1.6925 -0.2882
  116MOL0     H15305   1.731   6.586   4.276  0.8827  0.1313 -2.2511
  116MOL0     H15306   1.588   6.631   4.459 -0.5926 -1.4959 -1.0959
  116MOL0     H15307   1.497   6.616   4.311  0.5127  0.3696 -0.5318
  116MOL0     H15308   1.397   6.804   4.414  0.1951 -0.4868 -0.5708
  116MOL0     H15309   1.543   6.876   4.479 -0.5676 -0.2731  1.4118
  116MOL0     H15310   1.531   7.033   4.082  0.8194  0.8668  0.9494
  116MOL0     H15311   2.092   6.746   4.065 -0.7433  1.7021 -2.2507
  116MOL0     H15312   2.282   6.881   4.031  0.9468 -0.1127  0.0890
  117MOL0     O15313   1.468   2.902   8.596 -0.0370 -0.1122  0.4950
  117MOL0     C15314   1.431   2.846   8.701  0.8511 -0.4538  0.0987
  117MOL0     O15315   1.304   2.845   8.752  0.4894  0.2203 -0.3381
  117MOL0     C15316   1.187   2.909   8.714 -0.2997 -0.1061 -0.5171
  117MOL0     C15317   1.070   2.855   8.769 -0.1094 -0.1164  0.1402
  117MOL0     C15318   0.949   2.914   8.747 -1.0599 -0.9051  0.0269
  117MOL0     C15319   0.943   3.024   8.663  0.2694  0.8658  0.0820
  117MOL0     O15320   0.813   3.057   8.652  0.6448  0.1872 -0.1500
  117MOL0     C15321   0.771   3.122   8.529  0.1600 -0.6729  1.0092
  117MOL0     C15322   0.745   3.272   8.569 -0.5115  0.0794  0.7647
  117MOL0     C15323   0.596   3.324   8.579  0.2915  0.1516 -0.0867
  117MOL0     C15324   0.595   3.473   8.546 -0.4917 -0.0188 -0.2800
  117MOL0     C15325   0.459   3.538   8.574  0.2220 -0.2570  0.2058
  117MOL0     C15326   0.386   3.502   8.704 -0.4009  0.3223 -0.1570
  117MOL0     C15327   0.463   3.531   8.831 -0.0546 -0.5521  0.4987
  117MOL0     C15328   0.370   3.545   8.952 -0.4733 -0.5768 -0.5218
  117MOL0     N15329   0.436   3.529   9.075  0.1705  0.2118 -0.3804
  117MOL0     C15330   0.445   3.626   9.167  0.0019  0.8913  0.1290
  117MOL0     C15331   0.537   3.576   9.253 -0.4061  0.5374 -0.0343
  117MOL0     C15332   0.570   3.639   9.385  0.4869  0.2574 -0.3503
  117MOL0     C15333   0.676   3.751   9.374  0.2997  0.1440 -0.1241
  117MOL0     C15334   0.643   3.875   9.299  0.9385 -1.3530  0.8603
  117MOL0     C15335   0.766   3.964   9.281 -0.8752  0.2683  0.5890
  117MOL0     O15336   0.840   3.902   9.174 -0.2696  0.0771 -0.7777
  117MOL0     C15337   0.822   3.927   9.045  0.1174  0.1756  0.8627
  117MOL0     C15338   0.777   3.820   8.974 -1.0933  0.6120  0.1564
  117MOL0     C15339   0.757   3.824   8.842 -0.0871 -0.3904  0.8131
  117MOL0     C15340   0.772   3.949   8.772 -0.4067 -0.4359 -0.6588
  117MOL0     C15341   0.757   3.958   8.626  0.8022  0.7342 -0.7250
  117MOL0     O15342   0.750   3.833   8.563  0.3724  0.2710  0.4342
  117MOL0     C15343   0.723   3.832   8.426 -0.1564 -0.1932  0.4932
  117MOL0     C15344   0.837   3.848   8.336 -0.0061  0.7026 -0.6712
  117MOL0     C15345   0.814   3.842   8.199 -0.4947  0.1928 -0.0111
  117MOL0     C15346   0.688   3.826   8.136  0.3400 -0.0633 -0.7281
  117MOL0     O15347   0.648   3.818   8.003  0.0319 -0.8534  0.4201
  117MOL0     C15348   0.739   3.773   7.909 -0.6159 -0.5221  0.0819
  117MOL0     C15349   0.761   3.632   7.866 -0.7700 -1.0462  0.2110
  117MOL0     C15350   0.634   3.562   7.831  1.0132 -0.3219 -0.3605
  117MOL0     C15351   0.668   3.416   7.796  0.1688  0.0484 -0.9206
  117MOL0     C15352   0.530   3.345   7.769  0.1972  0.7348  0.9323
  117MOL0     C15353   0.520   3.188   7.764 -0.1015 -0.2972 -0.1964
  117MOL0     C15354   0.617   3.120   7.665 -0.5086 -0.5723 -0.7327
  117MOL0     C15355   0.642   2.973   7.695  0.3888  0.2327  0.2506
  117MOL0    Cl15356   0.486   2.876   7.660 -0.0221 -0.2044 -0.3108
  117MOL0     C15357   0.578   3.818   8.228 -1.2544  0.6039  0.6252
  117MOL0     C15358   0.599   3.808   8.368 -1.3876  1.4672  0.1876
  117MOL0     O15359   0.727   4.060   8.572  0.1186 -0.3072 -0.0122
  117MOL0     C15360   0.823   4.060   8.843  0.3468  0.3132  0.0806
  117MOL0     C15361   0.842   4.048   8.977  0.4419  0.0868  0.7955
  117MOL0     N15362   0.572   3.447   9.206 -0.3250  1.0432  0.2719
  117MOL0     N15363   0.507   3.422   9.102 -0.1723  0.4809  0.5166
  117MOL0     C15364   1.055   3.076   8.605 -0.8374  0.4220  0.2906
  117MOL0     C15365   1.178   3.025   8.631 -0.7461 -0.2316  0.1608
  117MOL0     C15366   1.517   2.743   8.761 -1.1880  0.3145 -0.0677
  117MOL0     C15367   1.483   2.668   8.873 -0.3077 -0.5616  1.3622
  117MOL0     C15368   1.569   2.564   8.913  1.1630  0.4308 -0.1107
  117MOL0     C15369   1.677   2.520   8.840  1.3071  0.6837  0.4297
  117MOL0     O15370   1.770   2.426   8.882 -0.4503 -0.7977  0.5175
  117MOL0     C15371   1.765   2.401   9.028  0.5609 -0.3960 -0.3361
  117MOL0     C15372   1.888   2.314   9.045  0.4768  0.3247  1.0939
  117MOL0     C15373   1.902   2.281   9.196  0.4122  0.2346  0.0706
  117MOL0     C15374   2.027   2.187   9.224 -0.1917  0.0917  0.2839
  117MOL0     C15375   2.012   2.054   9.179  0.4223  0.9429 -1.0020
  117MOL0     C15376   2.002   1.937   9.138  0.2492  0.4392  0.5886
  117MOL0     C15377   1.710   2.595   8.729  0.4062 -0.1685  1.1271
  117MOL0     C15378   1.636   2.708   8.697  0.4722  1.3588 -0.0038
  117MOL0     H15379   1.083   2.776   8.842 -0.9706 -0.1986  0.2162
  117MOL0     H15380   0.866   2.882   8.809  0.9976 -2.3509  2.2101
  117MOL0     H15381   0.686   3.061   8.495  2.4384 -3.0347 -0.8676
  117MOL0     H15382   0.845   3.129   8.449 -0.9328  3.5677  0.0820
  117MOL0     H15383   0.791   3.333   8.491 -2.4382 -0.0176 -0.5159
  117MOL0     H15384   0.776   3.294   8.671 -6.7779  0.0988  3.0418
  117MOL0     H15385   0.573   3.310   8.685 -1.6438 -0.4019 -0.5335
  117MOL0     H15386   0.536   3.255   8.519  1.2419  0.2153 -1.1299
  117MOL0     H15387   0.661   3.533   8.609 -0.8392  0.5149 -0.4231
  117MOL0     H15388   0.628   3.492   8.444  1.2902 -0.2280  0.2109
  117MOL0     H15389   0.389   3.512   8.494 -1.3159 -3.9123  2.4914
  117MOL0     H15390   0.481   3.645   8.562  3.2007 -1.0560 -3.8447
  117MOL0     H15391   0.358   3.397   8.707 -2.7700  0.8712 -1.1336
  117MOL0     H15392   0.292   3.557   8.709  1.2835  3.3898  0.6882
  117MOL0     H15393   0.536   3.452   8.851  0.0923 -1.6367 -3.5179
  117MOL0     H15394   0.516   3.625   8.810 -2.1828  0.2560 -1.6384
  117MOL0     H15395   0.306   3.457   8.945 -0.0964 -0.7944 -1.3856
  117MOL0     H15396   0.309   3.635   8.943  0.3984 -0.0226 -1.1462
  117MOL0     H15397   0.383   3.710   9.195  0.7479  0.1779  4.8450
  117MOL0     H15398   0.605   3.564   9.457  2.6973  0.0516 -1.5742
  117MOL0     H15399   0.479   3.683   9.427  0.2253 -1.3921  0.9452
  117MOL0     H15400   0.768   3.709   9.331 -0.5471 -1.2631 -0.6065
  117MOL0     H15401   0.682   3.762   9.483 -1.9097 -0.4169  0.1032
  117MOL0     H15402   0.593   3.849   9.206  1.3933 -0.0910  0.2448
  117MOL0     H15403   0.580   3.936   9.364  2.1698  2.0050 -0.8605
  117MOL0     H15404   0.833   3.961   9.367  1.1898  1.1816 -0.9010
  117MOL0     H15405   0.745   4.066   9.246 -0.1769  0.2266  0.0261
  117MOL0     H15406   0.770   3.721   9.018  0.0983  1.1871  1.7592
  117MOL0     H15407   0.713   3.737   8.794  2.3060 -0.1840 -2.0428
  117MOL0     H15408   0.940   3.858   8.368 -0.2991  2.2093 -0.1136
  117MOL0     H15409   0.904   3.849   8.139  0.0232  1.4419  0.8606
  117MOL0     H15410   0.841   3.812   7.923 -0.2683 -0.4961 -2.2313
  117MOL0     H15411   0.703   3.808   7.812  1.5683 -1.2525 -1.0478
  117MOL0     H15412   0.806   3.582   7.952 -0.3129 -1.3405 -0.1924
  117MOL0     H15413   0.841   3.631   7.791  1.9902  1.2420  2.8392
  117MOL0     H15414   0.585   3.610   7.746  2.1078 -0.1170 -0.8824
  117MOL0     H15415   0.558   3.577   7.909  1.2802  1.7447 -0.4361
  117MOL0     H15416   0.719   3.421   7.700 -1.4534 -0.9678 -1.8864
  117MOL0     H15417   0.721   3.356   7.870 -2.0152 -1.1865 -0.2592
  117MOL0     H15418   0.503   3.378   7.669  1.6124  1.6518  0.8262
  117MOL0     H15419   0.453   3.374   7.841 -0.4408  1.1184  0.0993
  117MOL0     H15420   0.417   3.157   7.744 -0.6210 -0.0554  1.9269
  117MOL0     H15421   0.559   3.147   7.858  0.9890  2.6224  0.7325
  117MOL0     H15422   0.582   3.130   7.562  1.3249  0.8443 -1.2657
  117MOL0     H15423   0.715   3.167   7.677  0.4324 -2.3977 -0.8088
  117MOL0     H15424   0.667   2.967   7.801 -1.1065  0.0403  0.6094
  117MOL0     H15425   0.725   2.923   7.643  0.3298  0.6354 -0.2349
  117MOL0     H15426   0.479   3.802   8.185 -0.4912  1.7673 -1.7042
  117MOL0     H15427   0.513   3.782   8.429 -2.7265 -0.6565 -2.3949
  117MOL0     H15428   0.839   4.158   8.799  3.5821  1.1382  2.7438
  117MOL0     H15429   0.878   4.136   9.029  1.8349 -0.6928  1.1757
  117MOL0     H15430   1.046   3.167   8.547  3.0777  1.5862  1.1675
  117MOL0     H15431   1.267   3.072   8.591 -1.4668  1.6025  0.6096
  117MOL0     H15432   1.389   2.699   8.918  0.1745  0.7187  1.5350
  117MOL0     H15433   1.542   2.511   9.004 -4.7701 -0.1423 -1.7440
  117MOL0     H15434   1.670   2.354   9.057 -1.8570  3.7701 -0.6746
  117MOL0     H15435   1.774   2.492   9.089  2.4717 -2.0803  2.0851
  117MOL0     H15436   1.881   2.215   8.999  1.1869  0.3726  0.8634
  117MOL0     H15437   1.982   2.359   9.011  2.0700 -2.7685  0.9351
  117MOL0     H15438   1.823   2.227   9.249 -0.4986  0.0900 -1.3826
  117MOL0     H15439   1.915   2.371   9.258  0.9252 -0.0485  0.3861
  117MOL0     H15440   2.108   2.239   9.173 -1.6630  0.4186 -1.8494
  117MOL0     H15441   2.045   2.193   9.332 -0.7948 -0.9395  0.4520
  117MOL0     H15442   1.999   1.833   9.110 -0.0637  0.7455 -0.5899
  117MOL0     H15443   1.800   2.576   8.671 -1.0118  0.3079 -1.3588
  117MOL0     H15444   1.683   2.768   8.619  4.2749 -2.0281 -0.6605
  118MOL0     O15445   5.525   3.028   9.927  0.1230 -0.5140  0.3386
  118MOL0     C15446   5.602   2.938   9.932 -0.6301  1.0101  0.8610
  118MOL0     O15447   5.615   2.848  10.032 -0.1751 -0.7625 -0.0008
  118MOL0     C15448   5.530   2.871  10.138 -0.5611  0.3560  0.2201
  118MOL0     C15449   5.557   2.970  10.247 -0.5137  0.2825  0.7077
  118MOL0     C15450   5.464   2.979  10.348 -0.1662  0.9191  0.3461
  118MOL0     C15451   5.350   2.895  10.356 -0.7652  0.8253  0.3586
  118MOL0     O15452   5.250   2.910  10.439  0.1374 -0.6478  0.4576
  118MOL0     C15453   5.277   2.860  10.569  0.1339  0.3637 -0.0559
  118MOL0     C15454   5.229   2.710  10.575  0.3737 -0.2097  0.0478
  118MOL0     C15455   5.249   2.648  10.714 -0.4798 -0.5119  0.5765
  118MOL0     C15456   5.162   2.518  10.717  0.3610  0.2354  0.4375
  118MOL0     C15457   5.228   2.411  10.793 -0.2189  0.2295 -0.6613
  118MOL0     C15458   5.225   2.433  10.945  0.0362  0.3197  0.2726
  118MOL0     C15459   5.107   2.374  11.012  0.8351 -0.3230  0.3359
  118MOL0     C15460   5.100   2.403  11.157 -0.5256  0.1892  0.8125
  118MOL0     N15461   5.026   2.297  11.232  0.0708 -1.1933  0.2547
  118MOL0     C15462   4.908   2.310  11.301 -0.2499 -0.0174 -0.2281
  118MOL0     C15463   4.895   2.190  11.373 -0.5327 -0.8794 -0.5406
  118MOL0     C15464   4.792   2.158  11.470  0.2174  0.4982  0.6890
  118MOL0     C15465   4.785   2.254  11.593 -0.4238 -0.1669 -0.6802
  118MOL0     C15466   4.679   2.200  11.692 -0.0523  0.5167 -0.2343
  118MOL0     C15467   4.650   2.298  11.810 -0.4357 -0.7958  0.6393
  118MOL0     O15468   4.550   2.398  11.766 -0.2653  0.8936 -0.3174
  118MOL0     C15469   4.431   2.394  11.825  1.0245 -0.5036 -0.3699
  118MOL0     C15470   4.311   2.360  11.750 -0.0437  0.6544 -0.5053
  118MOL0     C15471   4.185   2.366  11.823 -0.7074  0.8419 -0.3998
  118MOL0     C15472   4.188   2.405  11.956  0.1719 -0.6588  0.0780
  118MOL0     C15473   4.056   2.388  12.020  0.0215  0.0927  0.1809
  118MOL0     O15474   3.939   2.378  11.941  0.2244 -0.8955  0.5866
  118MOL0     C15475   3.837   2.304  11.998 -0.4963 -0.5904 -1.1773
  118MOL0     C15476   3.711   2.344  11.990  0.4350 -0.0419  0.3682
  118MOL0     C15477   3.608   2.269  12.034  0.8967  0.8828  1.1278
  118MOL0     C15478   3.618   2.138  12.080  0.5067  0.6293  0.6316
  118MOL0     O15479   3.505   2.063  12.106  0.5465  0.2492  0.3052
  118MOL0     C15480   3.406   2.057  11.998  0.7277  0.4473 -0.4364
  118MOL0     C15481   3.318   1.933  12.032  0.3700 -0.5658 -0.0285
  118MOL0     C15482   3.241   1.883  11.897 -0.3945 -0.3532 -0.0638
  118MOL0     C15483   3.182   1.744  11.913 -0.1788  0.5435 -0.3322
  118MOL0     C15484   3.146   1.663  11.784 -0.5150 -0.1611  0.4071
  118MOL0     C15485   3.061   1.543  11.803 -0.4272 -0.0550 -0.2588
  118MOL0     C15486   2.917   1.584  11.849 -0.1260 -0.4636  0.0490
  118MOL0     C15487   2.829   1.462  11.870  0.1427  0.4455 -0.4245
  118MOL0    Cl15488   2.781   1.405  11.717  0.1836 -0.1664 -0.1865
  118MOL0     C15489   3.754   2.082  12.090 -0.9013  0.6552  0.0937
  118MOL0     C15490   3.859   2.177  12.059 -0.1976 -0.1302 -0.4339
  118MOL0     O15491   4.062   2.372  12.142  1.1062 -0.8641  0.2059
  118MOL0     C15492   4.301   2.437  12.026 -0.2123 -0.4294  0.5911
  118MOL0     C15493   4.423   2.427  11.964 -1.3255  0.7963 -0.0886
  118MOL0     N15494   5.010   2.116  11.340 -0.3289  0.9506 -0.8193
  118MOL0     N15495   5.093   2.185  11.267 -0.3787  0.1600  0.4647
  118MOL0     C15496   5.329   2.799  10.256  0.0497 -0.0525 -0.1510
  118MOL0     C15497   5.427   2.781  10.158 -0.0810 -0.1357  0.0224
  118MOL0     C15498   5.666   2.898   9.807 -0.1559 -0.0730  1.2996
  118MOL0     C15499   5.649   2.975   9.680 -0.5234  0.6160 -0.5308
  118MOL0     C15500   5.724   2.931   9.562  0.7846 -0.0171  0.6093
  118MOL0     C15501   5.815   2.833   9.567 -0.9778  0.1705 -0.1447
  118MOL0     O15502   5.885   2.815   9.455 -0.0225 -0.2400  0.2182
  118MOL0     C15503   5.977   2.705   9.447 -0.4077 -0.3153  0.1488
  118MOL0     C15504   5.993   2.639   9.304 -0.1243  0.0882 -0.1147
  118MOL0     C15505   5.864   2.598   9.236 -0.8919 -0.9710  1.0497
  118MOL0     C15506   5.803   2.484   9.313 -0.5046 -0.7821 -0.2070
  118MOL0     C15507   5.657   2.473   9.276  0.6960 -0.1710 -0.1086
  118MOL0     C15508   5.546   2.476   9.236 -0.2060  0.0889 -0.7248
  118MOL0     C15509   5.834   2.767   9.682 -0.9643  0.3034 -1.7282
  118MOL0     C15510   5.760   2.790   9.798 -0.8871  0.1826  0.2665
  118MOL0     H15511   5.643   3.037  10.251  0.2997 -0.7384  0.8035
  118MOL0     H15512   5.475   3.064  10.414 -0.1929  0.5702  0.8032
  118MOL0     H15513   5.211   2.918  10.635 -1.4093 -1.9472  0.5576
  118MOL0     H15514   5.379   2.873  10.606  0.2543 -1.0598  0.1693
  118MOL0     H15515   5.283   2.656  10.497 -1.1153 -0.9799 -0.4893
  118MOL0     H15516   5.127   2.701  10.538 -0.0546 -2.0017  1.4997
  118MOL0     H15517   5.218   2.715  10.795  0.3077 -0.5101  0.8825
  118MOL0     H15518   5.352   2.616  10.731 -0.7416 -2.1374 -0.6553
  118MOL0     H15519   5.061   2.530  10.755 -0.4387 -3.3940 -0.1430
  118MOL0     H15520   5.161   2.489  10.611  0.2911 -2.9679  1.2248
  118MOL0     H15521   5.334   2.399  10.769 -0.4342 -3.3839 -0.3652
  118MOL0     H15522   5.175   2.316  10.780 -1.7462  0.7517  1.2669
  118MOL0     H15523   5.228   2.540  10.967 -0.8211  0.1805  1.1245
  118MOL0     H15524   5.311   2.388  10.995  0.2556  1.0307  0.5493
  118MOL0     H15525   5.017   2.421  10.972  0.7682  0.5696  1.4688
  118MOL0     H15526   5.096   2.267  10.991  0.3406 -0.8898  3.0930
  118MOL0     H15527   5.060   2.502  11.183  0.9264  1.7464 -2.2821
  118MOL0     H15528   5.200   2.399  11.200 -0.4663  3.5222  1.2560
  118MOL0     H15529   4.859   2.406  11.311 -1.9411 -0.6942 -1.5160
  118MOL0     H15530   4.815   2.055  11.497  1.0311  0.7471  0.9628
  118MOL0     H15531   4.697   2.153  11.415  0.3132 -0.8538  0.6220
  118MOL0     H15532   4.755   2.358  11.576 -2.7314  0.1486  3.7052
  118MOL0     H15533   4.878   2.255  11.650 -1.6005 -0.1663  1.3438
  118MOL0     H15534   4.591   2.203  11.626 -0.3359  0.5853  0.1469
  118MOL0     H15535   4.698   2.098  11.726  1.6934 -0.2839 -3.1668
  118MOL0     H15536   4.733   2.348  11.861 -2.7579  0.0718  3.8774
  118MOL0     H15537   4.615   2.243  11.898 -2.0080  2.2315  2.0377
  118MOL0     H15538   4.327   2.306  11.657 -0.5396  1.4402 -1.0573
  118MOL0     H15539   4.092   2.350  11.769 -0.5634  4.2100 -1.9602
  118MOL0     H15540   3.695   2.447  11.959 -0.2434 -0.4811 -0.8209
  118MOL0     H15541   3.508   2.311  12.027  0.6282  0.4287  2.1126
  118MOL0     H15542   3.459   2.057  11.902 -1.4896  0.4887 -1.7296
  118MOL0     H15543   3.342   2.145  12.005  1.0136  0.7086 -0.9862
  118MOL0     H15544   3.246   1.955  12.111  1.1328 -2.6116  1.2888
  118MOL0     H15545   3.393   1.856  12.050  0.2532 -1.3112 -2.3733
  118MOL0     H15546   3.312   1.890  11.813 -0.3375  0.6787  0.0585
  118MOL0     H15547   3.173   1.965  11.870 -1.3035  0.5186  4.1973
  118MOL0     H15548   3.237   1.682  11.984 -2.0228 -3.3373 -2.0125
  118MOL0     H15549   3.086   1.763  11.963 -0.5357 -0.1838 -0.7205
  118MOL0     H15550   3.244   1.648  11.737  0.6173 -2.1665  3.1333
  118MOL0     H15551   3.100   1.728  11.709 -1.4304 -2.5239 -1.2032
  118MOL0     H15552   3.101   1.469  11.872 -1.8940  0.0493  0.7463
  118MOL0     H15553   3.047   1.480  11.714 -0.5137 -0.9618  0.3765
  118MOL0     H15554   2.932   1.626  11.949  0.4426  2.1721 -1.0716
  118MOL0     H15555   2.860   1.650  11.783  1.7242  2.1362  0.8932
  118MOL0     H15556   2.744   1.492  11.933 -0.1047 -2.3201  0.7160
  118MOL0     H15557   2.879   1.382  11.925 -1.7761 -0.3225  0.3180
  118MOL0     H15558   3.765   1.979  12.123  0.5433  1.7427  3.4013
  118MOL0     H15559   3.960   2.138  12.060 -0.8591 -1.9827 -1.3547
  118MOL0     H15560   4.305   2.479  12.126  1.2298  0.7808  0.0593
  118MOL0     H15561   4.517   2.454  12.010 -1.4355 -0.8409  1.1639
  118MOL0     H15562   5.251   2.724  10.267  1.1491 -1.1929  0.1478
  118MOL0     H15563   5.411   2.692  10.100 -2.2820 -0.0618  0.4313
  118MOL0     H15564   5.586   3.064   9.683  1.4493  2.0663  0.0945
  118MOL0     H15565   5.718   2.989   9.471  1.9705 -0.4875  0.2222
  118MOL0     H15566   5.938   2.626   9.513 -3.3279  0.6609 -0.2443
  118MOL0     H15567   6.080   2.738   9.465 -0.1291 -0.9746 -0.2181
  118MOL0     H15568   6.016   2.731   9.249  0.2479 -0.5403 -1.0197
  118MOL0     H15569   6.081   2.574   9.299  0.6573  1.0056  1.0675
  118MOL0     H15570   5.894   2.570   9.134 -0.1937 -0.5444  1.1301
  118MOL0     H15571   5.787   2.674   9.220 -0.1640 -0.6968 -1.6421
  118MOL0     H15572   5.850   2.389   9.286 -1.7786 -1.3635 -0.4212
  118MOL0     H15573   5.824   2.495   9.420 -1.3354 -0.3116 -0.0896
  118MOL0     H15574   5.466   2.465   9.166 -0.3495 -1.7080 -0.3303
  118MOL0     H15575   5.919   2.700   9.688 -0.3890  0.9932 -1.9733
  118MOL0     H15576   5.785   2.731   9.885  2.1915 -0.5531 -0.9929
  119MOL0     O15577   1.368   2.236   0.505  0.0686  0.0299  0.0562
  119MOL0     C15578   1.471   2.301   0.524 -0.9437  0.0574 -0.4775
  119MOL0     O15579   1.595   2.249   0.564  0.2536  0.3768 -0.7562
  119MOL0     C15580   1.597   2.115   0.603 -0.7975 -1.1629 -0.3432
  119MOL0     C15581   1.504   2.054   0.681 -0.5172  0.5616 -0.2997
  119MOL0     C15582   1.533   1.923   0.728 -0.5350 -0.1054  0.3407
  119MOL0     C15583   1.648   1.855   0.685  0.4237  0.1665 -0.1763
  119MOL0     O15584   1.666   1.727   0.723  0.4598 -0.5450  0.2738
  119MOL0     C15585   1.559   1.647   0.762 -0.1097 -0.0451  0.4106
  119MOL0     C15586   1.612   1.504   0.755 -0.0874 -0.7628  0.3758
  119MOL0     C15587   1.509   1.401   0.789  0.2330 -0.2338  1.0416
  119MOL0     C15588   1.551   1.255   0.755 -0.3817 -0.6666 -0.3436
  119MOL0     C15589   1.439   1.163   0.799  0.2204 -0.1266  0.7261
  119MOL0     C15590   1.444   1.006   0.798 -1.3278 -0.2381  0.1992
  119MOL0     C15591   1.318   0.955   0.867  0.1078 -0.1623  0.4416
  119MOL0     C15592   1.364   0.847   0.981 -0.0785  0.6077  0.3028
  119MOL0     N15593   1.239   0.806   1.057 -0.4982 -0.5124 -0.6032
  119MOL0     C15594   1.203   0.863   1.181 -0.1345  1.4922 -0.4976
  119MOL0     C15595   1.080   0.810   1.201 -0.4983 -0.6632 -0.4168
  119MOL0     C15596   1.002   0.863   1.309  0.0844 -0.8805 -0.1743
  119MOL0     C15597   0.990   1.013   1.318  0.3092  0.6126 -0.0235
  119MOL0     C15598   0.901   1.083   1.225 -0.2946 -0.5906  0.0879
  119MOL0     C15599   0.951   1.087   1.077  0.4132  0.9243  0.3716
  119MOL0     O15600   1.083   1.156   1.060 -0.7765  0.3752 -0.6631
  119MOL0     C15601   1.104   1.292   1.067 -1.2569 -0.6942 -0.0063
  119MOL0     C15602   1.238   1.338   1.088  0.2829  0.1703 -0.1793
  119MOL0     C15603   1.274   1.462   1.070  0.1171 -0.4606  0.3758
  119MOL0     C15604   1.170   1.566   1.055 -0.1281  1.3035  0.5488
  119MOL0     C15605   1.207   1.711   1.045  0.6956  0.4499  0.0945
  119MOL0     O15606   1.103   1.791   1.000  1.3871 -0.5300  0.5865
  119MOL0     C15607   1.137   1.921   1.016 -0.3357 -0.2297 -0.6041
  119MOL0     C15608   1.142   1.975   1.141  0.0339  0.7355  0.2443
  119MOL0     C15609   1.209   2.098   1.163  1.2261  0.3419  0.0252
  119MOL0     C15610   1.260   2.173   1.057  0.1842  1.3096  0.6813
  119MOL0     O15611   1.339   2.287   1.076  0.2162 -0.1007  0.4353
  119MOL0     C15612   1.476   2.267   1.059 -0.5221  0.9209  0.1049
  119MOL0     C15613   1.518   2.401   0.996  0.1645  0.5768 -0.9663
  119MOL0     C15614   1.659   2.433   1.020  0.2267 -0.2984  0.2904
  119MOL0     C15615   1.738   2.316   0.949 -0.9356 -0.0108 -0.2684
  119MOL0     C15616   1.881   2.363   0.926  0.4293  0.6200 -0.5588
  119MOL0     C15617   1.969   2.255   0.871 -0.3602  0.6226  0.1098
  119MOL0     C15618   2.122   2.285   0.885  0.3526  1.3588 -0.2557
  119MOL0     C15619   2.183   2.208   1.004 -0.4001 -0.6676  1.2421
  119MOL0    Cl15620   2.158   2.311   1.152 -0.7866 -0.1330  0.5798
  119MOL0     C15621   1.230   2.123   0.928 -1.1347 -0.2900 -0.0730
  119MOL0     C15622   1.180   1.997   0.905 -0.1051 -0.3107 -0.0851
  119MOL0     O15623   1.327   1.742   1.062 -0.2554  0.6142  0.2004
  119MOL0     C15624   1.039   1.522   1.052 -0.1709 -0.5956 -0.4307
  119MOL0     C15625   1.012   1.382   1.060 -0.5431 -0.1425  1.1204
  119MOL0     N15626   1.038   0.729   1.098 -0.9000 -0.1419  0.2659
  119MOL0     N15627   1.138   0.721   1.017  0.1406 -0.0097 -0.1878
  119MOL0     C15628   1.741   1.917   0.602 -0.0124  0.1648  0.3631
  119MOL0     C15629   1.718   2.048   0.579  0.2826  0.2907  0.1536
  119MOL0     C15630   1.476   2.440   0.487 -0.4740  0.6843 -0.5195
  119MOL0     C15631   1.586   2.522   0.503 -0.5523  0.7558 -0.0962
  119MOL0     C15632   1.583   2.657   0.469 -0.6115  0.5486 -0.0636
  119MOL0     C15633   1.465   2.710   0.406  0.2722  1.1056 -0.1851
  119MOL0     O15634   1.456   2.844   0.365  0.1481  0.4567  0.7326
  119MOL0     C15635   1.575   2.934   0.376  0.1073  0.6043 -0.5977
  119MOL0     C15636   1.539   3.083   0.348 -0.3065  0.8265  0.0436
  119MOL0     C15637   1.445   3.156   0.451 -0.4274 -0.0930  0.2894
  119MOL0     C15638   1.410   3.294   0.405  0.0217 -0.5290  1.3105
  119MOL0     C15639   1.385   3.374   0.528 -0.7402  1.0163 -0.0087
  119MOL0     C15640   1.384   3.422   0.635  0.4245 -0.0149 -0.5211
  119MOL0     C15641   1.364   2.618   0.376  0.5481  0.1328  0.0421
  119MOL0     C15642   1.367   2.490   0.415  0.6529  0.5050  0.1933
  119MOL0     H15643   1.413   2.099   0.719 -0.7091  2.7532 -3.0158
  119MOL0     H15644   1.462   1.872   0.792  1.3738 -2.9329  0.3738
  119MOL0     H15645   1.470   1.670   0.703 -1.2758 -0.6331  1.8653
  119MOL0     H15646   1.543   1.670   0.868  0.9424 -4.4820  1.7205
  119MOL0     H15647   1.704   1.485   0.810  1.6791 -0.2996 -2.2128
  119MOL0     H15648   1.640   1.484   0.651  0.0535  0.0683  0.2521
  119MOL0     H15649   1.408   1.425   0.753  0.7268  1.7558  0.8368
  119MOL0     H15650   1.492   1.393   0.897 -3.9782 -2.2024  0.4350
  119MOL0     H15651   1.564   1.242   0.647  0.4089 -4.8750  0.0883
  119MOL0     H15652   1.650   1.239   0.799  0.7595 -0.1377 -2.5531
  119MOL0     H15653   1.355   1.185   0.732 -0.0989  1.3820  1.5916
  119MOL0     H15654   1.405   1.179   0.901 -0.9836  0.6976  0.2150
  119MOL0     H15655   1.537   0.975   0.845  0.0768 -1.1185 -2.9318
  119MOL0     H15656   1.438   0.972   0.695  0.4789  0.0544 -0.0341
  119MOL0     H15657   1.264   1.031   0.924 -0.7619 -1.8936  2.0742
  119MOL0     H15658   1.251   0.918   0.789 -1.9689  0.6318  1.7548
  119MOL0     H15659   1.435   0.897   1.047 -0.2230 -0.0498  0.9609
  119MOL0     H15660   1.408   0.757   0.938  1.4783  1.0474  0.9110
  119MOL0     H15661   1.256   0.926   1.251 -1.4366  2.2353 -0.1512
  119MOL0     H15662   1.038   0.831   1.407  1.0492 -0.4933 -0.3969
  119MOL0     H15663   0.902   0.818   1.300  1.4212 -4.0768 -0.3329
  119MOL0     H15664   1.091   1.052   1.301  0.5224  0.1017  0.0382
  119MOL0     H15665   0.962   1.032   1.422  2.9031 -2.6086  1.4736
  119MOL0     H15666   0.801   1.040   1.220  0.0228 -1.1696 -1.6719
  119MOL0     H15667   0.884   1.180   1.274 -3.5112 -1.5956  1.2497
  119MOL0     H15668   0.881   1.130   1.005  0.4474 -1.4202 -1.1715
  119MOL0     H15669   0.963   0.983   1.046  3.3389  0.6244  2.0445
  119MOL0     H15670   1.324   1.272   1.084 -1.0469 -1.6210  0.0264
  119MOL0     H15671   1.378   1.494   1.070 -0.0389  0.0532 -0.0625
  119MOL0     H15672   1.103   1.911   1.220  1.6599  0.1739  0.6283
  119MOL0     H15673   1.226   2.124   1.267  3.1320 -1.6135  0.2800
  119MOL0     H15674   1.503   2.186   0.991  0.6337  1.4775 -0.1257
  119MOL0     H15675   1.528   2.255   1.154  0.5238 -2.7625 -0.7712
  119MOL0     H15676   1.468   2.474   1.060  1.4266 -1.1820  2.2149
  119MOL0     H15677   1.496   2.399   0.889  0.7801  2.9729 -1.2139
  119MOL0     H15678   1.690   2.438   1.125  0.9529  0.2519  0.0635
  119MOL0     H15679   1.685   2.525   0.967 -1.8144  0.6602  0.8553
  119MOL0     H15680   1.733   2.232   1.018  0.7272 -1.4999 -1.8527
  119MOL0     H15681   1.703   2.294   0.848  0.3452  1.0103 -0.9687
  119MOL0     H15682   1.916   2.387   1.027  1.4272  0.6284 -0.8970
  119MOL0     H15683   1.889   2.447   0.858  2.6650 -1.4409 -3.0657
  119MOL0     H15684   1.940   2.235   0.768  5.1548 -0.6263 -1.5325
  119MOL0     H15685   1.943   2.161   0.920 -0.9410  0.1926 -0.9909
  119MOL0     H15686   2.171   2.246   0.795 -1.5943 -2.3838  0.1063
  119MOL0     H15687   2.148   2.391   0.887  3.6731  0.6688 -0.7805
  119MOL0     H15688   2.289   2.192   0.983 -0.8127 -2.5842  0.3298
  119MOL0     H15689   2.145   2.106   1.017 -0.3941 -0.3760  4.3522
  119MOL0     H15690   1.259   2.181   0.840  1.0654 -1.2105 -0.0128
  119MOL0     H15691   1.171   1.948   0.809  1.1611  0.0166 -0.3868
  119MOL0     H15692   0.958   1.592   1.036 -1.0885 -1.1801  1.3635
  119MOL0     H15693   0.911   1.353   1.035 -0.6557  0.0807  1.3168
  119MOL0     H15694   1.825   1.855   0.574 -0.9476 -1.2162  0.5199
  119MOL0     H15695   1.785   2.108   0.519  0.4971 -0.6053 -0.5444
  119MOL0     H15696   1.677   2.487   0.551 -0.0812  2.3733  0.2605
  119MOL0     H15697   1.665   2.727   0.482 -1.0756  1.6390 -2.5451
  119MOL0     H15698   1.665   2.894   0.329 -0.3238 -0.7518 -0.3107
  119MOL0     H15699   1.595   2.935   0.484 -2.7066  3.1396  0.0365
  119MOL0     H15700   1.635   3.135   0.344  0.6325 -0.9077 -2.0163
  119MOL0     H15701   1.496   3.090   0.248 -1.7210  0.3541  0.5806
  119MOL0     H15702   1.514   3.166   0.536 -1.4778 -2.5481  1.5354
  119MOL0     H15703   1.360   3.100   0.491  1.6869 -2.0021  2.4962
  119MOL0     H15704   1.494   3.349   0.362  0.0279 -2.1326 -0.8849
  119MOL0     H15705   1.331   3.283   0.330  0.0668 -2.0917  1.4711
  119MOL0     H15706   1.379   3.443   0.740 -2.7758  0.2197 -0.6071
  119MOL0     H15707   1.281   2.653   0.315  1.0228  3.9339  1.3381
  119MOL0     H15708   1.295   2.421   0.372  3.3367 -2.0011 -0.5941
  120MOL0     O15709   7.979   1.419   1.934  0.1679  0.1617  0.4393
  120MOL0     C15710   8.001   1.491   2.024  0.3135 -1.3306  0.0715
  120MOL0     O15711   8.124   1.516   2.083  0.1679  0.3416 -0.8114
  120MOL0     C15712   8.248   1.459   2.044  0.8259 -0.2630 -0.5891
  120MOL0     C15713   8.285   1.427   1.911  0.6769 -0.1139  0.3673
  120MOL0     C15714   8.416   1.391   1.872 -1.3766  0.2700 -0.8799
  120MOL0     C15715   8.518   1.396   1.961 -1.0562 -0.4364  0.3316
  120MOL0     O15716   8.652   1.383   1.928  0.1176 -0.0169  0.9336
  120MOL0     C15717   8.699   1.496   1.848 -0.4598 -0.4047 -0.2494
  120MOL0     C15718   8.850   1.513   1.861  0.4941 -0.5517  0.2144
  120MOL0     C15719   8.892   1.615   1.760  0.5519 -0.7887 -0.3993
  120MOL0     C15720   9.033   1.677   1.800  0.3613  0.4641 -0.4863
  120MOL0     C15721   9.040   1.805   1.705  0.5751  0.9859  0.6575
  120MOL0     C15722   9.184   1.869   1.701 -0.1976  0.4707  1.3881
  120MOL0     C15723   9.260   1.872   1.839 -0.4709 -0.1103 -0.0061
  120MOL0     C15724   9.398   1.913   1.807 -0.3104  0.2707 -0.0771
  120MOL0     N15725   9.492   1.902   1.927 -0.3760  0.3078  0.2115
  120MOL0     C15726   9.467   1.945   2.053  0.3471  0.1209 -0.1120
  120MOL0     C15727   9.593   1.944   2.111 -0.5913 -0.8440 -0.0305
  120MOL0     C15728   9.616   2.010   2.243 -0.0811  0.4671  0.4501
  120MOL0     C15729   9.586   1.916   2.360  0.3440  0.3429  0.2881
  120MOL0     C15730   9.707   1.866   2.440  0.3689  0.5820  0.2232
  120MOL0     C15731   9.689   1.848   2.592 -0.9040 -0.5479  0.2084
  120MOL0     O15732   9.613   1.716   2.602  0.6986 -0.0118 -0.7645
  120MOL0     C15733   9.560   1.686   2.724 -0.2140  0.5824 -1.5223
  120MOL0     C15734   9.504   1.782   2.811 -0.6129 -0.4704 -0.0676
  120MOL0     C15735   9.465   1.754   2.938 -0.0555 -0.6534 -0.2565
  120MOL0     C15736   9.455   1.625   2.978 -0.3254 -0.3656 -0.1835
  120MOL0     C15737   9.430   1.597   3.117 -0.5523 -0.1111 -0.3254
  120MOL0     O15738   9.365   1.700   3.187  0.3613 -0.0196 -0.6177
  120MOL0     C15739   9.330   1.685   3.322 -0.0095  0.3064  0.3415
  120MOL0     C15740   9.307   1.804   3.398 -0.3513 -0.2899 -0.1373
  120MOL0     C15741   9.273   1.811   3.533  0.3995 -0.2587  0.4996
  120MOL0     C15742   9.235   1.689   3.596 -0.6251  0.7074  1.3024
  120MOL0     O15743   9.197   1.677   3.717  0.2841 -1.1246 -0.7170
  120MOL0     C15744   9.188   1.802   3.802 -1.1076 -1.0152 -0.5146
  120MOL0     C15745   9.140   1.775   3.946 -0.9767 -1.2003  0.5611
  120MOL0     C15746   9.159   1.887   4.055  0.2944 -0.9212 -0.7570
  120MOL0     C15747   9.106   2.020   4.005  0.1678  1.1254  0.4085
  120MOL0     C15748   9.122   2.128   4.109 -1.0139 -0.4324  0.0382
  120MOL0     C15749   9.073   2.269   4.067  0.4140 -0.2160 -1.1778
  120MOL0     C15750   8.932   2.264   4.003  0.3554  1.2254  0.2612
  120MOL0     C15751   8.845   2.380   4.003 -0.4477 -0.6533 -1.1074
  120MOL0    Cl15752   8.804   2.434   4.181 -0.0819 -0.2468  0.2591
  120MOL0     C15753   9.250   1.571   3.528  0.1846  0.6838  1.2612
  120MOL0     C15754   9.288   1.565   3.388  0.4281  0.1412  0.1322
  120MOL0     O15755   9.492   1.503   3.168 -0.4352  0.1329  0.3016
  120MOL0     C15756   9.497   1.516   2.891  0.1365 -0.1902  0.0524
  120MOL0     C15757   9.555   1.553   2.769  0.1138 -0.6757  0.1306
  120MOL0     N15758   9.686   1.914   2.017 -0.4465  0.5117 -0.2455
  120MOL0     N15759   9.630   1.884   1.910 -0.5744  0.4283 -0.1837
  120MOL0     C15760   8.490   1.425   2.094 -0.7890 -0.6151  0.5850
  120MOL0     C15761   8.356   1.457   2.132  0.0906  0.6103 -0.2036
  120MOL0     C15762   7.887   1.556   2.092  0.1711  0.0145  0.9330
  120MOL0     C15763   7.903   1.617   2.215 -0.0987 -0.0852 -0.6353
  120MOL0     C15764   7.790   1.671   2.279  0.3344 -1.0403  0.2947
  120MOL0     C15765   7.661   1.662   2.228  0.4473  0.2410  1.0567
  120MOL0     O15766   7.556   1.745   2.265  0.1824 -0.0450  0.3025
  120MOL0     C15767   7.589   1.863   2.340 -0.1584  0.3588  0.5666
  120MOL0     C15768   7.480   1.968   2.294 -0.2076 -0.0349  0.8588
  120MOL0     C15769   7.338   1.940   2.350 -0.3417  0.2075  0.0111
  120MOL0     C15770   7.230   2.016   2.269 -0.5855  0.2996  0.2060
  120MOL0     C15771   7.096   1.993   2.320  0.0034  1.0130  0.9667
  120MOL0     C15772   6.986   1.957   2.357  0.3782  0.5961  0.3818
  120MOL0     C15773   7.642   1.588   2.107 -0.9392  0.4768 -0.0308
  120MOL0     C15774   7.757   1.549   2.034 -0.0023  0.5920  0.2120
  120MOL0     H15775   8.211   1.429   1.833 -1.3242 -0.8598  2.1392
  120MOL0     H15776   8.443   1.381   1.768  2.2493 -1.1840  0.0744
  120MOL0     H15777   8.654   1.592   1.873 -0.2887 -0.8028  1.7696
  120MOL0     H15778   8.675   1.474   1.743  0.4963  1.2165 -0.8471
  120MOL0     H15779   8.910   1.422   1.845  0.4918 -0.3333 -1.1592
  120MOL0     H15780   8.877   1.536   1.965  2.0550 -0.2938 -0.2101
  120MOL0     H15781   8.815   1.694   1.762  2.3627  1.0425  0.6826
  120MOL0     H15782   8.886   1.570   1.661 -0.6133 -2.2028  0.2715
  120MOL0     H15783   9.039   1.713   1.903 -1.0461  0.4162 -0.3641
  120MOL0     H15784   9.114   1.607   1.780  0.9062  1.3604 -1.5171
  120MOL0     H15785   8.956   1.872   1.726 -0.7772 -0.2432 -0.6547
  120MOL0     H15786   9.026   1.771   1.602 -2.3997  5.9057 -0.9453
  120MOL0     H15787   9.169   1.967   1.654 -0.0042 -1.1308 -2.3545
  120MOL0     H15788   9.237   1.801   1.634 -2.1480 -1.1172  1.3881
  120MOL0     H15789   9.216   1.948   1.904  2.5066  1.6236  0.1566
  120MOL0     H15790   9.253   1.774   1.888 -3.6646  0.3524  0.7195
  120MOL0     H15791   9.389   2.018   1.780 -1.2095  0.0085 -0.8183
  120MOL0     H15792   9.439   1.864   1.718 -0.4179 -2.6417  1.3303
  120MOL0     H15793   9.366   1.959   2.092 -0.5081  3.4373 -3.0001
  120MOL0     H15794   9.542   2.089   2.257 -1.0689 -0.8671  3.6780
  120MOL0     H15795   9.717   2.053   2.251  0.1382 -0.0831  0.7972
  120MOL0     H15796   9.519   1.837   2.324  0.1396 -0.3032  1.9858
  120MOL0     H15797   9.530   1.973   2.434 -1.2832 -1.0941  0.2258
  120MOL0     H15798   9.740   1.774   2.390 -2.4603  0.9384 -2.5985
  120MOL0     H15799   9.798   1.925   2.434  0.9877 -0.3674 -0.0159
  120MOL0     H15800   9.634   1.936   2.626  0.9845  0.3864  1.0079
  120MOL0     H15801   9.791   1.832   2.630  0.0241  3.2113 -0.3555
  120MOL0     H15802   9.492   1.886   2.785 -1.8125 -0.4150  0.6124
  120MOL0     H15803   9.437   1.840   2.999  0.7264 -1.0735  0.7320
  120MOL0     H15804   9.318   1.895   3.342  1.3033 -1.7262 -2.2870
  120MOL0     H15805   9.268   1.911   3.575  2.5097 -0.2296  0.7891
  120MOL0     H15806   9.125   1.872   3.746 -1.2503 -0.4649  0.3251
  120MOL0     H15807   9.289   1.841   3.819 -0.7612 -1.8330 -0.6653
  120MOL0     H15808   9.187   1.683   3.984  0.3634  0.0900  2.2020
  120MOL0     H15809   9.036   1.744   3.932 -1.8692  1.6311  0.4438
  120MOL0     H15810   9.260   1.894   4.096 -0.5114 -1.0116  1.3149
  120MOL0     H15811   9.097   1.864   4.141  1.1521  1.3103  0.5407
  120MOL0     H15812   9.155   2.054   3.913  2.4900 -1.7904  0.4435
  120MOL0     H15813   9.004   2.003   3.970 -0.2035  0.3841  1.8277
  120MOL0     H15814   9.225   2.141   4.143 -0.1476 -3.0910 -1.2572
  120MOL0     H15815   9.058   2.109   4.195  1.3481 -1.8340  1.5840
  120MOL0     H15816   9.143   2.316   3.998  0.2992  2.4103  0.3590
  120MOL0     H15817   9.071   2.331   4.157  3.0066 -0.3443 -0.9771
  120MOL0     H15818   8.932   2.233   3.898 -1.7507 -0.4955  0.6819
  120MOL0     H15819   8.874   2.183   4.048  1.1574 -0.3223 -1.3795
  120MOL0     H15820   8.755   2.343   3.954 -1.8893  0.9014  0.1993
  120MOL0     H15821   8.888   2.462   3.945  1.2994 -0.8500 -0.1543
  120MOL0     H15822   9.214   1.480   3.576 -1.5455  0.1067 -0.9646
  120MOL0     H15823   9.275   1.470   3.338  1.3620 -0.0823  0.2913
  120MOL0     H15824   9.499   1.412   2.921  2.9459  0.6441  3.4034
  120MOL0     H15825   9.592   1.470   2.709  0.1260 -1.0718  0.6847
  120MOL0     H15826   8.573   1.434   2.164 -1.2589 -1.5035  1.2825
  120MOL0     H15827   8.334   1.486   2.234  0.1547  2.3389 -0.6459
  120MOL0     H15828   8.003   1.617   2.257 -0.3799 -6.4115  0.9648
  120MOL0     H15829   7.818   1.727   2.367  1.8473  3.1953 -2.5398
  120MOL0     H15830   7.690   1.898   2.316  0.1956 -0.3058  1.0408
  120MOL0     H15831   7.590   1.842   2.448 -3.1768  0.5356  0.6948
  120MOL0     H15832   7.515   2.067   2.326  2.5795 -0.2190 -1.1946
  120MOL0     H15833   7.476   1.975   2.185 -1.3249 -1.0380  0.8176
  120MOL0     H15834   7.329   1.992   2.446  2.2302 -1.3283  1.1891
  120MOL0     H15835   7.317   1.834   2.367  2.6148 -0.4518  0.0950
  120MOL0     H15836   7.261   2.119   2.285  1.5975  0.1023 -2.0925
  120MOL0     H15837   7.235   1.997   2.161  0.9113  0.2855  0.2531
  120MOL0     H15838   6.884   1.946   2.388 -0.1216 -1.7977 -1.8146
  120MOL0     H15839   7.548   1.580   2.054 -1.0352  2.5799 -0.2544
  120MOL0     H15840   7.739   1.512   1.934 -2.2754  1.6859  0.1645
  121MOL0     O15841   6.018   0.782   2.274  0.3512 -0.6510 -0.8757
  121MOL0     C15842   6.064   0.888   2.310 -0.2969 -0.8481 -0.4324
  121MOL0     O15843   6.002   1.011   2.303  0.4034  0.3391 -0.1449
  121MOL0     C15844   5.868   1.022   2.261 -0.2013  0.6053  0.1501
  121MOL0     C15845   5.840   0.976   2.134  0.2340 -0.4079 -1.0159
  121MOL0     C15846   5.702   0.999   2.096  0.7327 -0.0917 -0.2546
  121MOL0     C15847   5.607   1.074   2.176 -0.5105  0.5765 -0.4031
  121MOL0     O15848   5.470   1.093   2.146 -0.0845  0.6324 -0.6095
  121MOL0     C15849   5.417   1.018   2.035  0.4022 -0.2711 -0.2370
  121MOL0     C15850   5.277   1.088   2.014  0.7298 -0.3619 -0.3469
  121MOL0     C15851   5.211   1.028   1.887 -0.4517 -0.1315  0.1112
  121MOL0     C15852   5.084   1.100   1.853  0.2694  0.1157 -0.5796
  121MOL0     C15853   4.964   1.060   1.947 -1.4475  0.1998 -0.9190
  121MOL0     C15854   4.833   1.104   1.879 -0.3448  0.8978 -0.5952
  121MOL0     C15855   4.717   1.077   1.976 -0.2493  0.0083  0.4009
  121MOL0     C15856   4.582   1.089   1.898 -0.1130 -0.1681  0.3520
  121MOL0     N15857   4.545   0.961   1.840 -0.1601 -0.6267 -1.5957
  121MOL0     C15858   4.525   0.847   1.917  0.5016  0.1037 -0.3858
  121MOL0     C15859   4.469   0.758   1.824 -0.2570  0.7523 -0.3624
  121MOL0     C15860   4.423   0.619   1.869  0.4820 -0.6314  0.8849
  121MOL0     C15861   4.266   0.620   1.892  0.8130  0.5879 -0.4575
  121MOL0     C15862   4.248   0.489   1.976 -0.1297 -0.7915  0.2083
  121MOL0     C15863   4.233   0.358   1.898  0.3627  0.0493 -0.4560
  121MOL0     O15864   4.100   0.338   1.842  0.1123  0.1887  0.1455
  121MOL0     C15865   4.086   0.251   1.739 -0.0133 -0.4332  0.3318
  121MOL0     C15866   3.960   0.206   1.718 -0.3954  0.2745 -0.1321
  121MOL0     C15867   3.937   0.111   1.613 -1.1486 -1.0015  0.1255
  121MOL0     C15868   4.041   0.091   1.521  0.2289  1.4580  0.2543
  121MOL0     C15869   4.025  -0.001   1.407 -0.2752  0.7727 -0.4197
  121MOL0     O15870   3.922   0.025   1.319 -0.0631  0.5590 -0.5435
  121MOL0     C15871   3.901  -0.068   1.219  0.3785 -0.2862 -0.0801
  121MOL0     C15872   3.894  -0.024   1.091 -0.4918 -0.7357 -0.1139
  121MOL0     C15873   3.858  -0.109   0.985  0.1426  0.6654  0.2751
  121MOL0     C15874   3.817  -0.247   1.008  0.3707 -0.5420 -0.1794
  121MOL0     O15875   3.782  -0.326   0.906 -0.6538  0.0454 -0.0167
  121MOL0     C15876   3.706  -0.266   0.800 -0.9269 -0.7792 -0.2753
  121MOL0     C15877   3.564  -0.275   0.859  0.5258 -0.4182  1.2982
  121MOL0     C15878   3.458  -0.217   0.761 -0.1007 -0.0646  0.5214
  121MOL0     C15879   3.430  -0.296   0.631 -0.5011 -1.0407  0.9975
  121MOL0     C15880   3.336  -0.404   0.660 -0.8414  0.0823 -0.1254
  121MOL0     C15881   3.331  -0.525   0.570 -0.5053  0.6939 -0.6858
  121MOL0     C15882   3.287  -0.512   0.423 -0.6239 -0.4461  0.2249
  121MOL0     C15883   3.365  -0.586   0.313 -0.0095  0.0550 -0.4055
  121MOL0    Cl15884   3.520  -0.514   0.275 -0.5145 -0.1059 -0.2665
  121MOL0     C15885   3.815  -0.284   1.147 -0.5475 -1.1881  0.8971
  121MOL0     C15886   3.861  -0.199   1.246  0.8372  0.5451  0.3220
  121MOL0     O15887   4.106  -0.090   1.402 -0.5119 -0.7415  0.1317
  121MOL0     C15888   4.161   0.154   1.537  0.5239 -0.0927 -0.1797
  121MOL0     C15889   4.185   0.228   1.648 -0.1099 -0.5327 -0.2673
  121MOL0     N15890   4.446   0.813   1.704  0.2127 -0.4298 -0.9110
  121MOL0     N15891   4.495   0.932   1.713  0.3029  0.3376  0.2003
  121MOL0     C15892   5.647   1.118   2.304 -0.5759 -0.2074  0.8671
  121MOL0     C15893   5.786   1.102   2.336  0.9584 -0.2922 -0.2754
  121MOL0     C15894   6.208   0.893   2.363 -0.2480 -0.2287  0.0602
  121MOL0     C15895   6.300   0.789   2.342 -0.1066 -0.4203 -0.6661
  121MOL0     C15896   6.428   0.786   2.394  0.8382  0.3570  0.2254
  121MOL0     C15897   6.472   0.893   2.457 -0.8415 -0.4151  0.3464
  121MOL0     O15898   6.603   0.896   2.508 -0.4717  0.2160 -0.3554
  121MOL0     C15899   6.650   1.022   2.557  0.1090  0.5264  0.9609
  121MOL0     C15900   6.801   1.021   2.584 -0.4166  0.6156 -0.4293
  121MOL0     C15901   6.893   1.071   2.466  0.0071  0.6940 -0.3531
  121MOL0     C15902   6.936   0.947   2.382  0.1445 -0.5403  0.1409
  121MOL0     C15903   7.026   0.985   2.279 -0.5648 -0.1403 -0.4539
  121MOL0     C15904   7.104   1.011   2.192 -1.0205  0.7716  0.0338
  121MOL0     C15905   6.385   0.997   2.492  0.0172 -0.1347 -0.8857
  121MOL0     C15906   6.249   0.998   2.449  0.3789  0.6978 -1.0707
  121MOL0     H15907   5.915   0.914   2.086  0.7505 -0.9905  0.4697
  121MOL0     H15908   5.668   0.957   2.003  0.6186 -0.9910  0.1791
  121MOL0     H15909   5.413   0.914   2.066 -0.2146 -0.1787  0.0178
  121MOL0     H15910   5.470   1.021   1.939 -0.3251 -4.2251 -0.9408
  121MOL0     H15911   5.287   1.196   1.997  0.5702  0.6262  4.5165
  121MOL0     H15912   5.223   1.076   2.108  4.7963  0.7263  2.3698
  121MOL0     H15913   5.204   0.919   1.895 -0.6226 -0.1314 -0.0436
  121MOL0     H15914   5.282   1.051   1.807  0.0141 -2.1449 -0.0986
  121MOL0     H15915   5.108   1.205   1.835  1.1705 -0.2259 -1.5228
  121MOL0     H15916   5.057   1.063   1.754  2.7121 -2.1274 -0.5299
  121MOL0     H15917   4.978   1.099   2.048  2.9122  3.5462 -2.5160
  121MOL0     H15918   4.964   0.951   1.952 -0.0794  0.1890 -0.7245
  121MOL0     H15919   4.822   1.041   1.790 -1.0132  0.7870 -0.4436
  121MOL0     H15920   4.840   1.211   1.857  0.0914  1.5808  2.4229
  121MOL0     H15921   4.743   0.985   2.030  1.6450 -1.0528 -2.1460
  121MOL0     H15922   4.714   1.148   2.059  0.2209 -1.8603  2.1038
  121MOL0     H15923   4.587   1.167   1.821 -0.1181 -0.6999 -0.1907
  121MOL0     H15924   4.503   1.119   1.968 -1.4112  0.0583 -1.1524
  121MOL0     H15925   4.557   0.830   2.019  1.2045  1.0791 -0.4310
  121MOL0     H15926   4.486   0.589   1.954 -0.4886 -0.6485  1.6165
  121MOL0     H15927   4.448   0.548   1.790  0.3662 -0.3970  0.6358
  121MOL0     H15928   4.199   0.613   1.806 -0.0987  4.5178 -0.2654
  121MOL0     H15929   4.236   0.703   1.957 -2.9904 -1.0140  0.0813
  121MOL0     H15930   4.329   0.474   2.048  1.3264  2.2002 -0.6249
  121MOL0     H15931   4.157   0.491   2.035 -0.1064 -1.5467  0.2738
  121MOL0     H15932   4.263   0.281   1.970 -1.1003  0.0516  0.2033
  121MOL0     H15933   4.315   0.349   1.826  1.7604  2.2663  0.7367
  121MOL0     H15934   3.878   0.234   1.784  0.9503 -1.8545  2.6839
  121MOL0     H15935   3.837   0.073   1.597 -0.9516 -1.7051  0.5584
  121MOL0     H15936   3.934   0.076   1.078  0.7045 -1.0373  1.0473
  121MOL0     H15937   3.850  -0.068   0.885 -1.6995 -1.1400 -0.3985
  121MOL0     H15938   3.730  -0.330   0.714 -0.7056 -1.1724  0.0796
  121MOL0     H15939   3.720  -0.162   0.766 -2.4392 -0.9277 -1.5005
  121MOL0     H15940   3.544  -0.215   0.948 -2.9755  1.8532 -0.7962
  121MOL0     H15941   3.545  -0.382   0.871 -2.1024 -0.1234  0.3409
  121MOL0     H15942   3.490  -0.115   0.739 -2.6395  1.1630  2.0115
  121MOL0     H15943   3.366  -0.183   0.809 -0.5515  0.2372 -0.5162
  121MOL0     H15944   3.387  -0.220   0.566 -3.5530  2.2638  6.1462
  121MOL0     H15945   3.522  -0.334   0.585 -0.9427 -2.0995  0.9513
  121MOL0     H15946   3.238  -0.357   0.654 -0.4202  0.8425 -2.2028
  121MOL0     H15947   3.351  -0.451   0.757 -0.3527 -0.9711 -0.6958
  121MOL0     H15948   3.267  -0.604   0.611 -0.9221  0.4314 -1.7966
  121MOL0     H15949   3.433  -0.564   0.574 -0.6324  0.3781 -0.4494
  121MOL0     H15950   3.180  -0.527   0.406 -0.5318  0.7278 -1.6739
  121MOL0     H15951   3.308  -0.407   0.397 -3.1911  0.1483  0.2943
  121MOL0     H15952   3.291  -0.586   0.232 -0.3038  0.9172 -0.1510
  121MOL0     H15953   3.383  -0.687   0.351  1.9758  0.8319  0.8844
  121MOL0     H15954   3.784  -0.387   1.164 -1.0022 -1.8353 -2.9392
  121MOL0     H15955   3.854  -0.228   1.351 -0.6834  0.7695  0.3134
  121MOL0     H15956   4.244   0.138   1.468  1.1851 -1.9087  0.9751
  121MOL0     H15957   4.291   0.245   1.666  0.0529 -0.2902 -1.3785
  121MOL0     H15958   5.576   1.177   2.360  0.1973 -2.2130  4.2591
  121MOL0     H15959   5.828   1.149   2.424  1.1744 -2.3465  0.7704
  121MOL0     H15960   6.268   0.707   2.279 -0.9990 -0.6400  0.0614
  121MOL0     H15961   6.497   0.704   2.380  1.2215  1.1369 -3.3066
  121MOL0     H15962   6.586   1.056   2.639 -2.5711  3.9618 -2.2080
  121MOL0     H15963   6.636   1.098   2.480  0.8765  1.2383  1.5056
  121MOL0     H15964   6.823   1.096   2.660  0.3959 -1.4727  1.5128
  121MOL0     H15965   6.822   0.926   2.634 -0.1883  0.7043 -0.3548
  121MOL0     H15966   6.983   1.118   2.507 -0.3343  0.7905  0.3083
  121MOL0     H15967   6.838   1.147   2.410  4.0483  2.8314 -1.8256
  121MOL0     H15968   6.982   0.871   2.446  0.8417  1.5998  2.3321
  121MOL0     H15969   6.847   0.901   2.337 -0.8598  0.5487  0.9628
  121MOL0     H15970   7.168   1.044   2.112  0.2388  4.1471  2.2514
  121MOL0     H15971   6.417   1.083   2.550 -2.7537  0.6623 -0.3455
  121MOL0     H15972   6.167   1.065   2.472 -0.7156  0.7021 -4.3951
  122MOL0     O15973   0.757   3.529  10.133  0.4758  0.1032 -0.3651
  122MOL0     C15974   0.823   3.451  10.055 -1.0053  0.0535 -0.1502
  122MOL0     O15975   0.843   3.309  10.081  0.1652  0.1043  0.1755
  122MOL0     C15976   0.765   3.250  10.170 -0.9339 -0.0944 -0.0597
  122MOL0     C15977   0.756   3.283  10.304  0.3278  0.5389 -0.3531
  122MOL0     C15978   0.669   3.211  10.383  0.0620  0.4636 -0.4235
  122MOL0     C15979   0.611   3.086  10.342  0.0606 -0.1009 -0.4204
  122MOL0     O15980   0.535   3.016  10.435 -0.0610  0.5505  0.1660
  122MOL0     C15981   0.398   3.002  10.395  0.6887  0.1746  1.2048
  122MOL0     C15982   0.365   2.859  10.339  0.2309  0.1806  0.3819
  122MOL0     C15983   0.383   2.746  10.447 -0.0916  0.0420 -0.1480
  122MOL0     C15984   0.308   2.631  10.384 -0.0023 -0.3469  0.2529
  122MOL0     C15985   0.270   2.528  10.485  0.2298  0.5359  0.9154
  122MOL0     C15986   0.389   2.472  10.562 -0.2619 -0.2530  1.7882
  122MOL0     C15987   0.354   2.389  10.684 -0.8646  0.3270 -0.2717
  122MOL0     C15988   0.471   2.309  10.741  1.1064  0.0298  0.5302
  122MOL0     N15989   0.412   2.209  10.834 -0.0113  0.0409  1.0777
  122MOL0     C15990   0.363   2.235  10.958  0.5290  0.2894 -0.0444
  122MOL0     C15991   0.307   2.118  10.998 -0.1855 -0.0011  0.1607
  122MOL0     C15992   0.243   2.077  11.126  0.3468 -0.9931 -0.2319
  122MOL0     C15993   0.085   2.086  11.109 -0.0233  0.3477 -0.2000
  122MOL0     C15994  -0.013   2.059  11.225 -0.0381 -0.3849 -0.5467
  122MOL0     C15995   0.022   2.140  11.356  0.0577 -1.1500  0.1905
  122MOL0     O15996   0.052   2.275  11.324  0.3604  1.0683  0.4898
  122MOL0     C15997   0.056   2.350  11.440 -0.5503 -0.0085  0.2693
  122MOL0     C15998   0.179   2.356  11.519  0.1749  0.1085  1.1870
  122MOL0     C15999   0.171   2.427  11.635  0.2574  1.0321  0.1603
  122MOL0     C16000   0.060   2.492  11.674  0.6355 -0.4487  0.0329
  122MOL0     C16001   0.053   2.554  11.803 -0.0632  0.4536  0.9066
  122MOL0     O16002  -0.070   2.589  11.859 -1.1090  0.1525 -0.3145
  122MOL0     C16003  -0.073   2.678  11.969 -0.6826 -0.1335  0.8300
  122MOL0     C16004  -0.040   2.645  12.101 -0.5111 -0.1794 -0.1896
  122MOL0     C16005  -0.038   2.742  12.203 -0.1397  0.6558 -0.0083
  122MOL0     C16006  -0.080   2.876  12.182  0.1611  0.8686  0.6164
  122MOL0     O16007  -0.080   2.979  12.275  0.5989  0.6387  0.8645
  122MOL0     C16008  -0.035   2.952  12.411 -0.3652  0.7352 -0.0656
  122MOL0     C16009  -0.125   2.870  12.489  0.5611 -0.6230  0.7348
  122MOL0     C16010  -0.044   2.790  12.597 -0.3864 -0.0478  0.2709
  122MOL0     C16011  -0.030   2.869  12.733  0.7416  0.6575 -0.8380
  122MOL0     C16012   0.064   2.783  12.831  0.5528 -0.3939 -0.1465
  122MOL0     C16013   0.073   2.865  12.958 -0.3805  0.1514  0.2655
  122MOL0     C16014   0.135   2.775  13.070  0.5172 -0.4367  0.8677
  122MOL0     C16015   0.287   2.796  13.053  0.9968 -0.2261 -0.7834
  122MOL0    Cl16016   0.331   2.646  12.955 -0.0662 -0.2179 -0.1708
  122MOL0     C16017  -0.120   2.902  12.049 -0.0941  0.6912 -0.0681
  122MOL0     C16018  -0.107   2.809  11.944  0.9288 -0.1036  0.1358
  122MOL0     O16019   0.162   2.575  11.860  0.2122 -1.0947  0.0895
  122MOL0     C16020  -0.055   2.492  11.591 -0.4015 -0.6368  0.5561
  122MOL0     C16021  -0.057   2.421  11.477  0.3520 -0.9849 -0.6772
  122MOL0     N16022   0.328   2.022  10.893 -0.4826  0.0175 -0.5084
  122MOL0     N16023   0.380   2.083  10.793  0.0309  0.4976 -0.1243
  122MOL0     C16024   0.635   3.046  10.211 -1.1525 -0.7243 -0.2408
  122MOL0     C16025   0.717   3.129  10.131 -0.5638 -0.4407  0.2038
  122MOL0     C16026   0.877   3.503   9.921  0.2556 -0.6104  0.2813
  122MOL0     C16027   0.949   3.422   9.836  1.3515 -0.0963  0.8489
  122MOL0     C16028   0.985   3.469   9.705  0.1690 -0.2434  0.5409
  122MOL0     C16029   0.951   3.596   9.660  0.5041 -1.2958  0.1238
  122MOL0     O16030   1.009   3.651   9.547 -0.1806 -1.7266  0.2458
  122MOL0     C16031   1.004   3.584   9.422 -0.7752  0.0385  0.6241
  122MOL0     C16032   1.052   3.668   9.309  1.0572 -0.5027  1.4665
  122MOL0     C16033   1.024   3.604   9.170  0.0768 -0.2359 -0.8211
  122MOL0     C16034   1.125   3.657   9.069  0.8037 -0.2595  0.4429
  122MOL0     C16035   1.261   3.603   9.090  0.0206 -0.4140 -0.3072
  122MOL0     C16036   1.368   3.563   9.102 -0.0637  0.3600  1.0233
  122MOL0     C16037   0.876   3.675   9.742  0.1306 -0.1241  0.4787
  122MOL0     C16038   0.839   3.632   9.869 -0.5619 -0.3647 -0.6933
  122MOL0     H16039   0.825   3.354  10.349  2.1338 -0.8069 -0.9158
  122MOL0     H16040   0.633   3.255  10.476 -3.6283  1.3799 -2.1054
  122MOL0     H16041   0.365   3.078  10.323 -2.1058 -1.3351  0.7820
  122MOL0     H16042   0.350   3.011  10.493  2.7781 -1.3751  2.4548
  122MOL0     H16043   0.427   2.822  10.257  0.3110  0.5025  0.2956
  122MOL0     H16044   0.267   2.869  10.291  0.6922 -3.8142 -1.8275
  122MOL0     H16045   0.334   2.764  10.543  1.4603  0.0296  0.6657
  122MOL0     H16046   0.489   2.722  10.456  0.4897  2.3834 -0.0171
  122MOL0     H16047   0.226   2.660  10.318 -0.9205  0.9146  1.8881
  122MOL0     H16048   0.378   2.589  10.311 -0.8608 -1.4001  0.0121
  122MOL0     H16049   0.230   2.445  10.426  0.2901  1.1407  0.0069
  122MOL0     H16050   0.186   2.562  10.545  0.2213 -0.2114  1.3329
  122MOL0     H16051   0.441   2.556  10.609 -0.5502  0.4225  0.9380
  122MOL0     H16052   0.449   2.410  10.493 -2.9597 -0.8598 -0.1772
  122MOL0     H16053   0.312   2.451  10.763 -2.9370  0.3125 -1.2948
  122MOL0     H16054   0.272   2.322  10.658 -0.5741  0.0300 -0.4338
  122MOL0     H16055   0.541   2.377  10.791  2.4027  0.3657 -1.6188
  122MOL0     H16056   0.533   2.267  10.662  1.5461 -2.0224  1.8811
  122MOL0     H16057   0.345   2.324  11.017  2.8439 -0.5750  2.1549
  122MOL0     H16058   0.278   2.146  11.204 -2.0349  0.0884 -0.0310
  122MOL0     H16059   0.272   1.973  11.145  0.4038 -0.7492  1.1487
  122MOL0     H16060   0.059   2.023  11.024 -1.4780  1.2667 -0.4861
  122MOL0     H16061   0.056   2.186  11.075  0.2537  1.1295  1.7708
  122MOL0     H16062  -0.120   2.072  11.206 -0.5818 -1.2214  1.7126
  122MOL0     H16063  -0.001   1.954  11.253 -3.9241 -0.2329  2.6534
  122MOL0     H16064   0.099   2.095  11.418 -0.0802 -1.0518  0.4326
  122MOL0     H16065  -0.069   2.151  11.416  1.3229  2.4710  1.6935
  122MOL0     H16066   0.263   2.305  11.472 -0.9825 -0.2137 -0.6312
  122MOL0     H16067   0.260   2.414  11.696 -0.3325  0.5249  0.9283
  122MOL0     H16068  -0.010   2.542  12.117  2.3588  0.3655 -1.4183
  122MOL0     H16069   0.014   2.715  12.295 -1.8703  2.9929  1.8023
  122MOL0     H16070  -0.021   3.047  12.464  0.0606  0.3426  0.5263
  122MOL0     H16071   0.066   2.911  12.400 -0.2838  1.2250 -1.4013
  122MOL0     H16072  -0.156   2.785  12.426  4.8770 -2.0672  0.1831
  122MOL0     H16073  -0.199   2.933  12.537  2.0276  2.0307 -0.2743
  122MOL0     H16074   0.049   2.746  12.559 -0.0538 -0.8019  1.8548
  122MOL0     H16075  -0.106   2.702  12.615 -1.5933 -0.0650 -3.2699
  122MOL0     H16076   0.010   2.971  12.732  1.6939  0.3076 -0.2839
  122MOL0     H16077  -0.129   2.878  12.779 -0.1143 -3.9928 -1.3241
  122MOL0     H16078   0.162   2.762  12.788 -0.0801 -2.6365 -0.6353
  122MOL0     H16079   0.015   2.687  12.851  1.7504 -1.9123 -3.6416
  122MOL0     H16080  -0.025   2.903  12.987 -1.0878 -1.1481 -0.3215
  122MOL0     H16081   0.136   2.950  12.931  0.0369 -0.8204 -2.1275
  122MOL0     H16082   0.102   2.823  13.163  0.6029  2.1319 -0.3462
  122MOL0     H16083   0.110   2.668  13.078  0.2641 -0.5364 -1.0077
  122MOL0     H16084   0.326   2.800  13.155 -1.2599 -1.3453  0.1922
  122MOL0     H16085   0.316   2.880  12.990  0.3617 -2.2870 -4.0429
  122MOL0     H16086  -0.170   2.994  12.021  1.8126  0.4510 -5.2054
  122MOL0     H16087  -0.147   2.823  11.844  0.9302 -0.2792  0.1106
  122MOL0     H16088  -0.147   2.534  11.628 -0.4353 -0.4751  0.2966
  122MOL0     H16089  -0.147   2.420  11.417 -0.7717  2.0718  0.7790
  122MOL0     H16090   0.595   2.962  10.155 -0.1589  0.9996 -3.8101
  122MOL0     H16091   0.739   3.092  10.032 -0.2124  0.6483 -0.1321
  122MOL0     H16092   0.973   3.322   9.870  0.9921  0.4352  2.7865
  122MOL0     H16093   1.035   3.410   9.629 -1.2793 -0.4978 -0.2347
  122MOL0     H16094   0.902   3.552   9.400 -1.2716  1.9460 -0.0690
  122MOL0     H16095   1.070   3.497   9.430 -0.4171  0.0509 -1.4752
  122MOL0     H16096   0.992   3.759   9.305  3.3448  1.0541  0.1087
  122MOL0     H16097   1.155   3.701   9.328  0.9407 -1.6060  4.6826
  122MOL0     H16098   0.926   3.638   9.135 -0.4254 -1.1101 -0.2837
  122MOL0     H16099   1.036   3.496   9.180  3.6371 -0.0931 -2.3734
  122MOL0     H16100   1.088   3.617   8.974  1.9355 -0.9683  0.2943
  122MOL0     H16101   1.125   3.766   9.076 -2.9064 -0.0753 -0.3850
  122MOL0     H16102   1.462   3.511   9.102 -1.0678 -1.5358  0.5965
  122MOL0     H16103   0.831   3.771   9.719 -3.4214 -2.0452 -1.5351
  122MOL0     H16104   0.781   3.700   9.931 -1.6009 -2.2689  0.5274
  123MOL0     O16105  10.640  11.108   7.298  0.2455 -0.5726 -0.0029
  123MOL0     C16106  10.637  11.066   7.179  0.2624 -0.6676  0.7492
  123MOL0     O16107  10.676  11.133   7.062  0.9830 -0.3021  0.4320
  123MOL0     C16108  10.698  11.268   7.072  0.9334  0.3596  0.5116
  123MOL0     C16109  10.830  11.310   7.061  0.2122 -0.4533  0.4505
  123MOL0     C16110  10.865  11.446   7.070  0.0699 -1.0095 -0.0418
  123MOL0     C16111  10.764  11.540   7.115 -0.2840 -0.5825 -0.2856
  123MOL0     O16112  10.798  11.673   7.114  0.7310 -0.7858  0.2595
  123MOL0     C16113  10.797  11.735   7.241  0.5377  0.2468 -0.0367
  123MOL0     C16114  10.831  11.880   7.245 -0.0370 -0.4375  0.0755
  123MOL0     C16115  10.754  11.962   7.145  0.6399 -0.6004 -0.4930
  123MOL0     C16116  10.605  11.981   7.184  0.9493 -0.0084 -0.1520
  123MOL0     C16117  10.580  12.105   7.272 -0.2227 -0.0807  0.4553
  123MOL0     C16118  10.498  12.213   7.217 -0.2362  0.8873  0.8663
  123MOL0     C16119  10.345  12.172   7.211  0.2524  0.1261 -0.6049
  123MOL0     C16120  10.266  12.285   7.146 -1.0306 -1.4922 -0.0003
  123MOL0     N16121  10.123  12.266   7.142  0.0257  0.6334 -0.3322
  123MOL0     C16122  10.052  12.247   7.029 -0.2430 -0.8935  0.7564
  123MOL0     C16123   9.922  12.225   7.073  0.5779 -0.6902 -0.2863
  123MOL0     C16124   9.792  12.208   6.997  0.6523  0.4181  0.8460
  123MOL0     C16125   9.712  12.341   6.985  0.8797 -0.5193  0.2000
  123MOL0     C16126   9.601  12.356   7.097 -0.4869 -0.9629  0.4222
  123MOL0     C16127   9.482  12.264   7.113  0.1961 -0.4404 -0.3052
  123MOL0     O16128   9.397  12.254   6.992  0.5374 -0.7231  0.3733
  123MOL0     C16129   9.277  12.324   6.991 -0.4000  0.9986 -0.4518
  123MOL0     C16130   9.258  12.428   6.898  0.6925  1.1941  0.9230
  123MOL0     C16131   9.134  12.485   6.883 -0.1087  0.2690 -0.0138
  123MOL0     C16132   9.020  12.452   6.972  0.1538  0.8413 -0.6320
  123MOL0     C16133   8.894  12.524   6.972 -0.3839  0.7130 -0.7526
  123MOL0     O16134   8.806  12.489   7.071  0.6219 -0.3217  0.6047
  123MOL0     C16135   8.688  12.559   7.074 -0.7730  0.5177 -0.3895
  123MOL0     C16136   8.594  12.556   6.961  0.0468 -0.3315 -0.6369
  123MOL0     C16137   8.492  12.651   6.950  0.5583 -0.2522  0.1905
  123MOL0     C16138   8.478  12.750   7.049  0.5085 -0.1335 -0.5769
  123MOL0     O16139   8.376  12.837   7.041  0.9692 -0.2417  0.5349
  123MOL0     C16140   8.401  12.966   7.093  0.0205 -1.5897  0.4178
  123MOL0     C16141   8.300  13.054   7.025 -0.3584  0.2743  0.7404
  123MOL0     C16142   8.159  12.993   7.031  0.4305  0.4850  0.3210
  123MOL0     C16143   8.038  13.076   6.960  0.1919  1.1582 -0.2638
  123MOL0     C16144   7.974  13.186   7.041  0.0983 -0.1558 -0.6262
  123MOL0     C16145   7.893  13.151   7.171  0.2583 -0.1555  1.0884
  123MOL0     C16146   7.965  13.194   7.299  0.9929  0.7886  0.3414
  123MOL0     C16147   7.889  13.293   7.370 -0.5475 -0.6165  0.9666
  123MOL0    Cl16148   7.726  13.219   7.423 -0.4052 -0.3067 -0.0644
  123MOL0     C16149   8.567  12.755   7.157 -0.0122  0.7725  0.1471
  123MOL0     C16150   8.673  12.658   7.173 -0.0432 -1.2174  0.3859
  123MOL0     O16151   8.881  12.615   6.887 -0.3038 -0.3325  0.9844
  123MOL0     C16152   9.044  12.348   7.063  0.6875  0.3501  0.7927
  123MOL0     C16153   9.167  12.288   7.070  0.1268 -0.3187  1.4385
  123MOL0     N16154   9.918  12.242   7.210  0.3225  0.5129  0.3041
  123MOL0     N16155  10.036  12.268   7.246 -0.2277  0.0746 -0.8156
  123MOL0     C16156  10.631  11.501   7.128  0.0198  0.4496  0.4500
  123MOL0     C16157  10.599  11.367   7.103 -0.0063  0.6097 -0.3408
  123MOL0     C16158  10.578  10.934   7.150  0.5645 -0.0113  0.5460
  123MOL0     C16159  10.564  10.884   7.021 -0.4692 -0.2947 -0.9093
  123MOL0     C16160  10.538  10.748   6.991  0.1978  0.1964  0.8277
  123MOL0     C16161  10.524  10.655   7.095 -0.3589 -0.2111 -0.2903
  123MOL0     O16162  10.499  10.524   7.070 -0.2874  0.1363  0.1540
  123MOL0     C16163  10.431  10.491   6.949  0.5862  0.0906  0.3597
  123MOL0     C16164  10.386  10.343   6.933 -0.0413  0.0022  0.3072
  123MOL0     C16165  10.255  10.308   7.017  0.4367 -0.0721  0.2916
  123MOL0     C16166  10.249  10.163   7.036 -0.1802  0.3351  0.4717
  123MOL0     C16167  10.123  10.139   7.112 -0.7374  0.1380 -0.3140
  123MOL0     C16168  10.026  10.119   7.190  0.4168  0.1577 -0.6365
  123MOL0     C16169  10.531  10.706   7.225  0.6955 -0.6692  0.6652
  123MOL0     C16170  10.557  10.842   7.250 -0.2845 -0.6259 -0.6076
  123MOL0     H16171  10.909  11.243   7.031 -0.3221  0.5102 -3.8252
  123MOL0     H16172  10.967  11.479   7.058 -0.4526  2.4203  3.0598
  123MOL0     H16173  10.874  11.689   7.304 -3.2144 -1.2077  3.9762
  123MOL0     H16174  10.700  11.711   7.285 -0.9373  3.3164 -1.3306
  123MOL0     H16175  10.938  11.900   7.235 -0.1239 -0.4164 -0.9571
  123MOL0     H16176  10.816  11.906   7.350  1.8332 -0.9856  0.5024
  123MOL0     H16177  10.766  11.915   7.047  2.6269 -1.2097  0.0038
  123MOL0     H16178  10.797  12.061   7.125 -1.0546 -0.4165 -4.2932
  123MOL0     H16179  10.560  11.985   7.084  0.7190 -0.1056 -0.0511
  123MOL0     H16180  10.572  11.885   7.224 -1.1775 -0.0920 -1.9173
  123MOL0     H16181  10.677  12.146   7.301  0.8605 -1.1388 -1.4851
  123MOL0     H16182  10.533  12.080   7.368  1.6930  1.9685  2.0211
  123MOL0     H16183  10.526  12.234   7.114  0.5390  1.4702  1.1910
  123MOL0     H16184  10.513  12.297   7.285  4.4054 -1.2478  2.8629
  123MOL0     H16185  10.331  12.094   7.136  0.4745  1.9264 -2.6019
  123MOL0     H16186  10.301  12.152   7.309  2.9689  0.6819  0.8421
  123MOL0     H16187  10.295  12.311   7.043  0.6106 -0.0902  0.7667
  123MOL0     H16188  10.282  12.376   7.204  2.0517 -0.8663 -1.5773
  123MOL0     H16189  10.089  12.252   6.927 -0.5904 -1.2958  0.6047
  123MOL0     H16190   9.729  12.130   7.040  0.6684 -0.0237  0.0849
  123MOL0     H16191   9.816  12.185   6.893 -0.8073 -0.1647  0.6169
  123MOL0     H16192   9.660  12.345   6.889 -0.8564 -2.3112  1.0010
  123MOL0     H16193   9.768  12.435   6.989 -2.7151  1.9492 -1.7268
  123MOL0     H16194   9.663  12.349   7.186  1.6440  0.1563 -0.8798
  123MOL0     H16195   9.562  12.458   7.090  2.4635  0.1834 -1.9259
  123MOL0     H16196   9.428  12.307   7.198  1.6787  0.8091  0.0338
  123MOL0     H16197   9.526  12.166   7.134 -1.5865 -1.0679  0.7710
  123MOL0     H16198   9.332  12.459   6.826 -0.2646  1.6167  0.0898
  123MOL0     H16199   9.118  12.556   6.802 -1.1144 -1.4154 -1.3446
  123MOL0     H16200   8.586  12.486   6.878 -0.6489 -3.2653  1.6878
  123MOL0     H16201   8.410  12.646   6.879  0.3565  0.0910  0.3940
  123MOL0     H16202   8.497  13.002   7.054 -1.1294  0.3877 -0.8297
  123MOL0     H16203   8.394  12.971   7.202 -2.8721 -1.6491  0.3140
  123MOL0     H16204   8.341  13.075   6.926  1.9728  2.8377  2.1212
  123MOL0     H16205   8.293  13.154   7.069 -4.9092  1.0116 -1.0811
  123MOL0     H16206   8.123  12.963   7.130 -2.9611 -1.4684 -1.3020
  123MOL0     H16207   8.159  12.899   6.976 -2.4840  0.4163  0.2797
  123MOL0     H16208   8.068  13.118   6.864  1.2550 -2.0903 -1.4751
  123MOL0     H16209   7.967  13.003   6.922  3.1257 -1.7348 -0.6137
  123MOL0     H16210   7.904  13.236   6.974 -0.0028  1.5421  0.6816
  123MOL0     H16211   8.056  13.253   7.067 -0.2312  0.6930 -1.7126
  123MOL0     H16212   7.883  13.042   7.165 -1.7804 -0.0833 -5.0781
  123MOL0     H16213   7.792  13.193   7.172 -0.7557 -2.3561  0.2514
  123MOL0     H16214   7.955  13.101   7.357  1.3502 -0.1994 -1.1139
  123MOL0     H16215   8.071  13.218   7.291  1.7800 -1.7653  1.8350
  123MOL0     H16216   7.869  13.378   7.304  0.2101  0.9833  2.6827
  123MOL0     H16217   7.940  13.342   7.454  1.6947 -0.5813 -0.3287
  123MOL0     H16218   8.545  12.825   7.236  0.8949  0.1212  0.9935
  123MOL0     H16219   8.729  12.666   7.265 -0.8921  2.2646  0.7316
  123MOL0     H16220   8.961  12.303   7.116  0.5413  0.3040  0.5282
  123MOL0     H16221   9.194  12.204   7.133  6.0123  0.2443  0.2070
  123MOL0     H16222  10.559  11.577   7.154 -0.4445  0.6355 -1.2455
  123MOL0     H16223  10.492  11.347   7.110 -0.0134  1.1366  1.4039
  123MOL0     H16224  10.581  10.950   6.936 -1.1805  1.3235  0.1451
  123MOL0     H16225  10.531  10.734   6.883 -2.9345  1.7645  0.7340
  123MOL0     H16226  10.485  10.516   6.858 -3.6467  3.9897 -1.4115
  123MOL0     H16227  10.348  10.561   6.950  1.6269  1.3725  1.9817
  123MOL0     H16228  10.357  10.335   6.827  0.5407 -0.4747  0.1803
  123MOL0     H16229  10.464  10.269   6.953 -1.2172 -2.2365 -2.4888
  123MOL0     H16230  10.164  10.336   6.962 -1.0090  2.0733  3.4991
  123MOL0     H16231  10.254  10.356   7.115 -1.7846  0.4690  0.0719
  123MOL0     H16232  10.233  10.115   6.939 -0.4629  0.1443  0.6122
  123MOL0     H16233  10.338  10.126   7.086  0.0517  0.4210  0.1278
  123MOL0     H16234   9.940  10.116   7.253 -0.9538  3.3011 -2.1314
  123MOL0     H16235  10.533  10.621   7.292 -0.7979 -2.2148 -1.1040
  123MOL0     H16236  10.568  10.873   7.354 -1.1659  0.5158 -0.8337
  124MOL0     O16237   6.143   1.174   8.165  0.0841 -0.4174 -0.2789
  124MOL0     C16238   6.063   1.099   8.228 -1.3229 -1.2554  0.6779
  124MOL0     O16239   6.048   1.100   8.361 -0.2330  0.6061 -0.1516
  124MOL0     C16240   6.085   1.208   8.445  1.0982 -0.2572  0.0613
  124MOL0     C16241   6.054   1.342   8.405 -0.3572 -0.2149 -0.0920
  124MOL0     C16242   6.061   1.439   8.504 -0.1140  0.1439 -0.0678
  124MOL0     C16243   6.098   1.414   8.636 -0.7281 -0.7566  0.3023
  124MOL0     O16244   6.098   1.504   8.748 -0.2262  0.7912  0.1124
  124MOL0     C16245   6.131   1.643   8.733 -0.3396 -0.0654  0.7293
  124MOL0     C16246   6.103   1.698   8.871 -1.1448 -0.4184 -0.0340
  124MOL0     C16247   6.132   1.850   8.879  0.2021  0.6704  0.5394
  124MOL0     C16248   6.119   1.918   9.014 -0.4728 -0.2860 -0.2882
  124MOL0     C16249   6.153   2.070   9.009 -0.8591  0.7955 -0.2905
  124MOL0     C16250   6.170   2.108   9.163 -0.8616 -0.4137 -0.4615
  124MOL0     C16251   6.093   2.240   9.186  0.4635 -1.1634 -0.3233
  124MOL0     C16252   6.176   2.351   9.113 -0.4955 -0.3076  1.2568
  124MOL0     N16253   6.302   2.385   9.176  0.1442  0.2311 -0.6961
  124MOL0     C16254   6.419   2.407   9.105 -0.0147 -0.1069  0.4721
  124MOL0     C16255   6.497   2.467   9.192 -0.1498  0.0966  0.6386
  124MOL0     C16256   6.640   2.508   9.183  0.6893 -0.4265  0.0862
  124MOL0     C16257   6.727   2.416   9.088 -0.9061 -0.8249  0.2984
  124MOL0     C16258   6.850   2.494   9.051  0.1155 -0.3852 -0.3140
  124MOL0     C16259   6.937   2.430   8.944  0.0975  0.1863 -0.0259
  124MOL0     O16260   6.864   2.411   8.824 -0.4211  0.8323  0.1718
  124MOL0     C16261   6.934   2.375   8.711 -0.1169  0.4040 -0.1695
  124MOL0     C16262   7.062   2.427   8.671  1.3424 -0.0932 -0.0970
  124MOL0     C16263   7.100   2.394   8.547 -0.0024  0.7956  1.1190
  124MOL0     C16264   7.032   2.300   8.455  0.5884  0.6804  0.3995
  124MOL0     C16265   7.094   2.268   8.323  0.5888  0.4053  0.2116
  124MOL0     O16266   7.033   2.161   8.249  0.0028  0.3190 -0.0996
  124MOL0     C16267   7.097   2.111   8.138  0.3862 -0.9728  0.2982
  124MOL0     C16268   7.148   1.990   8.135  0.1852  0.3780 -0.4388
  124MOL0     C16269   7.216   1.940   8.026 -0.8763  0.7969 -0.3667
  124MOL0     C16270   7.229   2.014   7.911  0.6328  0.0902  0.0934
  124MOL0     O16271   7.317   1.975   7.811  0.5335  0.0948 -0.2326
  124MOL0     C16272   7.278   1.856   7.750  0.2157  0.0294  0.1677
  124MOL0     C16273   7.308   1.843   7.599 -0.8094 -0.5021  0.6300
  124MOL0     C16274   7.178   1.791   7.520  0.3662  0.7596 -0.7323
  124MOL0     C16275   7.196   1.773   7.366  0.6752  0.2614  0.3665
  124MOL0     C16276   7.077   1.722   7.287  0.6848 -0.7218 -0.5874
  124MOL0     C16277   7.119   1.611   7.188  1.0525  0.1017  0.1728
  124MOL0     C16278   7.167   1.483   7.253 -0.3871  0.4916  0.1838
  124MOL0     C16279   7.198   1.374   7.139  0.3170  0.2828 -0.0215
  124MOL0    Cl16280   7.050   1.270   7.132 -0.1275  0.2800  0.2283
  124MOL0     C16281   7.163   2.136   7.907  0.7825  0.1756  0.6258
  124MOL0     C16282   7.110   2.190   8.020  0.2101 -0.5806 -0.2084
  124MOL0     O16283   7.192   2.334   8.282  0.5950  0.0408  0.2068
  124MOL0     C16284   6.924   2.232   8.507 -0.1032  0.4753 -1.0251
  124MOL0     C16285   6.881   2.276   8.632 -0.0690 -0.0733 -0.8722
  124MOL0     N16286   6.432   2.476   9.312 -0.9501  0.1197  0.3394
  124MOL0     N16287   6.317   2.432   9.303 -0.1264 -0.6575 -0.2130
  124MOL0     C16288   6.115   1.281   8.678 -0.0087 -0.7085  0.6436
  124MOL0     C16289   6.111   1.175   8.582 -0.3031  0.1816  0.3423
  124MOL0     C16290   5.982   0.999   8.155  0.7822 -0.4066 -0.1123
  124MOL0     C16291   5.869   0.933   8.228 -0.0374  0.1360  0.3151
  124MOL0     C16292   5.797   0.835   8.162 -0.2807 -0.2850 -0.7872
  124MOL0     C16293   5.824   0.799   8.031  0.5378  0.6349 -0.1130
  124MOL0     O16294   5.736   0.705   7.969  0.0609 -0.4060  0.0231
  124MOL0     C16295   5.731   0.693   7.830 -0.2216  0.0344  0.1879
  124MOL0     C16296   5.817   0.569   7.789  1.1379  0.8857  0.2577
  124MOL0     C16297   5.787   0.506   7.647  0.0567 -1.3913  0.2356
  124MOL0     C16298   5.774   0.611   7.528  0.6017  0.1459 -1.3400
  124MOL0     C16299   5.900   0.676   7.508  0.7918  0.0124  0.5805
  124MOL0     C16300   6.007   0.723   7.483 -0.4866 -1.0779 -0.7996
  124MOL0     C16301   5.928   0.868   7.967  0.5953 -0.4491  0.3380
  124MOL0     C16302   6.007   0.965   8.022  0.2669  0.9503 -0.1663
  124MOL0     H16303   6.008   1.367   8.310 -1.1858  1.4989  0.7194
  124MOL0     H16304   6.024   1.532   8.462 -2.6908 -2.1985 -3.5522
  124MOL0     H16305   6.074   1.706   8.664  0.3424 -0.2025  0.0241
  124MOL0     H16306   6.235   1.654   8.700 -0.8973  2.3008 -0.5463
  124MOL0     H16307   6.169   1.646   8.941  0.7658  3.4467  1.3346
  124MOL0     H16308   6.002   1.688   8.911 -2.3942  3.1085 -1.8963
  124MOL0     H16309   6.060   1.897   8.811 -0.1294 -1.0082 -0.3195
  124MOL0     H16310   6.233   1.869   8.840  0.1795  1.6491  0.9388
  124MOL0     H16311   6.023   1.899   9.063  0.1514  0.7202  1.4394
  124MOL0     H16312   6.193   1.868   9.076  3.2230  3.3064 -1.3728
  124MOL0     H16313   6.078   2.130   8.956  0.7976  1.3002 -2.2052
  124MOL0     H16314   6.246   2.084   8.953 -0.0489 -1.4305  0.3905
  124MOL0     H16315   6.274   2.118   9.193 -1.3442 -1.0331  1.5999
  124MOL0     H16316   6.116   2.038   9.228 -4.8595  0.2038 -2.7664
  124MOL0     H16317   5.990   2.234   9.150  0.6905 -0.3515 -1.1387
  124MOL0     H16318   6.083   2.267   9.292  1.4626  0.4095 -0.5919
  124MOL0     H16319   6.108   2.437   9.109 -1.1198 -0.7816  1.3393
  124MOL0     H16320   6.182   2.332   9.005  0.4355 -1.2614  1.4602
  124MOL0     H16321   6.435   2.380   9.002  0.1114  1.1391  0.1479
  124MOL0     H16322   6.693   2.524   9.277  1.7889  0.1545 -0.6036
  124MOL0     H16323   6.636   2.611   9.144  2.1418 -0.7937 -1.1282
  124MOL0     H16324   6.672   2.385   8.998 -0.3739  0.0037 -0.3354
  124MOL0     H16325   6.754   2.329   9.148 -1.8179 -1.0037  0.4685
  124MOL0     H16326   6.818   2.586   9.000  0.1237 -0.1675  0.0750
  124MOL0     H16327   6.913   2.505   9.139  1.1760 -1.5734 -0.8795
  124MOL0     H16328   6.976   2.334   8.980 -1.7990  0.9637  4.9817
  124MOL0     H16329   7.022   2.499   8.941 -0.4743  0.9211  0.5310
  124MOL0     H16330   7.114   2.511   8.717  0.6665  0.6141 -0.5865
  124MOL0     H16331   7.189   2.448   8.518  0.7647 -1.1136 -0.2621
  124MOL0     H16332   7.150   1.937   8.229 -2.0574  0.5045 -0.2500
  124MOL0     H16333   7.256   1.839   8.026  0.3867  1.2796 -0.9040
  124MOL0     H16334   7.169   1.851   7.766  0.3306 -0.5483  0.8378
  124MOL0     H16335   7.327   1.766   7.789 -0.6006  0.2294  1.7743
  124MOL0     H16336   7.391   1.775   7.578 -0.8047  0.0368 -1.3327
  124MOL0     H16337   7.331   1.946   7.570 -0.5008 -0.5990  0.5357
  124MOL0     H16338   7.094   1.861   7.530  0.1374  0.4992 -0.8204
  124MOL0     H16339   7.165   1.692   7.565  3.7691  1.0706  1.2496
  124MOL0     H16340   7.222   1.875   7.336 -4.2245  2.4406  2.3559
  124MOL0     H16341   7.286   1.712   7.354  2.1094  2.0637  1.4043
  124MOL0     H16342   7.028   1.805   7.235  0.4367 -0.8836 -0.6170
  124MOL0     H16343   7.012   1.681   7.365  0.4425  0.0868 -0.3599
  124MOL0     H16344   7.204   1.651   7.133  1.9758  0.5116  1.8408
  124MOL0     H16345   7.035   1.587   7.121 -0.1281 -0.9183  1.9284
  124MOL0     H16346   7.267   1.507   7.291  0.2382 -0.3259 -0.8801
  124MOL0     H16347   7.093   1.455   7.328 -0.7809 -4.0529 -1.6153
  124MOL0     H16348   7.284   1.310   7.162 -1.3406 -2.7492 -1.5291
  124MOL0     H16349   7.215   1.421   7.042 -3.8640 -0.7913 -1.4948
  124MOL0     H16350   7.179   2.187   7.813  0.2989 -0.3000  0.2754
  124MOL0     H16351   7.070   2.290   8.032 -1.4742 -1.1986 -0.3928
  124MOL0     H16352   6.867   2.156   8.454  0.9386 -0.3899 -0.9510
  124MOL0     H16353   6.783   2.242   8.666 -0.3846  0.8234 -0.8771
  124MOL0     H16354   6.125   1.248   8.780 -0.8746 -2.1560  0.2955
  124MOL0     H16355   6.128   1.068   8.591 -0.3331 -0.3622 -3.9231
  124MOL0     H16356   5.836   0.962   8.328 -0.5226  3.2556 -0.6312
  124MOL0     H16357   5.708   0.803   8.215 -0.9615  0.3531 -1.5268
  124MOL0     H16358   5.760   0.781   7.772  3.8562 -2.1954 -1.6181
  124MOL0     H16359   5.630   0.668   7.796 -0.2584  2.0988 -1.4035
  124MOL0     H16360   5.916   0.615   7.790  0.8629  1.5451 -0.8306
  124MOL0     H16361   5.806   0.483   7.855  2.3724 -0.3591 -1.0853
  124MOL0     H16362   5.698   0.443   7.648 -1.2122  0.3011 -1.2231
  124MOL0     H16363   5.873   0.442   7.623  3.6662  2.2808  2.1847
  124MOL0     H16364   5.751   0.547   7.441  0.0319  0.7114 -1.6138
  124MOL0     H16365   5.687   0.675   7.543  0.7273  0.2993 -1.2663
  124MOL0     H16366   6.106   0.758   7.460 -1.1971 -0.5991 -3.4697
  124MOL0     H16367   5.928   0.834   7.864 -1.3172  0.2123  0.0898
  124MOL0     H16368   6.070   1.031   7.963  0.4141 -0.6588 -1.9157
  125MOL0     O16369   1.902   0.340   5.024  0.7181  0.4756  0.1638
  125MOL0     C16370   1.781   0.311   5.022  0.4202  1.5108  0.2069
  125MOL0     O16371   1.677   0.393   5.057 -0.5299 -0.4677 -0.4516
  125MOL0     C16372   1.713   0.502   5.140  0.4777  0.1118 -0.0174
  125MOL0     C16373   1.655   0.629   5.120 -0.1231 -0.0515  0.4259
  125MOL0     C16374   1.703   0.745   5.188 -0.3649  0.2428 -0.7356
  125MOL0     C16375   1.787   0.727   5.304  0.2839  0.9934  0.9568
  125MOL0     O16376   1.821   0.834   5.385 -0.5192 -0.1372 -0.5651
  125MOL0     C16377   1.807   0.964   5.329  0.3539 -0.4365  0.5724
  125MOL0     C16378   1.881   1.069   5.416 -0.3805  0.9203 -0.3927
  125MOL0     C16379   1.872   1.206   5.352 -0.4067  0.0888 -0.0034
  125MOL0     C16380   2.001   1.296   5.363  0.8194  0.7377 -0.4383
  125MOL0     C16381   2.049   1.315   5.510 -0.0201 -1.1425 -0.0498
  125MOL0     C16382   1.939   1.328   5.618  0.7130  0.5388  0.0072
  125MOL0     C16383   1.975   1.440   5.719 -0.1557  0.8724  0.1014
  125MOL0     C16384   1.874   1.425   5.831 -0.1144 -0.1115 -0.2729
  125MOL0     N16385   1.857   1.552   5.900  0.5920  0.2975 -0.3932
  125MOL0     C16386   1.747   1.591   5.965 -0.6586  0.5688  0.2107
  125MOL0     C16387   1.789   1.712   6.026  0.1878  0.1215  0.1469
  125MOL0     C16388   1.710   1.770   6.135 -0.7233 -0.1908  0.2373
  125MOL0     C16389   1.721   1.691   6.268  0.8013  1.2757  0.0695
  125MOL0     C16390   1.861   1.627   6.297  0.2866 -0.3417 -0.4419
  125MOL0     C16391   1.876   1.565   6.437 -0.2246  0.3822 -0.2609
  125MOL0     O16392   1.765   1.478   6.480  0.1547  1.2082  0.4015
  125MOL0     C16393   1.746   1.475   6.617  0.4324  0.1710 -0.3514
  125MOL0     C16394   1.610   1.458   6.662 -0.5263  0.6099  0.0676
  125MOL0     C16395   1.590   1.458   6.802  0.6154  0.9437  0.3513
  125MOL0     C16396   1.699   1.468   6.884 -1.1407 -0.2505 -1.4004
  125MOL0     C16397   1.674   1.445   7.033 -0.4881 -0.4805 -0.1424
  125MOL0     O16398   1.761   1.501   7.118 -0.6808  0.0661  0.2986
  125MOL0     C16399   1.746   1.481   7.253 -0.4380 -0.5168 -0.1934
  125MOL0     C16400   1.691   1.586   7.326 -0.3438 -0.1271 -0.0146
  125MOL0     C16401   1.669   1.568   7.470  0.4665  0.8611  1.0680
  125MOL0     C16402   1.689   1.446   7.527 -0.0906  0.6650 -0.0726
  125MOL0     O16403   1.658   1.426   7.657  0.7075 -0.0582  0.5496
  125MOL0     C16404   1.560   1.513   7.717  1.4923  1.0000  0.1785
  125MOL0     C16405   1.472   1.436   7.814  0.5408 -0.3063 -0.3569
  125MOL0     C16406   1.525   1.416   7.958  0.1037 -0.4899  1.2450
  125MOL0     C16407   1.541   1.539   8.040  0.3234  0.7594  0.1963
  125MOL0     C16408   1.514   1.512   8.189  0.9024 -0.4488 -0.4984
  125MOL0     C16409   1.632   1.499   8.281  0.9337 -0.5204 -0.4569
  125MOL0     C16410   1.592   1.456   8.420 -0.8696  0.3830  0.3866
  125MOL0     C16411   1.699   1.476   8.520  0.2460  0.9679 -0.9939
  125MOL0    Cl16412   1.815   1.347   8.526 -0.1008 -0.2787 -0.1355
  125MOL0     C16413   1.753   1.348   7.449  0.4841 -0.0691  0.3433
  125MOL0     C16414   1.776   1.358   7.312  0.4537 -0.3602 -0.4279
  125MOL0     O16415   1.573   1.387   7.069 -0.1599  0.8169 -0.3739
  125MOL0     C16416   1.829   1.493   6.843  0.8902  0.0615  0.4676
  125MOL0     C16417   1.848   1.489   6.708 -0.8916 -0.4578 -0.1984
  125MOL0     N16418   1.909   1.747   5.975 -0.5070 -0.4448  0.2563
  125MOL0     N16419   1.953   1.651   5.900 -0.2317 -0.1509  0.8674
  125MOL0     C16420   1.820   0.598   5.339  0.0788 -0.3877 -0.1604
  125MOL0     C16421   1.786   0.489   5.263 -0.6184 -0.0357 -0.0597
  125MOL0     C16422   1.744   0.172   4.967 -0.6353 -0.4559 -0.4351
  125MOL0     C16423   1.619   0.131   4.926 -0.3518  0.4012 -0.5905
  125MOL0     C16424   1.603   0.000   4.881  0.7670  0.2576 -0.4710
  125MOL0     C16425   1.699  -0.093   4.869 -0.0993  0.3960  0.4615
  125MOL0     O16426   1.668  -0.212   4.812  0.1331  0.2723 -0.2771
  125MOL0     C16427   1.767  -0.316   4.800 -0.1071 -0.0109  1.0711
  125MOL0     C16428   1.711  -0.433   4.721 -0.3438 -0.7648  0.7832
  125MOL0     C16429   1.818  -0.544   4.721 -0.5250  0.1439 -0.1174
  125MOL0     C16430   1.929  -0.493   4.629 -0.8042 -0.1320 -0.6354
  125MOL0     C16431   2.037  -0.415   4.700 -0.3361 -0.5264  0.7599
  125MOL0     C16432   2.127  -0.339   4.741 -0.1823 -0.4056  0.3530
  125MOL0     C16433   1.830  -0.050   4.892  0.4442 -0.2301  0.3900
  125MOL0     C16434   1.850   0.085   4.933 -0.4793 -0.9888  0.3141
  125MOL0     H16435   1.588   0.638   5.035  0.8211  4.5116 -0.1099
  125MOL0     H16436   1.652   0.838   5.170 -0.3638  0.6105  1.0039
  125MOL0     H16437   1.707   1.010   5.327  1.4842  2.2775  1.9873
  125MOL0     H16438   1.838   0.959   5.224 -1.1860 -3.4227  0.1531
  125MOL0     H16439   1.984   1.035   5.424 -1.4233 -2.2015  1.1957
  125MOL0     H16440   1.831   1.075   5.512 -0.8322  0.9136 -0.6244
  125MOL0     H16441   1.789   1.255   5.404  0.7937  1.7793  0.3881
  125MOL0     H16442   1.849   1.192   5.246  1.3225 -3.2309 -0.0693
  125MOL0     H16443   2.081   1.251   5.304 -1.5215 -0.0601 -3.1894
  125MOL0     H16444   1.996   1.398   5.323  0.0190  1.3436  1.1188
  125MOL0     H16445   2.131   1.386   5.498 -1.7729  1.0028  0.2233
  125MOL0     H16446   2.098   1.222   5.539 -0.6417 -1.1103  1.1408
  125MOL0     H16447   1.925   1.233   5.670 -3.0613  0.6536 -0.4589
  125MOL0     H16448   1.842   1.351   5.572  0.9387  0.9193 -0.2879
  125MOL0     H16449   2.074   1.451   5.765  0.1450  1.2476 -0.6030
  125MOL0     H16450   1.956   1.533   5.664  1.3182  0.0630 -1.9231
  125MOL0     H16451   1.890   1.342   5.901 -0.4754 -2.8284 -3.2067
  125MOL0     H16452   1.782   1.398   5.778  0.1840 -0.6385 -0.5236
  125MOL0     H16453   1.658   1.530   5.975 -0.6428  0.9671  4.7249
  125MOL0     H16454   1.608   1.756   6.099 -0.7039  0.7200 -0.1818
  125MOL0     H16455   1.719   1.878   6.148 -2.4828  1.0208 -5.6759
  125MOL0     H16456   1.639   1.622   6.287  0.7634  1.4365  0.5193
  125MOL0     H16457   1.706   1.761   6.351  2.6834 -0.8005  2.3170
  125MOL0     H16458   1.871   1.559   6.212 -1.7026 -1.3437  0.0772
  125MOL0     H16459   1.933   1.709   6.289 -1.0520  0.9317  0.1785
  125MOL0     H16460   1.874   1.652   6.504 -0.0342  0.0447  0.1862
  125MOL0     H16461   1.976   1.525   6.452  0.2099  1.4186 -0.2804
  125MOL0     H16462   1.526   1.438   6.597  0.7059  2.8611 -2.4372
  125MOL0     H16463   1.492   1.437   6.843  1.8133 -2.3921  1.8815
  125MOL0     H16464   1.664   1.675   7.270  2.7380 -1.9315 -4.9495
  125MOL0     H16465   1.632   1.657   7.521 -2.5052  0.0655  0.5362
  125MOL0     H16466   1.490   1.549   7.642  1.0601 -0.9583 -0.4262
  125MOL0     H16467   1.607   1.597   7.769  2.4764  0.6466 -0.1035
  125MOL0     H16468   1.455   1.335   7.776 -0.6196 -0.3806  0.2984
  125MOL0     H16469   1.376   1.489   7.819 -0.9078 -2.7194 -0.9814
  125MOL0     H16470   1.619   1.361   7.952 -0.4191 -1.3112  0.2005
  125MOL0     H16471   1.446   1.356   8.004 -1.4846 -2.0437 -3.0102
  125MOL0     H16472   1.641   1.582   8.033 -0.1895  1.7572 -1.7491
  125MOL0     H16473   1.462   1.607   8.008  1.9304  2.8121  0.4303
  125MOL0     H16474   1.464   1.415   8.203  0.7961 -0.6491 -2.0927
  125MOL0     H16475   1.445   1.592   8.216  0.2337 -1.0153 -0.4953
  125MOL0     H16476   1.680   1.597   8.285  1.1011 -0.6522  1.3574
  125MOL0     H16477   1.700   1.424   8.238 -0.7618 -2.2532 -0.2383
  125MOL0     H16478   1.498   1.501   8.453 -0.2715  1.4311  0.7098
  125MOL0     H16479   1.568   1.350   8.415 -0.2566  0.1515  1.7820
  125MOL0     H16480   1.663   1.477   8.623 -0.5778  0.1652 -1.2669
  125MOL0     H16481   1.762   1.565   8.504 -2.3936  2.7325 -2.2827
  125MOL0     H16482   1.780   1.250   7.487  3.2175  0.2057 -0.6799
  125MOL0     H16483   1.815   1.278   7.249  2.1272 -0.8193  1.1150
  125MOL0     H16484   1.912   1.481   6.912  1.0705 -1.2313  0.0534
  125MOL0     H16485   1.946   1.494   6.661  0.1611  1.9176  1.9915
  125MOL0     H16486   1.884   0.567   5.422  1.6068 -0.6444 -1.3964
  125MOL0     H16487   1.819   0.392   5.300 -1.9905  0.0958  1.6026
  125MOL0     H16488   1.539   0.204   4.912  1.5317  3.3430  2.3645
  125MOL0     H16489   1.504  -0.035   4.853  0.9210 -2.1747  1.6423
  125MOL0     H16490   1.810  -0.325   4.900 -1.6571 -1.2991  1.6606
  125MOL0     H16491   1.849  -0.278   4.738 -2.5757  1.3327 -1.6364
  125MOL0     H16492   1.618  -0.473   4.762 -0.4135 -1.2641  0.1531
  125MOL0     H16493   1.691  -0.409   4.616 -0.7139 -2.0258  0.5528
  125MOL0     H16494   1.776  -0.640   4.687  3.0569 -0.9118 -2.0082
  125MOL0     H16495   1.847  -0.553   4.826 -1.1675 -0.1637  0.0400
  125MOL0     H16496   1.987  -0.581   4.600 -0.1427  0.6618 -1.7578
  125MOL0     H16497   1.888  -0.437   4.544  0.5271  1.0237 -0.5364
  125MOL0     H16498   2.197  -0.269   4.782  0.4491  0.4389 -2.0371
  125MOL0     H16499   1.918  -0.113   4.887 -1.4419 -3.0558  0.2776
  125MOL0     H16500   1.953   0.114   4.954 -1.4279  1.3217  2.2581
  126MOL0     O16501   0.113   1.453  10.710  1.1002 -0.5849 -0.2142
  126MOL0     C16502   0.215   1.509  10.743 -0.3344  0.5389  0.6540
  126MOL0     O16503   0.247   1.565  10.871  0.7406  0.8881 -0.0668
  126MOL0     C16504   0.159   1.538  10.973  0.4345 -0.1046 -0.6112
  126MOL0     C16505   0.136   1.656  11.048 -0.5047  0.7029  0.4739
  126MOL0     C16506   0.047   1.642  11.158  0.1639  0.2592 -0.3250
  126MOL0     C16507  -0.019   1.524  11.207 -0.2278 -1.3785  0.5955
  126MOL0     O16508  -0.109   1.526  11.313  0.2325  0.5248  0.4691
  126MOL0     C16509  -0.212   1.428  11.321  0.1863  0.2737 -0.4591
  126MOL0     C16510  -0.287   1.487  11.437  0.0626  0.0398  0.4056
  126MOL0     C16511  -0.416   1.403  11.470 -0.9580  0.4566 -0.5887
  126MOL0     C16512  -0.526   1.421  11.367 -0.5326  0.9431  0.7566
  126MOL0     C16513  -0.611   1.301  11.376  0.8286 -0.3409 -0.6602
  126MOL0     C16514  -0.748   1.316  11.307  0.2981  0.1757  0.3751
  126MOL0     C16515  -0.822   1.186  11.282  0.3533  0.7835 -0.0495
  126MOL0     C16516  -0.977   1.220  11.245 -0.5144 -0.3906  0.2092
  126MOL0     N16517  -1.041   1.089  11.207 -0.0986 -0.5256 -0.3319
  126MOL0     C16518  -1.058   1.058  11.078 -0.1797 -0.0604  1.1406
  126MOL0     C16519  -1.131   0.941  11.083 -0.3859  0.7202  0.6149
  126MOL0     C16520  -1.197   0.868  10.965  0.0318 -0.5476 -0.0352
  126MOL0     C16521  -1.089   0.792  10.897  0.2138 -0.8819 -1.1026
  126MOL0     C16522  -1.059   0.644  10.935  0.1204  0.8760 -0.1717
  126MOL0     C16523  -1.014   0.626  11.076  0.1811 -0.6491  0.0103
  126MOL0     O16524  -0.894   0.702  11.104  0.5893 -0.2581  0.3189
  126MOL0     C16525  -0.860   0.713  11.238 -1.1693 -0.3089 -0.0936
  126MOL0     C16526  -0.925   0.665  11.350  0.4233  0.6936 -0.0769
  126MOL0     C16527  -0.876   0.702  11.476 -0.8643  0.1436  0.3087
  126MOL0     C16528  -0.759   0.784  11.488 -0.4963 -0.4789 -0.5894
  126MOL0     C16529  -0.696   0.815  11.616 -0.3205  0.4741 -0.0309
  126MOL0     O16530  -0.734   0.738  11.723  0.2389  0.3511  0.0695
  126MOL0     C16531  -0.700   0.775  11.846 -0.3054  0.7567 -0.9599
  126MOL0     C16532  -0.792   0.835  11.935 -0.1020  0.6229 -0.0632
  126MOL0     C16533  -0.755   0.865  12.064 -0.1063  0.1868  0.7542
  126MOL0     C16534  -0.634   0.818  12.113 -0.2085  0.0420 -0.3759
  126MOL0     O16535  -0.608   0.840  12.250 -0.5985 -0.7308 -1.2483
  126MOL0     C16536  -0.478   0.885  12.303 -0.6551 -0.7675  0.2038
  126MOL0     C16537  -0.490   0.864  12.448 -0.1536 -0.7554 -0.2349
  126MOL0     C16538  -0.360   0.884  12.531  0.1956  0.2231 -0.0256
  126MOL0     C16539  -0.315   1.028  12.548  1.3983 -0.1777 -0.0523
  126MOL0     C16540  -0.213   1.035  12.663  0.4795  1.0486  0.0357
  126MOL0     C16541  -0.175   1.185  12.674  0.0281 -0.6509  0.6675
  126MOL0     C16542  -0.058   1.202  12.777  0.4434  0.4701 -0.4712
  126MOL0     C16543  -0.072   1.324  12.862 -0.3059  0.3342  0.1182
  126MOL0    Cl16544  -0.031   1.465  12.760  0.0118  0.0054  0.0087
  126MOL0     C16545  -0.547   0.758  12.027 -0.8670  0.4374  0.3143
  126MOL0     C16546  -0.576   0.739  11.893  0.4659  0.2193 -0.7917
  126MOL0     O16547  -0.609   0.900  11.629 -0.1088  0.0518  0.9482
  126MOL0     C16548  -0.701   0.844  11.377  0.4234  0.4693 -0.1871
  126MOL0     C16549  -0.744   0.801  11.257  0.6371 -0.0247  0.4195
  126MOL0     N16550  -1.155   0.910  11.218 -0.7309 -0.1725 -0.8074
  126MOL0     N16551  -1.092   1.003  11.288  0.0925  0.0361 -0.0279
  126MOL0     C16552   0.004   1.415  11.126 -0.5328 -0.3514 -0.2681
  126MOL0     C16553   0.082   1.419  11.007  0.0255  0.7616  0.5419
  126MOL0     C16554   0.312   1.513  10.637  0.3905  0.1040  0.6977
  126MOL0     C16555   0.342   1.395  10.558 -0.1073  0.9895  0.3058
  126MOL0     C16556   0.434   1.397  10.455 -0.0798  0.3452 -0.1882
  126MOL0     C16557   0.490   1.519  10.422  0.4262 -0.3477  0.0719
  126MOL0     O16558   0.587   1.536  10.328 -0.4180  0.7755  0.0818
  126MOL0     C16559   0.632   1.422  10.244 -0.1728  0.3932  0.1165
  126MOL0     C16560   0.533   1.384  10.127  0.3780  1.1779  0.1304
  126MOL0     C16561   0.603   1.294  10.023  0.6938 -0.1599  0.2104
  126MOL0     C16562   0.508   1.261   9.908  0.8291  0.5397 -0.3785
  126MOL0     C16563   0.569   1.172   9.807  0.4081 -0.3869  0.3949
  126MOL0     C16564   0.608   1.093   9.729  0.6400 -0.5817  0.1687
  126MOL0     C16565   0.451   1.639  10.491  0.2038 -0.2520  0.6147
  126MOL0     C16566   0.369   1.637  10.601 -0.4934  0.2411 -0.3800
  126MOL0     H16567   0.182   1.749  11.019  1.5221 -0.3013  0.3249
  126MOL0     H16568   0.023   1.732  11.213 -2.3110  0.0291 -0.8973
  126MOL0     H16569  -0.174   1.327  11.341 -0.3641 -0.2547 -1.9183
  126MOL0     H16570  -0.267   1.422  11.227  0.1703  0.9495 -0.4952
  126MOL0     H16571  -0.313   1.593  11.431 -0.1819  0.0121  0.9284
  126MOL0     H16572  -0.220   1.471  11.521 -1.8177  0.3908  2.0606
  126MOL0     H16573  -0.450   1.423  11.573  2.6069  2.4340  0.3921
  126MOL0     H16574  -0.390   1.298  11.488 -1.8443  0.2118 -0.7340
  126MOL0     H16575  -0.593   1.507  11.381 -0.5822  0.4613  4.4298
  126MOL0     H16576  -0.484   1.425  11.266 -1.6167  1.5556  0.3135
  126MOL0     H16577  -0.628   1.271  11.480  0.7805  0.7324 -0.3528
  126MOL0     H16578  -0.558   1.219  11.325 -2.2453 -2.7021 -0.3747
  126MOL0     H16579  -0.730   1.377  11.219  2.2929 -3.9564 -2.4113
  126MOL0     H16580  -0.816   1.373  11.371 -1.2035  2.7959 -3.2417
  126MOL0     H16581  -0.770   1.123  11.210 -1.8334  1.0648 -2.0130
  126MOL0     H16582  -0.823   1.129  11.376  5.0811 -1.1487 -0.9212
  126MOL0     H16583  -0.979   1.286  11.158 -1.6558 -0.2745  0.3095
  126MOL0     H16584  -1.013   1.275  11.332 -1.5262 -0.0555 -0.4055
  126MOL0     H16585  -1.015   1.104  10.990  1.1036  0.8075  2.1885
  126MOL0     H16586  -1.247   0.935  10.894 -1.3903 -0.4179  1.0405
  126MOL0     H16587  -1.277   0.801  10.999 -2.9875  2.1000 -1.3503
  126MOL0     H16588  -1.001   0.856  10.897 -1.6438  1.8360 -0.4701
  126MOL0     H16589  -1.109   0.781  10.790  2.8094  0.9879 -1.8616
  126MOL0     H16590  -1.148   0.580  10.932 -0.1284  1.0899  1.6004
  126MOL0     H16591  -0.988   0.597  10.867  0.9807  1.5888  0.2250
  126MOL0     H16592  -1.002   0.518  11.089 -1.6810 -0.8267  0.6216
  126MOL0     H16593  -1.085   0.663  11.152  1.6704 -0.1669  1.2277
  126MOL0     H16594  -1.015   0.604  11.343 -0.7147  2.1219  1.3895
  126MOL0     H16595  -0.915   0.675  11.574 -0.9696 -0.0024  0.2274
  126MOL0     H16596  -0.894   0.863  11.910 -1.0896  0.5828  3.4187
  126MOL0     H16597  -0.810   0.933  12.127  1.8370  3.7255 -1.0662
  126MOL0     H16598  -0.458   0.988  12.273  0.0518 -1.2293 -0.9609
  126MOL0     H16599  -0.403   0.813  12.269 -1.8737 -3.1888  2.2892
  126MOL0     H16600  -0.523   0.760  12.455  2.1474 -1.5407 -0.1270
  126MOL0     H16601  -0.573   0.922  12.490 -2.1958 -4.0652  0.6637
  126MOL0     H16602  -0.287   0.813  12.490 -2.7627 -3.0525 -0.0572
  126MOL0     H16603  -0.393   0.837  12.625 -0.3604 -0.1063 -0.3776
  126MOL0     H16604  -0.272   1.074  12.459  2.2106  2.6892  1.7034
  126MOL0     H16605  -0.406   1.088  12.559 -0.6651 -2.8682 -1.0921
  126MOL0     H16606  -0.122   0.982  12.635 -1.5420 -0.9050 -3.6321
  126MOL0     H16607  -0.246   1.006  12.763  0.3144 -0.6426 -0.4880
  126MOL0     H16608  -0.267   1.235  12.705 -0.8296 -3.5028  3.2256
  126MOL0     H16609  -0.141   1.231  12.581 -1.6843 -2.0986 -0.7502
  126MOL0     H16610  -0.062   1.110  12.836 -2.7985  0.2262 -0.8789
  126MOL0     H16611   0.035   1.200  12.720  1.8244 -2.1599  1.6802
  126MOL0     H16612   0.010   1.323  12.934  1.0427  2.1081 -1.3098
  126MOL0     H16613  -0.171   1.329  12.908  0.5205 -0.0345  2.0102
  126MOL0     H16614  -0.448   0.728  12.062  0.1620  1.8442 -1.2484
  126MOL0     H16615  -0.510   0.700  11.815  2.1506  0.4799  0.4355
  126MOL0     H16616  -0.619   0.915  11.382  0.6660  0.1383  0.9680
  126MOL0     H16617  -0.693   0.842  11.171  0.8601  0.6856  0.8701
  126MOL0     H16618  -0.027   1.312  11.138 -1.3158 -0.0233  0.6204
  126MOL0     H16619   0.088   1.329  10.947  1.2600  0.5047  1.0151
  126MOL0     H16620   0.284   1.306  10.579  0.3073  0.4951 -0.6244
  126MOL0     H16621   0.465   1.306  10.406  1.4368  0.2171  0.9219
  126MOL0     H16622   0.667   1.339  10.307  1.1342  1.5042  0.9314
  126MOL0     H16623   0.711   1.466  10.182 -1.7849 -0.0111 -2.3418
  126MOL0     H16624   0.441   1.342  10.167 -1.8047  4.3609 -1.1458
  126MOL0     H16625   0.523   1.481  10.077  2.6887  0.5156 -1.8321
  126MOL0     H16626   0.633   1.197  10.064 -3.4664 -1.6561  0.2434
  126MOL0     H16627   0.697   1.340   9.990  0.4999  0.2189  0.1827
  126MOL0     H16628   0.422   1.203   9.944  1.1443  1.7101  2.5006
  126MOL0     H16629   0.462   1.350   9.865  0.5877  1.6833  2.1147
  126MOL0     H16630   0.641   1.016   9.662  0.8788  0.2769 -0.7272
  126MOL0     H16631   0.494   1.728  10.445 -0.1412 -1.8229 -3.0858
  126MOL0     H16632   0.339   1.719  10.664 -1.1811 -1.6051  1.8354
  127MOL0     O16633   6.340  10.848   2.914  0.4858 -0.4516  0.8993
  127MOL0     C16634   6.305  10.963   2.936 -0.6039 -0.4614  0.1276
  127MOL0     O16635   6.223  11.004   3.035 -1.1047  0.3259 -0.4511
  127MOL0     C16636   6.187  10.906   3.122 -0.1748  0.5688 -0.5293
  127MOL0     C16637   6.113  10.794   3.064  0.0809  0.3247 -0.5995
  127MOL0     C16638   6.071  10.687   3.156  0.1166  0.2586  0.7281
  127MOL0     C16639   6.114  10.687   3.292  0.7339 -0.3177  0.0053
  127MOL0     O16640   6.056  10.595   3.373  0.3230 -0.3060  0.4864
  127MOL0     C16641   6.093  10.563   3.502 -0.5217  0.0400 -0.9071
  127MOL0     C16642   6.225  10.483   3.528 -0.4956  0.2477  0.8924
  127MOL0     C16643   6.244  10.358   3.445  0.5462  0.0277  0.9976
  127MOL0     C16644   6.298  10.384   3.310  1.1611  0.9364  0.2297
  127MOL0     C16645   6.304  10.249   3.231  0.4091  0.6959  0.1288
  127MOL0     C16646   6.381  10.266   3.102 -0.1217 -0.3544  0.4863
  127MOL0     C16647   6.536  10.258   3.106 -0.7655 -0.7802  0.7104
  127MOL0     C16648   6.592  10.121   3.143 -0.5534  0.1154  0.5798
  127MOL0     N16649   6.582  10.028   3.030  0.2856 -0.3474  0.1622
  127MOL0     C16650   6.462   9.980   2.978 -0.1773  0.2031 -0.1597
  127MOL0     C16651   6.500   9.890   2.885 -0.4111  0.1925 -0.1664
  127MOL0     C16652   6.409   9.796   2.803  0.1388 -0.8810 -0.3372
  127MOL0     C16653   6.349   9.850   2.676 -0.0135  0.6460  0.0143
  127MOL0     C16654   6.233   9.779   2.614  0.0637  0.3192  0.5369
  127MOL0     C16655   6.257   9.637   2.575 -1.0685  0.9138 -0.1957
  127MOL0     O16656   6.249   9.558   2.694 -0.4580  0.6384 -1.3556
  127MOL0     C16657   6.276   9.418   2.693  0.8055 -0.0459  0.7460
  127MOL0     C16658   6.341   9.356   2.589  0.2864  0.4275 -0.0818
  127MOL0     C16659   6.338   9.213   2.591 -0.1253 -0.6590  0.2507
  127MOL0     C16660   6.277   9.139   2.691 -0.7184 -0.3334  1.0455
  127MOL0     C16661   6.317   9.003   2.693 -0.7959 -0.9216 -0.0337
  127MOL0     O16662   6.344   8.947   2.809  0.1272  0.5315 -0.8085
  127MOL0     C16663   6.384   8.820   2.831 -0.0504  0.4633  0.2641
  127MOL0     C16664   6.344   8.762   2.949 -0.4404  0.1703  0.7888
  127MOL0     C16665   6.401   8.637   2.987  0.2184 -0.2450  0.8104
  127MOL0     C16666   6.485   8.560   2.895  0.6835  0.1076 -2.2266
  127MOL0     O16667   6.528   8.431   2.920 -0.6197 -0.3563 -0.8755
  127MOL0     C16668   6.437   8.329   2.978 -0.0910 -0.7592 -0.2397
  127MOL0     C16669   6.498   8.199   2.922  0.4837 -0.1037  0.6193
  127MOL0     C16670   6.402   8.079   2.947  0.1695  0.0579  0.1104
  127MOL0     C16671   6.463   7.948   2.903  0.1745 -0.7518 -0.3434
  127MOL0     C16672   6.477   7.937   2.746 -0.5212  0.3295 -0.6229
  127MOL0     C16673   6.577   7.825   2.703 -0.4061 -0.0409  1.1511
  127MOL0     C16674   6.607   7.840   2.548 -1.2704 -0.3539  0.1927
  127MOL0     C16675   6.659   7.982   2.505 -0.8917  0.5937  0.6006
  127MOL0    Cl16676   6.821   8.002   2.583  0.5329  0.4464 -0.5558
  127MOL0     C16677   6.518   8.609   2.772 -0.6442 -0.0059  0.1773
  127MOL0     C16678   6.470   8.741   2.748  0.6912  0.3007 -0.9080
  127MOL0     O16679   6.321   8.937   2.586 -0.0457  0.0752 -0.7604
  127MOL0     C16680   6.212   9.203   2.793 -0.3845 -0.9873  0.9844
  127MOL0     C16681   6.212   9.342   2.787 -0.5604 -0.0324  0.6086
  127MOL0     N16682   6.643   9.877   2.886 -0.3166 -0.1972 -0.4469
  127MOL0     N16683   6.687   9.968   2.970 -0.0854  0.8734  0.7577
  127MOL0     C16684   6.171  10.807   3.338  0.2468  0.4349 -0.2632
  127MOL0     C16685   6.207  10.910   3.259 -0.2492  0.5416 -0.2673
  127MOL0     C16686   6.355  11.064   2.834  0.5352  0.2996 -0.0334
  127MOL0     C16687   6.298  11.188   2.824  0.6931  0.0549  0.1413
  127MOL0     C16688   6.331  11.282   2.726 -0.7649 -0.3738  0.0662
  127MOL0     C16689   6.418  11.247   2.622  0.2336 -0.1449 -0.5536
  127MOL0     O16690   6.452  11.350   2.534  0.3710 -0.1541 -0.8120
  127MOL0     C16691   6.535  11.312   2.425  0.5260  0.6677 -0.3124
  127MOL0     C16692   6.565  11.443   2.347  0.0924  0.0524 -0.9242
  127MOL0     C16693   6.645  11.407   2.226  0.5027 -0.3461 -0.7908
  127MOL0     C16694   6.688  11.533   2.146  0.2410  0.5715  0.0310
  127MOL0     C16695   6.581  11.617   2.100 -0.3976  0.0455 -0.4087
  127MOL0     C16696   6.491  11.689   2.058 -0.3164 -0.1202  0.1063
  127MOL0     C16697   6.480  11.118   2.629  0.3133  0.6927 -0.0375
  127MOL0     C16698   6.456  11.034   2.736 -0.2276  0.4594  0.5190
  127MOL0     H16699   6.092  10.781   2.958 -1.7347 -1.4977 -0.0881
  127MOL0     H16700   6.011  10.602   3.125 -4.5216  2.4264  2.8170
  127MOL0     H16701   6.003  10.510   3.534 -1.5518  0.0651 -3.5134
  127MOL0     H16702   6.104  10.650   3.568  1.0086 -3.4029  3.8941
  127MOL0     H16703   6.226  10.460   3.635  0.2314  1.8254  1.2367
  127MOL0     H16704   6.313  10.542   3.505 -0.4903  0.0906  0.4910
  127MOL0     H16705   6.144  10.312   3.443 -0.2403  1.4549 -3.4575
  127MOL0     H16706   6.315  10.289   3.490  2.5448  0.3013 -1.5366
  127MOL0     H16707   6.246  10.460   3.251 -0.8184 -1.1004 -0.8064
  127MOL0     H16708   6.402  10.416   3.320  1.7883 -0.6052 -1.0179
  127MOL0     H16709   6.203  10.212   3.213  1.2137 -0.3635 -2.6953
  127MOL0     H16710   6.345  10.172   3.298  0.1877 -1.0760 -1.7019
  127MOL0     H16711   6.360  10.365   3.059  0.0674 -0.5170  0.0166
  127MOL0     H16712   6.336  10.192   3.035  1.0882 -0.0640 -0.6967
  127MOL0     H16713   6.576  10.294   3.011  0.7846  2.4133  2.3925
  127MOL0     H16714   6.585  10.326   3.177  2.5450 -2.5009  0.2801
  127MOL0     H16715   6.529  10.087   3.227 -1.0980 -2.2371 -0.6889
  127MOL0     H16716   6.700  10.125   3.159 -0.1169  2.5853 -2.1103
  127MOL0     H16717   6.363  10.002   3.017  0.0043 -1.9898  1.7716
  127MOL0     H16718   6.330   9.766   2.873 -0.3967  5.8722  2.7666
  127MOL0     H16719   6.479   9.715   2.781 -1.6695 -2.7842  0.5605
  127MOL0     H16720   6.432   9.872   2.609  1.2863 -0.4072  1.2143
  127MOL0     H16721   6.298   9.941   2.710  2.2832  1.0838  2.7029
  127MOL0     H16722   6.140   9.790   2.670  1.2182  0.2701  2.5509
  127MOL0     H16723   6.204   9.841   2.528 -0.9752  1.2699  1.5451
  127MOL0     H16724   6.355   9.619   2.530  0.3586  3.8266  1.4629
  127MOL0     H16725   6.181   9.598   2.506  1.5915 -1.8394 -1.7773
  127MOL0     H16726   6.392   9.401   2.504  0.7182 -1.0585 -0.6448
  127MOL0     H16727   6.386   9.168   2.504 -0.0831  0.9120 -0.5813
  127MOL0     H16728   6.279   8.818   3.015 -0.3169  3.1584 -1.4175
  127MOL0     H16729   6.371   8.590   3.080  0.6529  1.2006  1.7129
  127MOL0     H16730   6.341   8.331   2.927 -0.4371 -1.4346  0.3729
  127MOL0     H16731   6.431   8.342   3.086  1.9586 -0.1885 -0.1540
  127MOL0     H16732   6.592   8.189   2.978  1.9843 -0.4725 -1.8100
  127MOL0     H16733   6.524   8.218   2.817  0.5015 -0.0272  0.6379
  127MOL0     H16734   6.306   8.077   2.894  0.5794  1.1436 -0.7290
  127MOL0     H16735   6.395   8.067   3.055 -0.7617  0.0458  0.0508
  127MOL0     H16736   6.560   7.947   2.954  0.7921 -0.8599 -1.4794
  127MOL0     H16737   6.403   7.866   2.944 -0.2781  0.5315  1.7194
  127MOL0     H16738   6.533   8.026   2.716  0.7491 -0.2342 -0.0013
  127MOL0     H16739   6.379   7.924   2.697 -1.5522  0.3852  1.3238
  127MOL0     H16740   6.548   7.721   2.715  0.7218 -0.8325 -2.0825
  127MOL0     H16741   6.671   7.842   2.757 -0.4919  2.8989  0.5774
  127MOL0     H16742   6.689   7.773   2.521 -0.2524  0.4316  1.2418
  127MOL0     H16743   6.525   7.804   2.485  0.5978 -4.5639 -0.1560
  127MOL0     H16744   6.590   8.063   2.531 -0.5345  1.3187 -0.6101
  127MOL0     H16745   6.680   7.979   2.398 -0.0536  0.9184  0.7445
  127MOL0     H16746   6.579   8.551   2.703  0.1003  0.3245  0.5518
  127MOL0     H16747   6.479   8.767   2.643 -4.1739 -3.5536 -2.7057
  127MOL0     H16748   6.162   9.136   2.863 -1.4432 -0.1240  1.0796
  127MOL0     H16749   6.153   9.398   2.858  3.1721  0.6983  3.4513
  127MOL0     H16750   6.194  10.813   3.444 -2.5009  1.0626  0.3751
  127MOL0     H16751   6.267  10.993   3.295  1.1856  1.3985 -4.0702
  127MOL0     H16752   6.218  11.226   2.888 -1.1787 -1.0609 -1.4216
  127MOL0     H16753   6.286  11.380   2.739 -0.4127 -0.0888 -0.7579
  127MOL0     H16754   6.480  11.249   2.355 -1.2614  0.9153  0.8095
  127MOL0     H16755   6.627  11.264   2.461 -2.9168 -5.5395  1.6865
  127MOL0     H16756   6.468  11.485   2.321  0.4427 -0.3648 -3.0491
  127MOL0     H16757   6.619  11.509   2.416 -1.9343  0.2952  0.5155
  127MOL0     H16758   6.592  11.329   2.170  1.4336 -2.4520  1.1156
  127MOL0     H16759   6.732  11.344   2.241  0.3472 -1.5142 -3.9338
  127MOL0     H16760   6.759  11.589   2.207  0.8208  2.8727 -2.5305
  127MOL0     H16761   6.728  11.503   2.049 -3.8243 -0.1971 -1.6114
  127MOL0     H16762   6.408  11.752   2.034 -2.9387 -3.1084  0.6761
  127MOL0     H16763   6.534  11.081   2.542  0.0842  0.3859 -0.0515
  127MOL0     H16764   6.513  10.944   2.751  1.4289  1.6666  1.8116
  128MOL0     O16765   6.080   1.300   0.407  0.1031 -0.1221 -0.5435
  128MOL0     C16766   6.156   1.400   0.402 -0.5479 -0.5845 -1.5488
  128MOL0     O16767   6.117   1.526   0.370  0.8831 -0.0357 -0.2638
  128MOL0     C16768   5.985   1.556   0.363  0.5844  0.5323  1.2581
  128MOL0     C16769   5.908   1.613   0.465  0.1747  0.0218 -0.4481
  128MOL0     C16770   5.775   1.640   0.438  0.2466  0.1374 -0.6319
  128MOL0     C16771   5.711   1.627   0.316 -0.0988 -1.1718 -0.6629
  128MOL0     O16772   5.581   1.656   0.287  0.1493  0.6144 -0.1018
  128MOL0     C16773   5.504   1.728   0.387  0.6097 -0.3205 -0.7232
  128MOL0     C16774   5.359   1.749   0.346  0.1464 -0.1110  0.6400
  128MOL0     C16775   5.337   1.828   0.211  0.0220  0.7083 -0.0367
  128MOL0     C16776   5.364   1.752   0.084 -0.3300  0.4397  0.9785
  128MOL0     C16777   5.277   1.813  -0.036  0.0184  0.7532  0.9033
  128MOL0     C16778   5.296   1.732  -0.172 -0.5906 -0.7590 -0.6437
  128MOL0     C16779   5.217   1.796  -0.287  1.2276  0.8320 -0.2833
  128MOL0     C16780   5.065   1.746  -0.267 -0.1082  0.2180 -0.6840
  128MOL0     N16781   5.048   1.600  -0.293  0.0910 -0.0637  0.2153
  128MOL0     C16782   5.133   1.512  -0.364 -0.0049 -0.7574 -0.1400
  128MOL0     C16783   5.077   1.397  -0.358 -0.1149  0.3436 -0.4857
  128MOL0     C16784   5.126   1.275  -0.440 -1.0853  0.5947  0.5269
  128MOL0     C16785   5.160   1.292  -0.583 -0.3729 -1.2214  0.7102
  128MOL0     C16786   5.025   1.280  -0.667  0.9870 -0.3534 -0.9615
  128MOL0     C16787   5.005   1.387  -0.780 -0.0235  0.4683  0.4745
  128MOL0     O16788   5.001   1.506  -0.708  0.7785  0.4808  0.1206
  128MOL0     C16789   4.935   1.602  -0.775 -0.3478  0.0579 -0.1889
  128MOL0     C16790   4.816   1.644  -0.720  0.8577  0.3995  0.2585
  128MOL0     C16791   4.723   1.722  -0.792  0.2776  0.9578  0.6965
  128MOL0     C16792   4.769   1.786  -0.913 -0.2623 -0.8443 -0.1877
  128MOL0     C16793   4.681   1.886  -0.975  0.2118  0.0738  0.5669
  128MOL0     O16794   4.546   1.857  -0.982  0.9702 -0.8637 -1.2721
  128MOL0     C16795   4.472   1.947  -1.062  0.1367 -1.1621  0.2261
  128MOL0     C16796   4.437   2.069  -1.007 -0.3070  0.1188 -1.3017
  128MOL0     C16797   4.348   2.155  -1.068 -0.2763  0.1213 -0.2157
  128MOL0     C16798   4.291   2.117  -1.187  0.8271  1.3517 -0.2960
  128MOL0     O16799   4.199   2.209  -1.224  0.6956  0.3833  0.3134
  128MOL0     C16800   4.234   2.257  -1.360  0.3758  0.4441 -0.8984
  128MOL0     C16801   4.184   2.389  -1.376 -0.4145 -0.5455  0.2910
  128MOL0     C16802   4.032   2.391  -1.373 -0.2849 -0.0468  0.2399
  128MOL0     C16803   3.991   2.493  -1.276  0.7726 -0.5387 -0.8143
  128MOL0     C16804   3.840   2.517  -1.258  0.1021  0.3135 -1.3588
  128MOL0     C16805   3.791   2.570  -1.392 -0.0108  0.4520 -0.1110
  128MOL0     C16806   3.637   2.596  -1.389 -0.8066 -0.1711 -0.4972
  128MOL0     C16807   3.580   2.627  -1.520 -0.2604  0.0700 -0.4834
  128MOL0    Cl16808   3.645   2.765  -1.605 -0.0341  0.4663 -0.0279
  128MOL0     C16809   4.326   1.994  -1.249 -0.3788 -0.0654  0.0015
  128MOL0     C16810   4.421   1.912  -1.188  0.9351  0.6119  0.2618
  128MOL0     O16811   4.736   1.969  -1.041  0.1526  0.5703 -0.2335
  128MOL0     C16812   4.897   1.747  -0.963  0.3577 -0.5679 -0.8948
  128MOL0     C16813   4.978   1.645  -0.904 -0.5129  0.7116 -0.1345
  128MOL0     N16814   4.959   1.409  -0.285 -0.9250  1.3992 -0.4902
  128MOL0     N16815   4.942   1.528  -0.235 -0.1392  0.1130  0.3690
  128MOL0     C16816   5.789   1.586   0.206 -0.8248  1.0389  0.0716
  128MOL0     C16817   5.923   1.555   0.235  0.6683  0.0644  0.0624
  128MOL0     C16818   6.295   1.373   0.452 -0.5654  0.0468  0.3891
  128MOL0     C16819   6.377   1.479   0.471 -0.2789  0.0768  0.7065
  128MOL0     C16820   6.516   1.460   0.495 -0.7742  0.0016  0.1115
  128MOL0     C16821   6.565   1.331   0.530 -0.5132  1.3985 -0.1633
  128MOL0     O16822   6.692   1.328   0.595 -0.0230 -0.2693  0.6732
  128MOL0     C16823   6.749   1.199   0.625  0.8060  0.2748  0.4922
  128MOL0     C16824   6.891   1.202   0.666  0.0327 -0.0271 -0.4517
  128MOL0     C16825   6.909   1.252   0.823 -0.9475  0.3189  0.2859
  128MOL0     C16826   7.045   1.309   0.852 -0.3844 -0.4109  0.1461
  128MOL0     C16827   7.058   1.438   0.772 -0.0663  0.2131  0.1631
  128MOL0     C16828   7.072   1.530   0.697  0.5629  0.3459 -0.1283
  128MOL0     C16829   6.472   1.229   0.521 -1.0324  0.0840 -0.5810
  128MOL0     C16830   6.342   1.249   0.483 -0.8516  0.3738 -0.8342
  128MOL0     H16831   5.945   1.645   0.561 -2.1316 -1.9570  1.2393
  128MOL0     H16832   5.723   1.667   0.530  0.4582 -1.8431  0.1404
  128MOL0     H16833   5.545   1.826   0.415 -1.4939 -0.3703  3.1939
  128MOL0     H16834   5.478   1.665   0.472 -1.2069 -0.1258 -1.0949
  128MOL0     H16835   5.301   1.795   0.426 -1.2891  0.7907 -0.8579
  128MOL0     H16836   5.322   1.647   0.334  1.8967 -0.6789 -0.4213
  128MOL0     H16837   5.406   1.913   0.218  0.7852  0.8015 -5.1369
  128MOL0     H16838   5.241   1.879   0.207 -0.5700 -0.4558 -1.1856
  128MOL0     H16839   5.468   1.753   0.050 -0.6676  1.0699 -0.0763
  128MOL0     H16840   5.330   1.649   0.101  0.0200  0.5430  2.4547
  128MOL0     H16841   5.307   1.917  -0.048 -0.6764  0.6110 -3.6709
  128MOL0     H16842   5.170   1.811  -0.012 -0.0267 -3.2326  1.0369
  128MOL0     H16843   5.276   1.627  -0.149 -2.7358 -0.0912  0.7670
  128MOL0     H16844   5.401   1.731  -0.202 -0.8730  1.8325 -2.0446
  128MOL0     H16845   5.226   1.905  -0.281  0.0632  0.8731  1.9131
  128MOL0     H16846   5.259   1.772  -0.385 -2.3092  0.7730 -1.9139
  128MOL0     H16847   5.010   1.798  -0.347  2.6329 -0.1296 -2.9717
  128MOL0     H16848   5.019   1.766  -0.170 -1.5224  1.5646 -1.6010
  128MOL0     H16849   5.232   1.537  -0.401 -0.0193 -2.5474 -1.4845
  128MOL0     H16850   5.050   1.195  -0.435  0.6540 -1.5767 -3.4294
  128MOL0     H16851   5.209   1.227  -0.387 -0.2766 -0.7221 -1.8034
  128MOL0     H16852   5.229   1.216  -0.621 -1.0259 -0.9620 -1.0862
  128MOL0     H16853   5.208   1.390  -0.594 -0.1108 -1.1818  2.0301
  128MOL0     H16854   5.021   1.182  -0.716  0.4863 -0.0161 -1.5963
  128MOL0     H16855   4.943   1.295  -0.596  1.5613 -0.4999 -0.2423
  128MOL0     H16856   4.928   1.367  -0.855 -2.1595  1.1295  2.3591
  128MOL0     H16857   5.093   1.395  -0.844 -0.2675  0.1388  0.0961
  128MOL0     H16858   4.776   1.605  -0.627 -1.6380  2.3378  0.0906
  128MOL0     H16859   4.623   1.749  -0.760 -0.0504 -1.2529  1.7276
  128MOL0     H16860   4.472   2.096  -0.909 -0.8816  0.6391 -1.2360
  128MOL0     H16861   4.325   2.248  -1.016 -0.9825  0.6026 -1.3201
  128MOL0     H16862   4.185   2.200  -1.439  0.1955 -0.3647 -0.2281
  128MOL0     H16863   4.342   2.257  -1.377  0.5851  0.1843  0.3147
  128MOL0     H16864   4.213   2.419  -1.477 -0.4757  2.8168  1.1676
  128MOL0     H16865   4.236   2.449  -1.300  1.3726 -2.7506  0.9552
  128MOL0     H16866   3.991   2.290  -1.355 -1.4502 -0.0992 -2.2947
  128MOL0     H16867   4.013   2.427  -1.474 -0.0409 -0.8388 -0.0996
  128MOL0     H16868   4.032   2.464  -1.178  0.3438 -0.6098 -0.6536
  128MOL0     H16869   4.034   2.588  -1.310  1.9983 -0.5760  0.5107
  128MOL0     H16870   3.835   2.592  -1.179  1.6544  0.8113 -1.6981
  128MOL0     H16871   3.783   2.426  -1.234 -1.3991  0.3058 -4.4149
  128MOL0     H16872   3.796   2.488  -1.465 -3.3829  1.9317 -2.2331
  128MOL0     H16873   3.842   2.663  -1.421 -0.4347  0.8302  0.3505
  128MOL0     H16874   3.590   2.509  -1.343  1.9132 -0.6076  1.7827
  128MOL0     H16875   3.612   2.683  -1.328  2.1544  0.4307  0.0122
  128MOL0     H16876   3.472   2.618  -1.509 -0.0866 -0.1775  1.3871
  128MOL0     H16877   3.604   2.535  -1.576 -4.1644 -2.0839  1.0122
  128MOL0     H16878   4.270   1.954  -1.332 -0.4924  2.2198 -1.0854
  128MOL0     H16879   4.434   1.812  -1.228 -0.8750  0.4993 -0.1114
  128MOL0     H16880   4.942   1.788  -1.053  0.4689  2.2896  0.3525
  128MOL0     H16881   5.072   1.610  -0.944 -2.4063 -3.5741 -1.3744
  128MOL0     H16882   5.750   1.573   0.105  2.7221  0.6166 -1.4116
  128MOL0     H16883   5.972   1.516   0.146 -2.1816  0.6319 -1.9144
  128MOL0     H16884   6.339   1.580   0.457 -0.5069 -0.0274  0.5649
  128MOL0     H16885   6.588   1.537   0.521  0.2942 -1.3506  1.3894
  128MOL0     H16886   6.739   1.144   0.531 -2.0720  1.4472 -0.0064
  128MOL0     H16887   6.683   1.158   0.702 -0.1470  0.4045 -0.2278
  128MOL0     H16888   6.932   1.101   0.655  0.0873  0.0725 -1.2355
  128MOL0     H16889   6.948   1.263   0.595 -2.9912  1.7452 -1.5511
  128MOL0     H16890   6.877   1.182   0.901 -7.1289  2.5056  0.2343
  128MOL0     H16891   6.846   1.336   0.852 -2.2015 -0.2257 -0.7455
  128MOL0     H16892   7.046   1.322   0.960 -2.8706 -1.7483  0.3960
  128MOL0     H16893   7.129   1.245   0.822 -1.5792 -1.2003 -1.7206
  128MOL0     H16894   7.086   1.608   0.626  0.6906 -0.4685 -1.0274
  128MOL0     H16895   6.496   1.127   0.547  2.4931  0.6886 -0.9904
  128MOL0     H16896   6.279   1.162   0.470  2.4640 -1.9461 -3.0374
  129MOL0     O16897  11.334  10.577   2.883  0.4986  0.6104  0.3559
  129MOL0     C16898  11.384  10.512   2.793 -0.2048  0.5382 -0.4078
  129MOL0     O16899  11.463  10.560   2.692 -0.2841  1.2888 -0.2791
  129MOL0     C16900  11.552  10.665   2.701  0.1755  0.5536 -0.0481
  129MOL0     C16901  11.621  10.693   2.583 -0.7577 -0.4789  0.2435
  129MOL0     C16902  11.717  10.792   2.574 -0.8345 -0.3193 -0.5949
  129MOL0     C16903  11.758  10.868   2.686 -0.4394 -0.7299  0.1916
  129MOL0     O16904  11.856  10.970   2.677  0.6104 -0.4163 -0.2291
  129MOL0     C16905  11.900  11.036   2.803  0.1206  0.5735 -0.5121
  129MOL0     C16906  12.011  11.142   2.777 -0.0489  0.3174  0.6657
  129MOL0     C16907  12.128  11.069   2.688  0.3134 -0.2497  0.6895
  129MOL0     C16908  12.253  11.153   2.663  0.1281 -0.7193  0.4509
  129MOL0     C16909  12.370  11.074   2.599 -0.6110 -0.7327  0.8846
  129MOL0     C16910  12.491  11.164   2.567 -0.7857 -1.4270 -0.1704
  129MOL0     C16911  12.527  11.269   2.674  0.4290 -0.3049 -0.2680
  129MOL0     C16912  12.659  11.353   2.663 -0.8220  0.2622 -0.1562
  129MOL0     N16913  12.659  11.475   2.741  0.3662  0.2164 -0.8733
  129MOL0     C16914  12.613  11.585   2.693 -0.8020 -0.4546 -0.4809
  129MOL0     C16915  12.646  11.679   2.782  0.5616 -0.4231  0.3429
  129MOL0     C16916  12.601  11.820   2.768  0.4057  0.7284 -0.4477
  129MOL0     C16917  12.456  11.821   2.830 -0.5774  0.4548  0.0157
  129MOL0     C16918  12.379  11.952   2.782  0.1143  0.1192 -0.1197
  129MOL0     C16919  12.360  11.961   2.626 -0.0969 -0.9877  0.3814
  129MOL0     O16920  12.312  11.836   2.575  0.6237  0.0694 -0.0848
  129MOL0     C16921  12.186  11.805   2.617  0.1385 -0.1359 -0.6472
  129MOL0     C16922  12.183  11.680   2.663  0.3132 -0.1109  0.2714
  129MOL0     C16923  12.074  11.623   2.723  0.0596  0.6953  0.7341
  129MOL0     C16924  11.949  11.692   2.734 -1.0065  0.6337  1.0992
  129MOL0     C16925  11.836  11.628   2.802  0.7644  0.8348  0.0039
  129MOL0     O16926  11.842  11.495   2.819 -0.0377  0.1061  0.0179
  129MOL0     C16927  11.726  11.427   2.801 -0.3375  1.2039 -0.3466
  129MOL0     C16928  11.638  11.407   2.918 -0.0607  0.0164  1.7990
  129MOL0     C16929  11.536  11.320   2.892 -0.1831 -0.7349 -0.1396
  129MOL0     C16930  11.501  11.265   2.766 -0.2735 -0.9844 -0.4100
  129MOL0     O16931  11.388  11.186   2.751 -0.2734  0.9020 -0.6101
  129MOL0     C16932  11.403  11.055   2.814  0.2825  0.6768  0.1087
  129MOL0     C16933  11.265  11.014   2.864  0.3069  0.9482 -0.4358
  129MOL0     C16934  11.270  10.909   2.977 -0.4781 -0.4139  1.0424
  129MOL0     C16935  11.361  10.940   3.098  0.0576  0.4172 -0.9174
  129MOL0     C16936  11.349  10.820   3.193 -0.1388  0.3993 -0.7360
  129MOL0     C16937  11.476  10.802   3.272 -0.8498 -1.0122  0.4598
  129MOL0     C16938  11.516  10.939   3.344  0.1178 -0.3591 -0.4060
  129MOL0     C16939  11.600  10.883   3.463 -0.2474  0.0711  0.9351
  129MOL0    Cl16940  11.668  11.015   3.560 -0.1965  0.4569 -0.0462
  129MOL0     C16941  11.588  11.286   2.655 -0.1494 -0.6199 -0.2895
  129MOL0     C16942  11.702  11.366   2.678  0.5508 -1.2725  0.5285
  129MOL0     O16943  11.738  11.695   2.823  0.1364 -0.7842  0.0309
  129MOL0     C16944  11.948  11.827   2.690 -0.6292  0.0887 -0.6774
  129MOL0     C16945  12.068  11.891   2.642 -0.0859 -0.1344  0.0933
  129MOL0     N16946  12.716  11.626   2.888  0.5172 -0.1036  0.1559
  129MOL0     N16947  12.722  11.502   2.859  0.0337  0.0272 -0.4904
  129MOL0     C16948  11.687  10.828   2.805 -0.2607 -0.3381 -0.5533
  129MOL0     C16949  11.578  10.740   2.809 -0.3763  0.2593  0.2132
  129MOL0     C16950  11.345  10.369   2.786 -0.8941  0.2315  0.1734
  129MOL0     C16951  11.238  10.309   2.846 -0.5156 -0.2050  0.4441
  129MOL0     C16952  11.211  10.170   2.817  0.5944 -0.1430  0.6337
  129MOL0     C16953  11.296  10.095   2.733  0.0118 -0.6084  0.4730
  129MOL0     O16954  11.279   9.962   2.711 -1.1926 -0.2061  0.4201
  129MOL0     C16955  11.168   9.889   2.769 -0.5459  0.1018  0.6307
  129MOL0     C16956  11.042   9.923   2.687  0.0686  0.3119 -0.6380
  129MOL0     C16957  11.032   9.857   2.550 -0.5040 -0.2508 -0.0934
  129MOL0     C16958  10.906   9.908   2.485  0.6093 -0.1026 -0.3838
  129MOL0     C16959  10.782   9.852   2.554  0.7375  0.2494  0.7819
  129MOL0     C16960  10.684   9.801   2.612 -0.7710  1.4271  0.5279
  129MOL0     C16961  11.408  10.155   2.673 -0.4571 -0.4117 -0.6581
  129MOL0     C16962  11.430  10.289   2.700  0.4495  0.3192 -1.1029
  129MOL0     H16963  11.600  10.649   2.486  1.4277 -0.6923 -0.1957
  129MOL0     H16964  11.770  10.798   2.479  1.4116 -1.4875  0.5105
  129MOL0     H16965  11.937  10.952   2.862 -0.2026 -0.2478 -1.4499
  129MOL0     H16966  11.808  11.077   2.845 -2.2515  0.6224 -5.1094
  129MOL0     H16967  12.047  11.186   2.870  0.5957 -2.5040  1.8457
  129MOL0     H16968  11.959  11.222   2.723  2.9590  0.8596 -1.7432
  129MOL0     H16969  12.099  11.042   2.587  1.6602  0.7779 -0.0055
  129MOL0     H16970  12.160  10.979   2.741  1.1314 -0.0157  0.6128
  129MOL0     H16971  12.236  11.236   2.593  1.3311  2.8186  3.9737
  129MOL0     H16972  12.280  11.204   2.756  2.4291  1.4055 -1.2529
  129MOL0     H16973  12.356  11.018   2.506  4.8488 -0.2461 -0.5698
  129MOL0     H16974  12.405  11.011   2.681 -0.6867 -1.6663  0.2206
  129MOL0     H16975  12.479  11.227   2.479  1.6911  1.4620  1.3814
  129MOL0     H16976  12.583  11.105   2.566  1.9247  2.1325  3.8561
  129MOL0     H16977  12.452  11.348   2.685  0.1030 -0.5527 -0.6628
  129MOL0     H16978  12.517  11.208   2.764  0.2890 -0.5346 -0.4383
  129MOL0     H16979  12.669  11.396   2.563  0.0129  0.6716  0.0890
  129MOL0     H16980  12.747  11.297   2.694 -0.9730  1.0729  1.9068
  129MOL0     H16981  12.561  11.594   2.598 -4.5257  0.9917  1.4989
  129MOL0     H16982  12.581  11.850   2.665 -2.4120  2.1570  0.4101
  129MOL0     H16983  12.672  11.896   2.800  1.0388 -0.0547  0.0576
  129MOL0     H16984  12.463  11.827   2.939 -2.6949 -0.7237  0.2643
  129MOL0     H16985  12.404  11.729   2.802 -3.3890  1.2169  2.2478
  129MOL0     H16986  12.281  11.956   2.832  1.0842  0.4207  1.8848
  129MOL0     H16987  12.424  12.043   2.822  0.1853 -0.2164  0.5829
  129MOL0     H16988  12.460  11.984   2.587 -1.3169  0.9242 -1.8753
  129MOL0     H16989  12.306  12.051   2.595  0.9116  1.1866  4.2407
  129MOL0     H16990  12.269  11.613   2.663  1.4172  0.9425 -3.9478
  129MOL0     H16991  12.080  11.518   2.749 -0.3245  0.0902 -1.3980
  129MOL0     H16992  11.662  11.442   3.018 -2.4010 -1.1575  2.8651
  129MOL0     H16993  11.468  11.293   2.973 -3.0977 -1.0551 -2.5072
  129MOL0     H16994  11.480  11.042   2.890 -2.1277 -3.2672  2.2116
  129MOL0     H16995  11.429  10.991   2.729 -1.1100  2.8449 -2.0875
  129MOL0     H16996  11.208  10.972   2.780 -1.0869  0.0576  0.9067
  129MOL0     H16997  11.204  11.092   2.912 -1.1620  2.4169 -4.2884
  129MOL0     H16998  11.307  10.820   2.926  2.4657  2.3495 -2.2534
  129MOL0     H16999  11.169  10.901   3.019 -0.2651 -3.0616  1.2032
  129MOL0     H17000  11.465  10.964   3.073  0.2941  2.4687  1.5988
  129MOL0     H17001  11.315  11.029   3.142 -2.4615 -0.8086 -0.8972
  129MOL0     H17002  11.322  10.735   3.130 -1.4369  0.7471 -0.6832
  129MOL0     H17003  11.271  10.848   3.265  2.0721  3.1285  0.8000
  129MOL0     H17004  11.566  10.772   3.217  2.7838  2.6545  3.7676
  129MOL0     H17005  11.451  10.718   3.337  1.2551 -2.1192 -0.0801
  129MOL0     H17006  11.582  11.001   3.283  3.4000 -0.8933  2.3327
  129MOL0     H17007  11.435  10.992   3.396 -0.6238 -2.8374  1.1534
  129MOL0     H17008  11.682  10.821   3.424 -0.3989  1.8064 -2.4751
  129MOL0     H17009  11.546  10.819   3.534 -1.6222  0.6159  0.4140
  129MOL0     H17010  11.569  11.243   2.557 -1.7425 -0.4926 -0.0630
  129MOL0     H17011  11.777  11.388   2.604 -1.3303 -1.1288 -1.4230
  129MOL0     H17012  11.876  11.908   2.696 -2.4317 -1.4973 -0.3109
  129MOL0     H17013  12.071  11.997   2.621 -3.9361 -0.0721 -0.9208
  129MOL0     H17014  11.712  10.870   2.901 -0.6713 -2.0586  0.3483
  129MOL0     H17015  11.534  10.719   2.906  0.2051 -2.4427 -0.0226
  129MOL0     H17016  11.179  10.363   2.918 -0.8770  0.9085 -0.6485
  129MOL0     H17017  11.111  10.144   2.848 -1.7300  2.0526 -3.9402
  129MOL0     H17018  11.158   9.915   2.874 -3.1951  1.1138  0.1936
  129MOL0     H17019  11.191   9.782   2.769  0.1754  0.2446 -0.2221
  129MOL0     H17020  10.968   9.870   2.748 -1.7052 -1.7266 -4.2329
  129MOL0     H17021  11.025  10.030   2.679 -0.7945  0.0774 -2.7224
  129MOL0     H17022  11.036   9.748   2.550  0.2404 -0.2455 -1.6250
  129MOL0     H17023  11.113   9.896   2.488 -0.2729  0.1520  0.4556
  129MOL0     H17024  10.911  10.017   2.490 -0.3686 -0.0840  0.5256
  129MOL0     H17025  10.908   9.884   2.378  1.8528  0.9759 -0.6187
  129MOL0     H17026  10.602   9.755   2.664 -0.3151  0.2426  0.2493
  129MOL0     H17027  11.476  10.097   2.611  0.7687 -0.4247  0.6383
  129MOL0     H17028  11.509  10.336   2.643 -0.5306  0.2714 -2.5443
  130MOL0     O17029   3.522   4.851   3.833  0.5017 -0.5072 -0.3164
  130MOL0     C17030   3.525   4.773   3.740  0.1599  0.4615  0.4968
  130MOL0     O17031   3.626   4.678   3.726  0.3003 -0.0629 -0.7403
  130MOL0     C17032   3.708   4.663   3.837 -0.3360  0.3576  0.5970
  130MOL0     C17033   3.692   4.538   3.901  0.1155 -0.2315 -0.3825
  130MOL0     C17034   3.784   4.498   4.003  0.2848 -0.3463  0.6387
  130MOL0     C17035   3.891   4.573   4.037 -1.0533 -0.1285 -0.7528
  130MOL0     O17036   3.973   4.539   4.144  0.0638  0.9847 -0.4730
  130MOL0     C17037   4.050   4.435   4.096  0.2283  0.2714  0.5669
  130MOL0     C17038   4.062   4.340   4.220 -0.0862 -0.5805  0.3996
  130MOL0     C17039   4.095   4.403   4.361 -1.0500 -0.9411 -0.5499
  130MOL0     C17040   4.243   4.458   4.370  1.4201  0.0484  0.0112
  130MOL0     C17041   4.262   4.499   4.516 -0.6155  0.4570  0.3388
  130MOL0     C17042   4.254   4.385   4.616  0.3071  0.2196 -0.0551
  130MOL0     C17043   4.342   4.411   4.734  0.0733 -0.7875  0.3561
  130MOL0     C17044   4.256   4.508   4.826  0.1226 -0.2566  0.1266
  130MOL0     N17045   4.316   4.487   4.960  0.4830  0.0216 -0.3951
  130MOL0     C17046   4.291   4.377   5.033 -0.0018 -0.3551  0.0075
  130MOL0     C17047   4.374   4.391   5.138  0.7625  0.8348  0.3935
  130MOL0     C17048   4.379   4.285   5.246  0.0826  0.7788 -0.3323
  130MOL0     C17049   4.502   4.290   5.331  0.5492  0.8399 -0.7020
  130MOL0     C17050   4.526   4.175   5.431  0.0275  0.1805 -0.5416
  130MOL0     C17051   4.458   4.035   5.394  1.0832 -0.0200  0.1817
  130MOL0     O17052   4.525   3.994   5.272  0.0786 -0.1589 -0.7733
  130MOL0     C17053   4.661   3.949   5.279  0.6993 -0.4299  0.4532
  130MOL0     C17054   4.746   3.954   5.166  0.4087  0.2642 -0.4916
  130MOL0     C17055   4.878   3.912   5.174 -1.4163  0.1204 -0.1747
  130MOL0     C17056   4.941   3.870   5.296  0.0866  0.3570 -1.2639
  130MOL0     C17057   5.085   3.830   5.307 -0.8116  0.5090 -0.8123
  130MOL0     O17058   5.125   3.764   5.426  1.2103 -0.0991  0.2722
  130MOL0     C17059   5.245   3.696   5.433  0.1362  0.0479 -0.3822
  130MOL0     C17060   5.234   3.567   5.419 -0.4546 -0.1218 -1.4238
  130MOL0     C17061   5.350   3.490   5.393  0.4084 -0.6585 -0.0542
  130MOL0     C17062   5.469   3.549   5.370 -0.1439 -0.4236  0.9447
  130MOL0     O17063   5.557   3.454   5.329  0.1479 -0.2872  0.2865
  130MOL0     C17064   5.698   3.498   5.324 -0.1002  0.7730  0.7021
  130MOL0     C17065   5.742   3.577   5.203 -0.3158  0.1953  0.8271
  130MOL0     C17066   5.897   3.607   5.232 -0.1821  0.0548  0.4977
  130MOL0     C17067   5.919   3.720   5.328 -0.8432  0.6477  0.9797
  130MOL0     C17068   6.062   3.713   5.372 -0.5874 -0.7045 -0.3156
  130MOL0     C17069   6.085   3.805   5.485  0.0241  0.9167 -0.1083
  130MOL0     C17070   6.221   3.796   5.539 -0.1274  0.0297  0.2026
  130MOL0     C17071   6.266   3.919   5.631 -0.3453  0.0557  0.3191
  130MOL0    Cl17072   6.173   3.903   5.788 -0.4443  0.0854  0.2284
  130MOL0     C17073   5.484   3.687   5.385  0.1780 -0.1027  0.1769
  130MOL0     C17074   5.363   3.758   5.407 -0.6618  0.6097  0.1197
  130MOL0     O17075   5.159   3.842   5.210  0.7387  0.4912 -0.5043
  130MOL0     C17076   4.846   3.835   5.400 -0.4523 -1.0158 -0.6208
  130MOL0     C17077   4.721   3.903   5.393 -0.0126 -0.0256 -0.2957
  130MOL0     N17078   4.433   4.516   5.129 -0.1107  0.6148 -0.0556
  130MOL0     N17079   4.391   4.578   5.027  0.2837 -0.0133  0.7508
  130MOL0     C17080   3.912   4.683   3.957  0.3831 -0.2007 -0.4516
  130MOL0     C17081   3.823   4.736   3.858 -0.4045  0.6212 -0.1801
  130MOL0     C17082   3.440   4.808   3.630  0.9340  0.6893 -0.2058
  130MOL0     C17083   3.325   4.900   3.653 -1.2294 -0.2080 -0.4319
  130MOL0     C17084   3.246   4.940   3.545 -0.5234 -0.2368 -1.0869
  130MOL0     C17085   3.259   4.874   3.425 -0.2466  1.5394 -0.5919
  130MOL0     O17086   3.182   4.921   3.332  0.4734  0.2528  1.2556
  130MOL0     C17087   3.215   4.894   3.188  0.0659  0.2125  0.7756
  130MOL0     C17088   3.083   4.839   3.120 -0.6064  0.3462  0.3100
  130MOL0     C17089   3.065   4.685   3.123  1.0276 -0.0843  0.6986
  130MOL0     C17090   2.991   4.637   3.000 -0.2611 -0.0129  0.1752
  130MOL0     C17091   3.082   4.655   2.886  0.3093 -0.2818 -0.4345
  130MOL0     C17092   3.161   4.646   2.791  0.3178 -0.1036  0.2074
  130MOL0     C17093   3.351   4.764   3.414 -0.4092  0.3346 -0.4426
  130MOL0     C17094   3.457   4.746   3.511  0.1476 -0.9991  0.0489
  130MOL0     H17095   3.609   4.476   3.870  0.5514 -0.8073 -0.4075
  130MOL0     H17096   3.768   4.411   4.066  1.1295 -1.8327 -1.1143
  130MOL0     H17097   4.147   4.483   4.080 -0.5487  1.0148 -2.9184
  130MOL0     H17098   4.012   4.373   4.014  0.5087  1.2965 -0.3652
  130MOL0     H17099   4.131   4.258   4.199 -3.0588 -2.6952 -1.8935
  130MOL0     H17100   3.962   4.299   4.210 -2.7640  4.7728  1.4108
  130MOL0     H17101   4.079   4.321   4.431 -2.0493 -2.1662 -2.1289
  130MOL0     H17102   4.022   4.475   4.397 -1.7078 -2.5067  1.4517
  130MOL0     H17103   4.321   4.385   4.344  0.0761 -1.5273  0.1971
  130MOL0     H17104   4.240   4.538   4.296 -3.6321 -0.2217 -0.4102
  130MOL0     H17105   4.193   4.580   4.539  1.7151  2.9228 -0.7519
  130MOL0     H17106   4.364   4.538   4.530  1.3400 -4.4344  1.7767
  130MOL0     H17107   4.299   4.295   4.572  2.1337 -1.1379  4.0732
  130MOL0     H17108   4.158   4.356   4.660  1.9598 -2.0694  2.3742
  130MOL0     H17109   4.362   4.321   4.792  1.7067  0.5164  1.9675
  130MOL0     H17110   4.436   4.453   4.698 -0.7622 -0.0265 -1.0246
  130MOL0     H17111   4.152   4.477   4.820  0.3603 -0.9139 -1.1417
  130MOL0     H17112   4.268   4.615   4.809 -1.4972  0.0544  0.8312
  130MOL0     H17113   4.221   4.298   5.005  0.1928 -0.7323  0.5522
  130MOL0     H17114   4.375   4.187   5.198  1.7409 -0.8120  2.5271
  130MOL0     H17115   4.293   4.288   5.314  0.2963  5.1944  0.0503
  130MOL0     H17116   4.499   4.386   5.384 -0.8158  0.4993 -0.0920
  130MOL0     H17117   4.584   4.294   5.260  1.4122 -0.3033  0.1965
  130MOL0     H17118   4.635   4.164   5.433  0.0101 -1.0065  3.5081
  130MOL0     H17119   4.511   4.211   5.534  1.1837  1.4852 -0.7915
  130MOL0     H17120   4.352   4.052   5.376  1.1459  0.2170  0.0249
  130MOL0     H17121   4.460   3.964   5.477 -4.6839 -1.9580 -0.8858
  130MOL0     H17122   4.703   3.984   5.072  1.3216 -0.0600 -1.0266
  130MOL0     H17123   4.927   3.912   5.077 -0.8851  3.2676 -0.0035
  130MOL0     H17124   5.145   3.507   5.433 -1.3705  1.8252  2.4645
  130MOL0     H17125   5.330   3.386   5.374 -1.8922 -0.2287 -0.2088
  130MOL0     H17126   5.759   3.407   5.331 -2.7801 -1.2377  0.0373
  130MOL0     H17127   5.719   3.560   5.411 -3.0860 -0.9321  2.8492
  130MOL0     H17128   5.695   3.675   5.195  0.9039  0.6057 -3.6044
  130MOL0     H17129   5.723   3.510   5.119  0.4444 -1.0061  1.5705
  130MOL0     H17130   5.956   3.631   5.143  1.3935  2.1437  2.0172
  130MOL0     H17131   5.948   3.519   5.271  1.0223  0.1519 -0.7725
  130MOL0     H17132   5.897   3.805   5.263  0.2640 -0.6034 -1.1401
  130MOL0     H17133   5.848   3.708   5.411  1.4236 -0.6569  2.8564
  130MOL0     H17134   6.125   3.750   5.291 -1.9102  0.2013 -0.9739
  130MOL0     H17135   6.084   3.609   5.398  0.5188 -0.2795  0.5414
  130MOL0     H17136   6.002   3.796   5.555  0.2413  2.0804  0.3174
  130MOL0     H17137   6.073   3.909   5.453  0.5552  1.8163  2.3675
  130MOL0     H17138   6.231   3.704   5.597  1.3418  1.4087  2.2833
  130MOL0     H17139   6.287   3.793   5.452  0.5900  0.8388  0.6991
  130MOL0     H17140   6.250   4.020   5.592 -0.7780  0.8221  2.3640
  130MOL0     H17141   6.373   3.904   5.646 -0.8160 -2.0159  2.0820
  130MOL0     H17142   5.574   3.735   5.349  1.5947 -2.6129  0.1886
  130MOL0     H17143   5.361   3.866   5.396  0.8087  0.7560  1.0478
  130MOL0     H17144   4.869   3.789   5.496  0.1727  1.7022  0.6468
  130MOL0     H17145   4.665   3.912   5.485  1.7983 -0.1623  0.8794
  130MOL0     H17146   4.009   4.726   3.979  1.0736  0.2948 -3.8984
  130MOL0     H17147   3.848   4.822   3.797 -3.1910  2.3161  0.8743
  130MOL0     H17148   3.318   4.949   3.750 -0.5406  3.2223 -1.9701
  130MOL0     H17149   3.177   5.023   3.556  1.4185  1.0254  4.4080
  130MOL0     H17150   3.296   4.824   3.168 -1.0936 -0.7751 -0.7234
  130MOL0     H17151   3.230   4.996   3.154  0.6628  0.3088  1.3046
  130MOL0     H17152   3.007   4.891   3.178 -1.7722 -0.2086 -0.6804
  130MOL0     H17153   3.080   4.876   3.017  4.0559 -0.6805 -0.4111
  130MOL0     H17154   3.015   4.651   3.214 -0.7125 -1.9109 -0.8417
  130MOL0     H17155   3.160   4.632   3.137 -0.0024 -2.0113  0.6620
  130MOL0     H17156   2.961   4.532   3.006  1.3173 -0.5265 -0.4947
  130MOL0     H17157   2.905   4.703   2.983 -0.1723 -0.0097 -0.2703
  130MOL0     H17158   3.242   4.645   2.721  0.1205  1.4208 -0.0764
  130MOL0     H17159   3.349   4.698   3.328 -0.0943 -0.1487 -0.0799
  130MOL0     H17160   3.535   4.672   3.496  1.0504 -0.4636  1.7725
  131MOL0     O17161   0.198  10.541   2.037 -0.7120 -0.0348 -0.3527
  131MOL0     C17162   0.267  10.473   2.115  0.1056 -0.5885 -0.2495
  131MOL0     O17163   0.220  10.412   2.229 -0.5766 -0.8995  0.3589
  131MOL0     C17164   0.093  10.432   2.260  0.5031  1.1181 -0.3613
  131MOL0     C17165   0.025  10.323   2.308 -0.3958  0.0486  0.0343
  131MOL0     C17166  -0.116  10.328   2.340  1.4946 -0.3706 -1.6129
  131MOL0     C17167  -0.185  10.449   2.335  0.4043  0.0979  1.0460
  131MOL0     O17168  -0.318  10.443   2.366  1.0405 -0.1798 -0.6226
  131MOL0     C17169  -0.369  10.558   2.433 -1.2764  0.6023 -0.5792
  131MOL0     C17170  -0.507  10.520   2.466  0.5254 -0.2318 -0.2874
  131MOL0     C17171  -0.586  10.648   2.491  0.7510 -0.9895 -0.3488
  131MOL0     C17172  -0.563  10.700   2.632  0.2641  0.0257  0.9119
  131MOL0     C17173  -0.651  10.830   2.641 -0.3121 -0.5646 -1.1010
  131MOL0     C17174  -0.647  10.893   2.783 -1.3245  0.0638 -1.1534
  131MOL0     C17175  -0.714  11.031   2.793  0.7436 -0.5279 -1.3425
  131MOL0     C17176  -0.626  11.151   2.761 -0.7852  0.2018  0.0847
  131MOL0     N17177  -0.571  11.236   2.876 -0.3994  0.6456 -0.3735
  131MOL0     C17178  -0.488  11.342   2.850  0.1534 -0.0149  0.8740
  131MOL0     C17179  -0.450  11.381   2.977 -0.3947  0.4564  0.5867
  131MOL0     C17180  -0.329  11.465   3.011 -0.4156  0.7244 -0.1943
  131MOL0     C17181  -0.252  11.514   2.882  0.6766 -0.1064 -0.2412
  131MOL0     C17182  -0.144  11.623   2.913  1.0654  0.0855 -0.3304
  131MOL0     C17183  -0.056  11.664   2.793  1.1363  0.4843 -0.0764
  131MOL0     O17184  -0.144  11.716   2.691 -0.3516 -0.0319  0.0602
  131MOL0     C17185  -0.165  11.644   2.579  0.1540 -0.5861 -0.0137
  131MOL0     C17186  -0.149  11.507   2.555  0.4389  1.4473  0.0965
  131MOL0     C17187  -0.177  11.441   2.433 -1.0985 -0.0830  0.7684
  131MOL0     C17188  -0.215  11.530   2.323  0.5051 -0.8893 -0.3941
  131MOL0     C17189  -0.269  11.463   2.201  0.0254 -0.7967  0.2990
  131MOL0     O17190  -0.354  11.532   2.129  0.3862 -0.5060 -0.3463
  131MOL0     C17191  -0.400  11.468   2.018 -0.0494 -1.2724  0.3033
  131MOL0     C17192  -0.543  11.442   2.014  0.5301 -0.0659  0.7438
  131MOL0     C17193  -0.592  11.392   1.895 -0.2539 -0.6060  0.0280
  131MOL0     C17194  -0.506  11.369   1.785  0.3152  0.8546  0.7805
  131MOL0     O17195  -0.555  11.332   1.660 -0.2636 -1.4240  0.7760
  131MOL0     C17196  -0.684  11.277   1.641 -0.5257 -0.0092 -1.2680
  131MOL0     C17197  -0.687  11.217   1.504  0.0554  0.1506  0.1820
  131MOL0     C17198  -0.833  11.171   1.475 -0.1233  0.4670  0.4203
  131MOL0     C17199  -0.827  11.094   1.347 -0.6134  0.1476  0.4998
  131MOL0     C17200  -0.966  11.035   1.330 -0.5215 -0.0234 -0.0053
  131MOL0     C17201  -0.957  10.913   1.225  0.0579  0.2072  0.4717
  131MOL0     C17202  -1.103  10.857   1.182 -0.3389 -0.6133 -0.0295
  131MOL0     C17203  -1.149  10.744   1.277  0.2896 -0.2302  0.1371
  131MOL0    Cl17204  -1.069  10.592   1.219  0.0581 -0.3520  0.0174
  131MOL0     C17205  -0.374  11.381   1.792 -1.5732 -0.5760  0.0266
  131MOL0     C17206  -0.317  11.447   1.909  0.9188  0.7341  0.3316
  131MOL0     O17207  -0.227  11.353   2.190 -0.2159  0.7466  0.7966
  131MOL0     C17208  -0.233  11.666   2.345 -0.6103  0.6665  0.0245
  131MOL0     C17209  -0.204  11.719   2.474 -0.1419  0.5558 -1.4270
  131MOL0     N17210  -0.514  11.305   3.075  0.0013 -0.1806  0.4383
  131MOL0     N17211  -0.585  11.219   3.011  0.4487  0.0478  0.0196
  131MOL0     C17212  -0.113  10.562   2.286 -0.0126  0.5206 -1.0481
  131MOL0     C17213   0.020  10.550   2.253 -0.9376 -0.4332 -0.5531
  131MOL0     C17214   0.412  10.462   2.077 -1.3371  0.5152  0.6514
  131MOL0     C17215   0.500  10.397   2.164  0.5152 -0.1921 -0.1386
  131MOL0     C17216   0.634  10.380   2.130  0.3449  0.4869  0.2052
  131MOL0     C17217   0.690  10.420   2.013  0.4258  0.7257  1.1399
  131MOL0     O17218   0.816  10.381   1.977  0.7637 -0.3789 -0.8210
  131MOL0     C17219   0.870  10.431   1.859  0.3585 -0.6292 -0.8533
  131MOL0     C17220   1.026  10.432   1.871 -0.3369  0.1893  0.0265
  131MOL0     C17221   1.098  10.474   1.736  0.4419 -1.1485 -0.4990
  131MOL0     C17222   1.245  10.495   1.738  0.2042 -0.3117  0.3574
  131MOL0     C17223   1.275  10.553   1.602  0.1973  0.1725  0.2807
  131MOL0     C17224   1.292  10.589   1.487 -0.5038 -0.2406  0.5278
  131MOL0     C17225   0.611  10.500   1.935  0.9697  0.6531  0.3403
  131MOL0     C17226   0.471  10.518   1.964  0.9183  0.5337  0.6242
  131MOL0     H17227   0.090  10.236   2.310  0.1389  0.3648 -1.7982
  131MOL0     H17228  -0.152  10.241   2.394  5.0177 -1.2248 -0.3170
  131MOL0     H17229  -0.368  10.644   2.365  1.4880  1.5877  0.5638
  131MOL0     H17230  -0.329  10.599   2.526  1.0153  2.8612 -2.3739
  131MOL0     H17231  -0.521  10.449   2.548  0.3673 -0.3847 -0.4452
  131MOL0     H17232  -0.548  10.477   2.374  0.1838  1.6642 -1.0768
  131MOL0     H17233  -0.692  10.631   2.467  0.0987  1.7388  0.2029
  131MOL0     H17234  -0.566  10.731   2.422 -0.1110 -1.9055 -1.7461
  131MOL0     H17235  -0.585  10.625   2.709  0.2450  0.2445  1.1199
  131MOL0     H17236  -0.461  10.739   2.637  0.8473 -1.3917  0.4578
  131MOL0     H17237  -0.759  10.815   2.635 -0.7875  2.1590 -0.6066
  131MOL0     H17238  -0.627  10.899   2.560  1.0576 -0.5856 -0.7333
  131MOL0     H17239  -0.545  10.902   2.819 -0.4832 -2.9834 -2.4151
  131MOL0     H17240  -0.682  10.820   2.857  0.9852  0.9098  0.8996
  131MOL0     H17241  -0.811  11.030   2.743 -1.2704  1.0552  2.1386
  131MOL0     H17242  -0.749  11.037   2.896 -0.7410  0.0526 -1.8682
  131MOL0     H17243  -0.688  11.228   2.715 -0.9195  1.0086  1.5695
  131MOL0     H17244  -0.549  11.110   2.695  0.2622  0.0084  1.3753
  131MOL0     H17245  -0.440  11.383   2.762 -0.2738  0.7516  0.9913
  131MOL0     H17246  -0.270  11.411   3.086  0.4606  2.5033  0.4445
  131MOL0     H17247  -0.371  11.554   3.058 -1.2100  1.4294 -2.1258
  131MOL0     H17248  -0.328  11.563   2.820  1.1520 -1.0077 -1.5664
  131MOL0     H17249  -0.201  11.428   2.840 -2.0529 -1.2497 -1.4546
  131MOL0     H17250  -0.200  11.711   2.943  1.5932  0.2286  0.2698
  131MOL0     H17251  -0.080  11.595   2.997  3.8676  0.3115 -2.2455
  131MOL0     H17252   0.018  11.593   2.755 -2.0725 -1.8993 -2.4296
  131MOL0     H17253   0.013  11.742   2.824  1.5650 -1.0117  3.1918
  131MOL0     H17254  -0.108  11.448   2.636 -3.2259 -1.0818  0.3518
  131MOL0     H17255  -0.166  11.334   2.418  0.6126 -0.2335  2.5754
  131MOL0     H17256  -0.595  11.460   2.107  1.3325  0.9947  1.0054
  131MOL0     H17257  -0.700  11.381   1.887 -0.2044 -0.9459 -0.1899
  131MOL0     H17258  -0.758  11.352   1.672  1.4467  1.9138 -0.9109
  131MOL0     H17259  -0.699  11.193   1.708 -2.3139  1.9959  1.0283
  131MOL0     H17260  -0.613  11.137   1.502  0.0680  0.1197  1.2898
  131MOL0     H17261  -0.651  11.294   1.435  1.8327  3.9966  4.7924
  131MOL0     H17262  -0.897  11.259   1.472  0.3637  0.8209  0.1798
  131MOL0     H17263  -0.858  11.101   1.555  0.0093 -4.2706 -3.2488
  131MOL0     H17264  -0.813  11.167   1.267  2.5570 -0.1428  0.6472
  131MOL0     H17265  -0.753  11.013   1.344 -2.3039 -1.4560 -2.9484
  131MOL0     H17266  -1.048  11.098   1.293 -4.1623 -1.8451  4.1404
  131MOL0     H17267  -1.004  10.998   1.426  2.7056 -1.7157  0.7330
  131MOL0     H17268  -0.911  10.823   1.266 -1.6448 -0.8306  0.1895
  131MOL0     H17269  -0.893  10.942   1.141 -1.3373  1.1151 -0.3291
  131MOL0     H17270  -1.164  10.948   1.187  2.0328  1.2433 -2.0985
  131MOL0     H17271  -1.107  10.824   1.078  1.5148  0.4571 -0.4952
  131MOL0     H17272  -1.257  10.738   1.262 -0.5753  0.7665  4.5111
  131MOL0     H17273  -1.127  10.754   1.384  1.5391  3.5187 -0.3072
  131MOL0     H17274  -0.307  11.373   1.707  1.5990 -0.3942  2.3158
  131MOL0     H17275  -0.211  11.469   1.909  0.7592  1.5860  1.7744
  131MOL0     H17276  -0.270  11.728   2.264  0.2296  1.5829  0.3366
  131MOL0     H17277  -0.210  11.825   2.497 -1.9646  0.1541  0.2791
  131MOL0     H17278  -0.172  10.653   2.281 -1.9373 -0.7159 -2.0754
  131MOL0     H17279   0.066  10.641   2.217  2.3024 -2.6099 -2.5337
  131MOL0     H17280   0.457  10.358   2.255 -0.1873 -0.1002 -0.4239
  131MOL0     H17281   0.703  10.345   2.206 -0.8840  2.0237  2.1283
  131MOL0     H17282   0.834  10.532   1.841 -0.7112 -0.5305  1.5708
  131MOL0     H17283   0.841  10.361   1.780 -0.7062  0.2198 -1.2300
  131MOL0     H17284   1.046  10.495   1.958 -5.4042  1.6621  0.4286
  131MOL0     H17285   1.055  10.330   1.894  2.3734  1.0307  0.6727
  131MOL0     H17286   1.042  10.562   1.702  1.3839  0.5807  2.1636
  131MOL0     H17287   1.071  10.392   1.668 -2.4614 -2.1891  1.7350
  131MOL0     H17288   1.267  10.564   1.820 -0.0558  0.9915 -0.6219
  131MOL0     H17289   1.286  10.395   1.750 -0.0820 -0.5211 -0.3837
  131MOL0     H17290   1.319  10.618   1.388 -2.9203  3.0222  0.6866
  131MOL0     H17291   0.635  10.541   1.837 -1.2810  1.0952 -0.0711
  131MOL0     H17292   0.402  10.580   1.908 -0.7750 -0.9227  1.0296
  132MOL0     O17293   2.213   5.634  11.378 -0.3812  0.4613  0.4012
  132MOL0     C17294   2.281   5.722  11.325 -0.7352  0.2026 -0.1263
  132MOL0     O17295   2.259   5.859  11.348 -0.4258  0.4294 -0.3043
  132MOL0     C17296   2.134   5.876  11.399 -0.7730  0.0603  0.0406
  132MOL0     C17297   2.054   5.963  11.324 -0.6580  1.0143 -1.4008
  132MOL0     C17298   1.923   5.973  11.350 -0.2591 -0.1609 -0.5217
  132MOL0     C17299   1.867   5.924  11.469  0.7627 -0.4288 -0.1977
  132MOL0     O17300   1.731   5.954  11.503 -0.4243  0.1841  0.0719
  132MOL0     C17301   1.678   5.926  11.630 -0.4028 -0.6862  0.8648
  132MOL0     C17302   1.533   5.955  11.611  0.5444  0.5908  0.8863
  132MOL0     C17303   1.448   5.887  11.497  0.5181  0.3330 -0.4557
  132MOL0     C17304   1.299   5.942  11.487  1.1513 -0.5312 -0.5371
  132MOL0     C17305   1.229   5.895  11.607  0.0927 -0.2080 -0.1522
  132MOL0     C17306   1.078   5.915  11.600  0.4773 -0.2202 -0.2558
  132MOL0     C17307   1.003   5.875  11.729 -0.3948 -0.0482 -0.8711
  132MOL0     C17308   0.853   5.899  11.717 -0.3419 -0.5564  0.1074
  132MOL0     N17309   0.782   5.866  11.843 -0.3352  0.0037 -0.7395
  132MOL0     C17310   0.696   5.950  11.915 -0.0500 -0.5397  0.2830
  132MOL0     C17311   0.622   5.867  12.000 -1.0024 -0.7065 -0.5388
  132MOL0     C17312   0.507   5.904  12.089 -0.8582  0.3789 -0.2702
  132MOL0     C17313   0.554   5.870  12.236 -0.5206  0.1281 -0.0889
  132MOL0     C17314   0.677   5.944  12.278  0.0602 -0.8542  0.5254
  132MOL0     C17315   0.698   5.931  12.430  0.0729 -0.8608  0.3134
  132MOL0     O17316   0.601   6.030  12.483  0.2190  0.8573  0.3402
  132MOL0     C17317   0.623   6.160  12.481  0.2012 -0.5200  0.7999
  132MOL0     C17318   0.750   6.216  12.450 -0.2803 -0.1683  0.2391
  132MOL0     C17319   0.766   6.356  12.442  0.1564 -0.0914 -0.3966
  132MOL0     C17320   0.664   6.450  12.477 -1.1209  0.8630 -0.8511
  132MOL0     C17321   0.683   6.592  12.482  0.0763  0.6364  0.0156
  132MOL0     O17322   0.816   6.632  12.497  0.1616 -0.0430 -0.1160
  132MOL0     C17323   0.835   6.766  12.543 -0.1547 -0.2177 -0.7479
  132MOL0     C17324   0.776   6.816  12.658  1.2749 -1.0042  0.6646
  132MOL0     C17325   0.777   6.952  12.696 -1.4728 -0.5442 -0.2507
  132MOL0     C17326   0.863   7.043  12.628  0.2457 -0.2645 -0.1591
  132MOL0     O17327   0.870   7.178  12.657  0.7971 -0.5144  0.2179
  132MOL0     C17328   0.815   7.232  12.780  0.2356 -0.4658  0.2865
  132MOL0     C17329   0.867   7.374  12.797  0.2991  1.0740  0.4978
  132MOL0     C17330   0.820   7.455  12.671 -0.7070 -0.6325 -0.5114
  132MOL0     C17331   0.781   7.594  12.718 -0.0042 -0.1162  1.4804
  132MOL0     C17332   0.697   7.669  12.613  0.4493 -0.0747  0.1852
  132MOL0     C17333   0.761   7.715  12.488  0.0304 -0.4044 -0.2011
  132MOL0     C17334   0.653   7.782  12.399  0.3016 -0.4911  0.3457
  132MOL0     C17335   0.723   7.832  12.273 -0.9056  0.5003  1.2445
  132MOL0    Cl17336   0.601   7.862  12.145  0.3890  0.4079 -0.5449
  132MOL0     C17337   0.938   6.992  12.519  0.5788 -1.1288  0.0716
  132MOL0     C17338   0.923   6.863  12.478  0.4141 -0.1809  0.2793
  132MOL0     O17339   0.586   6.672  12.464 -0.3972 -0.1053  0.2174
  132MOL0     C17340   0.546   6.395  12.521 -0.2890 -0.5040  0.1554
  132MOL0     C17341   0.526   6.253  12.513  0.8503 -0.5766  0.1860
  132MOL0     N17342   0.653   5.740  11.969 -0.4284 -0.2403  0.0086
  132MOL0     N17343   0.743   5.738  11.873 -0.4555 -1.2556  0.6662
  132MOL0     C17344   1.954   5.849  11.556 -0.2882  1.0196 -0.4215
  132MOL0     C17345   2.090   5.825  11.524  1.0317 -0.2564 -0.4083
  132MOL0     C17346   2.406   5.679  11.252 -0.5524 -0.2962 -0.3530
  132MOL0     C17347   2.477   5.772  11.172  0.2556  0.0648  0.7766
  132MOL0     C17348   2.599   5.737  11.113  0.2704 -0.2075 -0.3009
  132MOL0     C17349   2.652   5.607  11.127 -1.0539  0.6944 -0.7974
  132MOL0     O17350   2.772   5.556  11.075  1.3287 -0.0253  0.1507
  132MOL0     C17351   2.820   5.627  10.962 -0.2450 -0.7995  0.0372
  132MOL0     C17352   2.936   5.546  10.920  0.6034 -0.0637 -0.8050
  132MOL0     C17353   3.034   5.513  11.036 -0.1415  0.0622 -0.1182
  132MOL0     C17354   3.182   5.506  10.981  0.3588 -0.5366 -0.8115
  132MOL0     C17355   3.225   5.650  10.962  0.7192  0.1091  0.0287
  132MOL0     C17356   3.248   5.766  10.940  1.0857  0.7818 -0.4791
  132MOL0     C17357   2.576   5.512  11.197 -0.6180  0.2345 -0.0470
  132MOL0     C17358   2.458   5.545  11.265  1.3639 -0.6556  0.0261
  132MOL0     H17359   2.092   6.011  11.234 -1.6734  2.1568 -1.2468
  132MOL0     H17360   1.849   6.022  11.287  1.1994  2.0426 -0.6324
  132MOL0     H17361   1.724   5.980  11.713  0.3907 -1.3696  0.8762
  132MOL0     H17362   1.698   5.821  11.649 -2.0717 -0.7819  2.4185
  132MOL0     H17363   1.530   6.063  11.592  0.6179  0.5334  0.5496
  132MOL0     H17364   1.498   5.923  11.709  3.5090 -3.4750  0.8514
  132MOL0     H17365   1.443   5.778  11.503  0.7498  0.0433 -3.6492
  132MOL0     H17366   1.499   5.897  11.400  0.0650  5.6010 -0.4570
  132MOL0     H17367   1.296   6.051  11.485  0.1154 -0.5000  1.2511
  132MOL0     H17368   1.251   5.897  11.399 -0.1917  0.0688 -0.1364
  132MOL0     H17369   1.260   5.955  11.693 -1.2725 -1.0363  0.9618
  132MOL0     H17370   1.253   5.791  11.628 -0.0994 -0.1848  0.2020
  132MOL0     H17371   1.024   5.849  11.531 -0.7548 -0.0070  0.4798
  132MOL0     H17372   1.057   6.019  11.577  1.6132  0.2151  0.5589
  132MOL0     H17373   1.026   5.769  11.744 -1.1796 -0.1929 -0.6565
  132MOL0     H17374   1.044   5.932  11.812 -0.7475 -0.7101 -0.2319
  132MOL0     H17375   0.808   5.838  11.638 -0.8032  1.5840 -1.3512
  132MOL0     H17376   0.834   6.004  11.695 -3.9416 -1.0516  0.2415
  132MOL0     H17377   0.686   6.058  11.912  2.3628 -0.2817 -0.5291
  132MOL0     H17378   0.426   5.837  12.056 -0.8778 -0.1787  0.8688
  132MOL0     H17379   0.482   6.009  12.070  1.6969  0.7944 -1.8524
  132MOL0     H17380   0.576   5.763  12.245  2.9643  0.6125 -1.2371
  132MOL0     H17381   0.477   5.895  12.310  2.0659  0.0015  2.8550
  132MOL0     H17382   0.765   5.899  12.233  2.5367  1.7668  2.3778
  132MOL0     H17383   0.657   6.048  12.250  4.2487 -0.0499 -0.0749
  132MOL0     H17384   0.800   5.964  12.453 -0.6063  0.9712  0.9400
  132MOL0     H17385   0.681   5.833  12.474 -1.0863 -0.7696  0.1126
  132MOL0     H17386   0.833   6.155  12.414 -0.3172  1.8406 -3.8239
  132MOL0     H17387   0.857   6.402  12.406 -1.0636  3.7016  0.8586
  132MOL0     H17388   0.711   6.746  12.710  0.2721 -0.5678  0.0327
  132MOL0     H17389   0.719   6.986  12.781 -1.1389  0.8785 -0.5686
  132MOL0     H17390   0.849   7.188  12.875 -0.2263  3.3671  2.4323
  132MOL0     H17391   0.706   7.224  12.788  0.4047 -1.7183  5.3418
  132MOL0     H17392   0.975   7.384  12.806  0.4820  0.4762 -0.8572
  132MOL0     H17393   0.820   7.417  12.886  0.0920  2.4565 -0.2477
  132MOL0     H17394   0.738   7.403  12.622 -1.5910  1.9061 -1.8994
  132MOL0     H17395   0.893   7.464  12.590 -0.9681  3.6476 -0.5243
  132MOL0     H17396   0.728   7.581  12.813 -0.3298 -4.1635  0.9246
  132MOL0     H17397   0.869   7.655  12.739  0.3691  1.3592 -3.3497
  132MOL0     H17398   0.651   7.754  12.664  1.4704 -0.5638  2.0024
  132MOL0     H17399   0.615   7.604  12.579  1.0215 -1.1096  0.7500
  132MOL0     H17400   0.807   7.632  12.433 -2.0049 -1.4745 -0.3784
  132MOL0     H17401   0.833   7.788  12.528 -1.6747  1.4379 -0.3457
  132MOL0     H17402   0.584   7.707  12.357 -0.0057 -0.7088  1.2206
  132MOL0     H17403   0.591   7.859  12.446 -1.6685 -0.7147 -1.6845
  132MOL0     H17404   0.787   7.756  12.229 -2.2666  1.2579 -2.4617
  132MOL0     H17405   0.787   7.918  12.296  1.6571 -0.9799  0.0146
  132MOL0     H17406   1.003   7.060  12.464 -2.4985  2.5292  0.5388
  132MOL0     H17407   0.960   6.823  12.385 -2.8491  0.7484 -1.5974
  132MOL0     H17408   0.456   6.449  12.550 -1.3038 -2.7833  1.5845
  132MOL0     H17409   0.426   6.221  12.542  1.1093 -2.4184 -0.8343
  132MOL0     H17410   1.923   5.815  11.655 -2.9783 -0.9387 -1.8016
  132MOL0     H17411   2.158   5.770  11.588 -0.1348  2.4255  3.5610
  132MOL0     H17412   2.428   5.868  11.158 -3.0531 -1.3399  1.6893
  132MOL0     H17413   2.648   5.820  11.063  0.2969 -0.2575 -0.3586
  132MOL0     H17414   2.852   5.726  10.994 -3.7724  0.3057  0.6340
  132MOL0     H17415   2.747   5.643  10.882  0.2466  2.1548  0.0630
  132MOL0     H17416   2.907   5.452  10.871 -2.3055  0.9427 -1.1662
  132MOL0     H17417   2.994   5.606  10.848  2.4869 -0.2723  0.4676
  132MOL0     H17418   3.006   5.412  11.067  0.0219 -0.7363 -2.3373
  132MOL0     H17419   3.028   5.587  11.116 -1.3241 -0.1561  0.0157
  132MOL0     H17420   3.253   5.460  11.051  0.6951  1.3566  0.1494
  132MOL0     H17421   3.181   5.453  10.885  0.9146 -2.4702  0.1956
  132MOL0     H17422   3.285   5.860  10.905 -1.0975  2.4184  1.2926
  132MOL0     H17423   2.607   5.409  11.212 -1.4398  0.2991  2.9342
  132MOL0     H17424   2.398   5.469  11.314  0.5728  0.6092  1.0744
  133MOL0     O17425   1.456   6.036   1.419  0.8448 -0.1162  0.4172
  133MOL0     C17426   1.483   6.157   1.421 -0.3452  0.2024 -0.3539
  133MOL0     O17427   1.401   6.259   1.473 -0.2825  1.0137 -0.1255
  133MOL0     C17428   1.327   6.235   1.582 -0.3618  1.1543 -0.0255
  133MOL0     C17429   1.245   6.337   1.630 -0.2247  0.3745  0.1338
  133MOL0     C17430   1.159   6.323   1.744  1.0245 -1.1402 -0.9203
  133MOL0     C17431   1.179   6.211   1.829  0.6211  0.8256 -1.4780
  133MOL0     O17432   1.115   6.204   1.950  0.8974  0.2874 -0.0453
  133MOL0     C17433   1.199   6.202   2.062  0.0208  0.3811 -0.5542
  133MOL0     C17434   1.148   6.295   2.168  0.4440 -0.2810 -0.6400
  133MOL0     C17435   1.010   6.236   2.212  0.8905 -0.3560  0.1029
  133MOL0     C17436   0.929   6.330   2.313  0.4396 -0.1658  0.0699
  133MOL0     C17437   0.875   6.225   2.413 -0.2767  0.0814 -0.9185
  133MOL0     C17438   0.983   6.167   2.512 -0.0662 -0.1666  0.7500
  133MOL0     C17439   0.930   6.025   2.572 -0.5118  0.1002  0.8013
  133MOL0     C17440   0.841   6.036   2.700  0.6200 -1.0187  0.1549
  133MOL0     N17441   0.810   5.909   2.752  0.9586  0.9732 -0.2343
  133MOL0     C17442   0.710   5.826   2.711  0.0960  0.7781  0.5463
  133MOL0     C17443   0.698   5.737   2.818  0.2825  0.1150 -0.0577
  133MOL0     C17444   0.586   5.643   2.838 -0.8557  0.1538 -0.5259
  133MOL0     C17445   0.603   5.493   2.778 -1.1717 -0.4313 -0.7357
  133MOL0     C17446   0.726   5.481   2.686 -0.0343  0.3353 -0.5432
  133MOL0     C17447   0.771   5.326   2.667 -0.6974 -0.6605 -0.5817
  133MOL0     O17448   0.861   5.320   2.557 -0.4152  0.6372  0.4687
  133MOL0     C17449   0.990   5.353   2.569 -0.2835 -0.3556  1.0338
  133MOL0     C17450   1.074   5.316   2.676  0.4796 -0.8112 -0.3864
  133MOL0     C17451   1.214   5.338   2.676  0.4114  0.4444 -0.5944
  133MOL0     C17452   1.272   5.391   2.559  0.0194 -0.0825  0.5815
  133MOL0     C17453   1.414   5.394   2.544  0.0019  0.2613  0.4019
  133MOL0     O17454   1.474   5.399   2.420 -0.5412 -0.4940 -0.4990
  133MOL0     C17455   1.610   5.414   2.422  0.1041  0.1677  0.0226
  133MOL0     C17456   1.691   5.300   2.461 -0.4828 -0.9632  0.2653
  133MOL0     C17457   1.837   5.315   2.462 -0.1859  0.3508 -0.4062
  133MOL0     C17458   1.893   5.437   2.418  1.0956  0.3607 -0.3401
  133MOL0     O17459   2.029   5.442   2.406 -0.5440  0.2783 -0.8571
  133MOL0     C17460   2.095   5.491   2.523 -0.3414  0.4915  0.5836
  133MOL0     C17461   2.235   5.434   2.510 -0.5563  0.3754 -0.5601
  133MOL0     C17462   2.335   5.516   2.589  0.6255  0.5143 -0.3375
  133MOL0     C17463   2.482   5.469   2.590 -0.0418 -0.5538 -0.3975
  133MOL0     C17464   2.497   5.315   2.636 -0.3724 -0.3347  0.0660
  133MOL0     C17465   2.621   5.289   2.723 -0.5184  1.2318 -0.6586
  133MOL0     C17466   2.628   5.147   2.782 -0.1451  1.1537  0.4484
  133MOL0     C17467   2.677   5.041   2.687  0.2892 -0.3255 -0.7099
  133MOL0    Cl17468   2.857   5.072   2.659  0.1392  0.2940  0.3730
  133MOL0     C17469   1.808   5.542   2.376 -0.7565 -0.1426  0.2402
  133MOL0     C17470   1.671   5.527   2.377  0.6627 -0.5527 -0.2838
  133MOL0     O17471   1.475   5.387   2.649  0.5999  0.3688 -0.7151
  133MOL0     C17472   1.195   5.430   2.452 -0.0653 -0.0957  1.3677
  133MOL0     C17473   1.054   5.417   2.460 -0.3004 -0.2495  0.6422
  133MOL0     N17474   0.771   5.781   2.927 -0.4722  0.2305  0.6115
  133MOL0     N17475   0.840   5.879   2.884  0.0304  0.4583  0.8979
  133MOL0     C17476   1.256   6.107   1.781  0.2711  0.3873 -0.6597
  133MOL0     C17477   1.327   6.117   1.662 -0.9436  0.3108 -0.6810
  133MOL0     C17478   1.602   6.201   1.347  0.9906  0.0118 -0.7749
  133MOL0     C17479   1.654   6.326   1.375  0.2114 -0.7350  0.4918
  133MOL0     C17480   1.770   6.375   1.312 -0.9576 -0.8994  0.7595
  133MOL0     C17481   1.834   6.283   1.215  0.6559 -0.4328  0.1812
  133MOL0     O17482   1.945   6.307   1.145 -0.9673 -0.2462  1.1247
  133MOL0     C17483   2.025   6.428   1.172 -0.2222 -0.4129  0.2803
  133MOL0     C17484   2.116   6.410   1.293 -0.1137  0.4365  0.0581
  133MOL0     C17485   2.200   6.287   1.284  0.1512 -0.3012  0.9889
  133MOL0     C17486   2.311   6.279   1.389  0.2426  0.9143 -0.8211
  133MOL0     C17487   2.254   6.255   1.529 -0.6879 -0.1371  0.3122
  133MOL0     C17488   2.209   6.249   1.638 -0.0476  0.7747  0.2956
  133MOL0     C17489   1.766   6.164   1.173 -0.1542 -0.2932 -0.0976
  133MOL0     C17490   1.650   6.119   1.247 -0.1934 -1.0002  0.3968
  133MOL0     H17491   1.248   6.438   1.589 -2.0390 -0.4827 -2.3444
  133MOL0     H17492   1.101   6.400   1.793  0.9496 -2.3435  0.9931
  133MOL0     H17493   1.303   6.227   2.040  1.3309 -2.4497  1.6851
  133MOL0     H17494   1.206   6.099   2.097  2.1158  0.1828 -1.3958
  133MOL0     H17495   1.138   6.399   2.136 -0.7201 -0.1343  0.1667
  133MOL0     H17496   1.217   6.295   2.253 -2.1030 -0.8183  1.5637
  133MOL0     H17497   1.028   6.131   2.237  2.3540  0.3245  2.1822
  133MOL0     H17498   0.946   6.242   2.124  1.9509  0.3666 -0.6415
  133MOL0     H17499   0.987   6.414   2.353  2.9464 -2.3823  1.4351
  133MOL0     H17500   0.840   6.365   2.260 -0.1807  0.9609  1.7705
  133MOL0     H17501   0.826   6.150   2.351 -0.2429 -2.0956  1.5238
  133MOL0     H17502   0.798   6.276   2.471 -0.5951  1.8999 -2.8149
  133MOL0     H17503   1.009   6.235   2.594 -0.2819 -1.4573  1.9258
  133MOL0     H17504   1.076   6.172   2.453  0.6445  4.5213  1.7940
  133MOL0     H17505   0.870   5.964   2.503 -0.9945 -0.0471  1.3413
  133MOL0     H17506   1.014   5.964   2.604  1.0497  0.0432 -2.8330
  133MOL0     H17507   0.746   6.085   2.676  0.1681 -2.1222 -0.3622
  133MOL0     H17508   0.900   6.089   2.775  3.5195 -1.7566 -1.4201
  133MOL0     H17509   0.639   5.838   2.630 -0.2913  3.1168  1.1523
  133MOL0     H17510   0.498   5.698   2.804  0.3184  2.3978 -0.1320
  133MOL0     H17511   0.575   5.629   2.945 -4.0836  2.1459 -0.4842
  133MOL0     H17512   0.506   5.469   2.733 -1.3203 -1.5494  0.1396
  133MOL0     H17513   0.607   5.413   2.852  1.7536  1.2850  1.1261
  133MOL0     H17514   0.698   5.524   2.589 -3.9558 -0.6908 -0.0514
  133MOL0     H17515   0.804   5.538   2.736 -1.0678 -0.4371  2.0889
  133MOL0     H17516   0.677   5.275   2.644 -1.8321  1.4035 -0.7556
  133MOL0     H17517   0.820   5.287   2.757 -0.4628  0.1148 -0.3677
  133MOL0     H17518   1.020   5.255   2.748 -0.2760 -0.3495 -0.5563
  133MOL0     H17519   1.283   5.304   2.752 -0.3094 -0.5239 -0.3540
  133MOL0     H17520   1.642   5.211   2.499 -1.3603 -0.1148  1.1690
  133MOL0     H17521   1.895   5.231   2.499 -0.3551 -0.2755 -1.5135
  133MOL0     H17522   2.049   5.449   2.612  2.6832 -0.1754  1.9338
  133MOL0     H17523   2.088   5.599   2.543  2.4662  1.0460 -0.8587
  133MOL0     H17524   2.262   5.439   2.404 -1.5282 -0.0157 -0.8358
  133MOL0     H17525   2.232   5.330   2.544 -2.2939  1.4274  2.9782
  133MOL0     H17526   2.303   5.534   2.692  1.2429  0.0302 -0.0517
  133MOL0     H17527   2.325   5.617   2.547 -0.4945  0.6555  0.2189
  133MOL0     H17528   2.519   5.483   2.488  0.1276  2.7622  0.0120
  133MOL0     H17529   2.549   5.544   2.633 -2.5218  1.3970  0.2690
  133MOL0     H17530   2.502   5.256   2.544 -1.6993 -0.1743 -0.1285
  133MOL0     H17531   2.410   5.271   2.686 -2.4325 -0.9210 -3.6430
  133MOL0     H17532   2.611   5.349   2.814  0.1506 -0.8286  0.8695
  133MOL0     H17533   2.713   5.319   2.672 -0.2103  1.1253 -0.1728
  133MOL0     H17534   2.689   5.151   2.872  0.7049  1.4102 -0.1278
  133MOL0     H17535   2.531   5.123   2.827  0.6251 -0.5908  1.2568
  133MOL0     H17536   2.627   5.068   2.593 -0.0232 -0.2734 -0.5294
  133MOL0     H17537   2.663   4.935   2.707  0.0006 -0.6184 -2.3576
  133MOL0     H17538   1.855   5.625   2.325  3.8209 -1.0159  2.5307
  133MOL0     H17539   1.615   5.609   2.335  2.3020  1.7591  1.7303
  133MOL0     H17540   1.229   5.490   2.368 -0.7188 -2.3695 -0.6293
  133MOL0     H17541   0.992   5.456   2.379  1.9427  0.9095 -0.6192
  133MOL0     H17542   1.249   6.017   1.841 -0.5183 -0.3251 -1.7701
  133MOL0     H17543   1.385   6.025   1.655  1.2477  1.2711  2.5453
  133MOL0     H17544   1.607   6.378   1.457  1.1246 -0.3358  0.7732
  133MOL0     H17545   1.817   6.468   1.344 -1.2722  0.3955 -2.1726
  133MOL0     H17546   1.974   6.524   1.175  0.5940  0.0139  0.9396
  133MOL0     H17547   2.098   6.429   1.090 -1.7176 -2.7620 -1.1861
  133MOL0     H17548   2.188   6.492   1.295  2.4048 -1.6292 -0.2058
  133MOL0     H17549   2.054   6.409   1.384 -0.2156 -1.5082  0.0136
  133MOL0     H17550   2.251   6.293   1.187 -0.8109  3.1032  0.5943
  133MOL0     H17551   2.142   6.194   1.291  0.5546 -0.4347  5.0071
  133MOL0     H17552   2.366   6.189   1.360 -2.0829 -1.0706  0.4707
  133MOL0     H17553   2.374   6.368   1.388 -2.0632  2.6431 -1.0454
  133MOL0     H17554   2.172   6.219   1.734  1.8509 -2.0173  0.2705
  133MOL0     H17555   1.814   6.095   1.104 -1.7098 -2.4127  0.8124
  133MOL0     H17556   1.606   6.024   1.219 -0.0419 -1.2719  1.0564
  134MOL0     O17557   8.370   7.133   9.277 -0.2873  0.6989 -0.1860
  134MOL0     C17558   8.439   7.197   9.203 -0.5050  0.1600 -0.2674
  134MOL0     O17559   8.476   7.159   9.082 -0.4298 -0.3757 -0.0722
  134MOL0     C17560   8.440   7.040   9.038  0.2179 -0.1500 -0.0962
  134MOL0     C17561   8.314   7.008   8.974 -0.6458  0.0419 -0.7455
  134MOL0     C17562   8.288   6.880   8.930 -0.2775  0.7008  0.5802
  134MOL0     C17563   8.383   6.773   8.939  0.0522 -0.0607  0.7859
  134MOL0     O17564   8.363   6.642   8.903  0.6903  1.3781  0.0667
  134MOL0     C17565   8.476   6.557   8.886  0.3710 -0.5481  0.4611
  134MOL0     C17566   8.419   6.427   8.850  1.0150  0.0704  0.0779
  134MOL0     C17567   8.534   6.330   8.825 -0.1287 -0.0682 -1.3540
  134MOL0     C17568   8.492   6.188   8.792 -0.7593 -0.6816 -0.5599
  134MOL0     C17569   8.624   6.101   8.781 -0.1720 -0.2446 -0.0733
  134MOL0     C17570   8.686   6.041   8.906  0.3345 -0.8888 -1.0096
  134MOL0     C17571   8.787   5.937   8.865  0.1951  0.4765 -0.5151
  134MOL0     C17572   8.721   5.796   8.861 -0.1696  0.6029  0.7841
  134MOL0     N17573   8.826   5.698   8.842  1.2147  0.4284  0.0353
  134MOL0     C17574   8.957   5.713   8.795  0.4225 -0.3557  0.6304
  134MOL0     C17575   9.011   5.589   8.785 -0.0256 -0.3275 -1.3957
  134MOL0     C17576   9.142   5.547   8.743  0.1643 -0.5652 -0.0964
  134MOL0     C17577   9.255   5.572   8.851 -0.2416  0.0042  0.5818
  134MOL0     C17578   9.392   5.561   8.783  0.3877 -0.5804  0.1671
  134MOL0     C17579   9.492   5.608   8.883  0.2473 -0.2009 -0.2052
  134MOL0     O17580   9.623   5.555   8.837 -0.7416 -0.7439 -0.4362
  134MOL0     C17581   9.739   5.630   8.821 -0.2459  0.3407  0.2559
  134MOL0     C17582   9.752   5.760   8.865  0.4112 -0.3690  0.3986
  134MOL0     C17583   9.867   5.840   8.849 -0.5685  0.8830 -0.0672
  134MOL0     C17584   9.960   5.794   8.752 -0.4445  0.0749 -0.7949
  134MOL0     C17585  10.062   5.877   8.710  0.2198 -0.0877 -0.0201
  134MOL0     O17586  10.015   6.007   8.679 -0.7620  0.5291 -0.2196
  134MOL0     C17587  10.082   6.095   8.598 -0.3150  0.0685 -0.7852
  134MOL0     C17588  10.092   6.227   8.645  0.4115  0.4282  0.5480
  134MOL0     C17589  10.137   6.335   8.562 -0.0032  0.3048  0.0679
  134MOL0     C17590  10.180   6.292   8.431  0.2968 -1.4086  0.4651
  134MOL0     O17591  10.236   6.393   8.356  0.8586  0.3129  0.1984
  134MOL0     C17592  10.330   6.363   8.252  0.6134 -0.3171  0.1977
  134MOL0     C17593  10.435   6.482   8.238  0.6009 -0.0583 -0.5620
  134MOL0     C17594  10.490   6.533   8.108  0.4898  0.0156  1.4653
  134MOL0     C17595  10.536   6.418   8.015 -0.1957 -0.0541 -0.6418
  134MOL0     C17596  10.586   6.477   7.876 -0.2416 -0.3743 -0.1447
  134MOL0     C17597  10.651   6.395   7.766 -0.4212  0.7252 -0.5025
  134MOL0     C17598  10.689   6.447   7.631  0.4603 -0.8330 -0.0984
  134MOL0     C17599  10.773   6.576   7.635  0.6514  0.4603  0.6863
  134MOL0    Cl17600  10.784   6.645   7.482 -0.0082 -0.2778 -0.0224
  134MOL0     C17601  10.159   6.162   8.385  0.8404 -0.5084  0.9975
  134MOL0     C17602  10.109   6.061   8.467 -0.8862 -1.0330  0.2242
  134MOL0     O17603  10.179   5.841   8.701  0.3926  0.0924  0.1980
  134MOL0     C17604   9.954   5.661   8.711  0.5026 -0.1382 -0.3017
  134MOL0     C17605   9.845   5.574   8.751 -0.2781  1.0564 -0.6431
  134MOL0     N17606   8.912   5.500   8.855 -0.1098 -0.5078 -0.1135
  134MOL0     N17607   8.802   5.567   8.876 -0.7370  0.2117  0.5551
  134MOL0     C17608   8.506   6.822   8.972  1.0004  0.4044 -0.3362
  134MOL0     C17609   8.528   6.944   9.031  0.7103  0.3177 -0.1788
  134MOL0     C17610   8.479   7.327   9.259  0.6823 -0.0522  1.4320
  134MOL0     C17611   8.580   7.405   9.205  0.4652 -0.0214  0.1311
  134MOL0     C17612   8.619   7.533   9.253  0.6312 -0.3851  0.0118
  134MOL0     C17613   8.533   7.589   9.350  0.2655  0.2799 -0.8584
  134MOL0     O17614   8.546   7.718   9.390 -0.8073  0.5968  0.0081
  134MOL0     C17615   8.519   7.765   9.534 -0.7903  0.0428  0.3546
  134MOL0     C17616   8.516   7.918   9.527  0.3169  0.3717 -0.3614
  134MOL0     C17617   8.656   7.966   9.495  0.4554 -0.6451 -0.7548
  134MOL0     C17618   8.761   7.950   9.617  0.4107  0.4097  0.0717
  134MOL0     C17619   8.844   8.061   9.643  0.2928  0.6917  0.4499
  134MOL0     C17620   8.927   8.156   9.656  0.3149 -0.1160 -0.1709
  134MOL0     C17621   8.436   7.517   9.413 -0.4320  0.0507  0.2764
  134MOL0     C17622   8.414   7.384   9.372  0.2773 -0.1342  0.1795
  134MOL0     H17623   8.237   7.085   8.964  1.0585  1.7697 -1.1659
  134MOL0     H17624   8.188   6.866   8.888 -0.5584 -2.6814  2.0352
  134MOL0     H17625   8.539   6.549   8.975 -1.2547 -0.3620  1.6579
  134MOL0     H17626   8.537   6.593   8.802  0.5380 -4.2165 -1.1897
  134MOL0     H17627   8.359   6.434   8.759 -0.9350 -0.4156  1.2682
  134MOL0     H17628   8.361   6.389   8.934  1.5522  1.4144  1.0799
  134MOL0     H17629   8.592   6.321   8.917  1.0447  0.5372 -2.0177
  134MOL0     H17630   8.609   6.381   8.764  1.3602  0.3864  0.7468
  134MOL0     H17631   8.426   6.139   8.863  0.6938 -0.3783  1.0711
  134MOL0     H17632   8.448   6.185   8.692 -3.2055 -0.0064  0.4238
  134MOL0     H17633   8.702   6.157   8.728 -2.6762  1.8365 -1.8002
  134MOL0     H17634   8.600   6.016   8.717 -2.7499  0.7333 -0.5312
  134MOL0     H17635   8.611   5.985   8.963 -0.3652 -2.7618 -3.6173
  134MOL0     H17636   8.730   6.121   8.965  0.3921 -0.7040 -1.3050
  134MOL0     H17637   8.838   5.964   8.772  2.2946 -1.1539  0.0668
  134MOL0     H17638   8.866   5.932   8.941 -0.6780  3.1031  0.6631
  134MOL0     H17639   8.654   5.797   8.774 -0.3814  1.6837  0.9448
  134MOL0     H17640   8.659   5.776   8.950 -1.1423 -0.6964 -0.1372
  134MOL0     H17641   8.992   5.810   8.761  0.1747  0.4158  2.4784
  134MOL0     H17642   9.177   5.597   8.652  1.2341 -0.8832  0.1250
  134MOL0     H17643   9.136   5.439   8.733 -3.4106 -0.3189 -1.9979
  134MOL0     H17644   9.241   5.506   8.937  0.3870  0.2857  0.8983
  134MOL0     H17645   9.247   5.675   8.887 -1.9539  1.2918 -2.9855
  134MOL0     H17646   9.415   5.458   8.754 -0.3037 -1.5580  2.8335
  134MOL0     H17647   9.393   5.627   8.695  4.6584  1.6075  1.5724
  134MOL0     H17648   9.474   5.572   8.985  2.8641 -1.4454 -0.0933
  134MOL0     H17649   9.476   5.716   8.891  0.4358 -0.2956  2.0911
  134MOL0     H17650   9.670   5.787   8.930  1.2114  1.8192  0.5954
  134MOL0     H17651   9.873   5.936   8.900 -0.7630  1.4173 -1.0291
  134MOL0     H17652  10.065   6.248   8.748  1.2256  3.8891  0.1718
  134MOL0     H17653  10.137   6.438   8.598  1.7779  0.3439  0.0749
  134MOL0     H17654  10.269   6.367   8.161 -1.6678 -0.7531  1.6046
  134MOL0     H17655  10.385   6.269   8.246  1.1554  0.0612 -5.0477
  134MOL0     H17656  10.516   6.463   8.310  1.2616 -1.1909 -1.5669
  134MOL0     H17657  10.374   6.564   8.278  0.0957 -1.3410  1.4505
  134MOL0     H17658  10.573   6.605   8.119  0.2230  0.4509  0.7377
  134MOL0     H17659  10.416   6.582   8.044  1.3794  1.4416  1.4723
  134MOL0     H17660  10.619   6.369   8.066  0.1445  0.9701 -0.1834
  134MOL0     H17661  10.466   6.337   7.995 -1.1055 -0.1357  2.3389
  134MOL0     H17662  10.656   6.558   7.899  0.2888 -1.1360  1.0496
  134MOL0     H17663  10.499   6.512   7.820 -1.2510 -1.9628  0.3549
  134MOL0     H17664  10.571   6.321   7.752 -0.2058  0.9800 -3.9090
  134MOL0     H17665  10.737   6.347   7.812 -0.1032  0.8097 -1.0024
  134MOL0     H17666  10.739   6.367   7.575  1.2548  0.6169 -1.5579
  134MOL0     H17667  10.596   6.475   7.579  0.4584 -0.4713  0.0988
  134MOL0     H17668  10.875   6.556   7.670  0.2477 -4.0900 -0.0306
  134MOL0     H17669  10.721   6.640   7.707 -0.4714 -0.0725  0.3794
  134MOL0     H17670  10.195   6.142   8.285  1.2022  0.2717  0.9682
  134MOL0     H17671  10.106   5.960   8.427 -3.6613 -0.3228 -1.6262
  134MOL0     H17672  10.026   5.639   8.633  0.9004  2.0160 -0.5997
  134MOL0     H17673   9.845   5.470   8.722 -2.4636  0.9695 -0.4815
  134MOL0     H17674   8.584   6.747   8.976  1.4091  0.8148 -0.4860
  134MOL0     H17675   8.629   6.954   9.069  0.7751  1.4238 -0.6204
  134MOL0     H17676   8.630   7.373   9.114 -1.7733  1.4118 -1.6933
  134MOL0     H17677   8.697   7.597   9.214 -0.2772  1.3455  0.9419
  134MOL0     H17678   8.594   7.731   9.606 -0.1564 -0.0547 -0.3549
  134MOL0     H17679   8.423   7.732   9.577 -0.3155 -1.0660  0.5976
  134MOL0     H17680   8.448   7.960   9.452 -0.9806 -1.5955 -0.3543
  134MOL0     H17681   8.480   7.946   9.626  0.4851 -3.3580  0.8781
  134MOL0     H17682   8.644   8.075   9.496 -2.9646 -0.8591  2.3860
  134MOL0     H17683   8.696   7.932   9.399  1.4287  2.6369 -1.6466
  134MOL0     H17684   8.706   7.931   9.710 -2.3153 -1.6838 -1.8079
  134MOL0     H17685   8.837   7.875   9.596  0.6465  0.2853  1.2802
  134MOL0     H17686   9.006   8.227   9.666  1.3211 -1.1279 -0.6002
  134MOL0     H17687   8.386   7.559   9.499  0.6956  3.9355 -0.7848
  134MOL0     H17688   8.333   7.342   9.430  1.4249 -0.2644  1.7306
  135MOL0     O17689   1.431   0.993   2.267 -0.3293  0.7276  0.3936
  135MOL0     C17690   1.325   1.038   2.229 -0.1072 -0.3777  0.1798
  135MOL0     O17691   1.273   1.010   2.098  0.8985  0.2615  0.1725
  135MOL0     C17692   1.363   0.974   2.002 -0.5983 -0.9962 -0.3600
  135MOL0     C17693   1.384   0.849   1.957  0.5550 -0.1842 -0.3102
  135MOL0     C17694   1.473   0.815   1.846  0.4929 -0.0511 -0.3616
  135MOL0     C17695   1.555   0.912   1.806  0.1391 -0.8587 -0.5795
  135MOL0     O17696   1.615   0.889   1.689 -0.2030  0.4601 -0.3167
  135MOL0     C17697   1.751   0.946   1.656  0.7670  0.8028 -0.0506
  135MOL0     C17698   1.844   0.915   1.779  0.1075 -0.2136  0.6436
  135MOL0     C17699   1.983   0.959   1.731  0.5758  0.0113  0.4565
  135MOL0     C17700   2.088   0.939   1.838 -0.0843  0.4803 -0.1326
  135MOL0     C17701   2.225   1.001   1.803  0.4179 -0.1676  0.2490
  135MOL0     C17702   2.223   1.152   1.793 -1.4366 -0.8547 -0.1235
  135MOL0     C17703   2.356   1.222   1.806 -0.0832  0.2371 -0.7160
  135MOL0     C17704   2.451   1.161   1.710  0.0236 -0.1693 -0.2838
  135MOL0     N17705   2.413   1.150   1.573 -0.8800  0.7956  0.4962
  135MOL0     C17706   2.348   1.255   1.504  0.2459 -0.2899 -0.3387
  135MOL0     C17707   2.311   1.206   1.385 -0.4713  0.5484 -1.0041
  135MOL0     C17708   2.235   1.260   1.275  1.0224 -0.7397  0.0074
  135MOL0     C17709   2.077   1.268   1.313 -0.4602 -0.4160  0.5171
  135MOL0     C17710   2.022   1.413   1.350 -0.2216 -0.2765  0.6644
  135MOL0     C17711   1.898   1.421   1.430  0.2631  0.0156  0.1857
  135MOL0     O17712   1.924   1.357   1.553  1.2015 -0.4076  0.0489
  135MOL0     C17713   1.837   1.386   1.652  0.3856 -0.8683 -0.6891
  135MOL0     C17714   1.880   1.375   1.788 -0.4680  0.2042  0.8877
  135MOL0     C17715   1.802   1.393   1.898 -0.8211  0.4416 -0.4021
  135MOL0     C17716   1.673   1.445   1.876 -1.2151 -0.5059 -0.8588
  135MOL0     C17717   1.583   1.470   1.994 -0.4068 -0.1734 -0.2884
  135MOL0     O17718   1.652   1.500   2.107 -0.3533 -0.4088  0.2329
  135MOL0     C17719   1.596   1.567   2.218 -0.8122 -0.0669  0.1087
  135MOL0     C17720   1.489   1.520   2.300 -0.5042  0.1558 -0.5102
  135MOL0     C17721   1.444   1.594   2.413 -0.1849  0.3225 -0.2454
  135MOL0     C17722   1.510   1.715   2.448 -0.5570 -0.2997  1.4796
  135MOL0     O17723   1.476   1.789   2.556 -0.5737  0.4957  0.0433
  135MOL0     C17724   1.363   1.756   2.645 -0.9240  0.0405  0.1620
  135MOL0     C17725   1.382   1.850   2.766  0.4474  0.3330  0.9694
  135MOL0     C17726   1.411   2.001   2.749  0.2369  0.2180  0.2472
  135MOL0     C17727   1.336   2.079   2.637 -0.0058 -0.7305 -0.2047
  135MOL0     C17728   1.182   2.094   2.668  0.3346  0.0496 -0.6786
  135MOL0     C17729   1.145   2.185   2.782  0.2562 -0.4161  0.2870
  135MOL0     C17730   0.985   2.190   2.819 -0.1802  0.0731  0.5375
  135MOL0     C17731   0.929   2.050   2.860  0.5326 -0.4421 -0.4680
  135MOL0    Cl17732   0.991   1.998   3.018  0.1412 -0.2707 -0.4570
  135MOL0     C17733   1.622   1.749   2.373 -0.5363 -0.7438  1.4535
  135MOL0     C17734   1.669   1.680   2.257  0.0933  0.6334 -0.4362
  135MOL0     O17735   1.462   1.468   1.975 -0.7340 -0.0401  0.4568
  135MOL0     C17736   1.636   1.478   1.749 -1.0563 -0.2298 -0.9119
  135MOL0     C17737   1.719   1.465   1.635  0.2995  1.0055  0.3672
  135MOL0     N17738   2.375   1.082   1.371 -1.5299  0.5580  0.2185
  135MOL0     N17739   2.435   1.046   1.486  0.1419 -0.2513 -0.6954
  135MOL0     C17740   1.546   1.042   1.861 -0.1554  0.2656 -1.0410
  135MOL0     C17741   1.444   1.076   1.951 -0.4234 -0.4858  1.0773
  135MOL0     C17742   1.266   1.132   2.319 -0.1330 -0.2039 -0.1475
  135MOL0     C17743   1.154   1.194   2.274 -0.2321 -0.4477  0.6537
  135MOL0     C17744   1.087   1.293   2.343 -0.6091 -0.3080 -0.5133
  135MOL0     C17745   1.139   1.330   2.468  0.1388 -1.1002 -0.7228
  135MOL0     O17746   1.068   1.415   2.552  0.7240 -0.1773  0.5066
  135MOL0     C17747   1.067   1.371   2.690 -0.0836 -0.7497  0.1275
  135MOL0     C17748   0.937   1.423   2.751 -0.3167  1.1851 -0.9401
  135MOL0     C17749   0.935   1.373   2.904 -0.6931  0.0916  1.1612
  135MOL0     C17750   0.800   1.406   2.978  0.0650  0.3726  0.4585
  135MOL0     C17751   0.815   1.550   3.001  0.0441  0.2028 -1.0883
  135MOL0     C17752   0.817   1.669   3.018 -0.2963  0.3118 -0.9840
  135MOL0     C17753   1.257   1.263   2.514  0.0601 -0.0275 -0.2439
  135MOL0     C17754   1.320   1.173   2.430  0.8153 -1.1486 -1.2479
  135MOL0     H17755   1.336   0.766   2.008  0.2824 -1.7867 -3.0001
  135MOL0     H17756   1.491   0.715   1.809  2.0528  0.7439 -1.8705
  135MOL0     H17757   1.755   1.054   1.637 -1.0040  0.9107  0.0746
  135MOL0     H17758   1.776   0.890   1.565  1.1245 -1.8348  1.5661
  135MOL0     H17759   1.844   0.809   1.808  3.4737  0.2010  2.7026
  135MOL0     H17760   1.810   0.973   1.866 -1.6866 -1.6837  0.9841
  135MOL0     H17761   1.985   1.067   1.713  0.2820 -0.0970 -0.2463
  135MOL0     H17762   2.021   0.905   1.644  0.3741 -0.0809  0.4259
  135MOL0     H17763   2.068   0.986   1.934 -2.3482  0.9079 -0.7515
  135MOL0     H17764   2.101   0.831   1.854 -1.0936  0.1030 -1.5939
  135MOL0     H17765   2.245   0.967   1.701  1.0740  1.3135 -0.1379
  135MOL0     H17766   2.296   0.961   1.875 -0.1051 -0.2146  0.7454
  135MOL0     H17767   2.147   1.200   1.856 -3.9707 -0.6184 -3.1292
  135MOL0     H17768   2.181   1.189   1.699  0.2412 -1.8527 -1.3306
  135MOL0     H17769   2.341   1.330   1.792  0.9242  0.9929  2.9009
  135MOL0     H17770   2.397   1.191   1.902 -3.1278 -2.8270 -0.1824
  135MOL0     H17771   2.483   1.061   1.742  0.3080  0.3460  1.1545
  135MOL0     H17772   2.544   1.217   1.722 -1.5907  2.2314  2.7303
  135MOL0     H17773   2.324   1.352   1.548 -0.0009  0.3120 -1.7417
  135MOL0     H17774   2.243   1.196   1.188 -1.8899 -0.1974 -0.7665
  135MOL0     H17775   2.278   1.360   1.259  1.4621 -0.5542  2.0689
  135MOL0     H17776   2.056   1.201   1.396 -0.5312  0.7791  1.5007
  135MOL0     H17777   2.018   1.217   1.236 -1.8388 -1.3281  2.1277
  135MOL0     H17778   2.096   1.466   1.410  0.6212  1.4872 -1.7714
  135MOL0     H17779   2.002   1.466   1.256  2.2945 -0.3829  0.0057
  135MOL0     H17780   1.813   1.375   1.378  1.2682 -0.2365 -1.3195
  135MOL0     H17781   1.884   1.525   1.461 -2.2029 -0.4107  0.6792
  135MOL0     H17782   1.972   1.318   1.795  0.2063  1.1457 -0.0107
  135MOL0     H17783   1.843   1.371   1.996  1.4043 -3.2210 -1.9652
  135MOL0     H17784   1.425   1.443   2.259 -1.4123 -0.5517  2.0174
  135MOL0     H17785   1.352   1.562   2.462 -0.0905  2.0954  1.2304
  135MOL0     H17786   1.365   1.654   2.683  3.2248 -0.2565 -0.4291
  135MOL0     H17787   1.260   1.773   2.610 -0.5176  5.6493  0.7363
  135MOL0     H17788   1.460   1.807   2.829  0.6441 -2.1406 -0.7889
  135MOL0     H17789   1.292   1.839   2.828  1.1671  0.9678  2.1512
  135MOL0     H17790   1.517   1.997   2.723  0.2403 -5.7318 -0.2842
  135MOL0     H17791   1.415   2.052   2.845 -3.0687  1.1347  0.0382
  135MOL0     H17792   1.378   2.176   2.610 -2.1378  0.7051  1.3335
  135MOL0     H17793   1.339   2.022   2.543 -0.7987  2.7258 -2.4976
  135MOL0     H17794   1.142   1.994   2.686 -1.3433  0.9438  0.9481
  135MOL0     H17795   1.134   2.132   2.577 -0.5040 -2.1789 -1.2339
  135MOL0     H17796   1.181   2.288   2.779  0.5492 -0.5309 -0.1514
  135MOL0     H17797   1.196   2.143   2.870  3.9046  2.3399 -0.2742
  135MOL0     H17798   0.976   2.257   2.905 -1.3085  0.9585 -0.2333
  135MOL0     H17799   0.923   2.233   2.740 -0.9480 -0.4630  0.8374
  135MOL0     H17800   0.961   1.971   2.791  0.9702  0.2031 -1.0121
  135MOL0     H17801   0.821   2.065   2.865 -0.0090 -2.8591 -2.6714
  135MOL0     H17802   1.681   1.832   2.410 -0.8502  0.2094 -0.0982
  135MOL0     H17803   1.765   1.704   2.213 -0.5603  4.4227 -0.1326
  135MOL0     H17804   1.530   1.498   1.734 -0.5810  3.6278 -0.2587
  135MOL0     H17805   1.686   1.508   1.541  0.3555  4.0895  1.6630
  135MOL0     H17806   1.603   1.127   1.825 -0.3045  0.6730 -0.3162
  135MOL0     H17807   1.421   1.179   1.976 -0.7820 -0.7556  1.8908
  135MOL0     H17808   1.101   1.153   2.188 -2.0039  2.2795  0.3379
  135MOL0     H17809   0.991   1.322   2.302 -0.6322 -0.6180 -0.6802
  135MOL0     H17810   1.164   1.403   2.728  1.3918 -3.5671 -0.9710
  135MOL0     H17811   1.051   1.263   2.690 -4.5707 -0.2815 -1.2140
  135MOL0     H17812   0.938   1.532   2.753  3.4407  1.2775  1.3463
  135MOL0     H17813   0.849   1.391   2.694  0.5241 -1.6160 -0.8159
  135MOL0     H17814   1.023   1.418   2.951  3.1360 -2.2245 -2.9051
  135MOL0     H17815   0.941   1.264   2.893  0.0540  0.3342 -2.0513
  135MOL0     H17816   0.715   1.373   2.917 -0.5433  3.4924 -0.5517
  135MOL0     H17817   0.804   1.354   3.074 -1.5594  0.0352  0.3836
  135MOL0     H17818   0.820   1.774   3.039  3.4016 -0.1790  2.0052
  135MOL0     H17819   1.296   1.277   2.614 -3.0974 -3.7061  1.7541
  135MOL0     H17820   1.411   1.126   2.467  1.4725  0.2952 -0.9787
  136MOL0     O17821   4.163   3.104   0.205 -0.0838  0.1960 -0.3889
  136MOL0     C17822   4.076   3.022   0.193  0.4477 -0.6533 -1.0566
  136MOL0     O17823   3.944   3.033   0.231 -0.5802  0.6751 -0.3927
  136MOL0     C17824   3.902   3.154   0.287 -0.2281 -1.1319 -0.1648
  136MOL0     C17825   3.923   3.178   0.427  0.3338  0.1719  0.7029
  136MOL0     C17826   3.869   3.295   0.477 -0.2563  0.0289  0.6743
  136MOL0     C17827   3.817   3.401   0.402 -0.4216  0.7416  0.5378
  136MOL0     O17828   3.791   3.519   0.461 -1.3409 -0.1238  0.3043
  136MOL0     C17829   3.752   3.523   0.601  1.5832  0.4270 -0.4303
  136MOL0     C17830   3.681   3.662   0.611 -0.7190 -0.2277  0.8719
  136MOL0     C17831   3.800   3.764   0.622  0.5729  0.1879  0.4668
  136MOL0     C17832   3.745   3.906   0.611  0.2579  0.1265  0.0292
  136MOL0     C17833   3.868   3.997   0.569 -0.4829  0.2656  1.0788
  136MOL0     C17834   3.809   4.132   0.542  0.4691  0.2083  0.4691
  136MOL0     C17835   3.738   4.144   0.413  1.3015 -0.5306  0.8382
  136MOL0     C17836   3.758   4.285   0.347  0.0754 -0.2022 -0.2827
  136MOL0     N17837   3.881   4.284   0.264 -0.1344  0.3276 -0.2862
  136MOL0     C17838   4.008   4.288   0.315  0.5169 -0.3985 -0.1845
  136MOL0     C17839   4.088   4.293   0.212  0.0989  0.0961  0.1427
  136MOL0     C17840   4.241   4.287   0.224  0.0593 -0.0135  0.2591
  136MOL0     C17841   4.290   4.181   0.323  0.1579  0.2447  0.0607
  136MOL0     C17842   4.437   4.196   0.345 -0.3412  0.4058  0.1778
  136MOL0     C17843   4.472   4.286   0.466  0.0720  0.4264 -1.3230
  136MOL0     O17844   4.615   4.301   0.490 -0.0573 -1.3246  0.2993
  136MOL0     C17845   4.649   4.351   0.616  0.2241  0.7063 -0.5848
  136MOL0     C17846   4.564   4.409   0.711 -0.8386  0.5608 -0.6327
  136MOL0     C17847   4.605   4.425   0.843  0.0896 -1.5103  0.4836
  136MOL0     C17848   4.721   4.376   0.890  0.5373  0.2397  0.8471
  136MOL0     C17849   4.763   4.400   1.029  0.0203  0.2696 -0.8366
  136MOL0     O17850   4.862   4.319   1.070  0.3795 -0.9027  0.8495
  136MOL0     C17851   4.921   4.336   1.187 -0.3200  0.2958  0.3291
  136MOL0     C17852   5.019   4.433   1.198  0.4116  1.0810 -0.6555
  136MOL0     C17853   5.096   4.450   1.313  0.2898  0.4938  0.1541
  136MOL0     C17854   5.070   4.371   1.423 -0.4708  0.5374 -0.3878
  136MOL0     O17855   5.132   4.384   1.548  0.4914 -0.1787 -0.1612
  136MOL0     C17856   5.277   4.358   1.540 -0.1394 -0.1743 -0.4187
  136MOL0     C17857   5.341   4.421   1.676 -0.0110  0.0221 -0.4523
  136MOL0     C17858   5.278   4.553   1.716 -0.1180  0.2984 -0.5180
  136MOL0     C17859   5.287   4.666   1.609  0.4874  0.0331  0.4632
  136MOL0     C17860   5.215   4.791   1.640 -0.2652 -0.4627  1.1704
  136MOL0     C17861   5.279   4.901   1.551 -0.3326 -0.1995 -0.3711
  136MOL0     C17862   5.193   5.030   1.548 -0.3473  0.3183 -0.1395
  136MOL0     C17863   5.225   5.127   1.441  0.7512  0.6742 -0.0358
  136MOL0    Cl17864   5.202   5.043   1.278  0.3064 -0.4066  0.1270
  136MOL0     C17865   4.957   4.274   1.421  0.3794  0.9164  0.3728
  136MOL0     C17866   4.897   4.250   1.292  0.4957  0.1099 -0.2691
  136MOL0     O17867   4.707   4.482   1.104 -0.7738  0.8723 -0.2358
  136MOL0     C17868   4.812   4.312   0.803  1.3352  0.4757 -0.4167
  136MOL0     C17869   4.775   4.316   0.665 -1.3729  0.7776 -0.3697
  136MOL0     N17870   4.007   4.290   0.098  0.0924 -0.1717 -0.1637
  136MOL0     N17871   3.880   4.279   0.132 -1.1459 -0.4605 -0.4579
  136MOL0     C17872   3.801   3.382   0.265  0.3703  0.0836 -0.2037
  136MOL0     C17873   3.837   3.255   0.209  1.1997  0.6070  0.0272
  136MOL0     C17874   4.108   2.911   0.105 -0.3937 -0.0840  0.6496
  136MOL0     C17875   4.009   2.856   0.025 -0.2708 -0.3089  0.9975
  136MOL0     C17876   4.031   2.745  -0.052 -0.7513 -1.0197 -0.1930
  136MOL0     C17877   4.160   2.680  -0.055  0.4294  0.1810 -0.4290
  136MOL0     O17878   4.168   2.593  -0.158 -0.3583  0.4131 -0.5663
  136MOL0     C17879   4.301   2.546  -0.186 -0.3919  0.4380 -0.5759
  136MOL0     C17880   4.320   2.413  -0.101 -0.0078 -0.8511  0.2439
  136MOL0     C17881   4.466   2.349  -0.091 -0.3220 -0.8380 -0.3310
  136MOL0     C17882   4.520   2.313  -0.232 -0.2568 -0.5635  0.3070
  136MOL0     C17883   4.578   2.423  -0.309 -0.1773 -0.0743 -0.5245
  136MOL0     C17884   4.618   2.521  -0.361 -0.3688 -0.2087 -0.7081
  136MOL0     C17885   4.264   2.731   0.025  1.0204 -0.1145  0.3893
  136MOL0     C17886   4.235   2.854   0.094 -0.6437  0.0003 -0.2969
  136MOL0     H17887   3.970   3.100   0.487 -0.5830  1.5558  3.3923
  136MOL0     H17888   3.879   3.305   0.585 -0.5886  0.6344  0.6551
  136MOL0     H17889   3.847   3.525   0.654  2.1226 -0.7928 -1.2936
  136MOL0     H17890   3.685   3.440   0.626  2.6721  0.0699  1.4910
  136MOL0     H17891   3.618   3.682   0.699 -2.2462  1.2930 -0.4912
  136MOL0     H17892   3.627   3.689   0.520  0.3267 -1.1618 -0.0495
  136MOL0     H17893   3.876   3.734   0.549  0.6151  1.1551  0.0949
  136MOL0     H17894   3.856   3.759   0.715  0.7509 -1.1939  0.3134
  136MOL0     H17895   3.664   3.910   0.537 -1.7327  1.0560  2.0958
  136MOL0     H17896   3.698   3.935   0.706  1.1223 -0.8352  0.7711
  136MOL0     H17897   3.930   3.976   0.481 -0.0173 -0.2575  1.5264
  136MOL0     H17898   3.941   4.001   0.650  1.1002 -0.6791 -0.2362
  136MOL0     H17899   3.890   4.205   0.539 -2.3374  3.5873  1.3900
  136MOL0     H17900   3.750   4.162   0.629  1.1573  0.2730  0.9222
  136MOL0     H17901   3.767   4.065   0.343 -1.9669  0.0356 -1.3990
  136MOL0     H17902   3.630   4.129   0.420  1.0810 -1.3442 -2.7140
  136MOL0     H17903   3.777   4.359   0.425 -1.1173  0.9280 -1.0278
  136MOL0     H17904   3.669   4.306   0.287 -0.2753  1.7416  0.8474
  136MOL0     H17905   4.043   4.291   0.417  0.1029 -0.2291 -0.0458
  136MOL0     H17906   4.278   4.380   0.269  1.6807 -1.1774  1.4511
  136MOL0     H17907   4.300   4.289   0.132  0.1697  1.3694  0.3338
  136MOL0     H17908   4.247   4.090   0.279  0.0444 -0.1186  0.9037
  136MOL0     H17909   4.248   4.201   0.422  1.7690  0.3245  0.7501
  136MOL0     H17910   4.486   4.103   0.376  0.5280  0.9423  0.4445
  136MOL0     H17911   4.493   4.238   0.261  1.0928 -1.3502  0.1943
  136MOL0     H17912   4.417   4.249   0.553  0.9673 -2.3732 -1.8427
  136MOL0     H17913   4.442   4.391   0.451 -2.8468 -0.1819 -0.3211
  136MOL0     H17914   4.459   4.429   0.690 -0.7681  0.1385 -1.4218
  136MOL0     H17915   4.529   4.480   0.898 -1.1468  1.3849 -3.6019
  136MOL0     H17916   5.034   4.498   1.114 -0.8499  1.7339 -0.4100
  136MOL0     H17917   5.175   4.524   1.312 -0.4879  1.3343  0.2341
  136MOL0     H17918   5.308   4.413   1.451 -4.9006 -3.6576 -4.8031
  136MOL0     H17919   5.293   4.250   1.544 -2.4071 -0.5131  1.0388
  136MOL0     H17920   5.447   4.433   1.653 -0.4196  1.5365 -1.6674
  136MOL0     H17921   5.323   4.352   1.759 -3.1954  3.0630  1.6675
  136MOL0     H17922   5.318   4.583   1.814 -1.0176 -2.2741  0.7314
  136MOL0     H17923   5.175   4.524   1.736  0.6433 -2.9622 -0.7838
  136MOL0     H17924   5.391   4.697   1.601  0.3653  0.3569  0.1083
  136MOL0     H17925   5.247   4.633   1.513 -0.1643  3.2687 -0.4776
  136MOL0     H17926   5.228   4.820   1.745  2.2941  0.6680  0.6078
  136MOL0     H17927   5.105   4.785   1.637 -0.4374  1.9313 -0.1084
  136MOL0     H17928   5.271   4.872   1.445 -2.6418  0.3161 -0.3894
  136MOL0     H17929   5.380   4.937   1.572 -0.5866  1.8819 -2.2959
  136MOL0     H17930   5.088   4.999   1.540 -1.4097  3.0937  1.4656
  136MOL0     H17931   5.204   5.077   1.646 -3.4526 -0.4225  0.6766
  136MOL0     H17932   5.327   5.164   1.449  0.6963  1.9387 -3.2752
  136MOL0     H17933   5.154   5.211   1.440  0.2340  0.2600  0.6410
  136MOL0     H17934   4.934   4.217   1.510  0.2773 -1.5574 -1.1492
  136MOL0     H17935   4.827   4.167   1.287 -0.9004  1.1147  1.3247
  136MOL0     H17936   4.917   4.302   0.831  0.9270 -3.3718  0.2776
  136MOL0     H17937   4.827   4.260   0.587 -1.2944  0.0561  0.1957
  136MOL0     H17938   3.758   3.466   0.211 -0.2039  1.9647  2.9667
  136MOL0     H17939   3.804   3.237   0.108 -0.9310  1.6612  0.4882
  136MOL0     H17940   3.908   2.893   0.036 -0.0793  0.4063  0.3986
  136MOL0     H17941   3.948   2.711  -0.112 -3.1504  3.2498  0.2969
  136MOL0     H17942   4.386   2.615  -0.185  1.3496 -1.5161  2.4940
  136MOL0     H17943   4.292   2.513  -0.290  1.3012 -0.8296 -0.3824
  136MOL0     H17944   4.274   2.418  -0.002  0.7630 -1.4760  0.6460
  136MOL0     H17945   4.242   2.353  -0.149 -0.8496  1.4183 -1.4055
  136MOL0     H17946   4.443   2.261  -0.030 -1.1544 -1.3427 -1.3418
  136MOL0     H17947   4.524   2.423  -0.035 -0.3119 -0.2624 -1.0894
  136MOL0     H17948   4.602   2.242  -0.230 -0.1488 -0.5521 -1.4410
  136MOL0     H17949   4.435   2.264  -0.281 -1.4294  1.0637  0.6127
  136MOL0     H17950   4.663   2.609  -0.402  3.6158 -1.5952  0.2368
  136MOL0     H17951   4.362   2.686   0.040  1.9249  2.3473  2.7842
  136MOL0     H17952   4.310   2.919   0.138 -0.8572  0.3759 -0.4821
  137MOL0     O17953   6.411   8.884   8.566 -0.2613 -0.7279 -0.3448
  137MOL0     C17954   6.473   8.939   8.476  0.6617  0.3062  0.1149
  137MOL0     O17955   6.568   9.036   8.485 -0.5448  0.5224 -0.7648
  137MOL0     C17956   6.603   9.114   8.594 -0.6248  0.6901 -0.2270
  137MOL0     C17957   6.705   9.207   8.572  0.6030  0.9121  0.1566
  137MOL0     C17958   6.755   9.283   8.684  1.5859 -0.9964 -0.0991
  137MOL0     C17959   6.713   9.275   8.815 -0.3404  0.3347 -0.7414
  137MOL0     O17960   6.766   9.350   8.917  0.4655 -0.2198  0.0880
  137MOL0     C17961   6.895   9.402   8.903 -0.1138  0.0615 -0.2496
  137MOL0     C17962   6.958   9.451   9.035 -0.5088  0.3537 -0.4991
  137MOL0     C17963   7.030   9.327   9.104 -0.0326  0.1128  0.7624
  137MOL0     C17964   7.100   9.370   9.237  0.1718 -0.0960  0.1112
  137MOL0     C17965   7.188   9.267   9.308  0.4973 -0.1797 -0.2722
  137MOL0     C17966   7.267   9.330   9.417 -0.4830 -0.3417 -0.1833
  137MOL0     C17967   7.343   9.217   9.514  0.9489  0.0574 -0.0845
  137MOL0     C17968   7.483   9.202   9.471  0.3089 -0.2237  0.2310
  137MOL0     N17969   7.569   9.315   9.507 -0.1900  0.0044  0.2735
  137MOL0     C17970   7.590   9.363   9.633 -0.8674  1.1119 -0.0416
  137MOL0     C17971   7.685   9.461   9.629 -0.4193  0.0039  0.2292
  137MOL0     C17972   7.735   9.544   9.743  0.4041 -0.5036 -0.1158
  137MOL0     C17973   7.877   9.497   9.775  0.1377  0.5054 -1.0883
  137MOL0     C17974   7.877   9.356   9.834  0.5290 -1.0035  0.4289
  137MOL0     C17975   8.027   9.306   9.835  0.2846  0.0103 -0.8364
  137MOL0     O17976   8.079   9.404   9.913 -0.5266  0.3183 -0.0250
  137MOL0     C17977   8.211   9.403   9.943  0.5356  0.0873 -1.1863
  137MOL0     C17978   8.255   9.513  10.018 -0.7653 -0.3659 -0.8142
  137MOL0     C17979   8.384   9.513  10.062 -0.5577  0.2629  0.5620
  137MOL0     C17980   8.466   9.398  10.033 -0.9523 -0.2615 -0.2126
  137MOL0     C17981   8.603   9.392  10.081  0.5630  0.0526  0.1675
  137MOL0     O17982   8.646   9.490  10.169  0.6455  0.1490  0.2212
  137MOL0     C17983   8.769   9.478  10.216 -0.6104  0.2093 -0.2368
  137MOL0     C17984   8.801   9.453  10.357 -0.5625 -0.9087  0.0861
  137MOL0     C17985   8.935   9.411  10.389 -0.6771  0.4277  0.4564
  137MOL0     C17986   9.036   9.411  10.296 -0.4536  0.3383 -0.0293
  137MOL0     O17987   9.167   9.387  10.346 -1.2909 -0.0075 -0.0636
  137MOL0     C17988   9.281   9.419  10.267  0.7299 -0.6307 -0.2710
  137MOL0     C17989   9.390   9.360  10.350 -0.3527  0.1038 -0.3968
  137MOL0     C17990   9.522   9.368  10.275  0.6159  0.6389  0.5875
  137MOL0     C17991   9.654   9.366  10.368 -0.5473 -0.7240  0.4425
  137MOL0     C17992   9.783   9.323  10.312 -0.0539 -0.2749 -0.2276
  137MOL0     C17993   9.879   9.306  10.423 -0.2976  0.3179  0.0351
  137MOL0     C17994  10.005   9.382  10.381 -0.3269 -0.6470 -0.6995
  137MOL0     C17995  10.125   9.337  10.470 -0.4375 -0.4093 -0.3842
  137MOL0    Cl17996  10.180   9.187  10.398  0.2792 -0.2556 -0.2419
  137MOL0     C17997   9.009   9.448  10.155  0.5010  0.4032 -0.0258
  137MOL0     C17998   8.871   9.466  10.121  0.0608  0.4523 -0.0781
  137MOL0     O17999   8.655   9.283  10.065  0.4587  0.8106 -0.0665
  137MOL0     C18000   8.429   9.300   9.942 -0.3169 -0.5520  0.2611
  137MOL0     C18001   8.299   9.302   9.897 -0.5536 -0.3957  1.4990
  137MOL0     N18002   7.718   9.467   9.494 -0.6002  0.0669 -0.1934
  137MOL0     N18003   7.650   9.389   9.423 -0.8195 -0.4622  0.2582
  137MOL0     C18004   6.615   9.167   8.833 -0.6229 -0.7372 -0.4742
  137MOL0     C18005   6.564   9.094   8.720 -0.4566  0.5250  0.9660
  137MOL0     C18006   6.467   8.870   8.344 -0.0096 -0.1147  0.1642
  137MOL0     C18007   6.362   8.786   8.307 -0.4512 -0.0477 -0.2329
  137MOL0     C18008   6.349   8.735   8.180 -0.6860  0.5528  0.2917
  137MOL0     C18009   6.431   8.771   8.070 -1.2973  0.2241  0.5468
  137MOL0     O18010   6.416   8.729   7.944 -0.2268  0.8563  0.0437
  137MOL0     C18011   6.304   8.654   7.892 -0.2723  0.2631 -0.5584
  137MOL0     C18012   6.175   8.737   7.887  0.9914  0.0328 -0.5320
  137MOL0     C18013   6.176   8.864   7.804 -0.1190 -0.9292  0.3466
  137MOL0     C18014   6.131   8.824   7.659 -0.5912 -0.0680  0.3140
  137MOL0     C18015   6.111   8.957   7.599  0.2718  0.6904 -0.8501
  137MOL0     C18016   6.096   9.063   7.541  0.3207  0.1379 -0.6946
  137MOL0     C18017   6.531   8.859   8.106  0.1039 -0.4110  0.6132
  137MOL0     C18018   6.552   8.908   8.239  0.3387 -0.1753  0.5615
  137MOL0     H18019   6.738   9.223   8.470 -0.3254 -3.8400 -1.1181
  137MOL0     H18020   6.842   9.342   8.659 -1.0707  2.3524 -2.2562
  137MOL0     H18021   6.880   9.476   8.823  1.7547 -3.2437 -3.9836
  137MOL0     H18022   6.960   9.319   8.874 -5.5413 -4.5761 -1.0363
  137MOL0     H18023   6.889   9.484   9.113  0.6159  1.0297  0.2399
  137MOL0     H18024   7.040   9.522   9.016  1.8755 -2.6866 -2.6945
  137MOL0     H18025   7.104   9.285   9.035  0.1018 -0.7429  1.4042
  137MOL0     H18026   6.953   9.253   9.126 -0.3706  0.1192 -0.3462
  137MOL0     H18027   7.161   9.459   9.223 -1.5173  1.8610  3.9017
  137MOL0     H18028   7.023   9.408   9.305 -3.8406 -3.3024 -2.1290
  137MOL0     H18029   7.243   9.219   9.227  0.2987  2.4729 -2.1005
  137MOL0     H18030   7.110   9.205   9.353 -0.7471  2.3250  1.2946
  137MOL0     H18031   7.192   9.385   9.475  1.1498  1.3599  0.4167
  137MOL0     H18032   7.340   9.403   9.381  1.6316 -1.6330  1.3017
  137MOL0     H18033   7.349   9.257   9.616  0.4544  1.5358 -0.6011
  137MOL0     H18034   7.284   9.129   9.540 -0.4727  1.4303  1.5784
  137MOL0     H18035   7.485   9.194   9.362 -2.7989  1.1731 -0.0205
  137MOL0     H18036   7.524   9.115   9.523  0.0695  0.4233  1.5212
  137MOL0     H18037   7.547   9.332   9.727 -3.4000  0.4906 -1.3251
  137MOL0     H18038   7.668   9.517   9.825 -1.4406 -2.4739 -2.1074
  137MOL0     H18039   7.738   9.649   9.712 -0.9267 -1.4176 -4.0345
  137MOL0     H18040   7.914   9.551   9.863 -2.9996 -0.7159  1.1559
  137MOL0     H18041   7.937   9.503   9.683 -0.8742 -0.8634 -1.8695
  137MOL0     H18042   7.837   9.348   9.936  1.0480  1.2102  0.8720
  137MOL0     H18043   7.828   9.304   9.751 -0.9372  3.8525 -2.1886
  137MOL0     H18044   8.064   9.288   9.733 -0.9547 -3.3273 -0.8130
  137MOL0     H18045   8.035   9.222   9.904  0.9372  0.5200 -0.2843
  137MOL0     H18046   8.181   9.574  10.068  2.1511  0.3399  3.1553
  137MOL0     H18047   8.433   9.595  10.113 -2.4950  1.0377  1.2711
  137MOL0     H18048   8.724   9.450  10.434 -0.8489 -0.1994 -0.1636
  137MOL0     H18049   8.960   9.388  10.492  1.6062  2.1046  0.3678
  137MOL0     H18050   9.307   9.524  10.256 -0.3558 -0.0092  2.3090
  137MOL0     H18051   9.283   9.364  10.172  1.6062 -0.5150 -0.3226
  137MOL0     H18052   9.376   9.252  10.358 -0.9322  0.2756  1.1570
  137MOL0     H18053   9.395   9.415  10.444 -1.6720  0.8355 -0.7322
  137MOL0     H18054   9.535   9.454  10.208 -2.9697 -1.1551 -2.8612
  137MOL0     H18055   9.521   9.279  10.212 -1.6455 -1.5369  3.4316
  137MOL0     H18056   9.675   9.465  10.408  1.2583 -1.8386  2.4882
  137MOL0     H18057   9.629   9.306  10.456 -0.9028 -1.2129  0.0127
  137MOL0     H18058   9.806   9.401  10.239  1.1353 -1.3404 -1.0272
  137MOL0     H18059   9.787   9.230  10.256 -0.5987 -0.3674 -0.1211
  137MOL0     H18060   9.900   9.203  10.453  0.9178  1.0958  2.0798
  137MOL0     H18061   9.839   9.345  10.517 -3.0232 -1.3594 -0.3027
  137MOL0     H18062  10.027   9.371  10.275  0.7232  0.5261 -0.6203
  137MOL0     H18063   9.987   9.486  10.407  2.7989 -0.4657  1.2873
  137MOL0     H18064  10.108   9.335  10.578  1.5543 -0.4539 -0.0321
  137MOL0     H18065  10.205   9.409  10.448 -0.2591  0.0190  1.4942
  137MOL0     H18066   9.088   9.449  10.081 -0.8360 -0.2124 -1.5166
  137MOL0     H18067   8.844   9.500  10.022 -1.2147 -1.0911 -0.3022
  137MOL0     H18068   8.496   9.224   9.903  1.3155 -1.7771  4.8040
  137MOL0     H18069   8.270   9.223   9.828 -1.4580  1.0195  0.1951
  137MOL0     H18070   6.571   9.146   8.930  0.7208  3.2650  1.1873
  137MOL0     H18071   6.489   9.021   8.748  1.2006 -0.4791  3.0924
  137MOL0     H18072   6.278   8.762   8.371 -0.6876 -0.3187 -0.6357
  137MOL0     H18073   6.274   8.663   8.149  2.2635 -2.8334  0.3610
  137MOL0     H18074   6.292   8.560   7.946  2.1872 -0.9550 -1.9392
  137MOL0     H18075   6.328   8.623   7.790  1.1291 -0.7336  0.0234
  137MOL0     H18076   6.090   8.679   7.850 -0.1955  1.5866 -0.3300
  137MOL0     H18077   6.152   8.753   7.993 -1.2952 -3.3141 -0.3615
  137MOL0     H18078   6.272   8.915   7.814 -0.4988 -0.6182  3.3124
  137MOL0     H18079   6.100   8.934   7.841 -0.5246 -0.3374 -1.5171
  137MOL0     H18080   6.217   8.771   7.616 -1.4413 -0.7581 -0.5858
  137MOL0     H18081   6.041   8.762   7.659 -1.3140  0.9463 -0.5307
  137MOL0     H18082   6.069   9.160   7.507 -2.0991 -1.6566 -4.5583
  137MOL0     H18083   6.609   8.890   8.037  0.5491 -0.2789  1.1704
  137MOL0     H18084   6.645   8.957   8.266  2.9411 -3.3540 -1.7558
  138MOL0     O18085   4.008   9.063   4.056  0.5498 -0.0001  0.9662
  138MOL0     C18086   4.121   9.048   4.016  1.3761  0.0860 -0.0498
  138MOL0     O18087   4.194   9.143   3.957 -0.3070  0.2715  0.4102
  138MOL0     C18088   4.136   9.257   3.902  0.6359 -0.1960  0.0549
  138MOL0     C18089   4.196   9.386   3.915  0.4363 -0.0103  0.8102
  138MOL0     C18090   4.153   9.508   3.861  0.3035 -1.4898  1.0704
  138MOL0     C18091   4.021   9.497   3.802 -0.1692 -0.2720  0.0482
  138MOL0     O18092   3.959   9.614   3.758 -0.4303  0.4631  0.6148
  138MOL0     C18093   3.992   9.744   3.807 -0.4590 -0.1767  0.1245
  138MOL0     C18094   4.106   9.800   3.711 -0.1608 -0.4454 -0.4054
  138MOL0     C18095   4.063   9.844   3.564  0.1319 -0.2913 -0.4725
  138MOL0     C18096   4.141   9.966   3.507 -0.2638  0.9684 -0.2963
  138MOL0     C18097   4.095  10.099   3.568  0.4537  0.3867  0.6510
  138MOL0     C18098   4.121  10.225   3.490 -0.1765 -0.4045  0.7212
  138MOL0     C18099   4.096  10.355   3.559 -0.0349 -0.2883  1.3129
  138MOL0     C18100   4.121  10.480   3.477 -0.9340  0.3285  0.2748
  138MOL0     N18101   4.032  10.510   3.369 -0.0616  0.8375  0.8766
  138MOL0     C18102   3.893  10.526   3.376  0.0411  0.3446  1.3274
  138MOL0     C18103   3.857  10.598   3.270  0.5326 -0.0299  0.0024
  138MOL0     C18104   3.721  10.671   3.237 -0.1659 -0.8133 -0.5838
  138MOL0     C18105   3.635  10.588   3.137 -0.5879  0.0517  0.2706
  138MOL0     C18106   3.700  10.580   2.994  0.5398 -0.1890  0.5339
  138MOL0     C18107   3.663  10.706   2.911 -0.3984  0.0578 -0.0945
  138MOL0     O18108   3.520  10.702   2.896 -0.0113 -0.2387 -1.0519
  138MOL0     C18109   3.464  10.783   2.803  0.6879  0.0290  0.0150
  138MOL0     C18110   3.340  10.754   2.754 -0.9194 -0.1709  0.2926
  138MOL0     C18111   3.278  10.839   2.660  0.9044  0.7725 -0.0308
  138MOL0     C18112   3.346  10.948   2.605  0.1167 -0.4731 -0.0904
  138MOL0     C18113   3.285  11.035   2.500  0.0488  0.0183 -0.6741
  138MOL0     O18114   3.153  11.048   2.500  0.7164  1.5475 -0.0195
  138MOL0     C18115   3.077  11.062   2.380  0.0550 -0.1000 -1.2288
  138MOL0     C18116   2.991  11.171   2.370  0.5274  0.2617  0.9721
  138MOL0     C18117   2.917  11.191   2.254  0.0972 -0.3054  1.2510
  138MOL0     C18118   2.929  11.092   2.149  0.0530  1.2602  0.3065
  138MOL0     O18119   2.865  11.099   2.027 -0.5454  0.0447  0.8996
  138MOL0     C18120   2.791  11.214   1.999  1.5156 -1.0101  0.3187
  138MOL0     C18121   2.757  11.222   1.857 -0.7004 -0.2404  0.2862
  138MOL0     C18122   2.705  11.356   1.817  0.1985 -0.2241 -0.3537
  138MOL0     C18123   2.561  11.388   1.872  0.1823  0.1866 -0.0382
  138MOL0     C18124   2.476  11.457   1.775  0.4077  0.4226  0.4207
  138MOL0     C18125   2.502  11.608   1.780  0.2299  0.4259  1.3105
  138MOL0     C18126   2.388  11.676   1.705  0.2986 -0.4879  0.1308
  138MOL0     C18127   2.399  11.827   1.733 -0.6747 -0.5592  0.9474
  138MOL0    Cl18128   2.551  11.866   1.644  0.3497 -0.4340 -0.3513
  138MOL0     C18129   3.000  10.976   2.166 -0.4380 -0.4681  0.8371
  138MOL0     C18130   3.081  10.964   2.276  0.7989 -0.4077 -1.6104
  138MOL0     O18131   3.364  11.069   2.414 -0.4922  0.0054 -0.1717
  138MOL0     C18132   3.472  10.968   2.645 -0.3524  0.1873 -1.0952
  138MOL0     C18133   3.531  10.889   2.745  0.2097 -0.2548 -0.5113
  138MOL0     N18134   3.964  10.623   3.192 -0.3994 -0.3737  0.8769
  138MOL0     N18135   4.071  10.571   3.249 -1.2846 -0.5612 -0.1765
  138MOL0     C18136   3.954   9.374   3.795  0.1317 -0.3772 -0.2876
  138MOL0     C18137   4.014   9.251   3.837  0.0637 -1.3763 -0.3514
  138MOL0     C18138   4.172   8.919   4.057 -0.6857  0.7467  0.4750
  138MOL0     C18139   4.104   8.798   4.057  0.6161  0.2654  0.4335
  138MOL0     C18140   4.159   8.679   4.098 -0.6749  0.4885  0.5365
  138MOL0     C18141   4.302   8.687   4.134 -0.1556  1.7847 -0.1167
  138MOL0     O18142   4.372   8.584   4.178  0.1486  0.1439 -0.2561
  138MOL0     C18143   4.322   8.444   4.193 -0.2885 -0.3316  0.1445
  138MOL0     C18144   4.441   8.347   4.226  0.2606  0.1000  0.1537
  138MOL0     C18145   4.528   8.410   4.332  0.3460 -1.3460 -0.1097
  138MOL0     C18146   4.633   8.318   4.395  0.3905  0.4759 -0.2337
  138MOL0     C18147   4.565   8.215   4.472  0.1313 -0.6743 -0.7485
  138MOL0     C18148   4.508   8.144   4.557 -0.5013 -0.8864 -0.1550
  138MOL0     C18149   4.372   8.806   4.136  0.0552 -1.0720 -0.0680
  138MOL0     C18150   4.305   8.916   4.088  0.1836 -1.2492 -0.3723
  138MOL0     H18151   4.293   9.372   3.960 -0.1070 -4.2960  1.0498
  138MOL0     H18152   4.218   9.594   3.868 -1.3390  0.0006 -1.0134
  138MOL0     H18153   4.035   9.739   3.908  0.9425  1.4507 -0.3355
  138MOL0     H18154   3.910   9.813   3.827  0.8760  1.2787  0.8185
  138MOL0     H18155   4.174   9.718   3.687 -1.1922 -1.1041 -1.1501
  138MOL0     H18156   4.169   9.875   3.760  0.7219 -1.0814 -0.5508
  138MOL0     H18157   3.958   9.875   3.570  0.3476  0.5388 -0.9047
  138MOL0     H18158   4.079   9.758   3.498  1.9418  0.1379 -0.6328
  138MOL0     H18159   4.250   9.959   3.519  0.0044 -2.1668 -3.1194
  138MOL0     H18160   4.140   9.974   3.398  0.0179 -0.3477 -0.4111
  138MOL0     H18161   4.149  10.101   3.663  0.4177  0.2130  0.6763
  138MOL0     H18162   3.987  10.089   3.582 -0.0576  3.9665  0.1708
  138MOL0     H18163   4.061  10.208   3.400  2.1112  1.9296 -1.4089
  138MOL0     H18164   4.228  10.225   3.465  0.4882 -0.5537  3.2271
  138MOL0     H18165   3.988  10.364   3.570 -0.0578  0.2669  0.6988
  138MOL0     H18166   4.155  10.351   3.651  0.1300 -2.5949  1.1542
  138MOL0     H18167   4.222  10.477   3.436 -1.1158 -1.7285 -0.1578
  138MOL0     H18168   4.127  10.562   3.549  1.4654 -0.3988  1.0059
  138MOL0     H18169   3.831  10.502   3.461 -0.8109 -0.7195  0.4394
  138MOL0     H18170   3.751  10.768   3.198  1.9839 -0.7856  0.9579
  138MOL0     H18171   3.666  10.695   3.328  1.4791  0.0819  0.2298
  138MOL0     H18172   3.532  10.623   3.131 -0.4807  0.3438  0.1146
  138MOL0     H18173   3.649  10.486   3.173  2.0736  0.7909  1.6044
  138MOL0     H18174   3.806  10.557   3.001  0.5144 -0.2168  0.8390
  138MOL0     H18175   3.659  10.494   2.940  0.0559 -0.2611  1.0073
  138MOL0     H18176   3.706  10.677   2.815 -0.8401 -3.1640  0.5651
  138MOL0     H18177   3.700  10.798   2.958 -0.2503 -0.5709  1.0509
  138MOL0     H18178   3.278  10.679   2.801  0.8064  0.4827  3.9858
  138MOL0     H18179   3.172  10.823   2.643  1.3151 -3.8744  0.3415
  138MOL0     H18180   2.980  11.236   2.456  0.8252 -1.3719  2.2934
  138MOL0     H18181   2.858  11.280   2.239  0.8508  0.7557  4.0086
  138MOL0     H18182   2.841  11.308   2.027  0.6245 -0.1700 -0.8181
  138MOL0     H18183   2.689  11.214   2.038 -0.1207  2.9715 -3.1340
  138MOL0     H18184   2.699  11.134   1.830  3.2478 -2.7425 -0.8673
  138MOL0     H18185   2.851  11.209   1.802  0.7151  0.1450  2.4981
  138MOL0     H18186   2.696  11.367   1.708 -2.2553  0.7707 -0.1285
  138MOL0     H18187   2.773  11.437   1.845 -2.0203  0.8565  2.3947
  138MOL0     H18188   2.509  11.294   1.892  2.7452 -1.0605  1.1910
  138MOL0     H18189   2.554  11.435   1.971  0.4766  3.0410 -1.2577
  138MOL0     H18190   2.379  11.427   1.816  0.6295 -1.3237 -0.2188
  138MOL0     H18191   2.489  11.421   1.672  0.7652 -0.7771  0.8620
  138MOL0     H18192   2.600  11.623   1.733  0.3815 -3.1152  0.2214
  138MOL0     H18193   2.497  11.644   1.883  0.9136  1.6658  0.9411
  138MOL0     H18194   2.381  11.647   1.600  2.1534 -2.3362  0.4566
  138MOL0     H18195   2.297  11.640   1.753  0.9692 -2.7445 -0.1829
  138MOL0     H18196   2.415  11.843   1.840 -1.2346 -2.0758  1.2946
  138MOL0     H18197   2.319  11.893   1.698  3.0098  2.9223 -1.7925
  138MOL0     H18198   3.003  10.896   2.093  2.4471 -0.5900  0.9684
  138MOL0     H18199   3.143  10.875   2.286  1.8715  0.5479  1.0357
  138MOL0     H18200   3.537  11.050   2.616  2.2737 -0.3221  2.6635
  138MOL0     H18201   3.631  10.922   2.774 -0.2436  1.9176 -1.2591
  138MOL0     H18202   3.857   9.374   3.747 -1.0527  6.4887  1.1034
  138MOL0     H18203   3.967   9.155   3.817 -1.3674 -0.9152  0.6188
  138MOL0     H18204   4.001   8.808   4.025  1.0555 -1.5125 -1.8937
  138MOL0     H18205   4.104   8.585   4.098 -0.1413  0.1658 -0.6042
  138MOL0     H18206   4.286   8.411   4.095 -1.0584  1.2507 -0.1247
  138MOL0     H18207   4.252   8.449   4.276  0.3517 -1.9977  0.8264
  138MOL0     H18208   4.398   8.248   4.246  2.1916 -0.2810  2.8809
  138MOL0     H18209   4.504   8.321   4.140  1.1568 -1.5301  1.2608
  138MOL0     H18210   4.472   8.459   4.412  2.2934  1.0567 -0.1220
  138MOL0     H18211   4.581   8.493   4.286 -2.8060  1.3555  0.7290
  138MOL0     H18212   4.692   8.276   4.313 -0.9705 -3.8020  0.7242
  138MOL0     H18213   4.706   8.368   4.460  1.3905 -0.3889 -0.6410
  138MOL0     H18214   4.481   8.076   4.635 -0.4075 -0.4880  0.2233
  138MOL0     H18215   4.475   8.819   4.166  0.4741  3.0413 -2.4623
  138MOL0     H18216   4.361   9.009   4.089  1.1483 -1.8074  1.3808
  139MOL0     O18217   6.927   3.407   1.907 -0.2151 -0.3752 -0.2970
  139MOL0     C18218   6.890   3.297   1.935 -0.1087  0.0191 -0.1655
  139MOL0     O18219   6.900   3.190   1.849  0.5274 -0.5539  0.0196
  139MOL0     C18220   6.969   3.221   1.739  0.0896  0.1468 -0.5350
  139MOL0     C18221   6.927   3.303   1.629  0.0812  0.7603  0.8064
  139MOL0     C18222   7.010   3.319   1.519  0.7563  0.7080 -0.0009
  139MOL0     C18223   7.146   3.266   1.519  0.9494  0.5346  1.1750
  139MOL0     O18224   7.240   3.324   1.434  0.0318  0.2519  0.0791
  139MOL0     C18225   7.259   3.260   1.312 -0.2657 -0.0399  1.1394
  139MOL0     C18226   7.392   3.289   1.262 -0.3072  0.1012  0.5005
  139MOL0     C18227   7.414   3.210   1.136  0.2480 -0.6635 -1.2307
  139MOL0     C18228   7.337   3.274   1.020 -0.7863 -0.2868 -0.2986
  139MOL0     C18229   7.299   3.188   0.892  0.2153 -0.2169 -0.3197
  139MOL0     C18230   7.194   3.076   0.919 -0.4418 -0.2923 -0.2391
  139MOL0     C18231   7.155   3.007   0.794  0.5928  0.0724 -0.8759
  139MOL0     C18232   7.253   2.921   0.722 -0.1318 -0.4569  0.6785
  139MOL0     N18233   7.190   2.828   0.621 -0.2030 -0.7620  0.2085
  139MOL0     C18234   7.111   2.723   0.648  0.0895  0.4359 -0.6066
  139MOL0     C18235   7.058   2.679   0.536  0.7694  0.2932 -0.6782
  139MOL0     C18236   6.977   2.555   0.533  0.0211  0.4420 -0.0144
  139MOL0     C18237   6.830   2.589   0.538 -0.3786  0.8301 -0.5040
  139MOL0     C18238   6.743   2.464   0.524 -0.7850  1.4330  0.3701
  139MOL0     C18239   6.595   2.496   0.532 -0.3506 -0.5547 -0.0451
  139MOL0     O18240   6.516   2.378   0.513 -0.1165 -0.1798  0.4175
  139MOL0     C18241   6.476   2.352   0.378  0.6331  0.9160 -1.0596
  139MOL0     C18242   6.561   2.292   0.283  0.4645  0.4425  0.6585
  139MOL0     C18243   6.490   2.252   0.165 -0.6614  0.0812  0.6927
  139MOL0     C18244   6.359   2.269   0.136  0.2885  0.5597  0.1867
  139MOL0     C18245   6.310   2.223   0.008 -0.2770 -0.4911  0.7876
  139MOL0     O18246   6.211   2.305  -0.044  0.8014 -0.5998  0.1020
  139MOL0     C18247   6.183   2.289  -0.176  0.7690 -0.2225  0.2736
  139MOL0     C18248   6.216   2.387  -0.263  0.7651  0.4209  0.0149
  139MOL0     C18249   6.172   2.382  -0.397  0.0387  0.1554 -0.2685
  139MOL0     C18250   6.106   2.279  -0.452  0.3387  0.4956 -0.1942
  139MOL0     O18251   6.052   2.277  -0.579  0.8064  0.3359 -0.6355
  139MOL0     C18252   6.011   2.391  -0.658 -0.3382  0.3147 -0.7434
  139MOL0     C18253   6.078   2.405  -0.791  0.0605 -0.0421  0.0100
  139MOL0     C18254   6.076   2.551  -0.838 -0.0814 -0.4699 -0.3286
  139MOL0     C18255   6.049   2.554  -0.992  0.5488 -0.8643 -0.2165
  139MOL0     C18256   6.055   2.697  -1.037 -0.2213 -0.0574  0.3903
  139MOL0     C18257   5.979   2.735  -1.164 -0.0639  0.3510 -0.1163
  139MOL0     C18258   6.001   2.884  -1.211  0.7168  0.5419  0.4723
  139MOL0     C18259   5.934   2.893  -1.347  0.3233 -0.3387  0.3095
  139MOL0    Cl18260   6.045   2.824  -1.478 -0.2261  0.1954  0.4196
  139MOL0     C18261   6.071   2.172  -0.369 -0.5150  1.4614  0.2262
  139MOL0     C18262   6.107   2.183  -0.230 -0.0187  0.5095 -0.2836
  139MOL0     O18263   6.350   2.124  -0.042 -0.8527 -0.3132  0.2254
  139MOL0     C18264   6.278   2.332   0.236  0.1756 -0.3669  0.3006
  139MOL0     C18265   6.338   2.358   0.354 -0.3091 -0.2434  0.2097
  139MOL0     N18266   7.096   2.758   0.441  0.9661 -0.6665  0.0956
  139MOL0     N18267   7.171   2.857   0.489  0.7335  0.9551 -0.0277
  139MOL0     C18268   7.189   3.189   1.623  0.7180 -0.5147 -0.5175
  139MOL0     C18269   7.098   3.163   1.735  0.1732  0.3299 -0.2134
  139MOL0     C18270   6.830   3.269   2.065 -0.3097 -0.0058 -0.5334
  139MOL0     C18271   6.875   3.342   2.179 -0.1856  0.6360  0.2594
  139MOL0     C18272   6.838   3.297   2.309  0.8374  0.0600 -0.8530
  139MOL0     C18273   6.767   3.177   2.330  0.2718 -0.6722 -0.7372
  139MOL0     O18274   6.737   3.113   2.445  0.3851 -0.0584 -0.0506
  139MOL0     C18275   6.774   3.183   2.566  0.6853  0.0293  0.4926
  139MOL0     C18276   6.714   3.109   2.682  0.3775  0.3736 -1.1053
  139MOL0     C18277   6.776   2.985   2.738  0.0100  0.7921 -0.6258
  139MOL0     C18278   6.698   2.946   2.862 -0.6932  0.1497  0.1682
  139MOL0     C18279   6.571   2.875   2.831  1.0368  0.1196 -0.0610
  139MOL0     C18280   6.453   2.848   2.797 -0.4644 -0.2791  0.5420
  139MOL0     C18281   6.726   3.109   2.209  0.4168  0.0074 -0.0877
  139MOL0     C18282   6.744   3.157   2.076  0.2107  0.5571 -0.1613
  139MOL0     H18283   6.829   3.351   1.628  0.2159  1.2239 -2.6041
  139MOL0     H18284   6.968   3.386   1.445 -1.1905 -2.7564 -2.3239
  139MOL0     H18285   7.182   3.280   1.236  0.8038  2.0643  0.5274
  139MOL0     H18286   7.240   3.153   1.310  0.3614 -0.1917 -1.9852
  139MOL0     H18287   7.456   3.258   1.346 -0.8499  2.4871  1.9053
  139MOL0     H18288   7.413   3.392   1.234  4.9240 -1.8871 -5.2880
  139MOL0     H18289   7.395   3.104   1.155 -0.2956 -0.6888 -1.8844
  139MOL0     H18290   7.519   3.200   1.106  0.0197 -0.8794 -1.9705
  139MOL0     H18291   7.243   3.320   1.052 -0.9433  0.4114 -1.6878
  139MOL0     H18292   7.397   3.361   0.995 -0.3869 -0.0763  1.3101
  139MOL0     H18293   7.387   3.146   0.842 -1.6070 -2.2910 -2.0475
  139MOL0     H18294   7.254   3.248   0.812 -0.9478 -2.5646 -1.5381
  139MOL0     H18295   7.106   3.122   0.966 -1.1908  0.7304 -2.4845
  139MOL0     H18296   7.234   3.001   0.988 -0.9916 -0.6491 -0.2969
  139MOL0     H18297   7.081   2.933   0.826 -1.4145  2.6303  0.8248
  139MOL0     H18298   7.112   3.085   0.731  0.7515  1.6434  0.8659
  139MOL0     H18299   7.316   2.861   0.789 -0.7035 -2.2700 -0.3360
  139MOL0     H18300   7.327   2.990   0.681 -0.0895 -0.2242  1.1353
  139MOL0     H18301   7.109   2.688   0.751 -0.1801  2.5421  0.1586
  139MOL0     H18302   7.008   2.495   0.619  0.2301 -1.9063 -1.6676
  139MOL0     H18303   7.000   2.507   0.438  0.3058 -1.7444  1.0957
  139MOL0     H18304   6.795   2.673   0.478  0.8920  0.9427 -1.1302
  139MOL0     H18305   6.823   2.631   0.638  2.6572  0.5764 -0.0905
  139MOL0     H18306   6.768   2.419   0.427 -1.9847  0.7565  0.3509
  139MOL0     H18307   6.774   2.398   0.605  0.2136  1.8315  0.3283
  139MOL0     H18308   6.568   2.566   0.453  0.7378 -0.5648 -0.4444
  139MOL0     H18309   6.575   2.536   0.632 -3.3017 -2.7436  0.3707
  139MOL0     H18310   6.664   2.262   0.300  0.8519 -1.7578 -4.0191
  139MOL0     H18311   6.542   2.192   0.091 -1.5269  0.9668 -0.6848
  139MOL0     H18312   6.264   2.474  -0.220 -0.5185  0.4618  1.4371
  139MOL0     H18313   6.196   2.459  -0.470 -3.9612 -0.7113 -2.8053
  139MOL0     H18314   6.043   2.486  -0.616  0.4820  0.2119 -1.1011
  139MOL0     H18315   5.903   2.389  -0.671 -0.2791 -2.8763 -1.7497
  139MOL0     H18316   6.024   2.345  -0.865  0.9356 -3.9094  2.2194
  139MOL0     H18317   6.183   2.375  -0.800 -0.0184 -0.5606  0.7027
  139MOL0     H18318   6.163   2.610  -0.808  3.1755 -4.6286 -0.5383
  139MOL0     H18319   5.994   2.592  -0.780  0.1454  0.6679 -0.7880
  139MOL0     H18320   6.122   2.494  -1.047 -1.9005 -2.8844 -1.4600
  139MOL0     H18321   5.948   2.514  -1.004 -0.5090  0.8133  2.2831
  139MOL0     H18322   6.162   2.714  -1.053  0.0112 -2.6662 -1.3839
  139MOL0     H18323   6.024   2.765  -0.957 -0.3070  2.2046 -1.4732
  139MOL0     H18324   5.874   2.706  -1.150  0.3737 -1.3641 -0.1622
  139MOL0     H18325   6.009   2.667  -1.244  2.0495 -0.0335  0.9264
  139MOL0     H18326   5.944   2.950  -1.145 -0.3320  1.2431 -1.0423
  139MOL0     H18327   6.107   2.910  -1.208  1.7118 -3.1279  1.5279
  139MOL0     H18328   5.910   2.997  -1.368  1.0944  0.1217  1.5939
  139MOL0     H18329   5.841   2.837  -1.340 -0.6932  1.4174  1.6761
  139MOL0     H18330   6.025   2.084  -0.412  2.5677  0.4109 -1.3035
  139MOL0     H18331   6.086   2.104  -0.158  1.5870  0.6341  0.3647
  139MOL0     H18332   6.171   2.344   0.243  0.2105  0.1757  0.0120
  139MOL0     H18333   6.297   2.402   0.444 -0.0117  1.9169 -0.6662
  139MOL0     H18334   7.283   3.136   1.614 -0.1985 -2.3340  0.1994
  139MOL0     H18335   7.121   3.094   1.816  0.0841 -0.8619 -1.1660
  139MOL0     H18336   6.940   3.429   2.177  0.6618  0.2057  3.5145
  139MOL0     H18337   6.874   3.364   2.386 -0.1705 -0.5258  0.1409
  139MOL0     H18338   6.719   3.277   2.558 -0.9833 -1.0625 -2.9987
  139MOL0     H18339   6.882   3.195   2.568  0.6596  0.9294 -1.4097
  139MOL0     H18340   6.713   3.180   2.765  0.3381 -1.3345  0.3978
  139MOL0     H18341   6.609   3.083   2.666  0.2144 -0.5143  1.0710
  139MOL0     H18342   6.870   3.024   2.778 -1.6575  3.1731  1.3043
  139MOL0     H18343   6.793   2.905   2.666 -2.5926 -0.5120  0.1063
  139MOL0     H18344   6.753   2.870   2.918 -3.4189  0.3563  3.4482
  139MOL0     H18345   6.686   3.025   2.936  2.1775  2.7208 -1.7980
  139MOL0     H18346   6.355   2.822   2.762 -1.1867  0.2684  2.0534
  139MOL0     H18347   6.673   3.014   2.212  1.9668 -0.8802  2.4762
  139MOL0     H18348   6.697   3.099   1.997 -0.8316 -0.6198  1.2520
  140MOL0     O18349   5.152  11.435   8.934 -1.0047  0.0561 -0.2378
  140MOL0     C18350   5.065  11.354   8.952 -0.3573  0.7689  0.3031
  140MOL0     O18351   5.082  11.224   8.977 -1.1968  1.0468 -0.9462
  140MOL0     C18352   5.198  11.166   8.937 -1.3030  0.6574  0.1221
  140MOL0     C18353   5.258  11.195   8.810 -0.2169 -0.7191 -0.5606
  140MOL0     C18354   5.377  11.133   8.771 -0.9067  0.1221 -0.0563
  140MOL0     C18355   5.439  11.041   8.859  0.0249 -0.4303 -0.4147
  140MOL0     O18356   5.562  10.975   8.838 -0.1829  0.2982  0.2418
  140MOL0     C18357   5.684  11.056   8.862 -0.5170  0.8315 -0.5291
  140MOL0     C18358   5.670  11.144   8.986 -0.8648 -0.8093  0.0104
  140MOL0     C18359   5.806  11.214   9.005 -0.5376 -0.3740  0.7619
  140MOL0     C18360   5.789  11.309   9.130 -1.2983 -0.5376 -0.0810
  140MOL0     C18361   5.915  11.353   9.192 -1.3710 -0.0681  0.1634
  140MOL0     C18362   6.006  11.451   9.131  0.6409 -0.5763 -0.0941
  140MOL0     C18363   6.154  11.460   9.180  0.2707  0.2366  0.0489
  140MOL0     C18364   6.252  11.350   9.129 -0.1042 -0.3273 -0.6225
  140MOL0     N18365   6.365  11.318   9.220 -0.0899  0.6258 -0.0454
  140MOL0     C18366   6.465  11.393   9.258  0.0443  0.1056  0.2718
  140MOL0     C18367   6.535  11.325   9.356 -0.5209 -0.1355 -0.6734
  140MOL0     C18368   6.657  11.359   9.444 -0.3964 -0.2549 -0.7221
  140MOL0     C18369   6.623  11.456   9.567  0.5181  0.1848 -0.1295
  140MOL0     C18370   6.632  11.598   9.528 -1.0271 -0.4108 -0.5808
  140MOL0     C18371   6.586  11.680   9.645 -0.0362 -0.3819 -0.1341
  140MOL0     O18372   6.621  11.817   9.613  0.2473 -0.5760 -0.2413
  140MOL0     C18373   6.612  11.909   9.711  0.5816 -0.0295  0.2008
  140MOL0     C18374   6.669  12.035   9.689 -0.6459 -0.0506  0.3725
  140MOL0     C18375   6.687  12.116   9.801  0.5177 -0.3271 -0.3217
  140MOL0     C18376   6.618  12.103   9.918  0.3916 -0.6443 -0.5984
  140MOL0     C18377   6.627  12.198  10.027  0.9340  0.7647  0.1220
  140MOL0     O18378   6.550  12.180  10.134  0.6810  0.6507 -0.0567
  140MOL0     C18379   6.565  12.264  10.237 -0.3893 -0.0216  0.2927
  140MOL0     C18380   6.638  12.240  10.350 -0.7556  0.7688 -0.6444
  140MOL0     C18381   6.651  12.329  10.453 -0.2559  0.3114  0.3102
  140MOL0     C18382   6.581  12.451  10.457  1.0614 -1.3789 -0.2532
  140MOL0     O18383   6.596  12.537  10.565  0.4030 -0.4968  0.4205
  140MOL0     C18384   6.607  12.683  10.525 -0.0318  0.0070  1.1207
  140MOL0     C18385   6.713  12.759  10.605  0.4953  0.0561 -0.1081
  140MOL0     C18386   6.828  12.659  10.639  0.8370  0.7088 -0.1335
  140MOL0     C18387   6.955  12.729  10.696 -0.1963 -1.0541  0.6413
  140MOL0     C18388   7.028  12.820  10.596 -0.4396  0.2384  0.7117
  140MOL0     C18389   7.164  12.864  10.649  0.2438 -0.1611  0.2274
  140MOL0     C18390   7.165  12.906  10.794  0.3676 -0.4075 -0.4741
  140MOL0     C18391   7.300  12.982  10.831  0.7748 -0.6538 -0.8233
  140MOL0    Cl18392   7.276  13.100  10.942 -0.1585  0.1021 -0.5722
  140MOL0     C18393   6.488  12.468  10.349  0.1619 -0.5715 -1.1056
  140MOL0     C18394   6.489  12.381  10.230  0.3076  0.0600 -0.1561
  140MOL0     O18395   6.713  12.287  10.017  0.2087 -0.4003 -0.5513
  140MOL0     C18396   6.540  11.996   9.930 -0.3222  0.3666  0.3347
  140MOL0     C18397   6.537  11.896   9.833  0.2379 -0.4176  1.0368
  140MOL0     N18398   6.478  11.202   9.374  0.0753  0.6729  0.7696
  140MOL0     N18399   6.383  11.201   9.288  0.7881  0.4240 -0.4168
  140MOL0     C18400   5.368  11.000   8.973 -0.1194  0.8244  0.1175
  140MOL0     C18401   5.246  11.055   9.009  0.0242 -0.1824  0.4221
  140MOL0     C18402   4.922  11.391   8.938  1.4098  0.1160  0.3614
  140MOL0     C18403   4.878  11.515   8.997 -0.0481 -0.0389 -0.0697
  140MOL0     C18404   4.738  11.548   9.004  0.2075  0.8849  0.0411
  140MOL0     C18405   4.639  11.449   8.955  0.3043 -1.0010 -0.3925
  140MOL0     O18406   4.506  11.479   8.965  0.1179 -0.4101 -0.3107
  140MOL0     C18407   4.433  11.472   8.841  0.9944 -0.8111 -0.4029
  140MOL0     C18408   4.321  11.580   8.833 -0.7909  1.2804 -0.7783
  140MOL0     C18409   4.218  11.569   8.946  0.2667  0.1311 -0.3837
  140MOL0     C18410   4.247  11.673   9.047 -0.1473 -0.8611 -0.5054
  140MOL0     C18411   4.135  11.674   9.148 -0.4334 -0.5537  0.2539
  140MOL0     C18412   4.042  11.676   9.232  1.1124  0.1608 -0.5750
  140MOL0     C18413   4.685  11.333   8.886 -0.3076 -0.1788  0.6078
  140MOL0     C18414   4.819  11.296   8.881 -0.0603 -0.1449 -0.3947
  140MOL0     H18415   5.207  11.269   8.750  0.4168  2.6762  2.7528
  140MOL0     H18416   5.418  11.157   8.674 -0.2032  0.2136  0.2553
  140MOL0     H18417   5.708  11.117   8.774  1.7275 -0.6583 -1.0339
  140MOL0     H18418   5.766  10.987   8.881 -1.2680 -0.2616 -1.1032
  140MOL0     H18419   5.643  11.089   9.077  0.2505 -1.4345 -0.0276
  140MOL0     H18420   5.590  11.219   8.981 -0.7381 -0.2120  3.6428
  140MOL0     H18421   5.828  11.280   8.921  0.9779 -0.3063  1.1841
  140MOL0     H18422   5.884  11.143   9.032 -0.7287 -0.8267  0.1434
  140MOL0     H18423   5.723  11.393   9.104  0.5967  1.6204  1.7169
  140MOL0     H18424   5.734  11.258   9.209  1.2609 -0.4647  1.8400
  140MOL0     H18425   5.971  11.261   9.208  4.7637  2.4103 -3.4288
  140MOL0     H18426   5.870  11.401   9.280  0.6271  0.9407  0.6992
  140MOL0     H18427   5.969  11.552   9.154  1.1360  0.2469 -2.6302
  140MOL0     H18428   6.008  11.440   9.022 -5.4671  2.7561 -1.0202
  140MOL0     H18429   6.207  11.552   9.151  0.7678  0.1699  0.7112
  140MOL0     H18430   6.154  11.460   9.290 -1.8524  3.0069  0.1572
  140MOL0     H18431   6.301  11.395   9.042  2.5847 -0.5856  0.6486
  140MOL0     H18432   6.194  11.260   9.106 -0.1756 -0.6023  0.5512
  140MOL0     H18433   6.491  11.491   9.219  1.5283 -0.0693  0.7666
  140MOL0     H18434   6.736  11.408   9.386 -0.9004  3.1037  1.2030
  140MOL0     H18435   6.696  11.264   9.481 -0.4558  0.0338  0.0884
  140MOL0     H18436   6.696  11.418   9.639  1.2835 -2.4733 -2.1374
  140MOL0     H18437   6.522  11.420   9.588  1.1948 -3.7806 -2.5908
  140MOL0     H18438   6.734  11.619   9.496 -1.6459  0.5864 -1.9928
  140MOL0     H18439   6.559  11.618   9.449 -0.7417 -1.4631 -1.1333
  140MOL0     H18440   6.644  11.656   9.735  0.2667 -1.3368 -0.5656
  140MOL0     H18441   6.478  11.667   9.656 -0.1264  0.7534  0.4775
  140MOL0     H18442   6.721  12.047   9.594  0.2752 -0.6550  0.7778
  140MOL0     H18443   6.767  12.188   9.785 -1.9205  2.5345 -0.6418
  140MOL0     H18444   6.701  12.154  10.368 -0.8599  0.8440  0.1131
  140MOL0     H18445   6.714  12.308  10.539 -0.8613  0.5461  0.8196
  140MOL0     H18446   6.515  12.740  10.538 -0.7642 -1.1152  1.0122
  140MOL0     H18447   6.636  12.704  10.422 -0.5915  0.9266  1.1353
  140MOL0     H18448   6.670  12.802  10.695  0.4694  0.3693 -0.2709
  140MOL0     H18449   6.752  12.840  10.543 -0.5421  0.1989 -0.5894
  140MOL0     H18450   6.856  12.594  10.555  1.1474 -0.0784  0.5687
  140MOL0     H18451   6.803  12.592  10.722  1.4584 -0.3043 -0.7432
  140MOL0     H18452   6.922  12.793  10.779  0.1696  0.1763 -0.1306
  140MOL0     H18453   7.024  12.649  10.725 -0.7406 -2.1961 -1.1241
  140MOL0     H18454   6.977  12.912  10.566  0.2600  0.8080  1.2448
  140MOL0     H18455   7.055  12.772  10.501  1.5171  0.7065  0.9960
  140MOL0     H18456   7.213  12.941  10.588  2.4848 -0.7051  1.2402
  140MOL0     H18457   7.234  12.781  10.644  1.9222  1.1602  0.9384
  140MOL0     H18458   7.071  12.960  10.797 -0.7224 -2.1835 -1.1422
  140MOL0     H18459   7.162  12.822  10.865  4.3407  0.1249  0.5882
  140MOL0     H18460   7.354  13.028  10.748  2.3256 -1.3782 -0.2589
  140MOL0     H18461   7.365  12.912  10.885 -0.2463  1.1329  3.0886
  140MOL0     H18462   6.429  12.559  10.352  1.8890  0.5730  1.0890
  140MOL0     H18463   6.409  12.389  10.157 -0.1605 -0.2678  0.3146
  140MOL0     H18464   6.486  11.961  10.017 -0.8782 -3.6176 -1.3605
  140MOL0     H18465   6.469  11.813   9.849  0.7839 -0.4939  3.3607
  140MOL0     H18466   5.400  10.920   9.039 -0.2890  0.4053 -0.3039
  140MOL0     H18467   5.184  11.026   9.094  0.4828  3.1986  2.0887
  140MOL0     H18468   4.940  11.584   9.054 -0.8068 -0.2432  1.0415
  140MOL0     H18469   4.701  11.638   9.052 -0.2053 -0.3307  2.1000
  140MOL0     H18470   4.398  11.369   8.833  0.7738 -0.9250  1.5576
  140MOL0     H18471   4.508  11.491   8.764  0.5603 -0.1584 -0.6755
  140MOL0     H18472   4.367  11.679   8.823  1.6548  0.3434  0.5348
  140MOL0     H18473   4.255  11.561   8.747 -2.5966  1.8141  0.4197
  140MOL0     H18474   4.217  11.465   8.980  1.6023 -0.2905 -1.5241
  140MOL0     H18475   4.123  11.577   8.891 -0.5507 -0.8495  0.8265
  140MOL0     H18476   4.346  11.653   9.088 -0.1700  2.0363  1.2242
  140MOL0     H18477   4.278  11.772   9.011  1.6396 -1.1427  0.1725
  140MOL0     H18478   3.961  11.672   9.301 -0.0574  2.1756 -1.7454
  140MOL0     H18479   4.611  11.268   8.841 -0.3659  0.6427 -0.5095
  140MOL0     H18480   4.858  11.206   8.836  1.6949 -1.1092  2.7139
  141MOL0     O18481   0.479   0.715   4.690 -0.0366  0.3352  1.1613
  141MOL0     C18482   0.476   0.613   4.762  0.7494  1.0129  0.2882
  141MOL0     O18483   0.368   0.557   4.832  0.0298  0.6043 -0.2786
  141MOL0     C18484   0.266   0.628   4.884 -0.0382 -0.2648 -0.8704
  141MOL0     C18485   0.183   0.550   4.972 -0.7389 -0.2790 -0.4802
  141MOL0     C18486   0.058   0.600   5.028 -0.2588  0.5136  0.4228
  141MOL0     C18487   0.030   0.737   5.014  0.3864 -0.9182  0.9192
  141MOL0     O18488  -0.075   0.803   5.080 -0.0373  0.1990 -0.1488
  141MOL0     C18489  -0.191   0.731   5.098 -0.5823  0.5866  0.3821
  141MOL0     C18490  -0.295   0.837   5.119  0.6453 -0.0992 -0.0275
  141MOL0     C18491  -0.331   0.898   5.256 -0.1587  0.6322 -0.5906
  141MOL0     C18492  -0.459   0.985   5.262  0.0862  0.5548 -0.2517
  141MOL0     C18493  -0.476   1.082   5.139 -1.1467  0.3017 -0.2693
  141MOL0     C18494  -0.366   1.191   5.126 -0.5584  0.1796 -0.0718
  141MOL0     C18495  -0.405   1.281   5.006 -0.2825 -0.9468 -0.3600
  141MOL0     C18496  -0.547   1.339   5.019 -0.2953  0.3525  0.5762
  141MOL0     N18497  -0.567   1.468   4.956  0.3909 -0.5950 -0.1073
  141MOL0     C18498  -0.643   1.566   5.007 -0.3292  0.3258 -0.1872
  141MOL0     C18499  -0.686   1.641   4.909  0.4087  0.3908  0.4555
  141MOL0     C18500  -0.765   1.766   4.925 -0.1185  0.3951  0.0759
  141MOL0     C18501  -0.694   1.868   5.011  0.5602 -0.1578 -0.3328
  141MOL0     C18502  -0.787   1.980   5.055  0.4072  0.2777 -0.5288
  141MOL0     C18503  -0.712   2.107   5.107 -0.6453  0.5315 -0.3612
  141MOL0     O18504  -0.804   2.211   5.141 -0.0134 -0.5766  0.6284
  141MOL0     C18505  -0.857   2.234   5.265  0.3464  1.3467 -0.3039
  141MOL0     C18506  -0.834   2.173   5.387  0.4927 -0.5014 -0.2522
  141MOL0     C18507  -0.893   2.213   5.510 -0.6936 -0.0622  0.5999
  141MOL0     C18508  -0.986   2.323   5.499  0.3071  0.0075 -0.5785
  141MOL0     C18509  -1.046   2.387   5.623 -0.2934  0.0084 -0.4831
  141MOL0     O18510  -1.163   2.441   5.601  0.9238  0.1551 -0.5284
  141MOL0     C18511  -1.234   2.513   5.698  0.1924  0.7385  0.0135
  141MOL0     C18512  -1.175   2.604   5.781 -0.8054  0.8877  0.1233
  141MOL0     C18513  -1.248   2.684   5.869  0.9114 -1.4334 -0.0402
  141MOL0     C18514  -1.384   2.676   5.872 -0.1437  0.2704 -1.1264
  141MOL0     O18515  -1.450   2.754   5.964 -0.0488 -0.1040 -0.0979
  141MOL0     C18516  -1.591   2.729   5.990  1.0423  0.2999  0.4817
  141MOL0     C18517  -1.622   2.766   6.137 -0.1796 -0.4078 -0.1630
  141MOL0     C18518  -1.579   2.658   6.242 -0.0250  0.6279 -0.0421
  141MOL0     C18519  -1.652   2.522   6.235 -0.1162  0.4088  0.1717
  141MOL0     C18520  -1.756   2.496   6.342 -0.0461  0.0691  0.3402
  141MOL0     C18521  -1.827   2.367   6.342 -0.3785  1.2932  0.5402
  141MOL0     C18522  -1.890   2.329   6.477  0.1469 -0.1873  0.2166
  141MOL0     C18523  -2.005   2.429   6.516  0.7023 -0.3890 -0.7698
  141MOL0    Cl18524  -2.065   2.383   6.676  0.3195 -0.0857 -0.2540
  141MOL0     C18525  -1.453   2.591   5.778 -0.1935 -0.1025 -0.7619
  141MOL0     C18526  -1.376   2.513   5.689  0.1941 -0.1715 -0.2452
  141MOL0     O18527  -0.991   2.368   5.736 -0.2870  0.3751 -0.0206
  141MOL0     C18528  -1.021   2.369   5.369  0.9481  0.2452 -0.7911
  141MOL0     C18529  -0.959   2.333   5.255 -0.5458  0.7090  0.4377
  141MOL0     N18530  -0.621   1.595   4.797 -1.2797  0.1051 -0.0037
  141MOL0     N18531  -0.574   1.476   4.821 -0.6521 -0.4490  0.1754
  141MOL0     C18532   0.119   0.819   4.947 -0.6013  0.6332 -1.3687
  141MOL0     C18533   0.239   0.771   4.882  0.1388  0.8364 -0.1237
  141MOL0     C18534   0.591   0.527   4.754  0.8295 -0.2455 -1.0003
  141MOL0     C18535   0.592   0.390   4.777 -0.6795 -0.3418 -0.4332
  141MOL0     C18536   0.705   0.310   4.754 -0.3074  0.6117 -0.3628
  141MOL0     C18537   0.826   0.370   4.734 -0.4606  0.5513 -1.0599
  141MOL0     O18538   0.937   0.288   4.732  0.3125  0.2323  0.0279
  141MOL0     C18539   1.027   0.292   4.839 -0.4697  0.6070  0.2269
  141MOL0     C18540   1.136   0.191   4.786  0.3816 -0.8753 -0.5286
  141MOL0     C18541   1.084   0.047   4.792 -0.1124  0.7342  0.4196
  141MOL0     C18542   1.026  -0.022   4.921  0.0538 -0.7559 -0.1900
  141MOL0     C18543   1.064  -0.160   4.918 -0.1753 -0.5650 -1.0596
  141MOL0     C18544   1.121  -0.260   4.910  1.0214 -1.1420  1.2940
  141MOL0     C18545   0.834   0.508   4.727 -0.1549  0.4511 -0.0774
  141MOL0     C18546   0.719   0.589   4.737 -0.2900  0.0415  0.5327
  141MOL0     H18547   0.228   0.452   4.989  0.9384  0.5557  0.1739
  141MOL0     H18548   0.001   0.529   5.087  0.7060 -0.5281  0.1265
  141MOL0     H18549  -0.188   0.681   5.195  0.3703 -2.1368 -0.9344
  141MOL0     H18550  -0.224   0.658   5.023  0.0149  1.0252 -0.3185
  141MOL0     H18551  -0.384   0.788   5.080  0.6680  0.2480 -0.5237
  141MOL0     H18552  -0.278   0.921   5.052  1.6139  1.3486  1.9206
  141MOL0     H18553  -0.246   0.957   5.292  1.2136 -3.4292  3.8284
  141MOL0     H18554  -0.342   0.812   5.322  1.4262 -0.0534 -1.1525
  141MOL0     H18555  -0.547   0.921   5.267  0.3266  0.1778 -0.8224
  141MOL0     H18556  -0.458   1.046   5.354  0.1520 -1.5470  1.2104
  141MOL0     H18557  -0.578   1.116   5.158 -2.4202 -2.8107 -0.9810
  141MOL0     H18558  -0.483   1.022   5.048  0.2206 -0.3934  0.0583
  141MOL0     H18559  -0.271   1.142   5.102  0.5220  1.4060  1.4684
  141MOL0     H18560  -0.350   1.252   5.216 -2.1198  1.5883 -0.7057
  141MOL0     H18561  -0.336   1.365   4.997  1.8342 -2.0939  3.2581
  141MOL0     H18562  -0.401   1.221   4.914 -1.6894 -3.5234  1.1447
  141MOL0     H18563  -0.560   1.362   5.125  0.9306 -1.5401  1.1814
  141MOL0     H18564  -0.622   1.266   4.984 -0.4240  0.5870  0.3551
  141MOL0     H18565  -0.669   1.581   5.111 -0.7446  0.6021 -0.3285
  141MOL0     H18566  -0.859   1.737   4.973 -0.8327  0.0854 -1.4755
  141MOL0     H18567  -0.787   1.815   4.831  0.0180 -1.4151 -0.9494
  141MOL0     H18568  -0.612   1.911   4.953  0.4068 -1.1143 -1.2900
  141MOL0     H18569  -0.655   1.827   5.104  0.2764  3.2557  1.4455
  141MOL0     H18570  -0.850   2.006   4.970 -0.1853 -2.7539 -1.1149
  141MOL0     H18571  -0.852   1.940   5.134  1.4128  0.1259  0.2448
  141MOL0     H18572  -0.644   2.153   5.035  0.2243 -0.3476 -0.1254
  141MOL0     H18573  -0.651   2.083   5.194  1.9041  0.5618 -2.0265
  141MOL0     H18574  -0.769   2.086   5.374  0.5494 -0.2546 -1.8163
  141MOL0     H18575  -0.851   2.182   5.605  3.3557 -0.5854 -1.1630
  141MOL0     H18576  -1.066   2.604   5.782 -0.6977 -1.9727 -1.4411
  141MOL0     H18577  -1.195   2.730   5.952 -0.3743 -0.9146  0.5208
  141MOL0     H18578  -1.612   2.623   5.973  3.5665 -0.1279 -0.4128
  141MOL0     H18579  -1.642   2.789   5.915 -2.0279 -4.9497 -2.1996
  141MOL0     H18580  -1.729   2.784   6.145 -0.0937 -0.7167  2.8840
  141MOL0     H18581  -1.564   2.857   6.157 -2.2761  0.5796  1.8629
  141MOL0     H18582  -1.581   2.704   6.341  3.1467 -1.4650  1.1591
  141MOL0     H18583  -1.474   2.637   6.220 -0.9421  0.1797 -5.1373
  141MOL0     H18584  -1.690   2.504   6.135 -0.3740 -0.9787  0.5032
  141MOL0     H18585  -1.575   2.446   6.253 -2.9892 -2.1645  2.8856
  141MOL0     H18586  -1.826   2.579   6.351  0.7121  0.7032  0.5432
  141MOL0     H18587  -1.696   2.494   6.434  2.5691 -1.5711 -1.2490
  141MOL0     H18588  -1.763   2.284   6.314 -0.1403  1.6243  0.0933
  141MOL0     H18589  -1.898   2.365   6.259  2.9947  1.6440 -2.6306
  141MOL0     H18590  -1.940   2.233   6.463 -1.1105  0.4152  0.4978
  141MOL0     H18591  -1.821   2.301   6.557 -0.1469 -3.0478 -0.4369
  141MOL0     H18592  -2.084   2.423   6.441 -0.6368  1.1983  0.4425
  141MOL0     H18593  -1.968   2.531   6.527 -3.7855  1.3707  0.0597
  141MOL0     H18594  -1.561   2.584   5.788 -0.1819  2.3007  2.7122
  141MOL0     H18595  -1.424   2.436   5.630  2.8284 -1.0432 -1.4052
  141MOL0     H18596  -1.095   2.448   5.368  0.2486  0.1294  5.0124
  141MOL0     H18597  -0.987   2.381   5.162 -0.2496 -0.1532 -0.1139
  141MOL0     H18598   0.096   0.925   4.950  0.1884  0.9883  4.6085
  141MOL0     H18599   0.304   0.840   4.829  2.8635 -1.4743 -0.0538
  141MOL0     H18600   0.510   0.323   4.801 -2.2879  1.3133 -1.0710
  141MOL0     H18601   0.703   0.205   4.782  0.4392  0.5931 -0.3629
  141MOL0     H18602   0.973   0.260   4.929 -3.6986  0.2884 -1.6569
  141MOL0     H18603   1.060   0.396   4.843  0.4190  0.3888 -0.8991
  141MOL0     H18604   1.176   0.202   4.685  0.1267  1.0598 -0.4656
  141MOL0     H18605   1.221   0.202   4.854 -1.4543  0.3779  1.7448
  141MOL0     H18606   1.182   0.007   4.764 -0.7260  1.5333 -3.4003
  141MOL0     H18607   1.022   0.019   4.707 -0.2391 -0.0411  0.7542
  141MOL0     H18608   1.061   0.036   5.007  0.4729 -0.9479 -0.2306
  141MOL0     H18609   0.916  -0.026   4.918 -0.0713  0.4075  1.2609
  141MOL0     H18610   1.183  -0.345   4.890  1.1139 -1.3419  2.3424
  141MOL0     H18611   0.929   0.554   4.704 -0.0929  0.8675  0.9672
  141MOL0     H18612   0.730   0.695   4.719  0.9587 -0.1340  0.1708
  142MOL0     O18613   3.772   2.082   1.832 -0.3652 -0.5091  0.1327
  142MOL0     C18614   3.800   2.130   1.944  0.5511  0.1136  0.5954
  142MOL0     O18615   3.832   2.060   2.060  0.5643  0.3516  0.0688
  142MOL0     C18616   3.842   1.929   2.059 -1.3865  1.1850  0.0997
  142MOL0     C18617   3.964   1.882   2.111 -0.1020  0.3951  0.2929
  142MOL0     C18618   3.997   1.748   2.106 -0.6189 -0.5822  0.4393
  142MOL0     C18619   3.892   1.662   2.062 -1.2034 -0.5387 -1.2785
  142MOL0     O18620   3.922   1.533   2.082  0.0479 -0.5946 -0.3353
  142MOL0     C18621   3.846   1.482   2.194  0.1933 -0.0528 -0.1400
  142MOL0     C18622   3.908   1.350   2.264  0.0150  0.9738 -0.5546
  142MOL0     C18623   4.058   1.375   2.299 -0.0474 -0.2200 -0.4511
  142MOL0     C18624   4.151   1.364   2.187  0.3331 -0.5652  0.6888
  142MOL0     C18625   4.298   1.399   2.233 -0.2663 -0.7958 -0.3750
  142MOL0     C18626   4.320   1.536   2.305 -1.1198  0.5309  0.1210
  142MOL0     C18627   4.480   1.549   2.323 -0.4571 -0.0887 -0.5969
  142MOL0     C18628   4.515   1.634   2.194 -0.1096 -1.2682 -0.9585
  142MOL0     N18629   4.658   1.643   2.176  0.3711 -0.0058 -0.6222
  142MOL0     C18630   4.735   1.559   2.109 -0.2087 -0.1971 -0.7847
  142MOL0     C18631   4.858   1.577   2.152  0.8753 -1.0186 -0.6178
  142MOL0     C18632   4.969   1.500   2.089  0.0207 -0.3312  0.0040
  142MOL0     C18633   5.011   1.564   1.957 -0.1648 -1.1535 -0.8680
  142MOL0     C18634   5.127   1.651   1.984  0.2686  0.4334  0.4619
  142MOL0     C18635   5.157   1.723   1.848 -0.1834  0.1099  0.2861
  142MOL0     O18636   5.050   1.799   1.787 -0.1169  0.0464 -1.1390
  142MOL0     C18637   5.089   1.861   1.671 -0.5890  0.7886  0.4806
  142MOL0     C18638   4.988   1.920   1.594 -0.8209 -0.1331  0.0501
  142MOL0     C18639   5.009   1.994   1.479 -0.2964 -0.2798  0.1107
  142MOL0     C18640   5.135   2.014   1.427 -0.0816 -0.2586  0.3129
  142MOL0     C18641   5.164   2.078   1.296 -0.6211 -0.3221  0.9607
  142MOL0     O18642   5.295   2.065   1.246 -0.2867 -0.7005  0.7396
  142MOL0     C18643   5.297   2.103   1.119  0.0883 -0.2717  0.0984
  142MOL0     C18644   5.267   2.006   1.018 -0.8400 -0.7157  1.2255
  142MOL0     C18645   5.279   2.050   0.886  0.0330  0.6044  0.5356
  142MOL0     C18646   5.324   2.176   0.848 -0.7532 -0.4216  0.5296
  142MOL0     O18647   5.357   2.211   0.716  0.1818 -0.3976  0.6578
  142MOL0     C18648   5.497   2.184   0.689  0.0320 -0.2775 -0.1387
  142MOL0     C18649   5.513   2.058   0.604  0.0104 -0.2486  0.6067
  142MOL0     C18650   5.659   2.045   0.558  0.2983  0.1669  0.6600
  142MOL0     C18651   5.761   2.007   0.670  0.6189 -0.0783 -0.5552
  142MOL0     C18652   5.911   2.031   0.644  0.4019 -0.0994  0.7734
  142MOL0     C18653   5.953   2.168   0.573  0.8596 -1.4015 -0.2010
  142MOL0     C18654   5.893   2.298   0.645  0.0387 -0.7896 -0.3332
  142MOL0     C18655   5.967   2.339   0.772 -0.0430 -0.0584 -0.7510
  142MOL0    Cl18656   5.912   2.510   0.826  0.4152  0.6369  0.2232
  142MOL0     C18657   5.352   2.267   0.941 -0.1465 -0.1008  0.2904
  142MOL0     C18658   5.349   2.231   1.084  0.5210  0.9158 -0.2024
  142MOL0     O18659   5.070   2.124   1.236  0.0377 -0.3762 -0.9331
  142MOL0     C18660   5.240   1.957   1.504 -1.4462  0.5807  0.4081
  142MOL0     C18661   5.221   1.878   1.620 -0.0371 -0.3534  0.3846
  142MOL0     N18662   4.863   1.692   2.229  0.9987 -0.3403  0.2078
  142MOL0     N18663   4.741   1.734   2.249  0.6787 -0.3799  0.4320
  142MOL0     C18664   3.768   1.705   2.017 -0.0193  0.6098 -0.6097
  142MOL0     C18665   3.747   1.837   2.014  0.5609 -1.1911  1.0650
  142MOL0     C18666   3.778   2.271   1.962  0.5875 -0.4212  0.2293
  142MOL0     C18667   3.736   2.323   2.082  0.1156  0.1155 -0.2465
  142MOL0     C18668   3.697   2.452   2.110  0.2055  1.0035 -0.0206
  142MOL0     C18669   3.705   2.549   2.014  0.0233  0.3118  0.0370
  142MOL0     O18670   3.684   2.680   2.054  0.8330 -0.4380 -0.2599
  142MOL0     C18671   3.697   2.779   1.950 -0.0781  0.4989 -0.6335
  142MOL0     C18672   3.566   2.820   1.890  0.0285  0.2171  0.5803
  142MOL0     C18673   3.460   2.873   1.982 -0.2532 -1.9653 -0.3235
  142MOL0     C18674   3.327   2.912   1.907  0.2488  0.1568 -0.2635
  142MOL0     C18675   3.256   2.801   1.832  0.0570 -0.1737  0.0758
  142MOL0     C18676   3.231   2.696   1.778 -0.0559  0.3341 -0.0897
  142MOL0     C18677   3.743   2.499   1.885 -0.5623 -0.6878  0.3857
  142MOL0     C18678   3.766   2.368   1.858 -0.6486  0.6129 -0.0205
  142MOL0     H18679   4.027   1.962   2.151 -1.5809  2.7072 -1.7133
  142MOL0     H18680   4.088   1.699   2.139  1.5735  1.0707 -2.6400
  142MOL0     H18681   3.755   1.456   2.138 -1.0893  3.9606 -0.2479
  142MOL0     H18682   3.829   1.557   2.271  2.0217 -1.0087  1.2817
  142MOL0     H18683   3.909   1.266   2.194 -0.8650  1.3629 -1.0562
  142MOL0     H18684   3.859   1.328   2.359 -0.1677  3.0842 -0.1167
  142MOL0     H18685   4.071   1.305   2.382  1.3777 -0.1486 -0.6033
  142MOL0     H18686   4.082   1.472   2.344  0.2452  0.8300 -2.7046
  142MOL0     H18687   4.161   1.260   2.153  1.0580  0.0386 -1.0560
  142MOL0     H18688   4.123   1.430   2.105  2.6761 -1.3838 -0.8793
  142MOL0     H18689   4.358   1.384   2.143 -1.3247 -0.3898 -1.1728
  142MOL0     H18690   4.334   1.328   2.307  1.1579 -1.4553 -1.6432
  142MOL0     H18691   4.273   1.551   2.403  1.2439  1.7977  1.1619
  142MOL0     H18692   4.280   1.618   2.244 -2.9033 -0.1242  0.3586
  142MOL0     H18693   4.504   1.614   2.407 -0.7643 -1.5310  0.6528
  142MOL0     H18694   4.524   1.449   2.330 -0.0935 -0.0798 -2.2184
  142MOL0     H18695   4.483   1.734   2.222 -0.2468 -0.7464 -2.8388
  142MOL0     H18696   4.467   1.601   2.101 -0.1706 -1.5036 -0.8448
  142MOL0     H18697   4.703   1.479   2.044 -1.1742 -0.0727 -0.4698
  142MOL0     H18698   4.918   1.405   2.073  2.5203 -2.1322  1.8256
  142MOL0     H18699   5.050   1.476   2.159  1.4904 -2.4835 -2.2586
  142MOL0     H18700   4.926   1.621   1.919  0.0265 -1.3966 -1.6846
  142MOL0     H18701   5.045   1.478   1.899  2.7098 -1.5907  1.2548
  142MOL0     H18702   5.091   1.726   2.055  0.0144 -0.2274  1.0424
  142MOL0     H18703   5.207   1.593   2.032 -0.8600 -0.0332  1.8431
  142MOL0     H18704   5.207   1.656   1.778 -1.5207 -0.6084 -0.0241
  142MOL0     H18705   5.230   1.794   1.888  1.6711 -0.8253 -1.3035
  142MOL0     H18706   4.883   1.902   1.612 -1.2901  1.7206 -0.6755
  142MOL0     H18707   4.924   2.027   1.420  0.8006  0.6341 -1.0181
  142MOL0     H18708   5.239   1.903   1.036  0.5722 -1.5558 -1.0036
  142MOL0     H18709   5.259   1.980   0.806  0.4340  2.8664 -1.6879
  142MOL0     H18710   5.564   2.173   0.774  2.6808  2.1914 -1.6840
  142MOL0     H18711   5.538   2.265   0.627 -1.3277 -0.2064 -1.0080
  142MOL0     H18712   5.446   2.066   0.518  1.3984 -3.5938 -0.9757
  142MOL0     H18713   5.481   1.977   0.670  0.0277  0.5897  1.6728
  142MOL0     H18714   5.695   2.135   0.508  2.4399 -2.0451 -2.0667
  142MOL0     H18715   5.670   1.971   0.479  1.0434  0.0608  0.8524
  142MOL0     H18716   5.746   2.067   0.760  1.1819 -1.2369  0.3320
  142MOL0     H18717   5.769   1.901   0.693  3.9544  0.1336 -0.1607
  142MOL0     H18718   5.943   1.945   0.584  3.9921  0.8407  1.1001
  142MOL0     H18719   5.974   2.021   0.733  0.4623  0.5987  0.8129
  142MOL0     H18720   5.926   2.157   0.467 -3.0649  0.0695  0.4785
  142MOL0     H18721   6.062   2.175   0.574  0.8497 -1.3300  1.2954
  142MOL0     H18722   5.887   2.389   0.586 -2.7516  0.0828  1.0939
  142MOL0     H18723   5.787   2.275   0.664  0.3713 -2.3660 -0.2290
  142MOL0     H18724   6.075   2.351   0.757  0.8875  1.0752  4.6044
  142MOL0     H18725   5.952   2.259   0.846 -0.5413 -0.0434 -0.8307
  142MOL0     H18726   5.393   2.362   0.907  0.8450 -0.2563  1.0259
  142MOL0     H18727   5.355   2.317   1.150 -4.0036  3.1052 -2.2225
  142MOL0     H18728   5.344   1.972   1.477 -1.2831  0.3687  0.9026
  142MOL0     H18729   5.308   1.854   1.680  1.0901 -1.8910 -1.7383
  142MOL0     H18730   3.687   1.637   1.993 -0.0436 -0.2940  1.7050
  142MOL0     H18731   3.655   1.872   1.968  1.0108 -0.4336  0.7108
  142MOL0     H18732   3.709   2.261   2.167  1.4809 -1.8272 -1.1446
  142MOL0     H18733   3.667   2.490   2.207 -0.6140  0.9870 -0.2647
  142MOL0     H18734   3.780   2.760   1.882  0.1982  1.1553 -0.4892
  142MOL0     H18735   3.726   2.873   1.997 -2.3760  1.4062 -0.9003
  142MOL0     H18736   3.592   2.906   1.828  0.4250 -0.9327 -0.9312
  142MOL0     H18737   3.539   2.730   1.833  1.2002 -0.5953  1.2587
  142MOL0     H18738   3.503   2.966   2.021 -4.5038 -0.2276  0.8289
  142MOL0     H18739   3.454   2.791   2.055  0.9414 -2.2253 -0.5039
  142MOL0     H18740   3.264   2.970   1.975 -0.9671  3.2756 -3.6680
  142MOL0     H18741   3.361   2.982   1.830  1.1513 -1.0825 -1.0306
  142MOL0     H18742   3.220   2.598   1.736 -2.6399  1.1240 -1.4464
  142MOL0     H18743   3.750   2.569   1.803  3.7070  0.8943  1.8551
  142MOL0     H18744   3.772   2.338   1.753 -0.4673  0.3114  0.0733
  143MOL0     O18745   1.264   4.104   5.034  0.9173  0.2143 -0.0364
  143MOL0     C18746   1.229   4.213   5.070  0.4776 -0.8337 -0.0226
  143MOL0     O18747   1.211   4.328   4.993 -0.6425  0.9715  0.1164
  143MOL0     C18748   1.218   4.325   4.855 -0.2975 -0.7386  0.2546
  143MOL0     C18749   1.300   4.420   4.789  0.4286  1.1153  0.6152
  143MOL0     C18750   1.275   4.437   4.643 -0.7513  0.3114 -0.1296
  143MOL0     C18751   1.204   4.345   4.569 -0.9424 -0.1932  0.0359
  143MOL0     O18752   1.179   4.362   4.439  1.1169  0.4074  0.1565
  143MOL0     C18753   1.269   4.284   4.364 -0.4521 -1.0798  1.1149
  143MOL0     C18754   1.397   4.375   4.330  0.2814 -0.4262  0.8351
  143MOL0     C18755   1.513   4.284   4.296  0.7147  0.3588 -0.6049
  143MOL0     C18756   1.635   4.367   4.231  0.4367  0.2990 -1.4834
  143MOL0     C18757   1.686   4.479   4.323  0.0075  0.0824  0.0154
  143MOL0     C18758   1.792   4.578   4.257  0.3059 -0.2670 -0.8349
  143MOL0     C18759   1.835   4.694   4.342  0.0388 -0.1821 -0.6319
  143MOL0     C18760   1.730   4.783   4.401 -0.4184  0.5064 -0.2683
  143MOL0     N18761   1.801   4.854   4.510  0.9636 -0.2814  0.3458
  143MOL0     C18762   1.827   4.802   4.634 -0.0948  0.8084  1.1554
  143MOL0     C18763   1.891   4.897   4.704  0.3019 -1.0192  0.2282
  143MOL0     C18764   1.908   4.890   4.850 -0.6924 -0.1414 -0.5520
  143MOL0     C18765   2.037   4.814   4.879 -0.9815  0.3165  1.1673
  143MOL0     C18766   2.076   4.801   5.024 -0.2343  0.0893 -0.2656
  143MOL0     C18767   2.122   4.929   5.083  0.6272  0.5125 -0.8728
  143MOL0     O18768   2.134   4.926   5.229  0.1835  0.7351  0.2612
  143MOL0     C18769   2.248   4.885   5.288  0.6674 -0.4399 -1.0723
  143MOL0     C18770   2.349   4.829   5.213  0.3607 -0.4260 -0.4648
  143MOL0     C18771   2.467   4.791   5.278  0.0835 -1.1833  0.1062
  143MOL0     C18772   2.476   4.806   5.418  1.1236 -0.4342 -0.3352
  143MOL0     C18773   2.601   4.768   5.475  0.3781 -0.2364  0.3344
  143MOL0     O18774   2.638   4.846   5.580  0.8005  0.9301  0.1015
  143MOL0     C18775   2.772   4.849   5.625  0.1532 -1.1226 -0.5746
  143MOL0     C18776   2.807   4.980   5.663 -0.7228 -1.1787  0.2745
  143MOL0     C18777   2.940   5.013   5.698  0.5714 -0.6656  0.1765
  143MOL0     C18778   3.036   4.917   5.676  0.3386  0.0134 -0.5783
  143MOL0     O18779   3.169   4.943   5.695  0.4569  0.0014 -0.0072
  143MOL0     C18780   3.219   5.068   5.719  0.1091 -0.4672 -0.6817
  143MOL0     C18781   3.374   5.080   5.700 -0.5999 -0.0538  0.0521
  143MOL0     C18782   3.428   5.214   5.634  1.2739 -0.0746  0.0082
  143MOL0     C18783   3.379   5.230   5.492 -0.9738  0.1883 -0.0179
  143MOL0     C18784   3.485   5.316   5.427  0.0649 -0.1549 -0.7108
  143MOL0     C18785   3.441   5.361   5.286  0.6770  0.4053  0.4960
  143MOL0     C18786   3.547   5.460   5.233  0.5540 -0.3349 -0.2536
  143MOL0     C18787   3.544   5.604   5.295 -1.1425 -0.5095  1.0444
  143MOL0    Cl18788   3.397   5.679   5.223 -0.0531  0.1923 -0.6251
  143MOL0     C18789   3.006   4.786   5.651 -0.2998  0.7154  0.5315
  143MOL0     C18790   2.871   4.752   5.606  0.2951 -1.1104  0.3160
  143MOL0     O18791   2.675   4.688   5.413  0.3201 -0.6885  0.2669
  143MOL0     C18792   2.370   4.877   5.492  0.5441 -0.5482  0.6627
  143MOL0     C18793   2.257   4.917   5.424  1.1955  0.0741  0.4113
  143MOL0     N18794   1.920   5.006   4.621 -0.7086  0.1914  0.5895
  143MOL0     N18795   1.866   4.971   4.502  0.3783  0.3578 -0.5934
  143MOL0     C18796   1.155   4.234   4.634  0.1567 -0.5679  0.4763
  143MOL0     C18797   1.154   4.221   4.775 -0.1683 -0.1288  0.3839
  143MOL0     C18798   1.193   4.238   5.214  0.1656 -0.2610 -0.6250
  143MOL0     C18799   1.163   4.366   5.265 -0.5226 -0.1582 -0.3147
  143MOL0     C18800   1.157   4.388   5.396  0.9603  0.3401 -0.8445
  143MOL0     C18801   1.156   4.289   5.490 -0.3624  0.9067  0.1407
  143MOL0     O18802   1.135   4.319   5.619  0.1629 -0.4077  0.0709
  143MOL0     C18803   1.118   4.230   5.731 -0.5820  0.1977 -0.2965
  143MOL0     C18804   0.964   4.199   5.747 -1.1113  0.1726 -0.1317
  143MOL0     C18805   0.896   4.319   5.827  0.5769  0.5754 -0.1957
  143MOL0     C18806   0.755   4.285   5.853 -0.0624 -0.4371  0.1765
  143MOL0     C18807   0.668   4.258   5.728  0.0908 -0.0910  0.0147
  143MOL0     C18808   0.595   4.239   5.634 -0.0129 -0.0617  0.2289
  143MOL0     C18809   1.181   4.161   5.441  0.3798 -0.1825  0.3748
  143MOL0     C18810   1.209   4.140   5.305 -0.4672  0.7830  0.1301
  143MOL0     H18811   1.369   4.488   4.838 -0.3989  1.1055  1.8363
  143MOL0     H18812   1.321   4.525   4.599 -2.2125  0.1816 -2.0327
  143MOL0     H18813   1.218   4.252   4.272 -0.2482 -0.4667  0.7769
  143MOL0     H18814   1.314   4.196   4.410 -2.0057 -2.7268 -0.3227
  143MOL0     H18815   1.427   4.425   4.423  1.3587 -0.1273  0.3357
  143MOL0     H18816   1.378   4.437   4.243 -3.2966 -0.4510  1.4235
  143MOL0     H18817   1.477   4.205   4.230  4.0809 -1.0842 -0.9493
  143MOL0     H18818   1.548   4.232   4.386 -1.8609 -0.7696 -0.1684
  143MOL0     H18819   1.716   4.303   4.195  0.9330  0.5114 -0.7600
  143MOL0     H18820   1.596   4.402   4.135  2.4056  0.4025 -2.2885
  143MOL0     H18821   1.735   4.422   4.402 -0.3619 -0.2179  0.0325
  143MOL0     H18822   1.597   4.535   4.354 -1.0785 -0.0749 -2.5021
  143MOL0     H18823   1.751   4.613   4.163 -1.6977 -1.7958 -0.6096
  143MOL0     H18824   1.874   4.507   4.240  0.2578 -1.1421  2.0217
  143MOL0     H18825   1.889   4.650   4.427  2.1050  2.9919 -0.1460
  143MOL0     H18826   1.908   4.754   4.288  0.2876  0.2516  0.1695
  143MOL0     H18827   1.646   4.728   4.445 -1.4195  1.9606 -0.3000
  143MOL0     H18828   1.700   4.850   4.320  3.2534  2.1883 -0.4344
  143MOL0     H18829   1.776   4.719   4.680  2.0351  0.1075  2.3704
  143MOL0     H18830   1.821   4.832   4.883 -2.1772  1.8833 -0.7144
  143MOL0     H18831   1.911   4.985   4.904  1.4811  0.2400 -1.2305
  143MOL0     H18832   2.131   4.850   4.835 -0.7426 -1.2751  0.3005
  143MOL0     H18833   2.022   4.717   4.830  0.6616  0.4801  0.2458
  143MOL0     H18834   1.992   4.765   5.084 -0.2230 -1.2468 -1.0070
  143MOL0     H18835   2.158   4.731   5.034 -1.6109 -1.3361  1.7797
  143MOL0     H18836   2.055   5.011   5.057  2.2408  1.9477 -0.6861
  143MOL0     H18837   2.211   4.960   5.028 -0.3659  3.8430 -0.8200
  143MOL0     H18838   2.347   4.804   5.107 -1.5830 -1.5579 -0.2191
  143MOL0     H18839   2.553   4.771   5.214 -0.1570  1.9111 -1.3406
  143MOL0     H18840   2.729   5.054   5.677 -1.4163 -1.3393 -2.2566
  143MOL0     H18841   2.973   5.111   5.731  0.0204  0.1549 -1.5588
  143MOL0     H18842   3.196   5.080   5.826  1.3063  0.3630 -0.4977
  143MOL0     H18843   3.176   5.135   5.645 -0.5819 -0.2618 -0.1100
  143MOL0     H18844   3.396   4.998   5.632 -1.9634 -0.0760 -0.3821
  143MOL0     H18845   3.439   5.074   5.788  0.7589  4.0032 -0.4418
  143MOL0     H18846   3.537   5.212   5.649  0.9035 -2.5809  3.4367
  143MOL0     H18847   3.390   5.303   5.684  0.0714  0.5794 -1.9558
  143MOL0     H18848   3.357   5.134   5.445  0.4877 -1.3298  2.1658
  143MOL0     H18849   3.285   5.286   5.507 -1.8099 -1.0778 -0.3907
  143MOL0     H18850   3.582   5.267   5.418  0.9381  1.5549 -1.0458
  143MOL0     H18851   3.495   5.403   5.492 -2.0031  0.2740 -0.9184
  143MOL0     H18852   3.350   5.418   5.305  0.9917  1.1017 -0.0301
  143MOL0     H18853   3.413   5.273   5.227 -2.7347  0.6206  1.5760
  143MOL0     H18854   3.648   5.418   5.235  0.4010 -0.6637  1.5269
  143MOL0     H18855   3.529   5.474   5.126  2.1999  0.4191 -0.4657
  143MOL0     H18856   3.627   5.664   5.257 -1.0792 -1.5365 -0.5260
  143MOL0     H18857   3.561   5.604   5.403  1.2260 -3.0426  0.7800
  143MOL0     H18858   3.089   4.717   5.664 -2.1806 -2.2628 -1.9414
  143MOL0     H18859   2.862   4.653   5.561  1.2021 -1.1164  0.1252
  143MOL0     H18860   2.377   4.891   5.599  0.0432  1.3590  0.4725
  143MOL0     H18861   2.173   4.969   5.468 -1.2039 -2.4494 -0.8166
  143MOL0     H18862   1.089   4.173   4.573  1.3956 -1.1619 -0.2970
  143MOL0     H18863   1.092   4.148   4.825 -0.2919 -1.0216 -0.9912
  143MOL0     H18864   1.164   4.446   5.192  2.0701 -0.4666 -0.7040
  143MOL0     H18865   1.139   4.492   5.424  1.4650  0.1720  0.1760
  143MOL0     H18866   1.159   4.275   5.822 -1.4438 -0.5111  0.4613
  143MOL0     H18867   1.175   4.140   5.707  2.3779  1.3517  1.7963
  143MOL0     H18868   0.927   4.181   5.646 -1.3718  2.4112 -0.4879
  143MOL0     H18869   0.960   4.108   5.807  1.6170 -0.1922 -0.3511
  143MOL0     H18870   0.893   4.411   5.767 -0.4817  0.5290 -0.2310
  143MOL0     H18871   0.945   4.338   5.923  0.2387 -1.2390  0.3787
  143MOL0     H18872   0.745   4.195   5.914 -1.1769  0.6390  1.6452
  143MOL0     H18873   0.702   4.364   5.906  1.7425  1.9115 -1.3233
  143MOL0     H18874   0.524   4.240   5.554  0.4728  0.7331 -0.2052
  143MOL0     H18875   1.195   4.078   5.510  0.5151  0.9052  1.7019
  143MOL0     H18876   1.234   4.039   5.276 -0.2073  0.3125  1.8618
  144MOL0     O18877   3.087   3.400   6.126  0.5637  0.7167  0.2945
  144MOL0     C18878   3.199   3.355   6.119 -0.7964  0.0140 -0.1163
  144MOL0     O18879   3.249   3.261   6.200 -0.2332  1.1034 -0.3757
  144MOL0     C18880   3.182   3.213   6.315 -0.5276 -0.3981 -0.2920
  144MOL0     C18881   3.096   3.107   6.314  0.5846 -0.3244  0.6771
  144MOL0     C18882   3.034   3.068   6.429  0.6600  0.8040 -1.2582
  144MOL0     C18883   3.072   3.120   6.559  0.3956  0.1250  0.0951
  144MOL0     O18884   3.014   3.078   6.670  0.1078 -0.1372  0.0001
  144MOL0     C18885   2.908   3.162   6.722 -0.7027 -0.0298 -0.5695
  144MOL0     C18886   2.854   3.100   6.847 -0.2771  0.5482 -0.5621
  144MOL0     C18887   2.714   3.144   6.892  0.5115 -0.5069  0.1776
  144MOL0     C18888   2.644   3.031   6.976  0.6981 -0.1747  0.1445
  144MOL0     C18889   2.516   3.073   7.043  0.0004 -1.2698  0.4193
  144MOL0     C18890   2.443   2.939   7.087  0.7397  0.4327 -0.1839
  144MOL0     C18891   2.509   2.864   7.203 -0.9705  0.2607 -0.2183
  144MOL0     C18892   2.494   2.946   7.338  1.5449  0.4394  1.2697
  144MOL0     N18893   2.616   2.969   7.414 -0.2068  0.6610  0.9236
  144MOL0     C18894   2.725   3.052   7.389  0.1795  0.8370  0.2574
  144MOL0     C18895   2.823   3.018   7.472  0.0833 -0.0618  0.0902
  144MOL0     C18896   2.957   3.083   7.499  0.6959 -0.3671 -0.5461
  144MOL0     C18897   3.009   3.165   7.382  0.1709  0.4847 -0.2435
  144MOL0     C18898   3.016   3.099   7.241 -0.8951  0.2505  0.7509
  144MOL0     C18899   3.068   3.202   7.144 -0.7437  0.5038  0.5490
  144MOL0     O18900   2.972   3.295   7.108 -0.2709 -0.7288  0.4500
  144MOL0     C18901   2.998   3.389   7.006  0.7372 -0.9571 -0.7812
  144MOL0     C18902   3.116   3.414   6.937  0.2292  0.5215  0.0554
  144MOL0     C18903   3.138   3.528   6.859 -0.2139  0.2784  0.2302
  144MOL0     C18904   3.033   3.625   6.841 -0.8453  0.1016 -0.1350
  144MOL0     C18905   3.046   3.745   6.762 -0.4305 -0.8815  0.3172
  144MOL0     O18906   3.173   3.770   6.710 -0.3990  0.1494 -0.4747
  144MOL0     C18907   3.201   3.890   6.638  0.3114  0.8101 -0.6226
  144MOL0     C18908   3.267   3.866   6.525 -0.0150  0.3593  0.6177
  144MOL0     C18909   3.316   3.969   6.436  0.0871  0.6518  0.9956
  144MOL0     C18910   3.287   4.101   6.462  0.0525  0.1243 -0.2788
  144MOL0     O18911   3.334   4.204   6.378 -1.0042  0.5607  0.0721
  144MOL0     C18912   3.259   4.232   6.263 -0.5882 -0.2755 -0.3969
  144MOL0     C18913   3.113   4.261   6.302 -0.0482  1.0957  0.0770
  144MOL0     C18914   3.045   4.304   6.173  1.2039  0.7958 -0.1849
  144MOL0     C18915   2.903   4.347   6.194  0.8852 -0.4997 -0.1433
  144MOL0     C18916   2.858   4.434   6.073 -0.5466  0.5614  0.0105
  144MOL0     C18917   2.907   4.375   5.938 -0.3006  1.0060  0.7199
  144MOL0     C18918   2.849   4.441   5.815  0.2209 -0.9354  0.3725
  144MOL0     C18919   2.699   4.494   5.818  0.3984  0.5631  1.0994
  144MOL0    Cl18920   2.579   4.369   5.869 -0.3557 -0.2725  0.1116
  144MOL0     C18921   3.208   4.122   6.571 -0.4415  0.0390 -0.6744
  144MOL0     C18922   3.158   4.021   6.658  0.3722 -0.5163  0.8684
  144MOL0     O18923   2.943   3.808   6.731 -0.3918 -0.0857  0.4499
  144MOL0     C18924   2.919   3.596   6.907 -0.6165  1.1197  0.1763
  144MOL0     C18925   2.903   3.485   6.989  0.4363 -0.4585  0.3536
  144MOL0     N18926   2.782   2.908   7.539  1.0575  0.4666 -0.6942
  144MOL0     N18927   2.661   2.883   7.502  0.8735  0.5436  0.5321
  144MOL0     C18928   3.159   3.219   6.557 -0.0713  0.4943  0.7980
  144MOL0     C18929   3.199   3.282   6.436 -1.2837  0.9186  0.1205
  144MOL0     C18930   3.292   3.421   6.022 -0.8105  0.5907  0.0001
  144MOL0     C18931   3.433   3.390   6.037  1.5633  0.6482 -0.2204
  144MOL0     C18932   3.525   3.432   5.944 -0.6886  1.3050 -0.0835
  144MOL0     C18933   3.483   3.498   5.831 -0.0352 -0.9801 -0.3884
  144MOL0     O18934   3.574   3.530   5.733 -0.4965 -1.3529  0.2434
  144MOL0     C18935   3.532   3.589   5.612 -0.7109  0.3855  0.0609
  144MOL0     C18936   3.468   3.486   5.510 -0.0940  0.1509 -0.1294
  144MOL0     C18937   3.546   3.359   5.525 -0.6866 -0.3444  1.6098
  144MOL0     C18938   3.564   3.290   5.380  0.3749 -0.9033  0.1351
  144MOL0     C18939   3.654   3.373   5.302  0.7827  0.4398  0.6508
  144MOL0     C18940   3.740   3.434   5.243  0.7482 -0.0235  0.1474
  144MOL0     C18941   3.353   3.546   5.818  0.1096  0.8219 -0.3462
  144MOL0     C18942   3.263   3.508   5.915 -0.4671 -0.3953  0.4758
  144MOL0     H18943   3.093   3.050   6.222  4.0103 -0.4697  0.5332
  144MOL0     H18944   2.964   2.986   6.437 -0.2115  1.7229  2.4659
  144MOL0     H18945   2.836   3.176   6.641 -0.0653  3.9897 -0.6332
  144MOL0     H18946   2.947   3.260   6.753 -0.5807 -1.0439  2.9920
  144MOL0     H18947   2.922   3.104   6.932 -0.7551 -3.0697  0.1141
  144MOL0     H18948   2.839   2.992   6.837  0.5112 -0.2315  4.4750
  144MOL0     H18949   2.653   3.172   6.806  2.9392  0.6728 -1.2847
  144MOL0     H18950   2.718   3.238   6.946  0.7945  1.4872 -3.0209
  144MOL0     H18951   2.628   2.949   6.906 -0.5763  0.3863 -0.2641
  144MOL0     H18952   2.712   2.988   7.050 -2.2791 -1.5196  2.3564
  144MOL0     H18953   2.460   3.123   6.963  5.6248  3.3903 -1.2453
  144MOL0     H18954   2.517   3.147   7.122  2.2481 -1.7726  0.9057
  144MOL0     H18955   2.427   2.871   7.002  0.3857 -1.0818  1.0612
  144MOL0     H18956   2.342   2.963   7.121  0.6278 -0.3821  0.0859
  144MOL0     H18957   2.447   2.777   7.226 -1.1586  1.3561  4.4750
  144MOL0     H18958   2.613   2.840   7.179  0.8002  3.1569  3.4893
  144MOL0     H18959   2.413   2.890   7.386  1.1967 -2.0601 -1.8819
  144MOL0     H18960   2.447   3.044   7.322 -1.5528 -1.0147  0.5482
  144MOL0     H18961   2.725   3.142   7.328  1.0419  3.6129  3.9635
  144MOL0     H18962   3.020   3.005   7.544  1.4053  0.1975 -0.5381
  144MOL0     H18963   2.932   3.151   7.580 -2.4765  1.3298 -2.7378
  144MOL0     H18964   3.105   3.207   7.413  1.9511 -1.4109 -2.7310
  144MOL0     H18965   2.947   3.254   7.365 -4.1798 -2.6849 -3.3561
  144MOL0     H18966   3.089   3.017   7.252 -0.8745  0.1827  0.1569
  144MOL0     H18967   2.921   3.058   7.207  0.6782 -1.8807 -1.4265
  144MOL0     H18968   3.105   3.154   7.053 -1.8767 -0.9609  0.8203
  144MOL0     H18969   3.146   3.260   7.194  1.2495 -0.5154 -1.1932
  144MOL0     H18970   3.193   3.343   6.965 -3.0344 -1.2416  6.6364
  144MOL0     H18971   3.232   3.543   6.807  1.5794  1.5708  3.5502
  144MOL0     H18972   3.293   3.762   6.507 -0.0012 -0.2619  3.7783
  144MOL0     H18973   3.390   3.942   6.361  0.2410  1.9444  0.6612
  144MOL0     H18974   3.263   4.148   6.194 -0.1615  1.0842 -2.1060
  144MOL0     H18975   3.309   4.317   6.214  0.2852  0.7036  2.0358
  144MOL0     H18976   3.107   4.338   6.380  0.8369  0.2083  1.0670
  144MOL0     H18977   3.059   4.174   6.342 -1.2134  1.1479 -1.3278
  144MOL0     H18978   3.047   4.229   6.094 -3.0108  2.5439 -2.2776
  144MOL0     H18979   3.096   4.392   6.133  0.5075  0.5058 -1.7541
  144MOL0     H18980   2.846   4.253   6.193  2.5248 -1.5331 -0.3281
  144MOL0     H18981   2.879   4.400   6.287 -0.3942  0.9899 -1.2751
  144MOL0     H18982   2.899   4.536   6.070  2.0175 -0.3922 -0.7929
  144MOL0     H18983   2.749   4.428   6.071 -0.4491 -3.2947  0.2599
  144MOL0     H18984   2.888   4.267   5.943  2.8717  0.4078  1.5971
  144MOL0     H18985   3.014   4.395   5.945  0.5616 -1.6376 -2.4933
  144MOL0     H18986   2.903   4.534   5.793 -1.0289 -0.3531 -0.3647
  144MOL0     H18987   2.858   4.373   5.730 -0.6896 -1.3641  0.6021
  144MOL0     H18988   2.666   4.533   5.721 -2.2312  2.1892  2.5329
  144MOL0     H18989   2.689   4.577   5.888  1.8225  3.0012 -1.3780
  144MOL0     H18990   3.176   4.226   6.574 -0.4748  0.0832 -2.1259
  144MOL0     H18991   3.086   4.036   6.737 -0.2535 -1.5704  0.5155
  144MOL0     H18992   2.834   3.663   6.908 -4.5315 -3.3328  0.8766
  144MOL0     H18993   2.813   3.465   7.047  1.2220 -1.0216  1.4134
  144MOL0     H18994   3.184   3.271   6.649  0.3245 -1.1345  1.6566
  144MOL0     H18995   3.273   3.361   6.451  0.2734 -0.1976 -1.3489
  144MOL0     H18996   3.463   3.324   6.117  0.5404  1.5903  0.9717
  144MOL0     H18997   3.627   3.397   5.952 -1.2188 -0.6584 -1.0596
  144MOL0     H18998   3.624   3.629   5.568  0.2738  1.9438  3.2076
  144MOL0     H18999   3.468   3.677   5.620  0.0776  0.9860 -0.0153
  144MOL0     H19000   3.366   3.459   5.541 -0.0786 -1.9060 -1.6898
  144MOL0     H19001   3.479   3.528   5.410 -0.5500 -2.1039 -1.1927
  144MOL0     H19002   3.496   3.300   5.603 -0.8175 -3.4184 -0.6563
  144MOL0     H19003   3.649   3.365   5.562  0.0979 -1.4967 -0.2466
  144MOL0     H19004   3.614   3.193   5.372  2.3389 -0.2076  2.5494
  144MOL0     H19005   3.466   3.273   5.334  1.0111 -0.4194 -1.4389
  144MOL0     H19006   3.827   3.473   5.195 -0.1239  3.1600  0.8977
  144MOL0     H19007   3.309   3.595   5.732  0.7529  1.2470 -0.4325
  144MOL0     H19008   3.157   3.506   5.892 -1.0587  0.0777  2.8888
  145MOL0     O19009  10.448   9.456   9.046  0.2620 -0.0901  0.1710
  145MOL0     C19010  10.475   9.337   9.071  0.2487 -0.2645  0.1440
  145MOL0     O19011  10.400   9.249   9.133  0.1552 -0.3461  0.1902
  145MOL0     C19012  10.271   9.289   9.157  0.1570 -0.6808  0.1621
  145MOL0     C19013  10.180   9.225   9.069 -0.2987 -0.1446  0.2145
  145MOL0     C19014  10.052   9.255   9.076  0.0239  0.2706 -0.1599
  145MOL0     C19015   9.998   9.357   9.149 -0.8235  0.2545 -0.3911
  145MOL0     O19016   9.864   9.380   9.151 -0.0721 -0.4954  1.0931
  145MOL0     C19017   9.770   9.282   9.094  0.5145  0.8470 -0.2432
  145MOL0     C19018   9.623   9.331   9.095  0.3147 -1.2991 -0.6927
  145MOL0     C19019   9.550   9.341   9.228  0.7232  0.4329  0.5756
  145MOL0     C19020   9.406   9.404   9.200 -0.7804  0.3663  0.3269
  145MOL0     C19021   9.417   9.549   9.197  0.5497  1.0949 -0.2265
  145MOL0     C19022   9.278   9.602   9.129  0.1581 -0.0140  0.6425
  145MOL0     C19023   9.284   9.754   9.105 -0.2489  0.3372 -0.2708
  145MOL0     C19024   9.312   9.786   8.958 -0.2709 -0.1983 -0.2374
  145MOL0     N19025   9.285   9.928   8.929  0.4556 -0.9506 -0.5448
  145MOL0     C19026   9.367  10.035   8.948  0.0677 -0.0383 -0.0961
  145MOL0     C19027   9.311  10.136   8.879 -0.5095 -0.4251  0.8152
  145MOL0     C19028   9.356  10.277   8.880  0.5153 -1.0259 -0.4489
  145MOL0     C19029   9.446  10.306   8.758  0.7817 -0.1776 -0.5947
  145MOL0     C19030   9.485  10.460   8.757 -0.5447 -0.0133 -0.1081
  145MOL0     C19031   9.575  10.478   8.627 -0.0856  0.5995  0.7788
  145MOL0     O19032   9.705  10.412   8.627 -1.1500  0.1291 -0.7984
  145MOL0     C19033   9.764  10.381   8.510 -0.9174  0.0671  0.9623
  145MOL0     C19034   9.739  10.463   8.389 -0.4067 -1.1059  0.2833
  145MOL0     C19035   9.806  10.445   8.271  0.0530 -0.3346  0.1749
  145MOL0     C19036   9.885  10.326   8.240 -0.7940 -0.4047  0.0602
  145MOL0     C19037   9.943  10.312   8.111  0.3623 -0.2019  0.9891
  145MOL0     O19038   9.958  10.416   8.029 -0.6684  0.0423  0.0434
  145MOL0     C19039   9.980  10.405   7.895  0.8508 -0.1609 -0.8352
  145MOL0     C19040   9.939  10.308   7.806 -0.2649  0.5040 -0.6677
  145MOL0     C19041   9.969  10.318   7.677  0.2336 -0.0434  0.1015
  145MOL0     C19042  10.029  10.439   7.627 -0.3619 -0.1223  0.0784
  145MOL0     O19043  10.055  10.450   7.488 -0.2170 -0.8023  0.1037
  145MOL0     C19044  10.063  10.580   7.423 -0.5190 -0.1255  0.4298
  145MOL0     C19045  10.054  10.546   7.276 -0.2520 -0.4809  0.7707
  145MOL0     C19046  10.092  10.667   7.182 -0.5487  1.0909 -0.4051
  145MOL0     C19047  10.015  10.794   7.191 -0.2126  0.2920  0.1187
  145MOL0     C19048  10.079  10.903   7.100  0.6691 -0.0883 -0.7561
  145MOL0     C19049  10.203  10.954   7.172 -0.2288  0.5872  0.3389
  145MOL0     C19050  10.246  11.082   7.101 -0.3629 -0.0963 -0.3566
  145MOL0     C19051  10.261  11.073   6.955  0.2442 -0.3296 -0.1216
  145MOL0    Cl19052  10.327  11.213   6.870 -0.0274 -0.2635  0.0573
  145MOL0     C19053  10.065  10.541   7.719  0.4451 -0.0658  0.0346
  145MOL0     C19054  10.035  10.528   7.851 -0.0694  0.2524 -0.8270
  145MOL0     O19055   9.967  10.197   8.077  0.2825  0.3012 -0.2481
  145MOL0     C19056   9.888  10.232   8.349 -1.3188  0.3494  0.9238
  145MOL0     C19057   9.843  10.266   8.482  0.0192 -0.3141  0.9245
  145MOL0     N19058   9.191  10.085   8.832 -0.0375  0.2364  0.6306
  145MOL0     N19059   9.163   9.963   8.873 -0.5440  0.3038  0.3385
  145MOL0     C19060  10.084   9.430   9.229  0.0371 -1.2396 -0.0972
  145MOL0     C19061  10.223   9.397   9.239  0.0253  0.2321  0.8452
  145MOL0     C19062  10.599   9.274   9.021 -0.7571  0.3024 -0.0196
  145MOL0     C19063  10.633   9.139   9.047 -0.3772  0.0208 -0.1231
  145MOL0     C19064  10.752   9.082   9.011  0.6850 -0.2826  0.4232
  145MOL0     C19065  10.853   9.149   8.944  0.1987  0.0128  0.3836
  145MOL0     O19066  10.971   9.090   8.908 -0.1194  0.1888  0.6498
  145MOL0     C19067  10.994   8.956   8.930 -0.3269  0.2639 -0.1018
  145MOL0     C19068  11.128   8.910   8.859  0.2572  0.0534 -0.0619
  145MOL0     C19069  11.112   8.918   8.703  0.1128 -0.3151  0.3050
  145MOL0     C19070  11.239   8.876   8.622  1.0435  0.9276 -0.1077
  145MOL0     C19071  11.269   8.730   8.639 -0.0645  0.0551 -0.3162
  145MOL0     C19072  11.299   8.611   8.667  0.4593 -0.9329  0.5409
  145MOL0     C19073  10.828   9.280   8.918 -0.8189  1.0486  0.9626
  145MOL0     C19074  10.706   9.344   8.953 -1.3138  0.2404 -0.0363
  145MOL0     H19075  10.227   9.144   9.014 -1.5706 -0.2597 -0.7501
  145MOL0     H19076   9.996   9.187   9.013 -0.6288  1.7092 -1.1841
  145MOL0     H19077   9.779   9.197   9.162  1.3052  0.2790 -1.0353
  145MOL0     H19078   9.790   9.241   8.994  0.8926  4.3168 -1.7460
  145MOL0     H19079   9.563   9.271   9.026 -2.3480 -0.0848  0.4295
  145MOL0     H19080   9.620   9.424   9.038 -0.2323 -0.2131  1.0409
  145MOL0     H19081   9.618   9.393   9.296 -0.3017  1.6966  0.6724
  145MOL0     H19082   9.527   9.242   9.269 -1.4664  0.1374 -1.1434
  145MOL0     H19083   9.359   9.366   9.109  1.5887 -0.2592 -0.7202
  145MOL0     H19084   9.331   9.368   9.271 -0.4015  0.1848  0.6377
  145MOL0     H19085   9.506   9.567   9.137  2.7150  4.1697  3.3902
  145MOL0     H19086   9.437   9.588   9.298  0.2458 -1.0140  0.6951
  145MOL0     H19087   9.203   9.579   9.205  0.6707 -0.5194  0.9998
  145MOL0     H19088   9.261   9.544   9.037  3.1524 -0.1698  0.1089
  145MOL0     H19089   9.184   9.791   9.129 -0.8192 -0.7913 -0.8328
  145MOL0     H19090   9.358   9.801   9.171 -1.0896  0.1422  0.8327
  145MOL0     H19091   9.235   9.725   8.908  1.6599 -1.5603 -1.7223
  145MOL0     H19092   9.415   9.758   8.935 -0.1275  0.3868 -0.3080
  145MOL0     H19093   9.464  10.037   8.998  0.9109  4.5858 -1.4173
  145MOL0     H19094   9.412  10.301   8.972  0.0325 -3.4023  0.5424
  145MOL0     H19095   9.265  10.337   8.884  1.9218  1.7612 -4.5473
  145MOL0     H19096   9.379  10.287   8.674  1.6821 -2.4489 -0.8649
  145MOL0     H19097   9.532  10.239   8.754  0.0479 -1.1258 -0.5831
  145MOL0     H19098   9.402  10.530   8.751  1.3289  2.3225 -4.8331
  145MOL0     H19099   9.552  10.478   8.842  0.5760 -0.9332 -0.7629
  145MOL0     H19100   9.597  10.585   8.628  1.1588  0.3673  0.3531
  145MOL0     H19101   9.531  10.462   8.528 -2.5078  0.4258  1.8165
  145MOL0     H19102   9.689  10.560   8.384 -0.2810 -1.0822 -0.8887
  145MOL0     H19103   9.809  10.522   8.195  3.2002  0.8053  1.2956
  145MOL0     H19104   9.892  10.222   7.853  1.9280  1.3559  3.6047
  145MOL0     H19105   9.939  10.238   7.609  0.1943  1.0137 -1.1659
  145MOL0     H19106  10.163  10.619   7.446  0.6975  0.1535 -4.2501
  145MOL0     H19107   9.977  10.639   7.456 -2.5434 -2.9659  0.5347
  145MOL0     H19108   9.950  10.525   7.251 -0.4762  0.3239  0.9912
  145MOL0     H19109  10.122  10.464   7.251  0.3719  0.3677 -0.4162
  145MOL0     H19110  10.101  10.630   7.079 -0.1521 -1.0057  0.3289
  145MOL0     H19111  10.194  10.694   7.212 -0.6908  0.0432  1.1218
  145MOL0     H19112   9.921  10.767   7.141 -0.5286  2.1691 -0.4193
  145MOL0     H19113   9.997  10.828   7.293  0.8170 -1.7974  1.0267
  145MOL0     H19114  10.014  10.990   7.087  0.6578  0.1363  0.7438
  145MOL0     H19115  10.091  10.845   7.008 -0.9304 -2.2082  0.2903
  145MOL0     H19116  10.284  10.882   7.188  0.4282  1.2345 -0.0268
  145MOL0     H19117  10.176  10.975   7.276  0.0848 -2.7962  1.2283
  145MOL0     H19118  10.181  11.165   7.126 -0.2429  0.0533 -0.5379
  145MOL0     H19119  10.341  11.111   7.147 -2.1481  2.8610  1.7760
  145MOL0     H19120  10.160  11.058   6.916  1.2551 -2.3317 -2.1920
  145MOL0     H19121  10.319  10.983   6.932 -2.0665 -1.7821 -0.5472
  145MOL0     H19122  10.130  10.624   7.695  2.2253 -2.1757 -3.0556
  145MOL0     H19123  10.055  10.610   7.919  0.5097 -1.0271  0.6096
  145MOL0     H19124   9.949  10.144   8.334  0.4183  1.6260  0.1942
  145MOL0     H19125   9.857  10.194   8.562 -0.5350 -2.7825 -1.0485
  145MOL0     H19126  10.052   9.521   9.278 -2.8707 -1.1904 -1.8106
  145MOL0     H19127  10.295   9.464   9.283  3.3797 -1.9061 -1.0029
  145MOL0     H19128  10.564   9.087   9.113  3.7593 -1.5303  3.4922
  145MOL0     H19129  10.766   8.978   9.039  3.3812 -0.2141 -0.4452
  145MOL0     H19130  10.907   8.903   8.889  1.0504 -0.7874 -1.7583
  145MOL0     H19131  10.997   8.947   9.039 -2.6060  1.5289  0.1461
  145MOL0     H19132  11.207   8.975   8.897 -1.3572  1.0631  1.7617
  145MOL0     H19133  11.134   8.802   8.874  0.7725 -0.0557 -1.0030
  145MOL0     H19134  11.107   9.023   8.672 -1.5441 -0.5191 -0.2537
  145MOL0     H19135  11.025   8.857   8.677  1.4731 -2.0313 -0.3892
  145MOL0     H19136  11.225   8.890   8.515  0.5016  0.6805 -0.0721
  145MOL0     H19137  11.325   8.931   8.660  1.2069  0.4309  0.2440
  145MOL0     H19138  11.318   8.510   8.698 -1.1510 -1.0360  1.2596
  145MOL0     H19139  10.900   9.335   8.859 -3.4737  1.5223 -2.1133
  145MOL0     H19140  10.697   9.447   8.920  1.2481  0.5271 -0.0569
  146MOL0     O19141   8.184   1.711   2.526 -0.2652  0.5429  0.2631
  146MOL0     C19142   8.304   1.700   2.565 -0.5415  0.5890  0.5747
  146MOL0     O19143   8.416   1.721   2.490 -0.4678 -1.0561 -0.0083
  146MOL0     C19144   8.411   1.760   2.357 -0.0806  0.1350  0.3982
  146MOL0     C19145   8.308   1.828   2.297  0.6878  0.9085  0.5180
  146MOL0     C19146   8.316   1.863   2.163  0.4231  0.4036 -0.5118
  146MOL0     C19147   8.439   1.848   2.090 -0.1317 -0.5472 -0.0341
  146MOL0     O19148   8.461   1.886   1.965  0.4110  0.2533 -0.6077
  146MOL0     C19149   8.359   1.923   1.882  0.1512  1.7005 -0.0546
  146MOL0     C19150   8.364   2.080   1.874  0.3166 -0.8000 -0.9569
  146MOL0     C19151   8.500   2.144   1.894  0.2202 -0.0195  0.1453
  146MOL0     C19152   8.568   2.183   1.753  0.3107  0.9019  0.2778
  146MOL0     C19153   8.703   2.256   1.774 -0.9015  0.6981 -0.2022
  146MOL0     C19154   8.824   2.194   1.848  0.8476  0.0419  0.2446
  146MOL0     C19155   8.958   2.274   1.838 -0.2837 -0.2235  0.0448
  146MOL0     C19156   8.945   2.428   1.853  0.1484  0.8731  0.9648
  146MOL0     N19157   8.909   2.468   1.993  0.1020  0.7790  0.1361
  146MOL0     C19158   8.986   2.448   2.108 -0.3184 -0.6492  0.0943
  146MOL0     C19159   8.898   2.462   2.206  0.6941 -0.3074 -0.9171
  146MOL0     C19160   8.933   2.480   2.351  0.2742 -0.5237  0.2595
  146MOL0     C19161   8.976   2.348   2.425 -0.3575 -0.4178  0.1083
  146MOL0     C19162   8.847   2.263   2.457  0.0392  0.7933  0.4792
  146MOL0     C19163   8.867   2.108   2.445  0.3148  0.5045 -1.0393
  146MOL0     O19164   8.759   2.019   2.501 -1.0658  0.0800  0.4464
  146MOL0     C19165   8.780   1.963   2.623  0.1940  0.8382  0.6040
  146MOL0     C19166   8.787   1.823   2.632  0.1498  0.1289  0.8111
  146MOL0     C19167   8.835   1.760   2.750 -0.2384  0.2000  0.1474
  146MOL0     C19168   8.844   1.840   2.866 -0.1942  0.0092 -0.2540
  146MOL0     C19169   8.867   1.770   2.994  0.4829 -0.3506 -0.1686
  146MOL0     O19170   8.893   1.857   3.101  0.1175 -0.5108 -0.2979
  146MOL0     C19171   8.862   1.819   3.230  0.5395 -0.5319 -0.0006
  146MOL0     C19172   8.946   1.739   3.299  0.1822  0.5431  0.5310
  146MOL0     C19173   8.899   1.693   3.419  0.5047  0.4793 -0.6143
  146MOL0     C19174   8.787   1.730   3.483  0.9897  0.4010 -0.2963
  146MOL0     O19175   8.733   1.677   3.597  0.8769 -0.2570 -0.3497
  146MOL0     C19176   8.742   1.532   3.614  0.5573  0.4116  0.1544
  146MOL0     C19177   8.782   1.504   3.758  0.6250  0.2117 -0.2581
  146MOL0     C19178   8.803   1.358   3.794  0.3939 -0.1373 -0.9895
  146MOL0     C19179   8.856   1.324   3.928 -0.6948 -1.3488  0.5449
  146MOL0     C19180   8.874   1.184   3.950  0.8412  0.5901  0.0268
  146MOL0     C19181   8.757   1.100   4.004 -0.6834 -0.1549  0.6611
  146MOL0     C19182   8.751   0.972   3.912 -0.0360 -0.8118 -0.2922
  146MOL0     C19183   8.843   0.858   3.960  0.6221  0.0280  0.4679
  146MOL0    Cl19184   8.745   0.775   4.084 -0.0996  0.1281  0.5036
  146MOL0     C19185   8.700   1.828   3.418  0.4693  0.5905 -0.0818
  146MOL0     C19186   8.741   1.862   3.291  0.1911 -1.0674 -0.2049
  146MOL0     O19187   8.825   1.656   3.009 -0.4810 -0.2592  0.0756
  146MOL0     C19188   8.821   1.979   2.853  0.6039 -0.6989  0.7375
  146MOL0     C19189   8.803   2.038   2.734 -0.0263  0.3761  0.4629
  146MOL0     N19190   8.772   2.491   2.153 -0.3483  0.0466  0.1085
  146MOL0     N19191   8.785   2.491   2.028  0.7924 -0.5206 -0.3447
  146MOL0     C19192   8.547   1.783   2.147  0.3561 -0.1783 -0.6529
  146MOL0     C19193   8.526   1.744   2.288 -0.0481  0.2431  0.4001
  146MOL0     C19194   8.323   1.665   2.707 -0.9203  1.4526  0.1027
  146MOL0     C19195   8.438   1.723   2.776  0.1061  0.2044  0.7641
  146MOL0     C19196   8.452   1.691   2.908 -0.7907 -0.5729  0.6979
  146MOL0     C19197   8.366   1.599   2.972  0.3035  1.0367  0.8873
  146MOL0     O19198   8.389   1.558   3.103 -0.4009 -0.0231  0.2192
  146MOL0     C19199   8.391   1.661   3.196  0.3935 -0.7049  0.3401
  146MOL0     C19200   8.302   1.602   3.308 -0.6058 -0.5774  0.1451
  146MOL0     C19201   8.390   1.566   3.430 -0.3052 -0.3692 -0.3630
  146MOL0     C19202   8.304   1.493   3.548  0.3084 -0.3578 -0.2997
  146MOL0     C19203   8.175   1.567   3.582 -0.5135 -0.3565  0.6812
  146MOL0     C19204   8.065   1.590   3.607 -0.4340  0.2996  0.0972
  146MOL0     C19205   8.263   1.539   2.904 -0.0035 -0.1426 -0.4279
  146MOL0     C19206   8.242   1.569   2.771  0.3014  0.4377  0.7364
  146MOL0     H19207   8.219   1.856   2.352  0.2754 -0.7118  0.7168
  146MOL0     H19208   8.239   1.914   2.106  1.8723 -0.9322 -3.8921
  146MOL0     H19209   8.263   1.884   1.917  1.5033 -2.0942 -0.1400
  146MOL0     H19210   8.372   1.882   1.782 -2.3732  3.0120 -1.0027
  146MOL0     H19211   8.299   2.111   1.957 -0.5593 -4.0989 -0.2829
  146MOL0     H19212   8.322   2.123   1.783  1.1699  2.8483  0.1991
  146MOL0     H19213   8.563   2.088   1.964 -0.3082 -4.0714 -2.2984
  146MOL0     H19214   8.476   2.234   1.952 -4.1039  0.2101 -1.6179
  146MOL0     H19215   8.577   2.089   1.697 -2.2098 -0.4032  1.8915
  146MOL0     H19216   8.505   2.243   1.687  0.4189 -0.6947 -1.3452
  146MOL0     H19217   8.664   2.339   1.834  0.0781 -0.2342  1.8491
  146MOL0     H19218   8.730   2.290   1.674 -0.3251 -1.0013 -0.6431
  146MOL0     H19219   8.835   2.101   1.790 -1.7803  0.3630 -0.9247
  146MOL0     H19220   8.793   2.171   1.950 -1.3022 -0.3041 -0.4381
  146MOL0     H19221   9.029   2.226   1.906 -2.5231  2.0120  4.4111
  146MOL0     H19222   8.983   2.256   1.733 -1.3492 -1.6124  0.0115
  146MOL0     H19223   8.876   2.475   1.782  1.5336  0.7612 -0.5210
  146MOL0     H19224   9.046   2.463   1.828  1.0123 -1.4339  0.9787
  146MOL0     H19225   9.093   2.427   2.113 -0.7301 -2.9571  0.1685
  146MOL0     H19226   8.858   2.529   2.412 -1.0406  0.0250 -1.7128
  146MOL0     H19227   9.021   2.545   2.348  1.7310 -2.4253 -1.1441
  146MOL0     H19228   9.030   2.378   2.515 -0.6235  1.9852 -0.4435
  146MOL0     H19229   9.042   2.284   2.366  1.7223 -1.1731  3.0345
  146MOL0     H19230   8.828   2.279   2.564 -1.2762 -2.6185  0.8893
  146MOL0     H19231   8.771   2.297   2.386 -1.0264 -0.2473  1.0718
  146MOL0     H19232   8.961   2.076   2.489  0.3820 -0.3741 -1.8128
  146MOL0     H19233   8.865   2.076   2.340 -0.7569  0.4837 -1.0254
  146MOL0     H19234   8.767   1.770   2.540  0.5030 -0.6681  1.1920
  146MOL0     H19235   8.863   1.656   2.758  3.6465  1.1779  1.6980
  146MOL0     H19236   9.032   1.699   3.246  0.7678  1.7407  0.5343
  146MOL0     H19237   8.973   1.620   3.450 -0.9926 -1.1725 -0.7077
  146MOL0     H19238   8.807   1.496   3.534  3.1814  0.7352  1.9932
  146MOL0     H19239   8.645   1.487   3.590  0.4678  0.4549  0.4323
  146MOL0     H19240   8.705   1.540   3.828 -1.5551 -0.3161 -2.2819
  146MOL0     H19241   8.879   1.554   3.769  1.0431 -0.7048  0.3932
  146MOL0     H19242   8.863   1.306   3.719 -0.1307 -3.5510  0.7364
  146MOL0     H19243   8.712   1.300   3.773  0.4271 -0.3243 -0.6318
  146MOL0     H19244   8.956   1.368   3.927 -1.4517  0.4954 -0.4529
  146MOL0     H19245   8.793   1.375   4.002 -0.1197 -0.4627  0.4432
  146MOL0     H19246   8.957   1.171   4.019  1.1365 -0.0608 -0.4474
  146MOL0     H19247   8.897   1.142   3.852  0.6702  1.5488 -0.4379
  146MOL0     H19248   8.667   1.161   3.995  1.6290  3.5212  0.2386
  146MOL0     H19249   8.777   1.084   4.110  0.8485 -3.3285  0.0067
  146MOL0     H19250   8.649   0.933   3.917 -0.5705  0.4908 -0.6054
  146MOL0     H19251   8.752   1.006   3.808  0.5710 -1.3853 -0.4857
  146MOL0     H19252   8.938   0.887   4.006  2.0066 -4.0860  0.5282
  146MOL0     H19253   8.854   0.798   3.870 -3.0655  1.4245 -1.1075
  146MOL0     H19254   8.624   1.880   3.476 -0.3361 -1.2096  0.5732
  146MOL0     H19255   8.677   1.935   3.242 -0.0977 -2.2718 -1.6741
  146MOL0     H19256   8.849   2.039   2.939 -1.3165  2.5572 -0.7154
  146MOL0     H19257   8.801   2.147   2.728  0.2818  0.2967 -1.6509
  146MOL0     H19258   8.645   1.774   2.101  2.0792  2.7668  1.9972
  146MOL0     H19259   8.610   1.702   2.342  0.6538  1.5624  0.3818
  146MOL0     H19260   8.513   1.782   2.724 -1.8268  0.2067 -2.2673
  146MOL0     H19261   8.535   1.735   2.963 -0.2970 -1.8115  0.9834
  146MOL0     H19262   8.338   1.754   3.174  1.9344  0.3941  1.0354
  146MOL0     H19263   8.489   1.695   3.231  0.1551  1.9526 -1.2577
  146MOL0     H19264   8.229   1.677   3.340  0.9927  3.2245 -3.9547
  146MOL0     H19265   8.244   1.517   3.272  0.8635 -1.0666 -1.1825
  146MOL0     H19266   8.427   1.660   3.470  0.9808 -0.6475 -0.8520
  146MOL0     H19267   8.473   1.505   3.393  2.0228  3.4438 -1.9847
  146MOL0     H19268   8.279   1.389   3.524 -1.4347  0.3481 -1.6752
  146MOL0     H19269   8.375   1.501   3.631 -0.3963 -1.2801  0.4169
  146MOL0     H19270   7.968   1.634   3.626  0.6744  3.7449 -1.4034
  146MOL0     H19271   8.211   1.463   2.961 -0.7080  1.1362  0.7053
  146MOL0     H19272   8.180   1.514   2.700  2.6594 -0.4061 -0.7697
  147MOL0     O19273  10.693   2.977   5.681 -0.1653  0.1218 -0.4551
  147MOL0     C19274  10.576   2.983   5.730  0.5080  0.5740 -0.3001
  147MOL0     O19275  10.471   2.913   5.683 -0.1370 -0.8060  0.5407
  147MOL0     C19276  10.484   2.846   5.575  0.6321 -0.5452  0.3602
  147MOL0     C19277  10.570   2.734   5.566 -0.1613 -0.5744 -0.9577
  147MOL0     C19278  10.595   2.676   5.442 -0.3265 -0.1781 -0.5984
  147MOL0     C19279  10.551   2.739   5.319  0.3207 -0.7628  1.1424
  147MOL0     O19280  10.580   2.699   5.192 -0.1283  0.0585 -0.3614
  147MOL0     C19281  10.718   2.676   5.174 -0.7282  0.7937 -0.2288
  147MOL0     C19282  10.750   2.641   5.028 -0.5704  0.9310 -0.2778
  147MOL0     C19283  10.688   2.722   4.915  0.9523  0.1914  0.3750
  147MOL0     C19284  10.777   2.706   4.792  0.7855 -0.7119 -0.9399
  147MOL0     C19285  10.742   2.806   4.679  0.1721 -0.1746 -0.0150
  147MOL0     C19286  10.776   2.742   4.540 -0.7326 -1.0040 -0.2733
  147MOL0     C19287  10.782   2.850   4.440 -0.0040 -0.4518 -0.0412
  147MOL0     C19288  10.796   2.789   4.303 -0.2310  0.7638 -0.1789
  147MOL0     N19289  10.921   2.727   4.276  0.5052  0.8083  0.1623
  147MOL0     C19290  11.040   2.776   4.318 -0.0863  0.2484  0.2684
  147MOL0     C19291  11.138   2.694   4.269  0.1969 -0.4431 -1.1150
  147MOL0     C19292  11.283   2.728   4.289  0.2980  1.0245 -0.3612
  147MOL0     C19293  11.379   2.604   4.327  0.1681  0.9137 -0.0921
  147MOL0     C19294  11.518   2.639   4.376 -0.2825  0.5326 -0.7296
  147MOL0     C19295  11.599   2.508   4.416 -0.2439 -0.3161  0.6135
  147MOL0     O19296  11.730   2.569   4.445  0.2094  1.0866 -0.3538
  147MOL0     C19297  11.755   2.588   4.582 -0.2690 -0.1118  1.0794
  147MOL0     C19298  11.822   2.710   4.617  0.8598  0.2940 -0.5903
  147MOL0     C19299  11.833   2.739   4.755 -0.7672 -0.3689 -0.4304
  147MOL0     C19300  11.817   2.640   4.850 -0.2320 -0.3852 -1.2068
  147MOL0     C19301  11.888   2.648   4.984 -0.0840 -0.1957 -0.4265
  147MOL0     O19302  11.958   2.764   5.002 -0.5952  0.1357 -0.7193
  147MOL0     C19303  12.075   2.762   5.083  0.8438 -0.5727  0.0582
  147MOL0     C19304  12.171   2.847   5.040  0.5818  0.3134 -0.3760
  147MOL0     C19305  12.298   2.864   5.107  0.3888  0.2218  0.4231
  147MOL0     C19306  12.324   2.782   5.217 -0.3747 -0.0014  0.7699
  147MOL0     O19307  12.452   2.767   5.263  0.6726  0.2486  0.6854
  147MOL0     C19308  12.513   2.888   5.289 -0.9920 -0.2249  0.8186
  147MOL0     C19309  12.638   2.858   5.370  0.1050 -0.1653  0.3008
  147MOL0     C19310  12.599   2.853   5.517 -0.2055 -0.6808 -0.3766
  147MOL0     C19311  12.726   2.839   5.600 -0.0554 -0.0538  0.2179
  147MOL0     C19312  12.676   2.777   5.734 -0.8393  0.2456  0.4657
  147MOL0     C19313  12.577   2.855   5.814 -0.8631  0.6253 -0.7016
  147MOL0     C19314  12.601   3.006   5.837  0.1839 -0.1437  0.5973
  147MOL0     C19315  12.523   3.067   5.956  0.1118 -0.7990 -0.6200
  147MOL0    Cl19316  12.539   3.243   5.945  0.0997 -0.0679  0.2500
  147MOL0     C19317  12.238   2.680   5.251  0.0931  0.1721  1.0326
  147MOL0     C19318  12.109   2.674   5.191 -0.0538  0.5381  0.8271
  147MOL0     O19319  11.873   2.553   5.054  0.1827 -0.4923  0.2587
  147MOL0     C19320  11.757   2.527   4.806  0.1800  0.5451  0.0655
  147MOL0     C19321  11.722   2.491   4.676  0.1027  0.6977  0.4267
  147MOL0     N19322  11.077   2.595   4.187 -0.4420  0.3388  0.7904
  147MOL0     N19323  10.949   2.619   4.189  0.3684 -0.2251 -0.1411
  147MOL0     C19324  10.464   2.849   5.337  0.1572  1.0576  0.8079
  147MOL0     C19325  10.438   2.904   5.461 -0.2014 -0.5466  0.5797
  147MOL0     C19326  10.562   3.067   5.847  0.3016 -1.4241 -0.7462
  147MOL0     C19327  10.665   3.114   5.933 -0.2708 -0.4880 -0.5617
  147MOL0     C19328  10.640   3.193   6.049  1.7937  1.0058  0.1008
  147MOL0     C19329  10.509   3.231   6.083 -0.3833  0.5052  0.2273
  147MOL0     O19330  10.473   3.307   6.193 -0.8248 -1.0525 -0.7730
  147MOL0     C19331  10.571   3.346   6.285 -0.0568 -0.1093  0.4852
  147MOL0     C19332  10.503   3.396   6.417 -0.4599 -0.1621 -0.0074
  147MOL0     C19333  10.403   3.287   6.472  0.1150 -0.3008 -0.9281
  147MOL0     C19334  10.461   3.226   6.596  0.7957 -0.0159 -1.3304
  147MOL0     C19335  10.594   3.159   6.586  0.0289 -0.1472  0.2931
  147MOL0     C19336  10.700   3.111   6.569  0.3320 -0.2437  0.3775
  147MOL0     C19337  10.404   3.195   5.989 -0.0415  0.0470  1.2576
  147MOL0     C19338  10.429   3.116   5.875 -0.2618 -0.0812  0.1014
  147MOL0     H19339  10.594   2.687   5.661  0.4287 -1.6010 -1.5858
  147MOL0     H19340  10.642   2.578   5.439  1.6315  0.4441  3.3107
  147MOL0     H19341  10.750   2.603   5.249  1.9973  2.7349  0.6471
  147MOL0     H19342  10.763   2.772   5.199 -0.1398  0.4914 -0.1103
  147MOL0     H19343  10.712   2.539   5.021  1.5216 -0.0992  2.1353
  147MOL0     H19344  10.858   2.631   5.023 -0.5627  1.4246 -1.6438
  147MOL0     H19345  10.665   2.820   4.957 -0.3839  0.7300 -1.4941
  147MOL0     H19346  10.591   2.681   4.885 -0.6711  2.5263  2.1248
  147MOL0     H19347  10.884   2.707   4.815  0.4329 -2.6059  1.0938
  147MOL0     H19348  10.763   2.605   4.752  0.1135  0.0753 -2.8394
  147MOL0     H19349  10.784   2.905   4.697  0.6141 -0.7734  2.5494
  147MOL0     H19350  10.634   2.823   4.683 -0.1752 -0.7669 -3.6184
  147MOL0     H19351  10.698   2.675   4.505 -2.6548  2.4095 -3.2460
  147MOL0     H19352  10.877   2.699   4.548  2.0937  3.8739 -3.8482
  147MOL0     H19353  10.682   2.895   4.448  0.3172 -0.0541  3.3955
  147MOL0     H19354  10.852   2.931   4.461  0.0060  0.0018 -1.7189
  147MOL0     H19355  10.800   2.869   4.229  2.9623  1.5796  0.7033
  147MOL0     H19356  10.716   2.716   4.285  0.1767  0.4902 -0.9353
  147MOL0     H19357  11.053   2.853   4.394 -0.5234  0.5050  0.0884
  147MOL0     H19358  11.290   2.798   4.373 -2.8865  0.7734  0.2355
  147MOL0     H19359  11.321   2.779   4.200 -1.1383 -0.0274 -1.6277
  147MOL0     H19360  11.402   2.535   4.245 -0.1859 -0.6297  1.0633
  147MOL0     H19361  11.337   2.549   4.411 -0.5289 -0.0408 -1.0278
  147MOL0     H19362  11.570   2.698   4.301 -1.2462 -0.9047 -2.6261
  147MOL0     H19363  11.495   2.698   4.465 -0.7358  0.5586 -0.8600
  147MOL0     H19364  11.603   2.436   4.334  2.9085  2.4565 -1.9704
  147MOL0     H19365  11.553   2.460   4.503  2.4673 -2.2635  1.0875
  147MOL0     H19366  11.840   2.778   4.534 -5.1011  2.2846 -0.7189
  147MOL0     H19367  11.886   2.832   4.776 -1.2316 -0.0912 -0.4673
  147MOL0     H19368  12.158   2.915   4.957  0.7231 -0.0932 -0.7321
  147MOL0     H19369  12.371   2.941   5.082 -0.6080  1.2161  0.5094
  147MOL0     H19370  12.445   2.967   5.320 -0.3354  1.1667 -1.0606
  147MOL0     H19371  12.551   2.916   5.190  0.4902  0.2148  1.4845
  147MOL0     H19372  12.721   2.925   5.348  0.3941  0.6167  3.3559
  147MOL0     H19373  12.679   2.760   5.347  0.2790 -0.0874  0.2781
  147MOL0     H19374  12.521   2.777   5.525 -1.1593  0.0425 -2.1343
  147MOL0     H19375  12.554   2.952   5.533 -1.8768 -1.7897  2.3594
  147MOL0     H19376  12.804   2.780   5.551 -0.4695 -0.0570 -0.4446
  147MOL0     H19377  12.764   2.942   5.606 -2.2566  0.7842  0.7745
  147MOL0     H19378  12.769   2.759   5.790 -1.7395  0.2954  2.0327
  147MOL0     H19379  12.641   2.675   5.716 -0.3324  0.1152  0.1877
  147MOL0     H19380  12.580   2.812   5.914 -1.3445 -0.3616 -1.1053
  147MOL0     H19381  12.480   2.838   5.767  1.5773  0.8462 -6.6630
  147MOL0     H19382  12.708   3.021   5.853  0.4779 -0.1144 -1.2509
  147MOL0     H19383  12.562   3.059   5.750 -1.0942 -0.3181  1.0329
  147MOL0     H19384  12.570   3.025   6.045  1.8754 -0.6624 -1.4538
  147MOL0     H19385  12.418   3.045   5.937  0.2049 -2.9651  1.0374
  147MOL0     H19386  12.269   2.612   5.329 -1.5408 -0.1726  1.4065
  147MOL0     H19387  12.036   2.607   5.234 -0.8493  1.2208  0.5617
  147MOL0     H19388  11.735   2.445   4.873  2.0321 -0.6726 -0.7282
  147MOL0     H19389  11.679   2.393   4.660  1.1938 -0.1508  2.2999
  147MOL0     H19390  10.416   2.887   5.248  0.8658 -0.0666 -0.0742
  147MOL0     H19391  10.365   2.982   5.474  0.0390 -0.2595  0.2180
  147MOL0     H19392  10.770   3.087   5.925  0.3730  1.1874  1.3726
  147MOL0     H19393  10.719   3.207   6.122  1.1091 -3.1819  1.9664
  147MOL0     H19394  10.626   3.426   6.235 -0.0409 -1.3176 -1.5220
  147MOL0     H19395  10.644   3.269   6.310  2.9949  3.3359  3.5178
  147MOL0     H19396  10.581   3.409   6.493  4.8543 -4.0204 -4.0371
  147MOL0     H19397  10.450   3.490   6.398  1.6077  1.5769  2.1962
  147MOL0     H19398  10.377   3.207   6.403  1.0342 -1.6293  0.2186
  147MOL0     H19399  10.312   3.340   6.503  0.3405 -0.4139 -0.0422
  147MOL0     H19400  10.477   3.296   6.678 -0.8292 -2.4352  1.2581
  147MOL0     H19401  10.386   3.155   6.632 -0.6278  1.8944 -0.3673
  147MOL0     H19402  10.791   3.061   6.541  0.7031  0.0688  1.0112
  147MOL0     H19403  10.306   3.241   6.002 -1.7140 -2.0037 -2.6337
  147MOL0     H19404  10.344   3.094   5.811  0.0555 -0.3436 -0.2368
  148MOL0     O19405  10.895   3.644   4.310 -0.0055  0.9790  0.1183
  148MOL0     C19406  10.928   3.737   4.239 -0.4207  0.6251 -1.3610
  148MOL0     O19407  10.925   3.746   4.113  0.2151 -0.2344  0.3043
  148MOL0     C19408  10.892   3.633   4.045  0.2137  0.7892  0.5076
  148MOL0     C19409  10.759   3.612   4.009  0.6293  0.4456  0.4153
  148MOL0     C19410  10.722   3.493   3.934  0.0775 -0.4597  0.3876
  148MOL0     C19411  10.816   3.407   3.895  0.6544  0.0096  1.2813
  148MOL0     O19412  10.793   3.290   3.824 -0.1603  1.1039  0.1825
  148MOL0     C19413  10.692   3.311   3.715 -0.7076  0.1301 -0.7496
  148MOL0     C19414  10.727   3.196   3.607 -1.1110  0.3973 -0.1285
  148MOL0     C19415  10.870   3.199   3.555 -1.3282 -0.3555 -0.0077
  148MOL0     C19416  10.885   3.105   3.430 -0.4269  0.1183 -0.8239
  148MOL0     C19417  10.818   3.170   3.305  0.1480  0.2711  0.7817
  148MOL0     C19418  10.848   3.108   3.166 -0.6490  0.5210 -0.4919
  148MOL0     C19419  10.825   3.213   3.059 -0.3174  0.4902 -0.8167
  148MOL0     C19420  10.927   3.233   2.955  0.4812 -0.2891  0.7562
  148MOL0     N19421  10.961   3.125   2.867 -0.1334 -0.2444 -0.6674
  148MOL0     C19422  10.912   3.002   2.888 -0.6374  0.3883 -0.0764
  148MOL0     C19423  10.935   2.936   2.770  0.0454 -0.6313 -0.0388
  148MOL0     C19424  10.906   2.794   2.736  0.1451  0.1894 -0.2408
  148MOL0     C19425  11.019   2.693   2.736 -0.3561 -0.0193  0.0488
  148MOL0     C19426  11.135   2.745   2.647 -0.2606 -0.6786 -0.1571
  148MOL0     C19427  11.213   2.625   2.593  0.2551  0.5281 -0.0214
  148MOL0     O19428  11.278   2.550   2.698  0.4420  0.2902 -0.4327
  148MOL0     C19429  11.321   2.427   2.671 -1.0870  1.3877 -0.1317
  148MOL0     C19430  11.375   2.396   2.542 -0.4911 -0.7938 -0.2791
  148MOL0     C19431  11.418   2.270   2.523  0.3346  0.7546 -0.0818
  148MOL0     C19432  11.414   2.170   2.625 -0.1625  0.0974  0.1211
  148MOL0     C19433  11.474   2.040   2.587 -0.5746  0.6540 -0.3881
  148MOL0     O19434  11.428   1.933   2.657  0.2677  0.2708  0.5347
  148MOL0     C19435  11.477   1.800   2.630  0.5431 -0.8726  0.7872
  148MOL0     C19436  11.482   1.755   2.497 -0.3250  1.1390  0.8612
  148MOL0     C19437  11.480   1.616   2.478 -0.9056 -0.4521 -0.9280
  148MOL0     C19438  11.542   1.535   2.577  0.0668  0.9609 -0.6580
  148MOL0     O19439  11.573   1.396   2.571 -0.2496 -1.4351  0.0257
  148MOL0     C19440  11.481   1.313   2.496 -0.4662  0.8895 -0.4585
  148MOL0     C19441  11.520   1.158   2.493  0.7929  0.5390 -0.1874
  148MOL0     C19442  11.666   1.142   2.438 -0.4348  0.0777  0.4561
  148MOL0     C19443  11.701   0.995   2.442 -0.3408 -0.2290  0.3084
  148MOL0     C19444  11.841   0.963   2.396  0.2696 -0.0433 -0.2945
  148MOL0     C19445  11.887   1.023   2.268 -0.4114  0.5510  0.6847
  148MOL0     C19446  12.014   0.962   2.208 -0.1450 -0.6007 -0.6876
  148MOL0     C19447  12.059   1.066   2.113  0.3605  0.2040  0.1081
  148MOL0    Cl19448  12.216   1.054   2.041 -0.4084 -0.1996  0.0961
  148MOL0     C19449  11.559   1.591   2.705  0.1275 -0.6152  0.1274
  148MOL0     C19450  11.519   1.722   2.733  0.6621 -0.7270  1.0377
  148MOL0     O19451  11.558   2.037   2.500  0.0177  0.9830 -0.5802
  148MOL0     C19452  11.341   2.191   2.746  0.1366 -0.9065 -0.4919
  148MOL0     C19453  11.304   2.318   2.773 -0.2308 -0.5745 -0.1982
  148MOL0     N19454  11.006   3.025   2.691  0.3667  0.5692 -0.1330
  148MOL0     N19455  11.021   3.135   2.749  0.3735  0.3047  0.5984
  148MOL0     C19456  10.947   3.424   3.943  1.0593 -0.1435  0.1830
  148MOL0     C19457  10.986   3.534   4.014 -0.1283 -0.0026 -0.0845
  148MOL0     C19458  11.005   3.828   4.316 -0.2206  0.6340  0.5503
  148MOL0     C19459  11.048   3.943   4.253 -0.7416  0.1812 -0.4327
  148MOL0     C19460  11.125   4.041   4.323  0.1038 -0.1048  0.7398
  148MOL0     C19461  11.136   4.041   4.462 -0.1132  0.1158 -0.1407
  148MOL0     O19462  11.171   4.144   4.538 -0.5436  0.0072  0.2380
  148MOL0     C19463  11.235   4.254   4.471  0.4891 -0.2731 -0.2257
  148MOL0     C19464  11.253   4.374   4.579 -1.8624 -0.2192 -0.3834
  148MOL0     C19465  11.329   4.494   4.530  0.5150  0.9538 -0.5738
  148MOL0     C19466  11.245   4.602   4.454  0.3453  0.2674  0.4439
  148MOL0     C19467  11.215   4.565   4.318  0.1013  0.8290 -0.2355
  148MOL0     C19468  11.184   4.538   4.208 -0.4723 -0.7715  0.1938
  148MOL0     C19469  11.104   3.916   4.520  1.2893 -0.5357 -0.0284
  148MOL0     C19470  11.042   3.809   4.451  0.1017 -1.0123 -0.9704
  148MOL0     H19471  10.692   3.691   4.039 -0.9308 -1.2354  1.5626
  148MOL0     H19472  10.616   3.481   3.914 -0.1223  2.8549 -1.2977
  148MOL0     H19473  10.688   3.410   3.669  0.7462 -0.4347 -2.2061
  148MOL0     H19474  10.595   3.277   3.751 -0.1185 -0.6642  0.1449
  148MOL0     H19475  10.659   3.215   3.523 -0.8112  2.3189  0.0030
  148MOL0     H19476  10.703   3.101   3.655 -0.0890  0.2355  0.0916
  148MOL0     H19477  10.935   3.165   3.636 -1.7606 -2.0120 -0.3041
  148MOL0     H19478  10.904   3.300   3.530  0.7965 -0.7121  1.2608
  148MOL0     H19479  10.992   3.091   3.412  0.0666  1.5565  0.6798
  148MOL0     H19480  10.853   3.005   3.458  2.2237 -0.5635 -0.0042
  148MOL0     H19481  10.855   3.273   3.313 -1.8103  1.1987 -0.9913
  148MOL0     H19482  10.709   3.176   3.314 -0.0623 -1.9217  0.3127
  148MOL0     H19483  10.803   3.009   3.155  1.8768 -0.6537 -1.0372
  148MOL0     H19484  10.955   3.084   3.171 -0.7299  0.1297 -0.5550
  148MOL0     H19485  10.734   3.186   3.004 -0.6848 -1.2627  0.5401
  148MOL0     H19486  10.808   3.309   3.110 -2.2921  0.6141 -1.6115
  148MOL0     H19487  11.010   3.274   3.013  1.9705  0.7945 -1.9633
  148MOL0     H19488  10.893   3.310   2.884 -0.9026  0.0303  1.7229
  148MOL0     H19489  10.865   2.955   2.973 -1.0707  0.8512 -0.0596
  148MOL0     H19490  10.864   2.792   2.635  0.1328 -1.4954 -0.2200
  148MOL0     H19491  10.822   2.752   2.791  0.7556 -2.9032 -1.4794
  148MOL0     H19492  10.970   2.601   2.704  0.3748  0.3142 -2.2277
  148MOL0     H19493  11.058   2.684   2.838 -0.0611  1.5075  0.0890
  148MOL0     H19494  11.093   2.802   2.564  0.1564 -0.4360 -0.2048
  148MOL0     H19495  11.212   2.805   2.697  0.7593 -3.4826  1.9031
  148MOL0     H19496  11.285   2.660   2.518 -0.4703 -0.3673 -1.1738
  148MOL0     H19497  11.154   2.553   2.536  3.5692 -4.0423  1.6937
  148MOL0     H19498  11.372   2.469   2.462  0.3177  0.3889  0.7361
  148MOL0     H19499  11.464   2.249   2.427  2.8300  1.9029  0.7771
  148MOL0     H19500  11.451   1.825   2.419 -1.3805  1.4137  1.5015
  148MOL0     H19501  11.453   1.567   2.385 -1.0939 -0.4842 -0.8564
  148MOL0     H19502  11.454   1.345   2.395 -1.2520 -0.0495 -0.5636
  148MOL0     H19503  11.386   1.319   2.548 -0.3822 -3.7115  0.6028
  148MOL0     H19504  11.460   1.100   2.422  3.8309 -1.5010 -1.3169
  148MOL0     H19505  11.510   1.114   2.593  1.1535 -1.7840 -1.1104
  148MOL0     H19506  11.735   1.194   2.505  0.3053 -0.6657  0.2888
  148MOL0     H19507  11.669   1.187   2.338 -1.1581 -0.5407  0.1385
  148MOL0     H19508  11.689   0.964   2.546 -1.4948 -0.8789  0.0012
  148MOL0     H19509  11.638   0.938   2.374 -2.7915 -1.2092  3.1898
  148MOL0     H19510  11.849   0.855   2.381 -1.8650 -0.0881 -1.4821
  148MOL0     H19511  11.905   0.998   2.478 -1.3499  1.8309  0.2558
  148MOL0     H19512  11.890   1.130   2.292 -1.9662  0.2183  2.6947
  148MOL0     H19513  11.805   1.017   2.197  1.3299 -0.8837 -1.3269
  148MOL0     H19514  12.079   0.943   2.294 -0.8780  0.5883  0.1576
  148MOL0     H19515  12.009   0.868   2.153 -2.9376 -2.3201  2.1855
  148MOL0     H19516  12.067   1.158   2.172  3.0350 -0.9699  1.7316
  148MOL0     H19517  11.984   1.074   2.033 -1.0215  0.7051  1.4044
  148MOL0     H19518  11.591   1.526   2.787 -0.3257 -1.0566 -0.0410
  148MOL0     H19519  11.522   1.781   2.824 -2.7836  0.2385  0.6898
  148MOL0     H19520  11.323   2.129   2.833  0.0208  3.1985  2.6722
  148MOL0     H19521  11.281   2.341   2.876  0.6299 -1.3887  0.1901
  148MOL0     H19522  11.011   3.347   3.903  1.2501 -0.2560  0.6902
  148MOL0     H19523  11.091   3.553   4.035 -0.2728  1.0147 -0.2361
  148MOL0     H19524  11.037   3.956   4.145  3.3935  0.4913 -0.9545
  148MOL0     H19525  11.143   4.127   4.259  1.1158 -1.0516 -0.2825
  148MOL0     H19526  11.176   4.290   4.387  0.3385  1.9017  0.7460
  148MOL0     H19527  11.332   4.215   4.440 -0.3652 -1.4993 -1.4581
  148MOL0     H19528  11.155   4.410   4.612 -2.6582 -0.5829 -2.2044
  148MOL0     H19529  11.312   4.334   4.662  1.4212  1.7370 -1.5736
  148MOL0     H19530  11.417   4.455   4.479 -1.6193 -2.6367 -1.8937
  148MOL0     H19531  11.356   4.546   4.622 -0.8290  1.8068 -0.6328
  148MOL0     H19532  11.149   4.632   4.495 -0.5431 -0.6397 -0.8723
  148MOL0     H19533  11.315   4.686   4.442  1.6529 -0.6151  1.5529
  148MOL0     H19534  11.153   4.513   4.108 -0.8645  1.1841 -0.2107
  148MOL0     H19535  11.121   3.900   4.626  1.6837 -3.2996 -0.4342
  148MOL0     H19536  11.032   3.719   4.510 -0.7075 -0.1677  0.2339
  149MOL0     O19537   7.857   5.695   5.599  0.3099 -0.3764  0.3425
  149MOL0     C19538   7.930   5.604   5.564 -0.1879 -0.7552  0.0825
  149MOL0     O19539   7.888   5.485   5.498 -0.4337 -0.3343  0.2774
  149MOL0     C19540   7.755   5.464   5.468  0.0888  0.1138 -0.9097
  149MOL0     C19541   7.711   5.496   5.340 -0.2322  0.2293  0.7144
  149MOL0     C19542   7.587   5.456   5.301  0.0978 -0.0764  0.3692
  149MOL0     C19543   7.493   5.383   5.375  0.5666  0.0075 -0.4471
  149MOL0     O19544   7.389   5.319   5.322  0.0893  0.3027 -0.2604
  149MOL0     C19545   7.338   5.353   5.183 -0.1078 -0.9450 -0.0315
  149MOL0     C19546   7.183   5.350   5.181 -0.5224  1.3981 -0.4442
  149MOL0     C19547   7.128   5.211   5.147 -0.8531 -0.3078  0.8099
  149MOL0     C19548   7.181   5.131   5.029 -0.4931  0.0236  0.8828
  149MOL0     C19549   7.100   5.003   5.017 -0.4882 -0.0272  0.3036
  149MOL0     C19550   7.155   4.902   4.912  0.3773 -1.0627  0.0036
  149MOL0     C19551   7.162   4.953   4.762 -0.0156 -0.4475 -1.3208
  149MOL0     C19552   7.024   5.002   4.712 -0.4276 -0.2235 -0.2218
  149MOL0     N19553   6.993   5.142   4.738 -0.1620  0.6371 -0.5643
  149MOL0     C19554   7.065   5.237   4.668  0.3745  0.6633  0.7367
  149MOL0     C19555   7.000   5.350   4.690  0.6759 -0.2094  0.1604
  149MOL0     C19556   7.020   5.486   4.629 -0.7825 -0.9549 -0.0531
  149MOL0     C19557   7.043   5.606   4.734 -0.0854 -0.2179  0.2566
  149MOL0     C19558   7.028   5.736   4.655  0.5373 -0.0520 -0.0459
  149MOL0     C19559   7.049   5.870   4.740  0.3789  0.5342  0.3285
  149MOL0     O19560   7.018   5.995   4.672 -0.1733 -0.2924 -0.3765
  149MOL0     C19561   6.890   6.002   4.617  0.1694 -0.2743  0.8397
  149MOL0     C19562   6.870   6.086   4.505  0.0027 -0.1340 -0.0268
  149MOL0     C19563   6.741   6.127   4.456 -0.5852  0.2929  0.4551
  149MOL0     C19564   6.631   6.067   4.516  0.1352  0.1885  0.4751
  149MOL0     C19565   6.491   6.075   4.453  0.1545 -0.6923  0.3819
  149MOL0     O19566   6.388   6.033   4.539 -0.8097  0.1797  0.4688
  149MOL0     C19567   6.256   6.013   4.496  1.1747  0.1321 -0.0231
  149MOL0     C19568   6.184   5.888   4.481 -0.4446 -1.2174 -0.1318
  149MOL0     C19569   6.048   5.887   4.450  0.6264  0.1517 -1.1783
  149MOL0     C19570   5.974   6.010   4.448 -0.6291  0.2490  0.0674
  149MOL0     O19571   5.842   6.031   4.424  1.1190  0.6534  0.1669
  149MOL0     C19572   5.734   5.961   4.490 -0.2761  0.6571  0.0592
  149MOL0     C19573   5.692   6.029   4.630 -0.9491  0.1117  0.5253
  149MOL0     C19574   5.559   5.962   4.695 -0.0869 -1.1704 -1.0636
  149MOL0     C19575   5.434   6.021   4.636  0.9513  0.4545  0.4947
  149MOL0     C19576   5.295   5.992   4.712  0.3040 -0.4383  0.0746
  149MOL0     C19577   5.170   6.027   4.624 -0.3125 -0.1882  0.5870
  149MOL0     C19578   5.050   6.063   4.710  0.6031 -0.0896  0.1198
  149MOL0     C19579   4.925   6.063   4.641 -0.3943 -0.0500 -0.6070
  149MOL0    Cl19580   4.810   6.117   4.770 -0.2605 -0.2077  0.3986
  149MOL0     C19581   6.041   6.127   4.465 -0.5578  0.3839  0.2515
  149MOL0     C19582   6.176   6.131   4.483  0.1158  0.1039 -0.1441
  149MOL0     O19583   6.481   6.123   4.335  0.6072 -0.4164  0.6913
  149MOL0     C19584   6.652   5.990   4.631 -0.2928 -0.1323 -1.3772
  149MOL0     C19585   6.780   5.953   4.679  0.5104 -0.2410  0.1480
  149MOL0     N19586   6.885   5.317   4.765  0.4678 -0.1507 -0.0612
  149MOL0     N19587   6.886   5.195   4.804 -0.3086  0.3740 -0.0022
  149MOL0     C19588   7.532   5.357   5.508  0.0574  0.9409 -0.0689
  149MOL0     C19589   7.665   5.394   5.554  0.3427  0.0535 -0.4285
  149MOL0     C19590   8.068   5.615   5.604  0.2755 -1.0096  0.3028
  149MOL0     C19591   8.137   5.737   5.625  0.6642  0.6546  0.5534
  149MOL0     C19592   8.273   5.739   5.644 -0.3227 -0.1971  0.0650
  149MOL0     C19593   8.335   5.612   5.636  0.0111 -1.3596  0.8687
  149MOL0     O19594   8.469   5.600   5.651 -0.6961 -0.2718 -1.2577
  149MOL0     C19595   8.551   5.720   5.647  0.2025 -0.1308  0.1036
  149MOL0     C19596   8.680   5.689   5.717 -0.4515  0.8592 -0.0508
  149MOL0     C19597   8.647   5.657   5.868  0.3070 -0.1216 -1.0890
  149MOL0     C19598   8.770   5.670   5.958  0.7007 -0.2908  0.1609
  149MOL0     C19599   8.880   5.594   5.907  0.1558  0.5120  0.5175
  149MOL0     C19600   8.968   5.527   5.849 -0.9916  0.0641  0.5049
  149MOL0     C19601   8.267   5.491   5.639 -1.0007  0.2092 -1.3119
  149MOL0     C19602   8.137   5.496   5.613  0.0850  0.2326  0.6514
  149MOL0     H19603   7.778   5.531   5.262  0.0664  1.6462  1.5659
  149MOL0     H19604   7.562   5.475   5.197  0.2177  1.5274  0.6148
  149MOL0     H19605   7.378   5.274   5.119  0.4570 -0.7389  0.0608
  149MOL0     H19606   7.352   5.456   5.149 -0.4798 -0.8014  0.2410
  149MOL0     H19607   7.137   5.422   5.113  0.4556  3.5566  1.0886
  149MOL0     H19608   7.134   5.378   5.274 -0.9533 -1.6481  0.3516
  149MOL0     H19609   7.024   5.240   5.128 -0.6998 -0.2186  0.0832
  149MOL0     H19610   7.134   5.137   5.227 -0.6551 -1.8052 -0.5363
  149MOL0     H19611   7.201   5.170   4.929 -2.0016 -0.6506  0.3057
  149MOL0     H19612   7.277   5.096   5.069 -1.4398  0.9727  4.3804
  149MOL0     H19613   7.000   5.036   4.986  0.6597  0.8995 -2.8016
  149MOL0     H19614   7.096   4.951   5.113  0.2182  0.8650  0.8442
  149MOL0     H19615   7.094   4.811   4.905 -2.0590  0.4731  0.1002
  149MOL0     H19616   7.260   4.876   4.932  1.0563 -1.9762 -3.8500
  149MOL0     H19617   7.237   5.030   4.745  1.4755 -0.7591  2.7992
  149MOL0     H19618   7.185   4.866   4.699  1.0174 -0.7977 -0.4781
  149MOL0     H19619   6.945   4.939   4.753 -1.3109  1.4043  0.6336
  149MOL0     H19620   7.025   4.990   4.603  0.2804  2.6120 -0.5939
  149MOL0     H19621   7.138   5.212   4.591  0.5860 -2.2429  1.7419
  149MOL0     H19622   6.921   5.518   4.594 -0.8033  0.7568  1.4381
  149MOL0     H19623   7.087   5.485   4.542 -2.2995 -1.3173 -1.2597
  149MOL0     H19624   7.143   5.592   4.775  0.3243 -2.7588 -1.3710
  149MOL0     H19625   6.965   5.604   4.811  1.2119  0.3333  1.6408
  149MOL0     H19626   7.100   5.741   4.573  1.0064  0.6539  0.3928
  149MOL0     H19627   6.930   5.734   4.606  0.7317  1.6727 -0.5761
  149MOL0     H19628   7.157   5.872   4.758  0.9132 -0.4154 -2.2797
  149MOL0     H19629   7.002   5.862   4.839  2.6034  2.3213  1.6254
  149MOL0     H19630   6.953   6.135   4.455 -0.8093  1.6782  0.3074
  149MOL0     H19631   6.724   6.202   4.380 -2.8180  1.6675  2.1864
  149MOL0     H19632   6.257   5.810   4.498 -0.3223 -1.3620 -1.2401
  149MOL0     H19633   5.995   5.795   4.429  0.4245 -0.8331  2.7667
  149MOL0     H19634   5.752   5.856   4.517 -2.0005  1.3600  5.0159
  149MOL0     H19635   5.650   5.952   4.422 -0.0436 -1.4461  0.0000
  149MOL0     H19636   5.690   6.135   4.605  0.4971 -0.0690 -0.4589
  149MOL0     H19637   5.786   6.016   4.684  0.6533  3.0823 -1.2598
  149MOL0     H19638   5.561   5.986   4.802  2.5399  2.6028 -1.7661
  149MOL0     H19639   5.564   5.855   4.676 -2.0470 -1.2391 -1.4119
  149MOL0     H19640   5.438   6.130   4.637  1.5450  0.4426  1.6894
  149MOL0     H19641   5.425   5.980   4.535 -1.7896  2.9285 -0.3726
  149MOL0     H19642   5.289   6.066   4.793  0.8934  1.6526 -1.6818
  149MOL0     H19643   5.289   5.886   4.736 -2.0691 -0.6107 -0.9966
  149MOL0     H19644   5.147   5.952   4.547  0.0971  0.5926 -0.3147
  149MOL0     H19645   5.194   6.120   4.572  1.5164  1.5672  4.1729
  149MOL0     H19646   5.050   5.998   4.798  2.1712  0.0598  0.2594
  149MOL0     H19647   5.059   6.162   4.756  2.2217  0.4863 -1.3303
  149MOL0     H19648   4.910   5.959   4.611 -2.2972  0.5912 -2.0333
  149MOL0     H19649   4.908   6.125   4.553  0.3992  2.3255  0.8392
  149MOL0     H19650   5.990   6.223   4.468 -2.6258 -0.6378 -0.3020
  149MOL0     H19651   6.221   6.230   4.489  1.3897 -0.3623 -1.4979
  149MOL0     H19652   6.557   5.963   4.678 -1.6701  0.8609 -3.4362
  149MOL0     H19653   6.781   5.903   4.775 -1.4069  0.2816  0.4778
  149MOL0     H19654   7.465   5.301   5.571  2.7271 -1.2168  1.0733
  149MOL0     H19655   7.713   5.363   5.646  0.5179 -2.1513 -1.2125
  149MOL0     H19656   8.075   5.825   5.609 -0.2605  0.0252  0.5736
  149MOL0     H19657   8.321   5.835   5.658 -0.2970 -0.1543 -0.3071
  149MOL0     H19658   8.504   5.804   5.699 -4.2317 -2.4704  0.3850
  149MOL0     H19659   8.560   5.751   5.542 -0.4334 -1.1024 -0.2494
  149MOL0     H19660   8.727   5.602   5.670 -0.1716 -0.0044  1.7097
  149MOL0     H19661   8.747   5.774   5.708  2.7943 -1.7626 -5.3813
  149MOL0     H19662   8.601   5.558   5.872 -0.7202  0.3538  1.8149
  149MOL0     H19663   8.567   5.722   5.902  1.2405  0.2195  0.6036
  149MOL0     H19664   8.798   5.775   5.958  2.5598 -0.6336  3.4772
  149MOL0     H19665   8.753   5.633   6.060  6.3515 -1.7082  0.9130
  149MOL0     H19666   9.046   5.471   5.801 -3.1158 -1.7512 -1.0336
  149MOL0     H19667   8.332   5.404   5.645  0.5086  1.3414 -0.5621
  149MOL0     H19668   8.082   5.403   5.617  0.7792 -0.1669  1.0967
  150MOL0     O19669   4.060   1.867   3.056 -0.4598  0.3609  0.1895
  150MOL0     C19670   3.992   1.846   2.957  0.2544  0.2754  0.4511
  150MOL0     O19671   4.032   1.796   2.839  0.5232  0.4337 -0.2338
  150MOL0     C19672   4.159   1.752   2.817  0.0271 -0.2540  0.3079
  150MOL0     C19673   4.236   1.693   2.912  0.4429  0.7032 -0.8565
  150MOL0     C19674   4.367   1.642   2.879 -0.0298  0.1507 -0.8637
  150MOL0     C19675   4.420   1.663   2.753 -0.2167 -0.2817  1.0222
  150MOL0     O19676   4.546   1.614   2.726  0.0474  0.2453  0.5375
  150MOL0     C19677   4.644   1.722   2.686  0.2873 -0.5953  0.2786
  150MOL0     C19678   4.749   1.651   2.598 -0.0544  0.3261 -0.6304
  150MOL0     C19679   4.857   1.569   2.674  0.5013 -0.2996 -0.1936
  150MOL0     C19680   4.938   1.469   2.584  0.4764  1.2684 -1.3374
  150MOL0     C19681   4.861   1.387   2.492  0.1867  0.0110 -0.5349
  150MOL0     C19682   4.757   1.300   2.564 -0.7080 -0.4438  0.1375
  150MOL0     C19683   4.688   1.206   2.469  0.2336  0.0629  0.7761
  150MOL0     C19684   4.638   1.078   2.533 -0.3808 -0.0988 -0.2307
  150MOL0     N19685   4.539   1.022   2.444  0.3741 -0.4670 -0.0754
  150MOL0     C19686   4.403   1.036   2.455  0.2249 -0.2961  0.5191
  150MOL0     C19687   4.352   0.964   2.352  0.1918 -0.2075  0.3742
  150MOL0     C19688   4.208   0.922   2.342 -0.0926 -0.1293  0.4342
  150MOL0     C19689   4.187   0.774   2.373  0.1225 -0.7211  0.2110
  150MOL0     C19690   4.262   0.712   2.495 -0.2979  0.4053 -0.3864
  150MOL0     C19691   4.173   0.598   2.556  0.3687  0.6412  0.0300
  150MOL0     O19692   4.184   0.477   2.467  0.7313 -0.0579  1.1597
  150MOL0     C19693   4.084   0.381   2.476 -0.6761 -0.3100 -0.0119
  150MOL0     C19694   4.010   0.345   2.361  0.0234  0.0078  0.8443
  150MOL0     C19695   3.927   0.233   2.370  0.8917 -0.0155  0.1661
  150MOL0     C19696   3.902   0.167   2.492 -1.1556 -1.0609 -0.4996
  150MOL0     C19697   3.797   0.068   2.509  0.0698  0.2362  0.1023
  150MOL0     O19698   3.770   0.024   2.636  0.7849  0.4190  0.5374
  150MOL0     C19699   3.661  -0.061   2.668  0.0299  0.2413 -0.6862
  150MOL0     C19700   3.539  -0.072   2.593  0.3751 -0.2062  0.1120
  150MOL0     C19701   3.418  -0.121   2.645  0.0581  0.3081  0.1980
  150MOL0     C19702   3.405  -0.170   2.780 -1.9872  0.0617 -0.0892
  150MOL0     O19703   3.293  -0.226   2.845  1.1101  0.0313 -0.4045
  150MOL0     C19704   3.173  -0.209   2.764 -0.5787  0.0613 -0.1102
  150MOL0     C19705   3.075  -0.298   2.832 -0.0973  0.7011 -0.5679
  150MOL0     C19706   2.928  -0.277   2.811  0.4898 -0.2626  0.1067
  150MOL0     C19707   2.838  -0.376   2.868  0.1107  0.1537 -0.6641
  150MOL0     C19708   2.734  -0.310   2.962  0.2263  0.2460  0.8702
  150MOL0     C19709   2.606  -0.393   2.968  0.4899 -0.4290 -0.1837
  150MOL0     C19710   2.486  -0.323   3.044  0.2307  0.0473 -1.0227
  150MOL0     C19711   2.369  -0.421   3.076 -0.3120 -0.5489 -0.0772
  150MOL0    Cl19712   2.219  -0.324   3.111 -0.1367 -0.7028  0.0127
  150MOL0     C19713   3.531  -0.163   2.856  0.8924  0.0465 -0.2488
  150MOL0     C19714   3.650  -0.113   2.798 -0.0034  0.9995 -0.2339
  150MOL0     O19715   3.746   0.024   2.406  0.1382 -0.4869 -0.4152
  150MOL0     C19716   3.973   0.210   2.606 -0.4475  0.0038 -0.0612
  150MOL0     C19717   4.060   0.322   2.602 -0.3652  0.5535  1.1559
  150MOL0     N19718   4.459   0.909   2.271  0.0482 -0.0679 -0.0136
  150MOL0     N19719   4.569   0.953   2.331  0.7494 -0.2679  0.0917
  150MOL0     C19720   4.348   1.734   2.664 -0.2750 -1.4831  0.2259
  150MOL0     C19721   4.214   1.790   2.696 -1.1242 -0.3554 -0.6260
  150MOL0     C19722   3.861   1.912   2.954 -0.4927  0.3713  0.5784
  150MOL0     C19723   3.799   1.966   3.068  0.9312  0.1512 -0.3316
  150MOL0     C19724   3.694   2.060   3.052 -0.1331  0.6424  0.1534
  150MOL0     C19725   3.635   2.081   2.926  0.2634 -0.8255  0.2400
  150MOL0     O19726   3.538   2.177   2.924  0.0863  0.2402  0.0479
  150MOL0     C19727   3.466   2.191   2.804  0.8514  0.3398  0.1987
  150MOL0     C19728   3.340   2.287   2.807 -0.8802 -0.6894 -0.0827
  150MOL0     C19729   3.392   2.429   2.808 -0.3955  0.1977 -0.5140
  150MOL0     C19730   3.320   2.520   2.702 -0.7764 -0.9271  0.0321
  150MOL0     C19731   3.176   2.511   2.716 -1.1791  0.7412  0.0808
  150MOL0     C19732   3.057   2.501   2.744 -1.2166 -0.0439  0.1494
  150MOL0     C19733   3.688   2.007   2.818 -0.2399 -0.6176  0.0070
  150MOL0     C19734   3.797   1.924   2.833 -0.9719  0.2781  1.1019
  150MOL0     H19735   4.191   1.685   3.010  2.0548 -0.6212 -0.1682
  150MOL0     H19736   4.425   1.607   2.964 -2.3115  2.1402  1.7398
  150MOL0     H19737   4.685   1.776   2.772 -1.9891 -1.5108  2.0420
  150MOL0     H19738   4.591   1.791   2.619 -2.9197  0.0584  3.2123
  150MOL0     H19739   4.796   1.719   2.527 -2.6542  1.2422 -1.5983
  150MOL0     H19740   4.686   1.582   2.541 -1.6012  0.9316  0.2966
  150MOL0     H19741   4.818   1.514   2.760  0.8539 -2.0483 -1.1071
  150MOL0     H19742   4.923   1.644   2.719 -1.2986  0.0849  2.0186
  150MOL0     H19743   5.020   1.518   2.532  1.3526 -0.0997 -1.2942
  150MOL0     H19744   4.981   1.398   2.655 -3.4357  0.3259  0.3705
  150MOL0     H19745   4.927   1.328   2.428 -4.0590 -1.8641 -3.6093
  150MOL0     H19746   4.794   1.453   2.437 -2.1228  0.3144  2.3954
  150MOL0     H19747   4.690   1.356   2.629  0.2560  2.0675 -0.8739
  150MOL0     H19748   4.814   1.236   2.632 -2.4154 -1.4282  0.6810
  150MOL0     H19749   4.603   1.272   2.447  2.2937  2.4119 -0.6261
  150MOL0     H19750   4.735   1.189   2.372 -3.2666  2.0028 -1.4587
  150MOL0     H19751   4.595   1.077   2.633 -1.3402 -1.6358 -0.6411
  150MOL0     H19752   4.722   1.011   2.550 -0.8985 -0.2586  1.9290
  150MOL0     H19753   4.351   1.087   2.536 -0.2254  0.3220 -0.1467
  150MOL0     H19754   4.171   0.964   2.249  0.6297  0.1723  0.2772
  150MOL0     H19755   4.148   0.970   2.421 -1.2759 -2.6963  1.2003
  150MOL0     H19756   4.209   0.720   2.281 -0.8177 -1.2721  0.2978
  150MOL0     H19757   4.079   0.766   2.390  0.1651 -2.2005 -0.0260
  150MOL0     H19758   4.357   0.662   2.470 -1.6363 -2.2707 -0.5376
  150MOL0     H19759   4.283   0.782   2.576 -1.1078 -1.6520  1.7095
  150MOL0     H19760   4.071   0.637   2.546  0.3005  0.1975 -1.1994
  150MOL0     H19761   4.202   0.576   2.659 -0.3929  1.7567  0.5041
  150MOL0     H19762   4.032   0.399   2.270  0.7059  0.2992  1.1728
  150MOL0     H19763   3.890   0.209   2.271  2.2488  1.2963 -0.6963
  150MOL0     H19764   3.532  -0.023   2.497 -2.0292  0.8323  0.7369
  150MOL0     H19765   3.338  -0.122   2.572  1.6081  0.5311 -1.5876
  150MOL0     H19766   3.189  -0.230   2.658 -0.2998  0.7599 -0.2115
  150MOL0     H19767   3.133  -0.108   2.777 -4.5813 -1.2217 -1.0075
  150MOL0     H19768   3.083  -0.290   2.941  2.0394  0.8830 -0.6879
  150MOL0     H19769   3.103  -0.401   2.807 -1.4021 -0.5106  2.4752
  150MOL0     H19770   2.913  -0.276   2.702 -2.0606 -1.4862  0.3804
  150MOL0     H19771   2.902  -0.175   2.842 -0.1196  0.0785 -1.4084
  150MOL0     H19772   2.765  -0.416   2.796 -3.7250 -0.9186  3.3749
  150MOL0     H19773   2.883  -0.459   2.924  1.8406  0.5310 -1.4282
  150MOL0     H19774   2.692  -0.220   2.917  0.5137 -0.2648 -0.4523
  150MOL0     H19775   2.773  -0.281   3.060  1.4661  4.1122 -0.5858
  150MOL0     H19776   2.629  -0.476   3.035 -2.2760  0.0108  1.4809
  150MOL0     H19777   2.583  -0.424   2.866  0.6740  0.8695 -0.6395
  150MOL0     H19778   2.539  -0.260   3.116  2.5350 -1.1787 -1.5572
  150MOL0     H19779   2.432  -0.260   2.973 -3.1860 -0.7086  0.6696
  150MOL0     H19780   2.392  -0.488   3.159 -0.3766  0.9223  1.1944
  150MOL0     H19781   2.350  -0.482   2.988  1.9641 -1.7407  0.1865
  150MOL0     H19782   3.515  -0.196   2.958  0.5228 -0.4780 -0.4678
  150MOL0     H19783   3.736  -0.101   2.863  0.2141  3.3384 -0.8861
  150MOL0     H19784   3.945   0.170   2.703  0.2483 -1.4368 -0.4276
  150MOL0     H19785   4.109   0.366   2.688  0.9287  1.6471 -0.0745
  150MOL0     H19786   4.394   1.745   2.566  1.9241  2.2323  1.4539
  150MOL0     H19787   4.157   1.853   2.629 -0.0171  3.6623  1.8545
  150MOL0     H19788   3.827   1.936   3.168 -1.7881 -2.6888 -0.2623
  150MOL0     H19789   3.646   2.113   3.133 -4.6478 -1.6793 -0.6788
  150MOL0     H19790   3.425   2.092   2.781 -1.3057  0.3865  3.1988
  150MOL0     H19791   3.528   2.226   2.721  2.9735 -3.5358 -0.0969
  150MOL0     H19792   3.263   2.259   2.735 -0.4475 -0.1204 -0.7752
  150MOL0     H19793   3.293   2.272   2.905 -0.3484  1.6906  0.6014
  150MOL0     H19794   3.499   2.430   2.788 -0.0950  0.4781  0.9568
  150MOL0     H19795   3.369   2.453   2.913 -0.4315 -1.6039 -0.0758
  150MOL0     H19796   3.345   2.626   2.713 -0.8659 -1.1396  3.4986
  150MOL0     H19797   3.358   2.481   2.607  0.6732  1.5841 -0.4971
  150MOL0     H19798   2.952   2.487   2.759 -1.3916  1.0200 -0.0197
  150MOL0     H19799   3.651   2.011   2.716  3.7019  1.8789 -1.5548
  150MOL0     H19800   3.836   1.867   2.750  1.2228  0.1429  2.1458
  151MOL0     O19801  10.853  10.445   8.420  1.0538 -0.4351  0.6006
  151MOL0     C19802  10.890  10.422   8.302 -0.0326 -1.0359  1.1427
  151MOL0     O19803  10.859  10.317   8.226  0.0178 -0.0451 -0.9830
  151MOL0     C19804  10.821  10.195   8.264 -0.0336 -0.0809 -0.3295
  151MOL0     C19805  10.804  10.144   8.401 -0.1033  0.1313  0.8097
  151MOL0     C19806  10.743  10.010   8.415 -0.4103  0.8734 -0.9386
  151MOL0     C19807  10.709   9.935   8.301  0.7583  0.4854  0.2555
  151MOL0     O19808  10.642   9.820   8.327  0.3911  0.4526  0.6199
  151MOL0     C19809  10.603   9.733   8.209  0.2668 -0.5178 -0.2407
  151MOL0     C19810  10.476   9.778   8.144  0.4028  0.0016  0.1544
  151MOL0     C19811  10.406   9.669   8.050 -0.6800  0.0899  0.3529
  151MOL0     C19812  10.467   9.678   7.917 -0.6941 -0.7016  0.2334
  151MOL0     C19813  10.404   9.578   7.835  0.2163  1.0757  0.6455
  151MOL0     C19814  10.446   9.421   7.865 -0.7211 -0.1725  0.1618
  151MOL0     C19815  10.359   9.324   7.789 -0.5095  0.0783  0.2055
  151MOL0     C19816  10.438   9.252   7.683 -0.1925  0.0036  0.1074
  151MOL0     N19817  10.339   9.172   7.608 -0.0520 -0.3428  0.2477
  151MOL0     C19818  10.352   9.119   7.478 -0.4640  0.6584  0.4077
  151MOL0     C19819  10.242   9.046   7.461 -0.3603  0.3543 -0.0805
  151MOL0     C19820  10.212   8.981   7.327  0.0779 -0.1105 -0.3038
  151MOL0     C19821  10.206   8.825   7.315  0.3005  0.2805 -1.2147
  151MOL0     C19822  10.099   8.760   7.411 -0.2853  0.1492  0.5162
  151MOL0     C19823   9.959   8.816   7.390 -0.0792 -0.0179  1.0857
  151MOL0     O19824   9.873   8.710   7.426  0.2879 -0.3527  0.3368
  151MOL0     C19825   9.746   8.746   7.470 -0.1748  0.8564  0.9740
  151MOL0     C19826   9.727   8.820   7.583 -0.4464 -0.1380 -0.9124
  151MOL0     C19827   9.601   8.866   7.621 -0.0490 -0.2185 -0.4157
  151MOL0     C19828   9.489   8.835   7.554  0.6256  0.0208 -0.7599
  151MOL0     C19829   9.357   8.862   7.606 -0.0187 -0.5621 -0.8577
  151MOL0     O19830   9.266   8.766   7.575  0.2772  0.5124  0.4113
  151MOL0     C19831   9.133   8.784   7.601  0.1425  0.2839  0.9810
  151MOL0     C19832   9.063   8.670   7.570 -0.1818 -0.1994  0.9639
  151MOL0     C19833   8.928   8.656   7.574 -0.6265 -0.0882 -0.1129
  151MOL0     C19834   8.851   8.758   7.637 -0.6515  0.3054  0.9460
  151MOL0     O19835   8.717   8.741   7.663 -0.5257 -0.1651  0.1716
  151MOL0     C19836   8.705   8.614   7.728  0.0214  0.3674 -0.4960
  151MOL0     C19837   8.600   8.622   7.850 -0.0391  0.9741  0.4855
  151MOL0     C19838   8.451   8.585   7.815 -0.0402 -0.0913 -0.6358
  151MOL0     C19839   8.368   8.579   7.942 -0.4292  0.0705 -0.0830
  151MOL0     C19840   8.304   8.708   7.984 -0.2748 -0.4403  0.4550
  151MOL0     C19841   8.189   8.748   7.890 -0.0998  0.0961  0.2748
  151MOL0     C19842   8.109   8.852   7.955 -0.8778 -1.0619 -0.4907
  151MOL0     C19843   7.977   8.875   7.876  0.1010  0.1485  1.0315
  151MOL0    Cl19844   8.022   8.950   7.712  0.3004  0.3277  0.5078
  151MOL0     C19845   8.915   8.879   7.666 -0.0312 -0.8767 -0.5841
  151MOL0     C19846   9.055   8.891   7.650 -0.7682 -0.1592 -0.0799
  151MOL0     O19847   9.337   8.970   7.669 -0.0364  0.1460  0.4586
  151MOL0     C19848   9.514   8.762   7.430  0.2901  0.3607  0.6895
  151MOL0     C19849   9.641   8.729   7.380  0.6231  0.1787  0.0979
  151MOL0     N19850  10.167   9.046   7.580 -0.4053 -0.6008  0.4167
  151MOL0     N19851  10.223   9.126   7.664  0.1576  0.8217  0.2575
  151MOL0     C19852  10.725   9.999   8.172  0.1789  0.1332  0.3163
  151MOL0     C19853  10.778  10.125   8.161  0.1291  0.2606 -0.0445
  151MOL0     C19854  10.942  10.540   8.223 -0.1419  0.1405 -0.6113
  151MOL0     C19855  10.944  10.531   8.084 -0.4683  0.7615  0.4904
  151MOL0     C19856  10.994  10.629   8.007  0.6712 -0.5552 -0.2721
  151MOL0     C19857  11.047  10.740   8.067 -0.4870  1.0240  0.3266
  151MOL0     O19858  11.086  10.833   7.973 -0.6232 -0.9786 -0.2497
  151MOL0     C19859  11.178  10.946   8.008  0.2278  0.8773  0.2531
  151MOL0     C19860  11.188  11.042   7.896 -0.0653  0.0638  0.0239
  151MOL0     C19861  11.292  11.005   7.794  0.1887 -0.5378 -0.4631
  151MOL0     C19862  11.272  11.073   7.664 -0.9528  0.5527 -0.3474
  151MOL0     C19863  11.299  11.218   7.673  0.2077  0.3574 -0.5336
  151MOL0     C19864  11.306  11.346   7.682 -0.0577  0.2250  0.1834
  151MOL0     C19865  11.042  10.756   8.203  0.2252  0.7102 -0.3866
  151MOL0     C19866  11.000  10.652   8.281 -0.4093  0.2247 -1.3572
  151MOL0     H19867  10.836  10.204   8.486  0.6004  2.6360 -1.1073
  151MOL0     H19868  10.719   9.965   8.510  0.5294 -0.6195 -1.3723
  151MOL0     H19869  10.593   9.629   8.241  1.3541 -0.5384  0.0889
  151MOL0     H19870  10.671   9.728   8.123 -0.0479  1.0937 -0.6147
  151MOL0     H19871  10.493   9.870   8.086 -1.2555  2.0062  2.6259
  151MOL0     H19872  10.413   9.801   8.231 -0.3357  0.9225 -0.5991
  151MOL0     H19873  10.299   9.695   8.052 -0.6317  0.2482  1.4667
  151MOL0     H19874  10.426   9.571   8.092  0.4171  1.1945  2.5757
  151MOL0     H19875  10.451   9.781   7.885  2.2597 -0.6081 -1.3129
  151MOL0     H19876  10.576   9.672   7.912 -0.7988 -2.3101 -2.7447
  151MOL0     H19877  10.443   9.599   7.735  0.4140  0.2263  0.5362
  151MOL0     H19878  10.295   9.589   7.842  0.0832  0.0947  0.2829
  151MOL0     H19879  10.449   9.388   7.970 -3.0733 -1.1720 -0.0349
  151MOL0     H19880  10.552   9.418   7.837  0.0808  0.0701  2.8256
  151MOL0     H19881  10.316   9.260   7.866 -2.0389  1.0709  0.2291
  151MOL0     H19882  10.270   9.375   7.750  0.2340  1.2783  0.0282
  151MOL0     H19883  10.505   9.183   7.733  0.0709 -0.3749 -0.7519
  151MOL0     H19884  10.491   9.328   7.624  0.4429  0.9295  1.8045
  151MOL0     H19885  10.412   9.154   7.395 -0.4521  3.1311  1.3588
  151MOL0     H19886  10.290   9.005   7.254  2.2280 -0.8538  1.6144
  151MOL0     H19887  10.118   9.026   7.293  0.6929  1.0499 -0.5474
  151MOL0     H19888  10.303   8.785   7.347 -0.5126 -2.0324 -1.4673
  151MOL0     H19889  10.194   8.790   7.212  1.6081 -0.8712 -0.9998
  151MOL0     H19890  10.111   8.653   7.393 -3.9625 -0.1439 -1.0187
  151MOL0     H19891  10.133   8.789   7.511  1.6553  0.8631 -0.2908
  151MOL0     H19892   9.950   8.841   7.284  0.2071 -1.0074  0.8163
  151MOL0     H19893   9.950   8.906   7.451 -2.0791  0.6768 -0.1637
  151MOL0     H19894   9.812   8.837   7.647 -0.4425 -4.6844  0.6769
  151MOL0     H19895   9.598   8.928   7.711  0.2001 -0.6103 -0.1321
  151MOL0     H19896   9.124   8.588   7.535 -1.6477 -0.8522 -0.1487
  151MOL0     H19897   8.889   8.558   7.548  3.6430 -2.2803  0.9070
  151MOL0     H19898   8.799   8.575   7.768  3.2118  4.2520 -3.4261
  151MOL0     H19899   8.665   8.541   7.657  0.7803 -0.3975 -0.1577
  151MOL0     H19900   8.598   8.725   7.889  4.2508  1.6484 -0.5746
  151MOL0     H19901   8.644   8.557   7.926  0.9311 -0.7329 -1.4620
  151MOL0     H19902   8.457   8.483   7.775  0.1169 -1.2794  2.2172
  151MOL0     H19903   8.408   8.657   7.745  1.9908  3.4066  1.4586
  151MOL0     H19904   8.284   8.511   7.929 -0.7822  0.0762  1.7938
  151MOL0     H19905   8.434   8.546   8.023 -1.1474 -0.2466  0.3813
  151MOL0     H19906   8.374   8.791   7.971  2.4435 -2.6525 -0.0171
  151MOL0     H19907   8.285   8.716   8.091 -2.1099  0.6092  0.0821
  151MOL0     H19908   8.135   8.655   7.870  0.5172 -0.1444 -0.2731
  151MOL0     H19909   8.229   8.785   7.795  0.4914 -1.5274 -0.1292
  151MOL0     H19910   8.073   8.815   8.052 -0.5157  0.7109  0.3437
  151MOL0     H19911   8.162   8.947   7.957 -1.7657 -0.5567  1.3647
  151MOL0     H19912   7.908   8.945   7.924 -2.5332 -1.2342 -0.5431
  151MOL0     H19913   7.925   8.780   7.861 -1.8305  1.0223  1.8781
  151MOL0     H19914   8.846   8.957   7.694  0.4418 -1.2760  1.9940
  151MOL0     H19915   9.095   8.990   7.668  0.8373 -0.4143 -1.9506
  151MOL0     H19916   9.426   8.714   7.390  1.2711 -4.6036  3.7122
  151MOL0     H19917   9.661   8.659   7.299  3.9009  0.3310  0.6749
  151MOL0     H19918  10.696   9.948   8.081  2.7062  0.7802 -0.9385
  151MOL0     H19919  10.782  10.161   8.059 -2.3720 -0.1010 -0.3232
  151MOL0     H19920  10.914  10.445   8.025  3.7369  0.8675 -2.1477
  151MOL0     H19921  10.976  10.624   7.900 -0.2368  0.5537 -0.1856
  151MOL0     H19922  11.277  10.914   8.042 -0.3182  1.2118  2.2610
  151MOL0     H19923  11.131  10.999   8.091 -0.0800 -1.0286  1.3657
  151MOL0     H19924  11.087  11.055   7.854  0.2599  0.1014 -0.7581
  151MOL0     H19925  11.210  11.137   7.944 -1.4040  0.4629 -0.1152
  151MOL0     H19926  11.293  10.897   7.774  1.3285 -0.3790 -1.3396
  151MOL0     H19927  11.397  11.028   7.815 -0.2580  0.7995  0.3724
  151MOL0     H19928  11.334  11.020   7.592 -0.9844 -1.8636  1.2526
  151MOL0     H19929  11.167  11.047   7.647 -0.4593 -3.3718  1.3584
  151MOL0     H19930  11.327  11.450   7.696 -3.8457  0.8537  2.5636
  151MOL0     H19931  11.065  10.850   8.253 -1.4818 -0.2213  2.3616
  151MOL0     H19932  11.017  10.665   8.387 -1.6261  2.5033 -1.3896
  152MOL0     O19933   4.846   9.127   2.064 -0.0399  0.2440  0.2590
  152MOL0     C19934   4.958   9.115   2.112  0.4689  0.2019 -0.1057
  152MOL0     O19935   5.048   9.222   2.112 -0.3822 -0.3484 -0.0836
  152MOL0     C19936   5.003   9.349   2.087  0.0033 -0.7072 -0.1055
  152MOL0     C19937   4.884   9.423   2.110  0.0313 -0.2677 -0.6117
  152MOL0     C19938   4.871   9.564   2.086 -0.1700 -0.4161  0.6652
  152MOL0     C19939   4.987   9.632   2.037  0.7526  0.6987  1.2820
  152MOL0     O19940   4.978   9.768   2.008 -0.6094  0.0416  0.0026
  152MOL0     C19941   4.924   9.848   2.111  0.3505  0.2750  0.0711
  152MOL0     C19942   4.972   9.996   2.076 -0.6014  0.2276  0.2121
  152MOL0     C19943   4.891  10.072   1.966 -0.3428  0.5039  0.1723
  152MOL0     C19944   4.743  10.111   1.990 -0.4590  0.8299 -0.0337
  152MOL0     C19945   4.707  10.235   1.911  0.6869 -1.0324 -0.0931
  152MOL0     C19946   4.557  10.260   1.941 -0.5640 -0.5859 -0.3490
  152MOL0     C19947   4.518  10.327   2.077  0.7467  0.4712  0.5669
  152MOL0     C19948   4.384  10.280   2.138 -0.2937  0.6485 -1.2651
  152MOL0     N19949   4.274  10.319   2.052  0.0514  0.4613 -0.6238
  152MOL0     C19950   4.266  10.422   1.965 -0.1251  0.5605 -0.7004
  152MOL0     C19951   4.157  10.387   1.890  0.4886 -0.2996  0.1737
  152MOL0     C19952   4.115  10.475   1.773  1.4228 -0.0439  0.0324
  152MOL0     C19953   4.039  10.395   1.670 -0.0354 -1.2437 -0.4837
  152MOL0     C19954   4.083  10.450   1.534 -0.1669  0.6731  0.3921
  152MOL0     C19955   3.997  10.399   1.417 -0.2364 -0.2307  0.7297
  152MOL0     O19956   4.041  10.268   1.385  0.2414  0.1910 -0.4828
  152MOL0     C19957   4.002  10.223   1.267  0.1247  1.1311  0.3975
  152MOL0     C19958   4.080  10.121   1.227  0.1522 -0.6111  0.1481
  152MOL0     C19959   4.032  10.039   1.121 -0.3280  0.0153 -0.8190
  152MOL0     C19960   3.914  10.061   1.060 -0.2760 -0.2804 -0.5989
  152MOL0     C19961   3.869   9.980   0.938  0.5816  0.2899 -0.3435
  152MOL0     O19962   3.796  10.043   0.841 -0.2851 -0.6897  0.6306
  152MOL0     C19963   3.783   9.968   0.725 -0.0172  0.3624 -0.6007
  152MOL0     C19964   3.879   9.986   0.626  0.1938  0.0185  0.4521
  152MOL0     C19965   3.881   9.906   0.510  0.9320 -0.0759  0.5704
  152MOL0     C19966   3.762   9.812   0.492  0.9906 -0.9328  1.2446
  152MOL0     O19967   3.731   9.736   0.380 -0.8747  0.0040  0.3284
  152MOL0     C19968   3.828   9.723   0.277 -0.2038  0.3906 -0.2154
  152MOL0     C19969   3.756   9.696   0.144  0.5666 -0.3254  0.5945
  152MOL0     C19970   3.860   9.714   0.028  0.3085 -0.5130  1.8920
  152MOL0     C19971   3.970   9.608   0.025  0.8522  0.6415  0.2799
  152MOL0     C19972   4.042   9.591  -0.109  0.1202 -0.0401  0.1197
  152MOL0     C19973   4.117   9.460  -0.115 -0.8867  0.1724 -0.6380
  152MOL0     C19974   4.251   9.469  -0.186 -0.6909  0.2552 -0.6014
  152MOL0     C19975   4.353   9.536  -0.094 -0.0008 -0.5972 -0.5186
  152MOL0    Cl19976   4.413   9.429   0.037  0.1397 -0.0559  0.2952
  152MOL0     C19977   3.656   9.810   0.584 -0.3441 -0.6251 -1.4149
  152MOL0     C19978   3.672   9.871   0.709 -0.4210 -0.6150  0.1972
  152MOL0     O19979   3.917   9.861   0.932  1.0415 -0.4848 -1.5974
  152MOL0     C19980   3.836  10.173   1.093 -0.8596  0.3319 -0.5907
  152MOL0     C19981   3.885  10.257   1.195 -0.4692 -0.4106 -0.3038
  152MOL0     N19982   4.083  10.285   1.947  0.5366 -0.7887 -0.3702
  152MOL0     N19983   4.148  10.251   2.044  0.7988 -0.4861 -0.2166
  152MOL0     C19984   5.107   9.567   2.019  0.2506  0.2056 -0.1363
  152MOL0     C19985   5.114   9.426   2.045 -0.4445  0.0497  0.1368
  152MOL0     C19986   4.999   8.983   2.165 -0.5843  0.0650  0.1087
  152MOL0     C19987   5.130   8.934   2.164 -0.2986 -1.2885 -1.0722
  152MOL0     C19988   5.158   8.809   2.220  1.3166  1.0164 -0.1841
  152MOL0     C19989   5.064   8.716   2.271  0.4287 -0.1411 -0.2355
  152MOL0     O19990   5.098   8.586   2.305 -0.4695  0.1846 -0.4313
  152MOL0     C19991   5.006   8.481   2.333  0.9559  0.3679 -0.3712
  152MOL0     C19992   4.911   8.445   2.217  0.6577  0.2091  0.3950
  152MOL0     C19993   4.824   8.314   2.250 -0.6524  0.4090 -0.0499
  152MOL0     C19994   4.884   8.188   2.189  0.1574 -0.3293 -0.8007
  152MOL0     C19995   4.786   8.110   2.124  0.6536  0.1845  0.7711
  152MOL0     C19996   4.702   8.040   2.073  0.3518 -0.4184 -0.0192
  152MOL0     C19997   4.930   8.764   2.268 -0.3475 -0.0234  0.1546
  152MOL0     C19998   4.904   8.892   2.224  1.1308  0.1693  0.9838
  152MOL0     H19999   4.792   9.383   2.150 -0.8895  0.9065 -1.4966
  152MOL0     H20000   4.784   9.623   2.111  2.3830  2.7460  2.9565
  152MOL0     H20001   4.951   9.816   2.212  0.1624 -2.2668 -0.6080
  152MOL0     H20002   4.815   9.856   2.109  0.4345  1.5186 -0.9822
  152MOL0     H20003   5.070   9.986   2.029 -2.3538 -3.3629 -3.2789
  152MOL0     H20004   4.971  10.067   2.159 -3.9659 -0.0562  0.5728
  152MOL0     H20005   4.893  10.019   1.870  2.6256  2.5142 -0.9980
  152MOL0     H20006   4.941  10.168   1.953 -0.3706  0.2757 -1.9833
  152MOL0     H20007   4.690  10.017   1.970 -0.3987  0.5336  1.1424
  152MOL0     H20008   4.725  10.138   2.094  1.3800 -0.5828  0.7068
  152MOL0     H20009   4.719  10.231   1.803 -2.3733  2.3244 -0.7764
  152MOL0     H20010   4.760  10.322   1.952 -0.1582 -1.3198  1.7109
  152MOL0     H20011   4.492  10.173   1.933  0.6657 -1.5336 -0.3206
  152MOL0     H20012   4.529  10.330   1.861  0.2938 -2.5158 -2.4670
  152MOL0     H20013   4.602  10.307   2.144 -1.9740 -0.1842  4.0651
  152MOL0     H20014   4.510  10.435   2.061 -1.5003  0.4479  1.2023
  152MOL0     H20015   4.388  10.325   2.238  2.6031 -0.1211 -0.9423
  152MOL0     H20016   4.383  10.174   2.165 -1.7954  0.9388 -0.0091
  152MOL0     H20017   4.338  10.501   1.948  1.1158  0.6594  3.6381
  152MOL0     H20018   4.200  10.535   1.740  1.9006  0.3236  1.8124
  152MOL0     H20019   4.039  10.542   1.814  2.6432 -0.0263  2.4260
  152MOL0     H20020   3.931  10.398   1.685  0.0746  1.1873  0.2078
  152MOL0     H20021   4.078  10.292   1.670  0.4138 -1.0784  0.0043
  152MOL0     H20022   4.058  10.554   1.556 -2.2630 -0.1180  2.1143
  152MOL0     H20023   4.191  10.434   1.524  0.4272 -0.0001  5.2864
  152MOL0     H20024   4.014  10.474   1.339 -0.5121 -1.8912 -1.0122
  152MOL0     H20025   3.889  10.404   1.433 -1.0732  1.9517 -3.8181
  152MOL0     H20026   4.177  10.095   1.270  0.9479  0.3750 -0.9885
  152MOL0     H20027   4.090   9.950   1.100  0.7688  0.0324  1.7145
  152MOL0     H20028   3.953  10.065   0.636  1.5011 -0.9703 -0.9043
  152MOL0     H20029   3.958   9.932   0.439  1.5718 -0.2906  1.1714
  152MOL0     H20030   3.888   9.634   0.301 -0.6057  0.4627  1.1255
  152MOL0     H20031   3.885   9.817   0.268  1.7922 -0.6587  0.7214
  152MOL0     H20032   3.671   9.761   0.120 -0.2620 -2.5610 -3.4007
  152MOL0     H20033   3.718   9.593   0.141 -1.9765  0.5160 -2.8051
  152MOL0     H20034   3.909   9.811   0.033 -0.2432 -0.1231  0.3558
  152MOL0     H20035   3.802   9.717  -0.065 -1.6486  2.6469  3.0447
  152MOL0     H20036   4.048   9.629   0.099  1.2566 -0.1944  0.0996
  152MOL0     H20037   3.927   9.512   0.056 -0.6306  0.3386 -2.4247
  152MOL0     H20038   4.116   9.672  -0.111 -1.1662  1.1601 -0.5364
  152MOL0     H20039   3.971   9.597  -0.191  0.1619 -0.1090  0.0784
  152MOL0     H20040   4.049   9.396  -0.172 -0.9311  1.0113 -1.5503
  152MOL0     H20041   4.126   9.411  -0.018 -1.9553 -0.2971 -0.7518
  152MOL0     H20042   4.280   9.366  -0.212 -2.9650 -1.0546  1.6129
  152MOL0     H20043   4.228   9.523  -0.278 -1.2861  2.8799  0.9928
  152MOL0     H20044   4.309   9.626  -0.048 -1.4638 -0.7982 -1.4452
  152MOL0     H20045   4.440   9.564  -0.153  1.8234 -2.7579  1.0031
  152MOL0     H20046   3.573   9.741   0.579 -2.2969  1.1107  2.4502
  152MOL0     H20047   3.599   9.847   0.786 -1.5350  0.6171 -0.4309
  152MOL0     H20048   3.739  10.187   1.045 -1.7904  1.4054  1.4837
  152MOL0     H20049   3.815  10.332   1.232 -1.5156 -2.1812  1.4948
  152MOL0     H20050   5.195   9.621   1.984  2.3858 -1.4358  2.2908
  152MOL0     H20051   5.212   9.386   2.020 -0.8938  0.1241 -1.9145
  152MOL0     H20052   5.205   9.005   2.131  1.2901 -2.1446  0.5180
  152MOL0     H20053   5.258   8.770   2.206  1.2185  1.0388 -1.0080
  152MOL0     H20054   4.935   8.495   2.415 -2.6107 -0.9865 -2.9378
  152MOL0     H20055   5.063   8.392   2.363 -0.1480  0.2559  1.5261
  152MOL0     H20056   4.847   8.523   2.175  1.5718  0.3812 -0.7258
  152MOL0     H20057   4.982   8.431   2.135 -0.6203 -0.2833 -0.6644
  152MOL0     H20058   4.721   8.324   2.214 -0.4617 -0.1806 -0.7905
  152MOL0     H20059   4.819   8.302   2.359  1.9401  3.1077  0.4990
  152MOL0     H20060   4.954   8.218   2.111 -0.6852 -2.2973 -2.3779
  152MOL0     H20061   4.940   8.146   2.273 -1.4307 -0.6828  0.1398
  152MOL0     H20062   4.613   7.981   2.064 -0.8160  1.3744 -0.7303
  152MOL0     H20063   4.861   8.688   2.303  2.5386 -2.6636  0.5094
  152MOL0     H20064   4.800   8.923   2.231  0.4239 -1.3581 -1.4135
  153MOL0     O20065   1.038   4.353   6.595 -0.4532  0.4924 -0.0464
  153MOL0     C20066   0.971   4.255   6.627 -0.1015 -0.6660 -0.3607
  153MOL0     O20067   0.927   4.237   6.758 -0.1813  0.0053  0.1449
  153MOL0     C20068   0.955   4.327   6.859 -0.2675  0.8652  0.4758
  153MOL0     C20069   0.957   4.469   6.846 -0.1069  0.4451 -0.3961
  153MOL0     C20070   0.963   4.549   6.956 -1.2296 -0.2071 -0.3626
  153MOL0     C20071   1.023   4.488   7.066 -0.7479  0.7725 -0.2712
  153MOL0     O20072   1.027   4.567   7.171 -0.8970 -0.3897  0.2587
  153MOL0     C20073   0.988   4.520   7.305  0.0779  0.5906 -0.5594
  153MOL0     C20074   0.863   4.595   7.340 -0.3460  0.2250 -0.0869
  153MOL0     C20075   0.849   4.631   7.494 -0.2731 -0.2220  0.1950
  153MOL0     C20076   0.847   4.503   7.578  0.5517 -0.5019 -0.0083
  153MOL0     C20077   0.803   4.539   7.721 -1.0133 -0.8036 -0.0818
  153MOL0     C20078   0.650   4.538   7.731 -0.6926 -0.3037  0.4068
  153MOL0     C20079   0.583   4.569   7.864  0.2179  0.2586  0.5047
  153MOL0     C20080   0.635   4.696   7.934 -0.5148 -0.4433 -0.4717
  153MOL0     N20081   0.550   4.747   8.048 -1.1443 -0.3438  0.0916
  153MOL0     C20082   0.486   4.862   8.055 -0.0650  0.7000  0.0386
  153MOL0     C20083   0.464   4.875   8.179 -0.3531 -0.4278  0.1752
  153MOL0     C20084   0.392   4.990   8.250 -0.8958 -0.0226 -0.2704
  153MOL0     C20085   0.293   4.924   8.347  0.0335 -0.1520 -0.3267
  153MOL0     C20086   0.222   5.019   8.433  1.1786 -0.0134  0.2053
  153MOL0     C20087   0.163   4.940   8.551  0.6548  0.3008  0.2442
  153MOL0     O20088   0.046   4.869   8.495  0.2308 -0.0447 -1.4185
  153MOL0     C20089  -0.081   4.899   8.535  0.2775  0.1638 -0.6620
  153MOL0     C20090  -0.181   4.846   8.457  0.0009 -0.0546 -0.4876
  153MOL0     C20091  -0.318   4.870   8.486  0.5733  0.9092  0.1931
  153MOL0     C20092  -0.359   4.957   8.590 -0.8625  0.7655 -0.4182
  153MOL0     C20093  -0.499   4.965   8.625 -0.2430  0.5304 -0.3725
  153MOL0     O20094  -0.521   5.071   8.715  0.2007  0.5817  0.3502
  153MOL0     C20095  -0.640   5.107   8.771 -0.2485  0.5351 -0.5557
  153MOL0     C20096  -0.767   5.067   8.732  0.3719 -0.4732 -0.2317
  153MOL0     C20097  -0.884   5.111   8.797  0.0474  0.0057 -0.2749
  153MOL0     C20098  -0.871   5.169   8.921 -0.1149 -0.4439  0.3811
  153MOL0     O20099  -0.984   5.201   8.986  0.4283 -0.5830 -0.0582
  153MOL0     C20100  -1.058   5.306   8.940  0.6145 -0.6176 -0.4019
  153MOL0     C20101  -1.175   5.347   9.037 -0.8399 -1.2354 -0.5743
  153MOL0     C20102  -1.282   5.239   9.032  0.0793 -0.5743 -0.1072
  153MOL0     C20103  -1.409   5.269   9.116 -1.1910 -0.2961 -0.2346
  153MOL0     C20104  -1.513   5.354   9.049 -0.4407  0.0097  0.4996
  153MOL0     C20105  -1.630   5.393   9.138  0.3171  0.0003  0.4384
  153MOL0     C20106  -1.737   5.286   9.132  0.3295 -0.2574  0.0499
  153MOL0     C20107  -1.853   5.314   9.235  0.0747 -0.3932  1.0665
  153MOL0    Cl20108  -2.012   5.270   9.156  0.3024  0.0364 -0.2558
  153MOL0     C20109  -0.745   5.205   8.974  0.2132 -0.2155  1.1195
  153MOL0     C20110  -0.634   5.185   8.891 -1.0035  0.2159 -0.3712
  153MOL0     O20111  -0.589   4.902   8.559  0.2529  0.4697 -0.5774
  153MOL0     C20112  -0.258   5.026   8.664  0.2292  0.2134  0.1187
  153MOL0     C20113  -0.131   4.994   8.635 -0.1338  0.7279  0.1405
  153MOL0     N20114   0.521   4.772   8.251 -0.6183  0.9758 -0.1081
  153MOL0     N20115   0.572   4.695   8.171 -0.1630  0.5637  0.0793
  153MOL0     C20116   1.041   4.340   7.081  1.0047 -0.5367 -0.0225
  153MOL0     C20117   0.999   4.265   6.977  1.2690  1.2045  0.0391
  153MOL0     C20118   0.949   4.146   6.530 -0.1598 -0.0026  0.4814
  153MOL0     C20119   0.838   4.058   6.558 -0.4948 -0.4933  0.1294
  153MOL0     C20120   0.801   3.953   6.477  0.0506 -0.0126 -0.4669
  153MOL0     C20121   0.883   3.930   6.361  0.3055  0.4443  0.4649
  153MOL0     O20122   0.858   3.811   6.291  0.0623 -0.4496 -0.4349
  153MOL0     C20123   0.868   3.833   6.149  0.3963  0.4616  0.7979
  153MOL0     C20124   0.804   3.729   6.070  0.1012  0.0104 -0.1737
  153MOL0     C20125   0.820   3.753   5.921 -0.4148 -0.1373  0.6674
  153MOL0     C20126   0.719   3.855   5.868  0.1299 -0.8720 -0.0427
  153MOL0     C20127   0.725   3.882   5.719  0.1460 -0.9394  0.1256
  153MOL0     C20128   0.725   3.892   5.599  0.2642  1.0047 -0.2257
  153MOL0     C20129   1.004   4.010   6.342  0.2220 -0.1278 -0.1066
  153MOL0     C20130   1.036   4.118   6.426 -0.6232  0.5161  0.0892
  153MOL0     H20131   0.912   4.506   6.755 -4.1717 -3.8744 -0.5579
  153MOL0     H20132   0.940   4.655   6.958 -0.9604 -0.1564  0.9872
  153MOL0     H20133   1.068   4.550   7.374 -1.1824 -1.3752  1.9141
  153MOL0     H20134   0.968   4.415   7.330  0.6902  1.2377  3.1765
  153MOL0     H20135   0.783   4.535   7.297 -0.5546  1.1693 -1.0431
  153MOL0     H20136   0.862   4.694   7.293 -0.5417  2.2963  3.8203
  153MOL0     H20137   0.754   4.684   7.504 -1.2250 -2.1004  1.5324
  153MOL0     H20138   0.926   4.701   7.527 -1.3575  2.6859 -2.8319
  153MOL0     H20139   0.795   4.422   7.526 -3.2058  0.0939  2.4086
  153MOL0     H20140   0.945   4.455   7.579 -0.5399 -3.0079  2.8813
  153MOL0     H20141   0.852   4.634   7.747 -0.7310  0.0069 -3.1568
  153MOL0     H20142   0.851   4.464   7.785  2.9312 -0.0651 -1.8443
  153MOL0     H20143   0.612   4.441   7.696 -1.1176 -0.6436  1.7434
  153MOL0     H20144   0.608   4.617   7.668 -0.1128  0.3859  0.8667
  153MOL0     H20145   0.476   4.586   7.849 -0.0460 -2.8020 -1.9384
  153MOL0     H20146   0.594   4.486   7.935 -1.0101  0.1801  0.6161
  153MOL0     H20147   0.649   4.775   7.859  0.3648 -1.2253 -1.1542
  153MOL0     H20148   0.734   4.682   7.979 -0.8472  2.2203  1.3017
  153MOL0     H20149   0.473   4.923   7.966 -0.7282 -1.0107 -1.0694
  153MOL0     H20150   0.337   5.044   8.172 -0.3416  2.1546  0.7672
  153MOL0     H20151   0.466   5.052   8.302 -0.7362  0.4230 -1.0176
  153MOL0     H20152   0.358   4.863   8.410 -0.5590 -0.2763  0.1713
  153MOL0     H20153   0.226   4.858   8.289 -0.2348  1.3113 -1.7438
  153MOL0     H20154   0.290   5.096   8.471  0.9914 -0.3269  1.2189
  153MOL0     H20155   0.144   5.069   8.376  2.5344  0.4335 -1.3121
  153MOL0     H20156   0.140   5.013   8.630  2.1567  3.3606 -1.9454
  153MOL0     H20157   0.239   4.868   8.584  0.2943  0.3936  1.3439
  153MOL0     H20158  -0.143   4.773   8.386  2.1724  3.4422 -3.2626
  153MOL0     H20159  -0.390   4.814   8.427 -0.8434  1.1245  1.6453
  153MOL0     H20160  -0.782   5.020   8.635 -0.3282  1.3805 -1.0827
  153MOL0     H20161  -0.982   5.098   8.752 -0.2837  1.7884 -0.1453
  153MOL0     H20162  -1.100   5.260   8.850  1.0233 -2.0947  0.1488
  153MOL0     H20163  -1.010   5.399   8.908 -2.1772  0.4115 -1.9376
  153MOL0     H20164  -1.216   5.444   9.008 -1.2363  0.8812  5.5918
  153MOL0     H20165  -1.136   5.364   9.138 -0.6794  0.6837 -0.9328
  153MOL0     H20166  -1.226   5.156   9.076 -1.3255  0.3628  3.8873
  153MOL0     H20167  -1.322   5.212   8.934  0.1020 -0.6516 -0.0950
  153MOL0     H20168  -1.465   5.179   9.143 -1.9022  0.5846  1.4242
  153MOL0     H20169  -1.368   5.327   9.200  1.1055 -2.3136  0.1361
  153MOL0     H20170  -1.555   5.306   8.960  1.3291  0.0723 -0.4077
  153MOL0     H20171  -1.460   5.443   9.015 -0.0498  0.0812  1.2823
  153MOL0     H20172  -1.665   5.488   9.097  0.7906  0.6976  1.6007
  153MOL0     H20173  -1.605   5.426   9.240  1.7566  2.3931 -0.5841
  153MOL0     H20174  -1.780   5.272   9.033 -0.3519  0.0693  0.2944
  153MOL0     H20175  -1.691   5.191   9.160  3.6926  1.4073  0.6833
  153MOL0     H20176  -1.851   5.422   9.252 -1.1283 -0.3757  1.2125
  153MOL0     H20177  -1.850   5.259   9.329 -3.1574 -2.5518  0.0561
  153MOL0     H20178  -0.752   5.244   9.074 -0.3423 -0.8897  1.3524
  153MOL0     H20179  -0.535   5.219   8.920 -0.2575 -1.2929 -1.0559
  153MOL0     H20180  -0.285   5.079   8.755  1.3976  0.0916  0.5539
  153MOL0     H20181  -0.059   5.044   8.698  0.7922  0.8325 -0.9746
  153MOL0     H20182   1.091   4.302   7.169  3.4876  0.1338 -1.0674
  153MOL0     H20183   1.008   4.157   6.987 -0.2147  0.7923 -2.2951
  153MOL0     H20184   0.771   4.079   6.640 -0.5860  2.6151 -0.6158
  153MOL0     H20185   0.714   3.888   6.480  0.8187 -1.0316  0.2595
  153MOL0     H20186   0.973   3.848   6.121  0.3237  0.7024  0.6466
  153MOL0     H20187   0.819   3.929   6.129  0.8774  0.9381  1.8567
  153MOL0     H20188   0.860   3.635   6.078 -2.1660 -1.3680  0.3130
  153MOL0     H20189   0.701   3.709   6.099 -0.3980  1.0992 -1.1189
  153MOL0     H20190   0.801   3.666   5.856 -2.7734  0.6432  0.2071
  153MOL0     H20191   0.923   3.788   5.910 -0.1727 -0.9119  0.4161
  153MOL0     H20192   0.613   3.829   5.880  0.0311 -0.0278  1.1009
  153MOL0     H20193   0.723   3.949   5.924 -1.6169 -2.0551  2.2457
  153MOL0     H20194   0.714   3.901   5.493 -1.3883  3.2140  0.0377
  153MOL0     H20195   1.083   3.979   6.274  3.4664  1.1267  2.7893
  153MOL0     H20196   1.131   4.171   6.423  1.4889 -2.5983  3.4840
  154MOL0     O20197   8.918   0.413   7.885  0.1259  0.2829 -0.3119
  154MOL0     C20198   8.849   0.409   7.984  0.6607 -1.0491 -0.5278
  154MOL0     O20199   8.834   0.513   8.078 -0.4625  0.2251  0.4010
  154MOL0     C20200   8.908   0.632   8.063 -0.1647 -0.1269  0.4727
  154MOL0     C20201   8.946   0.694   7.937 -0.4698 -0.6892  0.6399
  154MOL0     C20202   9.023   0.808   7.939 -1.2542  0.0012  0.4152
  154MOL0     C20203   9.080   0.854   8.059 -0.9477 -1.3313  0.2343
  154MOL0     O20204   9.162   0.971   8.049  0.2738  0.2602  0.8542
  154MOL0     C20205   9.236   1.007   8.164 -0.0761 -0.0935 -0.4342
  154MOL0     C20206   9.316   1.132   8.123  0.4675 -0.4711  0.5200
  154MOL0     C20207   9.462   1.101   8.098  0.2785  0.3717 -0.5647
  154MOL0     C20208   9.543   1.228   8.088 -1.0380  0.4371  0.3537
  154MOL0     C20209   9.696   1.204   8.042  0.5695  0.3068 -0.6382
  154MOL0     C20210   9.761   1.082   8.102  0.2556  1.3877 -0.0038
  154MOL0     C20211   9.914   1.090   8.089 -0.2037  0.2245 -0.3459
  154MOL0     C20212   9.983   0.971   8.158  0.6041 -0.1065  0.3427
  154MOL0     N20213   9.965   0.964   8.307 -0.5934  0.1952  0.4690
  154MOL0     C20214   9.888   0.874   8.374  0.5286  0.1405 -0.1993
  154MOL0     C20215   9.928   0.885   8.499  0.3487 -0.1465 -0.2381
  154MOL0     C20216   9.882   0.800   8.604 -0.5035  0.5750 -0.6397
  154MOL0     C20217   9.982   0.686   8.625 -0.1789 -0.0480  0.1101
  154MOL0     C20218   9.995   0.624   8.769  0.5550 -0.5531  0.3159
  154MOL0     C20219  10.127   0.541   8.776  0.9289  0.4182 -0.1150
  154MOL0     O20220  10.188   0.531   8.907  0.8314  0.0958 -0.4464
  154MOL0     C20221  10.265   0.426   8.945 -0.9918  0.7534  0.5058
  154MOL0     C20222  10.303   0.399   9.074 -0.3730  0.3542  0.2212
  154MOL0     C20223  10.385   0.288   9.108 -0.9066 -0.1976  0.0377
  154MOL0     C20224  10.442   0.203   9.007  0.6615  0.3323  0.5442
  154MOL0     C20225  10.533   0.084   9.045 -0.3313 -0.9646 -0.5622
  154MOL0     O20226  10.537   0.045   9.181 -0.7632 -0.5443 -0.3487
  154MOL0     C20227  10.631  -0.051   9.233 -0.0456 -0.5903 -0.7761
  154MOL0     C20228  10.755  -0.085   9.188  0.5183  0.3217  0.3641
  154MOL0     C20229  10.834  -0.185   9.248  0.2718 -0.2703 -0.8631
  154MOL0     C20230  10.784  -0.247   9.373 -0.0752 -0.5046 -1.0810
  154MOL0     O20231  10.861  -0.321   9.466 -0.4936 -0.8015  0.0960
  154MOL0     C20232  11.005  -0.316   9.461  0.3331 -0.2541 -0.4103
  154MOL0     C20233  11.077  -0.371   9.582  0.0917 -0.0356 -0.8784
  154MOL0     C20234  11.041  -0.284   9.715  0.3153 -0.1033  0.0805
  154MOL0     C20235  11.103  -0.350   9.836 -0.2361  0.0480  0.6133
  154MOL0     C20236  11.069  -0.293   9.975  0.2664  0.0679 -0.5469
  154MOL0     C20237  10.921  -0.276   9.997 -0.7714  0.1283 -0.3107
  154MOL0     C20238  10.881  -0.232  10.137 -0.4411 -0.5623 -0.9400
  154MOL0     C20239  10.945  -0.093  10.168  0.1995 -0.0223 -0.4644
  154MOL0    Cl20240  10.877  -0.016  10.319 -0.3866 -0.0609  0.0457
  154MOL0     C20241  10.656  -0.214   9.417  0.2844 -0.4670 -0.0587
  154MOL0     C20242  10.582  -0.117   9.350 -0.4370 -0.3105 -0.9080
  154MOL0     O20243  10.588   0.030   8.955  0.3254 -0.5212  0.0137
  154MOL0     C20244  10.395   0.223   8.880  0.1245  0.5532  0.1120
  154MOL0     C20245  10.310   0.334   8.846  0.1059  0.1020 -0.6022
  154MOL0     N20246  10.022   0.979   8.508  0.3665  0.4557  0.3241
  154MOL0     N20247  10.038   1.030   8.394  0.6726  0.0989 -0.2895
  154MOL0     C20248   9.044   0.798   8.179  0.2899 -0.0214 -0.7288
  154MOL0     C20249   8.956   0.692   8.181 -0.1708 -1.1080  0.0800
  154MOL0     C20250   8.775   0.287   8.006  1.2429  0.2027 -0.0517
  154MOL0     C20251   8.824   0.162   7.952 -1.0340 -0.5473  0.3811
  154MOL0     C20252   8.760   0.037   7.970  0.4672  0.6789 -0.1616
  154MOL0     C20253   8.629   0.042   8.021  0.0551 -0.1363 -0.0885
  154MOL0     O20254   8.552  -0.071   8.015  0.2769  0.8456  0.4165
  154MOL0     C20255   8.420  -0.080   8.066  0.0804 -0.2331 -0.6575
  154MOL0     C20256   8.423  -0.096   8.217  0.1467  0.2084 -0.6386
  154MOL0     C20257   8.486  -0.236   8.257  0.0117 -0.5043 -0.4211
  154MOL0     C20258   8.631  -0.231   8.304  0.8595 -0.0271 -0.8738
  154MOL0     C20259   8.638  -0.160   8.432 -0.4609  1.2707  0.8684
  154MOL0     C20260   8.639  -0.119   8.546  0.8151  1.1021 -0.7593
  154MOL0     C20261   8.581   0.163   8.079  0.9548  0.0956  0.7660
  154MOL0     C20262   8.655   0.274   8.071 -0.3540 -0.2576 -0.0644
  154MOL0     H20263   8.917   0.651   7.842  0.0199  2.2681 -0.9747
  154MOL0     H20264   9.040   0.829   7.834 -0.5230 -2.5607 -0.0416
  154MOL0     H20265   9.300   0.926   8.198  1.1629  1.2174  0.4811
  154MOL0     H20266   9.173   1.040   8.248  0.9694  3.8664 -0.9684
  154MOL0     H20267   9.312   1.195   8.213 -0.5554  1.6014 -0.8972
  154MOL0     H20268   9.268   1.183   8.039  2.6841  2.2689  0.7577
  154MOL0     H20269   9.471   1.049   8.002  0.0906  1.0466 -0.9502
  154MOL0     H20270   9.492   1.036   8.180  2.3095 -0.0715 -1.5939
  154MOL0     H20271   9.497   1.308   8.030  0.3732  2.3037  1.7099
  154MOL0     H20272   9.544   1.270   8.188 -1.4805 -0.7622  0.8832
  154MOL0     H20273   9.758   1.284   8.083  0.7191 -0.8642  1.5678
  154MOL0     H20274   9.695   1.193   7.933  0.3293 -0.1348 -0.5940
  154MOL0     H20275   9.733   0.996   8.041  0.7279 -0.1191  1.8000
  154MOL0     H20276   9.727   1.049   8.201  1.8184  0.1881  0.1674
  154MOL0     H20277   9.935   1.093   7.982 -1.4437 -3.2958 -0.8271
  154MOL0     H20278   9.942   1.184   8.137  0.1473 -0.5858  1.1003
  154MOL0     H20279  10.087   0.969   8.125  0.2976 -0.0256 -0.6421
  154MOL0     H20280   9.930   0.889   8.108 -0.6082  0.8613  0.0029
  154MOL0     H20281   9.812   0.802   8.345  0.1661  0.8179 -1.0003
  154MOL0     H20282   9.786   0.751   8.585  0.4549 -1.3614 -0.7628
  154MOL0     H20283   9.883   0.865   8.692  3.5592  1.2378 -0.9881
  154MOL0     H20284  10.078   0.717   8.584 -1.5482  3.9292 -0.5521
  154MOL0     H20285   9.940   0.604   8.566 -2.1867  4.3622 -5.3767
  154MOL0     H20286   9.977   0.697   8.849  1.3809 -0.8755  0.8083
  154MOL0     H20287   9.905   0.564   8.786 -0.7204  1.2164  0.2079
  154MOL0     H20288  10.207   0.582   8.715  0.7698 -0.4721 -0.9293
  154MOL0     H20289  10.116   0.441   8.735  2.8450 -0.2464  0.8996
  154MOL0     H20290  10.265   0.465   9.152 -3.5509 -2.7661  1.6182
  154MOL0     H20291  10.421   0.283   9.210  1.8831  2.2935 -0.6910
  154MOL0     H20292  10.775  -0.040   9.091  1.1933 -1.2991 -0.2856
  154MOL0     H20293  10.940  -0.190   9.225  1.1752  2.6199  1.9250
  154MOL0     H20294  11.044  -0.216   9.437 -1.7252 -0.2719 -4.7139
  154MOL0     H20295  11.029  -0.370   9.369 -1.0714  1.2462 -1.7401
  154MOL0     H20296  11.185  -0.368   9.563  0.3079 -1.0961  0.0475
  154MOL0     H20297  11.033  -0.470   9.595  1.5907 -0.8534 -1.7794
  154MOL0     H20298  10.933  -0.279   9.726 -0.3949  2.1543 -5.0426
  154MOL0     H20299  11.067  -0.180   9.693 -2.8732  0.2833 -2.5913
  154MOL0     H20300  11.072  -0.454   9.850  2.0426 -0.5045  2.2794
  154MOL0     H20301  11.212  -0.349   9.824 -0.4265 -0.4203 -1.3876
  154MOL0     H20302  11.123  -0.198   9.978 -1.1461  0.9052 -0.8127
  154MOL0     H20303  11.106  -0.360  10.053 -0.2735 -0.4223 -0.7055
  154MOL0     H20304  10.882  -0.378   9.985 -0.2221 -0.1190 -0.0534
  154MOL0     H20305  10.872  -0.207   9.928 -1.9819 -1.8525 -1.5388
  154MOL0     H20306  10.773  -0.221  10.150  0.0821  1.7572  2.9264
  154MOL0     H20307  10.895  -0.305  10.216 -0.9866  2.4937  2.2107
  154MOL0     H20308  10.932  -0.027  10.082  0.4028  0.9050  0.2058
  154MOL0     H20309  11.054  -0.103  10.176  0.1257 -0.8675 -0.4628
  154MOL0     H20310  10.609  -0.265   9.500  2.8954 -0.9883  1.2038
  154MOL0     H20311  10.483  -0.103   9.392  2.1291  1.1788  6.0144
  154MOL0     H20312  10.435   0.170   8.794  1.9718  1.7760  0.1526
  154MOL0     H20313  10.283   0.339   8.741  0.1624 -0.1636 -0.6288
  154MOL0     H20314   9.066   0.829   8.281  1.0424 -2.5059 -0.0746
  154MOL0     H20315   8.919   0.642   8.270 -1.6272 -2.2257 -1.1105
  154MOL0     H20316   8.921   0.155   7.903 -1.6793  0.6247 -1.1430
  154MOL0     H20317   8.807  -0.058   7.945 -1.9726 -0.4489 -0.7688
  154MOL0     H20318   8.383  -0.173   8.022  1.3251 -1.2036  0.2491
  154MOL0     H20319   8.356   0.003   8.037 -1.7265 -1.0348  0.8296
  154MOL0     H20320   8.486  -0.020   8.265 -1.1551  2.1818 -1.8829
  154MOL0     H20321   8.324  -0.075   8.259 -0.5990  4.9239 -3.8973
  154MOL0     H20322   8.465  -0.319   8.190 -2.7449 -0.9981  0.9006
  154MOL0     H20323   8.421  -0.261   8.342 -1.8206  0.6478 -1.4235
  154MOL0     H20324   8.669  -0.333   8.306 -0.6438 -0.7048  3.3027
  154MOL0     H20325   8.696  -0.181   8.231 -0.3857 -1.1875 -2.8630
  154MOL0     H20326   8.649  -0.094   8.650  1.4565  1.4989 -0.9101
  154MOL0     H20327   8.480   0.177   8.117  1.6380  2.5400  1.8783
  154MOL0     H20328   8.614   0.368   8.105 -0.6348  1.1286 -3.7830
  155MOL0     O20329   7.256   0.698   7.830 -0.2682 -0.8933  0.2460
  155MOL0     C20330   7.173   0.704   7.916  0.0304 -0.7572 -0.6592
  155MOL0     O20331   7.133   0.595   7.989 -0.4697  0.1150  0.1485
  155MOL0     C20332   7.182   0.461   7.975  1.8764 -0.3772 -0.1110
  155MOL0     C20333   7.314   0.428   7.960  0.4674 -0.5756  0.5353
  155MOL0     C20334   7.360   0.301   7.947 -0.0782  0.8730  1.1275
  155MOL0     C20335   7.269   0.196   7.931  0.3939  0.2511  0.3379
  155MOL0     O20336   7.302   0.065   7.919  0.5361  0.2573  0.5921
  155MOL0     C20337   7.371   0.035   7.797 -0.5542 -0.6723 -0.7482
  155MOL0     C20338   7.379  -0.110   7.776  0.1305  0.8483  1.0319
  155MOL0     C20339   7.448  -0.146   7.643 -0.1371  0.0848 -0.7675
  155MOL0     C20340   7.424  -0.285   7.596  0.3063 -0.7317 -0.3751
  155MOL0     C20341   7.404  -0.401   7.699 -0.8583  0.3335 -0.4989
  155MOL0     C20342   7.335  -0.524   7.645  0.1909  0.0602  0.4577
  155MOL0     C20343   7.366  -0.654   7.714 -0.0526 -0.5575  1.7798
  155MOL0     C20344   7.494  -0.717   7.662  0.0819 -0.2548  0.8163
  155MOL0     N20345   7.547  -0.829   7.757  0.3783  0.4947  0.1287
  155MOL0     C20346   7.593  -0.815   7.885  0.8725 -0.2032 -0.1636
  155MOL0     C20347   7.653  -0.927   7.911 -0.8250  0.1771  0.0532
  155MOL0     C20348   7.688  -0.972   8.046 -0.0667  0.0535 -0.3392
  155MOL0     C20349   7.811  -0.910   8.107 -0.6684 -0.0410  0.7195
  155MOL0     C20350   7.938  -0.979   8.055  0.1252  0.0645 -0.3499
  155MOL0     C20351   8.058  -0.893   8.105 -1.0280  0.8130 -0.1842
  155MOL0     O20352   8.047  -0.760   8.055  0.2190  0.9979 -0.0273
  155MOL0     C20353   8.095  -0.738   7.933  0.8341 -0.1620  1.0612
  155MOL0     C20354   8.039  -0.614   7.877 -0.0758 -0.6182  0.2300
  155MOL0     C20355   8.086  -0.573   7.755 -0.3122  0.6655 -0.0824
  155MOL0     C20356   8.194  -0.641   7.692  0.3181 -1.4034 -0.1199
  155MOL0     C20357   8.254  -0.580   7.570  0.1739  0.4721 -0.7637
  155MOL0     O20358   8.201  -0.467   7.522  0.1400  0.4927 -0.2218
  155MOL0     C20359   8.256  -0.375   7.434  0.7499  0.2693  0.3367
  155MOL0     C20360   8.348  -0.405   7.343 -0.6036  0.0590  0.1127
  155MOL0     C20361   8.382  -0.296   7.249  0.5483 -0.2966 -0.8943
  155MOL0     C20362   8.315  -0.166   7.247 -1.2950  1.0808  0.2582
  155MOL0     O20363   8.331  -0.073   7.145  0.0663 -0.7848  0.2955
  155MOL0     C20364   8.365  -0.130   7.012 -0.1233  0.1201  0.0769
  155MOL0     C20365   8.336  -0.035   6.909  0.2843  0.3106 -0.0396
  155MOL0     C20366   8.181  -0.005   6.890 -1.0257 -0.6535  0.1335
  155MOL0     C20367   8.165   0.102   6.778  1.2430  0.4821 -0.3594
  155MOL0     C20368   8.230   0.243   6.799 -0.4611  0.6680  0.5251
  155MOL0     C20369   8.188   0.328   6.922  0.2895 -0.2495 -0.0508
  155MOL0     C20370   8.233   0.477   6.907 -1.1098  0.1813  1.3230
  155MOL0     C20371   8.165   0.581   6.997  0.3106  0.9183 -0.2232
  155MOL0    Cl20372   8.196   0.527   7.168  0.1800 -0.2079  0.2939
  155MOL0     C20373   8.211  -0.151   7.339  0.1154 -0.5271  0.1145
  155MOL0     C20374   8.190  -0.253   7.437 -0.5632  0.2100 -0.1051
  155MOL0     O20375   8.338  -0.643   7.507 -0.1559  0.2061  0.4982
  155MOL0     C20376   8.252  -0.755   7.749 -0.0232  0.3755  0.5600
  155MOL0     C20377   8.208  -0.799   7.876  0.0369  0.3268  0.3294
  155MOL0     N20378   7.641  -1.019   7.816  0.9059  0.0618  0.5441
  155MOL0     N20379   7.587  -0.958   7.721  0.4253 -0.9175 -0.5069
  155MOL0     C20380   7.135   0.226   7.947  0.9741 -0.0579  0.6675
  155MOL0     C20381   7.083   0.358   7.970 -0.2987 -1.0927  0.5659
  155MOL0     C20382   7.103   0.833   7.948 -1.0257 -0.2256  0.1346
  155MOL0     C20383   6.995   0.828   8.026  0.5984  1.4347 -0.2995
  155MOL0     C20384   6.928   0.940   8.066 -0.1971 -1.2287  0.5484
  155MOL0     C20385   6.968   1.069   8.021 -0.9281  1.0086 -0.6029
  155MOL0     O20386   6.898   1.173   8.059 -0.5593 -0.5427  0.2851
  155MOL0     C20387   6.934   1.304   8.021  0.6231 -0.4850  0.1920
  155MOL0     C20388   7.021   1.373   8.130  0.5227 -0.4820 -0.5354
  155MOL0     C20389   6.927   1.408   8.257  0.3374 -0.2433 -0.4872
  155MOL0     C20390   7.008   1.411   8.383 -0.4522 -0.4512 -0.3146
  155MOL0     C20391   7.102   1.522   8.382  0.6862 -0.0333  0.1380
  155MOL0     C20392   7.165   1.623   8.359 -0.8489 -0.7112 -0.2159
  155MOL0     C20393   7.084   1.079   7.944 -0.2917  0.1304 -0.6113
  155MOL0     C20394   7.141   0.956   7.900  0.6702 -0.3515  0.3946
  155MOL0     H20395   7.384   0.511   7.960 -1.1850  0.8814 -0.2170
  155MOL0     H20396   7.466   0.289   7.930 -0.1300 -0.6554  1.7544
  155MOL0     H20397   7.476   0.068   7.795 -0.5882 -0.2418  1.6966
  155MOL0     H20398   7.308   0.094   7.731  0.2730  4.5001  2.4586
  155MOL0     H20399   7.276  -0.146   7.775  0.3619 -0.0120 -1.4321
  155MOL0     H20400   7.440  -0.157   7.854  2.0380 -2.0328 -1.8891
  155MOL0     H20401   7.554  -0.141   7.673 -0.7000 -0.2871  1.5010
  155MOL0     H20402   7.427  -0.076   7.561  2.5328  0.3013 -1.3697
  155MOL0     H20403   7.335  -0.274   7.534  2.3992  0.2364 -3.4075
  155MOL0     H20404   7.510  -0.299   7.530 -1.2398  0.5017 -2.8091
  155MOL0     H20405   7.346  -0.364   7.784 -1.0886 -1.3441  0.1142
  155MOL0     H20406   7.503  -0.424   7.741 -0.5521  0.8139 -0.9425
  155MOL0     H20407   7.363  -0.527   7.539  1.0847  0.0603  0.6854
  155MOL0     H20408   7.227  -0.505   7.654  0.6312  2.7375  0.9573
  155MOL0     H20409   7.388  -0.620   7.816 -0.0793 -0.7097  1.8361
  155MOL0     H20410   7.282  -0.725   7.711  1.4665 -2.4798  2.4439
  155MOL0     H20411   7.571  -0.639   7.661  0.4311 -0.4823  3.5536
  155MOL0     H20412   7.487  -0.768   7.565 -1.9392 -0.1004  0.8546
  155MOL0     H20413   7.588  -0.725   7.946  1.0947 -0.2516 -0.0703
  155MOL0     H20414   7.703  -1.081   8.041 -0.4558  0.0298 -1.1073
  155MOL0     H20415   7.609  -0.940   8.114  0.0689 -0.6745  0.1743
  155MOL0     H20416   7.812  -0.912   8.217  0.4606  4.7031  1.0088
  155MOL0     H20417   7.803  -0.803   8.084 -0.9614  0.0364  1.1784
  155MOL0     H20418   7.953  -1.071   8.112 -0.1128  1.7359  2.6018
  155MOL0     H20419   7.941  -0.984   7.945 -0.9877 -1.6832 -0.3388
  155MOL0     H20420   8.142  -0.947   8.060 -3.3314 -3.4571  0.1733
  155MOL0     H20421   8.080  -0.880   8.211 -2.4775  0.1123  0.2216
  155MOL0     H20422   7.952  -0.566   7.922 -0.6243 -1.2283 -0.1572
  155MOL0     H20423   8.047  -0.480   7.713  0.2118  2.2865  2.7371
  155MOL0     H20424   8.415  -0.490   7.343 -0.9511 -0.2272  0.9544
  155MOL0     H20425   8.461  -0.332   7.183 -0.1474 -0.8639 -1.4386
  155MOL0     H20426   8.290  -0.208   7.000  0.7965 -0.4492 -2.8350
  155MOL0     H20427   8.466  -0.171   7.007 -0.2878 -0.1978 -0.6879
  155MOL0     H20428   8.372  -0.077   6.815  0.3480  1.1336 -0.3880
  155MOL0     H20429   8.383   0.060   6.935  0.4771  0.8271 -2.0942
  155MOL0     H20430   8.135   0.026   6.984 -1.0088 -0.4953  0.0903
  155MOL0     H20431   8.126  -0.097   6.869 -0.0324 -2.0639  3.1501
  155MOL0     H20432   8.195   0.060   6.682 -1.2317 -3.6316  0.4189
  155MOL0     H20433   8.058   0.104   6.756  1.5406 -0.5987 -2.0280
  155MOL0     H20434   8.215   0.306   6.710 -0.0623  0.7698  0.5251
  155MOL0     H20435   8.338   0.228   6.815 -0.3409 -0.1031 -0.8105
  155MOL0     H20436   8.233   0.295   7.016 -1.3254 -1.5124  0.3217
  155MOL0     H20437   8.079   0.321   6.925  0.2580 -0.0716  3.0329
  155MOL0     H20438   8.341   0.480   6.926 -0.7189  2.4623 -0.6779
  155MOL0     H20439   8.212   0.513   6.806 -0.7951 -0.6888  0.9367
  155MOL0     H20440   8.056   0.575   6.986 -0.0662 -1.9651  3.0442
  155MOL0     H20441   8.208   0.679   6.977  0.4951  0.6766 -1.0580
  155MOL0     H20442   8.169  -0.051   7.338 -0.0096 -0.5453  1.3705
  155MOL0     H20443   8.115  -0.242   7.514  1.1509  4.2125  1.2568
  155MOL0     H20444   8.337  -0.796   7.696  0.0057 -1.7678  2.1316
  155MOL0     H20445   8.262  -0.885   7.917  1.5660  0.5740 -1.0738
  155MOL0     H20446   7.061   0.147   7.942 -1.6096  2.2802 -0.9095
  155MOL0     H20447   6.976   0.376   7.969 -0.0130  0.7932 -0.7958
  155MOL0     H20448   6.949   0.735   8.058  0.9126  1.1830 -0.5722
  155MOL0     H20449   6.833   0.941   8.118 -0.1551  1.3044  0.7054
  155MOL0     H20450   6.844   1.366   8.023  0.6540 -0.3570  4.0901
  155MOL0     H20451   6.985   1.334   7.928  2.7490  0.6284  1.6262
  155MOL0     H20452   7.106   1.317   8.169 -1.0713 -1.3253  2.0040
  155MOL0     H20453   7.061   1.469   8.094 -1.5693 -0.3528 -2.7891
  155MOL0     H20454   6.846   1.335   8.263  0.9547 -0.8154  3.0043
  155MOL0     H20455   6.883   1.508   8.248  2.3575  0.6586 -0.9873
  155MOL0     H20456   6.940   1.403   8.469  1.6327 -2.1469  1.2739
  155MOL0     H20457   7.070   1.322   8.397  2.4654  1.1175 -2.1833
  155MOL0     H20458   7.209   1.717   8.333 -3.1250  0.5000  0.1257
  155MOL0     H20459   7.119   1.170   7.897 -3.2879  0.1020 -3.2177
  155MOL0     H20460   7.227   0.961   7.834 -2.0083  0.8549 -3.2688
  156MOL0     O20461   9.074   0.261  10.940  0.8007  0.4712 -0.3763
  156MOL0     C20462   9.021   0.345  11.011  0.1229 -0.3033 -0.3577
  156MOL0     O20463   9.060   0.469  11.024 -0.4639  0.6963 -0.2677
  156MOL0     C20464   9.199   0.488  11.000 -0.0457 -0.4353  0.0165
  156MOL0     C20465   9.305   0.405  11.040  0.2225 -0.1929 -0.5364
  156MOL0     C20466   9.444   0.435  11.005  1.1646 -0.1114 -0.7923
  156MOL0     C20467   9.472   0.553  10.945  0.1661 -0.0414 -0.0557
  156MOL0     O20468   9.603   0.595  10.918  1.0008  1.1236 -0.1066
  156MOL0     C20469   9.626   0.737  10.929 -0.1498  0.6850  0.1114
  156MOL0     C20470   9.768   0.778  10.917  0.8740  0.3357  0.6410
  156MOL0     C20471   9.797   0.926  10.962 -0.3088  0.0624  0.7182
  156MOL0     C20472   9.707   1.022  10.895  0.4674  0.9636  0.4025
  156MOL0     C20473   9.736   1.167  10.932  0.4307  1.0395  0.2227
  156MOL0     C20474   9.600   1.242  10.930 -0.4767 -0.2811  0.4062
  156MOL0     C20475   9.608   1.375  10.996  0.3562  0.4685 -0.6423
  156MOL0     C20476   9.712   1.478  10.962 -0.5915 -0.3678  0.0220
  156MOL0     N20477   9.702   1.550  10.832  0.1819  0.2130  0.9656
  156MOL0     C20478   9.799   1.650  10.796  0.8186  0.1543  0.5179
  156MOL0     C20479   9.743   1.701  10.690 -0.2698  0.9438  0.0541
  156MOL0     C20480   9.811   1.799  10.601  0.8779  0.1850 -0.0697
  156MOL0     C20481   9.831   1.729  10.460 -0.7700  0.0523 -0.7528
  156MOL0     C20482   9.911   1.817  10.360  0.2299  0.1856 -0.3794
  156MOL0     C20483   9.956   1.765  10.222  0.2796  0.2198  0.1090
  156MOL0     O20484  10.055   1.850  10.176 -0.3788  0.0268  0.4415
  156MOL0     C20485  10.035   1.966  10.123 -0.6120 -0.3163 -0.1930
  156MOL0     C20486  10.152   2.041  10.099 -0.3453  0.2102  0.2059
  156MOL0     C20487  10.143   2.165  10.029 -0.9750  0.0150  0.7016
  156MOL0     C20488  10.020   2.229  10.016 -0.0251  0.3637  0.0086
  156MOL0     C20489   9.997   2.368   9.954 -0.3778  0.8520  0.4373
  156MOL0     O20490  10.077   2.466   9.992 -0.2352 -0.8298 -0.0022
  156MOL0     C20491  10.063   2.589   9.927 -0.1307  0.2918 -0.2333
  156MOL0     C20492  10.058   2.714  10.002  0.1024  0.8107  0.3732
  156MOL0     C20493  10.027   2.837   9.942 -0.0090 -0.0638 -1.0034
  156MOL0     C20494   9.995   2.842   9.809  0.0291 -0.4453 -0.5096
  156MOL0     O20495   9.961   2.969   9.759 -0.7732  0.7107 -0.0051
  156MOL0     C20496   9.916   2.967   9.624 -0.3394  0.0676 -0.1143
  156MOL0     C20497   9.828   3.087   9.588 -0.9052  0.0414 -0.4665
  156MOL0     C20498   9.729   3.121   9.701  0.3477 -0.5836  0.4214
  156MOL0     C20499   9.640   3.240   9.672  0.2235 -0.3740 -0.0188
  156MOL0     C20500   9.504   3.236   9.741  0.1763 -0.9320 -0.3862
  156MOL0     C20501   9.493   3.326   9.862 -0.0298  0.0509 -0.8811
  156MOL0     C20502   9.614   3.319   9.955  0.8929  0.5535 -0.9389
  156MOL0     C20503   9.566   3.400  10.080 -0.1008 -0.6140 -0.6344
  156MOL0    Cl20504   9.675   3.382  10.216  0.0335 -0.0201 -0.7011
  156MOL0     C20505   9.999   2.724   9.735  0.2892  0.5311 -0.1325
  156MOL0     C20506  10.032   2.602   9.790 -0.0443 -0.8918  0.1294
  156MOL0     O20507   9.901   2.363   9.873 -0.2139 -0.0647  0.3496
  156MOL0     C20508   9.903   2.168  10.065 -0.3561  0.3679 -0.0287
  156MOL0     C20509   9.913   2.036  10.116  0.6331  0.1348  0.1080
  156MOL0     N20510   9.625   1.637  10.668  0.4892  0.1296  0.2182
  156MOL0     N20511   9.590   1.551  10.753 -0.8309  0.6518  1.1338
  156MOL0     C20512   9.362   0.635  10.900  0.2687  0.3828  0.2245
  156MOL0     C20513   9.223   0.607  10.925 -0.3210  0.2792 -0.5652
  156MOL0     C20514   8.911   0.292  11.096  0.2069 -0.0797  0.4050
  156MOL0     C20515   8.862   0.161  11.085 -0.3576  0.5774 -0.1728
  156MOL0     C20516   8.759   0.112  11.176 -0.0411 -0.0143 -0.0804
  156MOL0     C20517   8.687   0.201  11.261  0.3218  0.9877  1.9256
  156MOL0     O20518   8.602   0.169  11.354  0.4180  0.8042 -0.3391
  156MOL0     C20519   8.577   0.038  11.412 -0.2370 -0.4735  0.3095
  156MOL0     C20520   8.706   0.009  11.501 -0.1052  0.0778  0.0963
  156MOL0     C20521   8.703  -0.143  11.560 -0.1023  0.0528  0.5686
  156MOL0     C20522   8.824  -0.164  11.648  0.8218  0.1022 -1.1380
  156MOL0     C20523   8.937  -0.214  11.564 -0.1185 -0.8270  0.1858
  156MOL0     C20524   9.035  -0.234  11.497  0.3843  0.1255  1.7971
  156MOL0     C20525   8.733   0.327  11.265 -0.0256  0.2704  0.2090
  156MOL0     C20526   8.837   0.377  11.181 -0.3929 -1.3643 -0.2953
  156MOL0     H20527   9.277   0.319  11.100  2.0472 -0.4553 -0.0174
  156MOL0     H20528   9.527   0.378  11.044  0.5956  0.7705  1.8795
  156MOL0     H20529   9.585   0.761  11.028 -1.8955  0.1083 -0.4303
  156MOL0     H20530   9.578   0.800  10.854 -1.4026  4.1463  3.4364
  156MOL0     H20531   9.799   0.769  10.813  0.2504 -2.3085  0.6102
  156MOL0     H20532   9.833   0.713  10.976  1.6250 -0.3608 -0.9071
  156MOL0     H20533   9.902   0.952  10.944 -0.6456  0.1155 -1.4663
  156MOL0     H20534   9.784   0.929  11.071  1.3123  1.1180  0.9162
  156MOL0     H20535   9.703   1.017  10.786 -1.5411  1.2893  0.4113
  156MOL0     H20536   9.606   0.990  10.925  0.1041 -0.4711 -2.1011
  156MOL0     H20537   9.791   1.220  10.854  2.3012  0.9729  1.4520
  156MOL0     H20538   9.792   1.173  11.026  0.2038 -2.8539  0.7586
  156MOL0     H20539   9.520   1.192  10.985 -0.4534 -2.5722 -1.5338
  156MOL0     H20540   9.572   1.249  10.825  2.3931 -0.1056 -0.4334
  156MOL0     H20541   9.507   1.415  10.987  0.7639  1.7298  0.1515
  156MOL0     H20542   9.630   1.347  11.100  2.7046  2.5908 -0.4671
  156MOL0     H20543   9.809   1.427  10.968 -0.3088 -0.5223 -3.6298
  156MOL0     H20544   9.717   1.559  11.035  2.5625 -2.3728  2.3166
  156MOL0     H20545   9.892   1.678  10.843  1.3233 -2.4166  1.1995
  156MOL0     H20546   9.901   1.848  10.640  0.3567  0.1795  1.1992
  156MOL0     H20547   9.740   1.879  10.580 -0.1353 -0.8816 -0.8655
  156MOL0     H20548   9.734   1.703  10.417 -1.7936  0.9822  0.8884
  156MOL0     H20549   9.891   1.638  10.469 -1.2558 -0.5471 -3.0539
  156MOL0     H20550   9.851   1.907  10.342 -0.6641  0.1425  2.0018
  156MOL0     H20551  10.003   1.844  10.413  0.9115  1.1147 -1.9822
  156MOL0     H20552   9.873   1.760  10.151 -0.6661  3.4101  0.8401
  156MOL0     H20553   9.990   1.662  10.235 -1.9606 -0.4901  0.8841
  156MOL0     H20554  10.250   1.998  10.116 -0.1044 -0.8330 -3.1580
  156MOL0     H20555  10.239   2.213  10.010  0.1237 -1.4852  2.1198
  156MOL0     H20556  10.107   2.720  10.098  1.2102  2.1800 -0.2357
  156MOL0     H20557  10.020   2.922  10.008  1.8299 -1.9944  1.8773
  156MOL0     H20558   9.855   2.876   9.622  0.8188 -0.7242 -1.0356
  156MOL0     H20559   9.993   2.949   9.549 -1.0999 -0.8147 -0.7190
  156MOL0     H20560   9.770   3.080   9.496  1.6100 -0.3690 -2.0949
  156MOL0     H20561   9.890   3.173   9.562  0.9810 -1.5372 -1.3738
  156MOL0     H20562   9.771   3.152   9.797  3.6175  1.0876 -1.3765
  156MOL0     H20563   9.665   3.033   9.707  0.0473 -0.2682  2.7747
  156MOL0     H20564   9.685   3.337   9.696  0.0238 -0.2235 -0.2562
  156MOL0     H20565   9.619   3.224   9.566  3.6026 -5.1933 -0.2746
  156MOL0     H20566   9.471   3.133   9.759 -2.1297 -0.1630  0.1359
  156MOL0     H20567   9.434   3.276   9.667 -0.1969 -0.0535  0.4081
  156MOL0     H20568   9.406   3.295   9.920  0.8801 -1.1527 -0.1060
  156MOL0     H20569   9.490   3.429   9.825  1.8527 -0.2251 -1.9144
  156MOL0     H20570   9.622   3.217   9.992  1.2509  1.7333  2.6387
  156MOL0     H20571   9.709   3.359   9.917  2.7554  3.6614  5.5206
  156MOL0     H20572   9.468   3.374  10.121  1.5341 -3.4913  1.8889
  156MOL0     H20573   9.567   3.506  10.054 -0.9071 -1.4606 -4.7547
  156MOL0     H20574   9.970   2.728   9.631  0.0325 -1.1441 -0.1444
  156MOL0     H20575  10.010   2.520   9.723  0.8779  0.9126 -2.5570
  156MOL0     H20576   9.805   2.212  10.048  0.0825  1.0786 -0.7824
  156MOL0     H20577   9.823   1.975  10.122  1.0960 -0.6049 -0.2280
  156MOL0     H20578   9.385   0.724  10.841  0.0466 -0.1473 -0.6815
  156MOL0     H20579   9.144   0.674  10.894 -1.0077 -1.1685 -2.1145
  156MOL0     H20580   8.899   0.093  11.009 -3.7197 -2.3181  0.5357
  156MOL0     H20581   8.731   0.007  11.181  1.0698 -0.3158  4.2483
  156MOL0     H20582   8.571  -0.042  11.338 -0.6396  2.8782 -3.6099
  156MOL0     H20583   8.481   0.050  11.463 -1.9535 -0.3620 -2.7351
  156MOL0     H20584   8.798   0.006  11.441 -0.6535 -0.7379 -0.7308
  156MOL0     H20585   8.712   0.084  11.580  2.2049  0.8001 -0.6933
  156MOL0     H20586   8.698  -0.214  11.477  2.1247 -2.6538  2.5686
  156MOL0     H20587   8.611  -0.144  11.620 -1.8923 -0.3048 -2.0334
  156MOL0     H20588   8.866  -0.082  11.707  3.7921 -0.8396 -1.7549
  156MOL0     H20589   8.798  -0.250  11.711  2.3617 -0.8801 -1.7994
  156MOL0     H20590   9.109  -0.238  11.419 -1.3141  1.1633  0.0644
  156MOL0     H20591   8.687   0.400  11.332 -1.6102  0.6723 -1.2399
  156MOL0     H20592   8.864   0.482  11.193  1.1994 -1.8729  0.9230
  157MOL0     O20593   6.879   5.170   6.047 -0.3458  0.3441  0.2581
  157MOL0     C20594   6.906   5.051   6.078 -0.2326 -0.3132  1.9115
  157MOL0     O20595   7.021   4.988   6.034  0.4231 -0.4204  0.4452
  157MOL0     C20596   7.139   5.058   6.021 -0.4631  0.5316 -0.7681
  157MOL0     C20597   7.165   5.183   6.070  1.4888 -0.4367 -0.9425
  157MOL0     C20598   7.291   5.245   6.046 -0.3637 -0.0124 -1.3967
  157MOL0     C20599   7.385   5.187   5.969 -0.3942 -0.7143 -0.1627
  157MOL0     O20600   7.517   5.220   5.957 -0.2244 -0.3279 -0.6561
  157MOL0     C20601   7.554   5.358   5.951  1.1007 -0.3940  0.6193
  157MOL0     C20602   7.710   5.386   5.948 -0.6917  0.3115 -0.8845
  157MOL0     C20603   7.742   5.534   5.970 -0.0711  0.4914 -0.4801
  157MOL0     C20604   7.887   5.562   5.959 -0.6363  0.6164 -0.2680
  157MOL0     C20605   7.916   5.704   5.991 -0.7323 -0.3240  0.4486
  157MOL0     C20606   8.067   5.728   5.994  0.3525  0.6760  0.0799
  157MOL0     C20607   8.129   5.674   6.117  0.1360  0.2943  0.1345
  157MOL0     C20608   8.281   5.703   6.102  0.3407 -0.6216  0.1494
  157MOL0     N20609   8.366   5.630   6.189  0.1521 -0.2643  0.3789
  157MOL0     C20610   8.481   5.683   6.240  0.6565 -0.4698 -0.1493
  157MOL0     C20611   8.547   5.574   6.284 -1.2544  0.3083 -0.2265
  157MOL0     C20612   8.689   5.567   6.338 -0.6946 -0.0738  0.4615
  157MOL0     C20613   8.720   5.683   6.438 -0.2213  0.1007 -0.7664
  157MOL0     C20614   8.841   5.655   6.529 -0.5090 -0.5294  0.0462
  157MOL0     C20615   8.978   5.684   6.464 -0.1143  0.0946 -0.4101
  157MOL0     O20616   9.071   5.677   6.573 -0.6002 -0.2395  0.3420
  157MOL0     C20617   9.202   5.703   6.552  0.1565 -0.8123 -0.0598
  157MOL0     C20618   9.268   5.726   6.434 -0.0042 -0.9438  0.3531
  157MOL0     C20619   9.403   5.751   6.433 -0.3380  0.6206 -0.4093
  157MOL0     C20620   9.483   5.754   6.547 -0.2793 -0.0996 -0.3966
  157MOL0     C20621   9.636   5.783   6.534 -0.0344  0.1049  0.0032
  157MOL0     O20622   9.692   5.803   6.406  0.0961 -0.0070  1.2703
  157MOL0     C20623   9.829   5.815   6.403  0.6848  0.0569 -0.6397
  157MOL0     C20624   9.904   5.704   6.423 -0.1927  0.0100  0.0883
  157MOL0     C20625  10.046   5.718   6.418 -0.6316 -0.4924 -0.6569
  157MOL0     C20626  10.105   5.839   6.385 -0.2198  0.2710 -0.2886
  157MOL0     O20627  10.239   5.866   6.395  0.1740  0.2290 -0.1799
  157MOL0     C20628  10.329   5.767   6.344 -1.2846 -0.6294 -0.6865
  157MOL0     C20629  10.482   5.800   6.383 -0.5765  1.6881 -0.4279
  157MOL0     C20630  10.584   5.696   6.319 -0.0281  0.3092 -0.4242
  157MOL0     C20631  10.545   5.668   6.170 -1.2427 -0.3246  0.4153
  157MOL0     C20632  10.647   5.573   6.107  0.0849 -1.3286 -0.0537
  157MOL0     C20633  10.683   5.444   6.178  0.0612 -0.4416  0.6587
  157MOL0     C20634  10.565   5.349   6.178  0.1689 -0.1628 -0.1691
  157MOL0     C20635  10.602   5.220   6.253 -0.8623  0.0230  0.6945
  157MOL0    Cl20636  10.755   5.145   6.174 -0.5539 -0.3654 -0.2791
  157MOL0     C20637  10.023   5.947   6.356 -0.3231  0.0539 -0.1447
  157MOL0     C20638   9.884   5.935   6.364 -0.2160  0.2569  0.0514
  157MOL0     O20639   9.698   5.742   6.633  0.9641 -0.1191 -0.7477
  157MOL0     C20640   9.417   5.734   6.672 -0.7904  0.1778  0.1109
  157MOL0     C20641   9.282   5.706   6.674 -0.1518  1.5186  0.3335
  157MOL0     N20642   8.479   5.456   6.257  0.6987 -0.2059 -0.2717
  157MOL0     N20643   8.365   5.495   6.207 -0.2101 -0.3267  0.4938
  157MOL0     C20644   7.357   5.064   5.916 -0.2721 -0.4801 -0.2503
  157MOL0     C20645   7.233   5.002   5.939 -0.6460 -0.3995  0.0579
  157MOL0     C20646   6.799   4.966   6.127 -0.1245 -0.5391 -1.0095
  157MOL0     C20647   6.669   5.028   6.176  0.4501  0.6165  0.9549
  157MOL0     C20648   6.576   4.946   6.245 -0.1837 -0.9385  0.9001
  157MOL0     C20649   6.590   4.813   6.268 -0.0618  0.1810 -0.2943
  157MOL0     O20650   6.496   4.736   6.335 -0.5986 -0.3222 -0.2996
  157MOL0     C20651   6.373   4.739   6.258 -0.8110 -0.4362 -0.0333
  157MOL0     C20652   6.248   4.672   6.308 -0.5335 -0.0461 -0.2181
  157MOL0     C20653   6.167   4.758   6.411 -0.7689 -0.7321 -0.4782
  157MOL0     C20654   6.238   4.782   6.549 -0.2470  0.7466  0.6700
  157MOL0     C20655   6.208   4.905   6.616  0.5507 -0.3116  0.6852
  157MOL0     C20656   6.213   5.018   6.672 -0.3692 -0.1103 -0.8744
  157MOL0     C20657   6.717   4.760   6.224 -0.2402 -0.3394 -0.4954
  157MOL0     C20658   6.817   4.831   6.156 -0.2110 -0.4960  0.7852
  157MOL0     H20659   7.084   5.227   6.127  0.1743 -0.8447 -2.4406
  157MOL0     H20660   7.296   5.347   6.084  0.6469 -0.1084 -1.2473
  157MOL0     H20661   7.537   5.405   6.048  4.5842 -1.3782  1.8251
  157MOL0     H20662   7.504   5.422   5.877 -0.9051  0.6479  2.7163
  157MOL0     H20663   7.744   5.359   5.848  0.5600 -3.4579  0.4079
  157MOL0     H20664   7.765   5.336   6.027  0.3487 -2.3445 -3.1221
  157MOL0     H20665   7.707   5.549   6.072 -1.1535 -0.7821 -0.6288
  157MOL0     H20666   7.685   5.594   5.898  0.1859  2.2567  0.7373
  157MOL0     H20667   7.946   5.501   6.029  1.1351  0.5972 -1.6975
  157MOL0     H20668   7.926   5.532   5.862 -2.8580 -0.9900 -0.7532
  157MOL0     H20669   7.865   5.736   6.082 -2.5139 -0.9372 -0.2890
  157MOL0     H20670   7.875   5.773   5.917  4.2456  3.2306  0.4723
  157MOL0     H20671   8.094   5.834   5.985 -2.1415  1.4629  1.1414
  157MOL0     H20672   8.108   5.675   5.907  0.8732 -2.6164  2.1591
  157MOL0     H20673   8.093   5.727   6.205  0.3858  2.2567 -0.8733
  157MOL0     H20674   8.110   5.567   6.131  0.9674  0.3230  1.7683
  157MOL0     H20675   8.300   5.810   6.112  3.5008 -1.0921  0.2015
  157MOL0     H20676   8.309   5.674   6.001  0.2575  1.6605 -0.5745
  157MOL0     H20677   8.506   5.788   6.237 -2.5888  0.6028  2.8912
  157MOL0     H20678   8.762   5.564   6.257 -2.0758  1.3968 -0.9083
  157MOL0     H20679   8.695   5.471   6.391 -1.2141  0.5945  1.7783
  157MOL0     H20680   8.631   5.701   6.499 -1.1200 -0.9612 -1.7210
  157MOL0     H20681   8.749   5.778   6.391  1.0285  1.2650  2.1149
  157MOL0     H20682   8.848   5.726   6.613  1.6651  2.1123 -2.1532
  157MOL0     H20683   8.838   5.548   6.550 -0.0878 -0.7696 -1.0777
  157MOL0     H20684   9.001   5.778   6.413  3.8210  0.9240  2.3483
  157MOL0     H20685   9.003   5.604   6.394  1.1850 -1.2410  1.4473
  157MOL0     H20686   9.212   5.730   6.341 -3.5656  1.1832  2.3681
  157MOL0     H20687   9.465   5.768   6.345  0.5433  1.6546  0.3843
  157MOL0     H20688   9.857   5.606   6.427 -0.1761 -0.0298 -0.6276
  157MOL0     H20689  10.107   5.633   6.446 -0.8028 -1.0050 -1.8034
  157MOL0     H20690  10.320   5.788   6.237  2.9209  0.6475 -0.9854
  157MOL0     H20691  10.314   5.665   6.381  3.5104 -0.3355  3.1019
  157MOL0     H20692  10.501   5.787   6.490 -1.9497  4.0690  0.1784
  157MOL0     H20693  10.507   5.904   6.362  0.2148  1.9332  1.5022
  157MOL0     H20694  10.589   5.610   6.387  0.2110  0.8847  0.2911
  157MOL0     H20695  10.685   5.738   6.315  0.2673 -0.3459 -0.0071
  157MOL0     H20696  10.446   5.622   6.166 -0.7446 -1.3090 -1.5049
  157MOL0     H20697  10.540   5.760   6.112 -2.6811 -0.2926  0.5374
  157MOL0     H20698  10.738   5.633   6.094 -0.4516  0.7112  4.1503
  157MOL0     H20699  10.585   5.549   6.020 -2.1091 -0.1047  1.0908
  157MOL0     H20700  10.725   5.466   6.276  3.3932 -2.8187 -0.0708
  157MOL0     H20701  10.762   5.402   6.116  1.9175 -0.0680  2.6815
  157MOL0     H20702  10.483   5.396   6.234  0.1629  0.3442 -0.5995
  157MOL0     H20703  10.536   5.326   6.075  0.8761 -4.3733  0.4099
  157MOL0     H20704  10.516   5.152   6.248 -1.6098  1.0199 -0.5068
  157MOL0     H20705  10.613   5.243   6.359 -1.1058  0.1751  0.6876
  157MOL0     H20706  10.059   6.048   6.339 -2.6679  0.5561 -2.8589
  157MOL0     H20707   9.827   6.028   6.354 -2.7966 -1.0134  1.8245
  157MOL0     H20708   9.475   5.747   6.762  1.4465  0.0984 -1.2432
  157MOL0     H20709   9.229   5.700   6.769 -3.8137 -0.6763 -1.6000
  157MOL0     H20710   7.434   5.008   5.864  0.2334  0.6767 -0.7577
  157MOL0     H20711   7.193   4.914   5.889 -3.3388  0.9583 -0.3663
  157MOL0     H20712   6.647   5.134   6.174  0.9532  0.7187  0.7296
  157MOL0     H20713   6.497   5.008   6.285  3.8191  3.4893  2.9504
  157MOL0     H20714   6.400   4.690   6.164 -1.7205 -2.3052  0.6362
  157MOL0     H20715   6.346   4.843   6.237  2.0945  0.5493  0.5241
  157MOL0     H20716   6.182   4.661   6.221 -1.0526 -1.6105  0.3421
  157MOL0     H20717   6.274   4.571   6.341  3.8884  0.3332 -1.8027
  157MOL0     H20718   6.064   4.731   6.437 -1.1383  0.4576 -0.6496
  157MOL0     H20719   6.159   4.856   6.363 -0.1124 -2.3192 -4.0852
  157MOL0     H20720   6.209   4.700   6.614  0.7373  1.0313  1.4801
  157MOL0     H20721   6.347   4.780   6.538 -0.3766  0.8898 -0.8823
  157MOL0     H20722   6.229   5.112   6.720  3.3836 -1.2989  0.5556
  157MOL0     H20723   6.733   4.661   6.265 -2.3654  0.6798  3.3129
  157MOL0     H20724   6.904   4.774   6.127  1.2581  2.4045 -0.9201
  158MOL0     O20725  10.076   4.650   4.002  0.3307  0.2578 -0.7756
  158MOL0     C20726  10.177   4.663   3.931 -1.2094  0.1892 -0.3495
  158MOL0     O20727  10.169   4.656   3.794 -0.2535 -0.1978  1.2759
  158MOL0     C20728  10.056   4.689   3.729  0.2337  0.2552  1.1442
  158MOL0     C20729  10.040   4.630   3.609  0.0438  0.0328  0.3059
  158MOL0     C20730   9.922   4.652   3.527  0.8173  1.2356 -1.0657
  158MOL0     C20731   9.836   4.767   3.541 -0.7866  0.2422 -0.0540
  158MOL0     O20732   9.744   4.818   3.453 -0.7071 -0.8111  1.0060
  158MOL0     C20733   9.801   4.927   3.379  0.0745 -0.1362  0.3623
  158MOL0     C20734   9.858   4.874   3.260  0.5077  0.7558 -0.1036
  158MOL0     C20735   9.760   4.819   3.158  0.8081 -0.5361  0.5694
  158MOL0     C20736   9.834   4.750   3.039 -0.4812  0.1258  0.2419
  158MOL0     C20737   9.760   4.721   2.901  0.6863  0.1011 -1.4890
  158MOL0     C20738   9.691   4.846   2.832 -0.1078 -1.5647  0.8385
  158MOL0     C20739   9.790   4.958   2.789 -0.1532  0.2128 -0.3424
  158MOL0     C20740   9.738   5.103   2.799 -0.6413 -1.1358  0.4583
  158MOL0     N20741   9.747   5.145   2.941  0.4666  0.2621 -0.5526
  158MOL0     C20742   9.850   5.207   3.010 -1.0478  0.4307  0.9224
  158MOL0     C20743   9.793   5.240   3.132  0.1845  0.4294  0.4127
  158MOL0     C20744   9.856   5.319   3.249 -0.3290 -0.5746  0.8787
  158MOL0     C20745   9.998   5.268   3.287 -0.4788  0.0786 -0.3758
  158MOL0     C20746  10.121   5.365   3.273 -0.2777  0.2501 -0.3722
  158MOL0     C20747  10.179   5.328   3.137 -0.1539 -0.3850  0.3402
  158MOL0     O20748  10.212   5.190   3.128  0.4451  0.1519  0.4352
  158MOL0     C20749  10.328   5.136   3.178  0.7540  0.2699 -0.6263
  158MOL0     C20750  10.443   5.217   3.211 -0.4174  0.1299 -0.6318
  158MOL0     C20751  10.572   5.156   3.228 -0.1853 -0.5137 -0.6638
  158MOL0     C20752  10.587   5.019   3.235 -0.4755  0.5328 -0.0234
  158MOL0     C20753  10.722   4.977   3.292  0.0349  0.4148 -0.5298
  158MOL0     O20754  10.731   4.848   3.324  0.4600  0.2145 -0.6985
  158MOL0     C20755  10.843   4.793   3.381 -0.8713 -0.5514  0.9745
  158MOL0     C20756  10.861   4.653   3.369  0.8762 -0.9254 -0.4320
  158MOL0     C20757  10.970   4.593   3.433 -0.2946  1.2192 -0.5865
  158MOL0     C20758  11.075   4.659   3.482 -0.6045  0.7197  0.2302
  158MOL0     O20759  11.187   4.584   3.528  0.8064  0.7190 -0.2940
  158MOL0     C20760  11.154   4.486   3.624  1.1481  0.1254  0.4343
  158MOL0     C20761  11.258   4.477   3.726 -1.0545  0.2656  0.1455
  158MOL0     C20762  11.247   4.352   3.818 -0.5297  0.7809 -0.9184
  158MOL0     C20763  11.383   4.344   3.889 -0.0105  0.3727 -0.1547
  158MOL0     C20764  11.417   4.244   4.005  0.2269  0.1826  0.0831
  158MOL0     C20765  11.347   4.107   3.981  0.2931  0.3968 -0.3672
  158MOL0     C20766  11.415   4.028   3.871 -0.5800  0.2427  0.4291
  158MOL0     C20767  11.322   3.920   3.820  0.4071 -0.4907  0.1776
  158MOL0    Cl20768  11.274   3.824   3.960 -0.3724  0.1539 -0.0468
  158MOL0     C20769  11.069   4.800   3.476 -0.0268  0.9184  0.5116
  158MOL0     C20770  10.958   4.865   3.426  0.1431  0.5400 -0.2414
  158MOL0     O20771  10.809   5.064   3.307  0.3899 -0.2500  0.0850
  158MOL0     C20772  10.475   4.945   3.208 -0.0856  1.3280 -0.2010
  158MOL0     C20773  10.347   5.006   3.181 -0.7385  0.7200 -0.6063
  158MOL0     N20774   9.667   5.177   3.133  0.1823 -0.8887 -0.1230
  158MOL0     N20775   9.633   5.141   3.011 -0.0635 -0.2268 -0.1128
  158MOL0     C20776   9.855   4.824   3.673 -0.7900 -0.3299  0.5024
  158MOL0     C20777   9.953   4.778   3.766 -0.8331 -0.6384  0.4754
  158MOL0     C20778  10.306   4.687   3.992  0.3648 -0.5725  0.3246
  158MOL0     C20779  10.406   4.716   3.900  0.3605  1.5995  0.2006
  158MOL0     C20780  10.531   4.744   3.939 -0.3197  0.0333 -0.5382
  158MOL0     C20781  10.578   4.733   4.072  0.1332  0.0155 -0.5339
  158MOL0     O20782  10.705   4.763   4.128 -0.3256  0.3629 -0.0178
  158MOL0     C20783  10.807   4.821   4.047  0.3833 -1.1149 -0.1910
  158MOL0     C20784  10.796   4.968   4.000  0.8543  0.0917 -0.9285
  158MOL0     C20785  10.890   5.003   3.882 -0.3071  0.1801  0.6585
  158MOL0     C20786  10.881   5.147   3.843  0.4156 -0.2164  1.0302
  158MOL0     C20787  10.751   5.175   3.803 -0.7366 -0.0080 -0.8258
  158MOL0     C20788  10.645   5.198   3.754 -0.3718  0.1743 -0.7574
  158MOL0     C20789  10.475   4.702   4.167 -0.1511  0.7342  0.1796
  158MOL0     C20790  10.340   4.683   4.131 -0.1658 -0.5110 -1.0815
  158MOL0     H20791  10.111   4.550   3.586  2.2085  2.3964 -2.0614
  158MOL0     H20792   9.902   4.582   3.446 -1.0073  1.5280 -0.9009
  158MOL0     H20793   9.878   4.974   3.441 -1.1191  3.0682 -0.3573
  158MOL0     H20794   9.724   5.004   3.364 -0.0675 -0.1971  0.7569
  158MOL0     H20795   9.929   4.793   3.282  0.9078  1.2293  0.3761
  158MOL0     H20796   9.918   4.953   3.215  1.0778  0.7919  0.6939
  158MOL0     H20797   9.700   4.905   3.125 -3.6146 -2.8759  1.7420
  158MOL0     H20798   9.693   4.749   3.208 -1.5895  0.9832 -0.3095
  158MOL0     H20799   9.912   4.822   3.013  0.0087 -0.2700  0.5899
  158MOL0     H20800   9.873   4.656   3.079 -2.4416 -0.2146  1.4831
  158MOL0     H20801   9.682   4.646   2.915  0.7274  0.3017  0.1041
  158MOL0     H20802   9.837   4.683   2.834 -1.6362 -2.7176 -2.7658
  158MOL0     H20803   9.612   4.872   2.903 -0.0058  3.4603 -0.4966
  158MOL0     H20804   9.643   4.811   2.740 -1.2959  2.8646 -0.4983
  158MOL0     H20805   9.884   4.954   2.846 -0.0305 -1.1293 -0.6057
  158MOL0     H20806   9.831   4.933   2.691  1.2223 -0.5731  0.3900
  158MOL0     H20807   9.633   5.104   2.769 -1.2752 -6.4308  1.6146
  158MOL0     H20808   9.800   5.166   2.735  0.6762 -2.2918  0.5642
  158MOL0     H20809   9.944   5.232   2.963 -0.9710  0.1207  0.9077
  158MOL0     H20810   9.798   5.300   3.340 -4.2545  2.9481 -0.5744
  158MOL0     H20811   9.860   5.427   3.240  1.1803 -0.7762 -2.9203
  158MOL0     H20812  10.019   5.168   3.247 -0.2232 -1.4459  3.1862
  158MOL0     H20813   9.995   5.254   3.396  2.4548 -0.3047 -0.2476
  158MOL0     H20814  10.090   5.470   3.282  1.6297  1.1829 -3.3840
  158MOL0     H20815  10.192   5.341   3.353 -1.8976 -1.5558  0.5952
  158MOL0     H20816  10.267   5.389   3.114  1.5890 -2.7205  0.3387
  158MOL0     H20817  10.102   5.352   3.064 -2.2178 -2.0537  1.8398
  158MOL0     H20818  10.432   5.325   3.208  1.1796  0.2984 -1.3653
  158MOL0     H20819  10.648   5.230   3.251 -2.4097  1.8594 -0.4393
  158MOL0     H20820  10.775   4.598   3.333 -0.0517 -0.5331  1.0678
  158MOL0     H20821  10.960   4.485   3.425  1.3481  0.6086  3.4952
  158MOL0     H20822  11.144   4.392   3.568  0.4080  0.1825  0.4582
  158MOL0     H20823  11.060   4.507   3.676  0.8156  2.9314 -1.0915
  158MOL0     H20824  11.281   4.567   3.784  0.7682 -0.8594  1.2813
  158MOL0     H20825  11.351   4.454   3.674  0.3449  0.5922  2.3982
  158MOL0     H20826  11.223   4.263   3.759 -2.2544 -0.7082  1.8161
  158MOL0     H20827  11.170   4.360   3.896  0.7597 -1.2577  0.6607
  158MOL0     H20828  11.459   4.329   3.811 -1.0964  0.7803 -1.3219
  158MOL0     H20829  11.402   4.443   3.932  0.0559 -1.5584  4.9738
  158MOL0     H20830  11.377   4.286   4.097 -0.8676  0.4632 -0.5032
  158MOL0     H20831  11.526   4.246   4.003  0.2316  0.3121  0.5279
  158MOL0     H20832  11.239   4.112   3.961 -0.4859  1.1975  3.3439
  158MOL0     H20833  11.355   4.058   4.078 -0.8858  1.9702  0.5864
  158MOL0     H20834  11.435   4.089   3.782 -1.1506 -0.5488 -0.2580
  158MOL0     H20835  11.513   3.995   3.907 -0.7412 -1.3603 -0.4676
  158MOL0     H20836  11.375   3.850   3.754  1.6794 -1.5446  2.2235
  158MOL0     H20837  11.228   3.961   3.781 -0.3635 -1.6483  0.7493
  158MOL0     H20838  11.158   4.853   3.510  1.9613 -1.5018 -0.6222
  158MOL0     H20839  10.960   4.974   3.430  1.5124  0.5931 -1.6083
  158MOL0     H20840  10.473   4.837   3.211  0.3564  1.3330  1.0084
  158MOL0     H20841  10.257   4.947   3.169 -0.0836 -0.2272 -0.9765
  158MOL0     H20842   9.786   4.898   3.712  0.2600  0.6285  0.5836
  158MOL0     H20843   9.941   4.836   3.856 -0.5407  0.4879 -0.1960
  158MOL0     H20844  10.396   4.726   3.792  1.7261 -1.0365 -0.2639
  158MOL0     H20845  10.590   4.756   3.849  0.6951  1.3545  0.2454
  158MOL0     H20846  10.814   4.761   3.956  2.3191 -3.4525  1.3922
  158MOL0     H20847  10.910   4.818   4.084  3.2212 -3.4758 -6.7931
  158MOL0     H20848  10.693   4.992   3.971 -0.4806 -4.6087 -0.9371
  158MOL0     H20849  10.830   5.032   4.082  2.5070  0.2723 -1.7117
  158MOL0     H20850  10.863   4.943   3.795  0.3532 -0.5848  0.9743
  158MOL0     H20851  10.992   4.976   3.912  0.8206  2.6205 -0.7014
  158MOL0     H20852  10.922   5.206   3.926  1.2021 -1.9378  1.9026
  158MOL0     H20853  10.946   5.170   3.758 -2.1773 -0.1602 -1.0811
  158MOL0     H20854  10.560   5.211   3.689  0.5239 -0.6124 -2.1482
  158MOL0     H20855  10.514   4.688   4.267 -0.2213 -1.3975 -0.0564
  158MOL0     H20856  10.267   4.650   4.204  1.0482  1.1116  0.9478
  159MOL0     O20857   7.768   7.554   7.326  0.0726 -0.0733 -0.7286
  159MOL0     C20858   7.718   7.559   7.440 -0.6662 -1.1727 -0.8570
  159MOL0     O20859   7.581   7.591   7.466  0.3703  0.3150 -1.6842
  159MOL0     C20860   7.485   7.577   7.375  0.2778 -0.2117 -0.4016
  159MOL0     C20861   7.389   7.681   7.389  0.1747  1.0174  0.0282
  159MOL0     C20862   7.276   7.686   7.311 -0.1569 -0.0667  0.2220
  159MOL0     C20863   7.242   7.585   7.221  0.2185  1.0548  0.7170
  159MOL0     O20864   7.114   7.592   7.162  1.1586 -0.1809 -0.7841
  159MOL0     C20865   7.082   7.490   7.059 -0.0542  0.1190 -0.7809
  159MOL0     C20866   6.960   7.527   6.970  0.0638 -0.5603 -0.8794
  159MOL0     C20867   6.990   7.543   6.817 -0.1391 -0.0061 -1.1092
  159MOL0     C20868   6.894   7.632   6.733 -0.0570  1.1448  0.0661
  159MOL0     C20869   6.950   7.672   6.603  0.3689 -0.0082  0.0486
  159MOL0     C20870   6.926   7.565   6.491  0.5839 -0.5567 -0.0584
  159MOL0     C20871   6.914   7.602   6.348  0.4506  0.0510  0.6427
  159MOL0     C20872   6.949   7.480   6.261  0.1444 -0.2892 -0.1209
  159MOL0     N20873   6.941   7.514   6.121  0.2601 -0.1663  0.1625
  159MOL0     C20874   7.034   7.600   6.060  0.1934  0.3182  0.0990
  159MOL0     C20875   6.990   7.618   5.938 -0.8798  0.1798 -0.1269
  159MOL0     C20876   7.032   7.697   5.818 -0.3275 -0.1446 -0.5727
  159MOL0     C20877   7.121   7.615   5.717  0.1316  0.9248  0.0728
  159MOL0     C20878   7.028   7.564   5.600 -0.0559 -0.2612 -0.0505
  159MOL0     C20879   7.109   7.490   5.492 -0.7682 -0.3800 -0.0846
  159MOL0     O20880   7.239   7.548   5.485 -0.9981  0.4135  1.1935
  159MOL0     C20881   7.332   7.480   5.406  0.5510 -0.5640 -0.3617
  159MOL0     C20882   7.447   7.554   5.407 -0.5444 -0.0720  0.3090
  159MOL0     C20883   7.567   7.501   5.342 -0.2938 -0.1236 -0.4655
  159MOL0     C20884   7.557   7.376   5.270 -0.6200 -0.6850  0.2710
  159MOL0     C20885   7.679   7.319   5.201  0.5663 -0.0468  0.1239
  159MOL0     O20886   7.683   7.182   5.214 -0.5313  0.4654  0.2623
  159MOL0     C20887   7.809   7.127   5.183 -0.3513 -0.2608  0.0718
  159MOL0     C20888   7.799   7.047   5.070 -1.4492  1.1428  0.7783
  159MOL0     C20889   7.910   6.993   5.009 -0.1753  0.7267  0.7936
  159MOL0     C20890   8.036   7.028   5.052 -0.2035  0.7637 -0.5332
  159MOL0     O20891   8.156   6.987   4.994 -0.1932 -0.0737  0.2230
  159MOL0     C20892   8.174   6.979   4.857 -0.1049  1.4044  0.5628
  159MOL0     C20893   8.317   6.969   4.808 -0.1971  1.3341 -0.1456
  159MOL0     C20894   8.388   6.832   4.841 -0.2714  0.0378 -0.4884
  159MOL0     C20895   8.399   6.808   4.997  0.3308 -0.0308 -0.3214
  159MOL0     C20896   8.525   6.754   5.038 -0.7426 -0.0665 -0.1500
  159MOL0     C20897   8.515   6.706   5.189 -0.0310 -1.1211  0.2329
  159MOL0     C20898   8.670   6.713   5.234  0.1804  1.2506  0.3774
  159MOL0     C20899   8.766   6.601   5.164 -0.3294 -0.7596  0.3877
  159MOL0    Cl20900   8.726   6.437   5.217  0.1766  0.3005 -0.2957
  159MOL0     C20901   8.042   7.104   5.172 -0.7252 -0.0069  0.7692
  159MOL0     C20902   7.929   7.159   5.233 -0.6908  0.8262  0.0299
  159MOL0     O20903   7.769   7.395   5.167  0.1545  0.1266 -0.4220
  159MOL0     C20904   7.435   7.309   5.270  0.1002  0.5923 -0.9288
  159MOL0     C20905   7.323   7.366   5.331  0.3704 -0.0821  0.2821
  159MOL0     N20906   6.868   7.548   5.927 -0.2448  0.0755 -0.0108
  159MOL0     N20907   6.853   7.473   6.036  0.3370 -0.5171  0.8712
  159MOL0     C20908   7.326   7.476   7.217  0.0575 -0.1311  0.5267
  159MOL0     C20909   7.444   7.471   7.293  0.3806 -0.3219 -0.1277
  159MOL0     C20910   7.805   7.541   7.554 -0.3547  0.4103 -0.0330
  159MOL0     C20911   7.945   7.561   7.541 -0.1272 -0.4010  0.4022
  159MOL0     C20912   8.033   7.551   7.647 -0.1881  0.2033  0.5889
  159MOL0     C20913   7.984   7.521   7.774  1.1953  0.9293  0.4702
  159MOL0     O20914   8.086   7.502   7.865  0.8267  0.2349  0.1489
  159MOL0     C20915   8.043   7.499   8.003  0.4148 -0.5237  0.4644
  159MOL0     C20916   8.035   7.351   8.040 -0.2057 -1.3849 -0.3405
  159MOL0     C20917   8.170   7.285   8.052  0.2851  0.1929  0.6727
  159MOL0     C20918   8.192   7.171   7.951  0.3962 -0.4545  0.4008
  159MOL0     C20919   8.243   7.217   7.822  0.8516  0.2290 -0.0348
  159MOL0     C20920   8.283   7.265   7.715 -0.2446 -0.1222  0.7407
  159MOL0     C20921   7.845   7.481   7.792  0.1391  0.5521  0.1767
  159MOL0     C20922   7.755   7.512   7.683 -0.7501 -0.4200  0.8781
  159MOL0     H20923   7.416   7.767   7.449  0.5165  1.6217 -0.9688
  159MOL0     H20924   7.215   7.775   7.317  0.7526  0.7022 -1.4345
  159MOL0     H20925   7.071   7.387   7.095 -1.5492  0.4676 -0.1586
  159MOL0     H20926   7.166   7.489   6.989  0.8788 -0.6193  0.2907
  159MOL0     H20927   6.907   7.616   7.005 -2.0175 -3.0290  2.8948
  159MOL0     H20928   6.889   7.445   6.979 -1.3620  0.8124  0.9836
  159MOL0     H20929   6.993   7.440   6.779 -1.8800 -0.5568  0.1005
  159MOL0     H20930   7.087   7.592   6.809  0.0338  0.7679  3.1108
  159MOL0     H20931   6.800   7.577   6.724 -0.1414  1.3648 -0.4122
  159MOL0     H20932   6.871   7.721   6.792 -2.8776  1.9179 -2.0259
  159MOL0     H20933   7.052   7.708   6.619  0.0517  0.8315  0.2323
  159MOL0     H20934   6.905   7.761   6.557  3.2812  0.4998 -2.0840
  159MOL0     H20935   6.838   7.504   6.513  1.8907 -2.8221 -0.8018
  159MOL0     H20936   7.005   7.489   6.495  1.1003 -0.1739 -1.9547
  159MOL0     H20937   6.811   7.618   6.315  0.5032 -2.6234 -1.1575
  159MOL0     H20938   6.976   7.686   6.318  1.6255 -1.3627 -1.1419
  159MOL0     H20939   6.886   7.393   6.279  0.0670 -0.4070 -0.8996
  159MOL0     H20940   7.052   7.449   6.283  0.2292  0.3587  0.4075
  159MOL0     H20941   7.123   7.621   6.118 -0.8978 -1.9932  2.9107
  159MOL0     H20942   7.102   7.766   5.865 -0.6509  1.2840 -2.0919
  159MOL0     H20943   6.956   7.759   5.770  0.3488  0.0965 -1.3714
  159MOL0     H20944   7.170   7.537   5.776 -2.9212  0.7960  2.6985
  159MOL0     H20945   7.196   7.685   5.678 -1.2615  0.5836 -3.6205
  159MOL0     H20946   6.953   7.494   5.638 -1.2453  1.2809  0.5439
  159MOL0     H20947   6.960   7.640   5.562  2.2448  1.9615  0.0457
  159MOL0     H20948   7.060   7.500   5.395  0.2493  0.1998 -0.5524
  159MOL0     H20949   7.102   7.384   5.520 -3.5850 -0.0596  0.7524
  159MOL0     H20950   7.454   7.650   5.457 -1.1622  1.2109 -1.9089
  159MOL0     H20951   7.662   7.554   5.343  0.7444 -1.9112 -0.1115
  159MOL0     H20952   7.699   7.018   5.039 -0.8605 -1.4024  1.0214
  159MOL0     H20953   7.895   6.926   4.925  0.1432  0.8691  0.6227
  159MOL0     H20954   8.127   7.066   4.810 -0.8164  1.5099  1.4477
  159MOL0     H20955   8.125   6.889   4.820  1.7984  0.5782 -0.0732
  159MOL0     H20956   8.387   7.048   4.837  3.9037 -1.2298 -2.1287
  159MOL0     H20957   8.311   6.987   4.700 -0.3955  0.2920 -0.3248
  159MOL0     H20958   8.486   6.835   4.792  0.2277  0.9470  0.5221
  159MOL0     H20959   8.333   6.744   4.806 -3.1363  2.2390 -1.8468
  159MOL0     H20960   8.379   6.904   5.047 -0.9383 -2.1359  3.6362
  159MOL0     H20961   8.315   6.742   5.018  1.2915 -2.0791 -2.4844
  159MOL0     H20962   8.604   6.830   5.027 -2.8350  2.6993  2.2112
  159MOL0     H20963   8.549   6.667   4.976  3.2597  2.4126 -2.5440
  159MOL0     H20964   8.471   6.607   5.204 -2.0824 -0.3540 -0.2852
  159MOL0     H20965   8.461   6.774   5.255  1.4696 -0.3722  0.7210
  159MOL0     H20966   8.713   6.808   5.202  0.2047  0.5552 -1.7686
  159MOL0     H20967   8.677   6.699   5.343  0.0802  2.9465  0.6266
  159MOL0     H20968   8.872   6.608   5.192  0.1678 -3.3077 -0.6292
  159MOL0     H20969   8.772   6.611   5.055  2.9037 -1.3179  0.4237
  159MOL0     H20970   8.134   7.126   5.225 -0.9210 -0.8432  1.4722
  159MOL0     H20971   7.938   7.231   5.314  1.2186  1.7308 -0.9449
  159MOL0     H20972   7.442   7.210   5.225  1.9641 -0.1820  0.8928
  159MOL0     H20973   7.232   7.307   5.343 -0.1369  0.8154  0.9616
  159MOL0     H20974   7.293   7.390   7.159 -0.9223  0.8054 -0.3534
  159MOL0     H20975   7.510   7.384   7.294  1.9734  0.8024 -1.1951
  159MOL0     H20976   7.986   7.583   7.443  2.0991 -2.0379  0.8857
  159MOL0     H20977   8.140   7.569   7.646 -0.4137  1.6709 -1.3325
  159MOL0     H20978   7.948   7.554   8.011  1.3821  1.0384  2.3291
  159MOL0     H20979   8.110   7.544   8.077 -1.5655  1.1414  1.3443
  159MOL0     H20980   7.990   7.345   8.140 -0.4221 -1.2831 -0.4322
  159MOL0     H20981   7.967   7.295   7.975 -2.8580 -0.9822  1.8879
  159MOL0     H20982   8.182   7.238   8.150  1.4199  0.3054  0.5961
  159MOL0     H20983   8.242   7.367   8.044 -2.6924  3.0721  1.1012
  159MOL0     H20984   8.263   7.099   7.993  0.7197 -0.1102  0.4526
  159MOL0     H20985   8.095   7.129   7.922  1.5598 -0.5179 -4.2753
  159MOL0     H20986   8.323   7.293   7.620  1.6279 -2.8778  0.5929
  159MOL0     H20987   7.804   7.438   7.883 -0.8766  0.6835 -0.2003
  159MOL0     H20988   7.648   7.497   7.697 -1.0806  0.9367 -0.0287
  160MOL0     O20989  11.161   6.036   0.518  0.0049  0.3607 -0.3949
  160MOL0     C20990  11.273   6.043   0.464  1.1569 -0.0973 -0.5980
  160MOL0     O20991  11.398   6.050   0.520 -0.0351 -0.4021  0.1374
  160MOL0     C20992  11.408   6.064   0.661 -0.2262 -0.2969  0.0124
  160MOL0     C20993  11.306   6.109   0.752 -0.3571 -0.1597  1.1885
  160MOL0     C20994  11.346   6.131   0.882  0.3364  0.1491 -0.0563
  160MOL0     C20995  11.461   6.081   0.928 -0.3974  0.5754  0.6048
  160MOL0     O20996  11.496   6.090   1.059  0.2439  0.2978  0.3694
  160MOL0     C20997  11.474   5.967   1.135 -0.2850 -0.5428 -0.0530
  160MOL0     C20998  11.508   5.991   1.282 -1.0643 -0.4207  0.6004
  160MOL0     C20999  11.435   6.118   1.337 -0.5650  1.2504 -0.6979
  160MOL0     C21000  11.479   6.113   1.490  0.3090  0.0743 -0.2256
  160MOL0     C21001  11.452   6.251   1.551 -0.1112  0.1153 -0.3722
  160MOL0     C21002  11.524   6.261   1.677 -0.0710  0.4342  0.1442
  160MOL0     C21003  11.499   6.392   1.756  0.4102 -0.1940 -0.3482
  160MOL0     C21004  11.599   6.390   1.877  0.1895 -0.2720  0.0182
  160MOL0     N21005  11.602   6.283   1.973 -0.5021  0.0648 -1.0629
  160MOL0     C21006  11.656   6.155   1.964  0.0982  0.0820 -0.2760
  160MOL0     C21007  11.657   6.117   2.091  0.3129  0.3701 -0.2974
  160MOL0     C21008  11.727   5.987   2.133 -0.8300 -0.6521  0.3644
  160MOL0     C21009  11.854   5.995   2.212 -0.2392  0.0027 -0.9446
  160MOL0     C21010  11.940   5.866   2.204 -0.5346 -0.2737 -0.6204
  160MOL0     C21011  11.865   5.737   2.236 -0.0902  0.4868  0.5018
  160MOL0     O21012  11.835   5.671   2.112  0.4653 -0.5453  0.4562
  160MOL0     C21013  11.771   5.547   2.125 -1.7160 -0.8327  0.1290
  160MOL0     C21014  11.831   5.434   2.065  0.5534 -0.3414  0.6155
  160MOL0     C21015  11.756   5.312   2.075 -1.0048  0.4984  0.3449
  160MOL0     C21016  11.644   5.297   2.155  0.4229 -0.1734  0.3521
  160MOL0     C21017  11.565   5.168   2.167  0.3697 -0.0612 -0.2604
  160MOL0     O21018  11.626   5.050   2.127 -0.5475 -0.5180  0.3139
  160MOL0     C21019  11.557   4.927   2.122 -0.7652 -0.0132  0.3251
  160MOL0     C21020  11.467   4.883   2.219 -0.8215  0.5557 -0.2549
  160MOL0     C21021  11.415   4.749   2.210  0.1758  0.4559 -0.2069
  160MOL0     C21022  11.435   4.680   2.094  0.3095 -0.0782 -0.3387
  160MOL0     O21023  11.381   4.561   2.052 -0.0473 -0.5247 -0.3517
  160MOL0     C21024  11.284   4.500   2.126 -0.4432  1.3251  0.6967
  160MOL0     C21025  11.181   4.432   2.030 -0.5493 -0.3193  0.0770
  160MOL0     C21026  11.108   4.543   1.946  0.6849 -0.3577 -0.3560
  160MOL0     C21027  11.171   4.553   1.811 -0.1577  0.7749  0.5269
  160MOL0     C21028  11.077   4.603   1.706  0.8820  0.4199  0.0334
  160MOL0     C21029  11.037   4.747   1.737 -0.2336 -0.0313 -0.5692
  160MOL0     C21030  10.917   4.796   1.668  0.2757  0.3204  0.5114
  160MOL0     C21031  10.896   4.947   1.672  0.3686  0.4997  0.4054
  160MOL0    Cl21032  10.777   4.995   1.547  0.3242  0.0062 -0.0544
  160MOL0     C21033  11.516   4.730   1.993  0.0433 -0.0094 -0.1251
  160MOL0     C21034  11.588   4.851   2.012 -0.5811  1.1573 -1.2587
  160MOL0     O21035  11.454   5.176   2.218  0.0571 -0.6431  0.6121
  160MOL0     C21036  11.584   5.418   2.203  0.3324 -0.0259  0.0767
  160MOL0     C21037  11.651   5.546   2.193  0.3008  0.0840 -0.1000
  160MOL0     N21038  11.618   6.218   2.179 -0.0389 -0.0474  0.0074
  160MOL0     N21039  11.578   6.319   2.108  0.4956  0.7358 -0.3958
  160MOL0     C21040  11.553   6.021   0.851 -0.6109  0.0435  0.6058
  160MOL0     C21041  11.531   6.024   0.714 -0.6617 -0.4166 -0.3052
  160MOL0     C21042  11.274   6.046   0.318  0.1537 -0.5292  0.6812
  160MOL0     C21043  11.155   6.082   0.242  0.2871  0.4831  0.1019
  160MOL0     C21044  11.159   6.110   0.106  0.0669 -0.6077 -0.7267
  160MOL0     C21045  11.276   6.093   0.035  0.0455 -0.5637 -0.0181
  160MOL0     O21046  11.268   6.083  -0.102 -0.7667  0.3675  0.6373
  160MOL0     C21047  11.389   6.083  -0.188  1.1326  0.7000  0.3100
  160MOL0     C21048  11.419   6.225  -0.214  0.5150  0.7717 -0.3205
  160MOL0     C21049  11.529   6.232  -0.308 -0.0531  0.1175  0.2730
  160MOL0     C21050  11.660   6.191  -0.254  0.7896  0.2804  0.1974
  160MOL0     C21051  11.757   6.187  -0.355 -0.0788  0.7357  0.0034
  160MOL0     C21052  11.842   6.189  -0.443  0.5186 -0.0865 -0.4188
  160MOL0     C21053  11.394   6.058   0.105  0.3050 -0.3386  0.5815
  160MOL0     C21054  11.396   6.042   0.242  0.4929  0.6208 -0.0071
  160MOL0     H21055  11.204   6.143   0.733 -0.8242  1.3630  5.3300
  160MOL0     H21056  11.267   6.171   0.945  0.9043  0.8019  0.2532
  160MOL0     H21057  11.550   5.902   1.092 -0.8222 -0.4334 -1.1841
  160MOL0     H21058  11.374   5.925   1.125 -0.4645 -0.7043  1.8959
  160MOL0     H21059  11.616   5.999   1.293 -1.0470 -2.7675  3.0530
  160MOL0     H21060  11.479   5.906   1.345 -1.3136 -1.3569 -0.7163
  160MOL0     H21061  11.326   6.108   1.333 -0.3306 -1.5136 -2.1671
  160MOL0     H21062  11.486   6.197   1.281  4.3892 -0.6271  0.6283
  160MOL0     H21063  11.440   6.025   1.543  1.5182 -0.7596 -0.6669
  160MOL0     H21064  11.586   6.092   1.497  0.0882 -2.0346 -2.0690
  160MOL0     H21065  11.345   6.263   1.570 -0.1822 -1.7964  0.7830
  160MOL0     H21066  11.495   6.330   1.489  0.5768 -0.4496 -0.6323
  160MOL0     H21067  11.631   6.247   1.658 -0.5396 -1.8429 -1.0776
  160MOL0     H21068  11.517   6.174   1.742  2.2451  0.0336 -0.0479
  160MOL0     H21069  11.514   6.488   1.706  2.0246  0.7808  1.8143
  160MOL0     H21070  11.395   6.388   1.787 -0.1379 -2.0007 -2.2054
  160MOL0     H21071  11.585   6.488   1.923  0.4409  1.0677 -2.5792
  160MOL0     H21072  11.699   6.394   1.832  0.1640 -0.0341 -0.0157
  160MOL0     H21073  11.705   6.125   1.871  1.1897  1.0832 -0.0502
  160MOL0     H21074  11.748   5.929   2.042 -0.7586 -3.3822  2.0039
  160MOL0     H21075  11.670   5.918   2.195  0.2956 -3.3287 -1.4111
  160MOL0     H21076  11.843   6.018   2.318  1.4851  1.6190 -1.0554
  160MOL0     H21077  11.912   6.082   2.178 -1.1672  1.0800  0.1213
  160MOL0     H21078  11.985   5.858   2.105  1.3650 -0.6563  0.2250
  160MOL0     H21079  12.030   5.882   2.264 -0.8932  2.7826 -0.7562
  160MOL0     H21080  11.776   5.772   2.288 -0.0422  1.2272  0.0862
  160MOL0     H21081  11.917   5.669   2.305  0.5466 -1.7397 -2.0136
  160MOL0     H21082  11.923   5.444   2.008  0.2448  1.0050  0.3283
  160MOL0     H21083  11.796   5.221   2.030  1.2288  0.3790  2.3739
  160MOL0     H21084  11.459   4.947   2.306  2.8824  3.1273 -1.5492
  160MOL0     H21085  11.353   4.705   2.287 -2.3153  1.9493 -1.2412
  160MOL0     H21086  11.229   4.571   2.189  0.6894  2.2382  0.6970
  160MOL0     H21087  11.341   4.429   2.187 -0.7674  0.9297  0.5436
  160MOL0     H21088  11.121   4.369   2.095  1.0233 -0.5628  1.3412
  160MOL0     H21089  11.255   4.374   1.974  1.0466  3.6959 -2.5053
  160MOL0     H21090  11.115   4.637   2.001  1.0900 -1.1315  0.9498
  160MOL0     H21091  11.008   4.500   1.931  0.6042 -0.4140  0.3406
  160MOL0     H21092  11.266   4.606   1.808  0.2565 -0.0010 -0.6179
  160MOL0     H21093  11.185   4.450   1.778  1.5032  1.5053 -1.2315
  160MOL0     H21094  10.991   4.536   1.707  0.6672  0.6793 -0.5932
  160MOL0     H21095  11.131   4.596   1.611  1.2820  2.5202  0.0500
  160MOL0     H21096  11.115   4.812   1.696 -0.1255  0.2122  0.0054
  160MOL0     H21097  11.031   4.768   1.844 -0.9349  0.9184 -0.7842
  160MOL0     H21098  10.929   4.768   1.563 -1.2526  1.6276 -0.0531
  160MOL0     H21099  10.832   4.736   1.705 -1.0199  1.1289 -1.0316
  160MOL0     H21100  10.979   5.010   1.640 -0.5893  1.4585 -0.2674
  160MOL0     H21101  10.875   4.970   1.777 -2.1214 -0.6317  0.2383
  160MOL0     H21102  11.551   4.671   1.908  1.9899  0.8024  0.0835
  160MOL0     H21103  11.670   4.878   1.946  0.2430 -0.1325 -0.8053
  160MOL0     H21104  11.491   5.419   2.258  0.8215  0.4760  0.9270
  160MOL0     H21105  11.601   5.629   2.243 -0.0482  0.3254 -0.8456
  160MOL0     H21106  11.647   5.985   0.890 -1.0187 -2.1455 -0.2904
  160MOL0     H21107  11.603   5.993   0.639 -0.9778  0.1425 -0.8490
  160MOL0     H21108  11.058   6.090   0.289  0.3679  1.0072  0.1772
  160MOL0     H21109  11.066   6.135   0.056 -0.3706  1.6543  1.0401
  160MOL0     H21110  11.357   6.034  -0.280  2.8621  0.0089  0.0351
  160MOL0     H21111  11.470   6.027  -0.141  0.6641  1.5632  2.2860
  160MOL0     H21112  11.330   6.280  -0.247  0.4950  1.1300  0.3303
  160MOL0     H21113  11.451   6.271  -0.121 -0.8133  0.4656  0.3252
  160MOL0     H21114  11.521   6.337  -0.337  2.3718  0.8901  2.0231
  160MOL0     H21115  11.516   6.164  -0.393  0.4005 -1.6023  1.5187
  160MOL0     H21116  11.689   6.254  -0.170 -0.1240 -2.3962  2.7024
  160MOL0     H21117  11.651   6.091  -0.210 -3.3454  0.4752  0.1644
  160MOL0     H21118  11.903   6.201  -0.530 -0.3062  1.0532 -0.8749
  160MOL0     H21119  11.490   6.041   0.058 -0.1969 -1.7994  0.0316
  160MOL0     H21120  11.494   6.017   0.284 -0.4671 -0.5856  1.6673
  161MOL0     O21121   9.197  11.267  10.815 -0.0001 -0.3919  0.6314
  161MOL0     C21122   9.110  11.349  10.779 -0.1204  0.6204 -0.0716
  161MOL0     O21123   9.138  11.442  10.683  0.3405  0.3493  0.0359
  161MOL0     C21124   9.273  11.461  10.662  0.7224  0.1322 -0.1192
  161MOL0     C21125   9.355  11.387  10.577  1.1248 -0.5425  1.2575
  161MOL0     C21126   9.484  11.436  10.560 -0.3077  0.3089 -0.3648
  161MOL0     C21127   9.539  11.543  10.627  0.1292 -1.6226  0.3516
  161MOL0     O21128   9.671  11.587  10.616 -0.4968  0.3748  0.0777
  161MOL0     C21129   9.693  11.683  10.509 -0.6342 -0.5514 -0.5265
  161MOL0     C21130   9.648  11.826  10.554 -0.1529  0.3837 -0.6405
  161MOL0     C21131   9.728  11.933  10.493 -0.2046  0.5670 -1.1168
  161MOL0     C21132   9.704  12.078  10.554 -0.2308 -0.0390  0.0336
  161MOL0     C21133   9.566  12.115  10.512  0.2732  0.6587 -0.4818
  161MOL0     C21134   9.544  12.262  10.538  0.4177  0.7140 -0.3597
  161MOL0     C21135   9.423  12.298  10.448  1.8082 -0.1107 -0.0289
  161MOL0     C21136   9.375  12.438  10.465  0.4958  0.0580  0.4913
  161MOL0     N21137   9.486  12.526  10.448  1.3315 -0.2561  0.4739
  161MOL0     C21138   9.513  12.575  10.322  0.7594  0.9624  0.9872
  161MOL0     C21139   9.619  12.653  10.344 -0.1154  0.6700 -0.2402
  161MOL0     C21140   9.707  12.726  10.254  0.4750 -0.3134 -0.6207
  161MOL0     C21141   9.743  12.626  10.155 -0.3107 -0.0103 -0.4892
  161MOL0     C21142   9.851  12.678  10.064  0.2464 -0.2735 -0.6282
  161MOL0     C21143   9.856  12.597   9.925  0.8547 -0.4419 -0.1558
  161MOL0     O21144   9.905  12.463   9.948  0.2319 -0.4322  1.0959
  161MOL0     C21145   9.867  12.370   9.850  0.5114 -0.9223 -0.0385
  161MOL0     C21146   9.755  12.288   9.885  0.5072 -0.5103  0.3749
  161MOL0     C21147   9.702  12.201   9.789  0.2383  0.0270 -1.0243
  161MOL0     C21148   9.766  12.188   9.660  1.1580 -0.0452  0.2437
  161MOL0     C21149   9.689  12.102   9.557  0.0154  0.6778 -0.3779
  161MOL0     O21150   9.749  12.101   9.430  0.3254  0.3425  0.7423
  161MOL0     C21151   9.737  12.008   9.330  0.0666 -0.8891  0.4914
  161MOL0     C21152   9.843  12.001   9.236  0.5018  0.8135 -0.2791
  161MOL0     C21153   9.829  11.914   9.128 -0.8099 -0.2217  0.0092
  161MOL0     C21154   9.725  11.826   9.111 -0.0872 -0.4664  0.4797
  161MOL0     O21155   9.735  11.726   9.013  1.0560  0.0799 -0.7654
  161MOL0     C21156   9.616  11.704   8.934  0.0050  0.3090 -0.7340
  161MOL0     C21157   9.542  11.574   8.967  0.5267  0.4283  0.1529
  161MOL0     C21158   9.614  11.440   8.938  0.3031 -0.1034 -0.3092
  161MOL0     C21159   9.523  11.326   8.975 -0.5605 -0.0451  0.2083
  161MOL0     C21160   9.537  11.276   9.124 -0.5082 -0.3376  0.9308
  161MOL0     C21161   9.485  11.136   9.148  1.0185  0.1270  0.9021
  161MOL0     C21162   9.340  11.133   9.166 -0.0105  0.4623  0.0551
  161MOL0     C21163   9.312  11.162   9.319 -0.4695  0.1067  0.0608
  161MOL0    Cl21164   9.136  11.134   9.351  0.0130  0.0619  0.1784
  161MOL0     C21165   9.624  11.822   9.209  0.3584  0.0725  0.3360
  161MOL0     C21166   9.635  11.914   9.316 -0.2926 -0.4477 -0.1263
  161MOL0     O21167   9.587  12.048   9.587 -0.3063 -0.1104  0.0307
  161MOL0     C21168   9.891  12.256   9.637  1.5285  0.2910 -0.1807
  161MOL0     C21169   9.936  12.348   9.729  0.1862  0.3957  1.3757
  161MOL0     N21170   9.641  12.662  10.480 -0.0729 -0.1527 -0.1176
  161MOL0     N21171   9.567  12.584  10.545 -0.4935  0.0128  0.6827
  161MOL0     C21172   9.458  11.602  10.725  0.3608 -0.5026  0.6235
  161MOL0     C21173   9.327  11.573  10.728  0.1488  0.6827  0.0510
  161MOL0     C21174   8.975  11.346  10.833 -0.3377 -0.4197  0.4858
  161MOL0     C21175   8.932  11.237  10.909 -0.0317 -0.0389 -0.7543
  161MOL0     C21176   8.800  11.231  10.964  0.9858  0.8477 -0.2607
  161MOL0     C21177   8.707  11.329  10.934 -1.2111 -0.9702 -0.3627
  161MOL0     O21178   8.583  11.314  10.987  0.5617  0.2404 -0.7241
  161MOL0     C21179   8.469  11.399  10.962  0.1467 -0.9169 -0.1842
  161MOL0     C21180   8.350  11.344  11.040 -0.0923  0.2417 -0.3240
  161MOL0     C21181   8.226  11.435  11.050  0.3398  0.3241  0.1621
  161MOL0     C21182   8.170  11.475  10.914  0.1644 -0.0426  0.3474
  161MOL0     C21183   8.042  11.553  10.922 -0.0577 -0.5813  0.2303
  161MOL0     C21184   7.948  11.627  10.946 -0.0578 -0.2572  0.1402
  161MOL0     C21185   8.735  11.434  10.847 -1.0297  0.9088  0.1176
  161MOL0     C21186   8.872  11.444  10.797 -0.7221  0.4822  0.2375
  161MOL0     H21187   9.322  11.296  10.529 -0.3614  0.4459  0.3109
  161MOL0     H21188   9.558  11.380  10.504  1.0780  1.9937 -0.2702
  161MOL0     H21189   9.646  11.664  10.412 -0.7384 -0.3154 -0.5239
  161MOL0     H21190   9.800  11.686  10.487 -0.7576 -2.3507 -1.5811
  161MOL0     H21191   9.654  11.839  10.663  1.8920  1.5074 -0.8321
  161MOL0     H21192   9.544  11.835  10.522 -0.9569  3.5541  2.2295
  161MOL0     H21193   9.725  11.920  10.385 -0.8516 -1.2156 -0.9238
  161MOL0     H21194   9.829  11.909  10.527 -1.1138 -3.1462 -0.5034
  161MOL0     H21195   9.719  12.068  10.662  2.0211 -2.5979 -0.3857
  161MOL0     H21196   9.773  12.151  10.510 -0.1413  0.6557  1.2861
  161MOL0     H21197   9.495  12.060  10.575  2.4902 -0.6988  0.9906
  161MOL0     H21198   9.563  12.081  10.408 -1.1809 -0.2845 -0.1765
  161MOL0     H21199   9.624  12.320  10.491 -1.4351  2.8674 -1.0570
  161MOL0     H21200   9.534  12.279  10.645 -1.2953 -4.3182  0.5395
  161MOL0     H21201   9.445  12.301  10.341 -2.4415  1.9815 -1.0582
  161MOL0     H21202   9.341  12.227  10.466  0.9782  1.1054  1.1523
  161MOL0     H21203   9.341  12.455  10.567 -0.9111  1.2729 -0.1467
  161MOL0     H21204   9.286  12.464  10.406  0.4205  0.0913  0.6187
  161MOL0     H21205   9.468  12.546  10.228  1.5845 -1.7804  1.3519
  161MOL0     H21206   9.791  12.756  10.317 -1.0102 -2.4673  2.7081
  161MOL0     H21207   9.658  12.812  10.208  0.9470  0.7563  0.8011
  161MOL0     H21208   9.655  12.618  10.090  1.1208  0.5465 -2.6245
  161MOL0     H21209   9.766  12.528  10.197 -0.0795 -0.1078 -0.8356
  161MOL0     H21210   9.832  12.784  10.044  1.0293 -0.5302 -3.1956
  161MOL0     H21211   9.951  12.672  10.108 -1.2548  2.1046  3.6360
  161MOL0     H21212   9.927  12.648   9.860 -1.8698  1.0022 -2.2067
  161MOL0     H21213   9.759  12.594   9.874  1.2849 -2.0502 -0.9517
  161MOL0     H21214   9.707  12.296   9.982 -0.4757 -3.9757  0.3331
  161MOL0     H21215   9.613  12.146   9.815 -0.5727  1.8643  0.2988
  161MOL0     H21216   9.941  12.043   9.257  0.7688 -0.5174  1.4313
  161MOL0     H21217   9.899  11.903   9.045 -1.4523 -0.0956 -0.5654
  161MOL0     H21218   9.656  11.703   8.832 -2.3855  1.2717 -1.7523
  161MOL0     H21219   9.546  11.786   8.949  1.0019  0.8512  1.2970
  161MOL0     H21220   9.454  11.567   8.903  1.8862 -3.9019 -1.6083
  161MOL0     H21221   9.508  11.575   9.071 -0.0088  2.5390  0.0080
  161MOL0     H21222   9.707  11.446   8.996  0.2718  0.5695 -0.3196
  161MOL0     H21223   9.640  11.440   8.832  1.0750  1.0361 -0.1426
  161MOL0     H21224   9.416  11.343   8.960 -0.7589 -0.9397  0.5296
  161MOL0     H21225   9.552  11.238   8.916  1.8527 -0.6406  2.1100
  161MOL0     H21226   9.506  11.358   9.190  0.8861  0.9050  0.0904
  161MOL0     H21227   9.645  11.263   9.127 -0.1065  1.7164 -1.8347
  161MOL0     H21228   9.539  11.110   9.240 -0.0371 -0.2629  1.4195
  161MOL0     H21229   9.527  11.060   9.080  1.2630 -0.8232  2.0643
  161MOL0     H21230   9.283  11.207   9.109 -3.2114 -2.4968 -0.8719
  161MOL0     H21231   9.304  11.034   9.138 -0.2660 -0.2000  2.5474
  161MOL0     H21232   9.338  11.259   9.362  2.8580 -0.3875 -0.5880
  161MOL0     H21233   9.379  11.096   9.375 -0.5994 -0.0445  0.0398
  161MOL0     H21234   9.544  11.753   9.183  0.7983 -0.2143 -0.2799
  161MOL0     H21235   9.558  11.907   9.393  0.8954 -1.2676  1.0395
  161MOL0     H21236   9.943  12.256   9.541  1.1999  1.3809 -0.3651
  161MOL0     H21237  10.021  12.410   9.701  2.4934 -1.5256  3.6944
  161MOL0     H21238   9.490  11.679  10.794 -0.1542 -0.7694  1.1649
  161MOL0     H21239   9.269  11.630  10.800  0.3228  0.5201  0.3193
  161MOL0     H21240   9.005  11.158  10.924 -0.6979 -0.4854  0.2652
  161MOL0     H21241   8.777  11.149  11.031  2.5713  0.6292  0.0562
  161MOL0     H21242   8.453  11.405  10.853  0.3353 -1.6540 -0.2541
  161MOL0     H21243   8.496  11.498  10.999 -2.0919 -0.3631  0.1082
  161MOL0     H21244   8.321  11.247  10.998 -4.3523  0.5622  1.2913
  161MOL0     H21245   8.384  11.330  11.142  0.1285  4.6521  0.3998
  161MOL0     H21246   8.258  11.525  11.104  3.1510 -0.1519 -0.5438
  161MOL0     H21247   8.143  11.381  11.097  1.1194 -1.0962 -0.0266
  161MOL0     H21248   8.240  11.536  10.856  0.9069 -0.4671  0.7853
  161MOL0     H21249   8.148  11.390  10.850  0.6270  1.6132 -2.1902
  161MOL0     H21250   7.874  11.704  10.955  0.8555  0.4669  1.8142
  161MOL0     H21251   8.655  11.500  10.817  0.5249  2.7286 -0.2567
  161MOL0     H21252   8.899  11.532  10.739 -2.8082  1.3832  0.5325
  162MOL0     O21253   3.041   3.386   9.779 -0.9153  0.2316 -0.1229
  162MOL0     C21254   3.086   3.461   9.865 -0.2508  0.6412  0.7640
  162MOL0     O21255   3.054   3.596   9.885 -0.4229 -0.1612 -0.3524
  162MOL0     C21256   2.941   3.642   9.824 -0.2446 -0.0578 -1.8561
  162MOL0     C21257   2.939   3.673   9.687 -0.4904 -1.2910 -0.3400
  162MOL0     C21258   2.819   3.725   9.639  0.7716 -0.5352 -0.7954
  162MOL0     C21259   2.708   3.755   9.723  0.2558 -0.1036 -0.5308
  162MOL0     O21260   2.597   3.814   9.659 -0.2362  0.7484 -0.7359
  162MOL0     C21261   2.612   3.945   9.606  0.2524 -0.7202  1.2010
  162MOL0     C21262   2.601   4.041   9.721  0.3279 -0.7332  0.1590
  162MOL0     C21263   2.595   4.185   9.683 -0.0909  0.2409 -0.0697
  162MOL0     C21264   2.523   4.260   9.792  0.7241  0.3702 -0.5793
  162MOL0     C21265   2.488   4.409   9.762  0.0651 -0.2938  1.2672
  162MOL0     C21266   2.598   4.507   9.733 -1.1325 -0.1158  0.0024
  162MOL0     C21267   2.533   4.654   9.712  0.0755  0.5714  0.3622
  162MOL0     C21268   2.512   4.702   9.567  0.2082  0.4127  0.3414
  162MOL0     N21269   2.432   4.617   9.475  0.0666 -0.6314  0.5204
  162MOL0     C21270   2.296   4.616   9.473 -0.3504  0.6180 -0.1284
  162MOL0     C21271   2.260   4.531   9.381  0.1079 -1.0387 -0.5839
  162MOL0     C21272   2.117   4.497   9.336 -0.6813  0.7815 -0.3628
  162MOL0     C21273   2.055   4.616   9.265  0.5869  0.7309  0.4532
  162MOL0     C21274   1.925   4.571   9.195 -0.1010  0.7030 -0.2905
  162MOL0     C21275   1.852   4.696   9.133 -0.0897 -0.4892 -0.4548
  162MOL0     O21276   1.824   4.800   9.227 -0.0753  0.0516 -0.1553
  162MOL0     C21277   1.703   4.809   9.290 -0.2626  1.1188  0.6504
  162MOL0     C21278   1.662   4.931   9.355 -0.5800  0.1031  0.0461
  162MOL0     C21279   1.533   4.950   9.406 -0.6995  0.0886 -0.3699
  162MOL0     C21280   1.444   4.834   9.409 -0.2172  0.7894 -0.3692
  162MOL0     C21281   1.313   4.835   9.473 -0.5432  0.1810 -0.5081
  162MOL0     O21282   1.261   4.714   9.506  0.4154  0.5392  0.2330
  162MOL0     C21283   1.136   4.715   9.556  0.3334  0.2064 -0.7147
  162MOL0     C21284   1.118   4.694   9.688 -0.0333 -0.9529 -0.6178
  162MOL0     C21285   0.985   4.704   9.743  0.5310  0.8335 -0.4778
  162MOL0     C21286   0.866   4.710   9.663  0.7605  0.5692  0.7253
  162MOL0     O21287   0.734   4.702   9.698  0.3747  0.4016  0.0715
  162MOL0     C21288   0.675   4.773   9.802 -0.8209  0.3709  0.3452
  162MOL0     C21289   0.690   4.710   9.939 -0.8344  0.8006 -0.0561
  162MOL0     C21290   0.618   4.787  10.045 -0.2056  0.0370  0.7369
  162MOL0     C21291   0.484   4.733  10.083 -0.4539  0.0987 -0.9920
  162MOL0     C21292   0.455   4.774  10.223  0.2627 -0.7197 -0.0400
  162MOL0     C21293   0.311   4.720  10.258 -0.1777 -0.2721 -0.3778
  162MOL0     C21294   0.196   4.783  10.195 -0.4401 -0.8533 -0.1340
  162MOL0     C21295   0.057   4.742  10.254  0.0331  0.3413  0.6966
  162MOL0    Cl21296   0.023   4.571  10.271  0.0225  0.2544  0.0177
  162MOL0     C21297   0.894   4.715   9.526  0.5859  1.2999  0.2176
  162MOL0     C21298   1.020   4.719   9.467  0.1389 -0.7458 -0.7433
  162MOL0     O21299   1.268   4.948   9.497  0.1704 -0.3046 -0.3345
  162MOL0     C21300   1.500   4.706   9.361  0.3409 -0.1747 -0.1953
  162MOL0     C21301   1.616   4.696   9.295  0.2644 -0.4645  0.4084
  162MOL0     N21302   2.373   4.473   9.332  0.4331 -0.0385  0.0389
  162MOL0     N21303   2.475   4.526   9.383 -0.3677  0.1304 -1.1507
  162MOL0     C21304   2.711   3.718   9.857 -0.5960  0.5076 -0.6259
  162MOL0     C21305   2.830   3.664   9.912 -0.2123 -0.3910  0.4306
  162MOL0     C21306   3.205   3.409   9.941  0.3545  0.4859  1.1632
  162MOL0     C21307   3.247   3.274   9.922  0.9115 -0.2255 -0.5384
  162MOL0     C21308   3.369   3.234   9.978 -0.6305  0.1140  0.4162
  162MOL0     C21309   3.426   3.303  10.081 -0.4638 -0.3176  0.1285
  162MOL0     O21310   3.526   3.239  10.148 -0.8627 -0.1590 -0.3824
  162MOL0     C21311   3.644   3.324  10.160  0.0191 -0.1305  0.1812
  162MOL0     C21312   3.754   3.221  10.187 -0.0784 -0.0070  0.8444
  162MOL0     C21313   3.792   3.152  10.058 -0.7583  0.1607  0.3142
  162MOL0     C21314   3.936   3.099  10.061  0.2728  0.2045 -0.0485
  162MOL0     C21315   3.957   2.980  10.141  0.3912  0.5567 -0.1636
  162MOL0     C21316   3.953   2.878  10.200 -0.3775 -0.7646  0.0923
  162MOL0     C21317   3.376   3.423  10.120 -0.7174 -0.1703  0.3439
  162MOL0     C21318   3.268   3.476  10.043  0.3793 -0.6053  0.0723
  162MOL0     H21319   3.026   3.646   9.628  0.5840  0.0709  0.5421
  162MOL0     H21320   2.801   3.742   9.533  0.2423 -2.6378 -1.0990
  162MOL0     H21321   2.553   3.958   9.515  0.5167 -1.8350  0.8511
  162MOL0     H21322   2.712   3.972   9.573 -1.2179  3.4799 -0.4671
  162MOL0     H21323   2.683   4.035   9.794 -3.2372 -2.9273  4.5156
  162MOL0     H21324   2.511   4.015   9.777  0.4895 -2.4716 -0.3175
  162MOL0     H21325   2.534   4.197   9.592  2.5019 -0.7905 -2.0750
  162MOL0     H21326   2.699   4.215   9.672  1.2403 -4.4040 -4.3402
  162MOL0     H21327   2.423   4.220   9.808  0.0675  0.5525 -3.7405
  162MOL0     H21328   2.572   4.256   9.890  0.4794  2.1233 -0.3358
  162MOL0     H21329   2.430   4.436   9.850  1.1751  2.0244  1.3741
  162MOL0     H21330   2.422   4.405   9.675  0.4913 -1.1006  0.9675
  162MOL0     H21331   2.668   4.482   9.653 -0.6930 -2.0830  0.9425
  162MOL0     H21332   2.654   4.506   9.827 -2.4967 -0.8006  0.8362
  162MOL0     H21333   2.452   4.652   9.786 -1.6222 -0.7041 -1.4032
  162MOL0     H21334   2.611   4.724   9.743  0.0945  2.2984 -3.0816
  162MOL0     H21335   2.611   4.701   9.522  0.7171 -0.5335  1.4287
  162MOL0     H21336   2.457   4.796   9.565 -0.0475  0.2583 -1.3312
  162MOL0     H21337   2.223   4.666   9.537 -1.6335 -1.9951  0.5828
  162MOL0     H21338   2.052   4.480   9.422 -0.2265 -0.1188 -0.1866
  162MOL0     H21339   2.125   4.402   9.283 -0.4871 -0.5075  1.8747
  162MOL0     H21340   2.113   4.662   9.184 -0.8509  0.7291 -0.6362
  162MOL0     H21341   2.032   4.693   9.339 -3.2085 -0.2236  0.4836
  162MOL0     H21342   1.945   4.498   9.116  0.7569 -0.1767  0.7108
  162MOL0     H21343   1.852   4.521   9.259 -0.5987  1.1033 -0.5421
  162MOL0     H21344   1.761   4.665   9.082 -1.4656 -1.0881  2.1741
  162MOL0     H21345   1.916   4.742   9.057  1.6388 -0.2022  1.1126
  162MOL0     H21346   1.730   5.015   9.355  1.8300 -1.6809 -2.3047
  162MOL0     H21347   1.498   5.049   9.434  2.1678  1.3806 -1.0083
  162MOL0     H21348   1.193   4.675   9.764  0.7083  1.4562 -0.6415
  162MOL0     H21349   0.969   4.695   9.850  1.7264 -1.9354 -0.4451
  162MOL0     H21350   0.569   4.793   9.779 -0.3976  0.8894 -1.2813
  162MOL0     H21351   0.704   4.879   9.806  0.5018  0.0613 -0.5914
  162MOL0     H21352   0.796   4.704   9.964 -0.7108  0.2748 -0.6682
  162MOL0     H21353   0.653   4.607   9.926 -0.9565  1.0180 -1.6559
  162MOL0     H21354   0.609   4.896  10.031  2.2252  0.1528 -0.3679
  162MOL0     H21355   0.677   4.785  10.137  0.1526 -0.1913  0.5014
  162MOL0     H21356   0.401   4.753  10.015 -2.8720 -1.6393  1.2298
  162MOL0     H21357   0.484   4.624  10.091 -0.8289  0.1294 -0.4876
  162MOL0     H21358   0.455   4.884  10.223  1.1171 -0.7119  0.7303
  162MOL0     H21359   0.523   4.736  10.299  1.5413  0.6015 -0.4873
  162MOL0     H21360   0.297   4.741  10.365  1.3874 -2.5798  0.3579
  162MOL0     H21361   0.309   4.613  10.236 -2.8816 -0.5689  0.9249
  162MOL0     H21362   0.200   4.892  10.197 -2.3246 -0.6654 -2.4734
  162MOL0     H21363   0.200   4.758  10.089  0.4644 -0.7656 -0.1263
  162MOL0     H21364  -0.010   4.789  10.182 -0.6948 -0.1624  1.0191
  162MOL0     H21365   0.040   4.795  10.348  1.0564  3.2734 -0.6686
  162MOL0     H21366   0.820   4.692   9.450  0.5015 -2.8195  1.2729
  162MOL0     H21367   1.028   4.718   9.359  0.4533 -4.8045 -0.8417
  162MOL0     H21368   1.437   4.618   9.361 -0.6695  0.4687 -2.3079
  162MOL0     H21369   1.644   4.597   9.262 -2.2726 -2.1375  2.8174
  162MOL0     H21370   2.625   3.737   9.920  1.3827 -2.1554  3.2807
  162MOL0     H21371   2.836   3.655  10.020 -2.8051 -0.3922  0.6351
  162MOL0     H21372   3.191   3.199   9.867  0.5471  1.0057 -1.8892
  162MOL0     H21373   3.414   3.137   9.958 -2.1362 -0.6581  0.6228
  162MOL0     H21374   3.634   3.401  10.236 -2.5827  0.3204 -0.5058
  162MOL0     H21375   3.669   3.379  10.069 -0.6051  0.5546  0.4133
  162MOL0     H21376   3.840   3.280  10.220  0.1726  1.4140 -2.0455
  162MOL0     H21377   3.729   3.150  10.266  2.0637 -0.9528  0.7515
  162MOL0     H21378   3.763   3.217   9.975 -1.0475  4.5439  3.4829
  162MOL0     H21379   3.732   3.062  10.046 -0.8342 -0.2943  3.3535
  162MOL0     H21380   3.962   3.075   9.958  0.2227  0.8401 -0.2124
  162MOL0     H21381   4.006   3.175  10.098  1.1749 -0.2226 -0.8346
  162MOL0     H21382   3.959   2.775  10.229 -3.0179 -1.0981 -0.2182
  162MOL0     H21383   3.405   3.489  10.201  0.9539  1.8945 -1.7881
  162MOL0     H21384   3.227   3.574  10.067 -0.9578 -0.3456 -2.8816
  163MOL0     O21385   5.351   0.383  10.030  0.2933 -0.4599  0.0494
  163MOL0     C21386   5.366   0.505  10.034  0.1206  0.1967  0.1130
  163MOL0     O21387   5.426   0.569  10.135  0.5864  0.1162 -0.0468
  163MOL0     C21388   5.472   0.497  10.248 -0.7719 -0.5318 -0.3008
  163MOL0     C21389   5.386   0.423  10.327 -0.1369  0.7078  0.5349
  163MOL0     C21390   5.436   0.357  10.439 -0.2096 -0.5168 -0.7423
  163MOL0     C21391   5.567   0.372  10.486 -0.1226  0.3929  0.2928
  163MOL0     O21392   5.611   0.314  10.606  0.2211  0.1810 -0.3130
  163MOL0     C21393   5.750   0.274  10.617  0.0342 -0.5603  0.6511
  163MOL0     C21394   5.761   0.155  10.721 -0.9175 -0.0201  0.1941
  163MOL0     C21395   5.704   0.200  10.854  0.4316  0.6563 -0.8158
  163MOL0     C21396   5.728   0.082  10.950 -0.4186 -0.4112  1.3494
  163MOL0     C21397   5.728   0.104  11.096  0.4107  0.2079 -0.6796
  163MOL0     C21398   5.709  -0.026  11.166  0.6709  0.2143 -0.9657
  163MOL0     C21399   5.672  -0.001  11.314  0.4558 -0.3792 -0.4522
  163MOL0     C21400   5.559  -0.072  11.382  0.5939 -0.0875 -0.0018
  163MOL0     N21401   5.416  -0.045  11.330  0.3986  0.3949  0.7381
  163MOL0     C21402   5.371   0.072  11.276 -0.1190  0.4109  0.8464
  163MOL0     C21403   5.241   0.044  11.251 -0.5190  0.3742  0.2991
  163MOL0     C21404   5.135   0.135  11.199  0.0811 -0.2650  0.8533
  163MOL0     C21405   5.106   0.133  11.051  0.3664  0.3656  0.3863
  163MOL0     C21406   5.232   0.156  10.969  0.1442 -0.3247 -0.0576
  163MOL0     C21407   5.205   0.141  10.819  0.5173  0.8391 -0.3105
  163MOL0     O21408   5.114   0.246  10.772 -0.0900 -0.5956 -1.1862
  163MOL0     C21409   5.010   0.213  10.681  0.0880 -0.6168  0.0708
  163MOL0     C21410   4.926   0.314  10.642  0.8095  0.2361  0.4817
  163MOL0     C21411   4.838   0.307  10.532  1.3910 -0.6062 -0.1037
  163MOL0     C21412   4.810   0.185  10.471 -0.4790  1.3906 -0.4904
  163MOL0     C21413   4.705   0.152  10.375 -0.7615 -0.6892  0.3512
  163MOL0     O21414   4.642   0.035  10.397 -0.3552 -0.5412  0.1723
  163MOL0     C21415   4.549  -0.008  10.308  0.5296 -0.7716  0.5146
  163MOL0     C21416   4.441   0.073  10.274 -0.3716 -0.6668  0.3297
  163MOL0     C21417   4.351   0.026  10.176 -0.0162  0.9024 -0.0598
  163MOL0     C21418   4.374  -0.096  10.108 -0.2053  0.1111  0.2105
  163MOL0     O21419   4.269  -0.136  10.025 -0.5276  0.2380 -0.1802
  163MOL0     C21420   4.277  -0.260   9.960  0.1485  0.4997  0.5666
  163MOL0     C21421   4.172  -0.258   9.858 -0.1344 -0.2460 -0.6364
  163MOL0     C21422   4.186  -0.376   9.763  1.0339 -0.3258  0.1456
  163MOL0     C21423   4.287  -0.359   9.652 -0.2683 -0.2222  0.2388
  163MOL0     C21424   4.257  -0.256   9.548  0.2870  0.0139 -0.6224
  163MOL0     C21425   4.350  -0.277   9.442  0.3348  0.1809 -0.5544
  163MOL0     C21426   4.316  -0.191   9.324 -0.1081 -0.6316 -0.0390
  163MOL0     C21427   4.438  -0.188   9.231  0.3300 -0.5637 -1.2308
  163MOL0    Cl21428   4.429  -0.326   9.116  0.3713  0.0143 -0.0273
  163MOL0     C21429   4.482  -0.176  10.148 -0.2835  0.2331  0.7183
  163MOL0     C21430   4.564  -0.134  10.255  0.3165  0.1252  0.6941
  163MOL0     O21431   4.677   0.237  10.289  0.8377  0.2808  0.0313
  163MOL0     C21432   4.892   0.076  10.522  0.3452 -0.8751 -0.6993
  163MOL0     C21433   5.011   0.096  10.603  0.2764 -0.5063 -0.0021
  163MOL0     N21434   5.200  -0.082  11.273  0.0720  0.7338  0.5273
  163MOL0     N21435   5.302  -0.132  11.333  0.8229  0.1276 -0.5175
  163MOL0     C21436   5.645   0.450  10.404  0.4210 -0.3675  0.8420
  163MOL0     C21437   5.605   0.516  10.290  0.1411  0.2356 -0.5313
  163MOL0     C21438   5.322   0.578   9.915  0.2862 -0.0298  0.2259
  163MOL0     C21439   5.303   0.510   9.795 -0.1375 -0.3869 -0.0971
  163MOL0     C21440   5.280   0.587   9.683  0.4097 -0.7365  0.1195
  163MOL0     C21441   5.240   0.721   9.688 -0.6939 -0.5283  1.1241
  163MOL0     O21442   5.187   0.791   9.584  0.5648  0.2034  0.0282
  163MOL0     C21443   5.199   0.751   9.443  0.2050 -0.3496  0.6129
  163MOL0     C21444   5.091   0.803   9.356 -0.7470 -0.5576  1.1190
  163MOL0     C21445   4.947   0.773   9.403 -0.0753  0.2976  0.2373
  163MOL0     C21446   4.916   0.626   9.397  0.8807  0.5137  0.7461
  163MOL0     C21447   4.911   0.560   9.266  0.7640  0.2134 -0.1787
  163MOL0     C21448   4.906   0.493   9.170  0.1685 -0.1582  0.0853
  163MOL0     C21449   5.252   0.779   9.812 -0.5001 -0.7559 -0.2210
  163MOL0     C21450   5.294   0.711   9.930  0.2880 -1.0716 -0.2009
  163MOL0     H21451   5.284   0.410  10.291  0.9427 -0.5541 -2.3449
  163MOL0     H21452   5.375   0.289  10.499 -1.5438 -0.2625 -1.7479
  163MOL0     H21453   5.811   0.360  10.647  1.0443  0.3425 -3.3643
  163MOL0     H21454   5.797   0.242  10.523 -0.0544 -2.0973  1.0949
  163MOL0     H21455   5.869   0.149  10.737 -1.3706 -1.4504  3.7197
  163MOL0     H21456   5.732   0.058  10.680  0.4972 -0.1121 -0.6172
  163MOL0     H21457   5.598   0.227  10.848  0.2757  0.1395 -0.4349
  163MOL0     H21458   5.757   0.286  10.897  1.4876 -0.9397  1.2687
  163MOL0     H21459   5.650   0.012  10.918  0.5477 -0.5750 -0.8250
  163MOL0     H21460   5.824   0.037  10.924 -1.0574  0.1950 -2.7275
  163MOL0     H21461   5.644   0.170  11.119 -0.8784 -0.8044 -2.1813
  163MOL0     H21462   5.816   0.158  11.132  1.1246 -1.5172  0.2685
  163MOL0     H21463   5.802  -0.082  11.157  1.5556  1.5792 -0.6836
  163MOL0     H21464   5.628  -0.090  11.130  1.6597 -1.6594 -0.0309
  163MOL0     H21465   5.762  -0.013  11.375  0.4943  2.2043  0.0943
  163MOL0     H21466   5.637   0.102  11.314 -3.0295 -1.3713 -2.9873
  163MOL0     H21467   5.570  -0.075  11.490  2.7499 -1.0371 -0.2012
  163MOL0     H21468   5.580  -0.178  11.366  1.4565  0.1244 -0.3452
  163MOL0     H21469   5.424   0.163  11.253 -1.4287  0.7077 -1.2530
  163MOL0     H21470   5.157   0.236  11.232  0.9621  0.5074 -1.8362
  163MOL0     H21471   5.036   0.108  11.237 -1.6100  0.9163 -2.3406
  163MOL0     H21472   5.025   0.205  11.034 -0.3818 -0.5692 -0.1040
  163MOL0     H21473   5.070   0.031  11.033  3.3079 -0.7476  0.2664
  163MOL0     H21474   5.267   0.256  10.996 -2.2823 -0.0751  2.7590
  163MOL0     H21475   5.304   0.079  10.994 -0.0543 -1.3420 -2.3631
  163MOL0     H21476   5.178   0.035  10.812 -1.1358  1.1441  0.8409
  163MOL0     H21477   5.295   0.145  10.758 -0.5948 -0.5899 -2.1599
  163MOL0     H21478   4.951   0.411  10.684  1.4379 -0.1664  1.0538
  163MOL0     H21479   4.800   0.403  10.498  1.5330 -0.5786 -0.1840
  163MOL0     H21480   4.431   0.178  10.302 -1.8486 -0.1192 -1.9387
  163MOL0     H21481   4.266   0.083  10.139 -2.9271 -0.7622  3.4313
  163MOL0     H21482   4.241  -0.338  10.027 -0.7650  2.0485  1.9750
  163MOL0     H21483   4.371  -0.292   9.915  0.3095 -0.8558  1.8041
  163MOL0     H21484   4.166  -0.163   9.804 -2.3150 -1.0627 -1.9864
  163MOL0     H21485   4.079  -0.258   9.915 -0.2680  0.6591 -0.8385
  163MOL0     H21486   4.088  -0.411   9.729  1.5460 -1.4056 -0.2528
  163MOL0     H21487   4.221  -0.459   9.825 -0.8865 -1.3828 -0.1228
  163MOL0     H21488   4.384  -0.351   9.702 -0.5583 -2.1555  1.2427
  163MOL0     H21489   4.294  -0.461   9.613 -0.4619  0.1063 -0.6613
  163MOL0     H21490   4.256  -0.153   9.586 -0.8707 -1.4464  3.9853
  163MOL0     H21491   4.159  -0.286   9.510 -0.9815  0.1791  2.2347
  163MOL0     H21492   4.348  -0.379   9.402  0.3496  0.3325 -0.9524
  163MOL0     H21493   4.456  -0.269   9.465  0.9555  1.9159 -3.4910
  163MOL0     H21494   4.227  -0.226   9.272 -0.2130  1.0772 -1.0699
  163MOL0     H21495   4.297  -0.089   9.356  3.4263 -0.1589  1.0138
  163MOL0     H21496   4.538  -0.168   9.271 -0.6969  0.9441  0.8031
  163MOL0     H21497   4.407  -0.098   9.177 -0.1762 -0.8382 -1.3985
  163MOL0     H21498   4.493  -0.277  10.109 -0.8147  0.8542 -1.1371
  163MOL0     H21499   4.647  -0.202  10.270 -0.4964 -1.0918 -0.1661
  163MOL0     H21500   4.872  -0.016  10.469  0.2472 -0.3925 -1.5268
  163MOL0     H21501   5.067   0.007  10.629 -2.7538 -2.4054  0.4817
  163MOL0     H21502   5.747   0.479  10.428  0.9572 -1.2529 -0.2848
  163MOL0     H21503   5.679   0.564  10.227  0.2533  3.5776  1.8394
  163MOL0     H21504   5.335   0.407   9.782  0.4364  0.1156 -3.3108
  163MOL0     H21505   5.257   0.529   9.595 -3.1346 -3.4033  2.5394
  163MOL0     H21506   5.220   0.644   9.432  3.3318  0.2844 -0.8069
  163MOL0     H21507   5.284   0.800   9.394 -0.0345 -2.3322 -2.0764
  163MOL0     H21508   5.102   0.912   9.351 -1.6682 -0.5035 -1.8198
  163MOL0     H21509   5.086   0.771   9.251  0.6652 -0.6140  1.0528
  163MOL0     H21510   4.864   0.820   9.350 -0.1260 -0.4001 -0.3155
  163MOL0     H21511   4.939   0.802   9.508  2.0085 -2.5746  1.3478
  163MOL0     H21512   4.992   0.575   9.458 -0.7825 -0.2686  2.2369
  163MOL0     H21513   4.820   0.606   9.445  0.9631  1.3071  1.2619
  163MOL0     H21514   4.893   0.425   9.089 -3.6410  0.0813  0.3129
  163MOL0     H21515   5.209   0.874   9.842  0.2313 -0.6296  0.4717
  163MOL0     H21516   5.295   0.767  10.023  1.6004  0.0516 -0.8576
  164MOL0     O21517   4.475   3.353   9.506  0.4559  1.1423  0.0108
  164MOL0     C21518   4.487   3.246   9.568  0.4331 -1.1707  0.4142
  164MOL0     O21519   4.500   3.236   9.707  0.0470  0.6373  0.2266
  164MOL0     C21520   4.497   3.349   9.787 -0.8603 -0.0236  1.3733
  164MOL0     C21521   4.427   3.463   9.762 -0.1220  0.2249  0.4527
  164MOL0     C21522   4.443   3.583   9.829  0.2607 -0.4652  0.3333
  164MOL0     C21523   4.545   3.597   9.919  0.7852  0.0499 -1.0302
  164MOL0     O21524   4.564   3.717   9.985 -0.4741 -0.6747 -1.2576
  164MOL0     C21525   4.657   3.737  10.098 -0.9008  0.0638  0.4738
  164MOL0     C21526   4.671   3.895  10.118  0.8678  0.3341  0.1330
  164MOL0     C21527   4.702   3.960   9.983 -1.0545  0.0160 -1.0824
  164MOL0     C21528   4.674   4.112   9.992  0.2411  0.0604 -0.5124
  164MOL0     C21529   4.749   4.189   9.896 -0.2146 -0.6080 -0.1786
  164MOL0     C21530   4.767   4.345   9.905  0.1585 -0.1170 -0.5663
  164MOL0     C21531   4.850   4.406   9.800 -0.5632 -0.3691 -0.2159
  164MOL0     C21532   4.768   4.475   9.687 -0.3837  0.3799 -0.4534
  164MOL0     N21533   4.716   4.385   9.580 -0.4364  0.0685 -0.3770
  164MOL0     C21534   4.779   4.334   9.459  0.6372  0.4879  0.2140
  164MOL0     C21535   4.678   4.271   9.399  0.7758 -0.2648 -0.7021
  164MOL0     C21536   4.682   4.234   9.250  0.3126 -0.6467 -0.2935
  164MOL0     C21537   4.549   4.245   9.176 -0.4670 -0.4185 -0.0337
  164MOL0     C21538   4.585   4.220   9.030  0.4246 -1.3653 -0.5799
  164MOL0     C21539   4.466   4.262   8.954  0.3698 -0.2087  0.9865
  164MOL0     O21540   4.457   4.163   8.846 -0.7073  0.4074 -0.3890
  164MOL0     C21541   4.385   4.180   8.734  0.3999 -0.0826  0.7301
  164MOL0     C21542   4.399   4.093   8.634 -1.2058 -0.0441  0.0516
  164MOL0     C21543   4.337   4.112   8.509 -0.3970  0.3242 -0.6489
  164MOL0     C21544   4.240   4.203   8.491 -0.1225  0.0228 -0.2788
  164MOL0     C21545   4.153   4.190   8.380  0.0963  0.4462  0.7578
  164MOL0     O21546   4.194   4.119   8.273 -0.3036  0.0514  0.0126
  164MOL0     C21547   4.127   4.118   8.155 -0.8091  1.2753  0.6995
  164MOL0     C21548   4.213   4.069   8.054 -0.1148  0.1150 -0.0855
  164MOL0     C21549   4.168   4.061   7.925  0.6265 -0.0932 -0.3094
  164MOL0     C21550   4.037   4.092   7.889 -0.2717  0.8087  0.1238
  164MOL0     O21551   3.990   4.067   7.768  0.3183  0.1431 -0.2596
  164MOL0     C21552   3.911   4.168   7.708 -0.4303 -0.1461  0.5161
  164MOL0     C21553   3.946   4.149   7.560 -0.6247  0.2264 -0.1753
  164MOL0     C21554   3.850   4.216   7.463  0.3712  0.0330 -0.4011
  164MOL0     C21555   3.913   4.240   7.316 -0.0295 -0.4399 -0.4432
  164MOL0     C21556   3.814   4.313   7.212  0.0469  1.2457 -0.9996
  164MOL0     C21557   3.782   4.451   7.246 -0.2301  0.3595  0.2567
  164MOL0     C21558   3.891   4.558   7.254  0.3228 -0.1169  0.1957
  164MOL0     C21559   3.953   4.600   7.123  1.0853  0.1842  0.9076
  164MOL0    Cl21560   4.078   4.735   7.143  0.2052  0.2598  1.0020
  164MOL0     C21561   3.944   4.115   7.989 -0.6562 -0.1157  0.3991
  164MOL0     C21562   3.992   4.138   8.122 -0.2672 -0.0234 -0.9285
  164MOL0     O21563   4.047   4.260   8.384 -0.0716 -0.5050  0.2049
  164MOL0     C21564   4.203   4.272   8.612  0.3346  0.3669  0.1639
  164MOL0     C21565   4.290   4.277   8.724 -0.0207 -0.0179 -0.4551
  164MOL0     N21566   4.568   4.273   9.484  0.0003  0.0927  0.3983
  164MOL0     N21567   4.589   4.341   9.586  0.6494 -0.1205 -0.3173
  164MOL0     C21568   4.616   3.485   9.948  0.5449 -0.1299 -0.9921
  164MOL0     C21569   4.597   3.363   9.884  0.7689 -0.3397 -0.6805
  164MOL0     C21570   4.475   3.128   9.474 -0.3704  0.4876 -0.1131
  164MOL0     C21571   4.456   3.138   9.334 -0.1265  0.4382  0.7492
  164MOL0     C21572   4.459   3.016   9.250  0.8854 -1.0306  0.0808
  164MOL0     C21573   4.483   2.896   9.306  0.4562  0.1056  0.3655
  164MOL0     O21574   4.501   2.785   9.235  0.8039 -0.2471 -0.3485
  164MOL0     C21575   4.375   2.718   9.196 -0.5725 -0.0992  0.7546
  164MOL0     C21576   4.390   2.653   9.057 -0.0199  0.1977 -0.0207
  164MOL0     C21577   4.488   2.533   9.039  0.5127 -0.8806  0.2264
  164MOL0     C21578   4.424   2.399   9.087 -0.2208 -0.3259  0.4259
  164MOL0     C21579   4.297   2.350   9.021  0.3144 -0.7942  0.1179
  164MOL0     C21580   4.192   2.301   8.976 -1.0051 -0.2902 -1.1560
  164MOL0     C21581   4.476   2.881   9.445 -0.2207  0.2203  0.2209
  164MOL0     C21582   4.483   2.994   9.520 -0.5764 -0.1151  0.8708
  164MOL0     H21583   4.345   3.465   9.691  0.4015  0.7094 -0.1541
  164MOL0     H21584   4.378   3.666   9.807  1.1456  0.5370  1.3941
  164MOL0     H21585   4.750   3.682  10.082 -0.3154  1.7492 -2.6697
  164MOL0     H21586   4.604   3.705  10.188  0.5923  1.8316  2.0597
  164MOL0     H21587   4.735   3.942  10.194  0.0585  3.2052 -0.8172
  164MOL0     H21588   4.571   3.926  10.148 -0.6964 -3.2038 -0.9445
  164MOL0     H21589   4.620   3.920   9.924 -4.9527  1.2866  2.9418
  164MOL0     H21590   4.807   3.954   9.951 -0.0257  1.7586  1.6246
  164MOL0     H21591   4.564   4.117   9.996  0.2640 -0.1399  1.8357
  164MOL0     H21592   4.706   4.152  10.089  2.4620  0.4979 -1.3724
  164MOL0     H21593   4.712   4.162   9.797  1.9523  0.6414 -1.3969
  164MOL0     H21594   4.855   4.166   9.901 -0.3199 -0.8769  1.1099
  164MOL0     H21595   4.809   4.373  10.002  0.0582  0.8256 -0.7824
  164MOL0     H21596   4.665   4.381   9.888 -0.3703 -1.7002 -0.9044
  164MOL0     H21597   4.905   4.486   9.850  0.9652 -0.9227 -0.9308
  164MOL0     H21598   4.929   4.340   9.761  2.0719  1.5612  1.4966
  164MOL0     H21599   4.839   4.545   9.643 -0.6981 -0.5192 -2.5080
  164MOL0     H21600   4.682   4.525   9.731 -0.1845 -1.1923  1.9648
  164MOL0     H21601   4.875   4.354   9.411 -1.2360  1.2117 -3.6352
  164MOL0     H21602   4.725   4.135   9.232 -0.6446 -1.1739  0.2316
  164MOL0     H21603   4.760   4.298   9.207 -0.4903 -0.9089 -2.2361
  164MOL0     H21604   4.497   4.341   9.187  0.3516  0.0929 -0.5702
  164MOL0     H21605   4.471   4.172   9.198  2.3164 -2.8484  2.7299
  164MOL0     H21606   4.669   4.280   8.994  0.2142 -0.9444 -0.3704
  164MOL0     H21607   4.625   4.119   9.016  0.9382 -1.1296 -0.8534
  164MOL0     H21608   4.467   4.363   8.911 -0.4087 -0.4279  0.4190
  164MOL0     H21609   4.372   4.268   9.010  1.0177 -2.9962  2.5787
  164MOL0     H21610   4.476   4.016   8.636 -2.0428 -0.8804  0.7033
  164MOL0     H21611   4.367   4.041   8.433  0.4836 -0.5997  0.5079
  164MOL0     H21612   4.316   4.059   8.084 -0.8291  0.4399  2.6994
  164MOL0     H21613   4.227   4.039   7.837  0.4635  0.7083 -0.6287
  164MOL0     H21614   3.953   4.265   7.735  0.2585  0.2896 -1.8833
  164MOL0     H21615   3.807   4.149   7.737 -0.8502 -0.2183 -0.9755
  164MOL0     H21616   3.954   4.040   7.558 -1.0123  0.0658  2.6378
  164MOL0     H21617   4.049   4.185   7.550 -0.3210 -0.4437  0.3797
  164MOL0     H21618   3.829   4.318   7.496  5.3464  0.9310  0.8036
  164MOL0     H21619   3.763   4.149   7.462 -0.7088  1.3484  0.6223
  164MOL0     H21620   3.997   4.309   7.318 -1.3747  1.2896 -1.0237
  164MOL0     H21621   3.946   4.145   7.272 -1.3312 -1.6852  1.1621
  164MOL0     H21622   3.723   4.255   7.198 -0.9807  2.1701  1.2710
  164MOL0     H21623   3.869   4.314   7.118 -1.1527 -2.6802 -1.9350
  164MOL0     H21624   3.710   4.451   7.328  0.8089  0.0083  1.1930
  164MOL0     H21625   3.729   4.480   7.155 -1.7941 -2.9585 -0.0696
  164MOL0     H21626   3.847   4.649   7.296  0.9382  0.8749 -1.2313
  164MOL0     H21627   3.972   4.521   7.318 -0.6224 -2.4464  0.1139
  164MOL0     H21628   3.869   4.626   7.058  1.0154 -1.7354  0.1469
  164MOL0     H21629   4.002   4.512   7.080  1.1179 -0.7510  2.7316
  164MOL0     H21630   3.837   4.119   7.967 -0.8210  0.9558  1.2941
  164MOL0     H21631   3.925   4.172   8.200 -0.1602 -0.1408 -0.7843
  164MOL0     H21632   4.110   4.329   8.610  0.1660  0.1076 -2.0314
  164MOL0     H21633   4.260   4.348   8.801 -4.2928 -0.2934 -1.5964
  164MOL0     H21634   4.696   3.483  10.021 -0.0788  1.8253 -0.1857
  164MOL0     H21635   4.658   3.278   9.915  0.5975 -2.2160 -4.8198
  164MOL0     H21636   4.444   3.237   9.293  1.3526  0.3034 -0.0699
  164MOL0     H21637   4.449   3.038   9.144 -2.6833  4.2270  1.1359
  164MOL0     H21638   4.299   2.796   9.198  2.8837  3.6365  0.3416
  164MOL0     H21639   4.338   2.636   9.258 -2.5044  1.5563  1.8791
  164MOL0     H21640   4.286   2.629   9.035 -0.4014  0.6691  1.1868
  164MOL0     H21641   4.421   2.728   8.983 -1.5512  0.1614 -0.7413
  164MOL0     H21642   4.575   2.555   9.102 -0.8138 -1.5660  2.4341
  164MOL0     H21643   4.529   2.530   8.938  0.4520  1.3877  0.0829
  164MOL0     H21644   4.514   2.338   9.075 -0.3833 -0.8825  1.8819
  164MOL0     H21645   4.401   2.407   9.193 -0.7105 -0.6233  0.3463
  164MOL0     H21646   4.105   2.261   8.927 -2.8585  0.1354  1.5061
  164MOL0     H21647   4.485   2.778   9.479  4.6876 -0.7219 -2.7426
  164MOL0     H21648   4.476   2.963   9.624  0.6040 -1.4668  0.5731
  165MOL0     O21649   9.359   0.157   9.663  0.9218  0.0702  0.1014
  165MOL0     C21650   9.393   0.087   9.757 -0.0040 -0.1694 -0.8562
  165MOL0     O21651   9.336   0.087   9.882  0.4109 -0.4869 -0.2959
  165MOL0     C21652   9.231   0.163   9.934 -0.5018  0.2674  0.5098
  165MOL0     C21653   9.186   0.134  10.060  0.2733 -0.0515 -0.2333
  165MOL0     C21654   9.067   0.184  10.108  0.7230  0.8066  0.4992
  165MOL0     C21655   8.997   0.286  10.036  0.0284 -0.0158  0.8346
  165MOL0     O21656   8.885   0.345  10.091 -0.1700 -0.5474  0.1906
  165MOL0     C21657   8.754   0.352  10.023 -0.2547 -0.2380  0.2643
  165MOL0     C21658   8.654   0.390  10.119  0.0832 -0.8107  0.6174
  165MOL0     C21659   8.518   0.429  10.061  0.4718 -0.6509  0.5055
  165MOL0     C21660   8.424   0.486  10.160  1.2125 -0.1357 -0.1249
  165MOL0     C21661   8.448   0.637  10.194 -0.2147  0.0268  0.9753
  165MOL0     C21662   8.351   0.693  10.306 -0.2417 -0.1584 -0.0947
  165MOL0     C21663   8.398   0.836  10.358  1.0329 -0.8346 -0.0783
  165MOL0     C21664   8.320   0.864  10.490  0.2258  0.0068  0.3533
  165MOL0     N21665   8.174   0.862  10.477  0.1967 -0.9258 -0.2342
  165MOL0     C21666   8.102   0.912  10.371 -0.1211 -0.4309 -0.0707
  165MOL0     C21667   7.974   0.906  10.410 -0.3193  0.1325 -0.0740
  165MOL0     C21668   7.844   0.954  10.350  0.9869  0.3486  0.2140
  165MOL0     C21669   7.785   0.844  10.271  1.2605  0.5568  0.7290
  165MOL0     C21670   7.637   0.874  10.224 -0.1475 -0.5675  0.4223
  165MOL0     C21671   7.645   0.984  10.118 -0.4143 -1.6755 -0.0303
  165MOL0     O21672   7.536   0.973  10.032 -0.6481  0.5472 -0.1965
  165MOL0     C21673   7.507   1.096   9.983 -0.2081  0.1450 -0.1556
  165MOL0     C21674   7.596   1.198   9.948  0.2535 -0.9524 -0.5788
  165MOL0     C21675   7.554   1.316   9.887 -0.2755 -0.0971 -0.5302
  165MOL0     C21676   7.415   1.352   9.884 -0.0660  0.9741 -0.5862
  165MOL0     C21677   7.385   1.477   9.820  0.2643 -0.8735  0.6368
  165MOL0     O21678   7.479   1.563   9.788 -0.7425 -0.3160 -0.1052
  165MOL0     C21679   7.464   1.695   9.800 -0.4212 -0.5305  0.3284
  165MOL0     C21680   7.579   1.754   9.869 -0.5097 -0.2175 -0.1694
  165MOL0     C21681   7.567   1.888   9.906  0.4186 -0.4730  0.8924
  165MOL0     C21682   7.451   1.970   9.876 -0.1996  0.8062 -0.2301
  165MOL0     O21683   7.460   2.109   9.905  0.7277  0.1617 -0.6917
  165MOL0     C21684   7.335   2.171   9.918  0.3664 -0.0015  0.9530
  165MOL0     C21685   7.364   2.316   9.906  0.4402  0.1263  0.1664
  165MOL0     C21686   7.234   2.391   9.940 -0.5829 -0.0436  0.7497
  165MOL0     C21687   7.264   2.532   9.913 -0.4636 -1.4555 -0.5674
  165MOL0     C21688   7.158   2.636   9.943 -0.5023 -0.4431  0.2207
  165MOL0     C21689   7.218   2.772  10.003 -0.5831 -0.2483 -0.3232
  165MOL0     C21690   7.325   2.831   9.910 -0.4935 -0.5409 -0.1902
  165MOL0     C21691   7.346   2.971   9.968 -1.0116 -0.9179 -0.6477
  165MOL0    Cl21692   7.451   3.066   9.861 -0.2559  0.3403 -0.2396
  165MOL0     C21693   7.334   1.896   9.826 -0.0669  0.1935  0.1671
  165MOL0     C21694   7.348   1.768   9.782 -0.0711 -0.3011 -0.0333
  165MOL0     O21695   7.264   1.504   9.832  0.3451 -0.1920 -0.3272
  165MOL0     C21696   7.321   1.262   9.938  0.3490 -0.1605 -0.2753
  165MOL0     C21697   7.370   1.135   9.966 -0.1183  0.4849  1.2856
  165MOL0     N21698   7.969   0.827  10.528 -0.0840  0.6850 -0.6179
  165MOL0     N21699   8.094   0.796  10.563 -0.6218 -0.8345 -0.5011
  165MOL0     C21700   9.039   0.310   9.902 -0.2617  0.3541 -0.2825
  165MOL0     C21701   9.152   0.251   9.856 -1.1260 -0.0609 -0.3449
  165MOL0     C21702   9.520   0.009   9.736 -0.3034 -0.0656 -0.2353
  165MOL0     C21703   9.598  -0.005   9.850 -0.4826  0.1060  0.3575
  165MOL0     C21704   9.724  -0.070   9.847  0.0533  0.3656  0.6141
  165MOL0     C21705   9.772  -0.128   9.732  0.7237  0.3560  0.4295
  165MOL0     O21706   9.888  -0.198   9.717  0.0514 -0.0621 -0.4558
  165MOL0     C21707   9.966  -0.202   9.839 -1.2759 -0.4333 -1.0222
  165MOL0     C21708  10.051  -0.076   9.890 -0.2338 -0.2249 -0.2145
  165MOL0     C21709  10.159  -0.046   9.775 -0.3835 -0.1119  0.7864
  165MOL0     C21710  10.264   0.043   9.820 -0.5072 -0.3460  0.4032
  165MOL0     C21711  10.301   0.135   9.708 -0.6986 -0.4126  0.1424
  165MOL0     C21712  10.323   0.206   9.614 -0.8406 -0.7585 -0.2250
  165MOL0     C21713   9.687  -0.117   9.621  0.7995 -0.2614  0.1602
  165MOL0     C21714   9.565  -0.043   9.617  0.1060  1.1499 -0.1870
  165MOL0     H21715   9.229   0.060  10.126  0.8669 -1.4133 -2.0546
  165MOL0     H21716   9.055   0.166  10.215  3.1708  0.5812  0.7860
  165MOL0     H21717   8.734   0.252   9.982  1.0514 -1.0130  1.4374
  165MOL0     H21718   8.766   0.422   9.940  2.6534 -2.6342 -1.5314
  165MOL0     H21719   8.688   0.485  10.161 -2.6835  0.8582 -0.6420
  165MOL0     H21720   8.630   0.310  10.190  1.9929  1.6371  4.4050
  165MOL0     H21721   8.484   0.338  10.011 -2.0375  0.5057 -0.0596
  165MOL0     H21722   8.541   0.515   9.997  2.4608  1.0506  3.3042
  165MOL0     H21723   8.325   0.493  10.113 -0.1823  1.8834  2.8294
  165MOL0     H21724   8.419   0.413  10.241  1.9592  0.8300  0.8142
  165MOL0     H21725   8.434   0.703  10.108  0.2287  0.6099  1.3505
  165MOL0     H21726   8.552   0.648  10.224 -0.6546 -2.4636  4.0384
  165MOL0     H21727   8.371   0.631  10.394  2.9008 -0.0062 -0.6104
  165MOL0     H21728   8.247   0.700  10.271  0.6523  2.7016 -2.6088
  165MOL0     H21729   8.505   0.833  10.382  1.3752  0.1024 -1.3807
  165MOL0     H21730   8.387   0.917  10.285 -0.7358 -2.0331 -1.2040
  165MOL0     H21731   8.340   0.964  10.528 -2.2222  2.1350 -3.3233
  165MOL0     H21732   8.351   0.785  10.559  0.9021  0.1847  0.2610
  165MOL0     H21733   8.125   0.947  10.271 -2.1234  1.9479  0.1904
  165MOL0     H21734   7.865   1.041  10.287 -0.5170  0.9077  0.4377
  165MOL0     H21735   7.790   0.983  10.441  2.0169  2.5792  0.1907
  165MOL0     H21736   7.783   0.745  10.317 -1.9711 -0.4233 -1.1882
  165MOL0     H21737   7.851   0.823  10.186  1.5601  1.5116  0.7142
  165MOL0     H21738   7.597   0.788  10.170 -1.8973 -0.5720  1.6778
  165MOL0     H21739   7.566   0.902  10.302 -0.4770  1.2408 -0.4593
  165MOL0     H21740   7.739   0.979  10.061  1.2246  1.2294  2.1248
  165MOL0     H21741   7.653   1.082  10.166  2.7621 -3.2607  3.1617
  165MOL0     H21742   7.703   1.185   9.956  0.5294  1.3025  0.0561
  165MOL0     H21743   7.626   1.392   9.861 -1.1120  1.2143  0.8523
  165MOL0     H21744   7.673   1.709   9.897 -0.5778 -0.1715  0.1370
  165MOL0     H21745   7.651   1.940   9.951  0.1649  0.2151  0.5913
  165MOL0     H21746   7.281   2.136  10.007 -0.6811 -2.0926 -0.4254
  165MOL0     H21747   7.257   2.143   9.846 -1.1478 -2.6656  3.4202
  165MOL0     H21748   7.410   2.354   9.814 -0.7578  0.2191 -0.4116
  165MOL0     H21749   7.423   2.339   9.995  1.3927  1.1407 -0.7039
  165MOL0     H21750   7.203   2.375  10.044 -0.4662 -2.3862  0.4828
  165MOL0     H21751   7.156   2.370   9.866  1.0457  0.9360 -1.3562
  165MOL0     H21752   7.350   2.556   9.976 -1.2511 -1.5327  0.5773
  165MOL0     H21753   7.306   2.546   9.813  0.8420 -3.2345 -0.3116
  165MOL0     H21754   7.078   2.594  10.005 -1.8577  0.3040 -0.9608
  165MOL0     H21755   7.111   2.667   9.849 -0.8979  0.0944  0.5957
  165MOL0     H21756   7.250   2.753  10.106  3.1674  2.1971 -0.8375
  165MOL0     H21757   7.135   2.842  10.011 -0.0225  0.4872 -0.8305
  165MOL0     H21758   7.420   2.776   9.902  0.3803  0.8894 -0.1058
  165MOL0     H21759   7.283   2.831   9.810 -0.1870 -1.7986 -0.3318
  165MOL0     H21760   7.389   2.963  10.068 -0.5900  2.6558 -0.4172
  165MOL0     H21761   7.260   3.036   9.984 -1.2013 -1.5657  1.1742
  165MOL0     H21762   7.237   1.939   9.804  0.9724  2.0236 -1.1013
  165MOL0     H21763   7.256   1.723   9.746  0.2073 -1.9112  1.1374
  165MOL0     H21764   7.213   1.276   9.945  0.6802  1.9767  3.1051
  165MOL0     H21765   7.304   1.049   9.979 -0.4866  0.6128  0.3578
  165MOL0     H21766   8.971   0.368   9.840 -1.1436  0.0326  0.3530
  165MOL0     H21767   9.183   0.272   9.754 -0.1420  0.8243  0.1200
  165MOL0     H21768   9.559   0.044   9.938  1.5544  1.0284  0.8134
  165MOL0     H21769   9.769  -0.065   9.946 -1.2566  1.3906  1.1770
  165MOL0     H21770  10.055  -0.263   9.819 -1.6974 -1.6561  0.6612
  165MOL0     H21771   9.907  -0.248   9.919 -1.4137 -1.9599 -1.9665
  165MOL0     H21772   9.982   0.009   9.897  0.6033  0.3840  1.2500
  165MOL0     H21773  10.102  -0.081   9.987 -2.1368  0.9907  0.9274
  165MOL0     H21774  10.114  -0.004   9.685 -0.0210  0.6830  0.9673
  165MOL0     H21775  10.198  -0.142   9.740 -1.0606 -0.8921  2.1068
  165MOL0     H21776  10.236   0.106   9.905  1.2543 -0.0351  0.7926
  165MOL0     H21777  10.344  -0.023   9.853  0.9326  0.5835 -1.0936
  165MOL0     H21778  10.336   0.290   9.549  0.0195  1.7647  2.9125
  165MOL0     H21779   9.713  -0.149   9.521 -2.8779 -1.9541 -0.4108
  165MOL0     H21780   9.500  -0.037   9.530  0.2876  1.3430 -0.3107
  166MOL0     O21781   6.203   9.477   8.342  0.0365  0.1394 -0.2390
  166MOL0     C21782   6.246   9.423   8.443 -0.1950  0.1836  1.0620
  166MOL0     O21783   6.202   9.302   8.491  0.2129 -0.1894 -0.3084
  166MOL0     C21784   6.132   9.208   8.419  0.4517  0.1467  0.2579
  166MOL0     C21785   6.129   9.184   8.278  0.2074  0.0572 -0.7737
  166MOL0     C21786   6.059   9.084   8.211 -0.5899  0.6357 -0.0435
  166MOL0     C21787   5.994   8.985   8.292 -0.5151 -1.6290  0.0578
  166MOL0     O21788   5.927   8.878   8.246  0.1296 -0.4026 -1.0918
  166MOL0     C21789   5.874   8.875   8.117  0.2232 -0.4161 -0.3437
  166MOL0     C21790   5.792   8.752   8.094  0.7222  1.1891 -0.3801
  166MOL0     C21791   5.861   8.621   8.078 -0.4872  0.0401 -0.3845
  166MOL0     C21792   5.755   8.514   8.038 -0.7388 -0.3118  0.1100
  166MOL0     C21793   5.787   8.371   8.094  0.4580  0.3545 -0.2858
  166MOL0     C21794   5.691   8.260   8.039  0.5022 -0.5443 -0.7071
  166MOL0     C21795   5.545   8.309   8.035 -0.6688 -0.0652  0.0436
  166MOL0     C21796   5.447   8.200   7.992 -0.3800  0.7715 -0.0326
  166MOL0     N21797   5.306   8.243   7.984  0.3710 -0.6684  0.0100
  166MOL0     C21798   5.243   8.348   8.057  0.0116 -0.3616 -0.5176
  166MOL0     C21799   5.113   8.342   8.030 -0.1809  0.2509  0.3162
  166MOL0     C21800   5.002   8.424   8.089  0.6105  0.9067 -0.9566
  166MOL0     C21801   4.857   8.385   8.043 -0.7599  0.2065  0.3717
  166MOL0     C21802   4.766   8.431   8.154  0.9054 -0.1775 -0.3990
  166MOL0     C21803   4.756   8.583   8.187  0.8229 -0.5438  0.3353
  166MOL0     O21804   4.722   8.673   8.076 -0.3200  0.6042 -0.3224
  166MOL0     C21805   4.606   8.642   8.002 -0.1437  0.1577 -0.5915
  166MOL0     C21806   4.633   8.620   7.866  0.7516  0.4792  1.1297
  166MOL0     C21807   4.523   8.577   7.781 -0.5431 -0.0283  0.2207
  166MOL0     C21808   4.403   8.549   7.835  0.2345 -0.0337 -0.1288
  166MOL0     C21809   4.299   8.477   7.751 -0.7493  0.3193  0.1103
  166MOL0     O21810   4.163   8.460   7.800 -1.4090 -1.1251 -0.0053
  166MOL0     C21811   4.077   8.374   7.745  1.0878  0.2387 -0.2131
  166MOL0     C21812   4.105   8.257   7.678  0.3019  0.2181 -0.6580
  166MOL0     C21813   4.006   8.175   7.628  0.8415 -0.2382  0.1703
  166MOL0     C21814   3.874   8.201   7.645  0.2657 -0.0913 -0.5632
  166MOL0     O21815   3.785   8.099   7.616  0.2006  0.1258  0.3946
  166MOL0     C21816   3.669   8.144   7.549 -0.0672 -0.1891  0.2165
  166MOL0     C21817   3.687   8.159   7.398 -0.6292 -0.1508 -0.7079
  166MOL0     C21818   3.561   8.210   7.338 -0.5118  0.8014  0.0246
  166MOL0     C21819   3.592   8.204   7.179  1.1993  0.4694  0.7033
  166MOL0     C21820   3.475   8.136   7.110  0.3093 -0.1001  1.1105
  166MOL0     C21821   3.496   8.101   6.962 -0.1706 -0.1856  0.2290
  166MOL0     C21822   3.366   8.037   6.909 -0.8558 -0.9682 -0.2834
  166MOL0     C21823   3.378   8.017   6.759 -0.1104 -0.0257  0.1816
  166MOL0    Cl21824   3.366   8.160   6.669  0.5626 -0.4718 -0.2430
  166MOL0     C21825   3.841   8.304   7.727  0.5979  0.0157  1.0855
  166MOL0     C21826   3.933   8.394   7.774 -0.3235  0.1506  0.7472
  166MOL0     O21827   4.337   8.445   7.639  0.2718 -0.1283  0.2093
  166MOL0     C21828   4.368   8.588   7.969  0.0005 -0.0435 -0.1519
  166MOL0     C21829   4.476   8.615   8.055 -0.7266 -0.0987  0.5661
  166MOL0     N21830   5.097   8.242   7.933  0.4453 -0.9311 -0.1320
  166MOL0     N21831   5.213   8.179   7.918  0.1060 -0.1235 -0.5014
  166MOL0     C21832   5.996   9.001   8.433 -0.4108 -0.3195  0.5642
  166MOL0     C21833   6.052   9.111   8.488 -0.4876 -0.1909  0.0565
  166MOL0     C21834   6.349   9.503   8.520 -0.1479  0.4867  0.1105
  166MOL0     C21835   6.360   9.644   8.477 -0.4886  0.3608 -0.4655
  166MOL0     C21836   6.436   9.725   8.559 -0.5904 -0.4087 -0.3245
  166MOL0     C21837   6.510   9.681   8.673 -0.3503 -0.0185 -0.3393
  166MOL0     O21838   6.585   9.772   8.738  0.3155  0.4286 -0.8290
  166MOL0     C21839   6.678   9.735   8.847 -0.1109  0.3654 -0.4630
  166MOL0     C21840   6.756   9.856   8.890  0.2158 -0.4349 -0.1933
  166MOL0     C21841   6.883   9.878   8.810 -0.0945  0.3785  0.6518
  166MOL0     C21842   6.925  10.021   8.814 -0.5871 -0.3215  0.3166
  166MOL0     C21843   6.986  10.051   8.948 -0.0443 -0.7321  0.2408
  166MOL0     C21844   7.008  10.079   9.059  0.3423 -0.8972  0.5469
  166MOL0     C21845   6.505   9.546   8.708  0.1545  0.0659  0.3316
  166MOL0     C21846   6.425   9.458   8.634  0.6310 -0.1039  0.7585
  166MOL0     H21847   6.184   9.252   8.214 -1.2132  3.1897  1.1187
  166MOL0     H21848   6.070   9.077   8.104  0.0537  2.9815 -0.1909
  166MOL0     H21849   5.951   8.878   8.039 -0.7498  2.9216 -1.3467
  166MOL0     H21850   5.803   8.958   8.109 -1.8136 -2.1514 -1.4495
  166MOL0     H21851   5.737   8.775   8.002 -4.7092 -1.0580  1.9093
  166MOL0     H21852   5.719   8.751   8.175 -0.5377  0.0247 -1.4821
  166MOL0     H21853   5.909   8.603   8.174 -3.6485  2.7702  1.9447
  166MOL0     H21854   5.932   8.620   7.995  1.2254 -0.6958  1.0293
  166MOL0     H21855   5.657   8.550   8.071 -0.6904  0.8631 -0.9462
  166MOL0     H21856   5.760   8.514   7.928 -1.2128  0.2717  0.0834
  166MOL0     H21857   5.783   8.373   8.203 -0.5361  3.2286 -0.3126
  166MOL0     H21858   5.887   8.341   8.060  2.1262  1.8294  2.9247
  166MOL0     H21859   5.693   8.174   8.106  0.1799  0.4575  0.6207
  166MOL0     H21860   5.719   8.231   7.937  1.2001 -1.8373 -0.1603
  166MOL0     H21861   5.520   8.356   8.130 -0.6249  2.0833 -0.9612
  166MOL0     H21862   5.536   8.397   7.972 -1.3518 -0.1960 -0.0522
  166MOL0     H21863   5.457   8.117   8.063 -2.2515  0.9653  0.5141
  166MOL0     H21864   5.471   8.153   7.896 -0.6737 -2.7904  1.4625
  166MOL0     H21865   5.280   8.411   8.137  1.4951 -2.6072  0.6893
  166MOL0     H21866   5.006   8.530   8.061  0.1322  1.3422  0.5209
  166MOL0     H21867   5.003   8.425   8.199  1.8899  1.2585 -0.9613
  166MOL0     H21868   4.850   8.279   8.014  1.4605  0.1419 -0.0626
  166MOL0     H21869   4.830   8.433   7.949  2.5758  1.4516 -0.0761
  166MOL0     H21870   4.663   8.400   8.130 -0.1508  2.0386  0.9399
  166MOL0     H21871   4.790   8.383   8.249 -1.2725  1.4069  1.0366
  166MOL0     H21872   4.858   8.594   8.225  1.0603 -0.4954 -0.2896
  166MOL0     H21873   4.694   8.610   8.273 -2.1995  1.6904 -2.2676
  166MOL0     H21874   4.732   8.631   7.822  1.3771 -3.5620  1.1246
  166MOL0     H21875   4.535   8.563   7.674 -0.2962  1.1704  0.0850
  166MOL0     H21876   4.210   8.235   7.663  1.0495  2.7654  0.2258
  166MOL0     H21877   4.044   8.084   7.582  6.2601 -0.0021  3.3915
  166MOL0     H21878   3.623   8.232   7.596  1.9109  1.4669 -0.7675
  166MOL0     H21879   3.596   8.065   7.565  0.9533 -1.6216 -1.7884
  166MOL0     H21880   3.709   8.064   7.348 -1.9220  0.0353 -1.6813
  166MOL0     H21881   3.762   8.233   7.368 -0.2465 -0.7317 -1.1956
  166MOL0     H21882   3.533   8.311   7.371  1.0795  0.9241  1.1112
  166MOL0     H21883   3.484   8.134   7.359 -0.5445  0.0702 -2.4566
  166MOL0     H21884   3.608   8.307   7.145  0.5390  1.9809  4.4630
  166MOL0     H21885   3.680   8.143   7.160 -0.5738 -1.5611 -1.6608
  166MOL0     H21886   3.389   8.204   7.113  0.1709 -0.2818  1.2721
  166MOL0     H21887   3.444   8.047   7.165  1.1166  0.2132  2.0939
  166MOL0     H21888   3.576   8.027   6.953  1.4996  1.6638 -1.0678
  166MOL0     H21889   3.529   8.190   6.908 -4.2750  1.2377 -0.3179
  166MOL0     H21890   3.365   7.940   6.959  2.9625 -1.4558 -0.8382
  166MOL0     H21891   3.271   8.091   6.919 -0.8801 -1.1230  0.4019
  166MOL0     H21892   3.302   7.942   6.734  1.0588 -1.7707  1.5406
  166MOL0     H21893   3.472   7.963   6.739  1.4351  1.6063  2.5171
  166MOL0     H21894   3.742   8.335   7.758  0.2614  1.4507 -1.2445
  166MOL0     H21895   3.893   8.479   7.827  1.5459  1.8141 -0.3886
  166MOL0     H21896   4.276   8.572   8.024 -1.9275  1.1315 -2.8195
  166MOL0     H21897   4.460   8.639   8.160  3.1606  0.3633  1.2245
  166MOL0     H21898   5.956   8.927   8.502  0.1577 -2.5926 -1.4115
  166MOL0     H21899   6.024   9.125   8.592  0.6191  0.1582  0.3170
  166MOL0     H21900   6.295   9.687   8.402 -0.6825  4.2677  1.6859
  166MOL0     H21901   6.444   9.831   8.539 -0.7865 -0.2312  0.5181
  166MOL0     H21902   6.747   9.661   8.805  1.3829 -0.1801  2.6673
  166MOL0     H21903   6.639   9.676   8.931  1.1616  3.1289  2.2849
  166MOL0     H21904   6.696   9.947   8.878 -0.7795 -0.7596  1.7709
  166MOL0     H21905   6.770   9.855   8.999 -2.8275  1.2698  0.3449
  166MOL0     H21906   6.869   9.831   8.712  1.2920  0.2278  0.4984
  166MOL0     H21907   6.961   9.825   8.864  0.5233  0.0862 -0.4827
  166MOL0     H21908   6.999  10.035   8.735 -0.7702  4.7205  0.6734
  166MOL0     H21909   6.847  10.091   8.782  0.5201  0.8619  0.1626
  166MOL0     H21910   7.019  10.102   9.163 -0.2825  4.5819 -0.2850
  166MOL0     H21911   6.558   9.526   8.801 -0.6619  2.5395  1.4073
  166MOL0     H21912   6.404   9.354   8.656 -1.2030 -0.4835 -2.2798
  167MOL0     O21913   3.751   1.606   6.748  0.0245 -0.8036  0.3498
  167MOL0     C21914   3.741   1.529   6.663 -0.4563  0.2733  1.1273
  167MOL0     O21915   3.747   1.554   6.525 -0.1369 -0.4658  0.2031
  167MOL0     C21916   3.782   1.670   6.463  0.7100 -0.3026 -1.0537
  167MOL0     C21917   3.853   1.667   6.342 -0.2919 -0.7513  0.7295
  167MOL0     C21918   3.888   1.790   6.277  0.5819  0.1490  0.8484
  167MOL0     C21919   3.856   1.919   6.329  0.0881  0.5029 -1.0268
  167MOL0     O21920   3.878   2.038   6.272  0.5015 -0.0566 -0.0817
  167MOL0     C21921   3.902   2.041   6.135  0.2334 -0.1126  1.1014
  167MOL0     C21922   3.888   2.184   6.074 -0.0524  1.0680 -0.3413
  167MOL0     C21923   3.916   2.196   5.919 -0.5907  0.1598 -0.4033
  167MOL0     C21924   3.906   2.348   5.876 -0.3764 -0.0887 -0.2803
  167MOL0     C21925   4.037   2.422   5.825  0.0399 -0.4632 -0.9632
  167MOL0     C21926   4.025   2.571   5.839  0.6982 -0.1507  0.1354
  167MOL0     C21927   3.976   2.650   5.728 -0.3601 -0.5873  0.8605
  167MOL0     C21928   3.923   2.789   5.776  0.4112  0.7463 -0.1696
  167MOL0     N21929   3.933   2.881   5.664 -0.6387  0.3173  0.3768
  167MOL0     C21930   4.042   2.922   5.597 -0.3222  0.1752 -0.6972
  167MOL0     C21931   4.000   3.009   5.503 -0.2940  0.0983  0.4767
  167MOL0     C21932   4.082   3.077   5.397  0.2109 -0.3078  1.1361
  167MOL0     C21933   4.082   3.003   5.262  0.5067 -0.5649 -0.2759
  167MOL0     C21934   4.218   2.946   5.216 -0.3481 -0.2677 -0.3734
  167MOL0     C21935   4.298   2.869   5.320  1.3049  0.6026  0.1223
  167MOL0     O21936   4.219   2.753   5.369  0.6541  0.6642  0.1548
  167MOL0     C21937   4.275   2.649   5.422  0.2331 -0.3176 -0.3042
  167MOL0     C21938   4.202   2.530   5.453  0.2982  0.3962  0.3631
  167MOL0     C21939   4.243   2.412   5.502 -0.2158 -0.4704 -0.2987
  167MOL0     C21940   4.380   2.401   5.540  0.7679  0.1630 -0.0097
  167MOL0     C21941   4.427   2.271   5.596 -1.3137  0.4043 -0.9477
  167MOL0     O21942   4.345   2.174   5.560 -0.0441 -0.5344 -0.1830
  167MOL0     C21943   4.359   2.066   5.647 -0.2322 -0.4593  0.2851
  167MOL0     C21944   4.386   1.941   5.596  0.1062 -0.0051 -0.4882
  167MOL0     C21945   4.368   1.831   5.672 -0.2471 -0.6873 -0.6895
  167MOL0     C21946   4.322   1.835   5.801  0.3438  0.1484  0.4281
  167MOL0     O21947   4.328   1.718   5.868 -0.5018  0.7454 -0.4331
  167MOL0     C21948   4.351   1.731   6.010  0.8385 -1.0093 -0.0288
  167MOL0     C21949   4.222   1.714   6.091  0.8899  0.3334  0.4584
  167MOL0     C21950   4.144   1.588   6.035 -0.2470 -0.2452  0.5434
  167MOL0     C21951   4.217   1.449   6.051 -0.1049 -0.6929 -0.0930
  167MOL0     C21952   4.152   1.329   5.994  1.1459 -0.9473 -0.4391
  167MOL0     C21953   4.114   1.344   5.850 -0.7970  0.9984 -0.0044
  167MOL0     C21954   4.208   1.383   5.735  0.2670 -0.4186  0.0675
  167MOL0     C21955   4.152   1.361   5.592  0.4895  0.7550  0.0484
  167MOL0    Cl21956   4.087   1.198   5.559 -0.6867 -0.1096  0.3071
  167MOL0     C21957   4.293   1.950   5.859  1.0957  0.0678  0.3823
  167MOL0     C21958   4.311   2.071   5.786 -0.1281  0.0046 -0.5017
  167MOL0     O21959   4.541   2.256   5.636 -0.9463 -1.0602 -0.4874
  167MOL0     C21960   4.460   2.514   5.512  0.4012  0.5949 -0.6283
  167MOL0     C21961   4.411   2.635   5.451 -0.1663  1.0140  0.4784
  167MOL0     N21962   3.866   3.035   5.519 -0.3778  0.3788  0.3404
  167MOL0     N21963   3.828   2.955   5.610  1.1895  0.2726 -0.6492
  167MOL0     C21964   3.777   1.913   6.450 -0.9437 -0.3506  0.2243
  167MOL0     C21965   3.749   1.796   6.518  1.0219  0.0733  0.4548
  167MOL0     C21966   3.704   1.392   6.686  0.0601 -0.0616  0.1108
  167MOL0     C21967   3.707   1.346   6.820  0.0759  0.3311 -1.2781
  167MOL0     C21968   3.656   1.212   6.848 -0.7076 -0.0624 -0.5375
  167MOL0     C21969   3.585   1.140   6.748  0.1711  0.1863  0.5031
  167MOL0     O21970   3.544   1.013   6.777 -0.3928 -0.3317 -0.1062
  167MOL0     C21971   3.460   0.933   6.696 -0.1856 -0.1606 -0.3838
  167MOL0     C21972   3.422   0.813   6.778  0.3701 -0.1964 -0.1839
  167MOL0     C21973   3.341   0.715   6.696  0.3098 -0.5574  0.2394
  167MOL0     C21974   3.282   0.598   6.775 -0.6048 -0.5470 -0.0537
  167MOL0     C21975   3.395   0.518   6.827  0.7714  1.0154 -1.1954
  167MOL0     C21976   3.482   0.457   6.886 -0.2911  0.0438  0.7136
  167MOL0     C21977   3.582   1.188   6.616 -0.6460  0.8279  1.2718
  167MOL0     C21978   3.639   1.311   6.592 -0.1597 -0.3207 -0.3760
  167MOL0     H21979   3.869   1.581   6.278 -2.5988 -0.3093 -0.5870
  167MOL0     H21980   3.938   1.790   6.181  0.4215  1.5605  0.7431
  167MOL0     H21981   3.835   1.975   6.079 -0.3345  2.5241 -1.5732
  167MOL0     H21982   4.002   2.004   6.108 -1.0770 -1.6740 -2.1196
  167MOL0     H21983   3.962   2.246   6.124  2.6907 -2.2228  0.1044
  167MOL0     H21984   3.783   2.214   6.087  0.0024  2.2426 -2.3040
  167MOL0     H21985   3.835   2.140   5.871 -2.1077  1.4102  0.5673
  167MOL0     H21986   4.016   2.161   5.895  1.6034  3.0677  3.3598
  167MOL0     H21987   3.838   2.344   5.790 -2.5991 -0.1912  1.3881
  167MOL0     H21988   3.851   2.400   5.955 -0.3440 -1.2602  0.5531
  167MOL0     H21989   4.061   2.389   5.723 -1.0571  0.5606 -1.5742
  167MOL0     H21990   4.115   2.399   5.898 -3.1719 -0.6504  2.6876
  167MOL0     H21991   4.120   2.611   5.875 -0.5639 -0.6542  4.5128
  167MOL0     H21992   3.954   2.583   5.921 -1.9828  1.2140 -2.1833
  167MOL0     H21993   4.067   2.661   5.668  0.5984 -1.1871  2.1546
  167MOL0     H21994   3.896   2.591   5.682 -1.8297  3.0031 -1.6113
  167MOL0     H21995   3.972   2.827   5.866 -0.0390  0.4311  0.2104
  167MOL0     H21996   3.821   2.772   5.810  0.9751 -1.2484  0.6160
  167MOL0     H21997   4.137   2.870   5.607 -1.1640 -1.0093  3.7028
  167MOL0     H21998   4.184   3.096   5.433  0.6538  0.7512 -0.5661
  167MOL0     H21999   4.048   3.178   5.372  0.1141 -0.5039  0.4746
  167MOL0     H22000   4.050   3.071   5.182 -0.1884 -0.2047  0.2968
  167MOL0     H22001   4.011   2.920   5.265  3.2339 -3.1659 -1.4821
  167MOL0     H22002   4.207   2.888   5.124 -2.5131  1.3852 -1.2347
  167MOL0     H22003   4.288   3.028   5.199 -0.4726  0.0253  0.4804
  167MOL0     H22004   4.324   2.931   5.407 -1.0527  1.0520  0.5644
  167MOL0     H22005   4.394   2.836   5.279  1.3693  1.3292 -0.3336
  167MOL0     H22006   4.096   2.550   5.440  0.6019  1.6078 -0.3505
  167MOL0     H22007   4.173   2.330   5.511  1.5134 -1.7863  2.8739
  167MOL0     H22008   4.425   1.931   5.495  3.7017 -0.5319  0.8012
  167MOL0     H22009   4.388   1.732   5.634 -0.0364 -1.3712  1.0798
  167MOL0     H22010   4.403   1.823   6.035  1.8963 -0.6254 -3.1915
  167MOL0     H22011   4.424   1.651   6.030  1.4260 -0.5440 -0.2830
  167MOL0     H22012   4.155   1.799   6.078 -0.9283 -1.0503  0.3749
  167MOL0     H22013   4.233   1.704   6.199 -1.6865  0.4323  0.7715
  167MOL0     H22014   4.122   1.599   5.928  1.9507  1.8343  0.2159
  167MOL0     H22015   4.054   1.594   6.096  0.6057  0.8305  1.7337
  167MOL0     H22016   4.317   1.453   6.008  0.3572  2.9354  1.0547
  167MOL0     H22017   4.252   1.444   6.154  2.8765  2.4766 -0.7902
  167MOL0     H22018   4.066   1.307   6.058  1.3889 -0.6351  0.0037
  167MOL0     H22019   4.219   1.243   6.009  0.5188 -1.4474 -0.4947
  167MOL0     H22020   4.024   1.407   5.848 -3.1119 -2.0129  0.3711
  167MOL0     H22021   4.078   1.245   5.819  0.0204  1.2920 -2.0695
  167MOL0     H22022   4.222   1.491   5.743 -2.6518  0.5601 -4.5156
  167MOL0     H22023   4.303   1.328   5.739  1.5564  1.6770 -0.2014
  167MOL0     H22024   4.238   1.383   5.529  1.0971  1.8314  1.1994
  167MOL0     H22025   4.065   1.423   5.570 -2.4789 -3.4540 -1.3924
  167MOL0     H22026   4.233   1.962   5.949 -0.9929  1.5244 -1.0976
  167MOL0     H22027   4.285   2.168   5.826 -2.0627 -1.1585  1.2680
  167MOL0     H22028   4.566   2.502   5.531  0.8029  1.0694 -2.3952
  167MOL0     H22029   4.466   2.727   5.436  0.3413  0.1088 -5.3508
  167MOL0     H22030   3.736   2.008   6.484 -1.8378 -0.9155  0.7590
  167MOL0     H22031   3.688   1.808   6.608 -3.4445 -0.4180 -2.1812
  167MOL0     H22032   3.752   1.400   6.902 -3.6864 -0.7543  1.7876
  167MOL0     H22033   3.674   1.156   6.940  0.7277 -1.3981 -1.5794
  167MOL0     H22034   3.516   0.899   6.608  3.9815  2.4399  0.9213
  167MOL0     H22035   3.371   0.989   6.667 -0.1401 -0.2209 -0.6403
  167MOL0     H22036   3.504   0.749   6.813  0.8599  1.6396  2.2734
  167MOL0     H22037   3.353   0.836   6.860 -1.2961  0.0237 -1.5910
  167MOL0     H22038   3.399   0.677   6.611 -2.0129 -0.7148 -1.3397
  167MOL0     H22039   3.265   0.781   6.654  2.3367  0.5581 -1.9369
  167MOL0     H22040   3.230   0.652   6.855  1.1063  0.0616  0.6963
  167MOL0     H22041   3.211   0.542   6.714 -2.3052 -4.4122  4.8023
  167MOL0     H22042   3.563   0.402   6.928  0.4490 -1.9969 -2.9546
  167MOL0     H22043   3.523   1.146   6.536  0.3988 -1.0173  1.4073
  167MOL0     H22044   3.649   1.344   6.489 -1.7772  0.8849 -0.1950
  168MOL0     O22045   3.766   5.931   7.898 -0.5201  0.1595 -0.3030
  168MOL0     C22046   3.769   5.807   7.905 -0.1412 -0.1111  1.3076
  168MOL0     O22047   3.665   5.721   7.952  0.1078 -0.6805  0.0796
  168MOL0     C22048   3.551   5.768   7.992  1.1634 -1.6264 -0.9875
  168MOL0     C22049   3.523   5.891   8.066 -0.3150 -0.2291 -0.9602
  168MOL0     C22050   3.404   5.919   8.133  0.1692 -0.1719  1.4526
  168MOL0     C22051   3.289   5.834   8.104 -0.3088 -0.0738 -0.1145
  168MOL0     O22052   3.161   5.848   8.140  0.5734  0.2017 -0.0200
  168MOL0     C22053   3.133   5.959   8.226  0.2017 -0.3447 -0.4077
  168MOL0     C22054   3.164   5.922   8.373  0.1028 -1.1928 -0.4252
  168MOL0     C22055   3.050   5.947   8.474  0.0678  0.5669 -0.6968
  168MOL0     C22056   2.957   5.827   8.468  0.4535 -0.3674 -0.2262
  168MOL0     C22057   2.831   5.826   8.556  0.3571  0.4301 -0.4457
  168MOL0     C22058   2.749   5.965   8.534  0.2094  1.1340 -0.8300
  168MOL0     C22059   2.602   5.968   8.585  0.0186  0.2954 -0.3784
  168MOL0     C22060   2.584   5.938   8.737 -0.4577 -0.9524  0.5697
  168MOL0     N22061   2.623   6.055   8.819  0.0041 -0.4300 -0.1637
  168MOL0     C22062   2.550   6.139   8.899  0.2418 -0.5499  0.3620
  168MOL0     C22063   2.640   6.218   8.960  0.0021  0.2372  0.7569
  168MOL0     C22064   2.603   6.328   9.055  0.0493 -1.6208 -0.0507
  168MOL0     C22065   2.665   6.293   9.186  0.9067 -0.0007 -0.4411
  168MOL0     C22066   2.614   6.391   9.285  0.1030 -1.0147 -1.1009
  168MOL0     C22067   2.680   6.536   9.282  0.2701  0.8791  0.4747
  168MOL0     O22068   2.613   6.621   9.373 -0.0355  0.1807  0.1998
  168MOL0     C22069   2.678   6.731   9.421 -1.0775  0.3360  0.1128
  168MOL0     C22070   2.641   6.786   9.541  0.5539  0.6998  0.2043
  168MOL0     C22071   2.695   6.906   9.594 -0.0377  0.3667 -0.1141
  168MOL0     C22072   2.808   6.961   9.544  0.4047  0.1974  0.5956
  168MOL0     C22073   2.863   7.082   9.604  0.0131 -0.5940  0.4261
  168MOL0     O22074   2.843   7.105   9.739 -0.0712 -0.2235 -0.2540
  168MOL0     C22075   2.917   7.188   9.817  1.0059 -0.4773  0.4724
  168MOL0     C22076   3.020   7.270   9.781  0.2437 -0.8681  0.3399
  168MOL0     C22077   3.079   7.370   9.857  0.6604 -0.1841  0.9276
  168MOL0     C22078   3.045   7.378   9.993 -1.1412  0.9578  0.8169
  168MOL0     O22079   3.104   7.485  10.060  0.3515  1.2480  0.4751
  168MOL0     C22080   3.138   7.454  10.195 -0.3813  0.3122  0.1210
  168MOL0     C22081   3.251   7.540  10.244  1.0664 -0.4453  0.0098
  168MOL0     C22082   3.278   7.495  10.389  0.1100 -0.7887  0.8919
  168MOL0     C22083   3.386   7.584  10.448  1.0889 -0.0168  0.2493
  168MOL0     C22084   3.463   7.505  10.554  0.2818 -0.3940  1.0075
  168MOL0     C22085   3.607   7.565  10.573 -0.8955 -0.3981 -0.2638
  168MOL0     C22086   3.624   7.705  10.646  0.4268 -0.7802 -0.5455
  168MOL0     C22087   3.549   7.706  10.779  1.0042  0.2521 -0.1038
  168MOL0    Cl22088   3.557   7.863  10.851 -0.2826  0.1134  0.0765
  168MOL0     C22089   2.940   7.294  10.039 -0.7625  0.4006  0.6916
  168MOL0     C22090   2.878   7.206   9.949 -0.2029  0.9909 -0.6061
  168MOL0     O22091   2.933   7.159   9.527 -0.6370  0.7570 -0.0870
  168MOL0     C22092   2.861   6.902   9.427  0.4053  0.4181 -0.0376
  168MOL0     C22093   2.806   6.783   9.372 -0.4254  0.0675  0.2509
  168MOL0     N22094   2.768   6.182   8.907  0.9994 -0.3918 -0.0661
  168MOL0     N22095   2.756   6.087   8.822  0.1797 -0.2875 -1.0154
  168MOL0     C22096   3.315   5.725   8.019 -0.6999  1.2071 -1.3947
  168MOL0     C22097   3.442   5.687   7.975 -0.1341  0.5682 -1.0575
  168MOL0     C22098   3.883   5.749   7.833 -0.4308 -0.4603 -0.5655
  168MOL0     C22099   4.007   5.816   7.819  0.6275 -0.3202 -1.6947
  168MOL0     C22100   4.113   5.773   7.741  0.5955 -0.2426  0.2052
  168MOL0     C22101   4.103   5.656   7.668  0.0381  0.4160 -1.2697
  168MOL0     O22102   4.209   5.630   7.573 -0.7215 -0.0241 -0.7457
  168MOL0     C22103   4.188   5.515   7.477 -0.2458 -0.2460 -0.5397
  168MOL0     C22104   4.268   5.522   7.353 -0.8189  1.2246  0.4370
  168MOL0     C22105   4.276   5.655   7.281 -0.1949 -0.4396  0.3483
  168MOL0     C22106   4.146   5.702   7.215 -0.1426 -0.9481  0.3236
  168MOL0     C22107   4.078   5.799   7.299 -0.2593 -0.4132 -0.4227
  168MOL0     C22108   4.037   5.876   7.391 -0.1126 -0.0634 -0.8166
  168MOL0     C22109   3.979   5.584   7.681 -0.1457 -0.4690  0.2893
  168MOL0     C22110   3.868   5.631   7.755  0.4659  0.0248  0.2769
  168MOL0     H22111   3.601   5.961   8.095  0.7921 -0.8500 -2.2865
  168MOL0     H22112   3.391   6.012   8.187 -0.6738 -0.9647  2.6750
  168MOL0     H22113   3.025   5.977   8.220  0.1352 -0.4906  0.1999
  168MOL0     H22114   3.182   6.054   8.202  0.9335 -0.7548 -0.5509
  168MOL0     H22115   3.254   5.968   8.416 -0.3719 -1.3537  0.7964
  168MOL0     H22116   3.185   5.814   8.373 -0.6114 -1.3371 -1.3989
  168MOL0     H22117   2.992   6.038   8.456  0.6951  1.5739  1.9694
  168MOL0     H22118   3.095   5.957   8.573 -3.0143  2.5106  0.6570
  168MOL0     H22119   2.924   5.813   8.364  2.8645  1.5057 -1.3347
  168MOL0     H22120   3.017   5.737   8.487  2.0745  0.5778 -0.6854
  168MOL0     H22121   2.847   5.818   8.664 -2.4614  0.7986  0.0751
  168MOL0     H22122   2.770   5.740   8.528  3.9297 -1.8444 -2.0274
  168MOL0     H22123   2.747   5.995   8.429 -3.4233  0.2457 -1.1380
  168MOL0     H22124   2.807   6.048   8.576 -0.3697  1.7700 -1.2811
  168MOL0     H22125   2.563   6.066   8.555 -2.2871 -1.1885 -2.6679
  168MOL0     H22126   2.541   5.912   8.514 -0.4783  0.2813  0.0544
  168MOL0     H22127   2.652   5.854   8.750  2.7915  0.4127 -4.4584
  168MOL0     H22128   2.480   5.912   8.759 -0.7258 -0.5200 -0.1393
  168MOL0     H22129   2.444   6.146   8.924  1.0037  1.9787  3.4865
  168MOL0     H22130   2.494   6.335   9.058  0.1160 -0.5532  0.1794
  168MOL0     H22131   2.642   6.422   9.016  1.2448 -2.0675  0.0377
  168MOL0     H22132   2.774   6.290   9.183  0.9415 -4.1094 -0.8712
  168MOL0     H22133   2.631   6.195   9.221  1.8884 -0.3518 -0.4480
  168MOL0     H22134   2.508   6.398   9.263  0.2280  0.7331 -1.3297
  168MOL0     H22135   2.631   6.339   9.380  2.2278  1.2996 -0.0810
  168MOL0     H22136   2.665   6.574   9.181  1.2700 -1.1298 -0.4842
  168MOL0     H22137   2.788   6.534   9.300  0.3469  3.0301  0.4733
  168MOL0     H22138   2.553   6.734   9.578  0.0899 -0.3152 -2.1475
  168MOL0     H22139   2.649   6.950   9.682 -3.1468  4.4018 -3.3470
  168MOL0     H22140   3.047   7.279   9.676  0.9596  2.1654  0.6993
  168MOL0     H22141   3.150   7.442   9.818  2.6892 -1.9801  1.1143
  168MOL0     H22142   3.193   7.361  10.178 -0.3823  0.5836 -1.5639
  168MOL0     H22143   3.048   7.453  10.257 -2.1463 -0.3596 -2.2974
  168MOL0     H22144   3.221   7.645  10.241  0.5868 -0.3901  3.2068
  168MOL0     H22145   3.345   7.539  10.188  1.5643  1.8231  0.7131
  168MOL0     H22146   3.315   7.393  10.378  0.4538 -0.6433  0.6574
  168MOL0     H22147   3.196   7.493  10.462  2.2559 -1.2142  3.4308
  168MOL0     H22148   3.453   7.605  10.365 -1.3179 -3.1216 -2.7695
  168MOL0     H22149   3.349   7.679  10.488  2.3665  0.9584 -0.8077
  168MOL0     H22150   3.483   7.399  10.534 -1.7874 -0.6124 -0.2137
  168MOL0     H22151   3.403   7.511  10.645 -1.7316  1.0182 -0.3177
  168MOL0     H22152   3.663   7.571  10.479  2.1871  1.4077  1.5432
  168MOL0     H22153   3.672   7.497  10.630 -0.1123  1.3719  1.0451
  168MOL0     H22154   3.728   7.732  10.667  0.6023 -0.9055 -1.2459
  168MOL0     H22155   3.568   7.773  10.581 -1.6655 -1.6190  0.2913
  168MOL0     H22156   3.610   7.633  10.833  1.9443  0.4793 -0.8156
  168MOL0     H22157   3.444   7.679  10.771  1.5916 -1.8235 -1.9288
  168MOL0     H22158   2.919   7.318  10.143  2.4486 -0.2481  1.6148
  168MOL0     H22159   2.796   7.151   9.995 -0.4412  1.3387 -0.6096
  168MOL0     H22160   2.950   6.952   9.389 -0.3006  2.6157  1.0599
  168MOL0     H22161   2.860   6.726   9.297  0.8986  0.5409  0.8153
  168MOL0     H22162   3.246   5.642   8.010  0.7475 -0.9558  3.8082
  168MOL0     H22163   3.456   5.597   7.915  0.5597  1.4093 -2.1883
  168MOL0     H22164   4.008   5.914   7.866 -2.4049 -1.5629  1.3794
  168MOL0     H22165   4.194   5.846   7.742 -0.7194  1.3051  1.8382
  168MOL0     H22166   4.080   5.502   7.460 -0.9027 -0.2690  2.9692
  168MOL0     H22167   4.213   5.420   7.525  0.7445  0.9618  1.4403
  168MOL0     H22168   4.365   5.492   7.392 -1.1261 -1.2114 -0.4876
  168MOL0     H22169   4.236   5.443   7.284 -0.3386  1.2510  0.1851
  168MOL0     H22170   4.348   5.642   7.199 -0.5903  2.9460 -0.7026
  168MOL0     H22171   4.335   5.724   7.342  1.0276 -1.1518  0.0127
  168MOL0     H22172   4.153   5.756   7.120 -1.8512  0.2167  0.8010
  168MOL0     H22173   4.078   5.618   7.199 -0.3588 -1.0703  1.7932
  168MOL0     H22174   4.004   5.932   7.476  1.5174 -2.1416  1.3037
  168MOL0     H22175   3.985   5.487   7.632  0.0705  0.0737 -0.7737
  168MOL0     H22176   3.779   5.570   7.746  0.8091 -0.4581  0.1358
  169MOL0     O22177   4.689   4.949   2.885  0.5194 -0.5002 -0.8878
  169MOL0     C22178   4.785   5.020   2.860  0.1608  0.6487 -0.4463
  169MOL0     O22179   4.799   5.157   2.884  0.4440 -0.6617 -0.1297
  169MOL0     C22180   4.702   5.219   2.955  0.1371 -0.6724 -0.0805
  169MOL0     C22181   4.564   5.215   2.914 -0.5222 -0.9374  0.5248
  169MOL0     C22182   4.470   5.283   2.987  0.0466  0.7691 -0.6186
  169MOL0     C22183   4.506   5.341   3.110 -0.1645 -0.5960 -0.0309
  169MOL0     O22184   4.396   5.404   3.167 -1.0011 -0.5575  0.4457
  169MOL0     C22185   4.402   5.459   3.300 -0.8154 -0.4228 -0.6232
  169MOL0     C22186   4.445   5.607   3.302  0.2506  0.3661 -0.2875
  169MOL0     C22187   4.474   5.649   3.451  0.0676 -0.6343 -0.5932
  169MOL0     C22188   4.486   5.808   3.467 -0.2714  0.4698 -0.0206
  169MOL0     C22189   4.547   5.843   3.597  0.0011 -0.1024 -0.8277
  169MOL0     C22190   4.457   5.828   3.717  0.3307 -0.4943  0.4490
  169MOL0     C22191   4.525   5.861   3.850 -0.2749 -0.0129  0.6078
  169MOL0     C22192   4.583   6.005   3.867 -0.0291 -1.0285  0.1227
  169MOL0     N22193   4.655   6.020   4.003 -0.8971  0.3941  0.4029
  169MOL0     C22194   4.723   5.910   4.070 -0.0040  0.2036  0.5410
  169MOL0     C22195   4.794   5.966   4.168 -0.5777  0.4012 -0.2093
  169MOL0     C22196   4.863   5.891   4.275 -0.6597 -0.2519  0.1316
  169MOL0     C22197   5.015   5.936   4.297 -0.3651  0.0831 -0.5552
  169MOL0     C22198   5.104   5.889   4.187 -0.8442 -0.3539  0.5081
  169MOL0     C22199   5.247   5.931   4.194 -0.0044  0.4231  0.7317
  169MOL0     O22200   5.259   6.073   4.179  0.3257  0.0657  0.1379
  169MOL0     C22201   5.374   6.137   4.159 -0.2341  0.2221 -0.6544
  169MOL0     C22202   5.491   6.101   4.217 -0.3163  0.7044  0.9355
  169MOL0     C22203   5.607   6.180   4.207 -0.0469  1.1010 -1.0598
  169MOL0     C22204   5.608   6.295   4.127 -0.6773  0.2035  0.0837
  169MOL0     C22205   5.743   6.357   4.094  1.0335 -0.1523  1.0656
  169MOL0     O22206   5.840   6.347   4.193  0.4705  0.9276 -0.0369
  169MOL0     C22207   5.974   6.388   4.167 -0.5276 -0.6745 -0.5490
  169MOL0     C22208   6.032   6.495   4.241 -0.1930  0.5532 -0.7279
  169MOL0     C22209   6.163   6.536   4.212 -0.9540  0.1991 -1.0273
  169MOL0     C22210   6.235   6.471   4.113  0.6488  0.7196 -0.5128
  169MOL0     O22211   6.360   6.515   4.091 -0.0366 -0.3948  0.5887
  169MOL0     C22212   6.457   6.429   4.028  0.0192 -0.7904 -1.2758
  169MOL0     C22213   6.595   6.492   4.016  0.4836  0.4656 -0.6373
  169MOL0     C22214   6.651   6.504   4.154  0.4137 -0.7390  1.1398
  169MOL0     C22215   6.772   6.594   4.139  0.6944 -0.1290  0.2058
  169MOL0     C22216   6.842   6.608   4.275  0.9718 -0.2585  0.4050
  169MOL0     C22217   6.985   6.649   4.264 -0.9376 -0.0963 -0.3279
  169MOL0     C22218   7.018   6.787   4.214 -0.1726  1.1865 -0.2212
  169MOL0     C22219   7.170   6.806   4.237 -0.5541  0.0213 -0.1239
  169MOL0    Cl22220   7.263   6.701   4.113  0.0780  0.3193  0.1022
  169MOL0     C22221   6.172   6.378   4.031  0.1589 -0.5287  0.4751
  169MOL0     C22222   6.045   6.331   4.057  0.5139 -0.1146 -0.5241
  169MOL0     O22223   5.746   6.437   4.003  1.0680  0.0968  0.2680
  169MOL0     C22224   5.485   6.327   4.070 -0.0301 -1.1717 -1.1982
  169MOL0     C22225   5.368   6.254   4.088 -0.3179  0.7511  0.0755
  169MOL0     N22226   4.756   6.099   4.184  0.1532 -0.4939  0.1063
  169MOL0     N22227   4.681   6.134   4.080 -0.5034  0.5933 -0.3574
  169MOL0     C22228   4.634   5.334   3.160  0.2135  1.3064  0.3086
  169MOL0     C22229   4.734   5.280   3.078 -1.3001  0.0739  0.4015
  169MOL0     C22230   4.892   4.957   2.773 -0.0440 -0.1296 -0.0783
  169MOL0     C22231   4.969   5.033   2.684 -0.5132 -0.6564  1.1399
  169MOL0     C22232   5.075   4.969   2.616 -0.6437 -0.0593  0.8255
  169MOL0     C22233   5.103   4.834   2.629 -0.5780 -0.2843 -0.9743
  169MOL0     O22234   5.203   4.781   2.552  0.3386 -0.2016  0.1483
  169MOL0     C22235   5.242   4.640   2.567  0.1234  0.1817  0.2812
  169MOL0     C22236   5.148   4.565   2.476 -0.4252 -0.0191 -0.0043
  169MOL0     C22237   5.211   4.427   2.443 -1.0308 -0.4122 -0.0497
  169MOL0     C22238   5.136   4.370   2.320  0.3532  0.8000 -0.1986
  169MOL0     C22239   5.190   4.439   2.198 -0.0359  0.1366  0.4519
  169MOL0     C22240   5.217   4.510   2.103  0.0447 -0.0459  0.6560
  169MOL0     C22241   5.019   4.764   2.711  0.4797  0.0515  0.6559
  169MOL0     C22242   4.909   4.819   2.778  0.4114 -0.4498  0.0427
  169MOL0     H22243   4.541   5.169   2.819  1.5459  1.3176 -1.2005
  169MOL0     H22244   4.372   5.287   2.941 -0.3590  1.5847  0.2589
  169MOL0     H22245   4.468   5.394   3.359 -2.5123 -3.3254 -1.7180
  169MOL0     H22246   4.311   5.458   3.362 -0.0639  2.0666  0.6433
  169MOL0     H22247   4.375   5.669   3.246  0.2476 -0.4423 -1.2053
  169MOL0     H22248   4.538   5.610   3.246  0.3565  0.3304 -0.1137
  169MOL0     H22249   4.573   5.605   3.467 -0.3115 -2.1612 -2.2233
  169MOL0     H22250   4.402   5.615   3.525 -0.3252 -0.0768 -0.7114
  169MOL0     H22251   4.560   5.836   3.392  3.1570 -0.3262  2.8235
  169MOL0     H22252   4.395   5.868   3.456 -1.6725 -1.4289  0.6001
  169MOL0     H22253   4.580   5.948   3.589  0.3988 -0.0622  0.8488
  169MOL0     H22254   4.635   5.782   3.622  2.0149  2.3777 -1.3977
  169MOL0     H22255   4.426   5.723   3.722  0.0615 -0.3976  0.8253
  169MOL0     H22256   4.367   5.890   3.704  1.4129  1.5113  1.9221
  169MOL0     H22257   4.458   5.833   3.932 -1.9074  1.4569 -0.1621
  169MOL0     H22258   4.614   5.799   3.861  0.4054  0.5676 -1.2489
  169MOL0     H22259   4.503   6.080   3.865  0.4515 -0.4723 -3.2289
  169MOL0     H22260   4.658   6.027   3.791  1.5403 -1.6580  1.4297
  169MOL0     H22261   4.747   5.809   4.038  1.7584 -0.3243  3.2676
  169MOL0     H22262   4.860   5.783   4.256  0.1878 -1.0533  3.8326
  169MOL0     H22263   4.807   5.898   4.368  1.0076 -2.7951  1.4331
  169MOL0     H22264   5.048   5.874   4.380  3.6266  0.0623 -1.9681
  169MOL0     H22265   5.030   6.037   4.337 -4.1171 -0.8276  4.1018
  169MOL0     H22266   5.100   5.780   4.178  0.7166 -0.2578 -2.5559
  169MOL0     H22267   5.069   5.934   4.094  1.5225 -0.5831 -0.5666
  169MOL0     H22268   5.303   5.881   4.114  0.1738  2.0109 -0.1938
  169MOL0     H22269   5.293   5.903   4.288 -2.0392  1.7406  2.2093
  169MOL0     H22270   5.511   6.011   4.275  1.6588  1.0897  0.9143
  169MOL0     H22271   5.695   6.148   4.262 -0.0554  0.2469 -1.5282
  169MOL0     H22272   5.977   6.550   4.317  1.2943 -1.4607  1.9757
  169MOL0     H22273   6.222   6.616   4.256  1.8463 -0.3472 -3.4961
  169MOL0     H22274   6.423   6.405   3.926  1.1298  2.4418 -2.5411
  169MOL0     H22275   6.465   6.345   4.097 -1.6055 -0.6821 -0.8947
  169MOL0     H22276   6.573   6.580   3.955 -5.3203 -0.4511 -0.5115
  169MOL0     H22277   6.667   6.427   3.964 -1.6948 -2.2465 -0.5253
  169MOL0     H22278   6.677   6.409   4.202 -2.6685 -0.9461  2.5921
  169MOL0     H22279   6.581   6.559   4.217 -0.8825 -0.4345 -0.5292
  169MOL0     H22280   6.844   6.553   4.068 -1.2085 -1.9542 -0.7743
  169MOL0     H22281   6.738   6.694   4.109  2.9172  0.6556  0.1135
  169MOL0     H22282   6.837   6.508   4.319  3.5837 -1.8369 -2.5332
  169MOL0     H22283   6.792   6.678   4.343 -2.9262 -3.6578  1.5084
  169MOL0     H22284   7.035   6.574   4.203  2.7755  2.3043 -0.5248
  169MOL0     H22285   7.029   6.644   4.364  2.2159  0.6172 -1.5520
  169MOL0     H22286   6.992   6.793   4.108  0.1642  0.1582 -0.3765
  169MOL0     H22287   6.960   6.862   4.268  0.4051  2.0289 -0.7558
  169MOL0     H22288   7.210   6.771   4.332  2.9372  0.4913 -1.2859
  169MOL0     H22289   7.210   6.907   4.227 -1.5401  0.9829  3.8060
  169MOL0     H22290   6.225   6.347   3.941  0.8476  2.0384 -0.0622
  169MOL0     H22291   6.004   6.245   4.005  1.2812 -2.4300  2.3984
  169MOL0     H22292   5.491   6.410   3.999 -4.5073  1.0535  0.5927
  169MOL0     H22293   5.277   6.304   4.055  0.5708  2.3914  0.0194
  169MOL0     H22294   4.659   5.364   3.261 -1.1519 -3.2130  2.2614
  169MOL0     H22295   4.835   5.282   3.118 -0.4381  1.0695 -1.6819
  169MOL0     H22296   4.957   5.140   2.674 -1.9015 -1.0049 -2.8166
  169MOL0     H22297   5.140   5.030   2.554 -2.8800  2.0447  0.3921
  169MOL0     H22298   5.235   4.611   2.672 -1.5304  4.2001  1.4633
  169MOL0     H22299   5.340   4.627   2.520  0.0201  1.7202 -0.4325
  169MOL0     H22300   5.053   4.538   2.524  0.7773 -3.9870  0.5169
  169MOL0     H22301   5.128   4.615   2.381 -0.7362 -1.0459 -0.4853
  169MOL0     H22302   5.204   4.353   2.524 -3.3418  3.3957  3.6328
  169MOL0     H22303   5.314   4.443   2.411 -0.8528 -1.0308  0.1957
  169MOL0     H22304   5.158   4.265   2.301  1.3560  0.9849 -0.0861
  169MOL0     H22305   5.029   4.382   2.341  0.5734  4.4889 -0.4959
  169MOL0     H22306   5.245   4.570   2.019  0.3017  0.4718  1.1007
  169MOL0     H22307   5.040   4.659   2.729  0.9546 -0.5519 -2.7127
  169MOL0     H22308   4.849   4.756   2.843  0.7916 -1.6323 -0.7184
  170MOL0     O22309   9.750   3.719   5.367  0.8531  0.9966  0.5859
  170MOL0     C22310   9.675   3.634   5.314 -0.9385  0.7311 -1.3699
  170MOL0     O22311   9.652   3.618   5.187  0.4915 -0.4354  0.0340
  170MOL0     C22312   9.738   3.672   5.095  1.1306  0.1252 -0.2664
  170MOL0     C22313   9.671   3.705   4.973 -0.6951 -0.1070 -0.2717
  170MOL0     C22314   9.746   3.757   4.861 -0.6973  0.0464 -0.0512
  170MOL0     C22315   9.885   3.779   4.870  0.6197  0.7962  0.1638
  170MOL0     O22316   9.952   3.838   4.759  0.6109  0.1612  0.3289
  170MOL0     C22317  10.090   3.878   4.754  0.6224  0.0965  0.3464
  170MOL0     C22318  10.132   3.909   4.609 -0.1373 -0.2679  0.5809
  170MOL0     C22319  10.017   3.963   4.510  0.6716  0.2628  0.4872
  170MOL0     C22320  10.072   4.004   4.371  0.3190 -0.3534 -1.0240
  170MOL0     C22321   9.959   4.046   4.277 -0.1975 -0.2835  0.5427
  170MOL0     C22322  10.001   4.140   4.166 -0.6752 -0.4919  0.1124
  170MOL0     C22323   9.892   4.182   4.066 -0.0409 -0.4094  0.4486
  170MOL0     C22324   9.929   4.295   3.967 -0.6939 -0.0682 -0.3993
  170MOL0     N22325  10.037   4.268   3.869 -1.3422  0.4160 -0.4206
  170MOL0     C22326  10.055   4.148   3.812 -0.1541  0.8625 -0.1797
  170MOL0     C22327  10.156   4.170   3.722  0.2448 -0.8359  0.4888
  170MOL0     C22328  10.196   4.070   3.617 -0.4528 -0.0652  0.5012
  170MOL0     C22329  10.123   4.096   3.487  0.1038  0.2964  0.0714
  170MOL0     C22330   9.971   4.046   3.485  0.3919 -0.9026 -0.7184
  170MOL0     C22331   9.917   4.071   3.343  0.0082  0.0859 -0.8198
  170MOL0     O22332   9.929   3.948   3.270  0.1295 -0.1970 -0.1203
  170MOL0     C22333   9.944   3.959   3.132 -0.4091  0.0871 -0.4843
  170MOL0     C22334   9.881   4.059   3.061 -0.4706  0.1395  0.0246
  170MOL0     C22335   9.888   4.067   2.931  0.2029 -0.2897 -0.3444
  170MOL0     C22336   9.970   3.971   2.863 -0.1911  0.4388  0.4253
  170MOL0     C22337   9.984   3.982   2.715 -0.4082 -0.6487  0.3350
  170MOL0     O22338   9.934   4.080   2.644  0.5452 -0.6884  0.1427
  170MOL0     C22339   9.929   4.096   2.504 -0.2365 -0.0538  0.1572
  170MOL0     C22340  10.042   4.072   2.418  0.0801  0.0815 -0.6086
  170MOL0     C22341  10.045   4.115   2.290 -0.4744  0.4315  0.0657
  170MOL0     C22342   9.936   4.179   2.229 -0.0253 -1.1557  0.3689
  170MOL0     O22343   9.954   4.236   2.107 -0.5676  0.2169  0.2400
  170MOL0     C22344  10.007   4.139   2.009  0.3137 -0.1825 -0.1064
  170MOL0     C22345   9.921   4.018   1.975 -0.2162  0.8718 -0.7460
  170MOL0     C22346   9.784   4.039   1.902  0.4272 -0.0779  1.0515
  170MOL0     C22347   9.682   3.916   1.931 -0.6922  0.4323  0.6541
  170MOL0     C22348   9.543   3.968   1.875 -0.1161  0.3937 -0.1351
  170MOL0     C22349   9.420   3.904   1.943  0.1838 -0.6370  0.3619
  170MOL0     C22350   9.291   3.920   1.876  0.0359  0.1005 -0.4377
  170MOL0     C22351   9.168   3.860   1.948 -0.0378 -0.1340 -0.2734
  170MOL0    Cl22352   9.033   3.852   1.830  0.5168  0.0470 -0.0400
  170MOL0     C22353   9.826   4.212   2.313  0.2140 -0.4119 -0.7436
  170MOL0     C22354   9.826   4.174   2.446  0.1079 -0.4913  1.1921
  170MOL0     O22355  10.050   3.893   2.668  0.0013  0.5041 -0.3024
  170MOL0     C22356  10.037   3.874   2.935  0.0656 -0.1384  0.7784
  170MOL0     C22357  10.024   3.864   3.067 -0.0698  0.4824 -0.9474
  170MOL0     N22358  10.203   4.303   3.715  0.6525  0.0037 -0.4821
  170MOL0     N22359  10.128   4.353   3.814 -0.0762 -0.5607  0.2354
  170MOL0     C22360   9.949   3.747   5.000  0.9493  0.3452  0.2653
  170MOL0     C22361   9.872   3.685   5.106  0.5244 -0.5492 -0.5155
  170MOL0     C22362   9.603   3.547   5.400 -0.2594 -0.5062 -0.6507
  170MOL0     C22363   9.568   3.588   5.525 -0.1248 -0.1175 -1.4143
  170MOL0     C22364   9.485   3.507   5.604 -0.0787 -0.6303  0.2204
  170MOL0     C22365   9.440   3.378   5.561 -0.0292 -1.1413  0.5025
  170MOL0     O22366   9.356   3.295   5.629  0.5810  0.1591  0.0419
  170MOL0     C22367   9.264   3.354   5.733 -0.3836  0.0644  0.2012
  170MOL0     C22368   9.134   3.381   5.675 -0.0170 -0.4269  0.1936
  170MOL0     C22369   9.057   3.495   5.749 -0.0609 -0.5470 -0.8117
  170MOL0     C22370   8.925   3.538   5.687 -0.4061 -0.0817  0.5961
  170MOL0     C22371   8.845   3.620   5.783 -0.0876  0.1721 -0.4758
  170MOL0     C22372   8.767   3.692   5.849  0.6104  0.1937  0.5833
  170MOL0     C22373   9.486   3.335   5.435 -0.0108  0.1872 -0.3101
  170MOL0     C22374   9.575   3.416   5.362  0.4082 -0.3964 -0.5766
  170MOL0     H22375   9.567   3.674   4.968  0.2389 -4.3008  1.3614
  170MOL0     H22376   9.706   3.786   4.765 -0.3820  1.6839  0.2791
  170MOL0     H22377  10.142   3.789   4.790 -3.2860 -2.3705  0.5145
  170MOL0     H22378  10.123   3.955   4.824  1.8777 -0.7789  0.7502
  170MOL0     H22379  10.188   3.829   4.559  1.4520  1.1931 -0.1137
  170MOL0     H22380  10.212   3.984   4.618 -0.7873  0.5911 -0.5365
  170MOL0     H22381   9.969   4.048   4.559  1.5101  1.0348  0.0079
  170MOL0     H22382   9.953   3.875   4.497  1.7558 -0.4831 -0.0320
  170MOL0     H22383  10.133   4.095   4.378 -2.3266  1.4439 -0.1259
  170MOL0     H22384  10.137   3.926   4.329  2.9454  1.2290 -0.1950
  170MOL0     H22385   9.875   4.093   4.330 -2.9497  0.0494 -3.5876
  170MOL0     H22386   9.919   3.958   4.226 -0.7940  0.4952 -0.3852
  170MOL0     H22387  10.081   4.092   4.110  1.2207  0.5565  1.7719
  170MOL0     H22388  10.043   4.228   4.216 -0.5216  0.6630 -1.9435
  170MOL0     H22389   9.860   4.088   4.021 -2.3768 -1.5357  4.0180
  170MOL0     H22390   9.807   4.225   4.120  0.3359  1.5194 -0.4240
  170MOL0     H22391   9.941   4.392   4.017 -1.2184 -0.8891  1.4300
  170MOL0     H22392   9.846   4.309   3.899  1.8308  1.3867 -3.4060
  170MOL0     H22393  10.015   4.050   3.836 -0.6025 -0.0295 -3.9910
  170MOL0     H22394  10.179   3.970   3.659  0.6309 -0.1674  0.7186
  170MOL0     H22395  10.300   4.092   3.596 -0.2228 -0.6117  1.0204
  170MOL0     H22396  10.176   4.050   3.404 -1.2408 -1.4623  0.1178
  170MOL0     H22397  10.122   4.203   3.460  4.4984  0.3026 -0.6678
  170MOL0     H22398   9.966   3.942   3.519 -0.2876 -0.8064 -0.4977
  170MOL0     H22399   9.911   4.106   3.555 -0.6980 -1.5403 -1.0808
  170MOL0     H22400   9.962   4.150   3.284 -0.4672 -0.2912 -1.7064
  170MOL0     H22401   9.809   4.092   3.346 -0.6983 -2.7340 -2.6744
  170MOL0     H22402   9.820   4.138   3.105  0.4216  1.0657 -0.3381
  170MOL0     H22403   9.832   4.149   2.887 -0.9120 -0.1413  1.2896
  170MOL0     H22404  10.118   4.004   2.455 -1.6031 -0.6670  1.7554
  170MOL0     H22405  10.135   4.102   2.231  0.3667 -0.9150  1.5799
  170MOL0     H22406  10.107   4.106   2.038  0.2317 -0.1350  0.2323
  170MOL0     H22407  10.025   4.194   1.916  3.7878  0.9088  1.0501
  170MOL0     H22408   9.916   3.964   2.070 -1.0674  2.1737 -0.0319
  170MOL0     H22409   9.990   3.951   1.923  0.5997 -1.1458  2.6085
  170MOL0     H22410   9.803   4.045   1.794 -3.9684 -2.7667 -0.1290
  170MOL0     H22411   9.753   4.135   1.943 -2.2842 -1.4100  2.3872
  170MOL0     H22412   9.721   3.840   1.863  0.4979 -0.9831  2.7976
  170MOL0     H22413   9.681   3.888   2.037 -1.2830  0.2694  0.6101
  170MOL0     H22414   9.542   3.950   1.767  2.0506  1.0890 -0.3130
  170MOL0     H22415   9.536   4.077   1.880  0.3418  0.3587  2.0823
  170MOL0     H22416   9.423   3.938   2.047 -1.1350 -0.9775  0.5305
  170MOL0     H22417   9.439   3.797   1.958  3.1684 -0.1446  0.6692
  170MOL0     H22418   9.290   4.024   1.840 -0.4651 -1.0377 -4.2204
  170MOL0     H22419   9.308   3.872   1.779 -0.1622  0.8820 -0.8676
  170MOL0     H22420   9.137   3.923   2.032 -0.3131 -2.3417  1.3535
  170MOL0     H22421   9.195   3.764   1.993 -2.1209  0.0098  1.4150
  170MOL0     H22422   9.750   4.283   2.282  2.4815  1.5405 -2.1132
  170MOL0     H22423   9.741   4.218   2.497 -1.5748 -1.3556 -0.7224
  170MOL0     H22424  10.103   3.812   2.875  2.0734  2.4910  0.0889
  170MOL0     H22425  10.075   3.787   3.125 -3.3059 -1.9063 -0.9526
  170MOL0     H22426  10.052   3.774   5.021  0.2619  2.7837  0.8129
  170MOL0     H22427   9.914   3.657   5.203  0.4053  3.1236  0.7406
  170MOL0     H22428   9.607   3.680   5.566 -2.0138 -0.1474  0.6419
  170MOL0     H22429   9.457   3.551   5.700 -1.0116 -0.7691  0.0215
  170MOL0     H22430   9.304   3.449   5.768 -0.0598 -0.2679  0.7467
  170MOL0     H22431   9.248   3.287   5.818 -6.9697  0.7407  0.0096
  170MOL0     H22432   9.158   3.426   5.579  3.0166  2.3796  2.0349
  170MOL0     H22433   9.064   3.302   5.649 -5.7136  4.8005 -3.2235
  170MOL0     H22434   9.129   3.576   5.764  0.3004 -1.2378  1.6743
  170MOL0     H22435   9.037   3.453   5.849 -0.6617 -3.5602 -2.0735
  170MOL0     H22436   8.947   3.607   5.605 -1.9465  0.8835  0.9529
  170MOL0     H22437   8.868   3.450   5.657 -0.5428 -0.6226  2.3058
  170MOL0     H22438   8.708   3.762   5.906  1.4540 -0.5954  2.5221
  170MOL0     H22439   9.466   3.236   5.396 -3.6014  1.1961 -1.4282
  170MOL0     H22440   9.623   3.380   5.272  1.0018 -0.2881 -0.3075
  171MOL0     O22441   2.083   7.950   3.446  0.2965 -0.6837 -0.2607
  171MOL0     C22442   2.016   7.932   3.548 -0.1431  0.0274 -0.9962
  171MOL0     O22443   1.891   7.873   3.549 -1.1228 -0.1191  0.0154
  171MOL0     C22444   1.803   7.869   3.438 -0.1219 -1.2495 -0.2854
  171MOL0     C22445   1.744   7.991   3.391 -0.1497  0.2080 -0.3931
  171MOL0     C22446   1.630   7.993   3.309  0.6409 -0.0728 -0.2528
  171MOL0     C22447   1.558   7.877   3.271 -0.1053 -0.1241  0.4177
  171MOL0     O22448   1.443   7.874   3.200  0.0179 -0.0861  0.5701
  171MOL0     C22449   1.371   7.754   3.193 -0.1642  0.2570  0.3894
  171MOL0     C22450   1.295   7.730   3.317  0.3971  1.0037  0.1823
  171MOL0     C22451   1.233   7.601   3.329 -0.2167  0.6633  0.0212
  171MOL0     C22452   1.125   7.611   3.435 -0.1349  0.1646 -0.4040
  171MOL0     C22453   1.033   7.494   3.442  0.0462 -0.3463  0.9143
  171MOL0     C22454   0.919   7.496   3.551 -0.0340 -0.4031 -0.5852
  171MOL0     C22455   0.804   7.595   3.525 -0.5568  0.2506  0.0232
  171MOL0     C22456   0.788   7.675   3.649  0.0238 -0.6761 -0.4414
  171MOL0     N22457   0.896   7.767   3.670  0.6281  0.2681  0.0854
  171MOL0     C22458   0.903   7.895   3.605  0.4542 -0.3343  0.1022
  171MOL0     C22459   1.014   7.957   3.655 -0.1448  0.0489 -0.8598
  171MOL0     C22460   1.063   8.095   3.627  0.2067  0.7198 -0.5173
  171MOL0     C22461   1.148   8.078   3.498 -0.6759 -1.0663 -0.5570
  171MOL0     C22462   1.219   8.208   3.465 -0.6682  0.1490 -0.0141
  171MOL0     C22463   1.292   8.182   3.334 -0.6931 -0.2978  0.2899
  171MOL0     O22464   1.279   8.296   3.246  0.3873 -0.7033 -1.3104
  171MOL0     C22465   1.264   8.248   3.123 -0.0958  0.3674  0.1653
  171MOL0     C22466   1.155   8.289   3.047  0.4243 -0.0598 -0.1779
  171MOL0     C22467   1.132   8.237   2.922  0.3216 -0.1871  0.8052
  171MOL0     C22468   1.229   8.151   2.865  0.6557  0.1689  0.7679
  171MOL0     C22469   1.205   8.100   2.727 -0.2649  0.4882  0.1184
  171MOL0     O22470   1.259   7.973   2.694  0.0053  0.1644 -0.3123
  171MOL0     C22471   1.256   7.941   2.560 -0.5713 -0.3651 -0.7548
  171MOL0     C22472   1.148   7.904   2.488  0.5886 -0.2184 -0.1574
  171MOL0     C22473   1.160   7.853   2.357  0.3814 -0.0413  0.2550
  171MOL0     C22474   1.292   7.841   2.297  0.5484 -0.2541 -0.0056
  171MOL0     O22475   1.294   7.787   2.164 -0.9874 -0.0501 -0.2695
  171MOL0     C22476   1.417   7.745   2.108 -0.4255 -0.1508  0.5357
  171MOL0     C22477   1.466   7.839   1.991  0.4615  0.6487 -1.1612
  171MOL0     C22478   1.460   7.989   2.025  1.3013  0.3070  0.2367
  171MOL0     C22479   1.509   8.075   1.908 -0.4174  0.1633  0.0951
  171MOL0     C22480   1.482   8.219   1.922 -0.0795 -0.4302 -0.3471
  171MOL0     C22481   1.507   8.295   1.794  0.5894  0.1113  0.2779
  171MOL0     C22482   1.453   8.438   1.812  1.1099 -0.2068 -0.4929
  171MOL0     C22483   1.566   8.523   1.842  0.0202 -0.5432  1.4321
  171MOL0    Cl22484   1.651   8.497   2.005 -0.1383 -0.2845  0.0020
  171MOL0     C22485   1.400   7.897   2.365 -0.3184 -0.5089  1.1080
  171MOL0     C22486   1.379   7.951   2.495 -0.2895  1.6627 -0.3313
  171MOL0     O22487   1.155   8.181   2.645  0.3670  0.5030 -0.6808
  171MOL0     C22488   1.345   8.121   2.935 -0.6018  0.2390  0.0169
  171MOL0     C22489   1.358   8.169   3.065 -0.0783  0.2523 -0.0748
  171MOL0     N22490   1.066   7.862   3.746  0.1167 -0.6418 -0.1734
  171MOL0     N22491   0.994   7.755   3.757 -0.2311 -0.4391  0.0791
  171MOL0     C22492   1.628   7.761   3.318  0.1660  0.2374  0.3510
  171MOL0     C22493   1.751   7.755   3.394 -0.1928  0.1267 -0.1136
  171MOL0     C22494   2.083   7.949   3.682  0.3995  0.0481  0.0688
  171MOL0     C22495   2.223   7.956   3.691  0.1896 -0.1989 -0.0921
  171MOL0     C22496   2.286   7.990   3.813  0.1894 -0.4875 -0.3766
  171MOL0     C22497   2.215   8.042   3.921 -0.4202  0.7753 -1.1372
  171MOL0     O22498   2.273   8.081   4.047 -0.3073  0.1479 -0.2283
  171MOL0     C22499   2.389   8.169   4.032  0.1503  0.2204 -0.0597
  171MOL0     C22500   2.319   8.300   3.993  0.0118 -0.4655 -0.3363
  171MOL0     C22501   2.413   8.419   4.028  0.5372  0.1637  0.6020
  171MOL0     C22502   2.549   8.414   3.955  0.5460 -0.3907  0.0505
  171MOL0     C22503   2.627   8.532   3.981 -1.0755 -1.6291  0.4187
  171MOL0     C22504   2.692   8.629   4.011  1.7012 -0.4537 -0.6550
  171MOL0     C22505   2.078   8.028   3.915  0.2943  0.5245  0.0381
  171MOL0     C22506   2.019   7.988   3.796  0.6181 -0.1234 -0.2865
  171MOL0     H22507   1.787   8.081   3.435  0.2968  1.0132 -2.3486
  171MOL0     H22508   1.582   8.086   3.279  0.9778 -0.2066 -1.2693
  171MOL0     H22509   1.435   7.668   3.169 -0.8428 -0.0932 -0.2228
  171MOL0     H22510   1.314   7.750   3.099 -2.9146 -2.0198  2.0122
  171MOL0     H22511   1.231   7.818   3.328  0.2014  0.5918  3.2944
  171MOL0     H22512   1.356   7.720   3.407 -0.5486 -1.7952  0.5911
  171MOL0     H22513   1.315   7.540   3.368  1.3651  2.6305 -0.0868
  171MOL0     H22514   1.190   7.554   3.240  0.2117 -0.7153  0.5114
  171MOL0     H22515   1.172   7.611   3.533 -0.2592  0.7945 -0.3410
  171MOL0     H22516   1.068   7.704   3.437  0.8696  0.8595  3.6369
  171MOL0     H22517   1.106   7.419   3.471 -1.1022 -0.6668  3.1661
  171MOL0     H22518   0.994   7.481   3.340  0.2937  0.5619  0.6905
  171MOL0     H22519   0.977   7.515   3.642  1.3053 -1.7135 -1.1146
  171MOL0     H22520   0.871   7.398   3.562 -2.3201  0.9078  2.4042
  171MOL0     H22521   0.824   7.658   3.438  3.5123  4.2253  3.3270
  171MOL0     H22522   0.716   7.531   3.516  1.0668 -2.4914  1.9385
  171MOL0     H22523   0.774   7.603   3.731 -0.5221 -0.4003 -0.2850
  171MOL0     H22524   0.687   7.710   3.629 -1.6138 -4.5980  0.1382
  171MOL0     H22525   0.842   7.935   3.525  0.0230  1.1683  1.1477
  171MOL0     H22526   1.119   8.127   3.716  0.9556  1.8455 -1.3649
  171MOL0     H22527   0.980   8.163   3.606 -1.9184 -1.8454 -0.9454
  171MOL0     H22528   1.086   8.045   3.415 -0.9856 -4.5982  0.9057
  171MOL0     H22529   1.219   7.994   3.494 -0.5966 -0.9689 -3.4273
  171MOL0     H22530   1.153   8.295   3.459  0.2830  0.9118  0.3641
  171MOL0     H22531   1.293   8.230   3.543 -1.6449 -2.0030  1.6469
  171MOL0     H22532   1.256   8.089   3.289 -0.0057 -0.8899  0.9489
  171MOL0     H22533   1.399   8.167   3.352 -0.4939 -0.0263 -0.6132
  171MOL0     H22534   1.081   8.348   3.099 -0.0878 -1.5895  0.9270
  171MOL0     H22535   1.049   8.268   2.859 -0.3205 -3.6837 -0.2925
  171MOL0     H22536   1.046   7.914   2.522  1.6560 -0.9494  3.7272
  171MOL0     H22537   1.080   7.832   2.286  2.2081  0.2509 -2.0020
  171MOL0     H22538   1.416   7.640   2.077  0.2242  0.1169 -0.4173
  171MOL0     H22539   1.498   7.746   2.182  0.3029 -1.6761 -0.1952
  171MOL0     H22540   1.390   7.820   1.914 -1.4129  0.6927  0.5894
  171MOL0     H22541   1.561   7.808   1.947  0.4796 -0.5482 -0.3215
  171MOL0     H22542   1.538   7.992   2.102  1.6815 -0.4728 -0.1171
  171MOL0     H22543   1.360   8.023   2.055  0.5493  2.8225 -4.2639
  171MOL0     H22544   1.618   8.067   1.906 -0.4839 -2.9263  2.1551
  171MOL0     H22545   1.462   8.044   1.814 -0.4754  0.6777 -0.0473
  171MOL0     H22546   1.539   8.260   2.005  1.3306 -0.9596 -1.0176
  171MOL0     H22547   1.378   8.236   1.951  0.3917  0.4937  0.8626
  171MOL0     H22548   1.471   8.250   1.701  1.9555  1.1406 -0.7899
  171MOL0     H22549   1.616   8.301   1.785  0.5379  1.5190  0.4863
  171MOL0     H22550   1.383   8.473   1.735  1.2611  2.9760  0.6549
  171MOL0     H22551   1.382   8.450   1.895  2.3529 -2.2343  0.9470
  171MOL0     H22552   1.526   8.625   1.837  2.6803  0.5332 -0.1604
  171MOL0     H22553   1.631   8.501   1.756 -3.4084 -1.9302 -1.0667
  171MOL0     H22554   1.502   7.899   2.328 -1.2908 -3.0225 -2.1949
  171MOL0     H22555   1.466   7.994   2.543  1.4322  1.6094 -3.1628
  171MOL0     H22556   1.418   8.056   2.887 -2.3814 -0.9996 -1.1402
  171MOL0     H22557   1.448   8.140   3.119 -1.1671 -2.4094  0.4635
  171MOL0     H22558   1.611   7.658   3.290 -0.3495  0.2891  0.4543
  171MOL0     H22559   1.797   7.664   3.433  2.2947  0.5379 -1.8554
  171MOL0     H22560   2.293   7.925   3.614 -0.4215  0.2003 -0.8287
  171MOL0     H22561   2.394   7.982   3.817  0.3604  1.2103 -0.6330
  171MOL0     H22562   2.462   8.138   3.957 -0.0284 -0.2194 -0.0526
  171MOL0     H22563   2.435   8.191   4.129 -1.7572  2.3634  0.4310
  171MOL0     H22564   2.287   8.293   3.889  2.4396  0.2369 -1.1954
  171MOL0     H22565   2.231   8.314   4.057 -0.4996  1.1495 -1.3199
  171MOL0     H22566   2.435   8.424   4.135 -0.1603  0.3055  0.7393
  171MOL0     H22567   2.357   8.507   3.998  2.0314 -0.2323 -4.1628
  171MOL0     H22568   2.605   8.321   3.950  0.5489 -0.3277 -3.8596
  171MOL0     H22569   2.521   8.407   3.849  4.4761 -2.1857 -1.0422
  171MOL0     H22570   2.758   8.714   4.016  0.0735  0.7648  0.9512
  171MOL0     H22571   2.017   8.050   4.002  1.0846 -1.3600  1.1417
  171MOL0     H22572   1.910   7.989   3.798  0.5396 -1.1979  3.2399
  172MOL0     O22573   9.924  10.224   9.232  0.2959 -0.5839  1.1387
  172MOL0     C22574  10.007  10.311   9.252  0.2043  0.7557  1.0091
  172MOL0     O22575  10.099  10.343   9.160  0.6554  0.7641  0.1902
  172MOL0     C22576  10.101  10.291   9.027  0.7438 -0.7070  0.5976
  172MOL0     C22577  10.213  10.230   8.976 -0.2418  0.1933 -0.3470
  172MOL0     C22578  10.210  10.186   8.843  0.0492  0.2398 -0.3782
  172MOL0     C22579  10.110  10.216   8.758 -0.0955  0.4515  0.0388
  172MOL0     O22580  10.119  10.179   8.627 -0.2040  0.3490 -0.2028
  172MOL0     C22581  10.253  10.170   8.567  1.1602 -0.0955  0.2795
  172MOL0     C22582  10.250  10.167   8.407  0.0761  0.7259 -0.3236
  172MOL0     C22583  10.397  10.159   8.356  0.7798  0.7062  0.9045
  172MOL0     C22584  10.471  10.280   8.364  0.0195 -0.7885  0.3414
  172MOL0     C22585  10.409  10.422   8.350  0.3726 -0.4267 -0.4284
  172MOL0     C22586  10.337  10.455   8.208 -1.0106  0.1898 -1.1676
  172MOL0     C22587  10.439  10.425   8.089 -0.3286 -0.5533 -0.6479
  172MOL0     C22588  10.578  10.503   8.085  0.4993  0.4233  0.0149
  172MOL0     N22589  10.555  10.652   8.082  0.6347  0.2712  0.3253
  172MOL0     C22590  10.651  10.733   8.132 -0.8412 -2.0517  0.8377
  172MOL0     C22591  10.607  10.866   8.091  0.2477 -0.2531 -0.0536
  172MOL0     C22592  10.673  11.000   8.097 -0.0511 -0.8477 -0.5795
  172MOL0     C22593  10.745  11.022   8.229 -0.9201  0.7868 -0.1260
  172MOL0     C22594  10.847  11.142   8.225 -0.0239 -1.3032  0.3110
  172MOL0     C22595  10.908  11.172   8.362 -0.3576 -0.1317 -0.7198
  172MOL0     O22596  11.003  11.069   8.399 -1.0351  0.5235 -0.2764
  172MOL0     C22597  11.140  11.076   8.386  0.5253 -0.1737  0.0827
  172MOL0     C22598  11.215  10.964   8.433 -0.3898  0.4946 -0.0430
  172MOL0     C22599  11.348  10.948   8.395  0.2008 -0.0256 -0.3719
  172MOL0     C22600  11.407  11.046   8.304 -0.6596  0.1796  0.2052
  172MOL0     C22601  11.545  11.027   8.263 -0.3751 -0.8181  0.4318
  172MOL0     O22602  11.621  11.134   8.222  0.9177  0.2305  0.5930
  172MOL0     C22603  11.729  11.118   8.135  0.0058  1.0242  0.5484
  172MOL0     C22604  11.864  11.134   8.165 -0.6105 -0.3794 -0.9115
  172MOL0     C22605  11.963  11.125   8.071  0.1636 -0.4620 -0.7193
  172MOL0     C22606  11.931  11.111   7.942  0.7595  0.8899  0.7763
  172MOL0     O22607  12.046  11.124   7.862 -0.5605  0.7109  0.9570
  172MOL0     C22608  12.038  11.136   7.719  0.2410  0.6785  0.6244
  172MOL0     C22609  12.044  11.000   7.647 -0.7520 -0.3641  0.1355
  172MOL0     C22610  11.985  11.030   7.510  0.1183  0.2886 -0.7769
  172MOL0     C22611  12.013  10.895   7.442  0.2700  0.5079  0.6981
  172MOL0     C22612  11.967  10.912   7.295 -0.2475  0.9105 -0.2268
  172MOL0     C22613  12.001  10.781   7.218  1.2406  0.5263 -0.1725
  172MOL0     C22614  11.922  10.781   7.081  0.3739  0.3339  0.3457
  172MOL0     C22615  12.008  10.856   6.976  0.3113  0.7644 -1.2438
  172MOL0    Cl22616  11.911  10.908   6.835  0.2582 -0.2809  0.5532
  172MOL0     C22617  11.801  11.092   7.894 -0.2362 -0.3617 -0.0930
  172MOL0     C22618  11.709  11.083   7.996  0.3323  0.7642 -0.2372
  172MOL0     O22619  11.568  10.912   8.234 -0.7396  0.9372 -0.3117
  172MOL0     C22620  11.326  11.155   8.267 -0.6591 -0.1118  0.2363
  172MOL0     C22621  11.201  11.174   8.309  0.5687 -0.0257  0.4305
  172MOL0     N22622  10.507  10.845   8.006 -0.5725  0.6946 -0.2745
  172MOL0     N22623  10.485  10.717   7.987 -0.5201 -0.2399  0.0177
  172MOL0     C22624   9.997  10.287   8.804  0.3199 -1.8717  0.3726
  172MOL0     C22625   9.994  10.324   8.939 -0.5074  0.0122 -0.1691
  172MOL0     C22626   9.973  10.399   9.371 -0.2925  0.1213 -1.1212
  172MOL0     C22627  10.066  10.494   9.429 -0.7543 -0.1486  0.6097
  172MOL0     C22628  10.031  10.557   9.550 -0.4296 -1.7818 -0.7526
  172MOL0     C22629   9.905  10.554   9.600  0.0335 -1.2641 -0.8472
  172MOL0     O22630   9.849  10.606   9.720 -0.2643 -0.2206  0.9211
  172MOL0     C22631   9.939  10.697   9.783 -0.7618  0.3377  0.2547
  172MOL0     C22632   9.866  10.775   9.894  0.2699 -0.0634 -0.3231
  172MOL0     C22633   9.942  10.892   9.961  0.4701  0.2137  0.3696
  172MOL0     C22634   9.856  10.954  10.079 -0.9226 -0.3696  0.4895
  172MOL0     C22635   9.884  10.868  10.194  0.5218 -0.5518 -0.1629
  172MOL0     C22636   9.887  10.783  10.278  0.3116  0.0449  0.9970
  172MOL0     C22637   9.815  10.471   9.534 -0.4183  0.0975 -1.2793
  172MOL0     C22638   9.847  10.394   9.429 -0.2109 -0.4913  1.0274
  172MOL0     H22639  10.300  10.212   9.040 -1.2271 -1.1597  0.6750
  172MOL0     H22640  10.288  10.113   8.824 -0.9645 -1.2508  0.9137
  172MOL0     H22641  10.313  10.091   8.612 -1.4103 -2.0751  0.4661
  172MOL0     H22642  10.293  10.270   8.588 -0.7174  0.8601 -0.4611
  172MOL0     H22643  10.202  10.254   8.360 -0.8037  2.1036  2.8037
  172MOL0     H22644  10.200  10.074   8.380  0.2034 -0.1142  2.0587
  172MOL0     H22645  10.402  10.135   8.249 -1.5794  0.3853  0.7981
  172MOL0     H22646  10.446  10.067   8.390 -2.9066 -3.1301 -2.9001
  172MOL0     H22647  10.522  10.281   8.461 -3.7677  3.8889  2.7503
  172MOL0     H22648  10.545  10.262   8.286  1.8296 -0.3859  1.8855
  172MOL0     H22649  10.495  10.488   8.365 -0.1156 -0.1819  1.5795
  172MOL0     H22650  10.333  10.460   8.419  1.9537  2.6817 -0.2337
  172MOL0     H22651  10.287  10.552   8.213 -0.9745  0.2018  4.2575
  172MOL0     H22652  10.242  10.402   8.198 -2.1424  1.4392  1.9002
  172MOL0     H22653  10.456  10.320   8.113  0.6862 -0.0666  0.9231
  172MOL0     H22654  10.385  10.436   7.994 -0.3596  0.7498 -0.5015
  172MOL0     H22655  10.641  10.485   7.998 -0.3444 -0.1723 -0.4866
  172MOL0     H22656  10.638  10.489   8.176  0.5899 -2.1977 -0.3832
  172MOL0     H22657  10.746  10.719   8.182 -1.2228 -0.6506  2.0357
  172MOL0     H22658  10.605  11.082   8.073  1.8184  1.0009  0.1542
  172MOL0     H22659  10.751  11.005   8.020 -0.8958  1.7627 -1.3767
  172MOL0     H22660  10.801  10.931   8.251 -1.8265 -1.0734 -4.4245
  172MOL0     H22661  10.667  11.038   8.304  0.9951  4.2897  1.3768
  172MOL0     H22662  10.922  11.122   8.148  0.7954 -0.8851  0.9869
  172MOL0     H22663  10.775  11.220   8.198  0.6644 -0.5468  0.6438
  172MOL0     H22664  10.817  11.183   8.421 -2.3687 -1.6669 -3.3116
  172MOL0     H22665  10.962  11.267   8.369 -0.2698 -0.1871 -0.6368
  172MOL0     H22666  11.186  10.883   8.498  2.6853  0.2402  1.1783
  172MOL0     H22667  11.415  10.863   8.408  1.0331  0.4761 -1.2819
  172MOL0     H22668  11.900  11.141   8.267 -0.0155  0.9628 -1.1909
  172MOL0     H22669  12.062  11.146   8.109 -0.5931  0.6739  0.7485
  172MOL0     H22670  12.118  11.201   7.685  3.5037 -2.0802  2.4261
  172MOL0     H22671  11.946  11.181   7.679  1.0025  0.9456 -0.8676
  172MOL0     H22672  11.994  10.925   7.709 -0.8483  1.5322  2.4998
  172MOL0     H22673  12.152  10.982   7.644 -0.6503  0.3294 -0.7116
  172MOL0     H22674  12.030  11.114   7.456 -3.6490  1.7093 -2.0731
  172MOL0     H22675  11.876  11.032   7.522  0.2864 -0.7339  1.3754
  172MOL0     H22676  12.119  10.867   7.445 -0.0587 -1.3820 -2.1099
  172MOL0     H22677  11.952  10.820   7.493 -1.0073  1.2757  0.3383
  172MOL0     H22678  12.013  10.997   7.244  1.1493 -0.2300 -0.9468
  172MOL0     H22679  11.860  10.934   7.293 -0.5235 -0.3444 -0.5732
  172MOL0     H22680  11.971  10.693   7.275  0.8073 -2.0834 -4.0316
  172MOL0     H22681  12.107  10.795   7.196  1.4545  1.1022  1.1328
  172MOL0     H22682  11.912  10.681   7.038  0.2900  0.5890 -0.2549
  172MOL0     H22683  11.818  10.817   7.088  0.2931  0.3669 -0.7943
  172MOL0     H22684  12.099  10.799   6.956  1.3130  0.7004  2.6194
  172MOL0     H22685  12.043  10.943   7.032  1.3420 -0.7129  0.5471
  172MOL0     H22686  11.771  11.087   7.790  2.5717 -1.0677 -0.9590
  172MOL0     H22687  11.607  11.060   7.966  0.6261  2.7902 -3.2827
  172MOL0     H22688  11.360  11.234   8.201 -1.8702 -0.1848 -0.5063
  172MOL0     H22689  11.150  11.266   8.280 -0.3272 -0.4103  0.7679
  172MOL0     H22690   9.909  10.314   8.746  1.5842  0.2925 -0.6949
  172MOL0     H22691   9.906  10.378   8.974 -0.6481 -1.5448  2.0697
  172MOL0     H22692  10.165  10.516   9.391  0.5663 -1.6659  2.9552
  172MOL0     H22693  10.100  10.636   9.578  0.2449 -3.2229  2.0628
  172MOL0     H22694   9.984  10.762   9.708 -1.4554  0.3074 -0.1940
  172MOL0     H22695  10.025  10.635   9.812  1.1469  1.4430 -2.6327
  172MOL0     H22696   9.773  10.823   9.861  1.5284  1.4893 -1.8222
  172MOL0     H22697   9.830  10.707   9.972  0.7634 -0.6739 -0.6263
  172MOL0     H22698   9.961  10.973   9.890  0.0427 -0.9056 -1.0645
  172MOL0     H22699  10.042  10.859   9.991  1.2959  1.1388 -1.2645
  172MOL0     H22700   9.884  11.059  10.081 -2.4825  0.0599  1.8058
  172MOL0     H22701   9.748  10.962  10.067 -0.6591  0.0824 -2.3162
  172MOL0     H22702   9.890  10.706  10.352  2.7662 -1.4395 -0.5080
  172MOL0     H22703   9.713  10.457   9.569  0.7885 -2.3687  1.7870
  172MOL0     H22704   9.779  10.327   9.376 -0.6275  1.7752 -1.5502
  173MOL0     O22705   2.243   6.488   3.321  0.1088  0.4894 -0.0854
  173MOL0     C22706   2.284   6.393   3.248 -0.0511  0.0351 -1.1077
  173MOL0     O22707   2.202   6.285   3.208  0.4691  0.1639 -0.4569
  173MOL0     C22708   2.067   6.288   3.242 -0.9763  0.6911  0.6613
  173MOL0     C22709   2.026   6.224   3.352  0.2170  0.5216 -0.3182
  173MOL0     C22710   1.886   6.220   3.387  0.0014  0.2700  0.5085
  173MOL0     C22711   1.803   6.296   3.307 -0.4686  0.6381  0.4824
  173MOL0     O22712   1.671   6.315   3.350  0.3697 -0.2553  0.1788
  173MOL0     C22713   1.611   6.219   3.436 -0.2539  0.2248 -0.5245
  173MOL0     C22714   1.455   6.238   3.437  0.2564  0.6272 -0.0123
  173MOL0     C22715   1.410   6.348   3.536  0.0226 -0.1569  0.4861
  173MOL0     C22716   1.259   6.335   3.567  0.5357 -0.5737  0.3325
  173MOL0     C22717   1.224   6.430   3.678  0.5409 -0.4956 -0.1346
  173MOL0     C22718   1.234   6.574   3.639  0.3313 -0.3682 -0.6407
  173MOL0     C22719   1.137   6.608   3.515  0.3898 -0.6513 -0.9583
  173MOL0     C22720   1.044   6.739   3.535 -1.2248  0.0448 -0.6732
  173MOL0     N22721   0.950   6.709   3.642 -0.1788 -0.6386 -0.1487
  173MOL0     C22722   0.866   6.603   3.649 -0.0648  0.0705  0.4061
  173MOL0     C22723   0.790   6.621   3.760 -0.1484  0.8513 -0.0920
  173MOL0     C22724   0.659   6.550   3.789 -1.1922 -0.4741 -0.6008
  173MOL0     C22725   0.618   6.544   3.934 -0.9151  0.9545  0.0847
  173MOL0     C22726   0.642   6.411   4.000  0.2378 -0.0058  0.6494
  173MOL0     C22727   0.780   6.367   4.024 -1.0263 -0.4556 -0.4240
  173MOL0     O22728   0.823   6.307   3.901  0.0678 -0.0419  0.0267
  173MOL0     C22729   0.941   6.247   3.890  0.6607 -0.7582 -0.2960
  173MOL0     C22730   0.958   6.153   3.790  0.5713  0.2231  0.6661
  173MOL0     C22731   1.083   6.092   3.757 -0.1600 -0.5927 -0.8225
  173MOL0     C22732   1.203   6.128   3.834 -0.3708  0.1284  0.4947
  173MOL0     C22733   1.336   6.068   3.804  0.4225  0.3662 -0.2776
  173MOL0     O22734   1.436   6.109   3.886  0.3292 -0.4698 -0.1651
  173MOL0     C22735   1.570   6.094   3.865 -0.4368  0.0710  0.3232
  173MOL0     C22736   1.630   6.032   3.748 -0.0712 -0.4529 -0.0134
  173MOL0     C22737   1.770   6.013   3.740 -0.5386  0.0856 -0.6195
  173MOL0     C22738   1.858   6.068   3.842  0.1064 -0.1142 -0.2699
  173MOL0     O22739   1.991   6.044   3.828 -0.8191  0.3425 -0.5159
  173MOL0     C22740   2.073   6.160   3.827  0.4555 -0.1473  0.5913
  173MOL0     C22741   2.192   6.130   3.913  0.1036  0.0841  0.2346
  173MOL0     C22742   2.327   6.139   3.847 -0.7766  0.4332  0.8380
  173MOL0     C22743   2.338   6.014   3.753  0.5725 -0.7340  0.0633
  173MOL0     C22744   2.468   6.018   3.680  0.5480  0.4798  0.0670
  173MOL0     C22745   2.462   6.128   3.572 -0.0778 -0.1395  0.0163
  173MOL0     C22746   2.579   6.106   3.473 -0.7043  0.0779 -0.6495
  173MOL0     C22747   2.517   6.056   3.339  0.4643  0.8908 -0.7260
  173MOL0    Cl22748   2.627   6.030   3.203 -0.1668  0.1931 -0.2771
  173MOL0     C22749   1.805   6.139   3.948  0.6337 -1.0420  0.7599
  173MOL0     C22750   1.665   6.148   3.953 -0.3887 -0.5177 -0.1423
  173MOL0     O22751   1.340   5.989   3.712 -0.3064  0.3625 -0.0557
  173MOL0     C22752   1.179   6.220   3.948 -0.6019  0.2402 -0.5403
  173MOL0     C22753   1.052   6.265   3.976  0.0218 -0.7906 -1.0363
  173MOL0     N22754   0.847   6.730   3.828  0.0711  0.5215 -0.1586
  173MOL0     N22755   0.943   6.770   3.771 -0.2418 -0.9456  1.0091
  173MOL0     C22756   1.845   6.360   3.193  0.3873 -0.3091 -0.4589
  173MOL0     C22757   1.978   6.351   3.160 -0.0429 -0.8355  0.8144
  173MOL0     C22758   2.428   6.394   3.204 -0.8650 -0.6497  0.6283
  173MOL0     C22759   2.464   6.326   3.086  0.3341  0.5244  0.8628
  173MOL0     C22760   2.596   6.344   3.033 -1.0143 -0.2101  0.1154
  173MOL0     C22761   2.697   6.420   3.105  0.4190  0.7455  0.1764
  173MOL0     O22762   2.821   6.442   3.046  1.1454 -0.2318  0.7821
  173MOL0     C22763   2.794   6.507   2.912  0.2930 -0.3833 -0.2501
  173MOL0     C22764   2.907   6.590   2.860  0.0211 -0.0760 -0.1545
  173MOL0     C22765   2.954   6.710   2.940  0.0347  0.1146  0.0811
  173MOL0     C22766   3.056   6.690   3.055  0.9348  0.3075 -0.4137
  173MOL0     C22767   3.114   6.819   3.103  0.9826 -0.2069  0.0058
  173MOL0     C22768   3.166   6.926   3.136  0.0880 -0.5909  0.1188
  173MOL0     C22769   2.663   6.477   3.222 -0.8247 -0.7478  0.2707
  173MOL0     C22770   2.530   6.466   3.273 -0.4306  0.5652 -0.5261
  173MOL0     H22771   2.102   6.175   3.413 -0.9319  0.1194  0.8399
  173MOL0     H22772   1.859   6.173   3.481  3.4279 -2.1828  0.4388
  173MOL0     H22773   1.642   6.237   3.539  0.5727  4.0959 -1.2854
  173MOL0     H22774   1.623   6.112   3.416  0.1179 -0.0348  0.9450
  173MOL0     H22775   1.410   6.144   3.471  2.0913 -1.2076 -2.2969
  173MOL0     H22776   1.430   6.252   3.331  1.3117  2.1581 -0.0889
  173MOL0     H22777   1.433   6.446   3.491  1.2991  0.0647  1.5740
  173MOL0     H22778   1.472   6.346   3.625 -0.5900  3.0385  1.1338
  173MOL0     H22779   1.189   6.359   3.486  2.8892 -3.1015 -2.7001
  173MOL0     H22780   1.241   6.235   3.607 -4.3928 -0.6518 -1.3550
  173MOL0     H22781   1.291   6.412   3.763 -2.7864 -0.7926  2.6410
  173MOL0     H22782   1.129   6.401   3.724  0.9765 -1.2011  0.3404
  173MOL0     H22783   1.340   6.593   3.618  0.4666 -0.3799  0.0334
  173MOL0     H22784   1.215   6.639   3.725  1.7128 -1.0267  0.1994
  173MOL0     H22785   1.188   6.616   3.419  2.1123 -2.2890 -0.2318
  173MOL0     H22786   1.072   6.522   3.496  0.0854 -0.2327 -1.8997
  173MOL0     H22787   0.991   6.759   3.441  0.8184 -1.4566 -2.2599
  173MOL0     H22788   1.113   6.820   3.562 -2.5038  0.7451  0.5663
  173MOL0     H22789   0.852   6.524   3.576  1.1176  0.2620 -0.0606
  173MOL0     H22790   0.648   6.455   3.737  1.2362 -0.4758 -1.2185
  173MOL0     H22791   0.585   6.601   3.727 -0.5820  0.3973 -0.6278
  173MOL0     H22792   0.510   6.558   3.928 -0.6443  2.7762 -1.4131
  173MOL0     H22793   0.660   6.630   3.987  2.8089 -0.5785 -0.0035
  173MOL0     H22794   0.589   6.424   4.095 -0.4325  1.5472  0.1040
  173MOL0     H22795   0.588   6.337   3.941 -0.3013 -0.4170  1.6329
  173MOL0     H22796   0.784   6.292   4.104  0.8399 -1.3086 -1.2765
  173MOL0     H22797   0.842   6.452   4.054  1.4210 -0.9894 -3.4602
  173MOL0     H22798   0.863   6.138   3.740  0.4215  4.5381 -0.7716
  173MOL0     H22799   1.086   6.010   3.685  0.1443 -2.1677  0.8903
  173MOL0     H22800   1.575   5.978   3.671 -0.3214 -1.5538  0.9105
  173MOL0     H22801   1.818   5.966   3.655 -0.0277 -2.0414  0.7575
  173MOL0     H22802   2.021   6.249   3.863 -2.2902 -2.8667  4.0181
  173MOL0     H22803   2.100   6.164   3.721  2.9697 -2.5707  1.0084
  173MOL0     H22804   2.181   6.037   3.969  2.0163 -1.1588 -1.3448
  173MOL0     H22805   2.191   6.213   3.985 -1.5044  2.3363 -2.2207
  173MOL0     H22806   2.396   6.140   3.932 -0.2348  2.5994  0.4319
  173MOL0     H22807   2.336   6.233   3.793  1.0131 -0.1874 -0.0471
  173MOL0     H22808   2.331   5.917   3.803 -0.6005 -1.8845 -2.2129
  173MOL0     H22809   2.256   6.013   3.681  0.6491  0.1129 -0.0460
  173MOL0     H22810   2.471   5.922   3.628 -2.5642  0.2205  0.2038
  173MOL0     H22811   2.544   6.027   3.759 -0.4492 -0.3335  1.1492
  173MOL0     H22812   2.480   6.230   3.607 -1.3790 -0.9244  3.2488
  173MOL0     H22813   2.364   6.125   3.524 -0.3910 -3.9853  0.6019
  173MOL0     H22814   2.644   6.193   3.460 -1.7825  0.5469 -3.9038
  173MOL0     H22815   2.654   6.031   3.498 -1.3885 -0.2555  0.4715
  173MOL0     H22816   2.438   6.126   3.311 -0.3806  0.1898 -0.1241
  173MOL0     H22817   2.472   5.958   3.356 -0.9401  1.3522 -1.6015
  173MOL0     H22818   1.857   6.199   4.022  1.3899 -0.7120 -0.0207
  173MOL0     H22819   1.628   6.209   4.034  1.2123 -0.6265  0.7164
  173MOL0     H22820   1.264   6.256   4.005 -0.9677 -0.0164  0.1800
  173MOL0     H22821   1.035   6.329   4.062 -4.9367 -1.9387 -0.8788
  173MOL0     H22822   1.765   6.399   3.130  0.9179  0.0580 -0.9091
  173MOL0     H22823   2.012   6.420   3.084  2.6250  0.2224  2.7996
  173MOL0     H22824   2.393   6.264   3.031  0.1466  1.8439 -0.4559
  173MOL0     H22825   2.631   6.295   2.942 -1.4006  0.7091 -0.5492
  173MOL0     H22826   2.709   6.575   2.925  1.0531  0.8024 -1.2113
  173MOL0     H22827   2.763   6.432   2.839 -1.0814  1.6431 -1.8683
  173MOL0     H22828   2.994   6.524   2.849  0.4784  0.4474  0.2389
  173MOL0     H22829   2.888   6.624   2.758 -2.6190 -0.1334  0.2493
  173MOL0     H22830   2.868   6.768   2.975 -1.6220  1.7743 -5.6337
  173MOL0     H22831   3.006   6.767   2.862 -0.8482 -1.4448 -1.7018
  173MOL0     H22832   3.007   6.630   3.133 -3.9425  1.2779 -2.3463
  173MOL0     H22833   3.136   6.631   3.011 -1.3815 -2.6913 -0.9916
  173MOL0     H22834   3.200   7.019   3.176  0.9943 -0.6584 -0.4589
  173MOL0     H22835   2.736   6.537   3.276  0.0052  0.4186 -2.0071
  173MOL0     H22836   2.512   6.504   3.373 -1.4434 -0.1720 -0.4034
  174MOL0     O22837  10.367   0.726   4.927  0.7765 -0.0872 -0.5030
  174MOL0     C22838  10.252   0.770   4.926 -0.7759 -0.0821  0.8656
  174MOL0     O22839  10.189   0.803   4.812  0.0745 -0.1153 -0.7158
  174MOL0     C22840  10.253   0.799   4.686 -0.5989 -0.6925  0.0444
  174MOL0     C22841  10.290   0.673   4.639  0.8511  0.5896 -0.7772
  174MOL0     C22842  10.342   0.663   4.514 -0.2342  0.3345 -0.4441
  174MOL0     C22843  10.367   0.777   4.432 -0.3764 -0.2670 -0.3120
  174MOL0     O22844  10.422   0.754   4.304  0.5994  0.0865 -0.6752
  174MOL0     C22845  10.472   0.870   4.233 -0.3715 -0.6367  0.9467
  174MOL0     C22846  10.607   0.839   4.162 -0.2748  0.0481 -0.5734
  174MOL0     C22847  10.681   0.969   4.122 -0.1298 -0.3571 -0.8578
  174MOL0     C22848  10.754   1.048   4.229 -0.1605  0.1041 -1.1094
  174MOL0     C22849  10.792   1.179   4.168  0.8160  0.0687 -0.4478
  174MOL0     C22850  10.902   1.174   4.065 -0.3060 -0.2158  0.4082
  174MOL0     C22851  11.032   1.112   4.116  0.3589 -0.4006 -0.1925
  174MOL0     C22852  11.152   1.158   4.041 -0.8565 -0.5285  0.0583
  174MOL0     N22853  11.160   1.099   3.902  0.3161  0.3460 -1.6239
  174MOL0     C22854  11.189   0.968   3.870  0.5725  0.5863  0.6864
  174MOL0     C22855  11.150   0.938   3.746  0.5666 -0.3192 -0.2973
  174MOL0     C22856  11.177   0.821   3.654 -0.5384 -0.2253 -1.2593
  174MOL0     C22857  11.328   0.824   3.603  0.6528 -1.2418 -0.1170
  174MOL0     C22858  11.423   0.757   3.701  0.8071 -0.7067  0.1792
  174MOL0     C22859  11.549   0.697   3.633 -0.3331 -0.3404 -0.2706
  174MOL0     O22860  11.635   0.810   3.605 -0.2117 -0.7112  0.3593
  174MOL0     C22861  11.739   0.846   3.686  0.4328  0.1827  0.6968
  174MOL0     C22862  11.785   0.763   3.787  0.4445 -0.9074 -0.0045
  174MOL0     C22863  11.869   0.816   3.884 -1.3578 -0.6555  0.4468
  174MOL0     C22864  11.918   0.941   3.877  0.6858 -0.2059 -0.0131
  174MOL0     C22865  12.010   0.995   3.978 -0.3798 -0.8438 -0.1926
  174MOL0     O22866  12.087   0.901   4.039 -0.1504  0.0981 -0.0689
  174MOL0     C22867  12.192   0.942   4.125  0.5015  0.2611 -0.3944
  174MOL0     C22868  12.289   1.030   4.080  0.4511  0.1055 -0.0718
  174MOL0     C22869  12.384   1.077   4.164 -0.4543 -0.0793  1.4869
  174MOL0     C22870  12.399   1.036   4.298 -0.6099 -0.4868  0.6098
  174MOL0     O22871  12.505   1.069   4.374  0.2362 -0.9183 -0.5360
  174MOL0     C22872  12.517   1.018   4.505 -0.4394 -0.1728  0.0105
  174MOL0     C22873  12.646   1.040   4.573 -1.3002  0.7405  0.2103
  174MOL0     C22874  12.765   0.991   4.493  0.5370  0.3280  0.3544
  174MOL0     C22875  12.891   0.988   4.583 -0.3096  0.1281  0.0273
  174MOL0     C22876  12.956   1.132   4.615 -0.3903  0.2675  0.4412
  174MOL0     C22877  13.047   1.127   4.736  0.1778  0.2703 -0.1148
  174MOL0     C22878  13.152   1.005   4.737 -0.6517  0.5624 -0.3662
  174MOL0     C22879  13.286   1.057   4.779 -0.4734  0.3662  0.5180
  174MOL0    Cl22880  13.348   1.155   4.654  0.1029 -0.4016 -0.0227
  174MOL0     C22881  12.300   0.946   4.339  0.4245  0.7409 -0.3812
  174MOL0     C22882  12.200   0.897   4.256 -0.0497  0.0351  0.0477
  174MOL0     O22883  12.015   1.116   4.005  0.2196 -0.1398  0.0005
  174MOL0     C22884  11.878   1.028   3.769 -0.0350 -0.2546 -0.4115
  174MOL0     C22885  11.774   0.980   3.681 -0.5192 -0.4641 -0.4411
  174MOL0     N22886  11.102   1.064   3.699 -0.1564  0.6402 -0.1255
  174MOL0     N22887  11.110   1.157   3.794  0.2406 -0.0391  0.3302
  174MOL0     C22888  10.342   0.904   4.486  0.3432 -1.2660  0.4523
  174MOL0     C22889  10.291   0.913   4.618 -0.3726  0.2057 -1.2479
  174MOL0     C22890  10.176   0.802   5.054 -1.0473 -0.0257 -0.2147
  174MOL0     C22891  10.043   0.853   5.053  0.0105  0.4216  0.1895
  174MOL0     C22892   9.983   0.904   5.166  0.1905  0.8332 -1.2649
  174MOL0     C22893  10.057   0.901   5.290  0.3635  1.0659 -0.4534
  174MOL0     O22894  10.022   0.940   5.416  0.3612 -0.2580 -0.0662
  174MOL0     C22895   9.888   0.998   5.426 -0.5143 -0.5526 -0.3488
  174MOL0     C22896   9.861   1.049   5.570  0.1463 -0.1445 -0.1016
  174MOL0     C22897   9.925   1.180   5.636 -0.2022 -0.8492  0.1082
  174MOL0     C22898   9.905   1.172   5.784  0.0367  0.6363 -0.2560
  174MOL0     C22899  10.013   1.111   5.865  0.4889 -0.4072 -0.3425
  174MOL0     C22900  10.113   1.077   5.921  0.9296  0.5997  0.6755
  174MOL0     C22901  10.178   0.829   5.296 -0.7684 -0.4411  0.7813
  174MOL0     C22902  10.240   0.788   5.179 -0.3284  0.3372  0.7581
  174MOL0     H22903  10.259   0.591   4.702  1.9329 -1.0277 -2.2662
  174MOL0     H22904  10.367   0.566   4.473  0.9098  0.0514  0.8765
  174MOL0     H22905  10.494   0.958   4.295  0.1847 -1.0282  1.3038
  174MOL0     H22906  10.390   0.899   4.166 -0.9786 -3.6925  0.2472
  174MOL0     H22907  10.585   0.780   4.072 -0.7875 -1.9015  0.7675
  174MOL0     H22908  10.680   0.797   4.231  1.4746  1.6310 -1.3712
  174MOL0     H22909  10.604   1.026   4.070 -0.4756 -1.2193 -1.3080
  174MOL0     H22910  10.760   0.946   4.050  1.6666  0.4309  0.7618
  174MOL0     H22911  10.684   1.067   4.311  2.3913  3.2118  0.5931
  174MOL0     H22912  10.837   0.987   4.268 -1.0044 -1.3749 -1.5717
  174MOL0     H22913  10.837   1.249   4.239 -1.8110  3.0648 -1.4867
  174MOL0     H22914  10.702   1.238   4.147  0.3579  0.0506  1.2728
  174MOL0     H22915  10.917   1.280   4.039 -1.5575 -0.1719 -0.1655
  174MOL0     H22916  10.877   1.109   3.982 -0.3750 -3.8362  3.0342
  174MOL0     H22917  11.049   1.141   4.220 -3.1898  0.9374  0.1425
  174MOL0     H22918  11.023   1.004   4.099 -2.2887  0.1530 -3.4181
  174MOL0     H22919  11.237   1.121   4.098  0.0985  1.0799 -0.2416
  174MOL0     H22920  11.157   1.267   4.028 -1.7905 -0.2177  2.0086
  174MOL0     H22921  11.229   0.894   3.939 -0.4061 -0.5844  0.0315
  174MOL0     H22922  11.106   0.830   3.571 -2.3415 -0.2108  0.2202
  174MOL0     H22923  11.162   0.724   3.703  2.9575 -0.3776 -0.2070
  174MOL0     H22924  11.356   0.930   3.597 -1.9428 -0.5019 -0.2288
  174MOL0     H22925  11.331   0.785   3.500 -3.1066  0.4845 -1.0548
  174MOL0     H22926  11.457   0.833   3.772  0.4315 -0.3591 -0.0099
  174MOL0     H22927  11.378   0.667   3.746  2.4292 -1.4902  0.3151
  174MOL0     H22928  11.524   0.642   3.542  0.1681  1.5680 -1.6189
  174MOL0     H22929  11.591   0.622   3.701  2.7199  0.6840 -0.8758
  174MOL0     H22930  11.757   0.659   3.799 -2.4573 -0.1456  0.5758
  174MOL0     H22931  11.892   0.755   3.970  0.6942  1.3581  1.4355
  174MOL0     H22932  12.289   1.069   3.979 -1.7255  2.7027  0.8232
  174MOL0     H22933  12.462   1.133   4.113  0.4679 -1.8598  0.8253
  174MOL0     H22934  12.508   0.909   4.508  3.1076 -0.6076 -0.9577
  174MOL0     H22935  12.443   1.074   4.564 -0.5585 -1.5795  1.2427
  174MOL0     H22936  12.652   0.983   4.666  1.5712  0.0376 -0.2924
  174MOL0     H22937  12.649   1.147   4.595  1.6481  0.6215  0.8103
  174MOL0     H22938  12.781   1.055   4.406  1.7520  0.5070  0.6981
  174MOL0     H22939  12.736   0.892   4.456 -1.7690 -0.5840  4.0080
  174MOL0     H22940  12.868   0.933   4.675 -3.2576  1.8500  0.4088
  174MOL0     H22941  12.971   0.928   4.538  1.8848  3.8849 -1.5770
  174MOL0     H22942  12.882   1.208   4.641  0.5405  2.3027 -2.3100
  174MOL0     H22943  13.009   1.176   4.530 -1.2552  1.8248  0.6657
  174MOL0     H22944  12.996   1.101   4.830  1.2725 -1.0024  0.1572
  174MOL0     H22945  13.093   1.226   4.744 -2.6164  1.8381 -1.7835
  174MOL0     H22946  13.106   0.940   4.812 -2.5888  2.8752  0.6182
  174MOL0     H22947  13.160   0.961   4.637 -1.1890 -0.7127  0.1364
  174MOL0     H22948  13.353   0.971   4.778 -2.2172 -1.0698 -1.6277
  174MOL0     H22949  13.279   1.107   4.876  0.6300 -0.8137  1.2438
  174MOL0     H22950  12.304   0.898   4.436 -1.5529  0.6629 -0.3060
  174MOL0     H22951  12.129   0.830   4.304  0.9727  0.6477  2.5410
  174MOL0     H22952  11.905   1.133   3.763 -3.3481  0.7383 -0.1009
  174MOL0     H22953  11.752   1.041   3.593  4.0167  0.9079 -0.9026
  174MOL0     H22954  10.361   0.995   4.430  0.1674 -1.7711 -0.4388
  174MOL0     H22955  10.270   1.010   4.663 -0.0836 -1.2634  2.4360
  174MOL0     H22956   9.998   0.869   4.955  0.0743 -1.9143 -0.2930
  174MOL0     H22957   9.881   0.942   5.169 -0.7805 -1.5173 -1.5344
  174MOL0     H22958   9.812   0.920   5.417  1.5640 -2.8912  1.2840
  174MOL0     H22959   9.886   1.080   5.353  3.0444 -0.7266 -0.7949
  174MOL0     H22960   9.754   1.072   5.571  0.4491  1.4468 -0.9633
  174MOL0     H22961   9.879   0.963   5.634 -2.7622  1.8924  3.9084
  174MOL0     H22962   9.856   1.257   5.598 -1.6434 -2.3974 -0.5155
  174MOL0     H22963  10.030   1.191   5.609  0.9143 -0.7644  3.9009
  174MOL0     H22964   9.887   1.278   5.802 -0.1189  0.3889  1.2514
  174MOL0     H22965   9.819   1.108   5.809 -0.7468  2.0007  0.7139
  174MOL0     H22966  10.190   1.034   5.982 -0.4342  0.4521  2.3822
  174MOL0     H22967  10.210   0.829   5.400 -2.1046  1.5559  1.2513
  174MOL0     H22968  10.344   0.758   5.187 -0.4071 -0.7225 -1.3858
  175MOL0     O22969   6.240   8.589   5.040 -0.3770  1.0467  1.0481
  175MOL0     C22970   6.320   8.668   5.083  0.0980 -0.3736 -0.0376
  175MOL0     O22971   6.342   8.705   5.213 -0.2014  0.2671  0.0185
  175MOL0     C22972   6.266   8.643   5.310  0.4396 -0.7777  0.1710
  175MOL0     C22973   6.131   8.673   5.333 -0.1759  0.0932 -0.2707
  175MOL0     C22974   6.062   8.606   5.433  0.2788  0.4014 -0.1870
  175MOL0     C22975   6.125   8.539   5.544 -0.7495 -0.4566  0.3149
  175MOL0     O22976   6.055   8.479   5.644  0.0028  0.5689  0.2224
  175MOL0     C22977   6.068   8.543   5.774  0.3270  0.2725 -0.2785
  175MOL0     C22978   6.002   8.687   5.779 -0.5454 -0.5367 -0.4488
  175MOL0     C22979   5.852   8.702   5.761  0.4861  0.6619 -0.0196
  175MOL0     C22980   5.796   8.841   5.758 -0.1260 -0.0887  0.6442
  175MOL0     C22981   5.684   8.878   5.659 -0.9315  0.0393 -0.9384
  175MOL0     C22982   5.720   8.859   5.503 -0.1973 -0.0993 -1.7212
  175MOL0     C22983   5.588   8.878   5.427  0.5515 -0.2448 -0.1137
  175MOL0     C22984   5.614   8.850   5.285 -0.2933  0.6488  0.9009
  175MOL0     N22985   5.732   8.933   5.227 -0.4574  0.6164 -0.2605
  175MOL0     C22986   5.723   9.055   5.181 -0.2656 -0.4450  0.8881
  175MOL0     C22987   5.837   9.078   5.109  0.2397 -0.1052 -0.5658
  175MOL0     C22988   5.866   9.203   5.033 -0.0983 -0.1268  0.2487
  175MOL0     C22989   5.864   9.335   5.111 -0.3411 -0.0472  0.0568
  175MOL0     C22990   5.932   9.444   5.028  0.4092 -1.1101 -0.0147
  175MOL0     C22991   5.845   9.481   4.897  0.4376  0.6400  0.1154
  175MOL0     O22992   5.699   9.495   4.913  0.5582  0.0121  0.0525
  175MOL0     C22993   5.629   9.597   4.853  0.5980 -0.9715  0.5852
  175MOL0     C22994   5.499   9.582   4.823  0.2182 -0.2795  0.0529
  175MOL0     C22995   5.428   9.693   4.764  0.7274  0.1212 -1.1836
  175MOL0     C22996   5.487   9.823   4.753  1.2660  0.2118 -0.2362
  175MOL0     C22997   5.422   9.951   4.710  0.0237 -0.4309  0.4689
  175MOL0     O22998   5.505  10.064   4.676  0.2297  0.0806 -0.3504
  175MOL0     C22999   5.435  10.171   4.618 -0.4001  0.4450  0.3305
  175MOL0     C23000   5.336  10.230   4.679  0.5523 -0.0443 -0.0618
  175MOL0     C23001   5.266  10.347   4.625  0.9979  1.0921 -0.5878
  175MOL0     C23002   5.293  10.402   4.498 -0.0478  0.6136  0.9739
  175MOL0     O23003   5.221  10.506   4.442  0.4746 -0.7581 -0.2195
  175MOL0     C23004   5.293  10.620   4.379 -0.4577  0.4422  0.2262
  175MOL0     C23005   5.217  10.750   4.390 -0.1220 -0.3176  0.4365
  175MOL0     C23006   5.083  10.746   4.315 -1.1653 -0.0297  0.1395
  175MOL0     C23007   5.016  10.879   4.351  0.0169 -0.8605  0.6697
  175MOL0     C23008   4.875  10.887   4.289  0.1672 -0.0437 -0.1827
  175MOL0     C23009   4.878  10.922   4.137 -0.4362 -0.3292  1.3857
  175MOL0     C23010   4.738  10.901   4.093  0.2202 -0.3583 -0.8088
  175MOL0     C23011   4.719  10.785   3.999  0.4947  0.5413  0.3368
  175MOL0    Cl23012   4.558  10.765   3.934 -0.2654  0.1909  0.1056
  175MOL0     C23013   5.411  10.348   4.439  0.2252 -0.1904 -0.3388
  175MOL0     C23014   5.471  10.231   4.493  0.4165  0.4242 -0.6645
  175MOL0     O23015   5.299   9.946   4.707  0.3511  0.3545 -0.8448
  175MOL0     C23016   5.616   9.834   4.801  0.0954  0.1441 -0.7892
  175MOL0     C23017   5.683   9.721   4.849  0.0555  0.0933 -0.4097
  175MOL0     N23018   5.911   8.969   5.111  0.2383  0.5720  0.6722
  175MOL0     N23019   5.863   8.885   5.195  0.4854 -0.0183 -0.3658
  175MOL0     C23020   6.266   8.508   5.519  0.9383 -0.1322  0.3586
  175MOL0     C23021   6.332   8.551   5.403  0.6607  0.3828  0.5302
  175MOL0     C23022   6.429   8.715   4.993  0.3553  0.4018  1.4787
  175MOL0     C23023   6.429   8.661   4.861  1.0493 -0.8434  0.2266
  175MOL0     C23024   6.541   8.699   4.782  0.5321  0.0295  1.2844
  175MOL0     C23025   6.648   8.791   4.820  0.3374  0.4171  0.1959
  175MOL0     O23026   6.758   8.801   4.745  0.0212 -0.2532  0.8147
  175MOL0     C23027   6.739   8.789   4.607  1.0623 -0.3778  0.4067
  175MOL0     C23028   6.870   8.784   4.539 -0.2555 -0.0386  0.7566
  175MOL0     C23029   6.925   8.934   4.525  0.3501  1.2197  0.0203
  175MOL0     C23030   7.060   8.945   4.456  0.2109  0.9936  0.6729
  175MOL0     C23031   7.094   9.074   4.394  1.1938 -0.2868  0.9808
  175MOL0     C23032   7.094   9.188   4.350  0.1324 -0.6052 -0.2147
  175MOL0     C23033   6.638   8.849   4.945  0.0106 -0.5312  0.8102
  175MOL0     C23034   6.532   8.809   5.028  0.2950  0.3325 -0.9317
  175MOL0     H23035   6.077   8.743   5.271 -1.1287 -1.2401 -1.0023
  175MOL0     H23036   5.954   8.617   5.441  0.2079 -0.6990  0.5974
  175MOL0     H23037   6.177   8.537   5.784  0.5333  1.4070 -1.6270
  175MOL0     H23038   6.028   8.486   5.859 -2.2697  0.5570 -1.2075
  175MOL0     H23039   6.043   8.747   5.697 -0.2101  0.1660  0.2141
  175MOL0     H23040   6.032   8.745   5.868  1.6269 -0.4587 -1.1745
  175MOL0     H23041   5.796   8.641   5.833  0.5307  0.9661  0.2765
  175MOL0     H23042   5.828   8.646   5.670 -1.4362 -1.0080  1.4270
  175MOL0     H23043   5.764   8.853   5.862  0.2322 -2.6774  1.1098
  175MOL0     H23044   5.873   8.916   5.737 -1.6950  1.6499  0.8224
  175MOL0     H23045   5.650   8.980   5.679 -0.3309 -0.0374  0.5970
  175MOL0     H23046   5.602   8.815   5.696 -2.0520  1.9993  0.1057
  175MOL0     H23047   5.756   8.756   5.493 -2.1961 -1.2193  1.2306
  175MOL0     H23048   5.804   8.928   5.499 -0.2710  0.3480  1.4762
  175MOL0     H23049   5.509   8.809   5.459 -0.8626  2.2017  1.9706
  175MOL0     H23050   5.547   8.977   5.446 -1.8643 -1.5801  2.2043
  175MOL0     H23051   5.528   8.873   5.221 -0.4872  0.8021  1.2154
  175MOL0     H23052   5.650   8.750   5.259 -2.9834  0.9516 -6.1612
  175MOL0     H23053   5.633   9.114   5.190 -4.2003 -5.7879  1.4569
  175MOL0     H23054   5.794   9.204   4.950  3.4125  2.8871 -3.1321
  175MOL0     H23055   5.961   9.183   4.984 -0.8380  4.3406 -3.6602
  175MOL0     H23056   5.924   9.316   5.200 -0.3117  0.1675  0.0822
  175MOL0     H23057   5.767   9.366   5.149 -0.4236  3.8940 -2.7748
  175MOL0     H23058   5.943   9.538   5.083  1.6790  0.8827 -3.3488
  175MOL0     H23059   6.033   9.410   5.003  1.4338  0.9093  1.1429
  175MOL0     H23060   5.843   9.389   4.838  0.9226 -1.2705  2.8506
  175MOL0     H23061   5.886   9.556   4.829 -3.0495  1.1297 -1.6521
  175MOL0     H23062   5.451   9.484   4.824  0.2111 -0.3099 -1.1730
  175MOL0     H23063   5.328   9.672   4.727 -1.1845  3.4751  1.5187
  175MOL0     H23064   5.295  10.201   4.775 -1.4438 -0.5121 -1.0199
  175MOL0     H23065   5.180  10.392   4.673 -1.4906 -1.5370 -2.2332
  175MOL0     H23066   5.306  10.600   4.272 -2.0163  3.8748 -0.7384
  175MOL0     H23067   5.394  10.634   4.420 -0.0253 -0.1703 -0.5813
  175MOL0     H23068   5.275  10.828   4.340  1.6907 -1.4231  0.7166
  175MOL0     H23069   5.207  10.777   4.495  2.0024  1.2778  0.2957
  175MOL0     H23070   5.030  10.660   4.356 -2.3040  0.2488 -0.6935
  175MOL0     H23071   5.103  10.736   4.208  4.2494 -2.5916  1.0592
  175MOL0     H23072   4.994  10.883   4.458 -1.9048  2.7635  0.3088
  175MOL0     H23073   5.072  10.967   4.317 -3.6640  1.2368 -0.5008
  175MOL0     H23074   4.814  10.959   4.345 -0.1963 -0.4243 -0.0821
  175MOL0     H23075   4.830  10.787   4.298  5.5395 -2.6931  0.9900
  175MOL0     H23076   4.941  10.857   4.075 -3.9147 -1.0948 -1.7517
  175MOL0     H23077   4.908  11.026   4.126  0.9219 -0.6119  2.2221
  175MOL0     H23078   4.669  10.886   4.177  1.9215 -2.1604  0.3379
  175MOL0     H23079   4.705  10.992   4.041 -0.2667  1.1884  2.0365
  175MOL0     H23080   4.737  10.688   4.045 -0.5483 -0.2197 -0.7793
  175MOL0     H23081   4.778  10.798   3.908  1.2306 -0.4102  0.6655
  175MOL0     H23082   5.455  10.399   4.354  2.8769 -0.9153  0.5200
  175MOL0     H23083   5.559  10.210   4.434  0.8691  2.7704 -0.9110
  175MOL0     H23084   5.660   9.933   4.806 -1.3332  0.7400  1.0461
  175MOL0     H23085   5.781   9.748   4.888 -0.3210  2.0609 -0.7052
  175MOL0     H23086   6.322   8.465   5.601  2.3420  0.7280 -0.1101
  175MOL0     H23087   6.430   8.515   5.375  0.3143 -0.0181 -0.1887
  175MOL0     H23088   6.348   8.601   4.819 -1.4294  1.9540  0.6925
  175MOL0     H23089   6.518   8.662   4.682 -1.3032  2.9098  0.5191
  175MOL0     H23090   6.685   8.871   4.560  1.4351 -2.2404 -3.8000
  175MOL0     H23091   6.688   8.697   4.575 -1.4505  2.2278 -4.1131
  175MOL0     H23092   6.927   8.715   4.604  0.0174 -1.9848 -1.4177
  175MOL0     H23093   6.856   8.734   4.443  1.9233 -2.1903  1.4361
  175MOL0     H23094   6.947   8.978   4.622  0.5338 -1.0460  1.0608
  175MOL0     H23095   6.842   8.987   4.476 -0.2263 -0.3613 -0.8130
  175MOL0     H23096   7.144   8.901   4.510  0.8087  1.7063  0.3490
  175MOL0     H23097   7.053   8.880   4.369 -4.7956 -1.5615  2.6137
  175MOL0     H23098   7.078   9.286   4.310 -0.4490 -0.2210  0.9303
  175MOL0     H23099   6.718   8.915   4.977  0.9185 -0.6592 -1.0649
  175MOL0     H23100   6.532   8.843   5.131 -1.1651 -1.8596 -0.1546
  176MOL0     O23101   8.032  10.224   8.502  0.8259 -0.4445  0.5472
  176MOL0     C23102   8.039  10.193   8.384 -0.6334 -1.0078 -0.2493
  176MOL0     O23103   8.152  10.199   8.302  0.0322  0.6612 -0.5943
  176MOL0     C23104   8.250  10.296   8.322  0.5178  0.5285 -1.0083
  176MOL0     C23105   8.347  10.306   8.223  1.1575  0.0117 -0.0842
  176MOL0     C23106   8.451  10.389   8.225 -0.1496  0.5012 -0.5872
  176MOL0     C23107   8.475  10.474   8.328 -0.1919  0.5127 -0.1436
  176MOL0     O23108   8.593  10.547   8.322 -0.2520 -0.6138 -0.0269
  176MOL0     C23109   8.647  10.620   8.432 -0.5939  0.6803 -0.4183
  176MOL0     C23110   8.754  10.706   8.366 -0.3773 -1.3556  0.4326
  176MOL0     C23111   8.829  10.796   8.468  0.5434  0.5138 -0.5523
  176MOL0     C23112   8.740  10.912   8.510 -0.1560  0.1616 -0.4728
  176MOL0     C23113   8.816  10.996   8.620  0.3464  0.9857  0.6512
  176MOL0     C23114   8.814  10.936   8.766  0.5048  0.1661  0.8298
  176MOL0     C23115   8.674  10.917   8.824 -0.1191  0.1029 -0.5803
  176MOL0     C23116   8.688  10.919   8.975  0.2396 -0.3985  0.6149
  176MOL0     N23117   8.690  11.055   9.038  0.5376  0.4153 -0.1733
  176MOL0     C23118   8.587  11.136   9.068 -0.1968 -0.1423  0.0391
  176MOL0     C23119   8.642  11.232   9.155  0.3420 -0.2929  0.5031
  176MOL0     C23120   8.562  11.349   9.195  0.1428 -0.9618 -0.0131
  176MOL0     C23121   8.637  11.453   9.291 -0.9446 -0.6110  1.7885
  176MOL0     C23122   8.545  11.576   9.306  1.1587 -0.2150 -0.5708
  176MOL0     C23123   8.609  11.679   9.390  0.0831  0.6356  0.7470
  176MOL0     O23124   8.537  11.799   9.387  0.3992 -0.0003  0.4310
  176MOL0     C23125   8.567  11.906   9.467  0.0408  0.7904 -0.3941
  176MOL0     C23126   8.470  11.996   9.485  0.0438 -0.2314 -0.7535
  176MOL0     C23127   8.486  12.098   9.586  0.0829 -0.0729  0.2291
  176MOL0     C23128   8.618  12.127   9.632 -0.3941  0.0232 -1.3209
  176MOL0     C23129   8.637  12.250   9.716  0.1469  0.1699 -0.1813
  176MOL0     O23130   8.525  12.336   9.737 -0.0988  0.7039  0.9953
  176MOL0     C23131   8.534  12.405   9.859  0.5558  0.2229  0.1503
  176MOL0     C23132   8.500  12.537   9.860  0.6044 -0.7682 -0.2913
  176MOL0     C23133   8.508  12.610   9.985 -0.4327 -0.8438  0.4834
  176MOL0     C23134   8.559  12.550  10.103 -0.8521  0.5330 -1.1917
  176MOL0     O23135   8.564  12.621  10.224  0.1564 -0.6984 -0.1554
  176MOL0     C23136   8.676  12.581  10.304 -0.9628 -0.9163 -0.2262
  176MOL0     C23137   8.715  12.708  10.402 -0.0231 -0.1372  0.2755
  176MOL0     C23138   8.606  12.779  10.482 -0.2653  0.4023 -0.0269
  176MOL0     C23139   8.670  12.912  10.521  0.3371  0.0686  0.6717
  176MOL0     C23140   8.571  12.990  10.594  1.3292 -0.2840  0.1411
  176MOL0     C23141   8.622  13.134  10.612  1.0909  0.2300 -0.0940
  176MOL0     C23142   8.531  13.195  10.717  0.0236  0.2702 -0.4905
  176MOL0     C23143   8.551  13.345  10.719 -0.0676 -0.3457 -0.2729
  176MOL0    Cl23144   8.699  13.373  10.814 -0.4513  0.2374 -0.2560
  176MOL0     C23145   8.599  12.410  10.100 -0.3875  0.1015  0.1935
  176MOL0     C23146   8.581  12.351   9.979  0.3584 -0.8361 -0.5524
  176MOL0     O23147   8.750  12.263   9.771  0.2299 -0.2035  0.5098
  176MOL0     C23148   8.728  12.040   9.595  0.2987 -0.4990  0.1175
  176MOL0     C23149   8.700  11.931   9.516 -0.0322  0.1623 -1.0179
  176MOL0     N23150   8.771  11.202   9.179 -0.1189 -0.1087 -0.2409
  176MOL0     N23151   8.795  11.092   9.115 -0.3322 -0.2568  0.1883
  176MOL0     C23152   8.384  10.472   8.430  0.0109 -0.1154 -0.1736
  176MOL0     C23153   8.270  10.391   8.432  0.2975 -0.0871 -0.0125
  176MOL0     C23154   7.921  10.141   8.306 -0.9051  0.4315 -0.0117
  176MOL0     C23155   7.805  10.110   8.377 -0.0200 -0.2417 -1.2458
  176MOL0     C23156   7.695  10.040   8.315 -0.7579 -0.3530  0.2108
  176MOL0     C23157   7.710  10.005   8.176  0.7080 -0.7026  0.1379
  176MOL0     O23158   7.617   9.917   8.132 -0.2295 -0.2124  0.1316
  176MOL0     C23159   7.551   9.960   8.009  0.6522  0.4006 -0.1780
  176MOL0     C23160   7.417  10.028   8.050  0.9931  0.8099  0.9694
  176MOL0     C23161   7.436  10.174   8.078 -1.4117  0.3317 -1.0207
  176MOL0     C23162   7.322  10.259   8.031  0.0546  0.4857 -0.3815
  176MOL0     C23163   7.334  10.263   7.882  0.2222  0.1270 -0.5918
  176MOL0     C23164   7.365  10.263   7.764 -0.2159 -0.4292  0.3592
  176MOL0     C23165   7.821  10.054   8.101 -0.7172  0.9295 -0.0719
  176MOL0     C23166   7.923  10.121   8.166 -0.3717 -0.0983 -0.2761
  176MOL0     H23167   8.328  10.248   8.133 -1.5343  3.5910 -2.1033
  176MOL0     H23168   8.532  10.362   8.158 -0.6800 -3.7266  0.1935
  176MOL0     H23169   8.694  10.552   8.504 -1.1996  1.4562  0.7334
  176MOL0     H23170   8.574  10.674   8.493 -1.0734 -1.5988  1.1321
  176MOL0     H23171   8.706  10.760   8.284 -0.1022 -0.8446  0.6075
  176MOL0     H23172   8.827  10.642   8.316  0.3844  0.3080 -0.6919
  176MOL0     H23173   8.924  10.823   8.420  1.4125  1.0106  1.3678
  176MOL0     H23174   8.867  10.737   8.551 -2.3141 -0.5070  0.1413
  176MOL0     H23175   8.710  10.980   8.429 -1.0385  2.5475  1.7141
  176MOL0     H23176   8.652  10.872   8.561  1.0542 -0.1672  1.4410
  176MOL0     H23177   8.764  11.093   8.620 -2.9211 -0.6173 -0.1105
  176MOL0     H23178   8.919  11.024   8.595  0.5808  0.5713  1.1488
  176MOL0     H23179   8.869  11.009   8.827  0.5556 -0.8763  2.0748
  176MOL0     H23180   8.869  10.842   8.767 -2.5336 -1.8639 -2.0607
  176MOL0     H23181   8.611  11.003   8.801  1.2392  1.1614 -0.5011
  176MOL0     H23182   8.612  10.832   8.794 -2.6318  1.5667  0.1696
  176MOL0     H23183   8.770  10.856   9.012  2.0707  1.8145  0.5443
  176MOL0     H23184   8.603  10.863   9.016  0.5004 -2.9121 -1.9240
  176MOL0     H23185   8.481  11.119   9.060 -0.9155  3.2152  0.9249
  176MOL0     H23186   8.471  11.315   9.245  1.2196 -2.0844  1.2563
  176MOL0     H23187   8.547  11.397   9.098  2.7713 -0.8465 -0.4353
  176MOL0     H23188   8.733  11.480   9.246 -3.4162  0.1784 -3.8965
  176MOL0     H23189   8.645  11.407   9.390 -0.2230  0.2582  2.1484
  176MOL0     H23190   8.540  11.618   9.205  0.1168  1.8151  0.2728
  176MOL0     H23191   8.446  11.558   9.348  0.8229  0.9491 -0.8110
  176MOL0     H23192   8.709  11.694   9.349  0.0939  0.1730  0.6073
  176MOL0     H23193   8.617  11.653   9.496  0.8240  0.9548  0.7725
  176MOL0     H23194   8.379  11.975   9.429 -0.5713 -1.3565  0.6016
  176MOL0     H23195   8.398  12.159   9.607  1.3230  0.6679  3.9387
  176MOL0     H23196   8.461  12.584   9.771 -2.1410  0.4982  1.4162
  176MOL0     H23197   8.470  12.712   9.980  1.7093 -0.0098  0.1775
  176MOL0     H23198   8.765  12.550  10.248  1.1781  0.4243  2.1968
  176MOL0     H23199   8.666  12.496  10.372  4.2233 -0.5686  1.4245
  176MOL0     H23200   8.759  12.784  10.336  2.9715 -0.2814  1.9265
  176MOL0     H23201   8.782  12.668  10.479 -0.4686 -1.0517  0.1977
  176MOL0     H23202   8.576  12.714  10.565 -3.3612 -3.3263 -3.6070
  176MOL0     H23203   8.516  12.785  10.421 -0.3905  1.9785  0.2787
  176MOL0     H23204   8.756  12.906  10.588 -0.1415  1.2703  1.4246
  176MOL0     H23205   8.695  12.967  10.430 -2.2043 -0.8562 -0.6866
  176MOL0     H23206   8.542  12.941  10.687  1.0240  2.4878  1.6331
  176MOL0     H23207   8.477  12.985  10.538  0.7259 -0.0596  1.0973
  176MOL0     H23208   8.614  13.181  10.514  1.4494  0.1465 -0.1636
  176MOL0     H23209   8.726  13.140  10.646 -0.2406  1.2310  4.5093
  176MOL0     H23210   8.427  13.186  10.683 -0.5853  2.0365  0.7500
  176MOL0     H23211   8.539  13.152  10.817 -1.1338  0.0506 -0.4702
  176MOL0     H23212   8.474  13.402  10.773  0.3918 -0.7627  0.8438
  176MOL0     H23213   8.557  13.388  10.618  0.8669 -1.2612 -0.6219
  176MOL0     H23214   8.651  12.359  10.181 -0.6324 -1.3409 -0.5136
  176MOL0     H23215   8.604  12.245   9.975  1.1111 -0.6984  0.0163
  176MOL0     H23216   8.828  12.056   9.632  1.4132 -1.2235 -2.3848
  176MOL0     H23217   8.784  11.870   9.485 -0.4051 -0.6688 -0.4345
  176MOL0     H23218   8.409  10.557   8.494  1.5766  2.1706 -3.5522
  176MOL0     H23219   8.203  10.399   8.517  1.1973 -1.8369  0.9071
  176MOL0     H23220   7.809  10.109   8.485  1.5381  2.1652 -1.2051
  176MOL0     H23221   7.603  10.031   8.373 -0.0188  2.8689  2.1494
  176MOL0     H23222   7.538   9.874   7.943  2.4804 -2.2582  2.6564
  176MOL0     H23223   7.606  10.037   7.953  0.5159  0.3303 -0.4095
  176MOL0     H23224   7.359  10.005   7.960  1.2011 -2.4549  1.5453
  176MOL0     H23225   7.362   9.978   8.130 -0.5772 -0.0696 -0.5918
  176MOL0     H23226   7.536  10.214   8.059  0.4845 -2.8723  1.1549
  176MOL0     H23227   7.439  10.179   8.187 -2.7840 -3.0452 -0.7223
  176MOL0     H23228   7.229  10.218   8.070  2.1147 -2.1996  2.1765
  176MOL0     H23229   7.338  10.362   8.062  2.4689  0.4964 -1.4561
  176MOL0     H23230   7.397  10.267   7.662 -0.5607  1.5441  0.2904
  176MOL0     H23231   7.834  10.034   7.995  1.4408 -1.2793  0.5043
  176MOL0     H23232   8.015  10.144   8.111 -0.9555  0.8812 -0.8690
  177MOL0     O23233   4.313   4.743   7.790  0.1963  0.1614  0.7027
  177MOL0     C23234   4.288   4.712   7.668 -0.7011 -0.5597 -0.8672
  177MOL0     O23235   4.169   4.675   7.622 -0.6580  0.2035  0.5365
  177MOL0     C23236   4.079   4.632   7.716  0.3520  1.0388 -0.4764
  177MOL0     C23237   4.111   4.553   7.833  1.1586 -0.0066 -0.4793
  177MOL0     C23238   4.007   4.480   7.901 -0.5000 -0.1986  0.9726
  177MOL0     C23239   3.874   4.491   7.866 -0.8296 -0.0826  0.7555
  177MOL0     O23240   3.789   4.423   7.950 -0.0143 -0.7462  0.4889
  177MOL0     C23241   3.647   4.444   7.944  0.0256 -0.7346 -0.6491
  177MOL0     C23242   3.568   4.365   8.046  1.2195 -0.5911 -0.4668
  177MOL0     C23243   3.603   4.381   8.202 -0.6462  0.5744  0.1451
  177MOL0     C23244   3.565   4.516   8.252  0.8407  0.6511 -1.0190
  177MOL0     C23245   3.570   4.512   8.407 -0.4417 -0.8933 -0.4145
  177MOL0     C23246   3.717   4.516   8.456  0.0219 -0.3103  0.4176
  177MOL0     C23247   3.724   4.567   8.602  0.2685 -0.3624 -0.4839
  177MOL0     C23248   3.864   4.594   8.634 -0.3154  0.2654  0.0817
  177MOL0     N23249   3.923   4.710   8.551 -0.4293  0.4798 -0.6824
  177MOL0     C23250   3.991   4.695   8.437 -0.4688  0.0340 -0.2422
  177MOL0     C23251   3.975   4.814   8.368  0.4062  0.3917  0.8379
  177MOL0     C23252   4.024   4.844   8.220 -0.1356 -0.5037 -0.1313
  177MOL0     C23253   3.945   4.791   8.104 -0.3256 -0.2982  0.2423
  177MOL0     C23254   3.811   4.860   8.093 -0.8598 -0.3385 -0.0768
  177MOL0     C23255   3.743   4.835   7.964 -0.3958 -0.8576  0.2189
  177MOL0     O23256   3.827   4.893   7.858 -0.9707 -0.1623  0.5918
  177MOL0     C23257   3.763   4.898   7.740  0.2651 -0.9773  0.7071
  177MOL0     C23258   3.634   4.858   7.701 -0.2498  0.4592 -0.0875
  177MOL0     C23259   3.598   4.836   7.572 -0.3559 -0.5878 -0.2635
  177MOL0     C23260   3.688   4.887   7.465 -0.9088 -0.8513 -0.3297
  177MOL0     C23261   3.640   4.903   7.324 -0.5224  0.1642  0.3606
  177MOL0     O23262   3.709   4.976   7.235  0.6329 -0.2612  0.8151
  177MOL0     C23263   3.655   5.010   7.107 -0.2598 -0.9534  0.2081
  177MOL0     C23264   3.520   5.016   7.075 -0.4373  0.4870  1.0150
  177MOL0     C23265   3.477   5.062   6.953  0.6467 -0.6818  0.1421
  177MOL0     C23266   3.565   5.088   6.845  0.1400  0.5425  0.4182
  177MOL0     O23267   3.520   5.117   6.717 -0.2344  0.4207 -0.0784
  177MOL0     C23268   3.381   5.158   6.700  0.5726 -0.4659 -1.0384
  177MOL0     C23269   3.364   5.273   6.591 -1.1591  0.1073 -0.4702
  177MOL0     C23270   3.217   5.324   6.575  0.7934  0.4345  0.1245
  177MOL0     C23271   3.115   5.212   6.561 -0.2617  0.2979 -0.0898
  177MOL0     C23272   2.978   5.279   6.532 -0.0251  1.5885  0.5789
  177MOL0     C23273   2.856   5.186   6.500  1.7922 -0.6284 -0.3976
  177MOL0     C23274   2.718   5.266   6.521  0.5070 -0.1785 -0.6792
  177MOL0     C23275   2.683   5.380   6.433 -0.4544  0.1150  0.8568
  177MOL0    Cl23276   2.712   5.358   6.262  0.3904 -0.4191  0.0604
  177MOL0     C23277   3.703   5.101   6.875  0.6619 -0.2701  0.6255
  177MOL0     C23278   3.745   5.071   7.009 -0.0312  0.1387  1.1233
  177MOL0     O23279   3.545   4.820   7.297  0.5680  0.3755 -0.7872
  177MOL0     C23280   3.816   4.933   7.501  0.2425 -0.1657  0.4382
  177MOL0     C23281   3.847   4.941   7.632  1.2876  0.4661 -0.1519
  177MOL0     N23282   3.908   4.909   8.458  0.4684 -0.5018 -0.0799
  177MOL0     N23283   3.879   4.832   8.566  0.1238 -0.0898  0.1859
  177MOL0     C23284   3.840   4.568   7.757  0.0291  0.6199 -0.6235
  177MOL0     C23285   3.943   4.638   7.684  0.2574  0.2485 -0.1644
  177MOL0     C23286   4.413   4.731   7.587  0.0273  0.5892  0.2700
  177MOL0     C23287   4.542   4.763   7.633 -0.1645 -0.4751 -0.2040
  177MOL0     C23288   4.657   4.792   7.564 -0.0488 -0.0363  0.6073
  177MOL0     C23289   4.639   4.790   7.418 -0.5976 -0.1472 -0.7399
  177MOL0     O23290   4.746   4.826   7.342 -0.3006  0.2880 -0.3834
  177MOL0     C23291   4.719   4.858   7.200 -0.4117 -0.4647 -0.0295
  177MOL0     C23292   4.632   4.985   7.178 -0.1318  0.2373  0.1421
  177MOL0     C23293   4.715   5.109   7.189 -0.2150  0.1376  0.5848
  177MOL0     C23294   4.638   5.228   7.143  0.4155  0.1600  0.1976
  177MOL0     C23295   4.628   5.257   6.998  0.3312 -0.4178 -0.0138
  177MOL0     C23296   4.624   5.266   6.878 -0.5255 -1.2024  0.3775
  177MOL0     C23297   4.523   4.743   7.367 -0.2462  0.1949  1.2096
  177MOL0     C23298   4.411   4.720   7.443 -1.1012 -0.2030 -0.3746
  177MOL0     H23299   4.212   4.525   7.862  0.3996 -2.0676  0.4347
  177MOL0     H23300   4.035   4.408   7.977  0.8507 -2.2979 -1.3708
  177MOL0     H23301   3.609   4.433   7.842  3.1421  0.8045 -2.1100
  177MOL0     H23302   3.634   4.550   7.971  2.3302 -0.9853  1.8719
  177MOL0     H23303   3.576   4.260   8.017  0.3317 -0.6085 -0.6498
  177MOL0     H23304   3.465   4.394   8.027 -0.0024 -3.7321  0.6777
  177MOL0     H23305   3.709   4.357   8.210 -1.1124 -2.5468 -1.3519
  177MOL0     H23306   3.554   4.310   8.269  0.3232  1.3874  1.7679
  177MOL0     H23307   3.633   4.595   8.217  0.4205  2.6253  2.2216
  177MOL0     H23308   3.461   4.538   8.228  0.9173 -1.1829 -3.4051
  177MOL0     H23309   3.526   4.424   8.455  0.2228 -1.1071 -0.1916
  177MOL0     H23310   3.524   4.607   8.440  2.4920 -0.0768  1.7249
  177MOL0     H23311   3.774   4.578   8.387  1.3498 -3.0653 -1.1145
  177MOL0     H23312   3.760   4.417   8.441 -1.5899 -1.1269  0.9352
  177MOL0     H23313   3.656   4.650   8.625  0.4656  0.3432 -2.2727
  177MOL0     H23314   3.688   4.481   8.660  0.0176 -1.9738 -2.8629
  177MOL0     H23315   3.923   4.501   8.627 -2.1862 -0.8467 -2.5492
  177MOL0     H23316   3.866   4.627   8.738 -2.2686  4.0487 -0.9178
  177MOL0     H23317   4.059   4.619   8.400 -1.2398 -0.7612 -0.0326
  177MOL0     H23318   4.127   4.813   8.200 -0.5610 -0.1679 -3.4083
  177MOL0     H23319   4.010   4.952   8.208 -1.8054 -0.7564 -0.7072
  177MOL0     H23320   3.945   4.682   8.113 -1.5207 -0.4566 -1.2246
  177MOL0     H23321   3.991   4.805   8.005 -1.1560 -0.9817 -0.2596
  177MOL0     H23322   3.734   4.822   8.162 -1.9919  2.0232  0.0604
  177MOL0     H23323   3.831   4.966   8.113 -0.2457 -0.0527 -2.0562
  177MOL0     H23324   3.648   4.889   7.969  0.5033  0.8731 -0.5704
  177MOL0     H23325   3.729   4.727   7.951 -1.9394 -0.6596 -0.0323
  177MOL0     H23326   3.558   4.812   7.764  0.9441  0.2791  1.2695
  177MOL0     H23327   3.501   4.796   7.543  0.5755 -2.3523 -1.1695
  177MOL0     H23328   3.450   4.993   7.155 -0.3136  0.0142  0.9945
  177MOL0     H23329   3.370   5.077   6.947  0.6520 -0.4680  0.5620
  177MOL0     H23330   3.328   5.177   6.794  2.2290 -4.0263  0.8112
  177MOL0     H23331   3.325   5.072   6.662  0.1317 -0.7347  0.1632
  177MOL0     H23332   3.405   5.244   6.494  0.5695 -0.7000  0.4522
  177MOL0     H23333   3.432   5.353   6.623 -0.9760 -0.5248  0.7551
  177MOL0     H23334   3.203   5.385   6.485  0.1054 -2.1927 -1.6884
  177MOL0     H23335   3.199   5.376   6.670  3.4148  1.1692  0.2974
  177MOL0     H23336   3.140   5.137   6.486  1.2746 -0.0673  0.7320
  177MOL0     H23337   3.111   5.167   6.660  2.6818  0.2780  0.1122
  177MOL0     H23338   2.985   5.348   6.448 -0.6972  0.2310 -0.6455
  177MOL0     H23339   2.953   5.328   6.627  0.4816  0.6928  1.1884
  177MOL0     H23340   2.848   5.107   6.575  0.6823  1.4136  1.7815
  177MOL0     H23341   2.853   5.143   6.400 -3.4014 -2.6667  0.2961
  177MOL0     H23342   2.626   5.206   6.527  1.7838 -2.2367 -0.9885
  177MOL0     H23343   2.723   5.308   6.622  1.3791  2.2198 -1.6676
  177MOL0     H23344   2.739   5.471   6.460  0.5454 -0.4161  0.6233
  177MOL0     H23345   2.576   5.396   6.449 -0.3452  1.9685 -0.0341
  177MOL0     H23346   3.763   5.137   6.792 -1.5444 -0.6516 -1.2371
  177MOL0     H23347   3.851   5.092   7.020  0.0370  0.6446 -0.2584
  177MOL0     H23348   3.886   4.967   7.426 -2.8657  2.3639 -1.5829
  177MOL0     H23349   3.950   4.959   7.660  1.5532 -0.1813 -0.6891
  177MOL0     H23350   3.741   4.588   7.717 -0.6647  0.4412  0.9357
  177MOL0     H23351   3.908   4.675   7.588 -1.3062 -0.6645  0.0231
  177MOL0     H23352   4.559   4.769   7.740 -0.8808 -4.1298  0.2426
  177MOL0     H23353   4.752   4.821   7.607  0.7039 -1.0993 -0.2824
  177MOL0     H23354   4.683   4.769   7.148  1.3967 -1.7814  0.8884
  177MOL0     H23355   4.812   4.873   7.144 -1.2649 -2.5060 -2.1775
  177MOL0     H23356   4.590   4.965   7.079 -0.8290 -2.9965  0.9633
  177MOL0     H23357   4.551   4.995   7.250 -0.4422  3.2625 -0.5031
  177MOL0     H23358   4.800   5.102   7.121 -0.0780  1.9975  0.5129
  177MOL0     H23359   4.756   5.120   7.290  3.0906  0.2279 -0.6441
  177MOL0     H23360   4.534   5.227   7.179 -0.9292 -0.3308 -3.3163
  177MOL0     H23361   4.660   5.315   7.207 -1.5555  1.4458 -0.7716
  177MOL0     H23362   4.628   5.292   6.774 -2.0700 -0.5431  0.4604
  177MOL0     H23363   4.505   4.733   7.260  2.2260  1.6958  0.5658
  177MOL0     H23364   4.317   4.695   7.394 -3.0393 -0.6015  3.2022
  178MOL0     O23365   8.179   3.903   6.843 -0.1732  0.4389 -0.8183
  178MOL0     C23366   8.160   3.802   6.781 -0.4710  0.3898 -0.2385
  178MOL0     O23367   8.234   3.767   6.674 -0.5326  0.3448 -0.3715
  178MOL0     C23368   8.319   3.856   6.618 -0.0568  0.4930  0.2009
  178MOL0     C23369   8.430   3.905   6.681 -0.2046 -1.0679 -0.5061
  178MOL0     C23370   8.514   4.000   6.629  0.5021  0.2823  0.3839
  178MOL0     C23371   8.485   4.063   6.497  0.1313 -0.5274 -1.5680
  178MOL0     O23372   8.549   4.187   6.452 -0.6297 -0.2945  0.4724
  178MOL0     C23373   8.458   4.280   6.384 -0.1021  0.9284  0.0868
  178MOL0     C23374   8.516   4.416   6.370 -0.8710 -0.1122 -0.3472
  178MOL0     C23375   8.595   4.451   6.494  1.2833 -0.1611 -0.4660
  178MOL0     C23376   8.535   4.455   6.638  0.3157  0.5518 -0.0961
  178MOL0     C23377   8.623   4.505   6.761 -0.1880 -0.7259  0.7676
  178MOL0     C23378   8.646   4.656   6.727 -0.2634  0.3075  0.4079
  178MOL0     C23379   8.793   4.679   6.699  0.1258 -0.1494 -0.6745
  178MOL0     C23380   8.819   4.817   6.627  0.1184 -0.4655  0.6026
  178MOL0     N23381   8.960   4.851   6.629 -0.3343  0.4497  0.5091
  178MOL0     C23382   9.042   4.849   6.740  0.0991 -0.0084 -0.5581
  178MOL0     C23383   9.166   4.857   6.691  0.4674  0.5538 -0.2349
  178MOL0     C23384   9.289   4.860   6.768  0.9391 -0.2366 -1.2577
  178MOL0     C23385   9.389   4.969   6.718  0.3934  0.2696  0.3787
  178MOL0     C23386   9.502   5.006   6.818 -0.7461 -0.0493 -0.7259
  178MOL0     C23387   9.449   5.063   6.944 -0.1080 -0.2003  0.6891
  178MOL0     O23388   9.559   5.111   7.022 -0.9071 -0.3810  0.4165
  178MOL0     C23389   9.543   5.126   7.155 -0.4599 -0.6110 -0.3909
  178MOL0     C23390   9.657   5.176   7.221  0.7676  0.1319 -0.6975
  178MOL0     C23391   9.653   5.208   7.357  0.0273 -0.1782  0.8533
  178MOL0     C23392   9.545   5.195   7.431 -0.4575  0.7975 -0.2224
  178MOL0     C23393   9.554   5.233   7.571 -0.2558 -0.2700  0.1003
  178MOL0     O23394   9.617   5.348   7.606  0.1216 -0.0714 -0.0479
  178MOL0     C23395   9.635   5.390   7.734  0.1515 -0.4043 -0.3386
  178MOL0     C23396   9.754   5.451   7.762  0.1432 -1.1541  0.6147
  178MOL0     C23397   9.790   5.494   7.889 -0.3083 -0.2284 -0.3948
  178MOL0     C23398   9.695   5.495   7.994 -0.3796  0.0167 -0.5720
  178MOL0     O23399   9.717   5.525   8.123 -0.6065  0.3801 -0.4443
  178MOL0     C23400   9.850   5.482   8.165  0.0653 -0.9503  0.2999
  178MOL0     C23401   9.864   5.493   8.319 -0.0089  0.8335 -0.6203
  178MOL0     C23402   9.947   5.391   8.382  0.4839  0.7140 -0.6177
  178MOL0     C23403  10.088   5.441   8.418 -0.1687 -0.3598  0.6496
  178MOL0     C23404  10.177   5.339   8.479 -0.1281 -0.4474  0.5596
  178MOL0     C23405  10.305   5.327   8.400  0.3210  1.1558 -0.1169
  178MOL0     C23406  10.412   5.234   8.468 -0.3976  0.0124  0.0245
  178MOL0     C23407  10.432   5.093   8.401  0.1570  0.2414 -0.9735
  178MOL0    Cl23408  10.462   5.087   8.228  0.2418 -0.2820  0.1544
  178MOL0     C23409   9.567   5.447   7.958 -0.1436 -0.0243  0.2080
  178MOL0     C23410   9.534   5.402   7.832  0.2549 -0.4350 -0.1953
  178MOL0     O23411   9.520   5.146   7.649  0.9195 -0.3465 -0.8464
  178MOL0     C23412   9.432   5.137   7.366 -0.2621 -0.1417 -1.2817
  178MOL0     C23413   9.428   5.116   7.229 -0.5859 -0.3691 -0.6773
  178MOL0     N23414   9.170   4.845   6.556 -0.5001 -0.4464 -0.3901
  178MOL0     N23415   9.044   4.840   6.525 -0.0589 -0.3525  0.2805
  178MOL0     C23416   8.376   4.006   6.435  0.8298 -0.8692 -0.3442
  178MOL0     C23417   8.293   3.893   6.492 -0.7098 -0.7188 -0.4939
  178MOL0     C23418   8.066   3.699   6.837  0.0181  0.2343  0.3567
  178MOL0     C23419   8.057   3.566   6.788  0.8329 -1.0088 -0.3303
  178MOL0     C23420   7.962   3.481   6.840 -0.1123 -0.1845 -0.3481
  178MOL0     C23421   7.867   3.521   6.938 -0.3352  0.6157  0.2998
  178MOL0     O23422   7.775   3.418   6.958 -0.6929  0.2776  1.0664
  178MOL0     C23423   7.687   3.442   7.072 -0.0304 -0.6605  0.4808
  178MOL0     C23424   7.579   3.333   7.079 -0.3986  0.2563  0.5304
  178MOL0     C23425   7.448   3.357   6.995 -0.5122 -0.7591  0.6353
  178MOL0     C23426   7.368   3.229   6.990  0.2187  0.5941  0.1775
  178MOL0     C23427   7.231   3.237   6.941 -0.7141 -0.1130  0.1840
  178MOL0     C23428   7.126   3.247   6.886 -1.0697 -0.3187 -0.7301
  178MOL0     C23429   7.868   3.657   6.985  0.9955 -0.6277 -0.0959
  178MOL0     C23430   7.972   3.742   6.939 -0.3847 -0.2954  0.5458
  178MOL0     H23431   8.453   3.874   6.782  1.6956 -0.2971 -0.6568
  178MOL0     H23432   8.599   4.024   6.692  0.2553 -1.8342  1.5995
  178MOL0     H23433   8.361   4.292   6.434 -1.1567  2.4060 -2.1323
  178MOL0     H23434   8.439   4.247   6.282  2.5358  1.1174 -0.5226
  178MOL0     H23435   8.435   4.489   6.356 -1.4756 -0.9290 -1.1448
  178MOL0     H23436   8.588   4.431   6.290 -1.1904  2.8939 -0.1884
  178MOL0     H23437   8.628   4.554   6.475 -0.3716  0.4626 -0.1118
  178MOL0     H23438   8.678   4.380   6.492 -1.9848 -4.3452 -0.3963
  178MOL0     H23439   8.434   4.494   6.645 -0.8182 -2.3587  1.3581
  178MOL0     H23440   8.510   4.349   6.645  0.6869  0.4135 -0.7500
  178MOL0     H23441   8.709   4.443   6.787 -0.8721 -0.5933  3.6414
  178MOL0     H23442   8.564   4.494   6.852 -0.2060  1.6132  1.0842
  178MOL0     H23443   8.617   4.714   6.814 -0.4408  1.4066 -0.3605
  178MOL0     H23444   8.579   4.699   6.652  0.0967 -0.8061 -0.5880
  178MOL0     H23445   8.854   4.672   6.789 -0.4793 -5.3441 -0.3752
  178MOL0     H23446   8.829   4.592   6.643  0.6533 -1.0664  1.0265
  178MOL0     H23447   8.753   4.887   6.678  1.2826  0.5866  0.7240
  178MOL0     H23448   8.793   4.796   6.522  1.0877 -3.7218  0.9140
  178MOL0     H23449   9.018   4.831   6.844  3.5685 -0.5271  0.2600
  178MOL0     H23450   9.347   4.768   6.782 -1.8868 -1.9220  0.1052
  178MOL0     H23451   9.259   4.881   6.871  0.8455 -0.6691 -1.1975
  178MOL0     H23452   9.332   5.058   6.689 -0.1646  1.1699  3.7768
  178MOL0     H23453   9.442   4.939   6.627 -0.9824 -0.2949 -0.2710
  178MOL0     H23454   9.559   4.920   6.854  0.9738  0.7183 -1.4936
  178MOL0     H23455   9.577   5.074   6.778 -0.1919 -0.5595 -0.5634
  178MOL0     H23456   9.400   4.978   6.994  2.4964 -2.2702 -0.0414
  178MOL0     H23457   9.374   5.141   6.925 -3.7589 -3.6189 -0.4044
  178MOL0     H23458   9.758   5.179   7.181  0.6241 -0.5438 -1.1389
  178MOL0     H23459   9.736   5.269   7.390 -2.5124  2.0326  3.7461
  178MOL0     H23460   9.826   5.452   7.681  0.1974 -2.4072  0.6192
  178MOL0     H23461   9.894   5.524   7.898 -0.0155 -0.9604 -1.1785
  178MOL0     H23462   9.928   5.549   8.126  0.3358 -1.1746  0.4545
  178MOL0     H23463   9.872   5.381   8.129  1.7389 -1.5592  2.7849
  178MOL0     H23464   9.765   5.466   8.356 -0.0450  0.3464 -1.0615
  178MOL0     H23465   9.890   5.591   8.360  0.2356 -0.2629  2.0659
  178MOL0     H23466   9.959   5.302   8.320 -0.9963  0.9909 -1.3417
  178MOL0     H23467   9.909   5.358   8.479  3.1154 -0.5480  0.0751
  178MOL0     H23468  10.131   5.482   8.326  0.3957 -2.3336 -0.0142
  178MOL0     H23469  10.094   5.522   8.491  1.5841  0.8707 -0.7482
  178MOL0     H23470  10.128   5.243   8.493 -1.0495  0.3050  3.0313
  178MOL0     H23471  10.205   5.383   8.576 -2.7430  1.8989  0.3959
  178MOL0     H23472  10.344   5.428   8.386  2.2490  0.6738  1.4260
  178MOL0     H23473  10.274   5.285   8.303  1.9648  0.2935 -0.2999
  178MOL0     H23474  10.510   5.274   8.440  0.1385 -0.1083  1.6476
  178MOL0     H23475  10.394   5.234   8.575 -1.6524  1.3908 -0.1526
  178MOL0     H23476  10.344   5.031   8.420 -0.0022  0.4318 -1.0938
  178MOL0     H23477  10.523   5.043   8.437 -0.0568 -0.6707 -1.6665
  178MOL0     H23478   9.503   5.453   8.045  0.7858  0.3922  0.8815
  178MOL0     H23479   9.432   5.377   7.806 -1.2692  1.4387  3.2773
  178MOL0     H23480   9.348   5.121   7.432  0.4323 -0.1912 -0.3911
  178MOL0     H23481   9.328   5.090   7.195 -0.2946  0.2538 -2.0484
  178MOL0     H23482   8.336   4.048   6.343  0.4118  0.4517  0.4153
  178MOL0     H23483   8.204   3.851   6.445 -1.6872 -0.5117  1.1118
  178MOL0     H23484   8.100   3.531   6.695 -0.2566 -0.0694 -1.2032
  178MOL0     H23485   7.964   3.382   6.795 -0.5984  0.4601 -1.8488
  178MOL0     H23486   7.631   3.536   7.079  1.0542  0.3127 -2.5700
  178MOL0     H23487   7.742   3.443   7.167 -1.8225  2.2039  1.6489
  178MOL0     H23488   7.623   3.234   7.067 -0.0739  0.3084  1.2628
  178MOL0     H23489   7.550   3.337   7.184 -0.4614 -1.4839  0.6075
  178MOL0     H23490   7.482   3.386   6.895 -1.3604  0.1323  0.6006
  178MOL0     H23491   7.384   3.436   7.034 -1.4470 -0.1265 -1.9844
  178MOL0     H23492   7.424   3.156   6.930  0.1254  1.7537 -1.3873
  178MOL0     H23493   7.355   3.201   7.095 -0.3025  1.3106  0.3113
  178MOL0     H23494   7.030   3.269   6.843 -2.0539  0.0025  1.5150
  178MOL0     H23495   7.802   3.700   7.059 -1.0517  1.0393 -2.7028
  178MOL0     H23496   7.973   3.845   6.972  3.0933 -0.7733  2.4111
  179MOL0     O23497  11.075   9.884   4.791 -0.0751 -0.0410  0.8103
  179MOL0     C23498  11.169   9.934   4.728  0.0872 -0.6010 -0.6969
  179MOL0     O23499  11.261  10.019   4.774 -0.0141  0.3378  0.5121
  179MOL0     C23500  11.257  10.054   4.907 -0.3602 -1.6063 -0.5461
  179MOL0     C23501  11.382  10.068   4.975 -0.2051  0.0105 -0.1081
  179MOL0     C23502  11.383  10.105   5.116  0.1934  0.7654  0.2954
  179MOL0     C23503  11.263  10.116   5.189  0.1819 -0.8538  0.2540
  179MOL0     O23504  11.254  10.141   5.320  0.4619 -0.7228 -0.3263
  179MOL0     C23505  11.368  10.178   5.401 -0.4963 -0.0012 -0.6893
  179MOL0     C23506  11.299  10.232   5.534  0.3494  1.4018  0.2563
  179MOL0     C23507  11.401  10.316   5.615 -0.3277  0.6276  0.1644
  179MOL0     C23508  11.340  10.392   5.733 -0.4626 -0.5826 -0.7990
  179MOL0     C23509  11.444  10.467   5.809  0.0308  0.0863  0.3228
  179MOL0     C23510  11.485  10.596   5.724 -0.5421  0.3443 -0.1319
  179MOL0     C23511  11.595  10.677   5.789 -0.2066 -0.0648 -0.5024
  179MOL0     C23512  11.733  10.616   5.763  0.1993  0.1277 -0.2511
  179MOL0     N23513  11.839  10.643   5.862 -0.6580  0.1394 -0.3078
  179MOL0     C23514  11.897  10.759   5.893 -0.1022 -0.0300  0.3518
  179MOL0     C23515  11.977  10.738   5.999 -0.2095  0.9802  0.1692
  179MOL0     C23516  12.083  10.833   6.064  0.3837 -0.1578  0.7065
  179MOL0     C23517  12.227  10.832   6.022  0.6027 -0.3755 -0.4471
  179MOL0     C23518  12.300  10.705   6.065  0.0187 -0.3096  0.1683
  179MOL0     C23519  12.449  10.697   6.047 -0.2798  0.0216  0.3352
  179MOL0     O23520  12.496  10.815   5.979 -0.5441  0.5715  0.2049
  179MOL0     C23521  12.514  10.926   6.059 -0.6702 -0.2754 -0.2051
  179MOL0     C23522  12.543  10.933   6.188 -0.2037 -0.1108 -0.5237
  179MOL0     C23523  12.546  11.055   6.259 -0.1979 -0.1849 -1.4953
  179MOL0     C23524  12.525  11.175   6.196  0.5003  0.4368  0.4803
  179MOL0     C23525  12.530  11.306   6.259  0.6484 -0.5748 -1.5304
  179MOL0     O23526  12.560  11.407   6.163 -1.1397  0.0616  0.2613
  179MOL0     C23527  12.561  11.543   6.188  1.3757  0.5057 -0.1167
  179MOL0     C23528  12.464  11.601   6.274 -1.1193  0.2216  0.3159
  179MOL0     C23529  12.462  11.735   6.317 -0.3303  0.6440 -0.4426
  179MOL0     C23530  12.548  11.821   6.260 -0.8256  0.0395  0.2689
  179MOL0     O23531  12.554  11.942   6.311 -0.0653 -0.4345 -0.5568
  179MOL0     C23532  12.523  12.038   6.204 -0.1535 -0.4223  0.2895
  179MOL0     C23533  12.376  12.077   6.215  0.1971  1.3438 -0.7546
  179MOL0     C23534  12.318  12.115   6.352 -0.1055  0.4258  0.2199
  179MOL0     C23535  12.165  12.140   6.349 -0.4338 -0.4819  0.4161
  179MOL0     C23536  12.134  12.276   6.418 -0.8515  0.3035  0.1431
  179MOL0     C23537  12.181  12.289   6.568  0.2067 -0.2695 -0.2030
  179MOL0     C23538  12.057  12.304   6.657 -0.3557  0.2405 -0.7932
  179MOL0     C23539  12.002  12.441   6.650  0.5831 -0.0527 -0.3502
  179MOL0    Cl23540  11.844  12.450   6.732 -0.2462  0.1997  0.9861
  179MOL0     C23541  12.647  11.773   6.167  0.6693 -0.3882 -0.6739
  179MOL0     C23542  12.647  11.629   6.130  0.2757 -0.4409 -0.2028
  179MOL0     O23543  12.496  11.328   6.377 -0.5510  0.5712  0.2587
  179MOL0     C23544  12.527  11.168   6.047 -1.1137  0.5143 -0.1659
  179MOL0     C23545  12.513  11.045   5.980 -0.5532  0.6319 -0.2208
  179MOL0     N23546  11.976  10.600   6.036  0.1055 -0.2087 -0.2304
  179MOL0     N23547  11.893  10.546   5.946  0.4909 -0.3215  0.6027
  179MOL0     C23548  11.141  10.111   5.125  0.5543  0.7513  0.4565
  179MOL0     C23549  11.141  10.088   4.986  0.5638  0.1427  0.7038
  179MOL0     C23550  11.182   9.890   4.577  0.5411 -0.1634 -0.1027
  179MOL0     C23551  11.100   9.787   4.513  0.5834 -0.9178 -0.0968
  179MOL0     C23552  11.113   9.750   4.378  0.1733 -0.1569 -0.8264
  179MOL0     C23553  11.205   9.818   4.303  0.0584  0.4070  0.4320
  179MOL0     O23554  11.253   9.792   4.179  0.2250 -0.9775  0.5210
  179MOL0     C23555  11.177   9.690   4.109 -0.5829  0.4742  0.2862
  179MOL0     C23556  11.046   9.752   4.054 -0.1503 -0.7745  0.9929
  179MOL0     C23557  10.958   9.652   3.971  0.1087  0.4183 -0.3412
  179MOL0     C23558  10.905   9.555   4.071 -0.8777 -0.7727 -0.8489
  179MOL0     C23559  10.787   9.475   4.037 -0.3221 -0.9078  0.0898
  179MOL0     C23560  10.689   9.409   4.010  0.2306  0.4056  0.2010
  179MOL0     C23561  11.290   9.905   4.371  0.2894 -1.3145  0.5475
  179MOL0     C23562  11.274   9.954   4.497 -0.1077  0.0123 -0.6705
  179MOL0     H23563  11.471  10.049   4.915 -0.6726 -1.8397 -0.2784
  179MOL0     H23564  11.476  10.107   5.172 -0.3478 -1.0111  1.3389
  179MOL0     H23565  11.414  10.266   5.355  2.8716 -2.0257 -1.4905
  179MOL0     H23566  11.443  10.100   5.413  2.0557  2.3723 -0.2460
  179MOL0     H23567  11.279  10.149   5.603 -0.6210 -0.8926 -2.5448
  179MOL0     H23568  11.208  10.288   5.514  0.4299  1.0836 -1.1261
  179MOL0     H23569  11.441  10.393   5.548  1.0256 -1.2878 -1.3289
  179MOL0     H23570  11.486  10.251   5.636  0.3255  0.8794 -1.5103
  179MOL0     H23571  11.250  10.445   5.700 -0.3877 -0.0121 -0.1271
  179MOL0     H23572  11.303  10.320   5.806 -2.5834 -0.1707 -1.4192
  179MOL0     H23573  11.525  10.395   5.825 -1.0331 -0.5528  3.4896
  179MOL0     H23574  11.394  10.488   5.904  0.4891 -5.2635  2.0686
  179MOL0     H23575  11.398  10.660   5.706  2.1762  4.0058 -1.4041
  179MOL0     H23576  11.531  10.556   5.633  0.2177  0.0637  0.3683
  179MOL0     H23577  11.602  10.779   5.749 -2.1579 -1.0589 -3.7412
  179MOL0     H23578  11.567  10.689   5.894  0.6846  3.1605 -0.5049
  179MOL0     H23579  11.766  10.653   5.666  0.4616 -1.2363 -0.7025
  179MOL0     H23580  11.721  10.507   5.762  0.6383  0.0558  0.8793
  179MOL0     H23581  11.894  10.853   5.839  2.2541 -0.3859 -0.5487
  179MOL0     H23582  12.075  10.815   6.172 -1.2301  1.5292  0.9159
  179MOL0     H23583  12.037  10.927   6.032  0.7665 -1.0459 -2.8405
  179MOL0     H23584  12.279  10.916   6.068  1.3174 -0.9818 -0.1240
  179MOL0     H23585  12.241  10.850   5.915 -1.9288  1.1848 -0.6046
  179MOL0     H23586  12.275  10.692   6.171 -1.2698  0.2782 -0.0498
  179MOL0     H23587  12.253  10.623   6.010  0.0958  1.2366 -2.3616
  179MOL0     H23588  12.459  10.610   5.983  0.9140 -0.3621  1.0281
  179MOL0     H23589  12.500  10.670   6.140 -0.9883 -0.0049  0.7219
  179MOL0     H23590  12.546  10.842   6.246 -1.2266  0.1912  0.0232
  179MOL0     H23591  12.543  11.046   6.367 -0.7027 -2.8106 -1.6548
  179MOL0     H23592  12.403  11.533   6.333 -0.1542 -0.6526  0.3218
  179MOL0     H23593  12.391  11.778   6.387  0.4394 -0.7376  1.2727
  179MOL0     H23594  12.543  12.009   6.100 -0.9449  0.7362 -0.2051
  179MOL0     H23595  12.590  12.123   6.220  1.6485 -1.7997  0.3540
  179MOL0     H23596  12.306  12.004   6.175  2.0275 -0.9620  0.0531
  179MOL0     H23597  12.355  12.169   6.160 -0.3677  0.4464 -2.0920
  179MOL0     H23598  12.367  12.202   6.396 -0.2378  0.8208 -0.4043
  179MOL0     H23599  12.333  12.028   6.416 -1.1894 -1.3407 -1.7977
  179MOL0     H23600  12.107  12.140   6.256  1.9666  0.5085 -1.1507
  179MOL0     H23601  12.123  12.050   6.396 -0.2481 -1.4891 -1.2852
  179MOL0     H23602  12.030  12.307   6.403 -0.7249  0.8418  0.3672
  179MOL0     H23603  12.181  12.359   6.366 -1.1710 -0.6068 -1.6994
  179MOL0     H23604  12.248  12.376   6.578 -2.4081  1.7145  1.2677
  179MOL0     H23605  12.237  12.200   6.598 -2.6367 -2.1444 -0.1182
  179MOL0     H23606  11.973  12.244   6.620 -0.3354 -1.0070  1.0650
  179MOL0     H23607  12.079  12.271   6.759  0.3610 -0.4698 -1.1739
  179MOL0     H23608  11.993  12.480   6.548 -0.2954 -1.4879 -0.8432
  179MOL0     H23609  12.077  12.511   6.690 -0.6049  1.2672 -0.3694
  179MOL0     H23610  12.726  11.835   6.126  1.7058 -1.7103 -0.7484
  179MOL0     H23611  12.721  11.599   6.057 -0.3730  1.6213 -1.8212
  179MOL0     H23612  12.528  11.261   5.991  1.0832  1.0471  0.6427
  179MOL0     H23613  12.508  11.033   5.872 -0.5168  0.8838 -0.2506
  179MOL0     H23614  11.051  10.135   5.181 -1.5313 -2.7011 -1.0701
  179MOL0     H23615  11.047  10.100   4.934  1.1684 -1.9659 -1.0008
  179MOL0     H23616  11.022   9.737   4.569 -2.5287  3.4105 -0.0627
  179MOL0     H23617  11.042   9.680   4.334  1.7496 -3.2250  1.1318
  179MOL0     H23618  11.151   9.610   4.179 -5.6112  0.5641 -1.0811
  179MOL0     H23619  11.236   9.649   4.026 -0.8404  0.6366  0.0189
  179MOL0     H23620  10.980   9.800   4.127 -1.9831  2.2873 -2.3278
  179MOL0     H23621  11.061   9.835   3.984 -3.3405  0.1088  1.1989
  179MOL0     H23622  11.013   9.596   3.895  1.3215 -1.9715  2.1154
  179MOL0     H23623  10.874   9.700   3.921 -1.3871 -1.3367  0.3806
  179MOL0     H23624  10.992   9.495   4.098 -0.0309  0.2104 -1.3074
  179MOL0     H23625  10.882   9.606   4.165  1.7654 -0.9906  0.0153
  179MOL0     H23626  10.612   9.340   3.982 -1.4572  1.0096  2.9212
  179MOL0     H23627  11.369   9.961   4.322 -1.0210 -0.2023 -0.4178
  179MOL0     H23628  11.338  10.025   4.549 -1.3456 -1.2430  2.8302
  180MOL0     O23629   9.577   2.078   5.426  0.0291 -0.2250 -0.4320
  180MOL0     C23630   9.702   2.052   5.426 -0.4221 -0.6119  0.0796
  180MOL0     O23631   9.760   1.963   5.511 -1.0378 -0.2022 -0.3338
  180MOL0     C23632   9.690   1.877   5.590 -0.0978  0.7206  0.0280
  180MOL0     C23633   9.597   1.905   5.690  0.6119  0.0905  0.5249
  180MOL0     C23634   9.556   1.816   5.792 -0.1115  0.8264  0.0745
  180MOL0     C23635   9.592   1.682   5.779  0.8251  0.3172 -0.3835
  180MOL0     O23636   9.547   1.573   5.853  0.4033  0.7302 -0.0889
  180MOL0     C23637   9.482   1.595   5.978 -0.8841  0.5678 -0.5231
  180MOL0     C23638   9.444   1.463   6.027  1.0138  0.2597  1.0853
  180MOL0     C23639   9.569   1.380   6.075 -0.2989 -0.1342 -0.3070
  180MOL0     C23640   9.516   1.271   6.174 -0.0321  0.1302  1.0084
  180MOL0     C23641   9.636   1.184   6.218 -0.7684  0.3975 -0.8527
  180MOL0     C23642   9.603   1.045   6.282 -0.0152 -0.8400  0.0076
  180MOL0     C23643   9.728   0.957   6.284  0.5652 -0.4417 -0.1222
  180MOL0     C23644   9.756   0.898   6.148 -0.1117  0.0376  0.4871
  180MOL0     N23645   9.632   0.822   6.093  0.1981 -0.5760 -0.0369
  180MOL0     C23646   9.591   0.811   5.955  0.2179 -0.8707 -0.6730
  180MOL0     C23647   9.488   0.721   5.963  0.4789 -0.5225  0.5283
  180MOL0     C23648   9.405   0.694   5.842  1.0102  0.3428  0.5453
  180MOL0     C23649   9.474   0.726   5.704 -0.8189  0.0999 -0.0087
  180MOL0     C23650   9.384   0.673   5.590  0.6783  0.1528  0.5164
  180MOL0     C23651   9.445   0.711   5.447 -0.4698  0.4150  0.3829
  180MOL0     O23652   9.430   0.854   5.417 -0.5406  0.1374 -0.7781
  180MOL0     C23653   9.505   0.898   5.311 -0.3849 -0.8888 -1.1948
  180MOL0     C23654   9.539   1.032   5.312 -0.1514  0.1656  0.1059
  180MOL0     C23655   9.617   1.084   5.200 -0.1357  0.0447  0.8862
  180MOL0     C23656   9.628   1.008   5.076 -0.1797  0.0479  0.3836
  180MOL0     C23657   9.707   1.054   4.957  0.3101 -0.6882  0.1646
  180MOL0     O23658   9.763   1.179   4.977  0.0179  0.8398 -0.0029
  180MOL0     C23659   9.832   1.243   4.888 -0.5165 -0.3044 -0.0542
  180MOL0     C23660   9.941   1.196   4.814  0.3773 -1.1522  0.2348
  180MOL0     C23661  10.021   1.288   4.743  0.0673 -1.3528  0.9019
  180MOL0     C23662   9.995   1.428   4.754  0.6342  0.0705  0.2612
  180MOL0     O23663  10.074   1.527   4.692 -0.3738  0.1183 -0.1394
  180MOL0     C23664  10.081   1.520   4.552  0.1887  0.3699  0.6810
  180MOL0     C23665  10.090   1.663   4.495  0.5607  0.0865 -0.6030
  180MOL0     C23666   9.957   1.735   4.455 -0.4046 -1.3205 -0.4379
  180MOL0     C23667   9.859   1.752   4.569 -0.6092 -0.1575 -0.6794
  180MOL0     C23668   9.900   1.837   4.683 -0.4596  0.3373 -0.6360
  180MOL0     C23669   9.968   1.972   4.646 -0.8693 -0.8768 -0.4623
  180MOL0     C23670  10.047   2.031   4.775 -0.5192 -0.1541  0.0857
  180MOL0     C23671  10.089   2.169   4.763  0.1478 -0.7930  0.1073
  180MOL0    Cl23672  10.225   2.178   4.647  0.0721 -0.4728  0.3865
  180MOL0     C23673   9.881   1.468   4.817  0.2645 -1.1944 -0.5811
  180MOL0     C23674   9.807   1.377   4.894  0.3538  0.3610 -0.5430
  180MOL0     O23675   9.727   0.989   4.855 -0.2915 -0.4501  0.1058
  180MOL0     C23676   9.587   0.878   5.084 -0.6788  0.5572 -0.4310
  180MOL0     C23677   9.516   0.824   5.195  0.2256  0.7673 -0.4947
  180MOL0     N23678   9.479   0.666   6.092 -0.6389 -0.8420 -0.1366
  180MOL0     N23679   9.558   0.737   6.168  0.1624 -0.0499 -0.0875
  180MOL0     C23680   9.683   1.651   5.682  0.4198  0.2611 -0.4709
  180MOL0     C23681   9.726   1.747   5.583  0.8687  0.8488 -0.2293
  180MOL0     C23682   9.791   2.115   5.323  0.7563 -0.4004 -0.0030
  180MOL0     C23683   9.747   2.206   5.224  0.3442  0.9500  0.6784
  180MOL0     C23684   9.844   2.273   5.140 -0.8378 -0.1210 -0.4171
  180MOL0     C23685   9.984   2.276   5.161  0.8386  0.2442 -0.9809
  180MOL0     O23686  10.073   2.351   5.092 -0.5803 -0.2553 -1.0148
  180MOL0     C23687  10.013   2.483   5.059  0.5654  0.5489  0.2260
  180MOL0     C23688  10.111   2.581   5.011 -0.4150 -0.2364 -0.2062
  180MOL0     C23689  10.169   2.520   4.886  0.4671  0.2681  0.6970
  180MOL0     C23690  10.255   2.616   4.816  0.5718 -0.5156 -0.3607
  180MOL0     C23691  10.205   2.744   4.772  0.4556 -0.3703  0.6829
  180MOL0     C23692  10.188   2.861   4.733  0.4296  0.6872 -0.6713
  180MOL0     C23693  10.024   2.183   5.251  0.0019  0.4635 -0.5304
  180MOL0     C23694   9.936   2.098   5.332 -0.5281  0.1898 -0.2259
  180MOL0     H23695   9.568   2.010   5.699 -0.9129 -0.2679  0.0613
  180MOL0     H23696   9.499   1.845   5.880  1.3156 -0.2532  1.4121
  180MOL0     H23697   9.395   1.662   5.978  1.3814  4.0813  3.6295
  180MOL0     H23698   9.549   1.634   6.055 -1.1486 -2.4460  1.4130
  180MOL0     H23699   9.388   1.404   5.954 -0.5196  2.2095  0.5889
  180MOL0     H23700   9.371   1.486   6.105  1.2438  0.0137  1.3770
  180MOL0     H23701   9.646   1.446   6.115 -0.7842  0.0881  0.2786
  180MOL0     H23702   9.616   1.331   5.990  1.8420 -0.5299  1.0413
  180MOL0     H23703   9.469   1.311   6.265  0.0113  0.0312  1.0753
  180MOL0     H23704   9.440   1.215   6.117  2.3349  0.5035 -2.8534
  180MOL0     H23705   9.682   1.255   6.287  0.0484  0.4262 -1.4140
  180MOL0     H23706   9.704   1.167   6.134  0.6894 -1.9800  0.6923
  180MOL0     H23707   9.513   1.003   6.235  0.5464 -1.5630 -0.4492
  180MOL0     H23708   9.572   1.079   6.381 -0.5224  1.3884 -0.8571
  180MOL0     H23709   9.821   1.004   6.318  0.0368  0.1928  0.4866
  180MOL0     H23710   9.720   0.879   6.361 -0.1255  2.0169  2.4854
  180MOL0     H23711   9.837   0.828   6.172  0.1755  0.5888  1.1575
  180MOL0     H23712   9.788   0.970   6.072 -0.5708 -0.7251 -0.4439
  180MOL0     H23713   9.630   0.850   5.861 -1.2120  3.4242  0.3164
  180MOL0     H23714   9.304   0.737   5.842 -0.9654 -3.8115 -0.7294
  180MOL0     H23715   9.381   0.588   5.841  1.5259  0.2183  1.0009
  180MOL0     H23716   9.576   0.686   5.699 -0.7816  0.1184  0.5203
  180MOL0     H23717   9.489   0.833   5.689  5.0497 -0.4154 -0.0075
  180MOL0     H23718   9.350   0.569   5.589 -2.1696  0.9456  2.0005
  180MOL0     H23719   9.282   0.712   5.605  2.2347  4.8142  0.6254
  180MOL0     H23720   9.391   0.647   5.378  1.4971  0.0118 -0.8840
  180MOL0     H23721   9.550   0.679   5.444 -1.0550 -2.3851  3.4573
  180MOL0     H23722   9.536   1.091   5.403  2.0576 -0.0830  0.3911
  180MOL0     H23723   9.663   1.182   5.208  1.9676 -1.0252  3.5809
  180MOL0     H23724   9.963   1.090   4.823  3.6843 -0.4442  2.4863
  180MOL0     H23725  10.106   1.266   4.679  0.3827 -2.3383  1.6360
  180MOL0     H23726   9.992   1.471   4.510  0.4968  0.7418 -0.4409
  180MOL0     H23727  10.170   1.465   4.521  0.6537  0.9525  0.9695
  180MOL0     H23728  10.165   1.664   4.415  2.6096  2.8138  1.1788
  180MOL0     H23729  10.134   1.721   4.577  0.7041 -2.9478  1.6952
  180MOL0     H23730   9.911   1.669   4.380 -2.1971  1.3986 -1.9009
  180MOL0     H23731   9.989   1.831   4.415  1.5536 -2.0706 -0.7467
  180MOL0     H23732   9.772   1.803   4.527 -0.5429  0.6011  0.0771
  180MOL0     H23733   9.817   1.663   4.615  0.4672  0.8666  2.5591
  180MOL0     H23734   9.966   1.781   4.750 -2.2832  3.1133  3.9945
  180MOL0     H23735   9.819   1.854   4.755  1.0782 -0.8276  1.4906
  180MOL0     H23736   9.891   2.045   4.619 -1.1517 -0.5253  1.1730
  180MOL0     H23737  10.046   1.965   4.570 -0.5274  1.3999 -0.3843
  180MOL0     H23738   9.981   2.031   4.862 -1.2067  0.4233 -0.4178
  180MOL0     H23739  10.135   1.975   4.808  1.0058  2.7174  1.3332
  180MOL0     H23740  10.130   2.218   4.853  2.0886 -1.2740 -0.4597
  180MOL0     H23741   9.995   2.220   4.743  1.3405  0.5771 -2.5300
  180MOL0     H23742   9.853   1.573   4.822  0.3874 -1.2375  2.1228
  180MOL0     H23743   9.728   1.400   4.964  0.5981 -0.9168  0.1929
  180MOL0     H23744   9.611   0.824   4.992 -0.1773  0.8901 -0.4998
  180MOL0     H23745   9.478   0.722   5.198  0.2633  0.7489  3.1901
  180MOL0     H23746   9.721   1.550   5.698 -0.0579  0.3342  1.4107
  180MOL0     H23747   9.808   1.716   5.519  1.9876  1.8743  0.6597
  180MOL0     H23748   9.641   2.216   5.205  0.6556  0.7666 -1.3002
  180MOL0     H23749   9.794   2.336   5.067 -0.6715  2.5507  1.5872
  180MOL0     H23750   9.966   2.524   5.149  0.1439  1.3140 -0.3264
  180MOL0     H23751   9.936   2.482   4.980  2.2287  1.7034 -1.4865
  180MOL0     H23752  10.060   2.676   4.991 -2.5842 -1.1712  0.5745
  180MOL0     H23753  10.190   2.594   5.085 -1.6361  0.4980  1.0200
  180MOL0     H23754  10.086   2.482   4.826  2.5970 -0.9730 -1.6058
  180MOL0     H23755  10.235   2.437   4.911  0.5747  0.5324  1.3243
  180MOL0     H23756  10.334   2.637   4.889  1.5358 -0.5342 -1.3762
  180MOL0     H23757  10.315   2.584   4.730 -3.9815  1.1055 -4.6462
  180MOL0     H23758  10.157   2.960   4.709 -0.1917  0.2861 -1.5965
  180MOL0     H23759  10.131   2.180   5.267  0.1830  1.7197 -1.3329
  180MOL0     H23760   9.970   2.021   5.401 -2.4861 -1.4999 -1.0543
  181MOL0     O23761   5.265   8.244   2.341 -0.1791 -0.1127 -0.6745
  181MOL0     C23762   5.300   8.254   2.225  0.3763  0.7260  0.3315
  181MOL0     O23763   5.291   8.147   2.127  0.8409  0.2364 -0.0801
  181MOL0     C23764   5.233   8.029   2.158  1.0183  0.4008  0.6767
  181MOL0     C23765   5.120   7.985   2.075  0.7204  0.5295  0.0318
  181MOL0     C23766   5.086   7.847   2.088  0.5906 -0.2087 -0.6283
  181MOL0     C23767   5.127   7.764   2.185  0.2968 -0.9502  0.0578
  181MOL0     O23768   5.078   7.639   2.177  0.6344 -0.4629 -0.6943
  181MOL0     C23769   5.124   7.537   2.276 -0.1020  0.0181 -0.1228
  181MOL0     C23770   5.040   7.415   2.243  0.1372  0.4399 -0.3852
  181MOL0     C23771   5.067   7.350   2.112 -0.3767  0.1556 -0.0989
  181MOL0     C23772   5.007   7.407   1.985  0.0306  1.2055  0.9180
  181MOL0     C23773   5.108   7.388   1.857 -0.2285 -0.4976  0.5383
  181MOL0     C23774   5.260   7.437   1.869  0.1321 -0.1229 -0.6212
  181MOL0     C23775   5.321   7.435   1.731 -0.9793  0.4105 -0.6074
  181MOL0     C23776   5.476   7.422   1.734 -0.9107 -0.0969 -0.3240
  181MOL0     N23777   5.535   7.514   1.832 -1.1397 -0.6316 -0.3045
  181MOL0     C23778   5.502   7.643   1.838 -0.5527 -0.0029 -0.2926
  181MOL0     C23779   5.571   7.689   1.954  0.3401 -0.5047 -0.2015
  181MOL0     C23780   5.566   7.826   2.014  0.4751 -0.1133  0.4919
  181MOL0     C23781   5.710   7.886   2.044 -0.1241 -0.6653  0.9491
  181MOL0     C23782   5.706   8.041   2.068 -0.1486  0.0370  0.5039
  181MOL0     C23783   5.646   8.052   2.212 -0.0631  0.1636  0.7507
  181MOL0     O23784   5.743   8.083   2.316  0.7970 -0.3675 -0.4085
  181MOL0     C23785   5.715   8.208   2.366  0.9094  0.3684  0.5517
  181MOL0     C23786   5.778   8.320   2.312  0.1520 -0.0152  0.1139
  181MOL0     C23787   5.772   8.447   2.375 -0.1305  0.2178  0.0629
  181MOL0     C23788   5.707   8.456   2.498  0.2665  1.3583  0.5113
  181MOL0     C23789   5.698   8.579   2.573  0.0313 -0.0252 -0.0462
  181MOL0     O23790   5.766   8.681   2.510  0.3824 -0.0681  0.4933
  181MOL0     C23791   5.809   8.797   2.586  0.5387 -0.6747 -0.2802
  181MOL0     C23792   5.917   8.863   2.517 -0.2746 -0.0943  0.7172
  181MOL0     C23793   5.948   8.998   2.551  0.2499 -0.1505 -0.4577
  181MOL0     C23794   5.884   9.054   2.652  0.2667  0.9018 -0.1641
  181MOL0     O23795   5.924   9.178   2.691 -0.0442  0.0032  0.0880
  181MOL0     C23796   5.846   9.300   2.677 -0.3727  0.2717  0.0307
  181MOL0     C23797   5.928   9.412   2.612  0.7221 -0.3139  0.2732
  181MOL0     C23798   5.861   9.456   2.483  0.3765  0.7843  0.1314
  181MOL0     C23799   5.945   9.562   2.404  0.3637 -0.0956  0.1391
  181MOL0     C23800   5.856   9.625   2.303  0.1870 -0.4253 -1.0230
  181MOL0     C23801   5.940   9.736   2.241  0.3573  0.2728  0.2188
  181MOL0     C23802   6.057   9.688   2.158  0.4721 -1.0483  0.2437
  181MOL0     C23803   6.137   9.796   2.096 -0.2311  0.1442  0.5996
  181MOL0    Cl23804   6.281   9.713   2.018  0.8008 -0.1770 -0.1948
  181MOL0     C23805   5.783   8.996   2.729  0.4353 -0.0058  0.3341
  181MOL0     C23806   5.743   8.861   2.691 -0.7498  0.4598 -0.3322
  181MOL0     O23807   5.639   8.595   2.680 -0.1259  0.8389  0.1124
  181MOL0     C23808   5.640   8.341   2.547 -0.6720  0.1779  0.2105
  181MOL0     C23809   5.642   8.217   2.484 -0.6376 -0.3020 -0.3072
  181MOL0     N23810   5.638   7.587   2.008 -0.6195 -0.1008 -0.0559
  181MOL0     N23811   5.615   7.486   1.937 -0.0427 -0.0495  0.7284
  181MOL0     C23812   5.220   7.817   2.280  0.0021 -0.5948 -0.6284
  181MOL0     C23813   5.276   7.943   2.260  0.4309 -0.8165 -0.2220
  181MOL0     C23814   5.389   8.366   2.202  0.2538 -0.2905  0.4614
  181MOL0     C23815   5.409   8.391   2.066 -1.0748 -0.6392 -0.4419
  181MOL0     C23816   5.490   8.503   2.040 -0.0839  0.6860  0.1373
  181MOL0     C23817   5.532   8.600   2.132 -0.1705 -1.0606 -0.1996
  181MOL0     O23818   5.611   8.706   2.096 -0.0256  0.8751  0.0156
  181MOL0     C23819   5.583   8.830   2.160 -1.0254  0.2709 -0.9886
  181MOL0     C23820   5.590   8.944   2.064 -0.2872 -0.1746  0.5769
  181MOL0     C23821   5.491   8.923   1.950  1.1978  0.0694 -0.1002
  181MOL0     C23822   5.485   9.048   1.858  0.2024  0.2151 -0.4962
  181MOL0     C23823   5.458   9.163   1.952 -0.4265 -0.1828  0.6108
  181MOL0     C23824   5.444   9.261   2.026  0.0487 -0.9424 -0.9507
  181MOL0     C23825   5.499   8.578   2.266  0.3449 -0.6041  0.1560
  181MOL0     C23826   5.431   8.456   2.303 -0.9040  0.2742  0.2978
  181MOL0     H23827   5.083   8.040   1.990  3.1666  2.3037  0.0219
  181MOL0     H23828   5.000   7.815   2.030  0.0866  1.6546 -0.9708
  181MOL0     H23829   5.090   7.578   2.372  0.7312 -2.2213  1.1912
  181MOL0     H23830   5.231   7.520   2.261 -0.1743 -0.9856  0.4090
  181MOL0     H23831   4.932   7.433   2.252  0.3521  0.6115  3.0154
  181MOL0     H23832   5.059   7.339   2.319  0.8670  0.1988 -0.7936
  181MOL0     H23833   5.030   7.247   2.112 -0.8528  0.2520 -2.9403
  181MOL0     H23834   5.172   7.327   2.092 -0.8515 -5.5876  2.0525
  181MOL0     H23835   4.912   7.354   1.969  0.1440  1.0421  0.7811
  181MOL0     H23836   5.000   7.515   1.999  0.6927  1.0275  2.9820
  181MOL0     H23837   5.067   7.445   1.774  1.1129  2.1092  1.5570
  181MOL0     H23838   5.096   7.280   1.840 -0.4988 -0.6710  1.7519
  181MOL0     H23839   5.314   7.369   1.936  0.7841  3.1316  2.4617
  181MOL0     H23840   5.259   7.539   1.907  1.7520  0.0084 -0.8625
  181MOL0     H23841   5.272   7.357   1.673 -2.7482  1.2167 -0.2729
  181MOL0     H23842   5.300   7.532   1.686  1.5869  1.1292 -0.4130
  181MOL0     H23843   5.527   7.450   1.641 -1.8838 -1.3668 -1.2922
  181MOL0     H23844   5.501   7.317   1.754  2.0990  0.7322  0.8313
  181MOL0     H23845   5.435   7.700   1.774 -1.3272 -2.8934 -2.2517
  181MOL0     H23846   5.499   7.825   2.100  0.2338 -1.2379  0.3125
  181MOL0     H23847   5.530   7.885   1.929  1.5056 -1.1375 -0.7147
  181MOL0     H23848   5.772   7.867   1.956 -2.7746  0.6474 -1.4133
  181MOL0     H23849   5.746   7.831   2.131  0.3300 -0.3546  0.9594
  181MOL0     H23850   5.801   8.094   2.062  0.5065 -1.2673 -1.4332
  181MOL0     H23851   5.641   8.093   1.997 -2.5324 -2.8025  0.4082
  181MOL0     H23852   5.578   7.971   2.238 -1.6961  0.7771 -1.3334
  181MOL0     H23853   5.585   8.142   2.200  1.5034  1.4601  2.0066
  181MOL0     H23854   5.823   8.306   2.214 -3.5059  1.2888 -1.9444
  181MOL0     H23855   5.838   8.521   2.329  1.2548 -1.4727 -0.8045
  181MOL0     H23856   5.972   8.808   2.441 -1.7059 -1.3596  0.5463
  181MOL0     H23857   6.029   9.043   2.495  0.8358  0.1091  0.5736
  181MOL0     H23858   5.822   9.340   2.776 -1.4366  0.7667 -0.4155
  181MOL0     H23859   5.750   9.288   2.625  0.0987 -3.6770 -0.2225
  181MOL0     H23860   6.029   9.376   2.591  0.9570  0.3433  0.2614
  181MOL0     H23861   5.929   9.496   2.682 -0.2495  0.4154 -0.5592
  181MOL0     H23862   5.766   9.501   2.515 -0.0577 -0.2465  0.3380
  181MOL0     H23863   5.836   9.365   2.427  2.4601  1.0420 -1.3431
  181MOL0     H23864   5.990   9.636   2.471  1.4444  0.6714 -1.3762
  181MOL0     H23865   6.033   9.510   2.366  2.1383 -1.7564  5.4810
  181MOL0     H23866   5.762   9.651   2.355  0.4303  0.6676 -1.0994
  181MOL0     H23867   5.821   9.552   2.230  0.2681 -2.0961  0.5316
  181MOL0     H23868   5.980   9.805   2.316  2.9839 -0.7845 -0.1095
  181MOL0     H23869   5.870   9.789   2.175 -0.5451  0.4733  1.3045
  181MOL0     H23870   6.131   9.627   2.212  0.3799 -0.1752  1.4030
  181MOL0     H23871   6.024   9.636   2.068  0.0150 -0.0636 -0.1685
  181MOL0     H23872   6.187   9.853   2.175 -0.6806  0.2431  0.8167
  181MOL0     H23873   6.079   9.855   2.023 -4.1057 -2.0672  1.6136
  181MOL0     H23874   5.738   9.049   2.812  1.6431  0.2600  0.8383
  181MOL0     H23875   5.659   8.811   2.737  0.1651  0.7549  1.7825
  181MOL0     H23876   5.597   8.337   2.646 -1.2946  0.3577 -0.0492
  181MOL0     H23877   5.584   8.137   2.529 -1.2570  2.3045  4.1862
  181MOL0     H23878   5.272   7.772   2.364  1.0805  0.8955 -0.4644
  181MOL0     H23879   5.350   7.989   2.324  1.2612  1.4090 -2.5887
  181MOL0     H23880   5.366   8.326   1.990 -2.1804  0.1812 -0.5341
  181MOL0     H23881   5.498   8.512   1.932 -3.9073  0.8130 -0.2682
  181MOL0     H23882   5.665   8.833   2.232 -1.0626 -0.6467 -0.8944
  181MOL0     H23883   5.487   8.832   2.214  0.5856  0.2995  2.1093
  181MOL0     H23884   5.581   9.043   2.111  3.0917  0.3001  0.4663
  181MOL0     H23885   5.690   8.938   2.022 -2.0708 -0.3370 -4.2713
  181MOL0     H23886   5.392   8.892   1.985  0.5844  0.1862 -1.6411
  181MOL0     H23887   5.511   8.831   1.895 -0.7378 -0.3550 -0.1803
  181MOL0     H23888   5.574   9.056   1.795 -0.0903  0.3163 -0.9042
  181MOL0     H23889   5.394   9.041   1.797  0.2453  2.5909 -0.9388
  181MOL0     H23890   5.424   9.336   2.100 -0.9176  1.5306 -3.5270
  181MOL0     H23891   5.502   8.657   2.341 -0.8524 -1.9133  1.6469
  181MOL0     H23892   5.417   8.420   2.404  1.4375 -1.3386  0.1446
  182MOL0     O23893   4.241   7.001   5.968  0.2454  0.7572  0.3872
  182MOL0     C23894   4.196   6.977   6.084 -0.7617  0.4220  0.4081
  182MOL0     O23895   4.091   7.035   6.147  0.8640  0.2761  0.8430
  182MOL0     C23896   4.014   7.121   6.069  0.0479  0.3121 -0.2569
  182MOL0     C23897   3.879   7.103   6.060 -0.4359  0.2455 -0.3829
  182MOL0     C23898   3.795   7.184   5.985 -0.5150  0.2211 -0.8878
  182MOL0     C23899   3.842   7.290   5.916  1.3470 -0.3551 -0.0688
  182MOL0     O23900   3.750   7.369   5.857 -1.0666 -0.2660  0.2723
  182MOL0     C23901   3.795   7.419   5.730  0.0484 -1.0775  0.1121
  182MOL0     C23902   3.671   7.481   5.662  0.2868 -0.0203  0.2367
  182MOL0     C23903   3.705   7.561   5.532  0.4485  0.1999 -0.2332
  182MOL0     C23904   3.584   7.612   5.447  0.3511  0.3729  0.6945
  182MOL0     C23905   3.625   7.714   5.336  0.3728  0.9253  0.6927
  182MOL0     C23906   3.501   7.765   5.264  0.0344 -0.0570  0.1166
  182MOL0     C23907   3.533   7.854   5.143  0.0134 -0.5696  0.2333
  182MOL0     C23908   3.418   7.863   5.050  0.3188 -0.1398 -0.5907
  182MOL0     N23909   3.420   7.972   4.961 -0.9809 -0.8218 -0.1739
  182MOL0     C23910   3.352   8.088   4.966 -2.1416 -0.5671  0.0703
  182MOL0     C23911   3.381   8.150   4.848  0.6021 -0.6748  1.0604
  182MOL0     C23912   3.332   8.285   4.801  0.8093 -0.1446  0.0719
  182MOL0     C23913   3.211   8.280   4.709 -0.9420  0.7331 -0.5635
  182MOL0     C23914   3.258   8.228   4.568 -0.9688 -0.0446  0.1897
  182MOL0     C23915   3.317   8.355   4.498  1.1843  0.4254  0.9241
  182MOL0     O23916   3.208   8.446   4.457 -0.1392  0.4810 -0.9223
  182MOL0     C23917   3.196   8.478   4.321 -0.0240  0.4509 -0.8337
  182MOL0     C23918   3.070   8.536   4.295 -0.2057 -0.7454 -0.0704
  182MOL0     C23919   3.043   8.589   4.167 -0.0253  0.7619 -0.0022
  182MOL0     C23920   3.147   8.595   4.066 -0.3198  0.8878  0.4600
  182MOL0     C23921   3.124   8.647   3.928 -0.1658  0.7254  0.7122
  182MOL0     O23922   3.238   8.665   3.850  0.2040 -0.3586 -0.2758
  182MOL0     C23923   3.213   8.702   3.718  0.3720  0.2582  0.1033
  182MOL0     C23924   3.272   8.629   3.616 -0.4146  0.0405  0.4933
  182MOL0     C23925   3.247   8.657   3.484 -0.2958  0.0891 -0.0653
  182MOL0     C23926   3.178   8.766   3.448 -0.7870 -0.7889 -0.2722
  182MOL0     O23927   3.168   8.784   3.317  0.4820 -0.1026  0.1390
  182MOL0     C23928   3.119   8.904   3.255  0.1974 -0.6566 -0.3806
  182MOL0     C23929   3.102   8.865   3.106 -0.0312  0.1002 -0.0931
  182MOL0     C23930   2.963   8.817   3.082 -0.4153  1.2570 -0.1847
  182MOL0     C23931   2.954   8.727   2.954  0.5335 -0.1171 -0.1363
  182MOL0     C23932   2.809   8.665   2.931 -1.3029  0.3576 -0.2701
  182MOL0     C23933   2.701   8.768   2.897 -0.3587  0.7165  0.1912
  182MOL0     C23934   2.581   8.695   2.833  0.6733  0.4846 -0.8596
  182MOL0     C23935   2.588   8.700   2.681  0.4906  0.4715  0.0440
  182MOL0    Cl23936   2.529   8.856   2.630 -0.0634 -0.5180 -0.4769
  182MOL0     C23937   3.125   8.856   3.552  0.1132  0.5030  0.3234
  182MOL0     C23938   3.140   8.820   3.689  0.1904  0.2556  0.2338
  182MOL0     O23939   3.011   8.661   3.894 -0.1301 -0.0432  0.6798
  182MOL0     C23940   3.265   8.526   4.092 -0.3218 -1.4425  0.3398
  182MOL0     C23941   3.295   8.476   4.221  0.8361 -0.6442 -0.5119
  182MOL0     N23942   3.455   8.067   4.766  0.2957  0.1417 -0.3051
  182MOL0     N23943   3.486   7.966   4.837  0.9817 -0.4911 -0.6955
  182MOL0     C23944   3.977   7.314   5.925 -1.5285 -0.4885  0.6290
  182MOL0     C23945   4.067   7.236   5.993 -0.4378 -0.5162 -0.3134
  182MOL0     C23946   4.253   6.855   6.159  0.9673  0.2721  0.2475
  182MOL0     C23947   4.336   6.759   6.090 -0.2710  0.2938 -0.2636
  182MOL0     C23948   4.397   6.652   6.155  0.2678 -0.7156  0.7097
  182MOL0     C23949   4.380   6.632   6.292 -0.0618 -0.1982  0.1292
  182MOL0     O23950   4.409   6.512   6.358  0.0428  0.6230 -0.3223
  182MOL0     C23951   4.506   6.422   6.298  0.8186  0.5503  0.1033
  182MOL0     C23952   4.651   6.471   6.278 -1.2076 -0.1901  0.4686
  182MOL0     C23953   4.695   6.544   6.406 -0.1244  0.2394 -1.1963
  182MOL0     C23954   4.848   6.579   6.427  0.2338  0.8297  0.2313
  182MOL0     C23955   4.865   6.692   6.340  0.7232  0.3054 -0.5759
  182MOL0     C23956   4.849   6.788   6.272  0.5084 -0.4985  1.1670
  182MOL0     C23957   4.300   6.728   6.364 -1.0633 -0.1604  0.2635
  182MOL0     C23958   4.237   6.834   6.294 -0.4357  0.6614 -0.9065
  182MOL0     H23959   3.824   7.044   6.133 -1.1603  1.7114  0.2942
  182MOL0     H23960   3.689   7.165   5.989 -0.8836  1.7673  4.4882
  182MOL0     H23961   3.838   7.344   5.664 -1.1774 -0.3706 -1.5756
  182MOL0     H23962   3.859   7.506   5.751  0.6836 -1.4483 -0.2610
  182MOL0     H23963   3.612   7.546   5.727  1.0272 -1.3404  2.3519
  182MOL0     H23964   3.607   7.396   5.637  0.8927 -0.7982  1.2145
  182MOL0     H23965   3.766   7.500   5.464  4.0802 -0.0050  2.8568
  182MOL0     H23966   3.753   7.654   5.565 -0.1403  0.2209  0.5797
  182MOL0     H23967   3.531   7.528   5.399 -1.5197  2.5971 -1.4041
  182MOL0     H23968   3.524   7.657   5.527 -1.9269 -1.9589  0.4571
  182MOL0     H23969   3.696   7.672   5.263  1.4788  0.9128  1.7512
  182MOL0     H23970   3.675   7.801   5.378  1.3666 -0.6896  3.1070
  182MOL0     H23971   3.442   7.825   5.334 -1.5198  0.0108 -1.1925
  182MOL0     H23972   3.439   7.680   5.235  1.5898 -0.2412 -3.1261
  182MOL0     H23973   3.586   7.944   5.175 -0.7901 -0.2444  0.6682
  182MOL0     H23974   3.612   7.801   5.089 -1.1095 -0.2948 -1.7750
  182MOL0     H23975   3.322   7.881   5.099 -0.7310 -1.8260 -1.9043
  182MOL0     H23976   3.412   7.766   4.999  3.5847  0.2990 -2.0352
  182MOL0     H23977   3.282   8.127   5.039 -0.1524  0.1276  1.7041
  182MOL0     H23978   3.417   8.339   4.757  1.3814 -1.1286 -0.0599
  182MOL0     H23979   3.297   8.336   4.891  1.7448  0.9680 -0.1703
  182MOL0     H23980   3.181   8.386   4.708 -4.7158 -0.1525  0.7817
  182MOL0     H23981   3.133   8.218   4.755  0.6201 -0.3816  0.7048
  182MOL0     H23982   3.335   8.150   4.565  0.9577  1.8137 -0.4865
  182MOL0     H23983   3.173   8.187   4.512 -0.0364 -2.5682  0.4875
  182MOL0     H23984   3.368   8.336   4.403 -0.0892  1.7660 -0.0645
  182MOL0     H23985   3.394   8.399   4.562  1.0678  0.2273  1.2009
  182MOL0     H23986   3.004   8.542   4.382 -0.8214  1.2317 -0.6157
  182MOL0     H23987   2.949   8.638   4.145  1.1364  2.3156 -1.7606
  182MOL0     H23988   3.339   8.549   3.645 -2.2584 -1.9229 -0.3793
  182MOL0     H23989   3.284   8.594   3.404  1.2469  0.4517  0.3312
  182MOL0     H23990   3.198   8.980   3.259  0.2981 -0.5488 -2.7151
  182MOL0     H23991   3.028   8.935   3.306  1.4206 -3.0226  3.6567
  182MOL0     H23992   3.175   8.790   3.076  0.2995  0.8406 -1.2104
  182MOL0     H23993   3.118   8.957   3.050 -3.2192 -0.2834 -1.8855
  182MOL0     H23994   2.889   8.897   3.076 -0.1528  1.4502 -1.0808
  182MOL0     H23995   2.928   8.755   3.165 -2.7058  0.7694 -1.4377
  182MOL0     H23996   2.984   8.800   2.878  2.7337 -0.5397  0.2787
  182MOL0     H23997   3.026   8.648   2.935  0.9990 -0.0674  1.3034
  182MOL0     H23998   2.780   8.619   3.025 -1.7481  0.9890 -0.0891
  182MOL0     H23999   2.821   8.584   2.858 -3.5542  0.5732 -0.9877
  182MOL0     H24000   2.748   8.830   2.820  0.5529  0.5791  0.6202
  182MOL0     H24001   2.686   8.830   2.986 -0.1807 -0.2064  0.8829
  182MOL0     H24002   2.579   8.589   2.859 -0.0188  0.9027  0.9829
  182MOL0     H24003   2.490   8.727   2.883 -0.0361 -3.3312  0.6308
  182MOL0     H24004   2.530   8.620   2.635  0.2961 -0.8059  2.3661
  182MOL0     H24005   2.692   8.699   2.647  0.8231 -2.1266  0.9134
  182MOL0     H24006   3.068   8.947   3.538 -1.8913 -1.1716 -4.1204
  182MOL0     H24007   3.092   8.876   3.769 -1.0362  0.2139 -0.4451
  182MOL0     H24008   3.347   8.518   4.022 -0.6188  2.1460 -0.6359
  182MOL0     H24009   3.396   8.439   4.240  1.1219  0.6550  0.6673
  182MOL0     H24010   4.014   7.403   5.875 -2.1368 -1.3691 -1.5122
  182MOL0     H24011   4.171   7.265   5.984 -0.7373  0.3942 -0.9485
  182MOL0     H24012   4.356   6.758   5.984 -1.2150  0.4769 -0.4527
  182MOL0     H24013   4.461   6.577   6.110  0.7834  0.4098 -0.5095
  182MOL0     H24014   4.452   6.388   6.210  1.9342  0.5101 -0.5801
  182MOL0     H24015   4.518   6.337   6.366  0.7299 -0.3844 -1.0278
  182MOL0     H24016   4.715   6.384   6.262 -1.6095 -0.3403 -0.3834
  182MOL0     H24017   4.659   6.523   6.182  2.0945 -0.7474  0.3427
  182MOL0     H24018   4.669   6.481   6.491  4.5502  1.8199  1.7716
  182MOL0     H24019   4.633   6.634   6.418  0.2278  0.6240 -2.1835
  182MOL0     H24020   4.874   6.600   6.532 -1.1204  3.5215  0.1045
  182MOL0     H24021   4.893   6.483   6.399 -1.6944 -0.4279  1.2057
  182MOL0     H24022   4.855   6.886   6.229  1.5059  0.6654  3.7318
  182MOL0     H24023   4.296   6.717   6.472 -5.3620 -0.1414  0.2944
  182MOL0     H24024   4.185   6.905   6.359  1.6263  0.6297  0.9091
  183MOL0     O24025   1.740   6.654   8.577  1.0457 -0.6375 -0.1236
  183MOL0     C24026   1.695   6.760   8.544  0.0545  0.6215  0.3549
  183MOL0     O24027   1.678   6.810   8.420 -0.8481 -0.3245  0.3851
  183MOL0     C24028   1.752   6.762   8.319 -1.1812 -0.8178 -0.3849
  183MOL0     C24029   1.715   6.800   8.189  0.3444 -0.1285 -0.1801
  183MOL0     C24030   1.778   6.763   8.076 -0.5252 -0.4102 -0.0982
  183MOL0     C24031   1.905   6.695   8.088  1.1292 -0.4811 -0.2902
  183MOL0     O24032   1.973   6.637   7.990 -0.8434  0.7397  0.0107
  183MOL0     C24033   1.956   6.693   7.857 -0.2936 -1.1319 -0.6320
  183MOL0     C24034   2.063   6.651   7.761 -0.1409  0.4153 -0.2613
  183MOL0     C24035   2.200   6.645   7.831  0.4196  1.0565 -0.4615
  183MOL0     C24036   2.256   6.778   7.884 -0.3978 -0.0035  0.1689
  183MOL0     C24037   2.315   6.744   8.023  0.6896 -0.0497  0.9070
  183MOL0     C24038   2.438   6.650   8.008  0.1260 -0.2354  0.0078
  183MOL0     C24039   2.471   6.573   8.139 -0.1334  0.5337 -0.6442
  183MOL0     C24040   2.533   6.677   8.235 -0.6252  0.6496  0.2059
  183MOL0     N24041   2.556   6.609   8.366 -0.1386 -0.3517 -0.0179
  183MOL0     C24042   2.455   6.580   8.454 -0.5151  0.7729  0.8425
  183MOL0     C24043   2.504   6.513   8.562  0.4888 -0.3943 -0.0599
  183MOL0     C24044   2.437   6.487   8.694  0.4049  0.0469 -1.2368
  183MOL0     C24045   2.360   6.357   8.679 -0.0004  1.0205 -0.3476
  183MOL0     C24046   2.239   6.318   8.776  1.5085 -0.2252 -0.0927
  183MOL0     C24047   2.163   6.196   8.716 -0.3976 -0.2556 -0.7699
  183MOL0     O24048   2.257   6.086   8.716 -0.4848  0.3814 -0.1746
  183MOL0     C24049   2.203   5.966   8.687 -1.0474 -0.5896  0.3074
  183MOL0     C24050   2.166   5.929   8.556  0.0931  0.9735 -0.7930
  183MOL0     C24051   2.118   5.802   8.540  0.5765  0.3088 -0.1771
  183MOL0     C24052   2.108   5.703   8.650 -0.0318  0.6292  0.7211
  183MOL0     C24053   2.079   5.564   8.613 -0.1659 -0.7851 -0.2510
  183MOL0     O24054   2.127   5.513   8.502 -0.3945  0.1072  0.3542
  183MOL0     C24055   2.065   5.406   8.443  0.5684  0.8867 -0.7864
  183MOL0     C24056   1.986   5.423   8.330  0.2817  0.0778  0.3829
  183MOL0     C24057   1.910   5.320   8.277  0.0477  0.0954 -0.0322
  183MOL0     C24058   1.939   5.188   8.317 -0.0771  0.2870  0.2609
  183MOL0     O24059   1.879   5.098   8.240 -0.1342 -0.3267  0.3016
  183MOL0     C24060   1.893   4.961   8.283  0.4219  1.7875 -0.4473
  183MOL0     C24061   1.807   4.921   8.404 -0.7076 -0.4336  0.3636
  183MOL0     C24062   1.811   4.768   8.441 -0.8661  0.2739 -0.6147
  183MOL0     C24063   1.950   4.747   8.491  0.3958  0.0016  0.1745
  183MOL0     C24064   1.955   4.612   8.566  1.0725  0.0896  0.0471
  183MOL0     C24065   1.917   4.635   8.710  0.1183  0.9961  0.3801
  183MOL0     C24066   1.959   4.521   8.805  0.0738 -1.3810 -0.1166
  183MOL0     C24067   1.898   4.389   8.771 -0.1692 -0.1533 -0.0339
  183MOL0    Cl24068   1.955   4.243   8.864 -0.1728 -0.5101 -0.2533
  183MOL0     C24069   2.027   5.165   8.425 -1.7643  0.0661  0.0632
  183MOL0     C24070   2.078   5.274   8.498 -0.5842  0.5134  0.6296
  183MOL0     O24071   1.995   5.506   8.682 -0.3178  0.3881  0.2178
  183MOL0     C24072   2.131   5.757   8.779 -1.0713  0.1231  0.4009
  183MOL0     C24073   2.174   5.887   8.794 -0.2974 -0.1317 -0.2644
  183MOL0     N24074   2.640   6.510   8.542 -0.1239  0.3378  0.9523
  183MOL0     N24075   2.669   6.564   8.426  0.8273 -0.0507 -0.4906
  183MOL0     C24076   1.956   6.664   8.216  0.3239 -1.7400 -0.6378
  183MOL0     C24077   1.882   6.706   8.329  0.3251 -0.0184  0.2503
  183MOL0     C24078   1.637   6.851   8.655  0.4058  0.1898 -0.0559
  183MOL0     C24079   1.547   6.949   8.629  0.4011 -0.0467  0.6003
  183MOL0     C24080   1.497   7.025   8.732 -0.6488  0.8810  0.5108
  183MOL0     C24081   1.528   6.995   8.866 -1.3107  0.6456 -1.2222
  183MOL0     O24082   1.475   7.054   8.979 -0.1481  0.4906 -0.5611
  183MOL0     C24083   1.341   7.107   8.959 -0.3750  0.2175  0.8638
  183MOL0     C24084   1.300   7.189   9.076 -0.3125  0.4718 -0.6956
  183MOL0     C24085   1.405   7.292   9.106  0.2333  0.5798 -0.5571
  183MOL0     C24086   1.447   7.377   8.997 -0.3037 -1.0300 -0.0001
  183MOL0     C24087   1.352   7.493   8.991  0.0323 -0.4784  0.7174
  183MOL0     C24088   1.276   7.584   8.962 -0.2632  0.4450  0.6164
  183MOL0     C24089   1.621   6.897   8.902 -0.7258  0.1092 -0.3268
  183MOL0     C24090   1.676   6.827   8.794 -0.9515  0.5060  0.3454
  183MOL0     H24091   1.618   6.848   8.181  0.7799  0.6166 -0.9889
  183MOL0     H24092   1.743   6.790   7.977 -0.7064 -0.5079 -0.0630
  183MOL0     H24093   1.947   6.802   7.869 -2.3638 -1.3970  0.8735
  183MOL0     H24094   1.860   6.662   7.814  0.0930  0.3959 -2.7300
  183MOL0     H24095   2.060   6.718   7.675 -2.1713  1.5825  0.6574
  183MOL0     H24096   2.030   6.552   7.727 -1.6596 -0.3171  2.9190
  183MOL0     H24097   2.275   6.614   7.758  0.5546 -2.3356  0.9200
  183MOL0     H24098   2.199   6.571   7.911  2.1733 -0.2137 -1.5461
  183MOL0     H24099   2.333   6.817   7.817 -0.4776 -0.8815 -0.4463
  183MOL0     H24100   2.179   6.855   7.893 -1.2622 -1.0472  2.3956
  183MOL0     H24101   2.229   6.697   8.071  1.2136 -0.6725  1.2612
  183MOL0     H24102   2.344   6.832   8.081 -0.7569  0.5862  0.6943
  183MOL0     H24103   2.517   6.722   7.987 -1.9424  0.9643 -5.2220
  183MOL0     H24104   2.425   6.581   7.924 -2.7075  0.6531 -0.3922
  183MOL0     H24105   2.382   6.523   8.177  0.6633  1.3597  2.6203
  183MOL0     H24106   2.538   6.489   8.118  1.5047 -0.1885  5.4869
  183MOL0     H24107   2.465   6.760   8.258 -0.0347  0.3205  3.7790
  183MOL0     H24108   2.632   6.716   8.209  0.0089 -0.4340  0.9352
  183MOL0     H24109   2.348   6.601   8.455 -0.8981 -0.2247  5.9831
  183MOL0     H24110   2.366   6.569   8.699  0.4618  0.0710 -0.7926
  183MOL0     H24111   2.513   6.485   8.773 -1.8355 -1.8230  1.0522
  183MOL0     H24112   2.438   6.280   8.684 -4.3633 -4.0236 -1.0533
  183MOL0     H24113   2.319   6.350   8.578  0.5614 -0.6254 -0.4934
  183MOL0     H24114   2.264   6.297   8.881 -2.3381 -0.0960  1.0060
  183MOL0     H24115   2.165   6.397   8.766 -1.6043 -2.4621  2.8233
  183MOL0     H24116   2.119   6.217   8.618  1.0365 -0.6438 -1.5164
  183MOL0     H24117   2.079   6.180   8.785  0.1295  1.2945  0.2867
  183MOL0     H24118   2.186   5.992   8.469  3.2202  1.1513 -0.0737
  183MOL0     H24119   2.100   5.769   8.437  1.9474 -0.5724 -0.1604
  183MOL0     H24120   1.977   5.520   8.283 -1.4887 -1.9185 -3.9084
  183MOL0     H24121   1.844   5.340   8.194 -2.5656 -2.7252  1.1933
  183MOL0     H24122   1.998   4.934   8.296 -0.4749 -1.6967  0.5441
  183MOL0     H24123   1.866   4.887   8.206  4.0897 -2.1920  1.6754
  183MOL0     H24124   1.704   4.931   8.370 -0.8170 -2.2427  0.0255
  183MOL0     H24125   1.815   4.983   8.494 -3.6493  0.8036 -0.1247
  183MOL0     H24126   1.788   4.698   8.360 -0.6810 -0.1998 -0.2629
  183MOL0     H24127   1.745   4.759   8.527  0.8091  0.9658  0.7984
  183MOL0     H24128   2.005   4.748   8.396  0.6441 -0.4109  0.3153
  183MOL0     H24129   1.991   4.829   8.549  0.5122  1.2783 -1.6200
  183MOL0     H24130   2.055   4.571   8.555  0.0043 -2.2001 -2.3136
  183MOL0     H24131   1.885   4.539   8.524 -0.0844 -1.6075  4.3574
  183MOL0     H24132   1.808   4.621   8.711  0.1899  0.1198 -1.0620
  183MOL0     H24133   1.935   4.737   8.745 -0.9003  1.6920 -1.0310
  183MOL0     H24134   2.068   4.515   8.817  0.5744  3.0335 -0.6443
  183MOL0     H24135   1.917   4.542   8.904 -0.9241  0.7348 -0.9174
  183MOL0     H24136   1.908   4.364   8.665  1.9780 -0.8565  0.2863
  183MOL0     H24137   1.791   4.405   8.790 -0.2124 -1.4457  1.0356
  183MOL0     H24138   2.048   5.063   8.455  3.3076  1.0405  0.6223
  183MOL0     H24139   2.142   5.265   8.585  4.8943  3.1235 -2.6352
  183MOL0     H24140   2.104   5.702   8.869 -1.1755  1.1544  1.0188
  183MOL0     H24141   2.190   5.931   8.892 -3.5806 -1.1972  0.8872
  183MOL0     H24142   2.050   6.610   8.223  1.3038 -0.1030 -0.5790
  183MOL0     H24143   1.921   6.679   8.426  0.0103 -2.0640 -0.1509
  183MOL0     H24144   1.509   6.956   8.528  0.6423  0.8419  0.5578
  183MOL0     H24145   1.422   7.100   8.709  0.9579  1.7819 -2.1296
  183MOL0     H24146   1.274   7.020   8.958 -0.5706  0.3715 -0.4650
  183MOL0     H24147   1.333   7.177   8.876  1.7550 -0.0604  0.3777
  183MOL0     H24148   1.202   7.235   9.061 -1.8348 -3.0700 -2.8412
  183MOL0     H24149   1.302   7.111   9.153  1.3927 -0.7989 -1.9535
  183MOL0     H24150   1.485   7.249   9.166 -2.5226 -1.8358  1.6909
  183MOL0     H24151   1.363   7.359   9.182 -0.7904  0.6630 -1.1768
  183MOL0     H24152   1.548   7.413   9.019 -0.2639 -1.9120  1.4434
  183MOL0     H24153   1.461   7.337   8.897 -0.8251  1.9864 -1.4004
  183MOL0     H24154   1.190   7.640   8.932  1.1551  1.9247 -0.8497
  183MOL0     H24155   1.642   6.872   9.005 -1.0244 -2.9986 -0.9028
  183MOL0     H24156   1.756   6.754   8.803 -0.5580  0.1265 -4.2192
  184MOL0     O24157   4.120   6.894   6.577  0.1290 -0.3541 -0.4154
  184MOL0     C24158   4.178   6.997   6.627  0.2164  0.7278  0.5950
  184MOL0     O24159   4.111   7.113   6.666 -0.1916 -0.1963 -1.0249
  184MOL0     C24160   3.989   7.135   6.604 -1.1980  1.3504  0.1706
  184MOL0     C24161   3.874   7.092   6.665  0.2081  0.0010 -0.3979
  184MOL0     C24162   3.752   7.107   6.607  0.0989  0.4045 -1.7977
  184MOL0     C24163   3.736   7.158   6.479  1.3097 -0.5297 -0.7504
  184MOL0     O24164   3.602   7.168   6.429  0.0335 -0.2231  0.5118
  184MOL0     C24165   3.577   7.246   6.304 -0.7482  0.0997  0.0016
  184MOL0     C24166   3.443   7.224   6.247  0.3509  0.5424  0.6975
  184MOL0     C24167   3.401   7.316   6.139 -0.1589 -0.2166 -0.2385
  184MOL0     C24168   3.301   7.264   6.032  0.0673  0.1844 -0.2894
  184MOL0     C24169   3.164   7.228   6.085  0.5531  0.3623  0.2888
  184MOL0     C24170   3.046   7.269   5.997 -0.1929  0.6026 -0.4639
  184MOL0     C24171   2.902   7.227   6.051 -0.1297  0.1976 -0.5278
  184MOL0     C24172   2.786   7.235   5.939 -1.0105  0.6508  0.4201
  184MOL0     N24173   2.798   7.359   5.862  0.4923 -1.1926 -0.2346
  184MOL0     C24174   2.762   7.484   5.918 -0.2895 -0.6917  0.3713
  184MOL0     C24175   2.777   7.569   5.810  1.0271 -0.0894 -0.7592
  184MOL0     C24176   2.756   7.718   5.831  0.5972 -0.5969 -0.8072
  184MOL0     C24177   2.605   7.755   5.789 -0.3009  0.5245 -0.6983
  184MOL0     C24178   2.569   7.690   5.643 -0.2170 -0.1742 -0.6526
  184MOL0     C24179   2.677   7.732   5.544 -1.1053 -0.6834  1.1778
  184MOL0     O24180   2.632   7.852   5.487  0.1402 -0.6025 -0.2444
  184MOL0     C24181   2.728   7.930   5.438 -0.6258  0.2231  1.1312
  184MOL0     C24182   2.695   8.066   5.418 -0.2757  0.2039 -0.0052
  184MOL0     C24183   2.784   8.158   5.364 -0.9963 -0.1887 -0.4606
  184MOL0     C24184   2.905   8.114   5.308 -0.3548 -0.8754 -1.2282
  184MOL0     C24185   2.994   8.208   5.240 -0.0054 -0.1254 -0.6366
  184MOL0     O24186   2.971   8.337   5.251 -0.5688 -0.3458  0.0254
  184MOL0     C24187   3.032   8.419   5.159  0.8349  0.8952  0.4485
  184MOL0     C24188   3.007   8.402   5.025  0.0953  0.1277  0.5705
  184MOL0     C24189   3.063   8.495   4.930  0.1368  0.5383  0.1679
  184MOL0     C24190   3.160   8.590   4.975 -0.1433 -1.1886 -0.2572
  184MOL0     O24191   3.228   8.687   4.891  0.9128 -0.8023 -0.1524
  184MOL0     C24192   3.151   8.725   4.773  0.1573  0.0368 -0.5551
  184MOL0     C24193   3.231   8.821   4.687  0.2143 -0.2569  1.1797
  184MOL0     C24194   3.149   8.872   4.562  0.6176  0.3917  0.4440
  184MOL0     C24195   3.221   8.925   4.449 -0.5104  0.2439  0.4862
  184MOL0     C24196   3.136   9.012   4.355 -0.2328  1.0629 -0.5575
  184MOL0     C24197   3.061   9.129   4.424 -1.4140 -0.3612 -0.6107
  184MOL0     C24198   3.161   9.201   4.517 -0.5201 -0.7553 -0.5741
  184MOL0     C24199   3.094   9.321   4.577 -0.0229  0.2249  0.8035
  184MOL0    Cl24200   3.111   9.439   4.446 -0.3848 -0.5005  0.2604
  184MOL0     C24201   3.189   8.598   5.113  0.8938 -0.1216  0.4800
  184MOL0     C24202   3.124   8.516   5.198  0.0022 -0.9624 -0.8663
  184MOL0     O24203   3.092   8.162   5.186  0.7376  0.0657  0.2644
  184MOL0     C24204   2.943   7.982   5.330  0.0912  0.3484  0.3189
  184MOL0     C24205   2.860   7.893   5.388  0.7676  0.0278 -0.5773
  184MOL0     N24206   2.830   7.499   5.702  0.8399  0.4230 -0.3952
  184MOL0     N24207   2.847   7.379   5.738 -0.9533 -0.7724 -0.2474
  184MOL0     C24208   3.850   7.204   6.421  0.1619 -0.3382  0.8253
  184MOL0     C24209   3.982   7.184   6.477  0.3027 -0.4675 -0.6899
  184MOL0     C24210   4.321   6.982   6.642 -0.4518  0.4695 -0.3249
  184MOL0     C24211   4.388   6.858   6.657  0.8488  0.6296 -1.0181
  184MOL0     C24212   4.533   6.857   6.676 -0.4167  0.4509  0.5959
  184MOL0     C24213   4.613   6.978   6.667  0.8139 -0.6123 -0.2006
  184MOL0     O24214   4.745   6.958   6.685 -0.0576  1.3156 -0.2420
  184MOL0     C24215   4.830   7.007   6.591  0.4600  0.1857  0.3174
  184MOL0     C24216   4.972   7.015   6.643 -0.4900  1.3731  0.4136
  184MOL0     C24217   5.070   7.085   6.545  0.1034  0.4955  0.7828
  184MOL0     C24218   5.065   7.010   6.408  0.6973  0.4747 -0.8403
  184MOL0     C24219   5.188   7.033   6.335  0.8005  0.6300  0.3103
  184MOL0     C24220   5.294   7.048   6.276 -0.2853  0.2315  0.3778
  184MOL0     C24221   4.549   7.101   6.646  1.4508  0.2130 -0.1766
  184MOL0     C24222   4.411   7.094   6.631 -0.3954  0.0863  0.4310
  184MOL0     H24223   3.870   7.047   6.764 -2.9880  0.8626 -0.0474
  184MOL0     H24224   3.657   7.073   6.647 -0.5244  1.2132 -2.5264
  184MOL0     H24225   3.654   7.216   6.232  0.3993  0.4277  1.0582
  184MOL0     H24226   3.587   7.353   6.324 -1.5955  0.7605 -2.5875
  184MOL0     H24227   3.364   7.228   6.323 -1.6247  2.3017 -1.3231
  184MOL0     H24228   3.435   7.127   6.197 -3.8951  1.9027 -1.7887
  184MOL0     H24229   3.492   7.348   6.087 -1.2167  2.7436 -0.4548
  184MOL0     H24230   3.356   7.410   6.173 -0.3280  0.7071 -2.7819
  184MOL0     H24231   3.282   7.333   5.949 -1.5362  0.3362  0.1777
  184MOL0     H24232   3.351   7.183   5.977  2.2058  1.2666 -0.0330
  184MOL0     H24233   3.155   7.281   6.180  1.5894  1.4758 -0.1960
  184MOL0     H24234   3.165   7.121   6.103  0.8593  0.2010 -0.6083
  184MOL0     H24235   3.049   7.217   5.901 -1.2048 -0.9943  0.3138
  184MOL0     H24236   3.055   7.376   5.976 -2.8691  0.5640 -2.5438
  184MOL0     H24237   2.904   7.133   6.107 -1.5368 -0.7371 -1.9581
  184MOL0     H24238   2.893   7.302   6.129  1.8732 -1.9000  1.9107
  184MOL0     H24239   2.687   7.217   5.982 -2.6427  2.9242 -2.0690
  184MOL0     H24240   2.802   7.148   5.875 -3.1906 -0.8453  1.7650
  184MOL0     H24241   2.739   7.505   6.022 -2.9916 -1.5885  0.0448
  184MOL0     H24242   2.821   7.783   5.770  0.8839 -1.4931 -1.4733
  184MOL0     H24243   2.784   7.751   5.932 -0.6085  3.7866 -1.7116
  184MOL0     H24244   2.586   7.863   5.788  0.8514  0.7361 -0.2493
  184MOL0     H24245   2.531   7.715   5.859  1.6639  1.0916  1.8267
  184MOL0     H24246   2.564   7.582   5.655  3.8714 -0.4216  0.3381
  184MOL0     H24247   2.470   7.727   5.615  0.5464  1.4814 -1.3206
  184MOL0     H24248   2.675   7.650   5.471 -0.7038 -0.6920  1.1740
  184MOL0     H24249   2.783   7.744   5.571  0.1193 -2.5361 -2.1796
  184MOL0     H24250   2.605   8.109   5.460  0.6212  2.7352 -0.5145
  184MOL0     H24251   2.755   8.262   5.373  3.7806  1.2555  1.6905
  184MOL0     H24252   2.930   8.334   4.992  0.3634 -0.3871  0.9973
  184MOL0     H24253   3.035   8.483   4.825  1.8907  1.2621 -0.4319
  184MOL0     H24254   3.048   8.757   4.790  0.4007  0.7502 -0.3742
  184MOL0     H24255   3.132   8.630   4.722  0.2169 -1.1078  1.4822
  184MOL0     H24256   3.318   8.774   4.642  0.0713 -0.4466  1.0974
  184MOL0     H24257   3.246   8.905   4.755 -2.0762  1.1519  0.1015
  184MOL0     H24258   3.063   8.933   4.592 -0.5932  0.1453 -2.2877
  184MOL0     H24259   3.093   8.781   4.535  0.8343  0.4316 -0.1451
  184MOL0     H24260   3.307   8.986   4.480  1.4923 -1.5846 -1.0908
  184MOL0     H24261   3.257   8.835   4.398 -0.1831 -1.0237  2.8061
  184MOL0     H24262   3.058   8.945   4.319  0.6452 -1.1494  1.4016
  184MOL0     H24263   3.197   9.047   4.271  1.1599  0.6044  0.2334
  184MOL0     H24264   2.981   9.073   4.473 -0.5564 -3.2807 -2.3559
  184MOL0     H24265   3.024   9.200   4.349  0.5916 -0.6695 -1.9595
  184MOL0     H24266   3.170   9.131   4.600  0.9383 -1.2187 -1.1022
  184MOL0     H24267   3.248   9.223   4.454  1.2084 -3.4552  0.7081
  184MOL0     H24268   3.124   9.356   4.676 -3.8444  2.5248  1.3623
  184MOL0     H24269   2.986   9.316   4.588 -0.4645  1.7227 -1.8250
  184MOL0     H24270   3.249   8.682   5.148  2.6941 -1.4164  0.6479
  184MOL0     H24271   3.141   8.539   5.303 -4.8437  0.0226 -0.0164
  184MOL0     H24272   3.023   7.935   5.275  0.2709 -0.9653  1.6510
  184MOL0     H24273   2.906   7.796   5.378  2.0049  0.7807 -2.8551
  184MOL0     H24274   3.844   7.253   6.325  1.3958 -0.5160  0.6357
  184MOL0     H24275   4.074   7.209   6.425  1.9940 -1.1736  1.7982
  184MOL0     H24276   4.325   6.771   6.672  0.6543  0.8073 -0.7956
  184MOL0     H24277   4.586   6.763   6.685 -2.6005 -0.9752 -0.6510
  184MOL0     H24278   4.786   7.103   6.563  0.3666  0.2473  0.6674
  184MOL0     H24279   4.828   6.936   6.508 -1.4406 -1.8776  2.0109
  184MOL0     H24280   4.961   7.070   6.737  0.9128  1.8447  0.3300
  184MOL0     H24281   5.018   6.917   6.657  1.2322  1.9036 -1.0329
  184MOL0     H24282   5.172   7.055   6.571 -0.0930 -2.0131 -0.9833
  184MOL0     H24283   5.042   7.191   6.537 -2.7232 -0.3032 -4.0878
  184MOL0     H24284   5.042   6.903   6.418  2.2485 -0.2613 -3.8765
  184MOL0     H24285   4.994   7.066   6.347  0.8616  2.4555  0.6809
  184MOL0     H24286   5.389   7.057   6.228  1.1922 -1.6188  2.7313
  184MOL0     H24287   4.608   7.190   6.632  0.2802  0.6565 -2.9974
  184MOL0     H24288   4.341   7.174   6.608 -0.7365  0.2134  1.7865
  185MOL0     O24289   3.585   3.929  11.255 -0.0947  0.1254 -0.2320
  185MOL0     C24290   3.695   3.974  11.279 -0.1680 -0.8850  0.3228
  185MOL0     O24291   3.745   4.086  11.224  0.0751  0.0812  0.5806
  185MOL0     C24292   3.674   4.157  11.129 -0.3291 -0.2022 -1.0767
  185MOL0     C24293   3.588   4.109  11.027 -0.3630  0.3959 -0.4860
  185MOL0     C24294   3.538   4.191  10.930 -0.2776  0.3604  0.4867
  185MOL0     C24295   3.554   4.333  10.932  0.5284 -0.1304 -0.2831
  185MOL0     O24296   3.489   4.410  10.843 -0.4962  0.2308 -0.3030
  185MOL0     C24297   3.566   4.503  10.765  0.2367  0.4940  0.2101
  185MOL0     C24298   3.538   4.495  10.612 -0.3298  0.9302  0.2571
  185MOL0     C24299   3.606   4.368  10.554  0.4968  0.0770 -0.0922
  185MOL0     C24300   3.759   4.382  10.543 -0.1134 -0.3015  0.6997
  185MOL0     C24301   3.817   4.252  10.480 -0.4277  0.3498  1.2696
  185MOL0     C24302   3.966   4.288  10.454 -0.1211  0.1943  0.3458
  185MOL0     C24303   4.048   4.154  10.439  0.4430 -0.7575 -0.1508
  185MOL0     C24304   4.014   4.092  10.310 -0.5709 -0.7298  1.2835
  185MOL0     N24305   4.130   4.022  10.262 -0.1591  0.2317 -0.3082
  185MOL0     C24306   4.152   3.888  10.288 -0.9338 -0.2309 -0.5342
  185MOL0     C24307   4.228   3.851  10.178  0.6684  0.1697 -0.3153
  185MOL0     C24308   4.268   3.706  10.156  0.4046  0.3946  0.8258
  185MOL0     C24309   4.137   3.636  10.126 -0.1489 -0.3569 -0.4880
  185MOL0     C24310   4.165   3.505  10.053 -0.6460  0.8745  0.7467
  185MOL0     C24311   4.034   3.451   9.993  1.2187  0.8886 -0.4428
  185MOL0     O24312   4.064   3.337   9.911 -0.1940  0.3753 -1.0182
  185MOL0     C24313   4.076   3.343   9.772 -0.3374  0.1096 -0.4024
  185MOL0     C24314   4.117   3.218   9.724  0.3038 -0.6367  0.5488
  185MOL0     C24315   4.122   3.209   9.588  0.0290  0.4749 -0.1576
  185MOL0     C24316   4.088   3.321   9.497 -1.2908  1.6860 -0.1984
  185MOL0     C24317   4.079   3.292   9.350  0.1542 -1.1226  0.2093
  185MOL0     O24318   4.159   3.184   9.307 -0.1324  0.1681 -0.2364
  185MOL0     C24319   4.126   3.142   9.183 -0.1956  0.3874  0.1284
  185MOL0     C24320   4.168   3.207   9.069  0.3925  0.8628 -0.1185
  185MOL0     C24321   4.149   3.155   8.943  0.1257  0.7874 -0.2650
  185MOL0     C24322   4.070   3.043   8.924  0.1686  0.3110 -0.6738
  185MOL0     O24323   4.051   2.997   8.802  0.2582 -0.2276  0.2284
  185MOL0     C24324   4.044   2.853   8.792  0.1688  0.6206  0.3117
  185MOL0     C24325   4.033   2.807   8.642 -0.3433 -0.4067 -1.1780
  185MOL0     C24326   4.056   2.658   8.651  0.3847  0.0354  0.1869
  185MOL0     C24327   4.199   2.623   8.693  0.0034  0.9696  0.0008
  185MOL0     C24328   4.273   2.507   8.616 -0.2339 -0.0936  0.4589
  185MOL0     C24329   4.396   2.464   8.691 -0.3377 -0.4254 -0.4044
  185MOL0     C24330   4.483   2.363   8.610  0.5731 -0.7437  0.6271
  185MOL0     C24331   4.425   2.217   8.628  0.1241 -0.4189  0.7221
  185MOL0    Cl24332   4.404   2.144   8.470 -0.4457 -0.7178  0.2280
  185MOL0     C24333   4.020   2.980   9.044  0.0447 -0.1968  0.7604
  185MOL0     C24334   4.054   3.018   9.176 -0.5643 -0.5512 -0.4239
  185MOL0     O24335   4.013   3.381   9.284  0.1253  0.6626  0.0633
  185MOL0     C24336   4.061   3.442   9.553 -0.3832 -0.1546 -0.2463
  185MOL0     C24337   4.045   3.450   9.686 -0.4426  0.1947  0.6451
  185MOL0     N24338   4.251   3.959  10.101  0.1563 -0.4789 -0.1780
  185MOL0     N24339   4.201   4.064  10.155 -0.3607  0.3224  0.0580
  185MOL0     C24340   3.634   4.388  11.035 -0.4555 -0.1418  0.0118
  185MOL0     C24341   3.693   4.298  11.129  0.1319 -0.7315 -0.4387
  185MOL0     C24342   3.765   3.915  11.395 -0.4437  0.8213 -0.0498
  185MOL0     C24343   3.889   3.971  11.423  0.8432 -0.0585 -0.2369
  185MOL0     C24344   3.981   3.918  11.516  0.6676  0.4957 -0.2434
  185MOL0     C24345   3.960   3.794  11.578 -0.4002  0.6563  0.0251
  185MOL0     O24346   4.051   3.741  11.667  0.3625  0.8458  0.0749
  185MOL0     C24347   4.092   3.606  11.637  0.8900  0.3539  0.2037
  185MOL0     C24348   4.221   3.583  11.723 -0.0860 -0.4201  0.2285
  185MOL0     C24349   4.335   3.685  11.686 -0.2890 -0.2400 -0.6075
  185MOL0     C24350   4.375   3.702  11.540  0.2205 -0.7804  0.1699
  185MOL0     C24351   4.484   3.807  11.544  1.5395 -0.5945  1.0042
  185MOL0     C24352   4.563   3.906  11.559 -0.0137  0.7025  0.4350
  185MOL0     C24353   3.833   3.738  11.559 -0.1166  0.2047  0.6203
  185MOL0     C24354   3.737   3.791  11.469  0.2634 -0.7120  0.0684
  185MOL0     H24355   3.579   4.001  11.022 -2.3359  0.5602 -1.4460
  185MOL0     H24356   3.476   4.142  10.855  0.1194 -2.9297  2.1129
  185MOL0     H24357   3.673   4.489  10.781 -0.2631 -1.6887  2.3266
  185MOL0     H24358   3.547   4.603  10.805  1.6555  1.2372 -0.8942
  185MOL0     H24359   3.558   4.585  10.553 -0.6843  1.3913  0.8342
  185MOL0     H24360   3.431   4.479  10.594 -0.0811  0.0445 -0.5318
  185MOL0     H24361   3.563   4.351  10.455 -3.2974 -1.7034  1.6574
  185MOL0     H24362   3.581   4.272  10.600 -2.0788 -1.1437 -3.6049
  185MOL0     H24363   3.790   4.453  10.466 -0.4605 -1.8283 -0.8989
  185MOL0     H24364   3.800   4.408  10.641 -0.6814 -0.6485  1.0340
  185MOL0     H24365   3.770   4.223  10.385 -2.1160 -2.1268  2.7421
  185MOL0     H24366   3.808   4.170  10.552  4.7645  0.1666  2.0723
  185MOL0     H24367   4.004   4.327  10.549  1.4064  1.1773 -0.6328
  185MOL0     H24368   3.991   4.345  10.365  4.1246 -0.4687  0.8670
  185MOL0     H24369   4.150   4.190  10.455 -0.6466  2.7343 -0.3322
  185MOL0     H24370   4.038   4.083  10.522 -0.2774 -0.3230  0.1544
  185MOL0     H24371   3.984   4.172  10.241  0.6544  0.8078  2.4803
  185MOL0     H24372   3.929   4.022  10.314  0.3628 -2.3674 -2.7051
  185MOL0     H24373   4.111   3.831  10.370 -0.3673  0.3901  0.1988
  185MOL0     H24374   4.330   3.643  10.220 -0.3913  0.6523  1.8849
  185MOL0     H24375   4.321   3.704  10.060  0.3950  0.2367  0.8245
  185MOL0     H24376   4.068   3.692  10.062  2.1243  3.2019 -0.0980
  185MOL0     H24377   4.101   3.607  10.225  1.2234  0.0487  0.1563
  185MOL0     H24378   4.230   3.520   9.967  0.2608 -2.9984  0.5598
  185MOL0     H24379   4.215   3.433  10.119  1.7267  1.8288  0.0973
  185MOL0     H24380   3.994   3.527   9.926 -1.5158 -2.6613 -3.2787
  185MOL0     H24381   3.946   3.430  10.055  0.2891  3.1263 -0.9339
  185MOL0     H24382   4.131   3.133   9.790 -1.7871 -1.4365  0.0420
  185MOL0     H24383   4.150   3.110   9.554  1.8946  1.0435 -0.4317
  185MOL0     H24384   4.207   3.303   9.099 -2.4051  1.4214  2.2575
  185MOL0     H24385   4.179   3.208   8.853 -0.9768 -1.4664 -2.0593
  185MOL0     H24386   3.951   2.816   8.836 -1.4239  2.8812 -0.9413
  185MOL0     H24387   4.133   2.809   8.840 -0.9091 -1.5744  0.4227
  185MOL0     H24388   4.115   2.867   8.601 -1.7606  3.0889  0.6557
  185MOL0     H24389   3.934   2.832   8.604 -0.6332  0.2837 -0.0095
  185MOL0     H24390   4.038   2.620   8.550  0.3833  0.0212  0.1924
  185MOL0     H24391   3.984   2.616   8.721 -0.5015  0.2622 -0.5562
  185MOL0     H24392   4.258   2.715   8.699  0.1279  0.8832  0.1122
  185MOL0     H24393   4.182   2.597   8.798  1.2423  2.2759  0.5532
  185MOL0     H24394   4.303   2.544   8.517 -0.4481  2.0657  1.1339
  185MOL0     H24395   4.209   2.419   8.608 -0.0921 -0.1587  0.0412
  185MOL0     H24396   4.382   2.423   8.791  1.9108  0.6434  0.4276
  185MOL0     H24397   4.457   2.554   8.704  0.1643 -0.6201 -1.3028
  185MOL0     H24398   4.463   2.395   8.507 -0.5292 -0.4610  0.9153
  185MOL0     H24399   4.589   2.379   8.631  0.7655 -0.1718 -0.6698
  185MOL0     H24400   4.321   2.228   8.659 -0.4061  2.0463 -1.5964
  185MOL0     H24401   4.485   2.156   8.697  0.7044  0.7052  1.2430
  185MOL0     H24402   3.954   2.895   9.029 -0.8743  0.8551 -1.8564
  185MOL0     H24403   4.024   2.964   9.266 -1.7868  1.3114  0.3331
  185MOL0     H24404   4.042   3.528   9.490  2.6264  1.7260  1.2026
  185MOL0     H24405   4.009   3.547   9.719  1.9109 -0.0688  4.6079
  185MOL0     H24406   3.663   4.492  11.043  0.9333 -0.4299 -0.9214
  185MOL0     H24407   3.760   4.330  11.209  3.2804 -2.9081 -2.0095
  185MOL0     H24408   3.919   4.065  11.378  3.5410 -0.3007  0.8511
  185MOL0     H24409   4.072   3.972  11.539  2.0326 -0.9973 -1.8235
  185MOL0     H24410   4.103   3.606  11.528 -1.7066  1.4098 -0.1396
  185MOL0     H24411   4.008   3.550  11.679  0.1102  2.4589  1.6448
  185MOL0     H24412   4.196   3.600  11.828  1.5284 -0.2003  0.6064
  185MOL0     H24413   4.254   3.478  11.727  0.8546 -0.0907  2.2069
  185MOL0     H24414   4.424   3.665  11.747  0.2469  3.0142 -0.1667
  185MOL0     H24415   4.304   3.780  11.730 -0.9274  0.0935 -1.7270
  185MOL0     H24416   4.386   3.604  11.493 -4.4042 -0.6618 -1.7195
  185MOL0     H24417   4.290   3.757  11.497 -0.1705  2.6979  4.6321
  185MOL0     H24418   4.617   3.998  11.570  1.6667  0.3127 -3.1258
  185MOL0     H24419   3.796   3.650  11.610 -0.9952 -0.3179 -0.8687
  185MOL0     H24420   3.635   3.762  11.446  0.0666 -1.6324  1.9436
  186MOL0     O24421   1.795   5.971   6.750  0.8916  1.5860 -1.0821
  186MOL0     C24422   1.719   5.877   6.787  0.7921 -1.1689  0.6210
  186MOL0     O24423   1.639   5.881   6.900 -0.1230 -0.8236 -0.2738
  186MOL0     C24424   1.599   5.989   6.963 -0.2873 -0.0723  0.0887
  186MOL0     C24425   1.591   5.993   7.104  0.0752 -0.4327 -0.1447
  186MOL0     C24426   1.560   6.113   7.170  0.3088  0.6905  0.4310
  186MOL0     C24427   1.534   6.222   7.093  0.2628 -0.3842 -0.4475
  186MOL0     O24428   1.513   6.348   7.153 -0.8311  0.5273 -0.0500
  186MOL0     C24429   1.369   6.391   7.150 -0.2183 -0.1538 -1.3279
  186MOL0     C24430   1.301   6.420   7.292 -0.2729 -0.3633  0.2469
  186MOL0     C24431   1.171   6.497   7.273 -1.2356  0.5666  1.1075
  186MOL0     C24432   1.075   6.419   7.181  0.0467 -0.7509  0.1887
  186MOL0     C24433   0.945   6.487   7.177 -0.0786 -0.0219  0.1514
  186MOL0     C24434   0.853   6.414   7.075  0.8120 -0.3642  0.5841
  186MOL0     C24435   0.791   6.278   7.132 -0.1910  0.5505 -0.1483
  186MOL0     C24436   0.698   6.298   7.256  1.2389  0.0868 -0.0804
  186MOL0     N24437   0.585   6.398   7.243  0.0966  0.2099 -0.2907
  186MOL0     C24438   0.482   6.386   7.156 -0.3865 -0.0219  0.3054
  186MOL0     C24439   0.402   6.490   7.198 -0.4962  0.2902 -0.9316
  186MOL0     C24440   0.272   6.535   7.138  0.4324 -0.5891  1.2046
  186MOL0     C24441   0.267   6.500   6.983  0.4006 -0.4571 -0.2147
  186MOL0     C24442   0.142   6.578   6.927  0.2671 -0.2226  0.2782
  186MOL0     C24443   0.153   6.581   6.775 -0.5585 -1.1290 -0.0853
  186MOL0     O24444   0.053   6.672   6.728  1.2021  0.0260  0.2495
  186MOL0     C24445  -0.027   6.635   6.623  0.3872  0.2652  0.2219
  186MOL0     C24446  -0.077   6.505   6.586 -0.6138 -0.2271  0.3543
  186MOL0     C24447  -0.148   6.473   6.475  0.5197  1.1908 -0.2265
  186MOL0     C24448  -0.191   6.584   6.394  0.3110 -0.4582  0.0545
  186MOL0     C24449  -0.291   6.553   6.280 -1.1211 -0.3535 -0.7361
  186MOL0     O24450  -0.323   6.666   6.201  0.4717 -0.2567  0.0884
  186MOL0     C24451  -0.392   6.654   6.086 -1.0765  1.0490  0.2868
  186MOL0     C24452  -0.534   6.662   6.091  0.0288 -0.1266 -0.3142
  186MOL0     C24453  -0.609   6.662   5.975  0.7666 -1.0215  0.8750
  186MOL0     C24454  -0.537   6.633   5.853  0.5257 -0.3898  0.2297
  186MOL0     O24455  -0.595   6.629   5.726 -0.0783 -0.5526 -0.1487
  186MOL0     C24456  -0.734   6.639   5.703 -0.6479 -0.5135  0.4402
  186MOL0     C24457  -0.809   6.523   5.732  0.0573 -1.3187 -0.2132
  186MOL0     C24458  -0.772   6.410   5.645  0.5593  0.3072 -0.4791
  186MOL0     C24459  -0.893   6.315   5.634 -0.4836 -0.8979 -0.8577
  186MOL0     C24460  -0.873   6.187   5.534 -0.5485 -0.3644  0.2505
  186MOL0     C24461  -0.868   6.232   5.386  0.1067 -0.0978 -0.2411
  186MOL0     C24462  -0.819   6.124   5.298 -0.0225 -0.3705 -1.1272
  186MOL0     C24463  -0.801   6.171   5.151 -0.3291  0.3386  0.2587
  186MOL0    Cl24464  -0.962   6.191   5.081  0.3660  0.3920  0.0167
  186MOL0     C24465  -0.404   6.613   5.846 -0.8660 -0.7950 -0.3199
  186MOL0     C24466  -0.329   6.623   5.970 -0.5459 -0.2069  0.5176
  186MOL0     O24467  -0.335   6.435   6.254  0.5046  0.1813 -0.2143
  186MOL0     C24468  -0.155   6.716   6.431  0.5595  0.9040  0.1583
  186MOL0     C24469  -0.079   6.740   6.540 -0.4313 -0.3997  0.8050
  186MOL0     N24470   0.460   6.562   7.304  0.1459  0.5232 -0.1077
  186MOL0     N24471   0.569   6.499   7.338 -0.2790  0.8815  0.4975
  186MOL0     C24472   1.532   6.216   6.954 -0.0123 -0.3769  0.0800
  186MOL0     C24473   1.576   6.101   6.892 -0.5588 -0.4603  0.6267
  186MOL0     C24474   1.707   5.773   6.688 -0.3582 -0.0375  0.8063
  186MOL0     C24475   1.776   5.786   6.555  0.1753  1.0173  0.3960
  186MOL0     C24476   1.778   5.674   6.476 -0.3603 -0.0692  0.1990
  186MOL0     C24477   1.693   5.559   6.492  0.0862 -0.3974  0.1304
  186MOL0     O24478   1.679   5.461   6.393 -0.3184  0.0021  0.5271
  186MOL0     C24479   1.697   5.325   6.446 -0.4658  0.2354  0.2503
  186MOL0     C24480   1.847   5.291   6.474  0.4534  0.1014  0.6720
  186MOL0     C24481   1.967   5.365   6.406 -0.2914 -0.6345 -0.0208
  186MOL0     C24482   2.100   5.291   6.407 -0.2249  0.1239  0.3955
  186MOL0     C24483   2.150   5.273   6.543 -0.5498  1.0637  0.0191
  186MOL0     C24484   2.187   5.255   6.650  0.5705 -0.9463 -0.2839
  186MOL0     C24485   1.608   5.564   6.608 -0.0898  0.4811  0.3015
  186MOL0     C24486   1.618   5.670   6.699  0.2763  1.0313 -0.8994
  186MOL0     H24487   1.598   5.902   7.163  0.7761 -0.3798 -0.1432
  186MOL0     H24488   1.559   6.118   7.279  1.7726  2.1161  0.4066
  186MOL0     H24489   1.310   6.314   7.099  0.8099 -1.5066 -0.5393
  186MOL0     H24490   1.360   6.472   7.077  0.5318 -0.3503 -1.6463
  186MOL0     H24491   1.364   6.498   7.335  1.8159 -1.2352 -1.0114
  186MOL0     H24492   1.284   6.340   7.364 -1.4627  1.5377  2.1972
  186MOL0     H24493   1.196   6.593   7.227 -1.9719  0.1170 -0.3030
  186MOL0     H24494   1.117   6.509   7.368 -0.9334  3.6284  0.9909
  186MOL0     H24495   1.134   6.420   7.089  3.3034  1.4724  2.1095
  186MOL0     H24496   1.069   6.314   7.212 -0.2978 -1.0598 -0.8775
  186MOL0     H24497   0.950   6.595   7.159 -0.5181  0.4776  2.6511
  186MOL0     H24498   0.905   6.499   7.279  0.4281  1.0796  0.2336
  186MOL0     H24499   0.888   6.400   6.972 -0.4907  3.2312 -0.4904
  186MOL0     H24500   0.769   6.482   7.059  1.5734  0.2787 -0.9748
  186MOL0     H24501   0.733   6.233   7.051  1.0128 -1.3170 -0.0106
  186MOL0     H24502   0.871   6.206   7.150 -0.6977 -1.6013 -5.0155
  186MOL0     H24503   0.741   6.324   7.353 -2.5784  0.9504  1.6086
  186MOL0     H24504   0.653   6.200   7.273  1.2342  0.2164  0.6942
  186MOL0     H24505   0.463   6.315   7.075  1.3182 -1.6113  1.2262
  186MOL0     H24506   0.247   6.640   7.157  4.1188  0.8388 -0.7403
  186MOL0     H24507   0.199   6.465   7.179 -0.3103 -2.7824 -3.2271
  186MOL0     H24508   0.265   6.391   6.975  3.3277 -0.6954  1.0090
  186MOL0     H24509   0.359   6.531   6.934  1.1386 -0.6528  1.0010
  186MOL0     H24510   0.060   6.514   6.959 -1.4916  1.2790 -1.0462
  186MOL0     H24511   0.132   6.682   6.961  0.1034 -0.6723  1.6739
  186MOL0     H24512   0.139   6.475   6.749  2.3641 -2.0415  1.5828
  186MOL0     H24513   0.246   6.628   6.744 -1.7651  1.6852  0.3088
  186MOL0     H24514  -0.058   6.420   6.650  1.5469  1.3803  1.9762
  186MOL0     H24515  -0.179   6.372   6.450  2.5468  0.6279 -0.6175
  186MOL0     H24516  -0.571   6.679   6.192  1.1473  0.4236  0.0190
  186MOL0     H24517  -0.716   6.676   5.966  0.9169  1.1944  1.7739
  186MOL0     H24518  -0.756   6.655   5.598 -2.3729  1.2575  1.0308
  186MOL0     H24519  -0.772   6.717   5.769  0.5993 -1.5422  2.4941
  186MOL0     H24520  -0.915   6.544   5.717  0.2033  0.3271  0.8131
  186MOL0     H24521  -0.800   6.498   5.838  2.6927  2.1178  0.5482
  186MOL0     H24522  -0.685   6.358   5.687 -0.4335  2.3841  4.8504
  186MOL0     H24523  -0.765   6.434   5.538  1.6072  2.5394  0.0433
  186MOL0     H24524  -0.922   6.300   5.738 -0.2271 -0.2313 -0.6853
  186MOL0     H24525  -0.971   6.374   5.584 -0.2244  0.3499  0.1608
  186MOL0     H24526  -0.958   6.119   5.544 -0.4551 -0.3627  1.0587
  186MOL0     H24527  -0.779   6.135   5.551  0.2778  0.9222 -0.2370
  186MOL0     H24528  -0.803   6.318   5.371 -0.3416  0.1347 -0.8813
  186MOL0     H24529  -0.970   6.259   5.358 -0.3425  2.7483  3.4146
  186MOL0     H24530  -0.727   6.080   5.339  2.0546 -0.1475 -5.0813
  186MOL0     H24531  -0.885   6.036   5.303  0.6075 -0.8395 -0.8546
  186MOL0     H24532  -0.724   6.109   5.105  0.1012 -0.5565  2.1177
  186MOL0     H24533  -0.757   6.271   5.145  0.6788 -0.0097  1.5810
  186MOL0     H24534  -0.363   6.612   5.746 -1.4322  0.9750 -0.6197
  186MOL0     H24535  -0.221   6.633   5.966 -0.6350  0.5759 -2.6449
  186MOL0     H24536  -0.198   6.798   6.375 -1.4445 -1.0371 -1.3623
  186MOL0     H24537  -0.044   6.835   6.577 -0.7321 -0.3300  0.9168
  186MOL0     H24538   1.497   6.309   6.912  1.2546  0.7981  1.5343
  186MOL0     H24539   1.559   6.099   6.785 -3.1529 -2.5996  0.9960
  186MOL0     H24540   1.830   5.874   6.521 -2.3305  2.3817 -0.2867
  186MOL0     H24541   1.843   5.679   6.390  0.6792 -0.3061  0.9438
  186MOL0     H24542   1.647   5.249   6.384 -4.0543  0.4459  2.5692
  186MOL0     H24543   1.651   5.313   6.545  0.5473 -2.3816  0.4924
  186MOL0     H24544   1.857   5.303   6.582  0.4621  4.9458  0.3272
  186MOL0     H24545   1.845   5.188   6.437 -0.7080 -0.3090  1.7703
  186MOL0     H24546   1.980   5.465   6.449  1.8251  0.4132 -2.7839
  186MOL0     H24547   1.935   5.375   6.302  4.8711 -0.2741 -1.9009
  186MOL0     H24548   2.091   5.190   6.365  3.5595 -0.2100  0.0387
  186MOL0     H24549   2.179   5.338   6.348  2.2864 -3.8529  0.1680
  186MOL0     H24550   2.236   5.234   6.743 -1.4158 -0.6681  0.8693
  186MOL0     H24551   1.523   5.505   6.641 -1.0869  0.8959 -1.4052
  186MOL0     H24552   1.567   5.673   6.795  1.9859  2.2094  0.0227
  187MOL0     O24553   9.638   5.660   3.569 -0.1124 -0.7016  0.3411
  187MOL0     C24554   9.610   5.546   3.534 -0.4470 -0.9723  0.1085
  187MOL0     O24555   9.498   5.505   3.462  0.6469  0.7703  0.0381
  187MOL0     C24556   9.382   5.575   3.473 -0.7221  0.5366  0.6193
  187MOL0     C24557   9.360   5.647   3.588  0.7452 -1.4066  0.4124
  187MOL0     C24558   9.238   5.727   3.599 -1.2427  0.0411 -0.3435
  187MOL0     C24559   9.138   5.723   3.503 -0.7070  0.0829 -0.6276
  187MOL0     O24560   9.030   5.798   3.523  0.5656 -0.8490  0.6584
  187MOL0     C24561   8.906   5.750   3.454 -0.0352  0.1013  0.4938
  187MOL0     C24562   8.788   5.832   3.497 -0.0439 -0.2880 -0.1546
  187MOL0     C24563   8.809   5.981   3.476  0.0915 -1.7639  0.9853
  187MOL0     C24564   8.693   6.059   3.542  0.3948  0.1105  0.4773
  187MOL0     C24565   8.675   6.209   3.522  0.6708  0.7178  0.8284
  187MOL0     C24566   8.788   6.302   3.563 -0.3260  0.3930 -0.8817
  187MOL0     C24567   8.827   6.289   3.715 -0.5142 -0.3959 -0.0631
  187MOL0     C24568   8.732   6.370   3.804  0.0356  1.0131  0.0882
  187MOL0     N24569   8.789   6.503   3.829 -0.5986 -0.5591 -0.3163
  187MOL0     C24570   8.828   6.603   3.734 -0.0426  0.2471  0.1719
  187MOL0     C24571   8.886   6.698   3.807  0.9166 -0.1964  0.6613
  187MOL0     C24572   8.952   6.828   3.767 -0.1567 -0.1209  0.2607
  187MOL0     C24573   9.104   6.825   3.765 -0.1779  0.4457  1.1687
  187MOL0     C24574   9.166   6.966   3.808  0.3887 -0.2770 -0.4858
  187MOL0     C24575   9.311   6.956   3.857  0.5899  0.7015  0.4203
  187MOL0     O24576   9.399   6.953   3.744  0.2975  0.3214 -0.5027
  187MOL0     C24577   9.468   6.839   3.709  0.0720 -0.4272 -0.2271
  187MOL0     C24578   9.485   6.720   3.772  0.0209  0.8123 -0.5992
  187MOL0     C24579   9.555   6.616   3.717  0.0651 -0.0255  0.5310
  187MOL0     C24580   9.620   6.634   3.594  0.1223 -0.0881  0.9160
  187MOL0     C24581   9.699   6.520   3.546 -1.3405 -1.2641  0.1279
  187MOL0     O24582   9.708   6.417   3.635  0.5203 -0.6913 -0.2177
  187MOL0     C24583   9.765   6.300   3.577 -0.2126 -0.9873  0.2193
  187MOL0     C24584   9.694   6.204   3.507  0.5821  0.2088  0.5974
  187MOL0     C24585   9.754   6.078   3.469  0.7449 -0.2161  0.0108
  187MOL0     C24586   9.887   6.043   3.500  1.3071 -0.1921  0.7965
  187MOL0     O24587   9.954   5.926   3.466 -0.4606 -0.5568  0.6379
  187MOL0     C24588   9.893   5.832   3.379 -0.9190  0.2978  0.1696
  187MOL0     C24589   9.991   5.731   3.306 -1.1494 -0.0768 -0.5830
  187MOL0     C24590  10.103   5.802   3.233 -0.4915  0.8414 -0.4860
  187MOL0     C24591  10.185   5.698   3.153 -0.5847  0.4054  1.2785
  187MOL0     C24592  10.307   5.764   3.077  0.7265 -0.6044  0.6305
  187MOL0     C24593  10.279   5.890   2.993  0.0426  0.2999 -0.0948
  187MOL0     C24594  10.394   5.945   2.905 -1.3078  0.4540 -0.0456
  187MOL0     C24595  10.348   6.007   2.782  0.0921 -0.9316 -0.2345
  187MOL0    Cl24596  10.286   5.884   2.657 -0.0044 -0.3379  0.2010
  187MOL0     C24597   9.946   6.146   3.583 -0.3850 -0.0979  0.1655
  187MOL0     C24598   9.891   6.261   3.627  0.0800  0.6391 -0.8613
  187MOL0     O24599   9.750   6.525   3.436  0.3223 -0.4090 -0.1478
  187MOL0     C24600   9.590   6.753   3.520  0.2553  0.6747  0.1005
  187MOL0     C24601   9.515   6.854   3.588  0.3000 -0.3914 -0.0363
  187MOL0     N24602   8.887   6.656   3.936  0.2798  0.1082  0.3544
  187MOL0     N24603   8.826   6.549   3.956  0.4661  0.0158  1.1493
  187MOL0     C24604   9.160   5.632   3.397 -0.5806 -0.3521 -0.0861
  187MOL0     C24605   9.283   5.566   3.377  0.0414 -0.8902  0.4076
  187MOL0     C24606   9.719   5.453   3.578  0.6092 -1.2424 -0.3941
  187MOL0     C24607   9.845   5.493   3.623 -0.4813 -0.0622  0.6150
  187MOL0     C24608   9.931   5.395   3.668  0.4489  0.2427  1.0554
  187MOL0     C24609   9.902   5.256   3.645  0.2547 -0.7217 -0.2771
  187MOL0     O24610   9.995   5.163   3.681  0.5951 -0.7755  0.3439
  187MOL0     C24611  10.140   5.195   3.666  0.6810 -0.0398  0.2884
  187MOL0     C24612  10.237   5.075   3.675 -0.5764 -0.4652  0.3114
  187MOL0     C24613  10.246   5.005   3.547 -0.5632 -0.0549  0.4635
  187MOL0     C24614  10.335   4.890   3.531 -0.1518  0.2568  0.3559
  187MOL0     C24615  10.478   4.919   3.564  0.0335 -0.0378 -0.5601
  187MOL0     C24616  10.594   4.937   3.590 -0.5950 -0.1905  0.3987
  187MOL0     C24617   9.771   5.222   3.602  0.4449  0.6024  0.0868
  187MOL0     C24618   9.680   5.315   3.565 -0.0998  0.0752 -1.2130
  187MOL0     H24619   9.430   5.640   3.671  1.2200  1.6220  0.3949
  187MOL0     H24620   9.209   5.771   3.694 -1.1107 -3.2936  1.4100
  187MOL0     H24621   8.891   5.646   3.486 -0.7613  0.8249  2.6511
  187MOL0     H24622   8.925   5.752   3.346 -2.3663  0.7640  0.0341
  187MOL0     H24623   8.776   5.819   3.605  0.9617  2.8176  0.4539
  187MOL0     H24624   8.697   5.800   3.445  0.3343  1.4898 -2.0615
  187MOL0     H24625   8.806   6.009   3.370 -0.9199  2.9749  2.0293
  187MOL0     H24626   8.902   6.010   3.525  2.0767  0.1486 -3.3840
  187MOL0     H24627   8.605   6.008   3.503  0.6174 -0.0628  0.1949
  187MOL0     H24628   8.683   6.036   3.649  0.5538 -3.2631 -0.1281
  187MOL0     H24629   8.574   6.241   3.552 -0.0930  0.4697 -1.2593
  187MOL0     H24630   8.660   6.221   3.414  0.6346 -0.9643  0.6132
  187MOL0     H24631   8.759   6.405   3.542 -2.2141 -0.1744 -1.3026
  187MOL0     H24632   8.878   6.267   3.512  0.7556 -2.7163  2.6720
  187MOL0     H24633   8.827   6.185   3.747  1.3304 -1.5834 -3.4643
  187MOL0     H24634   8.928   6.325   3.739  0.3334 -0.5650 -3.0634
  187MOL0     H24635   8.720   6.317   3.898 -1.6965  2.5326  0.7925
  187MOL0     H24636   8.633   6.372   3.758 -1.0578 -0.9981  2.1956
  187MOL0     H24637   8.805   6.603   3.628  0.2795  1.3680  0.0890
  187MOL0     H24638   8.918   6.891   3.849 -3.1323  0.0177 -0.9632
  187MOL0     H24639   8.927   6.874   3.671 -0.6529 -0.2935  0.3074
  187MOL0     H24640   9.137   6.785   3.668 -0.1942 -0.4327  1.5121
  187MOL0     H24641   9.136   6.754   3.842 -0.8852  0.1430  1.1844
  187MOL0     H24642   9.165   7.036   3.724  1.2747  1.1287  0.6361
  187MOL0     H24643   9.115   7.020   3.888  1.2232  1.0652 -0.8217
  187MOL0     H24644   9.308   6.861   3.910 -2.5167 -1.3906 -3.0860
  187MOL0     H24645   9.325   7.048   3.916 -0.8489  3.5191 -3.2742
  187MOL0     H24646   9.427   6.697   3.861  0.9484 -1.0254 -0.4139
  187MOL0     H24647   9.545   6.519   3.763 -0.3952 -0.3141 -0.1508
  187MOL0     H24648   9.592   6.234   3.487  0.6442  0.5599  0.7971
  187MOL0     H24649   9.693   6.010   3.409 -0.0389 -0.1068  0.6621
  187MOL0     H24650   9.842   5.883   3.297  0.2429  1.7435  0.3014
  187MOL0     H24651   9.828   5.771   3.442 -3.0326  0.8735 -1.3444
  187MOL0     H24652   9.927   5.677   3.235 -2.7697 -0.0015  0.7728
  187MOL0     H24653  10.041   5.663   3.376  4.3229 -2.4405 -5.7977
  187MOL0     H24654  10.165   5.851   3.308  0.1061  0.6423 -0.8442
  187MOL0     H24655  10.071   5.882   3.166  1.1015 -0.6030 -3.0971
  187MOL0     H24656  10.225   5.619   3.218  1.3435  2.0024  2.1476
  187MOL0     H24657  10.113   5.658   3.081  0.1444 -0.8948  1.2248
  187MOL0     H24658  10.371   5.696   3.020  0.5525 -1.3234  1.2709
  187MOL0     H24659  10.379   5.801   3.151  0.1035  0.7082  0.6045
  187MOL0     H24660  10.232   5.971   3.050 -2.8039  0.2760 -2.1644
  187MOL0     H24661  10.197   5.861   2.927 -1.5813  2.8248  0.6572
  187MOL0     H24662  10.456   6.012   2.965  2.6689 -0.2368 -3.0098
  187MOL0     H24663  10.453   5.856   2.882 -0.0578  1.2415  0.0103
  187MOL0     H24664  10.437   6.047   2.732  1.1241 -2.9063 -0.0920
  187MOL0     H24665  10.266   6.079   2.793 -0.2885 -1.5490  1.1471
  187MOL0     H24666  10.050   6.141   3.614 -1.2523  0.1305  3.4601
  187MOL0     H24667   9.941   6.333   3.692  2.7286  0.2059 -2.2584
  187MOL0     H24668   9.632   6.765   3.420  0.2352  4.6324  0.4342
  187MOL0     H24669   9.505   6.951   3.539  2.1501  0.3344  0.9172
  187MOL0     H24670   9.084   5.617   3.321  1.5586 -2.0483 -2.0106
  187MOL0     H24671   9.305   5.510   3.287  0.5777  1.8918 -1.3195
  187MOL0     H24672   9.859   5.601   3.627 -0.6338 -0.0481  0.7797
  187MOL0     H24673  10.034   5.422   3.689  0.2493 -0.3610  2.9952
  187MOL0     H24674  10.174   5.254   3.752  0.1557 -0.6877  0.9576
  187MOL0     H24675  10.164   5.255   3.578  0.6995  1.5414  1.3213
  187MOL0     H24676  10.335   5.104   3.713 -0.6084 -1.4093  1.1500
  187MOL0     H24677  10.190   5.013   3.751  0.7670  1.1091  2.5346
  187MOL0     H24678  10.273   5.074   3.466  0.1458 -1.6744 -0.7473
  187MOL0     H24679  10.142   4.980   3.521 -1.6689  1.4294  3.1370
  187MOL0     H24680  10.296   4.811   3.596 -2.1793  2.5905  2.1944
  187MOL0     H24681  10.331   4.852   3.429 -0.6855 -1.8344  1.1203
  187MOL0     H24682  10.697   4.930   3.619 -1.2682 -0.8494  2.9357
  187MOL0     H24683   9.740   5.118   3.604 -1.8582  1.2360  0.3911
  187MOL0     H24684   9.587   5.274   3.528 -0.8450 -0.3446  0.9579
  188MOL0     O24685   2.648   9.876   2.506 -0.2611 -0.4056  0.0893
  188MOL0     C24686   2.654   9.774   2.433  1.1682 -0.0614  0.1146
  188MOL0     O24687   2.560   9.738   2.340  0.2325  0.2976  0.0284
  188MOL0     C24688   2.448   9.817   2.308 -0.7452 -0.1366  0.0953
  188MOL0     C24689   2.389   9.916   2.398 -0.1435  0.6005 -0.4265
  188MOL0     C24690   2.288   9.995   2.353  0.0939 -0.1734  0.5378
  188MOL0     C24691   2.234   9.994   2.223  0.2472 -0.0834 -0.5690
  188MOL0     O24692   2.134  10.077   2.200  0.4502 -0.1746 -0.0338
  188MOL0     C24693   2.161  10.151   2.077  0.7548 -0.4443  1.1210
  188MOL0     C24694   2.260  10.266   2.100 -0.0764  0.5140  0.3435
  188MOL0     C24695   2.241  10.349   2.231  0.4111  0.3985 -0.8384
  188MOL0     C24696   2.337  10.470   2.229  0.4962 -0.2684 -0.4746
  188MOL0     C24697   2.396  10.516   2.366 -0.1090 -0.3243 -0.6488
  188MOL0     C24698   2.307  10.614   2.443  0.4690  0.6597 -0.7017
  188MOL0     C24699   2.352  10.642   2.593  1.7587  0.8973 -0.0070
  188MOL0     C24700   2.452  10.752   2.590 -0.1601 -0.1350 -0.3027
  188MOL0     N24701   2.386  10.883   2.598 -0.6197 -0.2788 -0.0532
  188MOL0     C24702   2.318  10.950   2.500  1.5785  0.2040  0.5867
  188MOL0     C24703   2.249  11.051   2.562  0.0506 -0.5181  0.2582
  188MOL0     C24704   2.149  11.154   2.511  0.3691  0.4275  0.2725
  188MOL0     C24705   2.026  11.099   2.437  0.7574 -1.3765 -0.1338
  188MOL0     C24706   1.911  11.201   2.413  0.6660  0.3365 -0.2330
  188MOL0     C24707   1.775  11.142   2.377 -0.1216  0.0345  0.6619
  188MOL0     O24708   1.682  11.243   2.415 -0.1508 -0.3018 -0.4400
  188MOL0     C24709   1.548  11.231   2.388 -0.3258  0.5283  0.3787
  188MOL0     C24710   1.478  11.334   2.334  0.1085 -0.7115  0.4512
  188MOL0     C24711   1.346  11.313   2.288 -0.3519  0.6620  0.5471
  188MOL0     C24712   1.280  11.185   2.297 -1.0467 -0.5055 -0.3693
  188MOL0     C24713   1.143  11.183   2.241  0.1483  0.7802 -0.0657
  188MOL0     O24714   1.088  11.060   2.238  0.0301 -0.1507 -1.0727
  188MOL0     C24715   0.961  11.027   2.196  0.5925  0.8472  0.3153
  188MOL0     C24716   0.941  10.896   2.156  0.3613 -0.0574 -0.1557
  188MOL0     C24717   0.812  10.856   2.133  1.0158 -0.7140  0.7019
  188MOL0     C24718   0.692  10.940   2.144 -0.0544  0.7995 -1.0952
  188MOL0     O24719   0.573  10.878   2.130 -0.3979 -0.1287  0.3129
  188MOL0     C24720   0.453  10.951   2.102 -0.3341 -0.0220 -0.6945
  188MOL0     C24721   0.329  10.855   2.125  0.0357  1.4009 -0.3111
  188MOL0     C24722   0.202  10.933   2.092  0.1396  0.2566 -0.0443
  188MOL0     C24723   0.170  11.028   2.204 -0.9629 -0.5165 -0.2135
  188MOL0     C24724   0.030  11.094   2.208 -1.0553 -0.5102  0.1073
  188MOL0     C24725  -0.087  11.011   2.252 -0.5522 -0.2592 -0.3001
  188MOL0     C24726  -0.120  11.009   2.409  0.1961 -0.1864  0.6643
  188MOL0     C24727  -0.222  10.904   2.445  0.5273 -0.0904 -0.4025
  188MOL0    Cl24728  -0.370  10.914   2.337 -0.1296 -0.5160 -0.1181
  188MOL0     C24729   0.713  11.075   2.184 -0.9597 -0.0452  0.2469
  188MOL0     C24730   0.849  11.113   2.204 -0.1840 -0.0079 -0.3006
  188MOL0     O24731   1.092  11.284   2.190 -0.2577 -0.3614 -0.4557
  188MOL0     C24732   1.353  11.077   2.359  0.1857 -0.7220 -0.6239
  188MOL0     C24733   1.486  11.103   2.393  0.6662  0.1815  0.5806
  188MOL0     N24734   2.294  11.054   2.693 -0.6638  0.4527 -0.7724
  188MOL0     N24735   2.382  10.958   2.713 -0.1165  1.0755  0.4710
  188MOL0     C24736   2.291   9.906   2.140 -0.1321  1.1139  1.0780
  188MOL0     C24737   2.398   9.828   2.176  0.7594  0.7125 -0.6596
  188MOL0     C24738   2.774   9.683   2.428 -1.1038 -0.0465 -0.8375
  188MOL0     C24739   2.775   9.551   2.367 -0.1699 -0.2913 -0.3626
  188MOL0     C24740   2.887   9.474   2.374  0.9940 -0.4465  0.0663
  188MOL0     C24741   3.002   9.523   2.424 -1.0200 -0.6268  0.9530
  188MOL0     O24742   3.122   9.460   2.427 -0.0860 -0.0964 -0.9105
  188MOL0     C24743   3.160   9.380   2.307  0.7777  0.4953 -0.0248
  188MOL0     C24744   3.140   9.455   2.171 -0.7228  0.2342 -0.6410
  188MOL0     C24745   3.274   9.519   2.144  1.1627 -0.8267  0.4737
  188MOL0     C24746   3.289   9.615   2.020  0.2574  0.3058 -0.3790
  188MOL0     C24747   3.263   9.546   1.898 -0.4339 -0.8369  0.7323
  188MOL0     C24748   3.254   9.486   1.795 -1.1280 -0.1851 -0.3700
  188MOL0     C24749   3.008   9.654   2.481 -0.8626  1.1631  0.4774
  188MOL0     C24750   2.892   9.732   2.482  0.0000 -0.4120  0.0441
  188MOL0     H24751   2.430   9.935   2.497  1.6498 -0.0286 -1.0123
  188MOL0     H24752   2.265  10.070   2.427  0.2017 -0.4487  0.8526
  188MOL0     H24753   2.069  10.199   2.041 -0.3401 -0.6764  3.4304
  188MOL0     H24754   2.211  10.094   1.998 -1.5116 -1.4877  0.3262
  188MOL0     H24755   2.243  10.343   2.025 -3.6842  1.9830  2.4469
  188MOL0     H24756   2.363  10.228   2.097  0.6780  2.2693 -4.6519
  188MOL0     H24757   2.258  10.292   2.323  0.7483 -1.5335 -2.0288
  188MOL0     H24758   2.134  10.370   2.228  0.0961 -0.7322  0.9524
  188MOL0     H24759   2.411  10.426   2.163  0.7500  2.2974 -2.0378
  188MOL0     H24760   2.284  10.562   2.203  2.6227  1.4233  0.8660
  188MOL0     H24761   2.485  10.571   2.336  1.0547 -2.0445 -0.5038
  188MOL0     H24762   2.417  10.430   2.431  0.2108 -2.0284 -2.8782
  188MOL0     H24763   2.211  10.562   2.438  1.3713 -1.1957  0.2121
  188MOL0     H24764   2.297  10.704   2.382  2.6466  2.0929  0.9175
  188MOL0     H24765   2.273  10.663   2.666 -0.7483 -2.4739 -1.4331
  188MOL0     H24766   2.402  10.554   2.634  1.7403  1.4174  1.1754
  188MOL0     H24767   2.500  10.741   2.493 -0.4838  2.1731 -0.7872
  188MOL0     H24768   2.517  10.741   2.678  0.3256  5.9207  0.5691
  188MOL0     H24769   2.313  10.919   2.397  0.2878 -0.4653  0.8205
  188MOL0     H24770   2.198  11.233   2.454 -1.9708  0.0378 -2.5389
  188MOL0     H24771   2.115  11.222   2.590  0.3858  3.1831 -1.9336
  188MOL0     H24772   1.982  11.014   2.491 -2.6079 -0.4761 -1.2341
  188MOL0     H24773   2.056  11.063   2.338 -2.0710 -0.2448 -1.5222
  188MOL0     H24774   1.895  11.262   2.502 -1.0075 -2.5641  1.6129
  188MOL0     H24775   1.929  11.270   2.330  0.8727  0.4204 -0.1193
  188MOL0     H24776   1.753  11.058   2.443 -1.5657 -1.0014 -1.0475
  188MOL0     H24777   1.765  11.122   2.270 -3.2496  2.6689  0.2833
  188MOL0     H24778   1.524  11.431   2.325  0.3294 -0.7466  1.1382
  188MOL0     H24779   1.295  11.406   2.265 -0.1038  1.1072  1.7215
  188MOL0     H24780   1.022  10.824   2.151  1.6323  1.3196 -0.0982
  188MOL0     H24781   0.789  10.752   2.111  2.2198 -1.1801  1.5502
  188MOL0     H24782   0.450  10.984   1.997  4.2065 -3.0843 -2.1036
  188MOL0     H24783   0.438  11.031   2.175 -0.0545  0.5804 -1.2794
  188MOL0     H24784   0.337  10.823   2.229  2.7357  0.2884 -0.7897
  188MOL0     H24785   0.329  10.778   2.048  0.8434  2.1099 -1.0379
  188MOL0     H24786   0.121  10.860   2.086 -2.1198  2.1635  3.6794
  188MOL0     H24787   0.197  10.994   2.002 -3.4807  1.6635  0.9334
  188MOL0     H24788   0.191  10.971   2.296 -2.4731 -1.4707 -0.4161
  188MOL0     H24789   0.234  11.116   2.206 -1.6438 -0.0125  1.1293
  188MOL0     H24790   0.001  11.149   2.118 -1.8028 -0.7444  0.1984
  188MOL0     H24791   0.064  11.165   2.283  1.7399  1.0053 -2.3817
  188MOL0     H24792  -0.091  10.907   2.218 -1.6994 -0.9374  1.7445
  188MOL0     H24793  -0.170  11.058   2.198  0.7663 -0.5453 -2.7233
  188MOL0     H24794  -0.023  10.997   2.458  1.1942  3.7080 -0.0207
  188MOL0     H24795  -0.174  11.098   2.443 -2.3153 -0.8960 -1.1862
  188MOL0     H24796  -0.253  10.924   2.548 -1.0665 -0.3651 -0.8118
  188MOL0     H24797  -0.179  10.804   2.444  0.9394  0.0741  0.4136
  188MOL0     H24798   0.632  11.136   2.222 -0.1433 -0.3981  2.7484
  188MOL0     H24799   0.872  11.216   2.232 -0.6580  0.7969 -2.6729
  188MOL0     H24800   1.296  10.985   2.365 -0.9244 -0.2067 -2.4457
  188MOL0     H24801   1.538  11.016   2.432 -0.0905 -0.4399  0.2222
  188MOL0     H24802   2.242   9.895   2.044  0.3765 -0.4899  0.9633
  188MOL0     H24803   2.445   9.765   2.101  0.7484  0.1024 -0.1616
  188MOL0     H24804   2.683   9.501   2.336  1.1732 -2.0980 -1.6560
  188MOL0     H24805   2.880   9.375   2.330 -0.1354 -0.6302  0.6392
  188MOL0     H24806   3.106   9.285   2.303  0.1934  0.4586  4.1268
  188MOL0     H24807   3.263   9.345   2.319  0.9178  1.1264  0.7599
  188MOL0     H24808   3.132   9.369   2.104  0.0276 -0.1918 -0.2032
  188MOL0     H24809   3.049   9.515   2.170 -1.8305 -1.1223  3.2235
  188MOL0     H24810   3.345   9.436   2.133  1.3667 -0.6082  0.1399
  188MOL0     H24811   3.296   9.580   2.232 -0.0788  0.0924  0.1661
  188MOL0     H24812   3.217   9.697   2.025 -0.8344 -0.5180 -1.8560
  188MOL0     H24813   3.389   9.658   2.004  0.7928  0.8535  3.4138
  188MOL0     H24814   3.227   9.450   1.698  3.1027  1.0000 -2.2342
  188MOL0     H24815   3.103   9.696   2.512 -0.6308  2.5214 -1.8172
  188MOL0     H24816   2.888   9.826   2.536 -1.0369 -1.0667  1.1598
  189MOL0     O24817   5.619   5.618   3.425 -0.7172  0.0455  0.3038
  189MOL0     C24818   5.707   5.695   3.381  0.4869 -0.2494  0.2691
  189MOL0     O24819   5.834   5.707   3.423 -0.4735 -1.0873 -0.3755
  189MOL0     C24820   5.882   5.653   3.542 -0.9697 -0.0712  1.4200
  189MOL0     C24821   5.811   5.592   3.646  0.8720  0.8091  0.1033
  189MOL0     C24822   5.877   5.545   3.765 -0.4092 -1.5087  0.1835
  189MOL0     C24823   6.021   5.556   3.769  0.4798 -0.3483 -0.4273
  189MOL0     O24824   6.077   5.506   3.880  1.0342  0.8185  0.2551
  189MOL0     C24825   6.214   5.467   3.874 -0.6111  0.2812  0.0343
  189MOL0     C24826   6.267   5.387   3.993  0.6474  0.9523 -0.1972
  189MOL0     C24827   6.418   5.365   3.974  0.4648  0.1188  0.1028
  189MOL0     C24828   6.479   5.247   4.060 -0.3759  0.0211  0.7061
  189MOL0     C24829   6.459   5.101   4.016  0.2811  0.1080 -0.1093
  189MOL0     C24830   6.493   5.078   3.872  0.2315 -0.0448 -0.2194
  189MOL0     C24831   6.644   5.130   3.826  0.0166  0.2912 -0.0209
  189MOL0     C24832   6.750   5.076   3.916  0.6980  0.1356 -0.3214
  189MOL0     N24833   6.850   4.995   3.844  0.1801  0.5317  1.0534
  189MOL0     C24834   6.847   4.859   3.824  0.0201 -0.0254 -0.0946
  189MOL0     C24835   6.971   4.821   3.779 -0.2411  0.4292  0.2507
  189MOL0     C24836   7.014   4.674   3.755 -0.3893 -0.3895 -0.8319
  189MOL0     C24837   7.131   4.635   3.844  0.5670 -0.7185  1.2607
  189MOL0     C24838   7.110   4.672   3.994 -0.1489 -0.0763 -0.2800
  189MOL0     C24839   7.239   4.693   4.074  0.0030 -1.0453 -0.5053
  189MOL0     O24840   7.275   4.566   4.124 -0.9532 -0.5455  0.2142
  189MOL0     C24841   7.391   4.552   4.187  0.3160 -0.6011 -0.5051
  189MOL0     C24842   7.504   4.642   4.169  0.1068 -0.1293 -0.0253
  189MOL0     C24843   7.621   4.622   4.250 -0.1218 -0.3227  0.1895
  189MOL0     C24844   7.631   4.517   4.345  1.1078  0.2676  0.4910
  189MOL0     C24845   7.752   4.495   4.421 -0.3925  1.3560  1.0124
  189MOL0     O24846   7.755   4.371   4.497  1.2773 -0.0258 -0.3150
  189MOL0     C24847   7.837   4.357   4.603  0.2479 -0.7526  0.2959
  189MOL0     C24848   7.917   4.244   4.603  0.0430  0.8790 -0.0990
  189MOL0     C24849   8.017   4.240   4.700 -0.1368  0.3929 -0.0992
  189MOL0     C24850   8.037   4.343   4.792  0.0021 -0.3421  0.8866
  189MOL0     O24851   8.141   4.344   4.877  0.5232  0.7301  0.2522
  189MOL0     C24852   8.271   4.327   4.830  0.3466 -0.0436  0.7630
  189MOL0     C24853   8.370   4.339   4.936  0.0409  0.0635 -0.2102
  189MOL0     C24854   8.348   4.227   5.050 -0.1415  0.0251  0.1208
  189MOL0     C24855   8.460   4.241   5.165  0.4188  0.7366  0.2046
  189MOL0     C24856   8.419   4.142   5.284 -0.0111  0.3158 -0.1085
  189MOL0     C24857   8.303   4.197   5.378 -0.0338  0.3824 -0.4638
  189MOL0     C24858   8.289   4.115   5.504 -0.0037  0.1439 -1.4999
  189MOL0     C24859   8.163   4.014   5.503  0.0071  0.9564 -0.2132
  189MOL0    Cl24860   8.140   3.953   5.674  0.3879 -0.1061  0.2532
  189MOL0     C24861   7.952   4.453   4.796  0.0909 -0.2955 -0.3509
  189MOL0     C24862   7.855   4.459   4.685 -0.2037 -0.5822  0.4343
  189MOL0     O24863   7.841   4.575   4.417  0.5143  0.2285  0.1413
  189MOL0     C24864   7.516   4.451   4.377 -0.2666  1.4336 -0.2381
  189MOL0     C24865   7.404   4.458   4.293 -1.1218 -0.5793  0.0574
  189MOL0     N24866   7.043   4.938   3.749  0.2496 -0.2101 -0.1595
  189MOL0     N24867   6.970   5.036   3.789  0.0490 -0.4427  0.8535
  189MOL0     C24868   6.092   5.620   3.666  0.6071 -0.3158  0.6896
  189MOL0     C24869   6.020   5.666   3.555  0.4669 -0.4642 -0.2245
  189MOL0     C24870   5.658   5.787   3.268  0.5628 -0.4225  0.6150
  189MOL0     C24871   5.520   5.796   3.230 -0.2823  0.6361  0.2489
  189MOL0     C24872   5.474   5.894   3.137 -0.5798  1.1795 -0.3903
  189MOL0     C24873   5.564   5.967   3.065 -0.7349 -0.7813 -0.1844
  189MOL0     O24874   5.532   6.079   3.007  0.4744  0.3705  0.5424
  189MOL0     C24875   5.563   6.102   2.871 -0.7056 -0.7196 -0.7190
  189MOL0     C24876   5.555   6.250   2.854 -0.2473  0.8343 -0.5176
  189MOL0     C24877   5.413   6.301   2.817  0.1857  0.0592 -0.0048
  189MOL0     C24878   5.308   6.308   2.936 -0.2882 -0.7391  1.1814
  189MOL0     C24879   5.196   6.415   2.907 -0.2826  1.0218  0.6426
  189MOL0     C24880   5.099   6.492   2.894 -0.0305 -1.0226  0.4771
  189MOL0     C24881   5.703   5.951   3.084  0.4354 -0.2096 -0.3358
  189MOL0     C24882   5.740   5.866   3.189 -0.3472 -0.1702 -1.0234
  189MOL0     H24883   5.702   5.595   3.648  0.8490 -0.1830  0.4995
  189MOL0     H24884   5.832   5.508   3.857 -0.1824  1.9707  1.8360
  189MOL0     H24885   6.271   5.559   3.857 -1.4432  0.6404 -0.8403
  189MOL0     H24886   6.220   5.410   3.781 -2.8630  2.2052 -1.3734
  189MOL0     H24887   6.225   5.286   3.994  0.7942  0.8880 -0.3806
  189MOL0     H24888   6.235   5.444   4.081 -3.4564 -0.8696 -0.2827
  189MOL0     H24889   6.463   5.459   4.006 -2.2343  1.3782  0.4443
  189MOL0     H24890   6.439   5.349   3.867 -0.0231  0.3770 -0.0328
  189MOL0     H24891   6.586   5.268   4.063 -0.8128  2.7809 -0.0317
  189MOL0     H24892   6.453   5.250   4.166 -0.6940  0.0057  0.6309
  189MOL0     H24893   6.355   5.075   4.036 -1.0379  3.3368 -1.9915
  189MOL0     H24894   6.524   5.028   4.065  3.3327  1.0008 -2.5375
  189MOL0     H24895   6.423   5.139   3.814 -3.0287  0.0369  3.4452
  189MOL0     H24896   6.474   4.971   3.861 -3.3187 -0.0760  3.6804
  189MOL0     H24897   6.655   5.120   3.718  1.3461  0.4553  0.0916
  189MOL0     H24898   6.648   5.238   3.841  1.2507  0.0051  2.0151
  189MOL0     H24899   6.707   5.025   4.003  0.0514  2.6069  0.9073
  189MOL0     H24900   6.810   5.159   3.956  3.9580 -1.6361 -1.1594
  189MOL0     H24901   6.752   4.812   3.844 -0.7264  1.0931 -0.9053
  189MOL0     H24902   7.024   4.662   3.647 -2.0211  1.4827 -1.2453
  189MOL0     H24903   6.937   4.597   3.773 -0.0988 -0.5313 -0.1627
  189MOL0     H24904   7.222   4.681   3.805  0.2917 -3.0200 -2.7055
  189MOL0     H24905   7.162   4.531   3.828  4.5875  0.2585  1.6362
  189MOL0     H24906   7.055   4.766   4.002 -1.4062 -0.9138  2.0523
  189MOL0     H24907   7.037   4.601   4.035  0.8792 -1.2528 -0.4232
  189MOL0     H24908   7.219   4.759   4.159 -3.4786 -1.9771 -0.4641
  189MOL0     H24909   7.308   4.748   4.010  0.2599  1.8142  1.9738
  189MOL0     H24910   7.503   4.724   4.099 -0.1406  0.9790  1.2367
  189MOL0     H24911   7.700   4.696   4.250 -1.6104  1.3358  0.8415
  189MOL0     H24912   7.912   4.169   4.525  0.2594 -0.2382  0.9205
  189MOL0     H24913   8.083   4.156   4.720 -1.4298 -0.5009  0.6072
  189MOL0     H24914   8.291   4.385   4.740 -1.8390 -0.4423 -0.0324
  189MOL0     H24915   8.275   4.219   4.813 -2.2992 -0.1696  0.5189
  189MOL0     H24916   8.379   4.442   4.971 -2.5280  0.3658 -0.1910
  189MOL0     H24917   8.472   4.333   4.897  0.7940  0.6305  1.5605
  189MOL0     H24918   8.361   4.128   5.005 -4.2913 -0.5810 -0.1592
  189MOL0     H24919   8.255   4.239   5.105  0.4427  0.3814  1.0457
  189MOL0     H24920   8.549   4.195   5.122 -2.1123  0.3448 -5.5821
  189MOL0     H24921   8.479   4.343   5.199  1.7590  0.3777  0.5697
  189MOL0     H24922   8.517   4.116   5.324  1.1998 -0.4672 -3.3235
  189MOL0     H24923   8.369   4.056   5.238 -3.6331  0.6857  2.6111
  189MOL0     H24924   8.208   4.202   5.325 -0.2573 -0.5893 -0.1720
  189MOL0     H24925   8.337   4.297   5.405 -1.1788  1.0897 -1.5449
  189MOL0     H24926   8.377   4.055   5.527 -1.1366 -1.1754 -0.4241
  189MOL0     H24927   8.276   4.176   5.594 -0.8185 -2.3324  0.1628
  189MOL0     H24928   8.192   3.925   5.446 -1.3245 -1.3115  2.3868
  189MOL0     H24929   8.074   4.062   5.460  1.8154  0.3883 -5.3672
  189MOL0     H24930   7.961   4.541   4.859  1.7199 -0.4455 -0.3180
  189MOL0     H24931   7.795   4.549   4.675 -2.6464 -2.1190  0.2263
  189MOL0     H24932   7.513   4.379   4.458 -1.4389 -1.6920 -2.7972
  189MOL0     H24933   7.319   4.392   4.312 -2.4670  0.9951 -0.2721
  189MOL0     H24934   6.199   5.636   3.660  0.4980  0.3504  0.4294
  189MOL0     H24935   6.072   5.727   3.483  3.3963 -1.6478  0.7282
  189MOL0     H24936   5.450   5.728   3.277 -2.3160  1.1398 -1.8542
  189MOL0     H24937   5.369   5.908   3.115 -1.5215 -0.4839  2.5092
  189MOL0     H24938   5.496   6.047   2.804 -0.4291 -2.6990  0.5424
  189MOL0     H24939   5.663   6.071   2.841 -0.9204 -0.6583 -1.5052
  189MOL0     H24940   5.577   6.296   2.951 -2.6169 -0.2885  0.6167
  189MOL0     H24941   5.624   6.289   2.779 -0.7203  2.6339 -0.0752
  189MOL0     H24942   5.370   6.239   2.738 -2.1017  2.3543 -0.6949
  189MOL0     H24943   5.419   6.402   2.776 -3.0265 -0.0143 -0.9213
  189MOL0     H24944   5.256   6.213   2.948 -3.1332  0.2964 -1.6030
  189MOL0     H24945   5.370   6.323   3.025  1.7463 -0.7239 -0.1827
  189MOL0     H24946   5.018   6.563   2.884  3.4521  3.0729 -2.4695
  189MOL0     H24947   5.767   6.011   3.020  3.2529 -0.6483  1.8604
  189MOL0     H24948   5.842   5.875   3.226 -0.9786 -0.7919  1.0097
  190MOL0     O24949   6.209   6.727   6.154 -0.3024  0.4386 -0.2264
  190MOL0     C24950   6.225   6.620   6.209 -0.3745  0.7672 -0.2781
  190MOL0     O24951   6.130   6.553   6.275 -0.1386 -0.6347  0.9913
  190MOL0     C24952   6.032   6.625   6.343  0.0767  0.3029  0.3021
  190MOL0     C24953   6.057   6.717   6.447  0.5905  0.5082 -0.0004
  190MOL0     C24954   5.947   6.756   6.538 -0.2888 -0.1175  0.3988
  190MOL0     C24955   5.814   6.705   6.513  0.2569 -0.0554  0.4948
  190MOL0     O24956   5.723   6.733   6.601 -0.0502 -0.3947 -0.1663
  190MOL0     C24957   5.676   6.866   6.581 -0.6641  0.9489  1.0965
  190MOL0     C24958   5.576   6.908   6.688 -0.1773 -0.2924  0.1348
  190MOL0     C24959   5.495   7.041   6.648  0.3837 -0.6279  0.1467
  190MOL0     C24960   5.392   7.089   6.756  0.8629 -0.3474 -0.0891
  190MOL0     C24961   5.433   7.100   6.911 -0.8332  0.0493  1.0663
  190MOL0     C24962   5.514   7.232   6.941  0.2230 -0.0196 -0.0807
  190MOL0     C24963   5.659   7.225   6.922 -0.3712  0.0978 -0.2747
  190MOL0     C24964   5.726   7.141   7.027  0.9203  0.1263 -0.6214
  190MOL0     N24965   5.833   7.061   6.959  0.4623  0.4702  0.5640
  190MOL0     C24966   5.845   6.925   6.973 -0.1848  0.7963  0.5501
  190MOL0     C24967   5.955   6.898   6.904  0.0355 -0.2149  0.2431
  190MOL0     C24968   6.002   6.751   6.888  0.8632 -0.0987  0.4246
  190MOL0     C24969   6.094   6.726   7.006  0.0720  0.0324 -0.0542
  190MOL0     C24970   6.118   6.572   7.020  0.3503 -0.6616 -0.0355
  190MOL0     C24971   6.175   6.489   6.899  1.0068  0.5883 -0.1747
  190MOL0     O24972   6.255   6.372   6.939  0.8283  0.0915 -0.6093
  190MOL0     C24973   6.307   6.306   6.837  0.0257  1.2330 -0.4508
  190MOL0     C24974   6.372   6.190   6.877 -0.6989  0.3744 -0.1016
  190MOL0     C24975   6.448   6.120   6.785 -0.5038  0.3297  1.3077
  190MOL0     C24976   6.450   6.177   6.652 -0.3266  0.5075  0.3971
  190MOL0     C24977   6.548   6.114   6.561  0.1661 -0.1737  0.3472
  190MOL0     O24978   6.554   5.979   6.569 -0.4240  0.2712 -0.3719
  190MOL0     C24979   6.672   5.920   6.518  0.2210  0.0102 -0.1485
  190MOL0     C24980   6.668   5.799   6.442  0.0104 -0.2922 -0.0682
  190MOL0     C24981   6.783   5.735   6.394  0.5352  0.1911 -0.0898
  190MOL0     C24982   6.913   5.794   6.419  1.0857  0.4711 -0.0033
  190MOL0     O24983   7.038   5.747   6.380 -0.2994 -0.1966  0.3016
  190MOL0     C24984   7.039   5.642   6.278 -0.9378  0.0679 -0.1052
  190MOL0     C24985   7.182   5.599   6.239  0.9472 -0.5115 -0.7428
  190MOL0     C24986   7.274   5.700   6.158  0.2475 -0.3183 -0.2448
  190MOL0     C24987   7.380   5.749   6.244 -0.2636 -0.3308 -0.1133
  190MOL0     C24988   7.467   5.854   6.166 -0.4614 -0.7395  0.9834
  190MOL0     C24989   7.584   5.904   6.256 -0.0899  0.8495  0.2954
  190MOL0     C24990   7.641   6.021   6.190 -0.2073  0.4226 -1.3498
  190MOL0     C24991   7.775   6.069   6.241 -0.4297  0.3659 -0.1269
  190MOL0    Cl24992   7.838   6.202   6.131 -0.4755 -0.1905  0.5815
  190MOL0     C24993   6.910   5.912   6.488  0.3864 -0.1649 -0.2828
  190MOL0     C24994   6.799   5.972   6.543  0.4139 -0.1908 -0.2919
  190MOL0     O24995   6.597   6.184   6.477 -0.7324 -0.0336  0.0888
  190MOL0     C24996   6.388   6.293   6.609  1.0293  0.1427 -1.0561
  190MOL0     C24997   6.308   6.352   6.705 -0.6363 -0.3393 -0.0620
  190MOL0     N24998   6.011   7.004   6.837  0.8496  0.7720  0.3255
  190MOL0     N24999   5.928   7.100   6.872  0.1819 -0.5934  0.7291
  190MOL0     C25000   5.792   6.622   6.401  0.1213  0.5378 -0.2650
  190MOL0     C25001   5.904   6.586   6.321  0.5456  0.0590 -0.8640
  190MOL0     C25002   6.359   6.561   6.206  0.1616 -0.4379  1.0623
  190MOL0     C25003   6.377   6.424   6.231 -0.2201 -0.7665 -0.5688
  190MOL0     C25004   6.506   6.371   6.225 -0.2152 -0.2136 -0.6500
  190MOL0     C25005   6.620   6.445   6.184 -0.5698 -1.2184  0.5331
  190MOL0     O25006   6.750   6.399   6.158  0.3770 -0.2599  0.6098
  190MOL0     C25007   6.768   6.260   6.165 -0.2104  0.6616  0.7301
  190MOL0     C25008   6.909   6.221   6.129  0.3845  0.1911 -0.4840
  190MOL0     C25009   7.011   6.275   6.234  0.3752 -0.0158  0.1995
  190MOL0     C25010   7.125   6.180   6.242 -0.5165  0.2505  0.1861
  190MOL0     C25011   7.194   6.156   6.110 -0.3776  0.2322 -0.6097
  190MOL0     C25012   7.234   6.148   5.997  0.5698  0.4191 -0.6718
  190MOL0     C25013   6.601   6.580   6.164 -0.0700  0.3694 -0.0815
  190MOL0     C25014   6.477   6.635   6.170  0.2919  0.6940  0.2531
  190MOL0     H25015   6.155   6.762   6.460 -0.9107  4.8558 -1.8188
  190MOL0     H25016   5.970   6.828   6.616 -1.1415  0.6021  0.0084
  190MOL0     H25017   5.618   6.872   6.488 -0.3990  1.4938  0.9647
  190MOL0     H25018   5.757   6.938   6.564  0.8357 -0.9761 -0.5044
  190MOL0     H25019   5.635   6.915   6.780  3.2084 -2.8551 -1.6378
  190MOL0     H25020   5.493   6.838   6.699 -0.5165  0.0678 -0.1084
  190MOL0     H25021   5.441   7.028   6.553 -0.0407  1.7721 -0.0036
  190MOL0     H25022   5.561   7.127   6.638 -2.8174  2.5445  3.3399
  190MOL0     H25023   5.371   7.190   6.718  1.1249  0.5818  2.1241
  190MOL0     H25024   5.295   7.041   6.740 -0.0084  1.8933 -2.0599
  190MOL0     H25025   5.482   7.007   6.942  0.7769  0.7927  0.8623
  190MOL0     H25026   5.333   7.117   6.953 -1.8466  0.1763 -1.2292
  190MOL0     H25027   5.496   7.256   7.046 -1.7392  0.7931 -0.5577
  190MOL0     H25028   5.479   7.321   6.888 -1.6010 -1.7167 -1.9104
  190MOL0     H25029   5.671   7.182   6.822 -3.9091  0.3865 -0.9303
  190MOL0     H25030   5.703   7.325   6.917  0.1888 -0.2061 -2.2422
  190MOL0     H25031   5.658   7.070   7.073  3.2409 -2.3679 -0.7819
  190MOL0     H25032   5.763   7.202   7.111 -0.3447  1.1966 -0.8039
  190MOL0     H25033   5.788   6.859   7.038 -1.4049  2.7284  1.5581
  190MOL0     H25034   6.055   6.730   6.794  0.3656  1.6480 -0.2848
  190MOL0     H25035   5.915   6.685   6.894  0.0873  0.9922  1.6747
  190MOL0     H25036   6.036   6.755   7.094  1.2700 -0.2799  0.8709
  190MOL0     H25037   6.192   6.776   7.006  1.2068 -2.0625 -1.0243
  190MOL0     H25038   6.187   6.558   7.103  0.9096  1.3626 -0.0959
  190MOL0     H25039   6.016   6.532   7.024  0.9582 -2.1893  1.3686
  190MOL0     H25040   6.244   6.549   6.839  1.3646 -0.1804 -0.5530
  190MOL0     H25041   6.087   6.469   6.838  0.9412 -0.6424  0.2964
  190MOL0     H25042   6.356   6.140   6.973  1.3552 -0.8769 -0.3535
  190MOL0     H25043   6.498   6.027   6.808 -0.7152 -0.7246 -1.9434
  190MOL0     H25044   6.566   5.762   6.435 -0.4524  1.1625 -1.7443
  190MOL0     H25045   6.785   5.648   6.330  2.2048  2.7237 -3.8677
  190MOL0     H25046   7.002   5.690   6.188  1.1898 -0.0003 -1.0644
  190MOL0     H25047   6.982   5.553   6.307 -0.0001 -0.4635  0.1347
  190MOL0     H25048   7.155   5.519   6.169 -3.0659  1.0738 -1.2949
  190MOL0     H25049   7.234   5.549   6.322 -2.0404  0.0699  1.6680
  190MOL0     H25050   7.220   5.788   6.121  0.0686 -0.5911 -0.6430
  190MOL0     H25051   7.320   5.644   6.076 -0.1156 -2.1110  0.7344
  190MOL0     H25052   7.348   5.789   6.341  2.9510 -0.8463  1.2909
  190MOL0     H25053   7.442   5.666   6.280 -0.3907 -0.1753  0.4882
  190MOL0     H25054   7.403   5.939   6.141 -0.5449 -1.6729 -2.6776
  190MOL0     H25055   7.503   5.818   6.069 -0.5551  2.4320 -0.3735
  190MOL0     H25056   7.661   5.826   6.254  1.4686  2.3172  0.1263
  190MOL0     H25057   7.550   5.916   6.359 -0.6733  3.7940 -0.1501
  190MOL0     H25058   7.658   5.990   6.087 -0.1546 -0.3144 -1.1301
  190MOL0     H25059   7.563   6.097   6.199 -1.7973 -1.0315 -2.1104
  190MOL0     H25060   7.850   5.989   6.238 -0.2693  0.3857  1.8962
  190MOL0     H25061   7.763   6.100   6.345 -3.5499  0.0436 -0.3029
  190MOL0     H25062   6.998   5.971   6.508  0.8811  0.1962 -3.1793
  190MOL0     H25063   6.813   6.061   6.603  0.5185 -1.0103  0.9298
  190MOL0     H25064   6.396   6.340   6.511 -1.1789  2.9229 -0.0346
  190MOL0     H25065   6.264   6.436   6.653 -0.4987 -0.7204 -0.8076
  190MOL0     H25066   5.698   6.568   6.388  0.3101  0.2735 -0.5715
  190MOL0     H25067   5.890   6.534   6.226 -0.9269  0.4886 -0.8935
  190MOL0     H25068   6.296   6.353   6.246 -1.6216  0.8665 -0.1154
  190MOL0     H25069   6.510   6.264   6.242 -3.0838 -0.0098  2.4217
  190MOL0     H25070   6.711   6.207   6.088  0.5651  1.3448 -0.3502
  190MOL0     H25071   6.732   6.213   6.257 -0.6141 -0.3958  0.0440
  190MOL0     H25072   6.895   6.113   6.144 -2.9439  0.9055  3.1090
  190MOL0     H25073   6.940   6.234   6.025 -1.1980  0.9912 -0.8821
  190MOL0     H25074   6.966   6.276   6.333 -2.1771  1.0902 -0.8746
  190MOL0     H25075   7.032   6.378   6.201 -1.3239 -0.0065 -1.0118
  190MOL0     H25076   7.195   6.221   6.316 -0.0057 -1.3578  0.6233
  190MOL0     H25077   7.086   6.087   6.284  2.0423 -1.6711 -1.4093
  190MOL0     H25078   7.264   6.135   5.895  1.7260  0.4808 -0.3506
  190MOL0     H25079   6.682   6.647   6.137 -0.5029  0.8388 -0.2286
  190MOL0     H25080   6.454   6.737   6.140 -0.2582 -0.2738 -3.0147
  191MOL0     O25081   7.420   7.593   1.050  1.0200 -0.3169  0.3848
  191MOL0     C25082   7.297   7.581   1.035  0.4554  0.3570 -0.3203
  191MOL0     O25083   7.226   7.462   1.017  0.2861 -0.2538  0.2098
  191MOL0     C25084   7.279   7.332   0.988  0.9474 -0.9975  0.9295
  191MOL0     C25085   7.406   7.308   0.956 -1.1431  0.0018  0.0084
  191MOL0     C25086   7.452   7.175   0.950  0.2206  0.2804  0.2868
  191MOL0     C25087   7.362   7.069   0.952 -0.4492 -0.4801  0.5386
  191MOL0     O25088   7.399   6.934   0.941 -0.0238 -0.1471  0.0564
  191MOL0     C25089   7.542   6.911   0.928 -0.5876  0.7557 -0.0297
  191MOL0     C25090   7.529   6.747   0.935 -0.1471 -0.6477 -0.4272
  191MOL0     C25091   7.472   6.664   0.816  0.3809  0.6556  0.6172
  191MOL0     C25092   7.398   6.544   0.863  1.4305 -0.3859 -0.1804
  191MOL0     C25093   7.351   6.436   0.760  0.0509 -0.0903  0.2690
  191MOL0     C25094   7.242   6.481   0.655 -1.0361  0.4134 -0.3636
  191MOL0     C25095   7.212   6.381   0.548 -0.4195  0.7233  0.6977
  191MOL0     C25096   7.219   6.231   0.569 -0.1023  0.1439 -0.2918
  191MOL0     N25097   7.187   6.160   0.441  1.1736 -0.8513  0.2632
  191MOL0     C25098   7.284   6.084   0.366 -0.8012  0.4890 -0.5525
  191MOL0     C25099   7.225   6.038   0.256  0.7886  1.3332  1.1220
  191MOL0     C25100   7.278   5.945   0.156  0.2532  0.4124  0.1296
  191MOL0     C25101   7.163   5.885   0.071  0.0839  0.1871 -0.1135
  191MOL0     C25102   7.220   5.791  -0.031  1.0126  0.8163  0.0948
  191MOL0     C25103   7.217   5.642   0.011  0.1648  0.9009 -0.1255
  191MOL0     O25104   7.306   5.562  -0.069  0.1379 -1.1239  0.9742
  191MOL0     C25105   7.244   5.471  -0.156 -0.4977 -0.3833 -0.2690
  191MOL0     C25106   7.124   5.504  -0.227 -0.0158 -0.6657  0.3917
  191MOL0     C25107   7.060   5.413  -0.309  0.1459 -0.0236 -0.2326
  191MOL0     C25108   7.119   5.285  -0.327 -0.9291  0.6742  0.8347
  191MOL0     C25109   7.069   5.197  -0.432 -0.4911 -0.1748 -0.3088
  191MOL0     O25110   7.137   5.079  -0.445 -0.7462 -0.2927 -0.0365
  191MOL0     C25111   7.091   4.989  -0.540  0.4813  0.0808 -0.3826
  191MOL0     C25112   7.063   5.019  -0.667  0.1311  0.9378  1.0364
  191MOL0     C25113   7.027   4.925  -0.767 -0.2549  0.2883 -0.7137
  191MOL0     C25114   6.996   4.799  -0.721  0.2499  0.4711  0.3107
  191MOL0     O25115   6.961   4.712  -0.823  0.4037 -0.2991 -0.7304
  191MOL0     C25116   6.914   4.575  -0.799  0.9822 -0.4587  0.1565
  191MOL0     C25117   6.798   4.576  -0.696  0.4455 -0.0594  0.2935
  191MOL0     C25118   6.693   4.467  -0.708 -0.0339  0.0327  0.9423
  191MOL0     C25119   6.585   4.505  -0.812  0.6931  0.2643  0.6543
  191MOL0     C25120   6.460   4.404  -0.827  0.3345 -0.1082  0.2745
  191MOL0     C25121   6.498   4.277  -0.905 -0.6388 -0.5018  0.7534
  191MOL0     C25122   6.509   4.316  -1.055 -0.4462 -0.0311  0.1241
  191MOL0     C25123   6.603   4.213  -1.128  0.7548 -0.5373 -0.7582
  191MOL0    Cl25124   6.571   4.042  -1.090 -0.3491 -0.3981 -0.7608
  191MOL0     C25125   7.030   4.762  -0.596 -0.1194 -0.6540 -0.3237
  191MOL0     C25126   7.077   4.852  -0.504  0.0025 -0.0706 -0.7224
  191MOL0     O25127   6.962   5.220  -0.476  0.1796  0.2887  0.6080
  191MOL0     C25128   7.237   5.250  -0.254 -0.2554  0.0337  0.3147
  191MOL0     C25129   7.299   5.348  -0.175 -0.3988 -0.3512  0.5530
  191MOL0     N25130   7.092   6.073   0.267  0.8236  0.7898 -0.0059
  191MOL0     N25131   7.065   6.139   0.374  0.2772 -0.1365 -0.5328
  191MOL0     C25132   7.225   7.090   0.979  0.0537  0.4987  0.1833
  191MOL0     C25133   7.184   7.225   0.999  0.3722  0.4329  0.0435
  191MOL0     C25134   7.207   7.696   1.037 -0.4354 -0.5129  0.0955
  191MOL0     C25135   7.069   7.692   1.016 -0.1098 -0.1209 -0.1067
  191MOL0     C25136   6.979   7.803   1.018 -0.3959  0.2563  0.4766
  191MOL0     C25137   7.035   7.923   1.067 -0.0598 -0.1028  0.5774
  191MOL0     O25138   6.949   8.034   1.084  0.2013 -0.2969 -0.7437
  191MOL0     C25139   6.814   8.017   1.127  0.0998 -0.3168  1.5907
  191MOL0     C25140   6.770   8.150   1.188  0.6548 -0.4612  1.2381
  191MOL0     C25141   6.614   8.142   1.218  0.3634 -0.0719  0.1249
  191MOL0     C25142   6.565   8.282   1.242 -0.4243 -0.1821 -0.6179
  191MOL0     C25143   6.603   8.332   1.381  0.0278  0.2283 -0.0137
  191MOL0     C25144   6.620   8.350   1.499 -0.5964 -0.0158 -0.2994
  191MOL0     C25145   7.171   7.928   1.100 -0.4820 -1.0810 -0.0168
  191MOL0     C25146   7.254   7.817   1.083  0.5881 -0.2874  1.0433
  191MOL0     H25147   7.477   7.388   0.940 -0.0014 -0.7304  1.2336
  191MOL0     H25148   7.559   7.163   0.939  0.0954 -0.9188  0.2605
  191MOL0     H25149   7.591   6.957   1.014  1.1965  1.7439 -1.4961
  191MOL0     H25150   7.589   6.947   0.836 -0.3306 -1.0065 -0.6373
  191MOL0     H25151   7.477   6.726   1.030 -0.2082 -0.0417 -0.3225
  191MOL0     H25152   7.630   6.708   0.945 -0.6748 -2.3898 -1.3971
  191MOL0     H25153   7.549   6.630   0.747 -1.1764 -1.1731 -0.3233
  191MOL0     H25154   7.389   6.708   0.759 -1.2701 -1.8255  0.9237
  191MOL0     H25155   7.466   6.489   0.928  1.7740  2.6095  2.2306
  191MOL0     H25156   7.318   6.581   0.929  1.6740  1.3432 -0.7880
  191MOL0     H25157   7.314   6.357   0.826  2.2047 -0.6230  0.9128
  191MOL0     H25158   7.440   6.398   0.708  1.3628  2.1525  0.7374
  191MOL0     H25159   7.276   6.577   0.615  1.6287  0.0997  0.9212
  191MOL0     H25160   7.155   6.504   0.717 -0.1576 -1.9802  1.9451
  191MOL0     H25161   7.123   6.417   0.495 -0.5648  0.1779  0.5675
  191MOL0     H25162   7.289   6.401   0.473 -2.2483  0.4076 -1.3986
  191MOL0     H25163   7.138   6.210   0.639  0.2315 -1.7205 -0.3968
  191MOL0     H25164   7.312   6.196   0.616 -1.0573  0.1123  1.6704
  191MOL0     H25165   7.388   6.073   0.396  0.2697  0.5672 -3.7571
  191MOL0     H25166   7.324   5.861   0.208 -1.4757  0.5730  2.0465
  191MOL0     H25167   7.346   5.995   0.085 -1.2646  0.0371 -1.6693
  191MOL0     H25168   7.124   5.974   0.021 -0.6611  1.0605  1.9117
  191MOL0     H25169   7.084   5.825   0.116 -1.3272  1.8146 -0.3087
  191MOL0     H25170   7.156   5.807  -0.118  1.5081 -0.3296 -0.4971
  191MOL0     H25171   7.319   5.820  -0.069  0.6368  1.0539 -0.7109
  191MOL0     H25172   7.116   5.601   0.018  0.5874 -0.1254  0.1006
  191MOL0     H25173   7.270   5.638   0.107  2.7034 -0.7518 -1.4543
  191MOL0     H25174   7.076   5.599  -0.204 -0.2320 -1.4487  3.5844
  191MOL0     H25175   6.970   5.434  -0.365  0.3714 -0.1304 -0.6392
  191MOL0     H25176   7.079   5.123  -0.692  1.3009 -0.3359 -5.1345
  191MOL0     H25177   7.008   4.952  -0.870  0.0634 -2.7657 -1.6926
  191MOL0     H25178   7.008   4.524  -0.777  3.0316  3.0772  0.3394
  191MOL0     H25179   6.866   4.522  -0.881  2.2471  1.5638 -2.0130
  191MOL0     H25180   6.750   4.674  -0.697 -4.0559 -2.0455  1.3426
  191MOL0     H25181   6.836   4.567  -0.593 -0.5467  1.2462  0.7951
  191MOL0     H25182   6.644   4.454  -0.612 -0.8183  0.5800  0.6231
  191MOL0     H25183   6.732   4.368  -0.733 -1.0043 -0.2633  0.5631
  191MOL0     H25184   6.545   4.603  -0.783 -0.1122 -0.4689  2.1263
  191MOL0     H25185   6.624   4.534  -0.911  1.1955 -0.4241  0.6459
  191MOL0     H25186   6.378   4.447  -0.884  0.0881 -0.1141  0.6265
  191MOL0     H25187   6.433   4.376  -0.725  1.2434  0.5008  0.6950
  191MOL0     H25188   6.426   4.198  -0.884 -1.6088  0.2058  0.1443
  191MOL0     H25189   6.597   4.260  -0.861 -0.1816 -4.0049 -1.2841
  191MOL0     H25190   6.410   4.314  -1.101 -0.0882 -0.1673 -0.6559
  191MOL0     H25191   6.546   4.418  -1.065  2.4378 -0.9022  1.0458
  191MOL0     H25192   6.700   4.233  -1.082 -1.1560  2.3380  2.5113
  191MOL0     H25193   6.602   4.207  -1.238  1.0112 -4.3693 -0.6583
  191MOL0     H25194   7.031   4.656  -0.574  1.0099 -0.3815  1.0676
  191MOL0     H25195   7.121   4.830  -0.408  0.7142  1.1835 -0.7451
  191MOL0     H25196   7.279   5.150  -0.251  2.9181  1.1784 -1.2567
  191MOL0     H25197   7.397   5.332  -0.131 -1.0173  1.8524  3.0035
  191MOL0     H25198   7.156   7.007   0.993 -2.3748  1.5215 -3.8429
  191MOL0     H25199   7.078   7.240   1.018  0.8668  2.3797  1.7027
  191MOL0     H25200   7.027   7.598   0.980  1.5591 -1.5994  1.5963
  191MOL0     H25201   6.873   7.788   1.005 -0.5188  0.0866  1.5684
  191MOL0     H25202   6.793   7.932   1.193 -2.3959 -1.8837 -0.9880
  191MOL0     H25203   6.758   8.002   1.035 -1.3526  1.2260  2.1695
  191MOL0     H25204   6.820   8.162   1.285  3.2069  1.3053 -0.2024
  191MOL0     H25205   6.802   8.229   1.121 -1.9890 -0.0782  0.3193
  191MOL0     H25206   6.595   8.080   1.306 -3.6174  0.0263 -0.5015
  191MOL0     H25207   6.563   8.092   1.135  1.6841 -1.7271  0.2685
  191MOL0     H25208   6.618   8.345   1.170 -3.1615 -0.6282 -3.2474
  191MOL0     H25209   6.456   8.293   1.243 -0.9205 -3.6113  2.1205
  191MOL0     H25210   6.653   8.373   1.599  1.3279 -2.3282 -0.2929
  191MOL0     H25211   7.219   8.010   1.152  1.3304 -2.0977  0.0157
  191MOL0     H25212   7.361   7.823   1.105  1.3937 -0.2258 -2.3879
  192MOL0     O25213   3.505   8.731   5.250 -0.0644  0.8132 -0.6631
  192MOL0     C25214   3.538   8.670   5.145 -0.4400  0.4358 -0.4835
  192MOL0     O25215   3.535   8.537   5.128 -0.8054 -0.8069  0.7383
  192MOL0     C25216   3.517   8.458   5.241 -0.2598  0.6521 -0.9940
  192MOL0     C25217   3.580   8.467   5.368  0.8267  0.6258  0.9059
  192MOL0     C25218   3.555   8.378   5.475 -0.4716 -0.0534 -0.1718
  192MOL0     C25219   3.470   8.263   5.451  0.0945 -1.1481 -0.3457
  192MOL0     O25220   3.443   8.194   5.557 -0.6880  0.0249  0.0860
  192MOL0     C25221   3.506   8.061   5.557 -0.4789 -0.4813  0.4183
  192MOL0     C25222   3.536   8.041   5.706  0.0992 -0.4960 -0.2458
  192MOL0     C25223   3.680   8.114   5.732  1.4186  0.6897  0.7306
  192MOL0     C25224   3.683   8.161   5.867  0.5791  0.8757 -0.1183
  192MOL0     C25225   3.829   8.204   5.914  0.0178  0.0870 -0.1467
  192MOL0     C25226   3.820   8.218   6.066  0.7789 -0.5654  0.3655
  192MOL0     C25227   3.946   8.293   6.113  0.3742 -0.6518  0.4719
  192MOL0     C25228   3.938   8.447   6.102 -0.0552 -0.6669  0.0711
  192MOL0     N25229   3.922   8.489   5.961  0.6084  0.8520 -0.5369
  192MOL0     C25230   4.006   8.495   5.862 -1.9983  1.5465 -0.2567
  192MOL0     C25231   3.946   8.552   5.755  0.2381  0.4281 -1.5706
  192MOL0     C25232   3.996   8.581   5.613  0.2848  0.6351  0.7449
  192MOL0     C25233   3.943   8.715   5.567 -0.5894 -0.5118 -0.4899
  192MOL0     C25234   3.991   8.760   5.430 -0.4600  0.3098  0.7552
  192MOL0     C25235   3.919   8.888   5.379  0.2439 -0.3027  0.2493
  192MOL0     O25236   4.013   8.981   5.331 -0.0998  0.3529  0.8569
  192MOL0     C25237   4.034   9.082   5.415 -0.7682  0.1166 -0.1556
  192MOL0     C25238   4.018   9.212   5.365 -0.2337 -0.0528  0.2200
  192MOL0     C25239   4.035   9.330   5.439 -0.4567  0.6761 -0.5718
  192MOL0     C25240   4.050   9.318   5.581 -0.1659  0.4431  0.3200
  192MOL0     C25241   4.045   9.439   5.667  0.2971 -0.4580  0.2409
  192MOL0     O25242   4.068   9.556   5.597 -0.3555 -0.3380 -0.4333
  192MOL0     C25243   4.047   9.672   5.660  0.1710 -0.9226 -0.1831
  192MOL0     C25244   3.970   9.691   5.778  0.2127 -0.5269  0.2350
  192MOL0     C25245   3.970   9.826   5.831  0.0731  0.1039 -0.7431
  192MOL0     C25246   4.046   9.934   5.775  0.7396 -0.7120 -0.0115
  192MOL0     O25247   4.034  10.055   5.837  0.3146 -0.4282 -1.3132
  192MOL0     C25248   4.012  10.162   5.739 -0.2682  0.2503 -1.1466
  192MOL0     C25249   3.977  10.289   5.808  0.3760  1.0328 -0.3819
  192MOL0     C25250   3.923  10.397   5.720  0.1633 -0.1138 -0.6406
  192MOL0     C25251   3.937  10.539   5.790 -0.2400  0.3899 -0.4922
  192MOL0     C25252   3.848  10.628   5.713  0.2655 -0.3482 -0.1675
  192MOL0     C25253   3.923  10.688   5.591 -0.3735  0.4250  0.1265
  192MOL0     C25254   3.841  10.815   5.552  0.1877 -0.3866  0.1504
  192MOL0     C25255   3.933  10.901   5.464 -0.1422 -0.1611 -0.9939
  192MOL0    Cl25256   3.972  10.800   5.321  0.1702  0.6376  0.2947
  192MOL0     C25257   4.117   9.901   5.658  0.0632 -0.1901  0.0284
  192MOL0     C25258   4.123   9.775   5.604 -0.3328  0.4470 -0.3387
  192MOL0     O25259   4.050   9.429   5.791 -0.2591 -0.7150 -0.1153
  192MOL0     C25260   4.068   9.190   5.636  0.0269 -0.7148 -0.1722
  192MOL0     C25261   4.065   9.075   5.557 -0.1271  0.2321  0.4869
  192MOL0     N25262   3.817   8.568   5.792  0.5787 -0.3444  0.2451
  192MOL0     N25263   3.806   8.544   5.919  0.7504 -0.0413 -0.5482
  192MOL0     C25264   3.419   8.244   5.328  0.8317  0.6697 -0.5640
  192MOL0     C25265   3.438   8.341   5.228 -0.7105 -0.1140 -0.1825
  192MOL0     C25266   3.553   8.766   5.032  0.2219 -0.5505 -0.3093
  192MOL0     C25267   3.594   8.896   5.053 -0.2635 -0.5380 -0.2676
  192MOL0     C25268   3.621   8.978   4.946  0.6983 -0.1485 -0.1125
  192MOL0     C25269   3.599   8.931   4.810  0.2138 -0.2041  1.6581
  192MOL0     O25270   3.622   9.016   4.693  0.3806  0.0231 -0.2079
  192MOL0     C25271   3.623   9.154   4.709  0.4214 -0.1850  0.0297
  192MOL0     C25272   3.575   9.233   4.592  0.3389 -0.1428 -1.2386
  192MOL0     C25273   3.642   9.189   4.465  0.0628  0.4542 -0.1652
  192MOL0     C25274   3.564   9.235   4.345 -0.5615 -0.5658  0.2235
  192MOL0     C25275   3.621   9.169   4.228 -0.6684 -0.1112 -0.1909
  192MOL0     C25276   3.696   9.115   4.147  0.8346 -1.1089  0.8638
  192MOL0     C25277   3.568   8.800   4.792 -0.8164  0.0686  0.8401
  192MOL0     C25278   3.533   8.720   4.901 -0.2131 -0.9206 -1.5545
  192MOL0     H25279   3.658   8.543   5.371  1.7409 -0.2160 -0.5550
  192MOL0     H25280   3.597   8.393   5.573 -2.8500 -0.3479  0.9709
  192MOL0     H25281   3.595   8.052   5.494  0.6167 -2.5496  2.1394
  192MOL0     H25282   3.426   7.990   5.534 -0.7162 -0.6701  1.7187
  192MOL0     H25283   3.545   7.936   5.734 -0.3008 -0.5211 -0.1939
  192MOL0     H25284   3.452   8.085   5.762  0.7567 -0.3187  0.6145
  192MOL0     H25285   3.692   8.200   5.666  0.1341 -1.5628 -2.6968
  192MOL0     H25286   3.765   8.046   5.717 -0.0648 -0.9683 -0.5967
  192MOL0     H25287   3.616   8.242   5.895  1.4370  1.9411 -1.0290
  192MOL0     H25288   3.651   8.069   5.916  2.8007 -0.7762 -1.5444
  192MOL0     H25289   3.841   8.292   5.851 -0.2443 -0.6597 -1.2653
  192MOL0     H25290   3.917   8.143   5.895  2.9293  3.6535  0.7082
  192MOL0     H25291   3.804   8.124   6.121  2.1871 -0.6928  0.5937
  192MOL0     H25292   3.735   8.280   6.096 -0.1858 -2.3319  1.4738
  192MOL0     H25293   3.958   8.251   6.213 -3.4609 -0.8219  0.9913
  192MOL0     H25294   4.041   8.277   6.060  0.3819 -4.7992  1.4282
  192MOL0     H25295   4.026   8.497   6.143  0.6048  0.4929 -2.5738
  192MOL0     H25296   3.849   8.474   6.159 -0.1079 -2.4079  0.8840
  192MOL0     H25297   4.111   8.468   5.872 -2.0568  1.9301  1.8377
  192MOL0     H25298   3.962   8.505   5.542  0.1910  0.3263  1.1169
  192MOL0     H25299   4.104   8.591   5.596  0.7136 -0.2827  2.6213
  192MOL0     H25300   3.971   8.794   5.637 -0.6705 -1.9943  1.3052
  192MOL0     H25301   3.834   8.708   5.577 -0.9819  3.2889 -0.9025
  192MOL0     H25302   4.100   8.774   5.430 -0.2448 -1.0745  2.6083
  192MOL0     H25303   3.974   8.674   5.365  0.7149 -0.0809  0.9395
  192MOL0     H25304   3.861   8.929   5.462  0.4722  0.8351 -0.1444
  192MOL0     H25305   3.856   8.868   5.292 -0.8916  1.7312  0.5635
  192MOL0     H25306   4.001   9.207   5.258 -2.3113 -0.5134  0.5343
  192MOL0     H25307   4.030   9.425   5.386 -1.5438  1.8801  1.5569
  192MOL0     H25308   3.901   9.624   5.828 -1.0739  0.4210 -0.1959
  192MOL0     H25309   3.907   9.832   5.919 -0.3780 -0.6681 -1.0095
  192MOL0     H25310   3.923  10.137   5.681  0.2111 -0.3097 -1.6458
  192MOL0     H25311   4.086  10.173   5.659  0.2888  3.0251 -0.3707
  192MOL0     H25312   4.067  10.327   5.856  1.5343 -0.1040 -1.5617
  192MOL0     H25313   3.912  10.259   5.891 -0.4068 -1.6286 -1.8243
  192MOL0     H25314   3.822  10.373   5.685 -0.2822 -0.0940  0.5623
  192MOL0     H25315   3.985  10.403   5.631 -0.7950  0.6589 -1.2786
  192MOL0     H25316   3.923  10.524   5.897  0.9651 -1.5005 -0.5590
  192MOL0     H25317   4.043  10.568   5.780  0.7239 -2.7100 -0.2558
  192MOL0     H25318   3.815  10.712   5.775 -0.2288  0.5565 -1.5928
  192MOL0     H25319   3.751  10.586   5.684 -1.8967  3.4563  0.8086
  192MOL0     H25320   3.941  10.612   5.514 -2.6888 -1.4262  1.2884
  192MOL0     H25321   4.021  10.717   5.629  0.7713 -3.1382  0.2390
  192MOL0     H25322   3.766  10.783   5.478  1.8211  1.2824 -2.3988
  192MOL0     H25323   3.795  10.874   5.632  1.7608  1.7155 -0.4099
  192MOL0     H25324   4.027  10.924   5.515  0.1624  1.3089 -2.1640
  192MOL0     H25325   3.877  10.991   5.440 -1.4743 -0.3222  1.1949
  192MOL0     H25326   4.189   9.976   5.627 -0.1164  0.2801  0.7422
  192MOL0     H25327   4.188   9.756   5.519 -0.8806  1.8313 -1.1073
  192MOL0     H25328   4.081   9.163   5.740 -1.1687 -0.9034 -0.0632
  192MOL0     H25329   4.076   8.985   5.617  0.2706 -0.6256 -0.8270
  192MOL0     H25330   3.356   8.160   5.300 -0.6819  0.6507  2.4832
  192MOL0     H25331   3.409   8.312   5.128 -0.3629 -0.8586 -0.0678
  192MOL0     H25332   3.616   8.934   5.152  2.1862  2.4835 -1.8099
  192MOL0     H25333   3.641   9.081   4.976 -1.9034 -0.0701  1.6999
  192MOL0     H25334   3.720   9.202   4.727 -0.1128  1.6824 -1.6651
  192MOL0     H25335   3.569   9.187   4.799  1.0287  2.7904 -0.6014
  192MOL0     H25336   3.465   9.235   4.588  0.3224  2.1752 -0.6791
  192MOL0     H25337   3.597   9.340   4.596 -0.7187  0.0743 -0.5549
  192MOL0     H25338   3.646   9.080   4.465 -2.5878  0.2588  2.2099
  192MOL0     H25339   3.742   9.232   4.452 -0.4637  1.2476 -1.9448
  192MOL0     H25340   3.459   9.204   4.347 -1.2203  1.5510  0.5611
  192MOL0     H25341   3.579   9.341   4.324 -4.5277 -0.3750 -2.8641
  192MOL0     H25342   3.751   9.083   4.061  0.3219 -0.9031  0.4489
  192MOL0     H25343   3.568   8.782   4.685 -0.6438  2.6871  0.3130
  192MOL0     H25344   3.511   8.614   4.898  1.0582 -1.2569 -0.1280
  193MOL0     O25345   0.941   1.979   3.850  0.4601  1.0922 -0.0939
  193MOL0     C25346   0.834   2.042   3.821 -0.0688 -0.8237 -0.0157
  193MOL0     O25347   0.725   2.051   3.894 -0.3479  0.0778  0.0437
  193MOL0     C25348   0.691   1.959   3.988 -0.1084  0.0611 -0.3266
  193MOL0     C25349   0.725   1.828   3.979  0.3289 -0.3578 -0.5757
  193MOL0     C25350   0.691   1.741   4.085  0.5478  0.2765 -0.7356
  193MOL0     C25351   0.614   1.783   4.203  0.4638 -0.7237 -0.7838
  193MOL0     O25352   0.559   1.708   4.309  0.5056  0.0376  0.0330
  193MOL0     C25353   0.582   1.565   4.295 -0.4550 -0.7792  0.3210
  193MOL0     C25354   0.718   1.544   4.348 -0.8017  0.5618 -0.5427
  193MOL0     C25355   0.757   1.409   4.300  0.4378  1.1294 -0.1919
  193MOL0     C25356   0.675   1.296   4.362 -0.9819 -0.1391  0.0386
  193MOL0     C25357   0.709   1.298   4.512 -0.7755 -0.2095  0.4150
  193MOL0     C25358   0.633   1.182   4.572 -0.7243 -0.0640 -0.2857
  193MOL0     C25359   0.687   1.144   4.708 -0.1976 -0.0335  0.8549
  193MOL0     C25360   0.581   1.050   4.778 -0.2245  0.1928  1.1881
  193MOL0     N25361   0.658   0.967   4.876 -0.1585 -0.0550  0.2419
  193MOL0     C25362   0.620   0.933   5.007 -0.2691  0.5674  0.5647
  193MOL0     C25363   0.711   0.842   5.048 -0.3083  1.3048  0.6023
  193MOL0     C25364   0.707   0.784   5.181 -0.0575  0.4696 -0.7137
  193MOL0     C25365   0.805   0.660   5.197  0.8142  0.0313  0.5632
  193MOL0     C25366   0.756   0.551   5.110 -0.9414  0.6887  0.1360
  193MOL0     C25367   0.776   0.405   5.167 -0.0482 -0.2244 -0.4647
  193MOL0     O25368   0.911   0.372   5.197 -0.4843 -0.2332  0.1840
  193MOL0     C25369   0.933   0.242   5.216  0.2157  0.2656 -0.3471
  193MOL0     C25370   1.048   0.213   5.284  0.1056 -0.7064  0.3630
  193MOL0     C25371   1.083   0.084   5.329  0.7092  0.1294  0.1406
  193MOL0     C25372   0.994  -0.027   5.299  0.3281  0.6090 -0.2965
  193MOL0     C25373   1.010  -0.164   5.359 -0.4260  0.0958  0.5213
  193MOL0     O25374   0.961  -0.270   5.283 -0.2474 -0.5541 -0.7645
  193MOL0     C25375   0.959  -0.406   5.339  0.9458  0.9948 -0.9263
  193MOL0     C25376   1.010  -0.509   5.253  0.2576  0.0189  0.6285
  193MOL0     C25377   1.025  -0.640   5.304 -0.5324  0.2942  0.4958
  193MOL0     C25378   0.995  -0.666   5.436  0.2253  1.2803 -0.2211
  193MOL0     O25379   1.024  -0.782   5.509  0.2617 -0.0398  0.6988
  193MOL0     C25380   1.159  -0.825   5.494  0.4244  0.8552 -1.0413
  193MOL0     C25381   1.261  -0.726   5.550  0.1762 -0.0656 -0.5041
  193MOL0     C25382   1.220  -0.658   5.688 -0.3830  0.6443  0.0547
  193MOL0     C25383   1.347  -0.627   5.774  0.2635 -1.1096  0.4737
  193MOL0     C25384   1.410  -0.742   5.838  0.5984 -0.3405 -0.2976
  193MOL0     C25385   1.544  -0.702   5.900 -0.5647  1.2454  0.6384
  193MOL0     C25386   1.601  -0.806   5.992  0.2398 -0.2705  0.1196
  193MOL0     C25387   1.752  -0.773   6.015 -0.2731 -0.1872 -0.1278
  193MOL0    Cl25388   1.807  -0.611   6.061 -0.1540 -0.4040 -0.5654
  193MOL0     C25389   0.934  -0.567   5.517  0.3886 -0.1226  0.4238
  193MOL0     C25390   0.935  -0.428   5.474 -0.2108  0.8125 -0.9440
  193MOL0     O25391   1.072  -0.176   5.462 -0.2884  0.3007  0.1139
  193MOL0     C25392   0.880  -0.007   5.215 -0.6496  0.6482  0.1866
  193MOL0     C25393   0.851   0.129   5.181 -0.4086  0.4594  0.4327
  193MOL0     N25394   0.803   0.823   4.938  0.7927  0.2507 -0.5269
  193MOL0     N25395   0.763   0.892   4.837 -0.2864  0.6708 -0.2413
  193MOL0     C25396   0.587   1.915   4.206 -0.1654  0.1661 -0.2738
  193MOL0     C25397   0.627   2.007   4.109  0.1508  1.0349  0.0244
  193MOL0     C25398   0.837   2.106   3.688  0.2133 -0.5483 -0.0038
  193MOL0     C25399   0.942   2.094   3.598  0.6498 -0.6337  1.4980
  193MOL0     C25400   0.930   2.143   3.469 -0.5227  0.2054 -0.9956
  193MOL0     C25401   0.816   2.226   3.441  0.1908 -0.1827  0.5453
  193MOL0     O25402   0.812   2.282   3.314  0.3995  0.4548  0.1504
  193MOL0     C25403   0.689   2.277   3.233 -0.1963 -0.1332 -0.2812
  193MOL0     C25404   0.704   2.339   3.095  0.3309 -0.4782 -0.3362
  193MOL0     C25405   0.720   2.491   3.108  0.4391 -0.1148  0.1307
  193MOL0     C25406   0.759   2.541   2.969 -0.1191  0.8984  0.1819
  193MOL0     C25407   0.782   2.682   2.999  0.5942  0.2560  0.6504
  193MOL0     C25408   0.820   2.794   3.009 -0.4156 -0.1473  0.9731
  193MOL0     C25409   0.704   2.258   3.533  0.1016 -0.4499 -0.0703
  193MOL0     C25410   0.723   2.197   3.655 -0.0272  0.4922  0.5685
  193MOL0     H25411   0.779   1.791   3.892 -2.3835 -0.4823 -2.3101
  193MOL0     H25412   0.708   1.634   4.078  0.0220 -0.0992  2.2528
  193MOL0     H25413   0.576   1.540   4.189 -0.3326  0.9832 -0.1460
  193MOL0     H25414   0.515   1.496   4.347 -1.4787  0.3284  0.5211
  193MOL0     H25415   0.706   1.545   4.456 -1.3984 -2.1080 -0.5171
  193MOL0     H25416   0.791   1.622   4.325 -0.8632  0.6474 -0.4481
  193MOL0     H25417   0.865   1.392   4.300  0.2669 -0.2385 -1.3764
  193MOL0     H25418   0.740   1.409   4.192 -3.2394  0.5923  0.2511
  193MOL0     H25419   0.567   1.303   4.350 -0.7357  1.7600 -1.5723
  193MOL0     H25420   0.710   1.208   4.307  1.8849  1.1351 -0.3590
  193MOL0     H25421   0.690   1.389   4.569  0.1580 -0.5304  1.2696
  193MOL0     H25422   0.817   1.283   4.525 -0.5660  0.8192 -0.0715
  193MOL0     H25423   0.652   1.097   4.506  0.8830  1.0451 -1.3241
  193MOL0     H25424   0.526   1.202   4.575 -1.2033 -1.3149 -4.0844
  193MOL0     H25425   0.776   1.092   4.672 -0.3353 -0.6030  1.3227
  193MOL0     H25426   0.710   1.227   4.775 -0.9944 -0.0522  1.1680
  193MOL0     H25427   0.545   0.969   4.713  1.7058 -1.1016  1.6669
  193MOL0     H25428   0.489   1.100   4.811 -3.1287 -1.2335 -3.5862
  193MOL0     H25429   0.543   0.969   5.074  0.6143 -0.2853  2.0975
  193MOL0     H25430   0.610   0.747   5.215 -0.5358 -0.6219 -3.0366
  193MOL0     H25431   0.757   0.857   5.245  1.4763  0.6828 -2.0895
  193MOL0     H25432   0.795   0.626   5.300  2.1077 -1.0711  0.3570
  193MOL0     H25433   0.909   0.686   5.177  0.9261 -0.7607  0.0667
  193MOL0     H25434   0.655   0.562   5.069 -1.1890 -1.8182 -0.0664
  193MOL0     H25435   0.822   0.561   5.023 -1.0937 -1.2954 -0.2499
  193MOL0     H25436   0.733   0.336   5.094 -2.1443  0.4650  0.0379
  193MOL0     H25437   0.708   0.411   5.252  0.6027  1.5819 -0.0241
  193MOL0     H25438   1.101   0.291   5.337 -4.0110  0.7949  2.6510
  193MOL0     H25439   1.148   0.061   5.412 -0.6936 -0.2411  1.1905
  193MOL0     H25440   1.029  -0.483   5.150  0.2134 -0.7550  0.4233
  193MOL0     H25441   1.056  -0.724   5.243 -1.4970  0.9795 -1.0081
  193MOL0     H25442   1.199  -0.841   5.393  0.6078  0.4476 -0.9070
  193MOL0     H25443   1.159  -0.912   5.560  0.6265  2.1067  0.6779
  193MOL0     H25444   1.285  -0.653   5.472  2.0916  0.5288  0.5665
  193MOL0     H25445   1.352  -0.785   5.565 -0.3003 -1.0834 -1.5039
  193MOL0     H25446   1.148  -0.713   5.749  1.1098 -3.0953 -1.2172
  193MOL0     H25447   1.184  -0.558   5.662 -0.1378  1.2013  1.7429
  193MOL0     H25448   1.424  -0.578   5.714  0.9730  1.2109  3.1122
  193MOL0     H25449   1.320  -0.568   5.861 -0.3577 -0.7573  0.0523
  193MOL0     H25450   1.427  -0.824   5.767  1.5038 -0.8106  0.4451
  193MOL0     H25451   1.349  -0.782   5.919  1.3058  1.0095  0.9433
  193MOL0     H25452   1.545  -0.612   5.962 -0.7768  3.1986 -1.9915
  193MOL0     H25453   1.611  -0.676   5.818  0.9640  1.2395  1.8486
  193MOL0     H25454   1.558  -0.811   6.092  0.8789 -0.8740  0.3776
  193MOL0     H25455   1.581  -0.900   5.939 -3.8828  1.4060 -1.7043
  193MOL0     H25456   1.817  -0.814   5.937 -0.9591 -3.5241  0.8655
  193MOL0     H25457   1.784  -0.840   6.095 -1.7411 -0.2569  0.4297
  193MOL0     H25458   0.906  -0.581   5.622 -2.8645 -0.5580 -0.3844
  193MOL0     H25459   0.918  -0.344   5.542  2.2710 -1.8519  3.4167
  193MOL0     H25460   0.821  -0.091   5.181 -1.3272  0.2581  2.2214
  193MOL0     H25461   0.763   0.143   5.119 -0.7665  2.9986  1.4069
  193MOL0     H25462   0.529   1.952   4.290  2.6065 -1.3066  2.5254
  193MOL0     H25463   0.609   2.112   4.127 -4.3435  0.8444 -1.9572
  193MOL0     H25464   1.028   2.040   3.637  0.2016 -0.8533  2.2016
  193MOL0     H25465   1.008   2.120   3.397  0.1208 -0.4218 -0.1215
  193MOL0     H25466   0.614   2.344   3.278  3.8101  5.6427 -1.1657
  193MOL0     H25467   0.649   2.175   3.229 -2.4261  0.6402  0.2959
  193MOL0     H25468   0.792   2.287   3.057  1.8566  2.2292 -0.7201
  193MOL0     H25469   0.609   2.331   3.041 -0.6934 -2.4848  1.6036
  193MOL0     H25470   0.789   2.519   3.188 -0.7199  1.4837  0.6159
  193MOL0     H25471   0.628   2.546   3.127  1.9314  2.1648  1.1329
  193MOL0     H25472   0.847   2.487   2.933 -0.5659  0.7155 -0.6452
  193MOL0     H25473   0.677   2.527   2.898  0.0464  0.1018  0.1357
  193MOL0     H25474   0.856   2.893   3.027  0.5007 -0.4775  0.9656
  193MOL0     H25475   0.619   2.317   3.502  0.7310 -0.0350 -1.0506
  193MOL0     H25476   0.650   2.207   3.735 -0.8430 -0.0040 -0.1019
  194MOL0     O25477   3.332   0.651   0.053  0.1114  1.0109 -1.0989
  194MOL0     C25478   3.280   0.554  -0.000 -0.5219  0.6092  0.0856
  194MOL0     O25479   3.158   0.494   0.033  0.5586 -0.8391 -0.7068
  194MOL0     C25480   3.102   0.509   0.151 -0.0354 -0.0509 -0.0575
  194MOL0     C25481   3.087   0.406   0.240  0.7421 -0.4555 -0.2044
  194MOL0     C25482   3.047   0.425   0.371 -0.0508  0.1748 -0.3416
  194MOL0     C25483   3.008   0.554   0.410 -0.0649  0.4199  0.2408
  194MOL0     O25484   2.943   0.559   0.534  0.0420 -0.3199  1.0764
  194MOL0     C25485   2.897   0.685   0.586  0.0854 -0.0255 -0.0266
  194MOL0     C25486   2.863   0.647   0.729 -0.5895  0.6300 -0.1988
  194MOL0     C25487   2.979   0.683   0.826  0.8100 -0.3683  0.3446
  194MOL0     C25488   2.992   0.834   0.849  0.9455  0.6734  0.5526
  194MOL0     C25489   3.068   0.858   0.975  0.5346  0.0767  0.6119
  194MOL0     C25490   3.189   0.951   0.953  0.2026  0.1223 -0.1870
  194MOL0     C25491   3.263   0.986   1.082  0.0256 -0.6253  0.2040
  194MOL0     C25492   3.194   1.109   1.139 -1.8195  0.2404 -0.9706
  194MOL0     N25493   3.192   1.227   1.058  0.0388 -0.0529 -0.2715
  194MOL0     C25494   3.300   1.311   1.041  0.0075 -0.1996  0.4674
  194MOL0     C25495   3.265   1.394   0.946  0.3584  0.4374 -0.3699
  194MOL0     C25496   3.341   1.522   0.914 -0.8178 -0.4305  0.0850
  194MOL0     C25497   3.316   1.631   1.019 -0.6076  0.5307  0.3795
  194MOL0     C25498   3.427   1.743   1.002 -0.2505  0.9978  0.3078
  194MOL0     C25499   3.535   1.750   1.112  0.4060 -0.2716 -0.5827
  194MOL0     O25500   3.617   1.630   1.103  0.5108 -0.1696  0.4335
  194MOL0     C25501   3.748   1.644   1.132 -1.0918  1.1506 -0.2127
  194MOL0     C25502   3.800   1.727   1.226 -0.2837 -0.2590  0.1039
  194MOL0     C25503   3.939   1.747   1.243 -0.6862  0.2285 -0.1426
  194MOL0     C25504   4.034   1.674   1.165 -0.3880 -0.9378 -0.4672
  194MOL0     C25505   4.174   1.710   1.171  0.7398 -0.1146  0.5088
  194MOL0     O25506   4.260   1.627   1.114 -0.1695  0.3268 -0.6931
  194MOL0     C25507   4.393   1.661   1.129  0.0658  0.7723  0.3299
  194MOL0     C25508   4.469   1.640   1.247  0.6363 -1.4675  0.7596
  194MOL0     C25509   4.607   1.682   1.248  0.9550  0.2293  0.3681
  194MOL0     C25510   4.679   1.712   1.132  0.5216  0.3347  0.3206
  194MOL0     O25511   4.808   1.755   1.130 -0.2471 -0.4303 -0.5983
  194MOL0     C25512   4.899   1.650   1.171 -0.0818  0.0559  0.5522
  194MOL0     C25513   5.041   1.696   1.187 -0.5072  0.5799  0.3087
  194MOL0     C25514   5.131   1.614   1.290  1.7940  0.7968 -0.1471
  194MOL0     C25515   5.283   1.638   1.272  0.6460 -0.0020 -0.4981
  194MOL0     C25516   5.366   1.534   1.352 -0.1436 -0.4866 -0.5426
  194MOL0     C25517   5.344   1.528   1.509 -0.2845 -0.7068  0.5510
  194MOL0     C25518   5.430   1.419   1.573  0.3221 -0.4263  0.2527
  194MOL0     C25519   5.462   1.452   1.719 -0.2423  0.7184 -0.2312
  194MOL0    Cl25520   5.319   1.394   1.809 -0.1615  0.0664  0.2672
  194MOL0     C25521   4.608   1.721   1.012  0.3215  1.0960 -0.3987
  194MOL0     C25522   4.472   1.690   1.020 -0.3382 -0.1742  0.2724
  194MOL0     O25523   4.206   1.805   1.246  0.0598 -0.4882  0.0143
  194MOL0     C25524   3.980   1.573   1.080  0.4415  0.6068  0.4828
  194MOL0     C25525   3.835   1.556   1.069 -0.6675 -0.9018  0.0698
  194MOL0     N25526   3.147   1.363   0.898 -0.4096 -0.1303  0.9092
  194MOL0     N25527   3.094   1.266   0.971  0.0042 -0.2249 -0.0393
  194MOL0     C25528   3.006   0.655   0.322 -0.1529 -1.2477  0.7407
  194MOL0     C25529   3.058   0.642   0.191 -0.2763  0.6893  0.4878
  194MOL0     C25530   3.346   0.502  -0.119 -0.4605 -0.6139  1.3014
  194MOL0     C25531   3.412   0.580  -0.220  0.2687  0.6193  0.0170
  194MOL0     C25532   3.474   0.518  -0.327  0.8516 -0.1709  0.2079
  194MOL0     C25533   3.476   0.381  -0.341  0.9687  0.2487 -0.5208
  194MOL0     O25534   3.532   0.306  -0.441  0.2153  0.2316  0.8098
  194MOL0     C25535   3.562   0.385  -0.555 -0.4701  0.0467 -0.5678
  194MOL0     C25536   3.595   0.298  -0.669 -0.4940 -0.0178 -0.4277
  194MOL0     C25537   3.465   0.222  -0.715 -0.9958 -0.3184 -0.4427
  194MOL0     C25538   3.493   0.160  -0.855 -0.7830  0.3344  0.5203
  194MOL0     C25539   3.383   0.087  -0.916  1.4892  0.1179 -0.1409
  194MOL0     C25540   3.302   0.021  -0.983 -0.9722  0.7962  0.7159
  194MOL0     C25541   3.421   0.299  -0.229  0.2602 -0.7065  0.2938
  194MOL0     C25542   3.347   0.364  -0.130 -0.0367  1.0098 -0.1357
  194MOL0     H25543   3.136   0.314   0.211  3.1757  1.0641 -1.2961
  194MOL0     H25544   3.029   0.351   0.448 -2.0301  1.7063  0.7745
  194MOL0     H25545   2.825   0.740   0.523  1.7189  3.2839  0.7813
  194MOL0     H25546   2.984   0.750   0.583  0.2160 -0.1242  1.1787
  194MOL0     H25547   2.839   0.540   0.738 -0.9202  0.8992  4.7845
  194MOL0     H25548   2.781   0.714   0.756  0.8078  1.8897  1.1471
  194MOL0     H25549   3.075   0.661   0.779  2.9844  2.8992  2.7809
  194MOL0     H25550   2.959   0.629   0.919  2.2830  0.6330  1.2761
  194MOL0     H25551   3.026   0.890   0.761  0.0815 -2.1933 -1.7570
  194MOL0     H25552   2.888   0.869   0.854  0.4582 -0.7512  0.9221
  194MOL0     H25553   3.099   0.762   1.016  3.1742 -0.2331 -1.7854
  194MOL0     H25554   3.004   0.905   1.051 -0.0372  2.3102 -1.1271
  194MOL0     H25555   3.151   1.042   0.906 -2.1712 -0.4261  0.5413
  194MOL0     H25556   3.258   0.890   0.893 -1.4254 -1.1687 -0.8265
  194MOL0     H25557   3.248   0.896   1.143 -1.3121 -0.9095 -0.4858
  194MOL0     H25558   3.367   1.004   1.053 -0.3967  2.0835  0.1472
  194MOL0     H25559   3.248   1.134   1.230  2.4119  0.2280 -3.2472
  194MOL0     H25560   3.092   1.081   1.169 -1.6568  2.2667  1.9508
  194MOL0     H25561   3.393   1.329   1.094 -2.3596  3.4769  3.8913
  194MOL0     H25562   3.314   1.559   0.815 -2.8340  4.9232  2.2461
  194MOL0     H25563   3.445   1.489   0.914 -0.9463 -0.8384  0.0424
  194MOL0     H25564   3.334   1.594   1.120 -1.4735  0.0593  0.3655
  194MOL0     H25565   3.214   1.672   1.014 -2.7404 -3.9225  1.8364
  194MOL0     H25566   3.468   1.749   0.901  1.9418 -1.5648  0.9501
  194MOL0     H25567   3.366   1.834   1.014 -1.8627  0.3735 -2.2462
  194MOL0     H25568   3.480   1.754   1.206 -0.2965 -1.0274 -0.9455
  194MOL0     H25569   3.586   1.845   1.095 -2.9429  1.4383 -2.1862
  194MOL0     H25570   3.736   1.794   1.282  0.4337 -1.4249  2.4448
  194MOL0     H25571   3.962   1.820   1.321 -5.5854  1.1923  0.7082
  194MOL0     H25572   4.411   1.611   1.334  0.3711  0.5088  1.2958
  194MOL0     H25573   4.653   1.688   1.346  1.5590 -2.6916  0.3647
  194MOL0     H25574   4.890   1.570   1.097  0.1067  0.0026  0.5865
  194MOL0     H25575   4.862   1.600   1.261 -0.2456 -3.9170 -1.5336
  194MOL0     H25576   5.037   1.800   1.217 -1.9670  0.3832  0.8555
  194MOL0     H25577   5.081   1.714   1.087 -0.7378  4.2047  0.7375
  194MOL0     H25578   5.108   1.507   1.280 -1.1702  1.2886  0.4603
  194MOL0     H25579   5.098   1.639   1.391 -2.7556 -0.9553 -0.9625
  194MOL0     H25580   5.316   1.623   1.168  1.0225 -2.1448 -0.1040
  194MOL0     H25581   5.296   1.741   1.307  0.9989 -0.9958  2.5132
  194MOL0     H25582   5.470   1.559   1.330 -0.1295  2.1820  1.9699
  194MOL0     H25583   5.343   1.434   1.314  0.3819 -1.3228  1.2685
  194MOL0     H25584   5.241   1.495   1.522 -0.2712 -2.7733 -3.2221
  194MOL0     H25585   5.370   1.624   1.554 -1.5104  0.1153 -0.4424
  194MOL0     H25586   5.387   1.319   1.562  0.4894 -0.4341 -0.4219
  194MOL0     H25587   5.529   1.416   1.525 -0.6090 -0.2310 -1.7999
  194MOL0     H25588   5.494   1.554   1.740 -0.8996  0.3877  2.9712
  194MOL0     H25589   5.547   1.396   1.758 -1.5986 -2.0674 -0.9742
  194MOL0     H25590   4.643   1.748   0.913 -2.2173 -1.3385 -2.1078
  194MOL0     H25591   4.422   1.703   0.925  1.4730  2.4670 -0.4642
  194MOL0     H25592   4.039   1.503   1.022 -2.6074 -1.7855  0.0317
  194MOL0     H25593   3.789   1.477   1.010 -3.4641 -0.0827  0.9853
  194MOL0     H25594   2.999   0.759   0.354  5.2109 -0.8076  1.4745
  194MOL0     H25595   3.061   0.731   0.129  3.1654  1.0300  0.9769
  194MOL0     H25596   3.410   0.689  -0.219  1.2509  0.6740  2.3970
  194MOL0     H25597   3.503   0.576  -0.414 -0.5131  2.6507  1.4940
  194MOL0     H25598   3.637   0.464  -0.545  1.3010 -1.1507 -3.1744
  194MOL0     H25599   3.467   0.431  -0.584 -1.9271 -1.5318  1.3997
  194MOL0     H25600   3.641   0.364  -0.743  3.0281 -0.3139  1.3424
  194MOL0     H25601   3.671   0.225  -0.639 -1.5484 -1.3985 -1.0023
  194MOL0     H25602   3.378   0.289  -0.711 -2.1857 -1.7312 -1.6460
  194MOL0     H25603   3.432   0.137  -0.656 -2.1799  1.4603  1.6056
  194MOL0     H25604   3.523   0.244  -0.917 -0.9261  0.1556  0.2029
  194MOL0     H25605   3.578   0.092  -0.839  0.4936  1.3732 -1.4457
  194MOL0     H25606   3.241  -0.051  -1.033  2.8417 -1.2171 -1.3965
  194MOL0     H25607   3.429   0.191  -0.235 -1.3422 -1.0030  2.2830
  194MOL0     H25608   3.292   0.308  -0.055  0.3568 -0.5176 -0.9552
  195MOL0     O25609   9.299   4.702   8.679 -0.1532 -0.1421  0.0347
  195MOL0     C25610   9.386   4.661   8.601 -0.1015  0.2115  0.1729
  195MOL0     O25611   9.480   4.567   8.623 -0.2474  0.2807 -0.1580
  195MOL0     C25612   9.502   4.532   8.750  0.3793 -0.3876  0.9711
  195MOL0     C25613   9.616   4.583   8.802 -0.5669 -0.5486 -0.5019
  195MOL0     C25614   9.667   4.528   8.919  0.3596 -0.1977 -0.3941
  195MOL0     C25615   9.594   4.433   8.985  0.7454  0.6221 -0.2429
  195MOL0     O25616   9.637   4.391   9.105  0.1931  0.0284 -1.0617
  195MOL0     C25617   9.721   4.474   9.181 -1.2037 -0.1097 -0.3458
  195MOL0     C25618   9.708   4.432   9.330 -0.0503  0.1854  0.4484
  195MOL0     C25619   9.813   4.517   9.412  0.0614  0.8147 -0.1640
  195MOL0     C25620   9.959   4.473   9.400  0.4450 -0.0541  0.7834
  195MOL0     C25621  10.036   4.516   9.529 -0.0252  0.0442  0.2002
  195MOL0     C25622  10.183   4.472   9.498 -0.1316  0.2202  0.3566
  195MOL0     C25623  10.266   4.503   9.625 -0.1856 -0.3386 -0.3703
  195MOL0     C25624  10.410   4.451   9.618  0.2661 -0.4942 -0.5656
  195MOL0     N25625  10.426   4.307   9.642 -0.4340 -0.0455  0.3628
  195MOL0     C25626  10.452   4.268   9.773  0.1573 -0.0261 -0.0139
  195MOL0     C25627  10.519   4.144   9.772 -0.9008  0.4381  0.1759
  195MOL0     C25628  10.564   4.062   9.893 -0.1550  0.0073 -0.1448
  195MOL0     C25629  10.641   3.942   9.856 -0.4590 -0.1133 -0.4149
  195MOL0     C25630  10.694   3.876   9.983 -0.2456 -0.1879 -0.0458
  195MOL0     C25631  10.753   3.737   9.953 -0.2963  0.0468 -0.3584
  195MOL0     O25632  10.805   3.677  10.074 -0.0405  0.7163  0.6331
  195MOL0     C25633  10.873   3.559  10.070 -0.1974  0.3178  0.2336
  195MOL0     C25634  10.920   3.489   9.953  0.4661 -0.3706  0.2494
  195MOL0     C25635  11.009   3.380   9.965 -0.9782 -0.4062 -0.5945
  195MOL0     C25636  11.050   3.339  10.094 -0.1334  0.1307 -0.1646
  195MOL0     C25637  11.161   3.234  10.108 -0.3307 -0.2271 -0.6740
  195MOL0     O25638  11.218   3.203   9.990  0.0579  0.2576  0.3753
  195MOL0     C25639  11.337   3.125   9.996 -0.1991 -0.2411  0.6709
  195MOL0     C25640  11.437   3.137  10.098 -0.5922 -0.0556 -0.1832
  195MOL0     C25641  11.541   3.039  10.095  0.2224 -0.9093 -0.8568
  195MOL0     C25642  11.565   2.955   9.990 -0.2050 -0.1564  0.6253
  195MOL0     O25643  11.678   2.890   9.997 -0.5966 -0.1544  0.5312
  195MOL0     C25644  11.699   2.774   9.914 -0.0742  0.9228  0.4603
  195MOL0     C25645  11.688   2.654  10.004  0.2354  0.2488 -0.2440
  195MOL0     C25646  11.557   2.565  10.001  0.3904 -0.1997 -0.1359
  195MOL0     C25647  11.542   2.478  10.119  0.6988  0.5037 -0.0000
  195MOL0     C25648  11.448   2.359  10.089  0.2562 -0.0379 -0.1570
  195MOL0     C25649  11.423   2.296  10.225 -0.4016 -0.3543  0.2035
  195MOL0     C25650  11.354   2.161  10.215 -1.1687 -0.0690  0.0332
  195MOL0     C25651  11.207   2.182  10.181 -0.1432  0.4531  0.3644
  195MOL0    Cl25652  11.108   2.042  10.226 -0.4636 -0.1012  0.2236
  195MOL0     C25653  11.467   2.952   9.883  0.3005  0.3439  0.3267
  195MOL0     C25654  11.357   3.033   9.888  0.2045  0.4026 -0.5025
  195MOL0     O25655  11.198   3.200  10.219 -0.4640  0.3907  0.4929
  195MOL0     C25656  10.998   3.409  10.204  0.9903 -0.2635 -0.0883
  195MOL0     C25657  10.909   3.518  10.196 -1.8364 -0.5414 -0.6534
  195MOL0     N25658  10.524   4.112   9.640 -0.9664  0.0275 -0.3707
  195MOL0     N25659  10.472   4.211   9.563 -0.7771 -0.3495 -0.1532
  195MOL0     C25660   9.473   4.380   8.931 -0.5141  0.0864 -1.1138
  195MOL0     C25661   9.426   4.442   8.814 -0.1508  0.4893 -0.6292
  195MOL0     C25662   9.375   4.710   8.464  0.6368  0.1576  0.0942
  195MOL0     C25663   9.473   4.699   8.361  0.5250 -0.0178 -0.3616
  195MOL0     C25664   9.458   4.743   8.225  0.5062  0.6670 -0.1813
  195MOL0     C25665   9.331   4.796   8.186 -0.4117 -0.5930 -0.0456
  195MOL0     O25666   9.296   4.836   8.062  0.7056 -0.2913  0.2573
  195MOL0     C25667   9.379   4.889   7.961 -0.3297 -0.0955  0.0286
  195MOL0     C25668   9.451   4.790   7.868  0.1615 -0.3452 -0.8371
  195MOL0     C25669   9.359   4.685   7.810  0.0507 -0.6393  0.5983
  195MOL0     C25670   9.433   4.622   7.688  0.8230  0.1349 -0.2509
  195MOL0     C25671   9.429   4.709   7.571  0.5367  0.3420 -0.0194
  195MOL0     C25672   9.421   4.776   7.477 -0.5967 -0.3243  0.7608
  195MOL0     C25673   9.234   4.798   8.286  0.4791 -0.2821 -0.0964
  195MOL0     C25674   9.250   4.759   8.412  0.4955 -0.0408  0.3917
  195MOL0     H25675   9.676   4.663   8.759 -1.6048  1.9705  2.3072
  195MOL0     H25676   9.759   4.579   8.945  1.1966 -1.3306 -1.0080
  195MOL0     H25677   9.703   4.582   9.178 -0.8904 -0.0695 -0.8138
  195MOL0     H25678   9.818   4.458   9.133 -2.0274 -0.3288 -2.0078
  195MOL0     H25679   9.730   4.325   9.339  3.3754  0.8613  1.2263
  195MOL0     H25680   9.607   4.455   9.367 -0.2078 -0.4056  0.3980
  195MOL0     H25681   9.777   4.493   9.513  2.1722 -0.8298  0.2740
  195MOL0     H25682   9.810   4.624   9.391 -4.7933  0.9960  0.2513
  195MOL0     H25683   9.967   4.364   9.411  2.2287  0.0605  0.8935
  195MOL0     H25684  10.010   4.499   9.307  1.2949  0.8151  1.4727
  195MOL0     H25685   9.990   4.464   9.613 -1.1308  0.8359  0.1035
  195MOL0     H25686  10.032   4.625   9.541  0.7068  0.1534 -0.4543
  195MOL0     H25687  10.213   4.536   9.414 -1.6249 -2.9709 -2.8501
  195MOL0     H25688  10.195   4.365   9.481  2.5712  0.0985  2.2048
  195MOL0     H25689  10.263   4.606   9.660 -0.2444  0.0110 -1.3643
  195MOL0     H25690  10.222   4.440   9.703  1.8187 -1.5776 -0.1531
  195MOL0     H25691  10.477   4.505   9.686  1.3140 -2.6913  0.2425
  195MOL0     H25692  10.447   4.468   9.517  3.7548  3.6435  1.0858
  195MOL0     H25693  10.433   4.334   9.857  0.8504 -1.1923  1.0969
  195MOL0     H25694  10.475   4.024   9.942  0.1460  1.6499  1.8129
  195MOL0     H25695  10.624   4.124   9.960  2.1743  1.3905 -3.2510
  195MOL0     H25696  10.729   3.985   9.809 -0.7533  4.0929  2.2590
  195MOL0     H25697  10.579   3.882   9.789 -0.8236 -1.8643  1.3835
  195MOL0     H25698  10.766   3.936  10.039 -1.6610  0.1774  1.4542
  195MOL0     H25699  10.607   3.864  10.049 -1.2089 -2.7430 -1.6042
  195MOL0     H25700  10.831   3.741   9.876  1.6737 -1.9070  1.4118
  195MOL0     H25701  10.681   3.661   9.922  0.7162 -0.1657 -2.3977
  195MOL0     H25702  10.906   3.524   9.851  3.3570 -1.0679 -0.4766
  195MOL0     H25703  11.040   3.334   9.872 -3.1348 -0.6045 -1.2602
  195MOL0     H25704  11.435   3.211  10.177 -0.6270 -1.8545  1.5649
  195MOL0     H25705  11.607   3.054  10.180 -1.2011  4.2371 -0.2937
  195MOL0     H25706  11.792   2.781   9.857  0.1653 -0.8428  0.5880
  195MOL0     H25707  11.619   2.769   9.839  0.9801  4.1878 -1.0848
  195MOL0     H25708  11.714   2.677  10.108  0.9855  1.2427 -0.6400
  195MOL0     H25709  11.761   2.584   9.964  1.3032  2.0884 -1.6563
  195MOL0     H25710  11.557   2.501   9.911  0.2968 -0.5501  0.1124
  195MOL0     H25711  11.468   2.627   9.993 -0.3479 -1.4153 -2.4011
  195MOL0     H25712  11.635   2.435  10.156  0.4276 -4.4500 -3.9994
  195MOL0     H25713  11.498   2.540  10.199 -0.4396 -1.5279  1.0261
  195MOL0     H25714  11.503   2.289  10.026  4.2731  2.5773  0.0116
  195MOL0     H25715  11.357   2.400  10.044  0.1324  2.7544  2.2784
  195MOL0     H25716  11.353   2.369  10.267  1.0420  1.0412  0.2632
  195MOL0     H25717  11.518   2.300  10.278 -2.2787  1.0026  3.8132
  195MOL0     H25718  11.401   2.109  10.131 -3.2491  0.0987 -1.3130
  195MOL0     H25719  11.372   2.100  10.304 -0.8245  0.7460  0.5291
  195MOL0     H25720  11.201   2.195  10.073 -1.1448  0.1894  0.3816
  195MOL0     H25721  11.165   2.273  10.224 -3.7071 -1.6769  1.8442
  195MOL0     H25722  11.470   2.883   9.799 -2.1033 -1.0462  1.3092
  195MOL0     H25723  11.283   3.040   9.809  0.6356 -2.6599 -1.2812
  195MOL0     H25724  11.031   3.377  10.302 -2.4111  0.1474  1.3384
  195MOL0     H25725  10.877   3.556  10.292  0.7452 -2.4889  1.1316
  195MOL0     H25726   9.422   4.306   8.991 -2.4598 -1.2281 -4.1376
  195MOL0     H25727   9.327   4.414   8.782  0.7709 -2.7367 -1.0303
  195MOL0     H25728   9.564   4.653   8.399 -1.1191 -0.3394  3.7201
  195MOL0     H25729   9.538   4.723   8.154  1.3706  2.2337  0.3054
  195MOL0     H25730   9.446   4.957   8.014  1.8855 -3.1135  1.4489
  195MOL0     H25731   9.303   4.940   7.901 -0.3886  0.6100  0.6936
  195MOL0     H25732   9.488   4.856   7.789  0.9842  1.6359  1.0900
  195MOL0     H25733   9.539   4.744   7.915  1.2653  0.2979 -2.1717
  195MOL0     H25734   9.263   4.725   7.776 -1.2670 -3.0936  1.1857
  195MOL0     H25735   9.344   4.621   7.897  3.0519  0.2734  1.9156
  195MOL0     H25736   9.539   4.599   7.703  1.1211  3.4337  5.3056
  195MOL0     H25737   9.380   4.528   7.669  1.6466 -0.2220 -0.8559
  195MOL0     H25738   9.408   4.840   7.392  2.3632  0.6099  0.9081
  195MOL0     H25739   9.136   4.835   8.258  1.2022  0.6968 -1.4088
  195MOL0     H25740   9.166   4.743   8.479  2.2780 -1.5122  2.4236
  196MOL0     O25741   0.268   2.354   8.352 -0.2227  0.9533  0.2867
  196MOL0     C25742   0.309   2.321   8.241  0.4995  0.0090  0.8087
  196MOL0     O25743   0.239   2.325   8.124 -0.0857 -0.4148  0.4422
  196MOL0     C25744   0.119   2.395   8.096  0.0751  0.6212 -0.0008
  196MOL0     C25745   0.003   2.356   8.162  0.0694  0.0296 -0.4202
  196MOL0     C25746  -0.111   2.428   8.151  0.6935  0.5681  0.1529
  196MOL0     C25747  -0.126   2.533   8.055 -0.5569 -0.4309  0.2581
  196MOL0     O25748  -0.235   2.606   8.049 -0.1506 -0.0143 -0.0770
  196MOL0     C25749  -0.339   2.593   8.142  0.7260 -0.0486  0.4442
  196MOL0     C25750  -0.458   2.687   8.118 -0.6423 -0.6299  0.1375
  196MOL0     C25751  -0.429   2.821   8.188 -0.3417  0.2015 -0.6413
  196MOL0     C25752  -0.564   2.898   8.184 -0.5014  0.4117 -0.6730
  196MOL0     C25753  -0.555   3.041   8.228 -0.5536 -0.5603  0.2262
  196MOL0     C25754  -0.467   3.132   8.134 -0.5803 -0.1304 -0.0680
  196MOL0     C25755  -0.467   3.275   8.183 -0.0957 -0.1946 -0.0371
  196MOL0     C25756  -0.446   3.386   8.076  0.0595 -1.2337 -0.5475
  196MOL0     N25757  -0.568   3.423   8.003 -0.5628  0.3072  0.5147
  196MOL0     C25758  -0.689   3.419   8.065  0.1634 -0.9503 -0.1831
  196MOL0     C25759  -0.786   3.387   7.967  0.3644  0.1334 -0.2068
  196MOL0     C25760  -0.937   3.396   7.996  0.0744  0.6169 -0.0668
  196MOL0     C25761  -1.019   3.350   7.888  0.3583 -0.0149  0.8720
  196MOL0     C25762  -1.001   3.205   7.837 -0.3205  0.1069 -1.1757
  196MOL0     C25763  -0.986   3.101   7.954  0.1029  0.1573  0.0817
  196MOL0     O25764  -1.001   2.981   7.899  0.3417 -0.4136  0.0419
  196MOL0     C25765  -1.024   2.871   7.983 -0.2266 -1.9032  0.7872
  196MOL0     C25766  -0.929   2.814   8.069  0.0274 -0.1818  1.1511
  196MOL0     C25767  -0.970   2.715   8.154 -0.5074 -0.2672 -0.2059
  196MOL0     C25768  -1.101   2.669   8.167  0.3348 -0.6757  0.2316
  196MOL0     C25769  -1.153   2.565   8.258 -0.6195  0.2314 -0.1618
  196MOL0     O25770  -1.064   2.520   8.351  0.6181  0.4424 -0.2704
  196MOL0     C25771  -1.090   2.408   8.431  1.2185  0.4252  0.2503
  196MOL0     C25772  -0.994   2.411   8.532 -0.0047 -0.2164 -0.0329
  196MOL0     C25773  -1.006   2.306   8.632 -0.8601  0.6814 -0.1575
  196MOL0     C25774  -1.106   2.197   8.611 -0.7952 -0.4822 -0.8278
  196MOL0     O25775  -1.107   2.078   8.683  0.8968  0.2908  0.5475
  196MOL0     C25776  -1.024   2.059   8.789 -0.0783  0.3534  0.2557
  196MOL0     C25777  -1.009   1.912   8.829 -0.0750 -0.2168 -0.7540
  196MOL0     C25778  -1.125   1.851   8.901 -0.1987  0.3419  0.0492
  196MOL0     C25779  -1.247   1.829   8.811  0.3127  0.0573 -0.4883
  196MOL0     C25780  -1.364   1.745   8.886 -0.0660 -0.6544 -0.0252
  196MOL0     C25781  -1.399   1.810   9.027 -0.0726 -1.0443  0.2526
  196MOL0     C25782  -1.536   1.785   9.078  0.7507 -0.8529 -0.6174
  196MOL0     C25783  -1.567   1.855   9.209 -0.8903  0.3850  0.0669
  196MOL0    Cl25784  -1.463   1.792   9.335  0.4020  0.3034 -0.3023
  196MOL0     C25785  -1.191   2.204   8.502 -1.0955  0.1644 -0.3678
  196MOL0     C25786  -1.184   2.309   8.415  0.9129 -0.4354 -0.0801
  196MOL0     O25787  -1.276   2.534   8.263 -0.2718 -0.0498 -0.2372
  196MOL0     C25788  -1.192   2.722   8.071  0.1195 -0.9302  0.2824
  196MOL0     C25789  -1.155   2.832   7.988  0.6325  0.6554 -0.0006
  196MOL0     N25790  -0.711   3.371   7.848 -0.6323 -0.7708  0.3515
  196MOL0     N25791  -0.577   3.387   7.874  0.2565  0.3616  0.3747
  196MOL0     C25792  -0.008   2.579   7.990  0.8766  0.1328 -0.2347
  196MOL0     C25793   0.114   2.511   8.016  1.1065 -0.0588  0.4428
  196MOL0     C25794   0.449   2.257   8.239  0.2933 -0.4125  0.5355
  196MOL0     C25795   0.514   2.245   8.111 -0.2368 -0.1518 -0.6348
  196MOL0     C25796   0.640   2.189   8.097 -0.1633 -0.6401 -0.1928
  196MOL0     C25797   0.708   2.135   8.206  0.0667 -0.4619 -0.0563
  196MOL0     O25798   0.820   2.061   8.181  0.1069  0.2429 -0.0100
  196MOL0     C25799   0.943   2.103   8.234  0.1887 -0.2242  0.3538
  196MOL0     C25800   1.026   2.178   8.118  0.3523  0.1239  0.1875
  196MOL0     C25801   1.078   2.100   8.002  0.8339  0.9005 -0.7010
  196MOL0     C25802   1.098   2.182   7.881  0.0080 -0.0320 -0.0913
  196MOL0     C25803   1.218   2.270   7.898 -0.7878 -0.1452  0.4096
  196MOL0     C25804   1.330   2.324   7.905  0.4170 -0.0216  0.7552
  196MOL0     C25805   0.644   2.141   8.328  0.6478 -0.3007 -0.3711
  196MOL0     C25806   0.518   2.210   8.350 -0.0752  0.3077 -0.6261
  196MOL0     H25807   0.022   2.272   8.228  2.3702 -0.6154 -1.7828
  196MOL0     H25808  -0.193   2.385   8.208 -0.3532  1.1459 -0.8601
  196MOL0     H25809  -0.299   2.606   8.243 -1.3623 -0.1965  1.3280
  196MOL0     H25810  -0.381   2.492   8.138 -0.7942  0.5748  0.2863
  196MOL0     H25811  -0.547   2.650   8.169 -1.0485  1.3185  0.9057
  196MOL0     H25812  -0.479   2.694   8.010  0.5005  0.4777 -0.0329
  196MOL0     H25813  -0.351   2.873   8.132 -1.5203 -0.8487 -3.4654
  196MOL0     H25814  -0.400   2.806   8.292 -1.6919  0.2064 -0.2512
  196MOL0     H25815  -0.601   2.891   8.081 -0.3209 -2.0746 -0.6463
  196MOL0     H25816  -0.636   2.838   8.242  1.2172  0.8156  2.0159
  196MOL0     H25817  -0.518   3.042   8.331 -0.2667 -1.1276  0.1338
  196MOL0     H25818  -0.654   3.086   8.229 -0.1119  0.6213  3.4708
  196MOL0     H25819  -0.502   3.133   8.030  1.9502  3.0841 -1.0564
  196MOL0     H25820  -0.365   3.095   8.122 -0.4646  0.7741 -2.3193
  196MOL0     H25821  -0.562   3.299   8.232  0.6306  0.2805  1.1918
  196MOL0     H25822  -0.383   3.289   8.252 -1.0716  0.0991  1.1280
  196MOL0     H25823  -0.367   3.356   8.006 -1.5760  0.0067 -3.0649
  196MOL0     H25824  -0.414   3.482   8.116  0.4216 -2.7324  3.1035
  196MOL0     H25825  -0.711   3.451   8.166  1.7909  1.6246 -0.5419
  196MOL0     H25826  -0.964   3.499   8.018  1.6901  0.9844  0.3113
  196MOL0     H25827  -0.950   3.337   8.087  0.4631 -0.8446 -0.9178
  196MOL0     H25828  -0.999   3.419   7.805 -3.9766  0.9537  0.3916
  196MOL0     H25829  -1.124   3.353   7.920  0.8395 -0.0875  2.5401
  196MOL0     H25830  -1.094   3.180   7.786 -2.1585 -1.7679  2.6406
  196MOL0     H25831  -0.911   3.198   7.775 -0.3025 -2.5228 -0.9800
  196MOL0     H25832  -1.061   3.114   8.033  1.1153 -1.8914  1.4598
  196MOL0     H25833  -0.888   3.126   7.996  0.7818 -0.6359 -1.0031
  196MOL0     H25834  -0.824   2.845   8.065 -0.7720  2.7581 -0.5399
  196MOL0     H25835  -0.894   2.666   8.214 -0.5914  1.3267  1.2894
  196MOL0     H25836  -0.918   2.486   8.549 -0.7168  0.6484 -0.6218
  196MOL0     H25837  -0.945   2.310   8.722  2.1647 -1.1200 -1.9500
  196MOL0     H25838  -1.048   2.124   8.874  0.1947  0.1729  0.4725
  196MOL0     H25839  -0.923   2.079   8.750  0.1763 -1.6521 -0.2047
  196MOL0     H25840  -0.915   1.898   8.883  0.4647  2.4955 -0.8576
  196MOL0     H25841  -0.990   1.865   8.732 -3.1233  0.4145 -1.7624
  196MOL0     H25842  -1.142   1.901   8.997 -0.9509 -1.2032  0.7614
  196MOL0     H25843  -1.095   1.749   8.929 -2.6535 -0.7189 -0.8246
  196MOL0     H25844  -1.281   1.930   8.782  0.6977 -0.0295 -1.2555
  196MOL0     H25845  -1.213   1.778   8.720 -1.1849 -4.4726  1.2385
  196MOL0     H25846  -1.340   1.639   8.883 -3.3830 -1.5410  0.9100
  196MOL0     H25847  -1.453   1.747   8.823 -0.3183 -0.6608  0.3279
  196MOL0     H25848  -1.377   1.917   9.024 -0.0023 -1.0311  1.0359
  196MOL0     H25849  -1.328   1.784   9.106  3.2943  5.3294  0.0163
  196MOL0     H25850  -1.597   1.825   8.996 -1.8776  1.1696  2.0771
  196MOL0     H25851  -1.563   1.679   9.076 -0.1382 -0.6332 -1.6298
  196MOL0     H25852  -1.671   1.857   9.242 -1.1416  0.9658 -0.7141
  196MOL0     H25853  -1.527   1.954   9.185  4.1302 -1.7667 -1.8965
  196MOL0     H25854  -1.266   2.131   8.473 -0.0156 -1.2365  0.1824
  196MOL0     H25855  -1.262   2.310   8.340 -0.3017 -2.4987  1.0540
  196MOL0     H25856  -1.299   2.705   8.076 -0.0254  0.1693  1.9928
  196MOL0     H25857  -1.234   2.886   7.936  0.6017  0.6421  0.0319
  196MOL0     H25858  -0.005   2.662   7.921  2.7216 -0.9779 -1.5708
  196MOL0     H25859   0.201   2.554   7.967 -0.2620  2.9428  0.4430
  196MOL0     H25860   0.444   2.261   8.030 -2.8543 -0.1383  1.4827
  196MOL0     H25861   0.686   2.188   7.999  5.0267  3.0694  1.7498
  196MOL0     H25862   1.001   2.014   8.260 -0.9021 -1.0893 -0.1002
  196MOL0     H25863   0.924   2.173   8.316 -1.0752  2.3371 -1.9519
  196MOL0     H25864   0.959   2.256   8.080 -0.9273 -0.9393  0.1713
  196MOL0     H25865   1.116   2.217   8.165  0.1677 -1.2662  1.7867
  196MOL0     H25866   1.007   2.019   7.982 -0.1453  0.8006  2.5864
  196MOL0     H25867   1.167   2.042   8.029 -0.6033 -0.4462  1.5193
  196MOL0     H25868   1.111   2.113   7.798  0.2993 -0.8371  0.6172
  196MOL0     H25869   1.019   2.253   7.855 -0.3946 -0.3875  0.1547
  196MOL0     H25870   1.429   2.363   7.917  0.9296 -0.2010 -2.1410
  196MOL0     H25871   0.693   2.099   8.416  2.2396  1.7228 -0.2010
  196MOL0     H25872   0.483   2.222   8.452 -0.1912 -0.6519 -0.5431
  197MOL0     O25873   0.181  10.619   0.083 -0.4337  0.3424 -0.3462
  197MOL0     C25874   0.214  10.499   0.109  0.0477  0.0131 -0.7078
  197MOL0     O25875   0.290  10.456   0.217  0.3429  0.1687 -0.9168
  197MOL0     C25876   0.387  10.536   0.282 -0.1575  0.7769 -1.1888
  197MOL0     C25877   0.382  10.673   0.304  0.7710 -0.5591  0.6505
  197MOL0     C25878   0.469  10.742   0.385 -0.2229 -0.6596 -0.2619
  197MOL0     C25879   0.566  10.679   0.458 -0.4663  0.0064 -0.0893
  197MOL0     O25880   0.635  10.739   0.564 -0.8523  0.0968  1.2308
  197MOL0     C25881   0.755  10.795   0.509  0.2767  0.0542  0.0683
  197MOL0     C25882   0.829  10.865   0.631 -0.6667  0.1732 -0.4114
  197MOL0     C25883   0.979  10.898   0.599  0.3417 -0.0989  0.2834
  197MOL0     C25884   1.047  11.001   0.687  0.3443 -0.2782  0.3286
  197MOL0     C25885   1.190  11.019   0.634 -0.5400  0.4837 -0.3110
  197MOL0     C25886   1.270  11.126   0.711 -0.0684  0.4729 -0.7039
  197MOL0     C25887   1.250  11.264   0.646  0.2920 -0.7274 -0.7728
  197MOL0     C25888   1.305  11.375   0.732  1.1597 -0.5296  0.2846
  197MOL0     N25889   1.249  11.504   0.679 -0.2578 -0.2601 -0.1915
  197MOL0     C25890   1.136  11.564   0.723 -0.0532  0.1332 -0.4679
  197MOL0     C25891   1.103  11.645   0.624 -0.1062  0.4808  0.3145
  197MOL0     C25892   0.972  11.720   0.633  0.2888  0.4182  0.4391
  197MOL0     C25893   0.997  11.869   0.681 -0.3587  0.3321 -0.2785
  197MOL0     C25894   0.873  11.926   0.738 -0.1370  0.6245  0.1437
  197MOL0     C25895   0.896  12.063   0.774  0.2852 -0.2264  0.1878
  197MOL0     O25896   0.859  12.132   0.656 -0.9955 -0.1987 -0.0126
  197MOL0     C25897   0.881  12.264   0.641 -0.9288 -0.4214 -0.1787
  197MOL0     C25898   0.934  12.346   0.743 -0.6059  0.3751  0.7956
  197MOL0     C25899   0.967  12.474   0.717 -0.2554 -0.2761 -0.0005
  197MOL0     C25900   0.951  12.526   0.584 -0.2019  0.3172 -0.1130
  197MOL0     C25901   0.992  12.669   0.537  0.2930  0.0781 -0.1266
  197MOL0     O25902   1.055  12.745   0.633 -0.0712  0.0549 -0.0092
  197MOL0     C25903   1.114  12.865   0.613  0.1593 -0.2038  0.1703
  197MOL0     C25904   1.227  12.889   0.527  1.4369  0.2349 -0.3047
  197MOL0     C25905   1.269  13.029   0.531  0.6883  0.0192  0.2515
  197MOL0     C25906   1.213  13.131   0.603  0.6745 -0.5227 -0.4675
  197MOL0     O25907   1.259  13.257   0.598 -0.5147 -0.9146 -0.3143
  197MOL0     C25908   1.247  13.328   0.474 -0.8791  0.1099  0.3235
  197MOL0     C25909   1.176  13.462   0.509  0.2179  0.3895 -0.0353
  197MOL0     C25910   1.026  13.462   0.509  0.8893 -0.2031  0.7637
  197MOL0     C25911   0.980  13.594   0.582  0.0341 -0.3727  0.2034
  197MOL0     C25912   0.826  13.604   0.579 -0.7905 -0.3612  0.0494
  197MOL0     C25913   0.771  13.651   0.720 -0.1202  0.7779  0.8243
  197MOL0     C25914   0.626  13.595   0.724 -0.1354  0.0708 -0.1080
  197MOL0     C25915   0.557  13.641   0.854 -0.8264  0.5486  0.6289
  197MOL0    Cl25916   0.578  13.813   0.890  0.0191  0.3550 -0.0018
  197MOL0     C25917   1.104  13.108   0.680 -0.1551  0.3068 -0.6401
  197MOL0     C25918   1.061  12.969   0.688  0.2702  0.3145  0.5404
  197MOL0     O25919   0.971  12.702   0.425  0.0635 -0.4248  0.0301
  197MOL0     C25920   0.871  12.450   0.500  0.2850 -0.0501 -0.3103
  197MOL0     C25921   0.833  12.325   0.526 -0.1812 -0.6044  0.5133
  197MOL0     N25922   1.192  11.634   0.513  0.3231 -0.0319 -1.0003
  197MOL0     N25923   1.285  11.547   0.555  0.3744 -0.0677  0.3285
  197MOL0     C25924   0.583  10.543   0.426  1.1031 -0.2774 -0.4846
  197MOL0     C25925   0.499  10.470   0.336 -1.2918 -0.3899  0.3477
  197MOL0     C25926   0.143  10.390   0.034 -0.0332  0.0053 -0.3566
  197MOL0     C25927   0.072  10.407  -0.087 -0.7847  1.1923  0.6996
  197MOL0     C25928  -0.000  10.301  -0.148 -0.4482  0.0394  0.0874
  197MOL0     C25929   0.009  10.172  -0.100  0.0172  0.2629 -0.1054
  197MOL0     O25930  -0.060  10.069  -0.169 -0.5018  0.6672 -0.2089
  197MOL0     C25931  -0.054  10.077  -0.307 -0.1241 -0.0190 -0.3934
  197MOL0     C25932  -0.124   9.954  -0.375 -1.0618 -0.3649  0.2846
  197MOL0     C25933  -0.257   9.985  -0.458  0.2490  0.5992 -0.0654
  197MOL0     C25934  -0.371  10.033  -0.370  0.8659  0.0624 -0.6320
  197MOL0     C25935  -0.505  10.024  -0.421 -1.4030 -0.1405  1.0806
  197MOL0     C25936  -0.617  10.009  -0.458 -0.0571 -0.0773  0.3333
  197MOL0     C25937   0.068  10.154   0.020  0.1684  0.3952  0.5486
  197MOL0     C25938   0.134  10.255   0.092  0.6623  0.4898 -0.4361
  197MOL0     H25939   0.292  10.723   0.271  1.6409  0.7842  0.2112
  197MOL0     H25940   0.455  10.846   0.411 -0.8543 -1.4719  3.2217
  197MOL0     H25941   0.734  10.865   0.428  1.7709  0.9839  0.4327
  197MOL0     H25942   0.817  10.712   0.475  1.3549  0.3470  1.2239
  197MOL0     H25943   0.841  10.797   0.716  1.7980 -0.8428 -1.4995
  197MOL0     H25944   0.761  10.946   0.658 -0.0752  0.6092 -0.2060
  197MOL0     H25945   0.977  10.932   0.495 -4.4169  2.8487  0.9962
  197MOL0     H25946   1.031  10.803   0.611 -1.8706 -1.3928  0.1636
  197MOL0     H25947   0.986  11.089   0.669  0.7267  0.2972  1.7313
  197MOL0     H25948   1.040  10.960   0.788  0.7721 -0.9433  0.1002
  197MOL0     H25949   1.189  11.045   0.527  1.2547  2.6085  0.1292
  197MOL0     H25950   1.234  10.919   0.631 -2.0717 -0.2150 -1.0592
  197MOL0     H25951   1.377  11.105   0.698  0.3632 -0.8602  3.4299
  197MOL0     H25952   1.233  11.118   0.814 -0.4897  1.6414 -0.7557
  197MOL0     H25953   1.312  11.260   0.556  4.3735 -1.3479  1.7985
  197MOL0     H25954   1.144  11.279   0.625  0.4162  0.1338 -0.7865
  197MOL0     H25955   1.408  11.390   0.700  0.8952  0.6209 -0.0918
  197MOL0     H25956   1.272  11.368   0.836 -2.0997  0.6080 -0.5390
  197MOL0     H25957   1.083  11.533   0.812 -0.5946 -3.7362 -1.9335
  197MOL0     H25958   0.906  11.657   0.695  0.8586 -0.5483  0.0877
  197MOL0     H25959   0.933  11.715   0.531  1.8616  1.2927 -0.2360
  197MOL0     H25960   1.031  11.921   0.591  0.6437 -0.0163 -0.1057
  197MOL0     H25961   1.062  11.871   0.769 -0.7057 -2.4065  0.1538
  197MOL0     H25962   0.794  11.925   0.662 -0.3024 -2.5302  0.2333
  197MOL0     H25963   0.846  11.862   0.823  2.3706 -4.5181 -2.4550
  197MOL0     H25964   1.002  12.072   0.801  0.5410  1.4749 -1.1633
  197MOL0     H25965   0.835  12.095   0.859 -0.5677 -1.3963  0.0398
  197MOL0     H25966   0.949  12.307   0.843 -2.0695 -1.5548  0.3215
  197MOL0     H25967   1.000  12.544   0.793  2.9618 -1.1533 -0.4260
  197MOL0     H25968   1.281  12.816   0.467  1.7350 -0.5486  0.8697
  197MOL0     H25969   1.358  13.063   0.480 -2.1662  1.5815 -4.3182
  197MOL0     H25970   1.186  13.277   0.399 -1.5261  1.7009 -0.2997
  197MOL0     H25971   1.348  13.344   0.435 -0.3108  0.1603  1.7483
  197MOL0     H25972   1.194  13.535   0.430  1.0540  1.4459  1.1006
  197MOL0     H25973   1.206  13.502   0.606 -1.3283  0.8536  0.2875
  197MOL0     H25974   0.984  13.368   0.545  1.5252 -0.8791 -0.2123
  197MOL0     H25975   0.988  13.481   0.409  3.0367  2.4719  0.3401
  197MOL0     H25976   1.023  13.588   0.683  2.6681  1.9231 -0.6421
  197MOL0     H25977   1.034  13.678   0.538  0.7359 -1.6970 -1.6010
  197MOL0     H25978   0.784  13.509   0.543  0.5582  0.3523 -3.9490
  197MOL0     H25979   0.793  13.667   0.495  1.9599 -0.7721 -1.4560
  197MOL0     H25980   0.781  13.760   0.724  1.3297  0.7572 -0.9462
  197MOL0     H25981   0.823  13.613   0.808 -0.8512  1.0010  1.3570
  197MOL0     H25982   0.574  13.614   0.629  0.0542 -1.6499 -0.6041
  197MOL0     H25983   0.633  13.486   0.733  0.8912  0.3370  4.1197
  197MOL0     H25984   0.584  13.574   0.936 -0.8303 -0.4934 -0.2032
  197MOL0     H25985   0.449  13.629   0.840 -0.1901 -2.1171 -4.4085
  197MOL0     H25986   1.057  13.186   0.739  0.6929 -0.6035  1.3213
  197MOL0     H25987   0.976  12.937   0.748 -1.0564 -2.3012 -2.4760
  197MOL0     H25988   0.831  12.491   0.409  0.6458 -0.1684 -0.5250
  197MOL0     H25989   0.764  12.266   0.466 -0.0602 -0.0906 -0.1319
  197MOL0     H25990   0.660  10.477   0.466  1.3038 -1.4951 -2.7379
  197MOL0     H25991   0.513  10.363   0.322 -0.6751  0.0047 -2.7220
  197MOL0     H25992   0.061  10.512  -0.114 -1.0827  1.7353  2.7290
  197MOL0     H25993  -0.050  10.326  -0.241 -0.4276  2.4270  0.6620
  197MOL0     H25994   0.051  10.090  -0.335  0.0417  0.4925  0.4018
  197MOL0     H25995  -0.111  10.165  -0.339 -0.0882  0.8062  1.6016
  197MOL0     H25996  -0.045   9.921  -0.443  1.9143  5.5007  0.3446
  197MOL0     H25997  -0.166   9.881  -0.305  0.4508  0.4617  2.1540
  197MOL0     H25998  -0.291   9.896  -0.513  2.9477  0.0558 -1.0173
  197MOL0     H25999  -0.239  10.059  -0.536 -2.9666 -0.0406 -1.6140
  197MOL0     H26000  -0.372   9.972  -0.279 -3.2495  0.1429 -0.4217
  197MOL0     H26001  -0.364  10.140  -0.350 -0.6488  0.0286  0.2167
  197MOL0     H26002  -0.718   9.996  -0.490  0.2444  0.1538 -0.7334
  197MOL0     H26003   0.075  10.050   0.048 -0.0386  0.3823  0.5519
  197MOL0     H26004   0.182  10.245   0.189 -1.2877 -1.4728  0.4145
  198MOL0     O26005   4.311   5.586  11.139 -0.0083 -0.3157 -0.4969
  198MOL0     C26006   4.417   5.546  11.093  0.5178  0.4186  0.1087
  198MOL0     O26007   4.533   5.602  11.094  0.0010 -0.7989  0.2895
  198MOL0     C26008   4.555   5.724  11.153 -0.0927  0.0052 -0.8080
  198MOL0     C26009   4.502   5.764  11.273 -0.3322  0.5638  0.2595
  198MOL0     C26010   4.511   5.896  11.311  0.9959  0.2265 -0.8648
  198MOL0     C26011   4.581   5.994  11.239 -0.6676 -0.8401  0.0884
  198MOL0     O26012   4.589   6.127  11.286  0.4676  0.3208 -0.5761
  198MOL0     C26013   4.598   6.230  11.186 -0.6986 -0.5206 -0.5367
  198MOL0     C26014   4.651   6.361  11.241 -0.0633 -0.2370  0.6046
  198MOL0     C26015   4.760   6.438  11.157 -0.2746  0.4037  0.0133
  198MOL0     C26016   4.778   6.586  11.193 -1.4588  1.1083 -0.5883
  198MOL0     C26017   4.803   6.625  11.337 -0.2609 -0.3154  1.0633
  198MOL0     C26018   4.903   6.532  11.422  0.8007  0.2235  0.0313
  198MOL0     C26019   4.931   6.596  11.561  0.1396  1.4078 -0.3183
  198MOL0     C26020   4.807   6.554  11.653  0.1680 -0.8760 -0.9302
  198MOL0     N26021   4.814   6.413  11.689 -0.6384  0.6023 -0.2665
  198MOL0     C26022   4.701   6.347  11.740 -0.5923 -0.1040  0.4952
  198MOL0     C26023   4.748   6.246  11.812  0.2289 -0.3926  0.6157
  198MOL0     C26024   4.683   6.130  11.890 -0.0969 -0.0447 -0.5736
  198MOL0     C26025   4.746   5.998  11.858 -1.0274  0.2749  0.2385
  198MOL0     C26026   4.717   5.957  11.705  0.7502 -0.3404  0.7171
  198MOL0     C26027   4.825   5.848  11.647 -0.0885  0.7009  0.0156
  198MOL0     O26028   4.820   5.849  11.503 -0.0368  0.6381 -1.0446
  198MOL0     C26029   4.886   5.953  11.441  0.0801 -0.0584 -0.2245
  198MOL0     C26030   4.938   6.068  11.501 -0.0682 -1.3268  0.0795
  198MOL0     C26031   5.008   6.166  11.421  0.0198 -0.8064 -0.6094
  198MOL0     C26032   5.035   6.138  11.289  0.6026 -0.0812  0.4948
  198MOL0     C26033   5.128   6.234  11.219 -0.6624  1.1390 -0.2795
  198MOL0     O26034   5.127   6.231  11.085 -0.3869 -0.1163  0.2623
  198MOL0     C26035   5.184   6.338  11.013 -0.4696 -0.3912 -0.7136
  198MOL0     C26036   5.292   6.308  10.933 -0.9757 -0.8253 -0.5270
  198MOL0     C26037   5.351   6.405  10.845 -0.0851  0.8527  0.6267
  198MOL0     C26038   5.288   6.529  10.830 -0.2050 -0.5960  0.3995
  198MOL0     O26039   5.328   6.622  10.738 -0.7091 -0.1990  0.0930
  198MOL0     C26040   5.450   6.691  10.762  0.1539 -0.3226  0.1262
  198MOL0     C26041   5.465   6.808  10.668 -1.0039 -1.1382 -0.0826
  198MOL0     C26042   5.356   6.919  10.691  0.0775  0.3547  0.2722
  198MOL0     C26043   5.345   7.018  10.578 -0.5252 -0.1543  0.7833
  198MOL0     C26044   5.248   7.128  10.617 -0.9861 -0.6526 -0.2159
  198MOL0     C26045   5.095   7.093  10.614  0.6389 -0.5206 -0.1137
  198MOL0     C26046   5.022   7.203  10.684  0.4447 -0.4286 -0.6259
  198MOL0     C26047   4.871   7.178  10.675 -0.2755 -0.2810  0.2060
  198MOL0    Cl26048   4.814   7.207  10.514 -0.1591  0.4864 -0.3695
  198MOL0     C26049   5.177   6.550  10.899  0.0018 -0.0091  1.0154
  198MOL0     C26050   5.118   6.462  10.995 -1.3190 -0.3228 -0.3842
  198MOL0     O26051   5.184   6.319  11.288 -0.0695 -0.8411 -0.3337
  198MOL0     C26052   4.985   6.022  11.222  0.0926  0.3051 -0.3210
  198MOL0     C26053   4.906   5.938  11.300  0.4433 -0.8247  0.4516
  198MOL0     N26054   4.886   6.246  11.805 -0.7247 -0.1318  0.4595
  198MOL0     N26055   4.925   6.350  11.734  0.5586 -0.2279 -0.4265
  198MOL0     C26056   4.636   5.951  11.110 -0.3671 -0.6498 -0.3430
  198MOL0     C26057   4.624   5.811  11.071  0.2267 -0.0332  0.2405
  198MOL0     C26058   4.409   5.409  11.044 -0.2430  0.1703 -0.3061
  198MOL0     C26059   4.313   5.315  11.087  1.0849 -0.4208 -0.3438
  198MOL0     C26060   4.305   5.182  11.039 -0.2917 -0.2175 -0.0987
  198MOL0     C26061   4.402   5.134  10.955 -0.5629 -0.7469  0.4242
  198MOL0     O26062   4.405   5.003  10.925  0.2052 -0.2784 -0.9263
  198MOL0     C26063   4.322   4.982  10.805 -0.4086  0.2592 -0.3738
  198MOL0     C26064   4.193   4.916  10.847  0.0315  0.5916  0.1427
  198MOL0     C26065   4.128   4.837  10.742  0.6640 -0.0144  0.5981
  198MOL0     C26066   3.998   4.771  10.796 -0.1207  0.6659 -0.7799
  198MOL0     C26067   3.917   4.720  10.681  0.2761 -0.9103  0.1677
  198MOL0     C26068   3.850   4.692  10.585  0.3360  0.3605 -0.5878
  198MOL0     C26069   4.504   5.225  10.912  0.2036 -0.2398  0.3508
  198MOL0     C26070   4.497   5.360  10.953 -0.4459 -0.2874  0.2479
  198MOL0     H26071   4.430   5.703  11.326 -2.2116  0.5144 -2.1403
  198MOL0     H26072   4.476   5.940  11.404 -0.5454 -0.9066 -0.8685
  198MOL0     H26073   4.500   6.249  11.141  0.2999 -1.7030 -3.4597
  198MOL0     H26074   4.664   6.207  11.101 -0.1918 -1.0703 -0.0077
  198MOL0     H26075   4.688   6.337  11.342 -2.9387  1.7802  2.2917
  198MOL0     H26076   4.572   6.435  11.256 -0.1479  0.0772 -1.2383
  198MOL0     H26077   4.735   6.416  11.053 -2.4036  1.3530  0.2727
  198MOL0     H26078   4.853   6.380  11.161 -0.3941  0.0997 -1.3736
  198MOL0     H26079   4.861   6.612  11.126  1.2384  0.2732  2.1701
  198MOL0     H26080   4.690   6.646  11.169 -1.7191  0.8570 -0.2719
  198MOL0     H26081   4.707   6.640  11.387 -1.4046 -0.8999 -0.8529
  198MOL0     H26082   4.836   6.729  11.334  0.5406 -0.4201  3.7387
  198MOL0     H26083   4.993   6.510  11.364  0.8427 -0.3029  0.2882
  198MOL0     H26084   4.861   6.432  11.429 -2.8505  1.6253  0.0652
  198MOL0     H26085   5.027   6.568  11.605 -0.9168 -2.8617 -0.3444
  198MOL0     H26086   4.924   6.704  11.545 -2.3865  0.8160 -5.1935
  198MOL0     H26087   4.714   6.584  11.603  0.3834  0.4758 -0.5718
  198MOL0     H26088   4.818   6.610  11.746  1.5457 -0.3295 -1.3862
  198MOL0     H26089   4.600   6.377  11.714  0.1365  0.8108 -1.5376
  198MOL0     H26090   4.574   6.127  11.893 -0.1885  1.1215  3.4846
  198MOL0     H26091   4.703   6.150  11.996 -0.6492 -0.8483 -0.3025
  198MOL0     H26092   4.702   5.927  11.928 -0.8095  0.2205  0.3190
  198MOL0     H26093   4.854   6.002  11.871 -1.0964  2.0435  0.5103
  198MOL0     H26094   4.621   5.903  11.699  0.2762  0.5735 -0.1180
  198MOL0     H26095   4.697   6.040  11.637  1.2541 -2.1229 -1.7826
  198MOL0     H26096   4.814   5.744  11.678 -0.1596  1.2894  2.0947
  198MOL0     H26097   4.923   5.876  11.686 -0.6721 -0.5313  2.5665
  198MOL0     H26098   4.911   6.093  11.603 -1.7752 -2.5211 -0.0371
  198MOL0     H26099   5.034   6.264  11.461 -2.6383  0.5414 -1.9504
  198MOL0     H26100   5.340   6.213  10.955  1.3961  0.5514  0.6452
  198MOL0     H26101   5.435   6.385  10.778 -1.2876 -0.0411 -0.6730
  198MOL0     H26102   5.532   6.622  10.738  0.9917  0.1729  1.4293
  198MOL0     H26103   5.456   6.709  10.869 -2.2928 -1.0111  0.4355
  198MOL0     H26104   5.465   6.778  10.563  1.5414 -0.5510 -0.3174
  198MOL0     H26105   5.565   6.850  10.681 -1.9776  0.9616  1.0956
  198MOL0     H26106   5.391   6.967  10.783 -1.6392 -1.7371  2.1363
  198MOL0     H26107   5.258   6.871  10.689  0.0267  0.4768 -0.3221
  198MOL0     H26108   5.445   7.060  10.563  0.0252 -1.7525 -0.2407
  198MOL0     H26109   5.310   6.971  10.486  0.8160 -2.6170  1.4634
  198MOL0     H26110   5.248   7.218  10.555 -0.0937 -0.5794 -0.1201
  198MOL0     H26111   5.280   7.179  10.708  0.4819 -1.2110 -0.3978
  198MOL0     H26112   5.062   6.998  10.656  2.8132 -1.0035  0.6700
  198MOL0     H26113   5.069   7.105  10.509 -1.9704  2.2282  0.7051
  198MOL0     H26114   5.037   7.190  10.791  2.5376  0.8049 -0.7273
  198MOL0     H26115   5.048   7.304  10.651 -4.6872  0.8655 -1.6199
  198MOL0     H26116   4.818   7.249  10.739  1.7324  1.0030  0.5492
  198MOL0     H26117   4.850   7.074  10.701 -0.1651 -0.0919  1.1002
  198MOL0     H26118   5.139   6.650  10.885  3.8167  1.6567  1.2299
  198MOL0     H26119   5.023   6.482  11.043 -0.5667  3.8184 -0.2353
  198MOL0     H26120   5.000   5.993  11.119 -1.2984 -2.3194  0.1132
  198MOL0     H26121   4.857   5.855  11.249  2.4989 -0.4712 -2.3194
  198MOL0     H26122   4.675   6.024  11.040 -1.5696  2.1051  1.6542
  198MOL0     H26123   4.668   5.788  10.974 -0.5202  0.3426 -0.2020
  198MOL0     H26124   4.243   5.328  11.169 -2.6085  0.3877 -3.3073
  198MOL0     H26125   4.233   5.105  11.067  1.1294 -1.3555  0.5787
  198MOL0     H26126   4.368   4.916  10.731 -0.3478  0.6720 -0.7067
  198MOL0     H26127   4.289   5.071  10.752 -1.8238  0.0540  0.1266
  198MOL0     H26128   4.229   4.847  10.924  2.5816 -1.0835 -2.3796
  198MOL0     H26129   4.120   4.989  10.883 -0.6034  0.1182 -0.1838
  198MOL0     H26130   4.198   4.763  10.702  2.9469  0.7892  2.8062
  198MOL0     H26131   4.104   4.897  10.654 -3.4488 -1.0520  0.7976
  198MOL0     H26132   4.014   4.692  10.870 -0.3449  0.1936 -1.2333
  198MOL0     H26133   3.935   4.845  10.848  0.5382 -0.1362  1.2637
  198MOL0     H26134   3.779   4.666  10.509 -4.3731 -0.7753  3.5969
  198MOL0     H26135   4.586   5.190  10.851  0.3805  2.4551 -1.1171
  198MOL0     H26136   4.581   5.421  10.919  0.9213 -1.8620  0.6426
  199MOL0     O26137  11.033   0.767   7.239 -0.2990  0.2983  0.8209
  199MOL0     C26138  11.004   0.882   7.260 -0.3096 -0.9108  0.6616
  199MOL0     O26139  10.962   0.969   7.165 -0.8792  0.6218  0.2284
  199MOL0     C26140  10.944   0.914   7.037  0.2442  0.1103 -0.0229
  199MOL0     C26141  10.815   0.877   7.001 -0.6390 -0.1193 -0.8378
  199MOL0     C26142  10.792   0.833   6.871  0.5435 -0.3129  0.3628
  199MOL0     C26143  10.897   0.807   6.789 -0.0941  0.6818  0.6603
  199MOL0     O26144  10.879   0.753   6.662 -0.1936  0.4648  0.4720
  199MOL0     C26145  10.753   0.705   6.616 -0.3580 -0.1255  0.6152
  199MOL0     C26146  10.765   0.592   6.516 -0.3175 -0.3417 -0.3304
  199MOL0     C26147  10.862   0.477   6.560  0.0349  0.7832  1.1414
  199MOL0     C26148  10.813   0.401   6.675  0.2219 -0.1414  0.0880
  199MOL0     C26149  10.916   0.297   6.715  0.5384 -0.5131  0.3886
  199MOL0     C26150  11.014   0.352   6.815 -0.7801 -0.3088 -0.2779
  199MOL0     C26151  11.116   0.250   6.874  1.0204 -0.4268  0.3457
  199MOL0     C26152  11.190   0.183   6.757 -0.4875  0.2236 -0.4559
  199MOL0     N26153  11.275   0.074   6.827  0.8786 -0.5617  0.2781
  199MOL0     C26154  11.237  -0.049   6.821 -0.7412 -0.2089 -0.3272
  199MOL0     C26155  11.316  -0.122   6.899  0.3852 -0.6100  0.0659
  199MOL0     C26156  11.333  -0.255   6.945  0.2200  0.5813 -1.0443
  199MOL0     C26157  11.204  -0.333   6.936  0.8722  0.4387  0.0230
  199MOL0     C26158  11.180  -0.363   6.789 -0.1267  0.3821  1.3604
  199MOL0     C26159  11.027  -0.369   6.758  0.9066 -0.2701  0.2438
  199MOL0     O26160  11.006  -0.406   6.613 -0.0302 -0.0801 -0.5380
  199MOL0     C26161  10.972  -0.536   6.601 -0.1269 -0.7266  0.5075
  199MOL0     C26162  11.070  -0.625   6.566  0.4840  0.1480  0.3612
  199MOL0     C26163  11.040  -0.762   6.553 -0.0083 -0.7338 -0.4384
  199MOL0     C26164  10.917  -0.813   6.601  0.7601 -1.1035 -0.7594
  199MOL0     C26165  10.897  -0.959   6.607  0.4129  0.4661 -0.2469
  199MOL0     O26166  11.001  -1.032   6.566  0.1069 -1.4091 -0.4562
  199MOL0     C26167  10.999  -1.163   6.587  0.3556  0.6248  0.0654
  199MOL0     C26168  10.899  -1.254   6.530  0.2598 -0.3304  0.3155
  199MOL0     C26169  10.900  -1.389   6.555  0.4172  1.1359  0.1389
  199MOL0     C26170  11.008  -1.452   6.626  0.2489 -0.1757 -0.2184
  199MOL0     O26171  11.012  -1.590   6.656  0.5291 -0.1871 -0.3730
  199MOL0     C26172  10.998  -1.685   6.540  0.8766 -1.3102  0.3710
  199MOL0     C26173  10.948  -1.824   6.589  0.0032 -0.4504 -0.1867
  199MOL0     C26174  10.925  -1.943   6.489  0.2680  0.1461  0.0270
  199MOL0     C26175  10.930  -2.065   6.565  0.2245  0.2848 -0.0219
  199MOL0     C26176  10.889  -2.192   6.476 -0.5188 -0.0815 -0.1624
  199MOL0     C26177  10.874  -2.318   6.568  0.5842  0.6318 -0.5743
  199MOL0     C26178  10.856  -2.451   6.484 -0.3345 -0.2068  0.1035
  199MOL0     C26179  10.952  -2.475   6.365  0.0570 -0.1485 -0.5426
  199MOL0    Cl26180  10.950  -2.651   6.333  0.1195  0.2209  0.0340
  199MOL0     C26181  11.108  -1.372   6.674 -0.3473 -0.5628  0.5486
  199MOL0     C26182  11.107  -1.231   6.650 -0.2710  0.0289 -1.1932
  199MOL0     O26183  10.784  -1.001   6.631  0.6338 -0.4707  0.8569
  199MOL0     C26184  10.816  -0.713   6.644 -1.0417 -0.4466 -0.3253
  199MOL0     C26185  10.853  -0.580   6.643 -0.0802 -0.0552  0.0578
  199MOL0     N26186  11.388  -0.027   6.973  0.2620 -0.0996  0.0843
  199MOL0     N26187  11.373   0.090   6.919 -0.4690  0.4311 -0.2051
  199MOL0     C26188  11.027   0.832   6.827 -0.5401 -0.0470 -0.4105
  199MOL0     C26189  11.053   0.890   6.955 -0.3216 -0.1302  0.4847
  199MOL0     C26190  11.036   0.928   7.396 -0.9885 -0.8071 -1.0581
  199MOL0     C26191  11.077   0.842   7.498 -0.2480  0.4685  0.8929
  199MOL0     C26192  11.109   0.888   7.621  0.6452  0.8215 -0.6769
  199MOL0     C26193  11.090   1.019   7.663  0.0494 -0.7590  0.1809
  199MOL0     O26194  11.139   1.040   7.787  0.5414  0.2712  0.5342
  199MOL0     C26195  11.128   1.173   7.835  0.8482 -0.1182  0.5642
  199MOL0     C26196  11.210   1.200   7.958  0.9431  0.3982  0.7158
  199MOL0     C26197  11.131   1.172   8.088  0.1647  0.0602 -0.4958
  199MOL0     C26198  11.189   1.196   8.231 -0.5056 -0.1939  0.0551
  199MOL0     C26199  11.217   1.078   8.306 -0.2400  0.6558  0.7126
  199MOL0     C26200  11.243   0.981   8.374  0.9056 -0.1051  0.9003
  199MOL0     C26201  11.049   1.113   7.565 -0.2885 -0.2189 -0.1293
  199MOL0     C26202  11.019   1.066   7.436  0.4290  1.0175  0.6857
  199MOL0     H26203  10.730   0.904   7.063 -1.1685  0.1397 -1.6648
  199MOL0     H26204  10.687   0.806   6.862  0.4307 -0.5799  2.1096
  199MOL0     H26205  10.699   0.784   6.562  0.0298 -0.3055 -0.0448
  199MOL0     H26206  10.682   0.674   6.694  1.2503 -1.8958  1.4371
  199MOL0     H26207  10.794   0.638   6.421 -0.3059  1.3563  0.4525
  199MOL0     H26208  10.660   0.568   6.502 -0.5310 -1.3295  2.4084
  199MOL0     H26209  10.963   0.519   6.564 -0.0733  1.0116  1.5840
  199MOL0     H26210  10.864   0.413   6.472 -1.9094  1.7299  0.3556
  199MOL0     H26211  10.779   0.474   6.749  1.8544  1.9114 -1.0821
  199MOL0     H26212  10.719   0.353   6.644 -0.7923  0.6426  1.7988
  199MOL0     H26213  10.959   0.252   6.625 -0.5042 -0.1506 -0.3083
  199MOL0     H26214  10.857   0.213   6.753 -0.0281 -0.6817 -0.8039
  199MOL0     H26215  10.970   0.392   6.907 -0.3837 -2.2518  0.7941
  199MOL0     H26216  11.072   0.432   6.768  1.0080  1.1132  3.8800
  199MOL0     H26217  11.175   0.315   6.940  0.9908  2.2705 -2.1110
  199MOL0     H26218  11.064   0.172   6.930  0.4542 -1.3346 -1.3917
  199MOL0     H26219  11.259   0.258   6.717 -0.9974  1.2458  0.5328
  199MOL0     H26220  11.137   0.128   6.678 -0.7199 -0.7656  0.3683
  199MOL0     H26221  11.151  -0.091   6.770 -1.0058 -0.2955  0.1881
  199MOL0     H26222  11.364  -0.258   7.049 -1.6281  0.2583 -0.4687
  199MOL0     H26223  11.410  -0.304   6.884 -0.4525 -0.1336 -1.3342
  199MOL0     H26224  11.119  -0.278   6.979  0.0502  0.2354 -1.2985
  199MOL0     H26225  11.216  -0.426   6.993 -0.5167 -0.6590 -1.3834
  199MOL0     H26226  11.224  -0.290   6.720 -2.0814 -0.3896 -0.8157
  199MOL0     H26227  11.237  -0.455   6.775  0.7008  1.0616  0.0636
  199MOL0     H26228  10.992  -0.267   6.778  3.2319  0.9667 -1.5659
  199MOL0     H26229  10.967  -0.429   6.827  1.2366  0.6122  1.3352
  199MOL0     H26230  11.157  -0.572   6.528 -2.1540  5.8905  1.1939
  199MOL0     H26231  11.120  -0.827   6.518  0.0152 -2.0891  1.8904
  199MOL0     H26232  10.823  -1.207   6.468  2.4571  2.1205 -0.7362
  199MOL0     H26233  10.822  -1.454   6.516  0.8866  0.2818  0.5849
  199MOL0     H26234  11.098  -1.705   6.502  1.5886  1.7577  0.3595
  199MOL0     H26235  10.924  -1.645   6.470  0.1826 -1.5756  0.9291
  199MOL0     H26236  10.858  -1.805   6.649  1.5348 -2.5339  3.0921
  199MOL0     H26237  11.025  -1.868   6.653 -1.0112 -1.3461  0.4789
  199MOL0     H26238  11.013  -1.937   6.425 -1.2142 -0.1092 -2.1213
  199MOL0     H26239  10.836  -1.928   6.427  0.5820 -0.9424 -0.7145
  199MOL0     H26240  11.030  -2.089   6.601  1.9405  1.6579 -3.4151
  199MOL0     H26241  10.852  -2.058   6.642 -1.3894 -0.4407 -1.5082
  199MOL0     H26242  10.964  -2.206   6.398  0.7002 -0.1482  0.9762
  199MOL0     H26243  10.799  -2.171   6.418 -0.9340 -1.9929 -0.2651
  199MOL0     H26244  10.790  -2.312   6.638 -0.2278 -2.5760 -1.1027
  199MOL0     H26245  10.968  -2.341   6.617 -1.5522 -4.3131  1.9036
  199MOL0     H26246  10.853  -2.534   6.556 -2.3613  0.7542  1.1985
  199MOL0     H26247  10.755  -2.457   6.442 -0.4026  0.7792  0.1148
  199MOL0     H26248  11.056  -2.445   6.380 -0.4564  2.0073 -0.9790
  199MOL0     H26249  10.915  -2.423   6.277 -1.6875 -1.6541 -0.7577
  199MOL0     H26250  11.182  -1.423   6.734  1.7221 -0.7379 -1.9679
  199MOL0     H26251  11.189  -1.180   6.699 -0.9195  0.0116 -0.0483
  199MOL0     H26252  10.724  -0.760   6.677  1.0627 -3.7960  1.3725
  199MOL0     H26253  10.782  -0.502   6.668 -0.1339  0.6619 -2.1408
  199MOL0     H26254  11.102   0.813   6.751  2.4005  1.9585  1.7272
  199MOL0     H26255  11.153   0.919   6.986 -0.0583  0.7903 -1.1650
  199MOL0     H26256  11.098   0.736   7.483  0.6617  0.7598 -0.0445
  199MOL0     H26257  11.143   0.809   7.687  0.0150  0.0513 -1.2381
  199MOL0     H26258  11.028   1.212   7.855  0.8476 -1.2485  3.0968
  199MOL0     H26259  11.179   1.234   7.759  1.4329 -2.4709 -1.0490
  199MOL0     H26260  11.301   1.142   7.941  0.3940 -0.0569 -0.8210
  199MOL0     H26261  11.234   1.304   7.936  1.3160 -0.4733 -4.1031
  199MOL0     H26262  11.115   1.064   8.094 -0.8520  0.2815  2.0880
  199MOL0     H26263  11.029   1.210   8.075 -0.1257  0.5311  2.4371
  199MOL0     H26264  11.276   1.264   8.229 -2.8814  3.1442 -2.8481
  199MOL0     H26265  11.112   1.253   8.283  1.9979  2.1861  1.4123
  199MOL0     H26266  11.269   0.913   8.453 -2.6604 -0.7274  1.7100
  199MOL0     H26267  11.019   1.214   7.589 -1.7216 -0.3773 -1.1132
  199MOL0     H26268  10.986   1.142   7.366  1.7736  1.9489  1.0192
  200MOL0     O26269   4.730   9.708   3.866  0.7375  0.1222  0.5646
  200MOL0     C26270   4.691   9.597   3.819  0.2040  1.0082 -0.5507
  200MOL0     O26271   4.673   9.565   3.691  0.4316 -0.2384  0.6583
  200MOL0     C26272   4.693   9.663   3.600  0.0604 -0.0509 -0.3141
  200MOL0     C26273   4.810   9.661   3.518  1.0642 -0.7839  0.1907
  200MOL0     C26274   4.834   9.763   3.436 -0.1469 -0.1103 -0.4361
  200MOL0     C26275   4.743   9.868   3.437 -0.2404 -0.5139  1.0440
  200MOL0     O26276   4.781   9.974   3.356 -0.9197  0.0147  0.2776
  200MOL0     C26277   4.695  10.084   3.328 -0.2051 -0.5062 -0.0571
  200MOL0     C26278   4.740  10.199   3.228 -0.2832 -0.4484 -1.1307
  200MOL0     C26279   4.776  10.143   3.091 -0.0335  0.1587 -0.5512
  200MOL0     C26280   4.799  10.243   2.990 -0.4535  0.6239 -0.0914
  200MOL0     C26281   4.807  10.168   2.863 -0.1550 -0.5591 -0.7225
  200MOL0     C26282   4.865  10.253   2.753 -0.1450 -0.2276  0.2930
  200MOL0     C26283   4.772  10.371   2.713  0.5307 -0.1508  0.2460
  200MOL0     C26284   4.830  10.435   2.588 -0.8072  0.9511  0.2786
  200MOL0     N26285   4.965  10.495   2.614  0.6843  0.0981  0.1371
  200MOL0     C26286   4.986  10.594   2.713  0.1754 -0.9319  0.0532
  200MOL0     C26287   5.110  10.633   2.675  0.7372 -0.1649  0.1929
  200MOL0     C26288   5.157  10.773   2.711 -0.5146  0.8837 -0.5012
  200MOL0     C26289   5.254  10.768   2.832  0.7315 -0.0318 -0.3859
  200MOL0     C26290   5.166  10.718   2.950 -1.6872  0.5485  0.5196
  200MOL0     C26291   5.248  10.726   3.075 -0.2651  0.0265  0.0738
  200MOL0     O26292   5.253  10.862   3.112  0.6983  0.1475  0.0828
  200MOL0     C26293   5.298  10.896   3.237  0.5114 -0.8451  0.2501
  200MOL0     C26294   5.313  10.818   3.356  0.0536  0.0819 -1.0063
  200MOL0     C26295   5.361  10.877   3.485 -0.8168 -0.5730  0.5259
  200MOL0     C26296   5.389  11.018   3.492 -0.7550 -0.9699  0.2760
  200MOL0     C26297   5.436  11.089   3.606 -0.0554 -0.2472 -0.5675
  200MOL0     O26298   5.449  11.222   3.587 -0.2719  0.5383 -0.1790
  200MOL0     C26299   5.477  11.300   3.691  0.3988 -0.8625  0.1678
  200MOL0     C26300   5.423  11.427   3.688  1.0745 -0.4951  0.6701
  200MOL0     C26301   5.444  11.516   3.797  0.2481 -0.3832 -0.1622
  200MOL0     C26302   5.492  11.478   3.927 -0.9778  0.2762 -0.5397
  200MOL0     O26303   5.457  11.531   4.049  0.1778  0.4358  0.1202
  200MOL0     C26304   5.350  11.634   4.039 -0.2011 -1.0567  0.1754
  200MOL0     C26305   5.324  11.677   4.185 -0.2172  0.6520  0.6323
  200MOL0     C26306   5.309  11.825   4.194  0.3040 -0.2690 -0.0572
  200MOL0     C26307   5.298  11.866   4.342  0.4380 -0.3223  0.0960
  200MOL0     C26308   5.286  12.017   4.361 -0.3766  0.0256  0.1855
  200MOL0     C26309   5.338  12.077   4.495  0.8254 -0.4725 -0.7272
  200MOL0     C26310   5.261  12.026   4.626 -0.6512 -1.4239  0.1609
  200MOL0     C26311   5.315  12.079   4.757  0.1711 -0.3023 -0.7998
  200MOL0    Cl26312   5.205  11.992   4.883 -0.6016 -0.1441  0.2470
  200MOL0     C26313   5.564  11.364   3.924 -0.5023  0.8345 -0.0614
  200MOL0     C26314   5.551  11.273   3.811 -0.4288 -0.9236 -0.3961
  200MOL0     O26315   5.459  11.017   3.703  0.5299 -0.0909 -0.1576
  200MOL0     C26316   5.360  11.090   3.373  0.1465  0.2348  0.7873
  200MOL0     C26317   5.315  11.040   3.256 -0.6299  0.6042  0.0407
  200MOL0     N26318   5.171  10.551   2.585  0.8325  0.4337 -0.5735
  200MOL0     N26319   5.077  10.475   2.543 -0.1027  0.5939 -0.0887
  200MOL0     C26320   4.617   9.867   3.502  0.5221  0.1895 -0.5264
  200MOL0     C26321   4.592   9.759   3.588  0.3001  0.0351  0.3748
  200MOL0     C26322   4.671   9.486   3.907  0.7829  0.0253 -0.1537
  200MOL0     C26323   4.588   9.379   3.875 -0.3009  0.1321  0.0745
  200MOL0     C26324   4.549   9.284   3.975  0.2144  0.8159  1.0495
  200MOL0     C26325   4.602   9.280   4.100  1.0671  0.5785 -0.3626
  200MOL0     O26326   4.560   9.182   4.192 -0.3745 -0.1625 -0.0350
  200MOL0     C26327   4.617   9.186   4.324  0.2552  0.8598 -0.6084
  200MOL0     C26328   4.572   9.067   4.409 -0.1239  0.0855 -0.5572
  200MOL0     C26329   4.580   9.120   4.557 -0.9300  0.6575 -0.9430
  200MOL0     C26330   4.557   9.008   4.661 -0.2709  0.3266 -1.0567
  200MOL0     C26331   4.539   9.064   4.795  0.3422 -0.3461 -0.0484
  200MOL0     C26332   4.536   9.124   4.896 -0.5671  0.2422 -0.2774
  200MOL0     C26333   4.690   9.383   4.134 -0.3303  0.1688  1.0806
  200MOL0     C26334   4.721   9.481   4.033 -0.0912  0.0751  0.1745
  200MOL0     H26335   4.872   9.572   3.524 -1.8652 -2.9158  1.3672
  200MOL0     H26336   4.921   9.764   3.371 -0.5220  1.9639 -0.9672
  200MOL0     H26337   4.672  10.129   3.424 -0.1113  2.3782 -1.2756
  200MOL0     H26338   4.597  10.045   3.298 -1.1578  1.0592  0.9270
  200MOL0     H26339   4.824  10.252   3.274  0.8895 -3.5916  0.6366
  200MOL0     H26340   4.658  10.271   3.231  1.6531  1.8246 -0.1178
  200MOL0     H26341   4.698  10.078   3.050 -0.2352  1.6566 -2.7649
  200MOL0     H26342   4.869  10.088   3.105 -0.6965 -0.4852  1.7745
  200MOL0     H26343   4.716  10.312   2.973 -1.7296 -1.4273 -3.0135
  200MOL0     H26344   4.898  10.279   3.019  0.2112 -0.8085 -0.4656
  200MOL0     H26345   4.719  10.110   2.835  1.3305 -2.6323 -1.2562
  200MOL0     H26346   4.886  10.095   2.880  0.0670  0.1945  2.0137
  200MOL0     H26347   4.885  10.189   2.667 -1.7641 -0.1788 -0.1431
  200MOL0     H26348   4.967  10.287   2.775  0.8081 -2.4203 -0.5293
  200MOL0     H26349   4.668  10.343   2.699  0.8973 -1.0402 -0.8474
  200MOL0     H26350   4.772  10.441   2.797 -1.9552 -1.5684  1.5347
  200MOL0     H26351   4.760  10.511   2.553 -4.6302 -2.1861  0.3619
  200MOL0     H26352   4.832  10.358   2.510 -4.4004  0.8497  0.1115
  200MOL0     H26353   4.920  10.641   2.785  0.4304 -0.0821 -0.2544
  200MOL0     H26354   5.073  10.829   2.752  1.2510  1.9271  1.9966
  200MOL0     H26355   5.201  10.820   2.623 -2.1510  2.3869 -0.5586
  200MOL0     H26356   5.311  10.857   2.859 -3.1175  2.5098  0.1435
  200MOL0     H26357   5.335  10.695   2.822  2.0303  1.6534 -3.3095
  200MOL0     H26358   5.072  10.771   2.964 -0.6387  2.2909  1.3488
  200MOL0     H26359   5.152  10.610   2.937 -0.4414  0.3445  0.7624
  200MOL0     H26360   5.345  10.680   3.059 -0.5047  0.4432 -3.2415
  200MOL0     H26361   5.189  10.677   3.153  0.7566 -1.7317 -0.2173
  200MOL0     H26362   5.298  10.711   3.345  0.7979 -0.6855  3.5598
  200MOL0     H26363   5.369  10.806   3.567 -2.5123 -1.7891 -0.3136
  200MOL0     H26364   5.383  11.466   3.594  0.0325  0.7905  1.6140
  200MOL0     H26365   5.395  11.611   3.781  0.0031 -0.1727  1.6408
  200MOL0     H26366   5.267  11.602   3.976  1.1887  0.9483 -2.9099
  200MOL0     H26367   5.399  11.723   3.996  3.2993 -0.2975  4.8673
  200MOL0     H26368   5.396  11.628   4.252  2.7177  0.0355 -2.6811
  200MOL0     H26369   5.230  11.637   4.224  1.5348 -2.3856  2.1823
  200MOL0     H26370   5.227  11.859   4.130  0.8225 -3.6819 -2.7896
  200MOL0     H26371   5.397  11.879   4.156 -1.9401  1.9186 -2.5610
  200MOL0     H26372   5.204  11.837   4.388  0.1562  1.3355  0.6262
  200MOL0     H26373   5.380  11.821   4.398  0.3264  0.5146  0.9515
  200MOL0     H26374   5.184  12.051   4.339 -1.3290  0.3281  4.2727
  200MOL0     H26375   5.346  12.065   4.283  0.6031  0.2179  1.0331
  200MOL0     H26376   5.317  12.184   4.485 -2.9763 -1.2173 -2.6485
  200MOL0     H26377   5.441  12.043   4.503  0.4324 -2.3836 -2.7063
  200MOL0     H26378   5.156  12.057   4.625  0.4624  2.9467 -0.5424
  200MOL0     H26379   5.272  11.917   4.623  1.5433 -1.2604  0.6184
  200MOL0     H26380   5.305  12.188   4.767  4.1790  0.0273  1.9018
  200MOL0     H26381   5.422  12.063   4.772  0.9395  2.3945 -2.6444
  200MOL0     H26382   5.611  11.334   4.017 -1.0022 -0.6619 -0.2607
  200MOL0     H26383   5.592  11.173   3.822  2.4291 -0.2731 -3.5100
  200MOL0     H26384   5.366  11.199   3.370 -2.5057  0.4028 -1.0335
  200MOL0     H26385   5.312  11.094   3.162  4.6709 -1.9392 -2.0030
  200MOL0     H26386   4.535   9.935   3.483 -0.4977 -0.0910  2.4279
  200MOL0     H26387   4.502   9.758   3.648 -2.0709  3.4894 -2.6497
  200MOL0     H26388   4.547   9.379   3.775 -0.3020 -1.1846  0.0623
  200MOL0     H26389   4.475   9.212   3.942  0.8442  0.8566 -0.5761
  200MOL0     H26390   4.596   9.279   4.377  1.0638 -1.3864  4.2389
  200MOL0     H26391   4.726   9.190   4.317  0.2266  0.6061 -1.2812
  200MOL0     H26392   4.474   9.027   4.382  0.9912 -1.7957 -2.0773
  200MOL0     H26393   4.644   8.985   4.409 -0.3020 -0.1223  1.4890
  200MOL0     H26394   4.501   9.195   4.571 -0.8692  0.7480 -1.0870
  200MOL0     H26395   4.679   9.164   4.568  0.3329 -1.8620 -1.6146
  200MOL0     H26396   4.472   8.943   4.639  0.9344 -1.1815 -1.4222
  200MOL0     H26397   4.651   8.952   4.664 -0.2516  0.3861 -0.0047
  200MOL0     H26398   4.528   9.178   4.988  0.6260 -1.3262  0.7729
  200MOL0     H26399   4.728   9.407   4.232  0.6840  2.1255  0.2527
  200MOL0     H26400   4.793   9.555   4.069  0.1421 -0.6358  1.2126
  201MOL0     O26401   3.511   4.464   2.668  0.2915  1.1867 -1.1055
  201MOL0     C26402   3.461   4.444   2.554 -0.4854 -0.3734 -0.0775
  201MOL0     O26403   3.524   4.443   2.436 -0.6992 -0.3328 -0.2492
  201MOL0     C26404   3.647   4.506   2.440  0.5592 -0.0520 -0.0874
  201MOL0     C26405   3.677   4.630   2.371 -0.6604  0.3082 -1.0719
  201MOL0     C26406   3.807   4.664   2.354 -0.4813  0.3480 -0.5060
  201MOL0     C26407   3.911   4.607   2.434 -0.0882  0.5204 -0.5347
  201MOL0     O26408   4.045   4.652   2.427  0.5337 -1.1627  0.1906
  201MOL0     C26409   4.113   4.617   2.302 -0.3785 -0.5076 -0.2221
  201MOL0     C26410   4.190   4.750   2.278  0.0394  0.5429  0.2589
  201MOL0     C26411   4.296   4.739   2.171  0.0460  0.1165  0.5307
  201MOL0     C26412   4.371   4.866   2.153  0.1089 -0.5323  0.0871
  201MOL0     C26413   4.359   4.924   2.015  0.1921  0.3905  0.7704
  201MOL0     C26414   4.446   5.043   1.998 -1.0185  0.7457 -0.7533
  201MOL0     C26415   4.466   5.098   1.865 -0.3048 -0.7860  0.0951
  201MOL0     C26416   4.570   5.031   1.780  0.9378  0.9541 -0.3694
  201MOL0     N26417   4.604   5.085   1.649  0.0623  0.2331 -0.0798
  201MOL0     C26418   4.702   5.184   1.628  0.6563  1.2851  0.5096
  201MOL0     C26419   4.681   5.208   1.497  0.0004  0.5610  0.8039
  201MOL0     C26420   4.749   5.309   1.396 -0.6346 -1.1003 -0.6322
  201MOL0     C26421   4.655   5.372   1.294  0.3748 -0.1824  0.4356
  201MOL0     C26422   4.717   5.418   1.162  0.7803 -0.5168  0.2436
  201MOL0     C26423   4.838   5.509   1.152 -0.0589 -0.1792  0.1708
  201MOL0     O26424   4.801   5.631   1.215  0.7982 -0.4532 -0.4175
  201MOL0     C26425   4.861   5.747   1.161  0.3225  0.2464 -0.5380
  201MOL0     C26426   4.852   5.776   1.026  0.1863 -0.1296  0.2118
  201MOL0     C26427   4.907   5.900   0.989 -0.0765  0.2679 -0.5990
  201MOL0     C26428   4.967   5.990   1.085 -0.1143  0.6182  0.0044
  201MOL0     C26429   5.010   6.128   1.044  0.3569  0.1000  0.3800
  201MOL0     O26430   5.007   6.158   0.911 -0.2954 -0.2925  0.3399
  201MOL0     C26431   5.076   6.262   0.852  0.1321 -0.9934 -0.3742
  201MOL0     C26432   5.157   6.357   0.916  0.4553  0.5798 -0.1248
  201MOL0     C26433   5.200   6.471   0.847  1.5371  1.2841 -0.1349
  201MOL0     C26434   5.160   6.486   0.713  0.4485  0.0500 -0.4771
  201MOL0     O26435   5.196   6.614   0.673 -0.1107 -0.0071  0.4174
  201MOL0     C26436   5.190   6.652   0.537  0.8807 -0.7698 -0.3579
  201MOL0     C26437   5.289   6.580   0.448  0.0633  0.0119 -0.1407
  201MOL0     C26438   5.246   6.564   0.300  1.1085 -0.0384 -0.2792
  201MOL0     C26439   5.351   6.503   0.204  0.1566 -0.8725 -0.5829
  201MOL0     C26440   5.327   6.521   0.052  0.3779  0.3465  0.5526
  201MOL0     C26441   5.355   6.661  -0.008  0.8181 -0.6750 -0.9756
  201MOL0     C26442   5.316   6.654  -0.156 -0.4360 -0.7388  0.2009
  201MOL0     C26443   5.296   6.799  -0.205  0.9959 -0.5274 -0.1220
  201MOL0    Cl26444   5.296   6.785  -0.384 -0.1749  0.0848  0.8011
  201MOL0     C26445   5.091   6.386   0.642 -1.1251 -0.7779 -0.4731
  201MOL0     C26446   5.047   6.273   0.709  0.0596 -0.7324  0.9371
  201MOL0     O26447   5.050   6.198   1.130 -0.1353  0.2183  1.1204
  201MOL0     C26448   4.968   5.948   1.219  0.0599 -0.2312 -0.6444
  201MOL0     C26449   4.925   5.814   1.258 -0.2990 -1.2713  0.3718
  201MOL0     N26450   4.580   5.128   1.449 -0.8916 -0.5900  0.9244
  201MOL0     N26451   4.526   5.061   1.537  0.3286 -0.2054 -0.8989
  201MOL0     C26452   3.889   4.492   2.506  0.9775 -0.5479  0.9244
  201MOL0     C26453   3.755   4.437   2.506 -1.4291 -0.6211  1.1678
  201MOL0     C26454   3.324   4.390   2.532  0.0085  0.8599  0.6849
  201MOL0     C26455   3.257   4.410   2.411  0.0056  0.4354 -1.1026
  201MOL0     C26456   3.132   4.351   2.386 -0.7418  1.4328 -0.2103
  201MOL0     C26457   3.075   4.272   2.476  0.0691 -0.1206 -0.7061
  201MOL0     O26458   2.951   4.220   2.449  0.2397  0.1059 -0.2110
  201MOL0     C26459   2.950   4.076   2.456  1.2201 -0.2779  0.1385
  201MOL0     C26460   3.077   4.002   2.406  0.0692  0.4281  0.2585
  201MOL0     C26461   3.099   4.014   2.255  0.8591  0.1757  0.7002
  201MOL0     C26462   3.204   3.924   2.198 -0.1917  0.5526  0.4526
  201MOL0     C26463   3.188   3.785   2.225 -0.1479 -0.1450 -1.0097
  201MOL0     C26464   3.194   3.671   2.265  0.6615 -0.2760 -0.6588
  201MOL0     C26465   3.147   4.254   2.602 -0.4910  0.0446 -0.5321
  201MOL0     C26466   3.261   4.313   2.637  0.3144  0.3792  0.1461
  201MOL0     H26467   3.589   4.676   2.328 -1.6459  1.7911  2.2003
  201MOL0     H26468   3.840   4.752   2.300  1.7017 -2.9892 -5.3719
  201MOL0     H26469   4.047   4.588   2.220  0.6323  1.7553 -1.9762
  201MOL0     H26470   4.187   4.538   2.318  2.5824  2.4576  2.1225
  201MOL0     H26471   4.244   4.786   2.366 -1.2486  1.5662  0.6556
  201MOL0     H26472   4.126   4.832   2.243  0.9184  1.0764 -0.1367
  201MOL0     H26473   4.254   4.694   2.080  2.9814 -1.1208 -0.3613
  201MOL0     H26474   4.364   4.659   2.203  0.8102  1.6154  2.8817
  201MOL0     H26475   4.337   4.931   2.233  0.5162 -2.3418  1.7956
  201MOL0     H26476   4.476   4.836   2.153  0.6348  1.0437 -1.6442
  201MOL0     H26477   4.257   4.953   1.990 -1.9724 -5.3990  1.2908
  201MOL0     H26478   4.390   4.852   1.938 -0.0672  0.7548  0.3187
  201MOL0     H26479   4.546   5.031   2.042 -0.9779 -0.2636 -1.1009
  201MOL0     H26480   4.398   5.131   2.042  0.5173  2.0143 -1.5007
  201MOL0     H26481   4.376   5.091   1.802 -0.4969 -3.0388  0.5155
  201MOL0     H26482   4.499   5.202   1.865  2.2447 -1.5087 -0.9004
  201MOL0     H26483   4.542   4.927   1.761  1.3388  1.1745 -2.4305
  201MOL0     H26484   4.658   5.036   1.844 -1.5657  2.5565  3.3366
  201MOL0     H26485   4.775   5.232   1.691 -1.5311  5.0367  0.5072
  201MOL0     H26486   4.829   5.253   1.346  1.8670  1.0159  0.7899
  201MOL0     H26487   4.790   5.398   1.444 -1.0547 -0.5020 -1.3514
  201MOL0     H26488   4.592   5.450   1.338 -1.8149 -1.7245  0.2492
  201MOL0     H26489   4.583   5.298   1.256  1.9198 -0.2769 -2.6597
  201MOL0     H26490   4.743   5.341   1.089  2.3914  1.7260 -1.7073
  201MOL0     H26491   4.643   5.479   1.110  1.0510 -1.8150 -1.7534
  201MOL0     H26492   4.870   5.527   1.049 -2.3562  0.3751 -0.5001
  201MOL0     H26493   4.917   5.459   1.208 -1.2687 -1.7645  0.5155
  201MOL0     H26494   4.802   5.714   0.953 -2.9512  1.4221  0.8420
  201MOL0     H26495   4.905   5.934   0.886 -1.0137  2.1834 -0.0138
  201MOL0     H26496   5.179   6.358   1.023 -0.6694  1.4183  0.1212
  201MOL0     H26497   5.266   6.546   0.891  1.6081 -0.1593  2.4073
  201MOL0     H26498   5.195   6.761   0.539  0.4176 -0.7486  1.3659
  201MOL0     H26499   5.088   6.639   0.499  0.9603  0.8560 -1.2404
  201MOL0     H26500   5.312   6.478   0.480  1.0787  0.2575 -0.0630
  201MOL0     H26501   5.385   6.632   0.458  0.0478  0.1729 -0.7800
  201MOL0     H26502   5.229   6.661   0.253  2.4775  0.2455 -0.2143
  201MOL0     H26503   5.157   6.503   0.319 -1.3044  4.3094  5.2934
  201MOL0     H26504   5.451   6.534   0.235 -1.7902  2.3738  3.5175
  201MOL0     H26505   5.344   6.396   0.225 -1.9150 -0.2646  2.3685
  201MOL0     H26506   5.232   6.481   0.016  1.0060 -0.3110 -0.4279
  201MOL0     H26507   5.409   6.469   0.001  1.4847  1.7563  0.8176
  201MOL0     H26508   5.459   6.694  -0.009  0.1740  1.5512 -0.9135
  201MOL0     H26509   5.295   6.740   0.038  0.1998 -1.1669 -0.9087
  201MOL0     H26510   5.393   6.614  -0.222  1.4948  0.8006  1.3856
  201MOL0     H26511   5.228   6.595  -0.181 -1.7491  1.2405 -0.1317
  201MOL0     H26512   5.370   6.874  -0.177  0.3178  1.4741 -3.1810
  201MOL0     H26513   5.197   6.835  -0.176  0.5103 -1.9769  0.1057
  201MOL0     H26514   5.059   6.389   0.538 -1.8445 -1.4269 -0.2797
  201MOL0     H26515   4.998   6.197   0.648  2.0794 -3.2300  2.2224
  201MOL0     H26516   5.008   6.011   1.297 -0.2615  0.1749 -0.8038
  201MOL0     H26517   4.922   5.796   1.365 -3.2920  2.5322  1.1112
  201MOL0     H26518   3.968   4.444   2.564  1.2767  0.5276  1.4356
  201MOL0     H26519   3.749   4.333   2.539 -0.7847 -2.1552 -2.9952
  201MOL0     H26520   3.304   4.482   2.344  5.7891  1.4110  3.2302
  201MOL0     H26521   3.099   4.374   2.286 -0.2627 -0.5910 -0.8837
  201MOL0     H26522   2.864   4.048   2.394  0.6489  0.6004  0.5241
  201MOL0     H26523   2.922   4.049   2.559  1.0822 -2.2965 -0.3781
  201MOL0     H26524   3.163   4.056   2.447 -1.2006  3.1623 -0.5127
  201MOL0     H26525   3.075   3.899   2.443 -0.6452  0.8028  1.3180
  201MOL0     H26526   3.124   4.118   2.230 -2.4483  0.7293 -0.9158
  201MOL0     H26527   3.000   3.998   2.210  1.2131 -4.8069  1.1270
  201MOL0     H26528   3.216   3.932   2.090  0.7924  1.7397  0.6212
  201MOL0     H26529   3.303   3.958   2.231 -0.0084  0.5576 -0.0876
  201MOL0     H26530   3.204   3.573   2.307 -0.2654 -0.3535 -0.6079
  201MOL0     H26531   3.093   4.200   2.679 -0.6050  0.6278 -0.1951
  201MOL0     H26532   3.308   4.292   2.733 -2.1410  0.7507  1.5122
  202MOL0     O26533  10.669   1.121   4.873  0.0323 -0.3301  0.4498
  202MOL0     C26534  10.634   1.009   4.850 -0.8852  0.4450 -0.7839
  202MOL0     O26535  10.530   0.951   4.919  0.2826  0.4796  0.3937
  202MOL0     C26536  10.461   1.023   5.004 -0.4357  0.0926 -0.1352
  202MOL0     C26537  10.515   1.074   5.119 -0.1040  0.9701  0.8503
  202MOL0     C26538  10.439   1.148   5.208  0.3300  0.5936  0.0216
  202MOL0     C26539  10.304   1.178   5.188 -0.0368  0.3317  0.7276
  202MOL0     O26540  10.236   1.218   5.301 -0.1554 -0.8620  0.4337
  202MOL0     C26541  10.099   1.276   5.293  0.2083  0.3506  0.2243
  202MOL0     C26542  10.100   1.416   5.220  0.0639 -0.1730 -0.2239
  202MOL0     C26543   9.971   1.502   5.258 -0.6078  0.3797  0.5058
  202MOL0     C26544   9.943   1.615   5.160 -0.1028 -0.7717  0.3011
  202MOL0     C26545   9.827   1.706   5.202  0.7718  0.0750  1.4875
  202MOL0     C26546   9.756   1.765   5.078 -0.0460 -0.3465 -0.4986
  202MOL0     C26547   9.641   1.870   5.122 -1.5444  0.3927  1.0404
  202MOL0     C26548   9.532   1.895   5.005 -0.7528 -0.6030 -0.0861
  202MOL0     N26549   9.483   2.027   4.995  0.3932 -0.7571 -0.5954
  202MOL0     C26550   9.374   2.069   5.071 -1.0330  0.0709  0.9840
  202MOL0     C26551   9.351   2.197   5.033 -0.0674 -0.6244 -0.2995
  202MOL0     C26552   9.248   2.288   5.091  0.0724 -1.3160  0.1974
  202MOL0     C26553   9.311   2.376   5.210 -0.5235 -0.7675  0.9634
  202MOL0     C26554   9.242   2.355   5.342 -0.0683 -1.2802 -0.9515
  202MOL0     C26555   9.227   2.214   5.387  0.0612  0.3703  0.6376
  202MOL0     O26556   9.154   2.213   5.505  0.2311 -0.3154  0.7768
  202MOL0     C26557   9.145   2.094   5.569  0.4101  0.3577 -0.0430
  202MOL0     C26558   9.035   2.070   5.649  0.1820 -0.6388 -0.3185
  202MOL0     C26559   9.013   1.944   5.699  0.6885 -0.0972 -0.0134
  202MOL0     C26560   9.095   1.836   5.660 -0.1098 -0.6551 -0.4847
  202MOL0     C26561   9.052   1.701   5.691 -0.1105 -1.6448 -0.1679
  202MOL0     O26562   8.963   1.672   5.794 -0.3557  0.0283  0.2502
  202MOL0     C26563   8.933   1.539   5.827  1.4869  0.4696  0.9383
  202MOL0     C26564   9.019   1.453   5.894  0.8442 -0.0432 -0.5006
  202MOL0     C26565   8.973   1.325   5.929 -0.0295  0.8699 -0.5522
  202MOL0     C26566   8.827   1.290   5.923 -0.7853  0.6992  0.0943
  202MOL0     O26567   8.772   1.170   5.950 -0.4073  0.4441 -0.0106
  202MOL0     C26568   8.796   1.138   6.088  0.0589  0.8622 -0.7182
  202MOL0     C26569   8.698   1.200   6.187 -0.8010  0.4207  0.0631
  202MOL0     C26570   8.559   1.166   6.163 -0.0427 -0.5102 -1.0186
  202MOL0     C26571   8.471   1.164   6.288  0.4509  0.4344 -0.7083
  202MOL0     C26572   8.328   1.141   6.239 -0.2279 -0.0924 -0.7921
  202MOL0     C26573   8.228   1.115   6.355 -0.5154  0.5467 -0.0597
  202MOL0     C26574   8.096   1.073   6.293  0.4176 -0.6166 -0.5846
  202MOL0     C26575   7.998   1.044   6.403  1.1920  0.5659  0.4022
  202MOL0    Cl26576   7.983   1.196   6.494 -0.1198 -0.1438  0.2585
  202MOL0     C26577   8.745   1.392   5.869 -0.3783  0.5678 -0.5275
  202MOL0     C26578   8.800   1.502   5.801  0.4621 -1.1667 -1.0523
  202MOL0     O26579   9.103   1.617   5.614  0.1019 -0.1601  0.4079
  202MOL0     C26580   9.226   1.863   5.608 -0.8412 -0.1144 -0.0031
  202MOL0     C26581   9.250   1.993   5.561  0.7655 -0.3789 -0.3261
  202MOL0     N26582   9.434   2.224   4.924 -0.4293  0.2695  0.5700
  202MOL0     N26583   9.507   2.124   4.901  0.2297 -0.4004  0.0921
  202MOL0     C26584  10.248   1.133   5.067  0.6299 -0.5325  1.4202
  202MOL0     C26585  10.332   1.066   4.975 -0.1165  0.1812  0.4673
  202MOL0     C26586  10.718   0.932   4.757 -0.1295  0.1994 -0.7247
  202MOL0     C26587  10.664   0.829   4.682 -0.3155 -0.2199  0.4801
  202MOL0     C26588  10.744   0.740   4.606 -0.1356  1.0106  0.3166
  202MOL0     C26589  10.877   0.753   4.605 -0.3679 -0.4636  0.0321
  202MOL0     O26590  10.949   0.651   4.546 -0.0271 -0.1765 -0.1066
  202MOL0     C26591  11.074   0.658   4.483 -0.2317 -0.0868 -0.3354
  202MOL0     C26592  11.049   0.742   4.361  0.0004 -0.3519 -1.1759
  202MOL0     C26593  11.171   0.776   4.282  0.2890 -0.1999 -0.3890
  202MOL0     C26594  11.178   0.668   4.182  0.5461 -1.0399  0.8699
  202MOL0     C26595  11.085   0.700   4.076  1.1145 -0.8452  0.1264
  202MOL0     C26596  10.995   0.701   3.994  0.0059  1.0817 -0.6563
  202MOL0     C26597  10.933   0.866   4.660  0.7673 -0.3060  0.4246
  202MOL0     C26598  10.853   0.956   4.738 -0.4853  0.7325  0.2922
  202MOL0     H26599  10.618   1.057   5.149 -0.2835 -1.8248  0.1917
  202MOL0     H26600  10.482   1.177   5.303  0.0101  0.1370  0.3085
  202MOL0     H26601  10.076   1.278   5.400 -2.7727 -2.5166 -0.2104
  202MOL0     H26602  10.033   1.202   5.247  2.3802 -1.4148 -0.2000
  202MOL0     H26603  10.098   1.394   5.113  1.7192 -1.4824 -0.0212
  202MOL0     H26604  10.192   1.471   5.244 -1.5882  1.5907  2.7918
  202MOL0     H26605   9.995   1.541   5.357 -0.4905 -3.1505  2.0274
  202MOL0     H26606   9.890   1.429   5.268 -1.3230  1.0885 -0.0334
  202MOL0     H26607  10.030   1.673   5.130 -0.8258  0.0532 -0.2578
  202MOL0     H26608   9.908   1.556   5.074 -1.1942  0.4007 -0.0957
  202MOL0     H26609   9.876   1.788   5.255  0.9705  0.2516  1.0340
  202MOL0     H26610   9.762   1.656   5.276 -0.3971  0.8701  1.0238
  202MOL0     H26611   9.709   1.681   5.026  3.8840 -2.9280 -0.3493
  202MOL0     H26612   9.830   1.811   5.012 -1.0060  3.0952  0.6418
  202MOL0     H26613   9.594   1.834   5.214  1.3823  0.3491  2.6248
  202MOL0     H26614   9.703   1.960   5.135  1.6842 -1.1165 -2.1957
  202MOL0     H26615   9.449   1.826   5.025 -0.9277 -0.1208  0.9005
  202MOL0     H26616   9.576   1.877   4.907 -0.1202  1.5445 -0.2497
  202MOL0     H26617   9.317   2.016   5.146 -2.0617 -3.6343 -2.0505
  202MOL0     H26618   9.159   2.231   5.121 -1.2595  0.2619 -0.5926
  202MOL0     H26619   9.220   2.364   5.018  2.4568  2.5807  2.9739
  202MOL0     H26620   9.301   2.483   5.186  0.8660 -1.0588 -1.1900
  202MOL0     H26621   9.418   2.355   5.217  0.4226  3.1455  0.8921
  202MOL0     H26622   9.286   2.411   5.425 -1.7729 -0.9987 -0.1778
  202MOL0     H26623   9.142   2.398   5.328  0.5980  1.2718  1.2492
  202MOL0     H26624   9.326   2.166   5.388  0.3145  0.5329 -2.8737
  202MOL0     H26625   9.165   2.142   5.333 -1.7926  1.0858  1.7195
  202MOL0     H26626   8.965   2.148   5.674 -0.9984 -2.4499  2.6055
  202MOL0     H26627   8.921   1.922   5.752 -0.0372 -0.1283 -1.2399
  202MOL0     H26628   9.118   1.485   5.925 -0.0815  0.8320  1.8173
  202MOL0     H26629   9.049   1.259   5.971 -0.9729 -0.6990 -1.2295
  202MOL0     H26630   8.893   1.164   6.132 -2.2413  2.7963  3.9474
  202MOL0     H26631   8.792   1.029   6.092 -1.2376  0.9190  0.9677
  202MOL0     H26632   8.706   1.309   6.175  1.8447  0.4140  1.0676
  202MOL0     H26633   8.733   1.170   6.286  1.4866  0.0882 -0.7648
  202MOL0     H26634   8.567   1.059   6.143  1.6474 -1.0335  1.9516
  202MOL0     H26635   8.499   1.220   6.089 -1.2411 -0.5063 -0.0898
  202MOL0     H26636   8.501   1.085   6.358  1.4669 -0.0528 -1.6521
  202MOL0     H26637   8.464   1.259   6.341 -2.3825 -0.8676  1.5054
  202MOL0     H26638   8.341   1.050   6.180  2.7468  1.0001 -2.0250
  202MOL0     H26639   8.285   1.219   6.175  1.2557  1.3238 -0.1488
  202MOL0     H26640   8.222   1.194   6.431 -1.9120 -2.8777  3.8203
  202MOL0     H26641   8.266   1.031   6.415 -0.8500  1.6533  1.7755
  202MOL0     H26642   8.064   1.153   6.226 -1.0570 -0.2423  0.4926
  202MOL0     H26643   8.113   0.986   6.229 -2.4960 -1.3144 -0.5734
  202MOL0     H26644   8.035   0.949   6.443  0.0773 -0.0261  0.0633
  202MOL0     H26645   7.905   1.017   6.351  1.7418 -0.3505 -0.1381
  202MOL0     H26646   8.641   1.370   5.848 -0.6741  1.8110 -0.4160
  202MOL0     H26647   8.742   1.579   5.752  1.0239 -1.1777 -1.7575
  202MOL0     H26648   9.298   1.782   5.602 -2.7331 -1.8299 -0.3704
  202MOL0     H26649   9.341   2.024   5.510 -0.6245  3.0799 -0.9377
  202MOL0     H26650  10.146   1.158   5.039  0.8977  0.8484  1.5910
  202MOL0     H26651  10.288   1.032   4.882 -0.0532  1.0442  0.1168
  202MOL0     H26652  10.557   0.812   4.681 -0.5038  0.6496 -2.2719
  202MOL0     H26653  10.703   0.650   4.560  1.4250  0.7165 -0.5815
  202MOL0     H26654  11.106   0.554   4.476 -2.5267 -1.2058  3.1349
  202MOL0     H26655  11.146   0.712   4.546  0.0576 -1.0850  0.2084
  202MOL0     H26656  10.970   0.688   4.308 -1.1770 -1.1063  1.1785
  202MOL0     H26657  11.017   0.833   4.411  6.4109  0.3191  2.8190
  202MOL0     H26658  11.260   0.784   4.345  0.3445 -2.2364 -0.1279
  202MOL0     H26659  11.164   0.871   4.228  2.0696 -1.0413 -2.2289
  202MOL0     H26660  11.275   0.666   4.131 -0.1397 -1.5539 -0.4714
  202MOL0     H26661  11.153   0.569   4.222  0.6056 -1.7694 -0.8074
  202MOL0     H26662  10.903   0.701   3.939 -1.8800 -1.8481  2.1565
  202MOL0     H26663  11.041   0.875   4.663  0.6578  0.9149  2.2837
  202MOL0     H26664  10.902   1.037   4.789 -0.8474  0.0701  1.7521
  203MOL0     O26665  10.701   2.176   2.223  0.1279  0.0944 -0.3326
  203MOL0     C26666  10.614   2.091   2.222  0.8716  0.6378  1.5982
  203MOL0     O26667  10.491   2.111   2.155  0.6303  0.3108  0.0516
  203MOL0     C26668  10.469   2.241   2.121  0.0805 -0.4292  0.3738
  203MOL0     C26669  10.385   2.311   2.200 -0.1186 -0.2006 -0.7651
  203MOL0     C26670  10.342   2.441   2.170  0.7028  1.1143  0.7103
  203MOL0     C26671  10.399   2.511   2.067 -0.4315 -0.7399 -1.6603
  203MOL0     O26672  10.345   2.639   2.043  0.4454 -0.4923 -0.3133
  203MOL0     C26673  10.411   2.715   1.951 -0.6260  0.2378 -0.0948
  203MOL0     C26674  10.369   2.862   1.976  0.3389  0.4308 -0.5221
  203MOL0     C26675  10.457   2.927   2.088  1.0924 -0.4176 -0.8923
  203MOL0     C26676  10.612   2.951   2.057  0.3098 -0.6991  0.3640
  203MOL0     C26677  10.663   3.090   2.115 -0.4094 -0.1266  0.3585
  203MOL0     C26678  10.733   3.077   2.246  0.2411 -0.0363  0.9310
  203MOL0     C26679  10.867   3.007   2.236  0.3809 -0.3839  0.6865
  203MOL0     C26680  10.922   2.969   2.367  0.4754  0.2712  0.9069
  203MOL0     N26681  11.059   2.906   2.350 -0.0208  0.1845 -0.3562
  203MOL0     C26682  11.172   2.970   2.388  0.4037  0.3473  0.8727
  203MOL0     C26683  11.277   2.891   2.345  0.0661  1.0324  0.7214
  203MOL0     C26684  11.414   2.906   2.379 -0.2763 -0.5063 -0.4515
  203MOL0     C26685  11.479   3.020   2.295 -0.9004  0.0424  0.9431
  203MOL0     C26686  11.460   3.163   2.349  0.0974  0.0803  0.5508
  203MOL0     C26687  11.464   3.185   2.498 -0.0735 -0.4449  0.3514
  203MOL0     O26688  11.502   3.322   2.520  0.2792 -0.3324  0.2378
  203MOL0     C26689  11.429   3.407   2.602 -0.6674 -1.2155 -0.6782
  203MOL0     C26690  11.461   3.533   2.574  0.4164 -0.7855  0.0993
  203MOL0     C26691  11.393   3.630   2.644  0.3164 -0.4113 -0.7289
  203MOL0     C26692  11.294   3.596   2.747 -0.3386  0.3110 -0.1027
  203MOL0     C26693  11.217   3.711   2.815  0.1357 -0.2265  0.1991
  203MOL0     O26694  11.223   3.835   2.769 -0.6001 -0.8568  0.7078
  203MOL0     C26695  11.175   3.931   2.854  0.9243  0.8800  0.1459
  203MOL0     C26696  11.273   4.007   2.915 -1.0439  0.0471 -0.5292
  203MOL0     C26697  11.237   4.104   3.008 -0.0849 -0.3537  0.3858
  203MOL0     C26698  11.104   4.136   3.050  0.3354 -0.2996 -0.2537
  203MOL0     O26699  11.075   4.244   3.127  0.2129  0.1961 -0.4192
  203MOL0     C26700  11.154   4.267   3.242 -0.0583  0.0607  0.2704
  203MOL0     C26701  11.249   4.383   3.208 -0.4108  1.0727  0.4170
  203MOL0     C26702  11.363   4.383   3.309 -0.6739  0.0527 -0.1615
  203MOL0     C26703  11.466   4.495   3.264  0.6101 -0.1669 -0.0315
  203MOL0     C26704  11.551   4.447   3.150  0.3871 -1.1721  0.0462
  203MOL0     C26705  11.695   4.523   3.159 -0.0605 -0.2332  0.0163
  203MOL0     C26706  11.698   4.654   3.088 -0.3389 -0.1062  0.4906
  203MOL0     C26707  11.711   4.783   3.173 -0.3139  0.6728  0.0749
  203MOL0    Cl26708  11.871   4.779   3.246 -0.2319 -0.2004 -0.1633
  203MOL0     C26709  11.002   4.058   2.990 -0.2235 -0.0724  0.5706
  203MOL0     C26710  11.037   3.961   2.889 -0.9037  0.2326 -0.7512
  203MOL0     O26711  11.142   3.672   2.911 -0.2699 -0.0555 -0.4774
  203MOL0     C26712  11.257   3.463   2.766 -0.3862 -0.0022  0.8023
  203MOL0     C26713  11.322   3.370   2.683 -0.2343  0.1321 -0.1365
  203MOL0     N26714  11.224   2.787   2.269 -0.4816  0.3147 -1.3512
  203MOL0     N26715  11.095   2.794   2.276 -0.3643  0.0389  0.6776
  203MOL0     C26716  10.495   2.449   1.993 -0.1373  0.3287  1.4782
  203MOL0     C26717  10.534   2.312   2.017 -0.6263  0.7672 -0.7005
  203MOL0     C26718  10.621   1.958   2.290  0.0916 -0.2521  0.6908
  203MOL0     C26719  10.516   1.887   2.341  0.5610 -0.0066  0.3537
  203MOL0     C26720  10.536   1.750   2.378 -0.2175 -0.1375 -0.7053
  203MOL0     C26721  10.663   1.702   2.404  0.7053 -0.7483  0.4756
  203MOL0     O26722  10.665   1.581   2.460 -0.0049  0.4213 -0.2473
  203MOL0     C26723  10.793   1.502   2.448  0.1343 -0.3261  0.3888
  203MOL0     C26724  10.753   1.368   2.495  1.0074 -0.4537 -0.3388
  203MOL0     C26725  10.652   1.292   2.398  0.2479  0.6036 -0.5131
  203MOL0     C26726  10.625   1.145   2.450  0.1286  0.2437  0.3134
  203MOL0     C26727  10.551   1.133   2.574 -0.7208 -1.5442  0.0521
  203MOL0     C26728  10.486   1.110   2.671  1.0600  0.1287 -0.4499
  203MOL0     C26729  10.771   1.787   2.379  1.2792  0.5157 -0.9767
  203MOL0     C26730  10.756   1.914   2.312  0.5632  0.0970 -0.3769
  203MOL0     H26731  10.341   2.271   2.290  0.1684  1.4686  0.1613
  203MOL0     H26732  10.255   2.475   2.224 -0.3172  1.6566 -1.2075
  203MOL0     H26733  10.372   2.674   1.857  0.1817  0.9343 -0.7521
  203MOL0     H26734  10.519   2.701   1.960 -0.2754  3.3213  1.8123
  203MOL0     H26735  10.270   2.863   2.022  1.0612  0.5709  1.1111
  203MOL0     H26736  10.380   2.918   1.883  1.5605  1.2057  0.0583
  203MOL0     H26737  10.446   2.860   2.174  2.4689 -0.8055 -0.9973
  203MOL0     H26738  10.399   3.018   2.106 -2.3756 -2.1534 -2.3562
  203MOL0     H26739  10.665   2.867   2.102 -1.5102 -0.9370  2.2779
  203MOL0     H26740  10.628   2.971   1.951 -3.6576  1.2981 -0.0641
  203MOL0     H26741  10.580   3.160   2.129  0.1231  0.9606 -1.6055
  203MOL0     H26742  10.733   3.131   2.042 -0.0011 -0.0733  0.7753
  203MOL0     H26743  10.665   3.016   2.305  2.3744 -5.1930 -1.3319
  203MOL0     H26744  10.735   3.179   2.287  1.3729 -0.3010  1.5853
  203MOL0     H26745  10.853   2.918   2.173 -0.5305 -1.0295  1.7738
  203MOL0     H26746  10.948   3.067   2.193 -0.2591 -1.1805 -1.8365
  203MOL0     H26747  10.858   2.895   2.417 -0.4302  0.1682 -0.3760
  203MOL0     H26748  10.930   3.057   2.431  1.5442  0.1757  0.9223
  203MOL0     H26749  11.207   3.051   2.452  1.3725  2.2089 -1.8432
  203MOL0     H26750  11.466   2.812   2.361  0.4756  0.0783 -1.4379
  203MOL0     H26751  11.429   2.929   2.485 -4.9931  0.7476  0.2167
  203MOL0     H26752  11.456   3.014   2.188 -1.1060  2.8922  0.7447
  203MOL0     H26753  11.585   2.998   2.315 -0.2129  0.6472 -1.6449
  203MOL0     H26754  11.532   3.228   2.299 -2.6712  1.8998 -1.3692
  203MOL0     H26755  11.359   3.196   2.319 -0.0906  2.0369  3.0252
  203MOL0     H26756  11.531   3.128   2.563 -2.4522 -1.6494  1.8485
  203MOL0     H26757  11.364   3.157   2.531 -0.8762 -0.5642 -1.9891
  203MOL0     H26758  11.538   3.553   2.500  0.2340 -0.1492  0.0797
  203MOL0     H26759  11.422   3.731   2.616 -1.1714 -0.1563 -1.4380
  203MOL0     H26760  11.376   3.989   2.888 -0.3232  2.7396  0.0941
  203MOL0     H26761  11.320   4.163   3.047  0.4908 -1.3573  0.7022
  203MOL0     H26762  11.218   4.179   3.254 -0.3915 -0.5460 -1.8386
  203MOL0     H26763  11.105   4.292   3.337 -1.7613 -2.3077  0.1304
  203MOL0     H26764  11.195   4.477   3.199 -0.8236  0.7071 -1.1871
  203MOL0     H26765  11.300   4.362   3.113  1.3495 -1.8277  1.8542
  203MOL0     H26766  11.416   4.287   3.302 -2.1316 -0.7585 -0.3673
  203MOL0     H26767  11.334   4.396   3.414  2.8214  2.6532  0.6727
  203MOL0     H26768  11.414   4.588   3.239 -0.5811  0.0245  2.6979
  203MOL0     H26769  11.528   4.521   3.350 -0.1226 -1.8740  1.0854
  203MOL0     H26770  11.504   4.475   3.055 -0.4187 -1.1004  0.4634
  203MOL0     H26771  11.566   4.339   3.150 -0.1029 -1.2423 -0.1853
  203MOL0     H26772  11.772   4.459   3.116 -0.8633 -1.1714 -0.0505
  203MOL0     H26773  11.714   4.545   3.265 -1.9569 -1.1365  0.5896
  203MOL0     H26774  11.786   4.655   3.024  1.0396  0.4171  2.3122
  203MOL0     H26775  11.618   4.661   3.014  1.2906 -1.0451 -1.4505
  203MOL0     H26776  11.640   4.791   3.256  3.2060 -0.4152  3.5199
  203MOL0     H26777  11.685   4.864   3.104 -1.5513 -0.7827 -1.2400
  203MOL0     H26778  10.900   4.088   3.013  0.4209  1.2709  1.8558
  203MOL0     H26779  10.954   3.908   2.845 -1.0367  0.4550 -0.7729
  203MOL0     H26780  11.172   3.447   2.832  0.7785  1.3077  2.7192
  203MOL0     H26781  11.278   3.272   2.685  0.1032 -0.0264  1.6412
  203MOL0     H26782  10.533   2.505   1.908 -2.0382  0.5598  0.7226
  203MOL0     H26783  10.603   2.262   1.950 -2.1416 -1.6408 -0.5757
  203MOL0     H26784  10.420   1.937   2.342 -0.6210 -2.1364 -0.3480
  203MOL0     H26785  10.449   1.685   2.385 -0.6624  0.0772 -3.1398
  203MOL0     H26786  10.865   1.547   2.518 -3.6654  2.7629  2.7600
  203MOL0     H26787  10.841   1.511   2.350  0.4819 -0.4543  0.5462
  203MOL0     H26788  10.839   1.301   2.505  1.5153 -0.0020 -1.4513
  203MOL0     H26789  10.709   1.376   2.595  3.7317  2.3163  0.7840
  203MOL0     H26790  10.695   1.283   2.298 -2.4852 -2.3753 -1.5799
  203MOL0     H26791  10.556   1.344   2.397  1.2445  3.3177  4.7866
  203MOL0     H26792  10.579   1.088   2.368  1.6455 -1.5808  0.6441
  203MOL0     H26793  10.717   1.090   2.472  1.0964  1.7992  0.2995
  203MOL0     H26794  10.420   1.098   2.754  0.2624  2.4066 -0.6933
  203MOL0     H26795  10.871   1.769   2.417 -0.2726  1.1795  4.2282
  203MOL0     H26796  10.845   1.972   2.288  2.5082 -0.7177  3.9101
  204MOL0     O26797   6.756   1.102   6.973 -0.5013 -0.0821  0.0953
  204MOL0     C26798   6.754   1.119   7.097 -1.0285 -0.4780 -0.2061
  204MOL0     O26799   6.754   1.019   7.191 -0.7591  0.9895 -0.6982
  204MOL0     C26800   6.782   0.877   7.158 -0.0798 -1.1602 -1.6293
  204MOL0     C26801   6.898   0.845   7.101 -0.1918 -0.8698 -0.0662
  204MOL0     C26802   6.934   0.709   7.096  0.8204  0.1200  0.1031
  204MOL0     C26803   6.845   0.605   7.139 -1.0896  0.3077  0.1295
  204MOL0     O26804   6.891   0.478   7.129 -0.7158  0.0875 -0.0519
  204MOL0     C26805   6.812   0.363   7.170 -0.0415 -0.4274  0.3886
  204MOL0     C26806   6.904   0.258   7.239 -0.4993  0.0385 -0.5823
  204MOL0     C26807   7.030   0.223   7.166 -0.2300 -0.4357 -0.3146
  204MOL0     C26808   7.102   0.100   7.218  1.3604 -0.1564  0.2873
  204MOL0     C26809   7.243   0.111   7.162 -0.2370  0.5401 -0.5881
  204MOL0     C26810   7.337   0.020   7.248 -0.7432  0.3421  0.6305
  204MOL0     C26811   7.298  -0.128   7.272  0.3038 -0.1682  0.2773
  204MOL0     C26812   7.295  -0.205   7.141  0.5511  0.2190  1.4602
  204MOL0     N26813   7.176  -0.205   7.062  1.0368 -0.1926  0.7341
  204MOL0     C26814   7.052  -0.251   7.099  0.4960 -0.0925 -0.1129
  204MOL0     C26815   6.968  -0.230   6.993 -0.1159  0.1988  0.2926
  204MOL0     C26816   6.818  -0.268   7.013  0.6920  0.4525  0.1806
  204MOL0     C26817   6.721  -0.165   6.968  0.2419 -0.1828 -0.0495
  204MOL0     C26818   6.720  -0.153   6.811 -0.0318  0.5491  1.1191
  204MOL0     C26819   6.742  -0.279   6.722  0.7158  1.9378 -1.0970
  204MOL0     O26820   6.632  -0.371   6.754 -0.3443 -0.0725  0.0195
  204MOL0     C26821   6.660  -0.508   6.751  1.0863 -0.0144 -1.3967
  204MOL0     C26822   6.534  -0.575   6.772 -0.7277 -0.4603  0.8406
  204MOL0     C26823   6.525  -0.714   6.789  0.6921 -0.9226 -0.1638
  204MOL0     C26824   6.644  -0.785   6.779  0.1826  0.0616  0.3554
  204MOL0     C26825   6.641  -0.930   6.790 -1.0531  0.3088 -0.8848
  204MOL0     O26826   6.757  -1.003   6.791  0.3943  1.0589  0.7903
  204MOL0     C26827   6.752  -1.139   6.808 -0.3095  0.6218  1.0467
  204MOL0     C26828   6.852  -1.212   6.747 -0.1373  0.3499 -0.6050
  204MOL0     C26829   6.879  -1.347   6.774 -0.2902  0.1054  0.1401
  204MOL0     C26830   6.802  -1.424   6.862 -0.2147 -0.9183  0.4948
  204MOL0     O26831   6.822  -1.556   6.892 -0.5107  0.1173  0.5082
  204MOL0     C26832   6.912  -1.623   6.809  0.0617 -0.4711 -0.8895
  204MOL0     C26833   6.895  -1.769   6.835 -0.8144  1.0776 -0.1614
  204MOL0     C26834   6.745  -1.797   6.799 -0.2547  1.0200  0.0044
  204MOL0     C26835   6.691  -1.927   6.872 -0.4648 -0.3862  0.5456
  204MOL0     C26836   6.538  -1.921   6.905 -0.1449 -0.1979  0.4170
  204MOL0     C26837   6.510  -1.828   7.023 -0.6098  0.1725  0.2445
  204MOL0     C26838   6.358  -1.849   7.052  1.2948 -0.0596  0.1303
  204MOL0     C26839   6.314  -1.847   7.202  0.1129 -1.0661 -0.1222
  204MOL0    Cl26840   6.273  -1.683   7.253  0.0861  0.2565 -0.1599
  204MOL0     C26841   6.701  -1.349   6.927 -0.6373 -0.8564 -0.1165
  204MOL0     C26842   6.677  -1.205   6.901 -0.5840 -0.9470 -0.8693
  204MOL0     O26843   6.527  -0.980   6.791 -0.7236  0.8815  1.1088
  204MOL0     C26844   6.763  -0.724   6.736 -1.4612 -0.3288 -0.7218
  204MOL0     C26845   6.771  -0.585   6.725  0.3447 -0.7240  0.4412
  204MOL0     N26846   7.047  -0.167   6.889  0.1390  0.7563 -0.2087
  204MOL0     N26847   7.158  -0.143   6.942  0.4722 -0.5266  0.2186
  204MOL0     C26848   6.712   0.645   7.166 -0.4627 -0.4162 -1.5369
  204MOL0     C26849   6.683   0.780   7.198 -0.0233  0.2073  0.4723
  204MOL0     C26850   6.740   1.262   7.142 -0.3935 -0.2398 -0.3146
  204MOL0     C26851   6.750   1.304   7.275 -0.2049  0.2396 -0.1502
  204MOL0     C26852   6.726   1.433   7.320  0.5290 -0.2189 -0.3720
  204MOL0     C26853   6.714   1.536   7.225  0.5447 -0.6387 -0.3041
  204MOL0     O26854   6.701   1.658   7.271 -0.3661 -0.1080  0.7832
  204MOL0     C26855   6.665   1.763   7.183  0.0551  0.0309 -0.7601
  204MOL0     C26856   6.634   1.886   7.264  0.8568 -0.0182  0.3745
  204MOL0     C26857   6.511   1.858   7.364  0.1113 -0.7303 -0.1832
  204MOL0     C26858   6.520   1.950   7.485 -0.0434 -0.4262  0.5229
  204MOL0     C26859   6.526   2.097   7.449 -0.3494  0.2845 -1.3096
  204MOL0     C26860   6.524   2.219   7.433 -0.4256  0.1088  0.0575
  204MOL0     C26861   6.697   1.494   7.090  0.1552  0.1415  0.4241
  204MOL0     C26862   6.705   1.364   7.047  0.2564  0.4888 -0.4757
  204MOL0     H26863   6.963   0.922   7.062 -0.5864 -1.3696 -1.7942
  204MOL0     H26864   7.035   0.683   7.065  0.0308 -2.2075 -0.8036
  204MOL0     H26865   6.759   0.320   7.084  0.4716  0.6489 -0.4977
  204MOL0     H26866   6.730   0.387   7.238 -1.5532 -2.9986 -0.3851
  204MOL0     H26867   6.844   0.167   7.250 -2.1238  0.1396 -5.6902
  204MOL0     H26868   6.937   0.304   7.332  0.8789 -0.2922 -0.8894
  204MOL0     H26869   7.102   0.305   7.174 -1.7123  0.7531  1.4882
  204MOL0     H26870   7.005   0.211   7.060 -2.3131 -2.1670  0.2905
  204MOL0     H26871   7.103   0.120   7.326 -0.6839 -1.6556  0.6567
  204MOL0     H26872   7.057   0.003   7.198 -1.7734  1.1771  0.2834
  204MOL0     H26873   7.290   0.210   7.152  3.5283 -0.5572  3.0310
  204MOL0     H26874   7.240   0.071   7.061 -0.7639  1.5788 -0.9975
  204MOL0     H26875   7.349   0.075   7.341 -1.2980  1.3415  0.1234
  204MOL0     H26876   7.434   0.013   7.199 -1.1397  0.6842 -0.2180
  204MOL0     H26877   7.366  -0.188   7.334  0.3356 -2.6221 -1.9884
  204MOL0     H26878   7.200  -0.135   7.319 -0.0370 -1.8731 -0.6139
  204MOL0     H26879   7.301  -0.312   7.161  2.6741 -0.1093 -0.6248
  204MOL0     H26880   7.376  -0.195   7.069 -1.4205 -2.1105 -1.2983
  204MOL0     H26881   7.029  -0.295   7.196 -1.7000 -2.0427 -1.4192
  204MOL0     H26882   6.796  -0.288   7.118  0.4318 -1.5072 -0.2019
  204MOL0     H26883   6.794  -0.366   6.969  1.0798 -0.4825  1.9548
  204MOL0     H26884   6.746  -0.065   7.004 -1.9391  0.2658  0.3466
  204MOL0     H26885   6.619  -0.203   6.977  0.1768 -1.1201 -3.5158
  204MOL0     H26886   6.629  -0.106   6.771  0.4254  1.9011  1.5880
  204MOL0     H26887   6.802  -0.087   6.780  1.0594 -1.5541 -0.7368
  204MOL0     H26888   6.839  -0.327   6.744 -1.3242 -1.8490  0.7013
  204MOL0     H26889   6.738  -0.262   6.614  2.5661 -0.4950 -1.6458
  204MOL0     H26890   6.445  -0.514   6.787 -1.0896 -0.7538  0.0096
  204MOL0     H26891   6.432  -0.756   6.826 -0.4163  0.5961 -1.1032
  204MOL0     H26892   6.914  -1.159   6.675  2.3527 -0.1761  1.0415
  204MOL0     H26893   6.956  -1.388   6.709 -0.1090  1.1858 -0.3371
  204MOL0     H26894   7.014  -1.604   6.842 -1.0392  0.4753  2.3663
  204MOL0     H26895   6.906  -1.599   6.702  1.5918  1.3440 -0.6127
  204MOL0     H26896   6.939  -1.782   6.934 -0.4950  1.8882 -0.1855
  204MOL0     H26897   6.945  -1.836   6.764 -0.2464  1.7419 -0.3989
  204MOL0     H26898   6.731  -1.804   6.691 -1.6637 -0.3908  0.2411
  204MOL0     H26899   6.688  -1.711   6.835  0.6569  1.9480 -0.7222
  204MOL0     H26900   6.705  -2.006   6.797  0.8042 -1.1983  1.5928
  204MOL0     H26901   6.749  -1.955   6.960 -2.0674 -5.2148  0.3600
  204MOL0     H26902   6.512  -2.024   6.930  1.6845 -1.0998 -1.1517
  204MOL0     H26903   6.483  -1.906   6.812  1.3830 -1.3986 -0.7362
  204MOL0     H26904   6.527  -1.723   6.998 -2.8386  0.8042  1.0860
  204MOL0     H26905   6.571  -1.845   7.112 -0.9082 -2.2043  0.0532
  204MOL0     H26906   6.302  -1.782   6.987  1.4744  0.0361  0.0723
  204MOL0     H26907   6.336  -1.948   7.011 -1.0948 -0.5534  2.3629
  204MOL0     H26908   6.394  -1.869   7.273 -0.6215  2.9831  2.2882
  204MOL0     H26909   6.226  -1.910   7.219  1.8626 -4.1854 -1.7064
  204MOL0     H26910   6.634  -1.399   6.996 -2.0504  0.6122 -0.3576
  204MOL0     H26911   6.604  -1.147   6.958  0.5079  1.1171 -1.4880
  204MOL0     H26912   6.849  -0.781   6.701  0.4346  1.1588  1.1991
  204MOL0     H26913   6.862  -0.543   6.683 -1.9258  2.6626 -1.5400
  204MOL0     H26914   6.639   0.571   7.196  1.2365 -1.3476  0.6587
  204MOL0     H26915   6.583   0.791   7.239 -0.1129 -3.6505  1.6720
  204MOL0     H26916   6.764   1.228   7.351 -3.1397  0.3115  0.5975
  204MOL0     H26917   6.728   1.464   7.424 -0.2398 -1.5156  0.0534
  204MOL0     H26918   6.567   1.736   7.143 -0.7879  0.2624  1.0767
  204MOL0     H26919   6.735   1.770   7.098 -0.7310 -3.4650 -1.8587
  204MOL0     H26920   6.718   1.923   7.324  1.3693  0.3946 -0.5835
  204MOL0     H26921   6.605   1.965   7.195  0.6449  0.2786  0.7968
  204MOL0     H26922   6.510   1.758   7.408 -0.0083  0.0156  1.5790
  204MOL0     H26923   6.420   1.873   7.304 -1.6878 -1.7486  2.1298
  204MOL0     H26924   6.428   1.934   7.542 -1.6830  0.6968 -1.6319
  204MOL0     H26925   6.595   1.910   7.553 -0.6059 -0.8703  0.8870
  204MOL0     H26926   6.499   2.320   7.408 -2.2275 -0.4567 -0.5972
  204MOL0     H26927   6.674   1.568   7.014 -1.5129 -3.7028 -3.2303
  204MOL0     H26928   6.699   1.343   6.940 -0.3962 -3.3308  0.1544
  205MOL0     O26929   8.951   5.229   7.755  0.0838  0.0713 -0.2101
  205MOL0     C26930   9.065   5.216   7.792 -0.6101 -0.1034  0.3317
  205MOL0     O26931   9.176   5.181   7.705 -0.2368 -0.9514  0.9325
  205MOL0     C26932   9.135   5.134   7.589 -0.9024  0.7884 -0.3261
  205MOL0     C26933   9.170   5.000   7.571  0.6382  0.2889  0.2873
  205MOL0     C26934   9.128   4.932   7.450 -0.4140 -0.4036  0.3432
  205MOL0     C26935   9.050   5.008   7.357 -0.3203  1.0870  0.6763
  205MOL0     O26936   8.980   4.951   7.251  0.9404  0.4817  0.1118
  205MOL0     C26937   8.917   4.821   7.265  0.1739  0.2727  1.2556
  205MOL0     C26938   8.835   4.797   7.126 -0.7937 -0.8186 -0.7456
  205MOL0     C26939   8.745   4.672   7.141 -0.6724  0.5626  1.3875
  205MOL0     C26940   8.605   4.702   7.200 -0.2631 -0.9231  0.3211
  205MOL0     C26941   8.515   4.577   7.227  0.2007  0.3630  0.3359
  205MOL0     C26942   8.412   4.588   7.340 -1.2116  0.1181  0.8696
  205MOL0     C26943   8.303   4.695   7.312  0.1462  0.3147 -0.5691
  205MOL0     C26944   8.192   4.651   7.215 -0.9747  0.3927  0.5864
  205MOL0     N26945   8.086   4.750   7.214 -0.7857 -0.7650  0.1128
  205MOL0     C26946   8.016   4.803   7.319 -0.1557 -0.2166 -0.3263
  205MOL0     C26947   7.944   4.907   7.262 -0.3161  0.4825  0.7014
  205MOL0     C26948   7.833   5.000   7.313 -0.6318 -0.0389  0.4567
  205MOL0     C26949   7.692   4.959   7.270  0.2288 -1.1825 -0.6756
  205MOL0     C26950   7.665   4.814   7.314  0.2246  0.7525 -0.2600
  205MOL0     C26951   7.508   4.786   7.317 -0.1011 -0.1209  0.5493
  205MOL0     O26952   7.479   4.716   7.194  0.0154 -0.8845 -0.3165
  205MOL0     C26953   7.424   4.592   7.192 -0.0027  0.0651 -0.2652
  205MOL0     C26954   7.434   4.511   7.076 -0.0425 -0.4656  0.4452
  205MOL0     C26955   7.375   4.389   7.056 -0.2477  0.6644  0.3789
  205MOL0     C26956   7.293   4.339   7.162  0.2141  0.6073 -0.5908
  205MOL0     C26957   7.209   4.211   7.144  0.2115  0.4903  0.1423
  205MOL0     O26958   7.184   4.131   7.257 -0.1700 -0.5060 -0.3386
  205MOL0     C26959   7.126   4.010   7.236  0.2896  0.5537  0.2436
  205MOL0     C26960   6.986   4.001   7.248  0.0295 -0.6944 -0.3426
  205MOL0     C26961   6.929   3.878   7.219 -1.0422  0.8500  0.1683
  205MOL0     C26962   7.014   3.762   7.188  0.5523  1.2407 -0.2980
  205MOL0     O26963   6.946   3.633   7.166  0.1632 -0.3412  0.2789
  205MOL0     C26964   6.964   3.600   7.026 -0.3419 -0.6909 -1.5356
  205MOL0     C26965   6.851   3.499   6.993  0.0287  0.7320  0.5152
  205MOL0     C26966   6.712   3.543   6.996  0.1050 -0.3611 -0.2576
  205MOL0     C26967   6.697   3.682   6.924 -0.2741  1.2858  1.1187
  205MOL0     C26968   6.546   3.732   6.914 -0.0124 -0.3242 -0.8814
  205MOL0     C26969   6.474   3.748   7.053 -0.2298 -0.0658  0.9246
  205MOL0     C26970   6.348   3.829   7.033  0.9856  0.6728 -0.0713
  205MOL0     C26971   6.227   3.764   6.976 -0.3246  0.4611 -0.3344
  205MOL0    Cl26972   6.122   3.890   6.898 -0.2488 -0.4472 -0.1704
  205MOL0     C26973   7.156   3.780   7.154 -0.7391  0.3601 -0.3102
  205MOL0     C26974   7.208   3.905   7.192 -0.0512  0.4596  0.4960
  205MOL0     O26975   7.205   4.169   7.032 -0.3332 -0.2419  0.4587
  205MOL0     C26976   7.270   4.414   7.280 -0.3915 -0.3896  1.0763
  205MOL0     C26977   7.334   4.540   7.295 -0.6987 -0.5097 -0.2152
  205MOL0     N26978   7.981   4.908   7.126  0.3141 -0.7738  0.2195
  205MOL0     N26979   8.059   4.819   7.100 -0.3182  0.1339 -0.0883
  205MOL0     C26980   9.027   5.141   7.370  0.4637  0.9163 -1.0726
  205MOL0     C26981   9.074   5.207   7.486 -1.0934 -0.1176  0.1900
  205MOL0     C26982   9.094   5.216   7.941 -1.0014 -0.3061  0.1198
  205MOL0     C26983   9.224   5.215   7.988 -0.3986  0.6791  0.0809
  205MOL0     C26984   9.249   5.223   8.122 -0.5430 -0.9010  0.1845
  205MOL0     C26985   9.143   5.245   8.218 -0.8756  0.0431  1.6234
  205MOL0     O26986   9.163   5.257   8.355  0.0300  0.7573  0.5710
  205MOL0     C26987   9.301   5.274   8.409  0.5361 -0.1654 -0.7715
  205MOL0     C26988   9.363   5.133   8.429 -0.7601  0.9613 -1.1003
  205MOL0     C26989   9.497   5.142   8.513 -0.3959 -0.2543  0.3873
  205MOL0     C26990   9.614   5.221   8.443  0.6875 -0.7636 -0.9258
  205MOL0     C26991   9.656   5.152   8.330  0.2690  0.5979 -0.5851
  205MOL0     C26992   9.687   5.117   8.213 -0.4044  0.2269 -0.7818
  205MOL0     C26993   9.013   5.253   8.166  0.7517 -0.2427 -0.9504
  205MOL0     C26994   8.991   5.237   8.035 -0.6297  0.0521  0.6397
  205MOL0     H26995   9.216   4.951   7.656  0.8508 -1.7934 -0.9624
  205MOL0     H26996   9.141   4.824   7.439 -1.4872 -1.3923  5.8514
  205MOL0     H26997   8.836   4.823   7.339 -0.4163 -0.6503  0.6562
  205MOL0     H26998   8.987   4.739   7.281  0.6843  0.5244  0.3393
  205MOL0     H26999   8.903   4.777   7.043  2.7767  0.1505  1.7096
  205MOL0     H27000   8.781   4.889   7.099  0.6639 -0.6095 -3.2428
  205MOL0     H27001   8.800   4.591   7.191 -0.4695 -0.5963 -0.6264
  205MOL0     H27002   8.745   4.637   7.038  0.3709 -0.6267  1.7554
  205MOL0     H27003   8.629   4.753   7.294 -2.6120  0.9964 -0.0266
  205MOL0     H27004   8.553   4.780   7.144 -0.9910 -0.1482  1.9829
  205MOL0     H27005   8.560   4.479   7.247 -1.4130 -0.0886  1.9677
  205MOL0     H27006   8.458   4.554   7.136 -1.5833  0.7631  1.3227
  205MOL0     H27007   8.485   4.628   7.412  0.9081 -1.6282 -0.1809
  205MOL0     H27008   8.369   4.492   7.373  0.5672  0.0571  3.2666
  205MOL0     H27009   8.255   4.725   7.405 -2.6572 -2.9558 -0.8048
  205MOL0     H27010   8.361   4.779   7.272  0.6073  0.3746  0.2150
  205MOL0     H27011   8.151   4.551   7.231  0.2816 -0.4056 -0.8722
  205MOL0     H27012   8.229   4.641   7.112 -0.4635  0.8773  0.7167
  205MOL0     H27013   8.000   4.771   7.422 -7.1827  0.4129 -0.7110
  205MOL0     H27014   7.855   5.103   7.281 -1.3428  0.8931  2.7308
  205MOL0     H27015   7.845   5.002   7.422  3.0018  0.2837  0.1949
  205MOL0     H27016   7.693   4.959   7.161 -1.4601  0.0391 -0.7270
  205MOL0     H27017   7.616   5.034   7.293  0.7883  0.0896 -2.7853
  205MOL0     H27018   7.709   4.741   7.246 -1.7974 -0.6324 -0.1493
  205MOL0     H27019   7.713   4.785   7.409 -1.8632 -0.0444  0.6058
  205MOL0     H27020   7.457   4.883   7.314  0.5762  0.2500 -2.1226
  205MOL0     H27021   7.478   4.728   7.405  0.7544 -2.3445 -0.5334
  205MOL0     H27022   7.473   4.565   6.990 -1.9817 -0.7672 -0.6925
  205MOL0     H27023   7.380   4.331   6.965  0.0529 -1.8379  1.8852
  205MOL0     H27024   6.928   4.090   7.271 -1.6568 -1.4758 -1.4288
  205MOL0     H27025   6.822   3.859   7.220 -0.8924 -0.1132 -0.4316
  205MOL0     H27026   7.055   3.542   7.008  0.2992 -0.1847 -0.0804
  205MOL0     H27027   6.962   3.681   6.953 -1.9940  0.1489 -0.6263
  205MOL0     H27028   6.859   3.407   7.052 -4.9058 -3.0432 -3.7608
  205MOL0     H27029   6.849   3.468   6.888  0.6673  2.2674  0.0252
  205MOL0     H27030   6.685   3.554   7.101  0.3537  2.6567 -0.4074
  205MOL0     H27031   6.646   3.465   6.956  0.1953  0.6225 -2.4562
  205MOL0     H27032   6.759   3.760   6.968 -0.8912  0.7185  3.1407
  205MOL0     H27033   6.721   3.670   6.818  0.9918  1.2386  1.3999
  205MOL0     H27034   6.477   3.675   6.851 -3.8538  1.1190  1.6758
  205MOL0     H27035   6.552   3.829   6.864  2.1036  0.0707  0.0246
  205MOL0     H27036   6.538   3.805   7.121 -1.6547  0.9981  1.4016
  205MOL0     H27037   6.448   3.654   7.101  0.6463 -1.2492 -0.7955
  205MOL0     H27038   6.326   3.874   7.131  0.0409 -3.1665  1.6740
  205MOL0     H27039   6.366   3.904   6.955 -0.8913  2.7803  1.3773
  205MOL0     H27040   6.175   3.717   7.060  0.3872  0.5541  0.1573
  205MOL0     H27041   6.256   3.692   6.899 -0.6944  2.3417 -2.3362
  205MOL0     H27042   7.220   3.698   7.125  2.7472  3.0094 -0.7795
  205MOL0     H27043   7.315   3.914   7.175  0.5356  1.0324  3.7810
  205MOL0     H27044   7.194   4.383   7.352  1.0869 -2.3613  1.8964
  205MOL0     H27045   7.312   4.616   7.370  0.3678  0.0064 -0.4144
  205MOL0     H27046   8.969   5.199   7.300  0.5983  2.9946  0.4498
  205MOL0     H27047   9.048   5.310   7.506  0.1530  0.2115  0.2394
  205MOL0     H27048   9.289   5.186   7.906  0.4201 -1.2562  1.3364
  205MOL0     H27049   9.346   5.202   8.166 -0.6201 -1.5760  0.0441
  205MOL0     H27050   9.300   5.337   8.499 -1.9026  1.6449 -1.9412
  205MOL0     H27051   9.370   5.332   8.346  0.2623  4.9037  2.9700
  205MOL0     H27052   9.296   5.078   8.496  0.9495  1.2103  0.9196
  205MOL0     H27053   9.369   5.072   8.338 -3.5030 -2.0091  0.5007
  205MOL0     H27054   9.547   5.047   8.528  0.9060  0.0538 -1.7194
  205MOL0     H27055   9.477   5.171   8.617  1.9369 -0.1517  0.8553
  205MOL0     H27056   9.595   5.329   8.434  0.1990 -0.4124  2.7938
  205MOL0     H27057   9.692   5.222   8.519 -1.2106 -1.4354  1.1434
  205MOL0     H27058   9.714   5.080   8.116  0.5147  2.5083 -1.4716
  205MOL0     H27059   8.933   5.251   8.239 -1.1132 -2.0366 -2.8706
  205MOL0     H27060   8.890   5.211   8.005  0.5454 -5.8868  0.4874
  206MOL0     O27061   5.494   7.308   7.307  0.4100 -0.4981  0.3332
  206MOL0     C27062   5.447   7.416   7.354  0.4441  0.0103  0.5025
  206MOL0     O27063   5.533   7.530   7.380 -0.2630  1.3239 -0.1299
  206MOL0     C27064   5.668   7.498   7.369 -0.6266 -0.6867  1.0380
  206MOL0     C27065   5.737   7.531   7.240 -0.6958 -0.4190 -0.2354
  206MOL0     C27066   5.867   7.496   7.223 -0.3349  1.0271 -0.1672
  206MOL0     C27067   5.927   7.412   7.324 -1.1953 -0.5984 -0.5183
  206MOL0     O27068   6.027   7.328   7.300  0.2075 -0.0251 -0.2722
  206MOL0     C27069   6.048   7.275   7.172 -0.1034  0.0269  0.1364
  206MOL0     C27070   6.146   7.159   7.182 -0.6500 -0.2482  0.5119
  206MOL0     C27071   6.078   7.044   7.257 -0.4631  0.0525  0.6874
  206MOL0     C27072   6.181   6.945   7.306  0.3524  0.1789 -0.1772
  206MOL0     C27073   6.115   6.839   7.397 -0.2822  0.0351  0.2835
  206MOL0     C27074   6.220   6.736   7.447 -1.0281 -0.8264  0.2616
  206MOL0     C27075   6.157   6.612   7.484  0.3399 -0.7798  0.6042
  206MOL0     C27076   6.267   6.517   7.536 -0.7630 -0.0173 -0.9702
  206MOL0     N27077   6.355   6.459   7.436  0.6270 -0.0162  0.8597
  206MOL0     C27078   6.449   6.529   7.360  0.2180 -0.5115  0.1492
  206MOL0     C27079   6.498   6.437   7.273  0.3619 -0.1809  0.4921
  206MOL0     C27080   6.608   6.458   7.182 -0.4066 -0.0702 -0.3371
  206MOL0     C27081   6.548   6.517   7.042 -0.7192  0.0257 -1.3525
  206MOL0     C27082   6.655   6.612   6.972  0.1327  0.4117 -0.2232
  206MOL0     C27083   6.693   6.736   7.046  0.5185 -0.0513  0.5881
  206MOL0     O27084   6.565   6.804   7.043  0.1646  0.8826 -0.0925
  206MOL0     C27085   6.565   6.942   7.077 -0.4018  0.4357  0.4021
  206MOL0     C27086   6.677   7.007   7.118 -0.4142 -0.8043 -0.2750
  206MOL0     C27087   6.683   7.152   7.130 -0.5920 -0.1670  0.6965
  206MOL0     C27088   6.564   7.217   7.104 -0.7572 -0.0232  0.9482
  206MOL0     C27089   6.550   7.366   7.123 -0.5490  0.2416  0.2322
  206MOL0     O27090   6.429   7.421   7.145  0.0659 -0.4793 -0.3185
  206MOL0     C27091   6.392   7.549   7.182 -0.2762  0.2993 -0.5806
  206MOL0     C27092   6.466   7.609   7.276 -0.2928 -1.1347  0.3635
  206MOL0     C27093   6.412   7.736   7.318 -0.4344  0.7202 -0.1374
  206MOL0     C27094   6.286   7.783   7.285 -0.1263 -0.2510  0.6430
  206MOL0     O27095   6.239   7.904   7.327  0.8901 -0.1421 -0.3408
  206MOL0     C27096   6.297   7.981   7.435  0.1945  0.3143  0.7123
  206MOL0     C27097   6.208   8.077   7.518  0.8704 -0.0456 -0.5517
  206MOL0     C27098   6.142   8.196   7.445 -0.5234  0.0010 -0.2499
  206MOL0     C27099   6.221   8.270   7.340  0.2526  0.7625 -0.3039
  206MOL0     C27100   6.174   8.408   7.313 -0.3362 -0.1042  0.6414
  206MOL0     C27101   6.027   8.434   7.284  1.0801 -0.0795 -0.0112
  206MOL0     C27102   5.986   8.566   7.221 -0.5116 -0.1818 -0.1423
  206MOL0     C27103   6.057   8.693   7.273  0.4233  0.7327 -0.0554
  206MOL0    Cl27104   6.017   8.837   7.161  0.4632 -0.5293 -0.1863
  206MOL0     C27105   6.213   7.703   7.197  0.3151 -0.8494 -0.3722
  206MOL0     C27106   6.262   7.581   7.152 -0.3691  0.0566 -0.0518
  206MOL0     O27107   6.651   7.425   7.130 -0.1588 -0.5266  0.7246
  206MOL0     C27108   6.447   7.153   7.053  0.1105  0.4825  0.4244
  206MOL0     C27109   6.452   7.018   7.041 -0.1062 -0.7519 -0.3303
  206MOL0     N27110   6.443   6.318   7.307 -0.2277 -0.5912 -0.6757
  206MOL0     N27111   6.346   6.328   7.397 -0.5078 -0.3838  0.6054
  206MOL0     C27112   5.863   7.397   7.445 -0.6512 -0.0469  0.4263
  206MOL0     C27113   5.742   7.443   7.473  0.6086 -0.0187  0.5120
  206MOL0     C27114   5.297   7.430   7.373 -0.7620 -0.0753 -0.5579
  206MOL0     C27115   5.251   7.531   7.462 -0.1975  0.3918 -0.1429
  206MOL0     C27116   5.116   7.551   7.474 -0.1577 -1.0400 -1.3625
  206MOL0     C27117   5.018   7.488   7.397 -0.4696 -0.3660 -0.0201
  206MOL0     O27118   4.886   7.527   7.420  0.3935 -0.4353 -0.9614
  206MOL0     C27119   4.774   7.462   7.360 -0.6259  0.4328  0.3733
  206MOL0     C27120   4.642   7.536   7.367 -0.5740 -0.3311 -0.2846
  206MOL0     C27121   4.617   7.654   7.274  0.2824 -1.0211  0.2871
  206MOL0     C27122   4.465   7.697   7.259 -0.0936  0.8250 -0.3538
  206MOL0     C27123   4.431   7.797   7.367 -0.5288  0.1464  0.3855
  206MOL0     C27124   4.380   7.868   7.455 -0.0768 -0.0749 -0.0180
  206MOL0     C27125   5.063   7.383   7.318 -0.0378  0.2994 -0.3497
  206MOL0     C27126   5.200   7.359   7.307 -0.6627  0.4722 -0.5434
  206MOL0     H27127   5.688   7.591   7.164 -0.0753  1.6295  0.9125
  206MOL0     H27128   5.910   7.500   7.123 -2.4554 -1.5098 -1.2966
  206MOL0     H27129   6.088   7.361   7.117  0.7040 -0.2826  0.2175
  206MOL0     H27130   5.967   7.236   7.111 -0.1551 -1.3003  1.0064
  206MOL0     H27131   6.235   7.200   7.231  0.5161 -3.3805  1.2751
  206MOL0     H27132   6.163   7.128   7.079  1.9421 -0.5437  0.9648
  206MOL0     H27133   6.006   6.995   7.191 -1.9149 -0.8638  2.8616
  206MOL0     H27134   6.029   7.085   7.346  2.4986  1.2412  1.9223
  206MOL0     H27135   6.226   6.893   7.221  0.4174 -1.1683  0.6475
  206MOL0     H27136   6.249   7.006   7.367  1.3627 -0.5716 -0.5232
  206MOL0     H27137   6.043   6.776   7.344 -1.0259 -1.8593  3.2698
  206MOL0     H27138   6.066   6.882   7.485 -0.2835  1.8275 -0.5375
  206MOL0     H27139   6.279   6.767   7.534  0.3202 -1.1579 -0.4978
  206MOL0     H27140   6.282   6.706   7.362 -1.3721 -1.9958  0.3943
  206MOL0     H27141   6.088   6.618   7.568 -0.3476  0.9660 -0.0468
  206MOL0     H27142   6.114   6.557   7.400  1.7268 -2.4213  0.9171
  206MOL0     H27143   6.233   6.434   7.599  3.4544 -0.5467  0.9825
  206MOL0     H27144   6.333   6.560   7.612  0.7920 -3.7517  0.0527
  206MOL0     H27145   6.481   6.633   7.359 -0.7931 -0.1699 -1.3341
  206MOL0     H27146   6.642   6.358   7.153 -2.0566  0.0850 -3.1371
  206MOL0     H27147   6.692   6.513   7.224 -0.5605 -0.6065  0.7201
  206MOL0     H27148   6.445   6.553   7.049 -1.7494 -3.0282  2.5823
  206MOL0     H27149   6.532   6.434   6.973  0.8992 -1.5353  0.0698
  206MOL0     H27150   6.739   6.544   6.957  1.1804  1.4440  0.8137
  206MOL0     H27151   6.606   6.639   6.878 -1.3167  0.0357  0.3825
  206MOL0     H27152   6.770   6.779   6.981 -0.6688  0.1460 -0.7516
  206MOL0     H27153   6.719   6.721   7.151 -1.5519  1.7308  1.4360
  206MOL0     H27154   6.769   6.950   7.122 -1.0893 -1.8714  1.1072
  206MOL0     H27155   6.768   7.214   7.156 -0.3753 -0.5895  1.0162
  206MOL0     H27156   6.567   7.579   7.303 -0.5267  0.3473  3.3526
  206MOL0     H27157   6.476   7.792   7.385  4.4619 -1.4569 -2.4648
  206MOL0     H27158   6.380   8.039   7.393 -0.1082  0.1663 -0.1127
  206MOL0     H27159   6.329   7.902   7.505 -1.1884  1.0376  2.2228
  206MOL0     H27160   6.274   8.114   7.597  0.7544  0.5363 -0.7250
  206MOL0     H27161   6.131   8.017   7.568  2.0873 -1.1430  0.0557
  206MOL0     H27162   6.112   8.277   7.512 -1.3599  3.3372 -4.2229
  206MOL0     H27163   6.049   8.174   7.393 -1.3855 -0.8573  1.5689
  206MOL0     H27164   6.326   8.291   7.363  0.1766  1.9658 -0.9547
  206MOL0     H27165   6.227   8.207   7.251 -1.2761  2.8631 -2.0020
  206MOL0     H27166   6.225   8.441   7.222 -5.1228 -2.1372 -3.2041
  206MOL0     H27167   6.202   8.474   7.395 -0.6191 -1.2666  1.7104
  206MOL0     H27168   5.964   8.430   7.374 -1.9624 -0.1433 -1.9880
  206MOL0     H27169   5.981   8.356   7.222 -1.3952  1.6016 -0.4347
  206MOL0     H27170   5.982   8.547   7.114  0.8259 -1.0746 -0.0476
  206MOL0     H27171   5.878   8.582   7.238 -0.9059 -1.9434 -0.8066
  206MOL0     H27172   6.162   8.663   7.281  0.4463  0.6465 -0.6249
  206MOL0     H27173   6.020   8.717   7.373 -1.8838  0.8209 -0.8761
  206MOL0     H27174   6.125   7.757   7.164  1.1188  0.3347 -0.6709
  206MOL0     H27175   6.217   7.507   7.087 -0.0462 -1.4545  1.3741
  206MOL0     H27176   6.364   7.215   7.021  0.4163  0.7927  0.2224
  206MOL0     H27177   6.369   6.972   6.988 -0.3292 -0.3561 -0.3342
  206MOL0     H27178   5.901   7.342   7.530 -0.1975 -2.2704 -1.1063
  206MOL0     H27179   5.693   7.421   7.567  1.6847 -3.9040  0.3451
  206MOL0     H27180   5.320   7.586   7.525  0.3339 -0.6604  0.2130
  206MOL0     H27181   5.086   7.626   7.545  0.6191 -3.5727  1.9078
  206MOL0     H27182   4.759   7.368   7.413 -1.0288  1.0399  1.3681
  206MOL0     H27183   4.795   7.436   7.255  1.2536  1.0663  0.5598
  206MOL0     H27184   4.559   7.468   7.347 -0.3181 -1.3324  1.8302
  206MOL0     H27185   4.640   7.577   7.468  1.2657  0.1280 -0.3908
  206MOL0     H27186   4.656   7.632   7.174 -2.0718 -1.9853 -0.4857
  206MOL0     H27187   4.672   7.737   7.319 -0.8087 -0.6949  1.0865
  206MOL0     H27188   4.450   7.745   7.162  2.5436 -0.5282 -1.5254
  206MOL0     H27189   4.389   7.620   7.242 -0.2937  1.4190 -2.4611
  206MOL0     H27190   4.335   7.933   7.528 -2.0833  4.4895 -4.7101
  206MOL0     H27191   4.998   7.324   7.255 -0.5952 -0.9445  1.3171
  206MOL0     H27192   5.240   7.287   7.237  0.4471 -0.0677  0.5896
  207MOL0     O27193   8.741   7.532   6.394 -0.0741  0.3057  0.0531
  207MOL0     C27194   8.679   7.529   6.283  1.2755  0.7335  0.8125
  207MOL0     O27195   8.647   7.638   6.209 -1.0869  0.3076 -0.4360
  207MOL0     C27196   8.642   7.758   6.273  0.1579 -0.6115 -0.1493
  207MOL0     C27197   8.752   7.856   6.263 -1.6065 -0.1432 -0.3522
  207MOL0     C27198   8.754   7.986   6.319  0.1008 -0.0777  0.1309
  207MOL0     C27199   8.650   8.015   6.406 -0.1388 -0.7092  0.2925
  207MOL0     O27200   8.639   8.143   6.459  0.3176  0.5466  0.1528
  207MOL0     C27201   8.545   8.158   6.563  0.1865 -0.8853 -0.2855
  207MOL0     C27202   8.571   8.278   6.660 -1.0359 -0.0814  0.1886
  207MOL0     C27203   8.546   8.403   6.584 -0.4997 -0.0280 -0.6164
  207MOL0     C27204   8.526   8.523   6.679 -0.2329 -0.0143  0.2533
  207MOL0     C27205   8.512   8.659   6.617 -0.4830 -0.0252 -0.5032
  207MOL0     C27206   8.379   8.683   6.553  0.3820  1.0689  0.0547
  207MOL0     C27207   8.355   8.825   6.528  0.7116 -0.3968  0.3043
  207MOL0     C27208   8.417   8.876   6.400 -0.2508  0.1151  0.2012
  207MOL0     N27209   8.415   9.017   6.385 -0.0466 -1.3396  0.1683
  207MOL0     C27210   8.438   9.112   6.486  1.1035  0.1412  0.5297
  207MOL0     C27211   8.402   9.229   6.434 -0.2223  0.1913 -0.7596
  207MOL0     C27212   8.411   9.366   6.503  0.7684  0.6484  0.1768
  207MOL0     C27213   8.423   9.357   6.660  0.3655  0.1298  0.5372
  207MOL0     C27214   8.280   9.313   6.721 -1.0099 -0.4108  0.1576
  207MOL0     C27215   8.279   9.300   6.881  0.1655  0.2119  0.1494
  207MOL0     O27216   8.356   9.184   6.899 -1.0971 -0.1448  0.5837
  207MOL0     C27217   8.303   9.053   6.885 -0.2188 -0.3711  0.3663
  207MOL0     C27218   8.384   8.951   6.917 -0.4236  0.0914 -0.6384
  207MOL0     C27219   8.327   8.816   6.911  0.5266 -0.3032 -0.0647
  207MOL0     C27220   8.194   8.792   6.875 -0.7389 -1.3464 -0.8277
  207MOL0     C27221   8.136   8.655   6.868  0.3677  0.3770 -0.3413
  207MOL0     O27222   8.212   8.566   6.940  0.2074  0.3998 -0.6981
  207MOL0     C27223   8.189   8.433   6.922  0.2310 -0.8662 -0.9593
  207MOL0     C27224   8.210   8.361   6.806 -0.4514 -0.7393  0.4120
  207MOL0     C27225   8.181   8.224   6.787 -0.0082 -0.7134 -0.6916
  207MOL0     C27226   8.114   8.159   6.896  0.9897 -0.3710 -0.2232
  207MOL0     O27227   8.077   8.023   6.868  0.8705 -0.0721 -0.5475
  207MOL0     C27228   8.001   7.954   6.970 -0.0772 -0.2628 -0.7848
  207MOL0     C27229   8.098   7.919   7.079 -0.0745 -0.3263 -0.4298
  207MOL0     C27230   8.215   7.831   7.039 -0.5857  0.0181  0.8329
  207MOL0     C27231   8.181   7.697   6.982 -1.2741  0.0943  0.2039
  207MOL0     C27232   8.131   7.587   7.066  0.0341 -0.8176 -1.1710
  207MOL0     C27233   8.232   7.531   7.171 -0.7563  0.5836 -1.5201
  207MOL0     C27234   8.157   7.418   7.238  0.1349 -0.3171  0.0271
  207MOL0     C27235   8.211   7.369   7.373 -0.7174  0.9210  0.2749
  207MOL0    Cl27236   8.368   7.282   7.337 -0.2330 -0.6889 -0.0542
  207MOL0     C27237   8.087   8.231   7.017 -0.0084  0.7190 -0.4894
  207MOL0     C27238   8.125   8.366   7.031  0.6993 -0.1936 -0.4881
  207MOL0     O27239   8.041   8.625   6.799  0.5239 -0.2031  0.2084
  207MOL0     C27240   8.111   8.899   6.837 -0.5237  0.7066 -0.8581
  207MOL0     C27241   8.167   9.029   6.848  0.3650 -0.3432  0.5333
  207MOL0     N27242   8.373   9.207   6.300  0.5799 -0.1947  0.0832
  207MOL0     N27243   8.378   9.087   6.270  0.9427  0.8616 -0.4795
  207MOL0     C27244   8.542   7.920   6.419 -0.4846 -0.1401 -0.5984
  207MOL0     C27245   8.545   7.791   6.358  0.3534  0.2521 -0.1788
  207MOL0     C27246   8.639   7.406   6.222 -0.3497 -0.3008 -0.1276
  207MOL0     C27247   8.531   7.393   6.136  0.8915 -0.6674  0.4067
  207MOL0     C27248   8.505   7.274   6.072  0.3016 -0.2515 -0.1906
  207MOL0     C27249   8.581   7.161   6.090 -1.0252 -1.1666  0.7355
  207MOL0     O27250   8.556   7.051   6.016 -1.0493  0.5931  0.0654
  207MOL0     C27251   8.634   6.934   6.050  0.3551 -0.7299  0.4590
  207MOL0     C27252   8.621   6.814   5.962 -0.4909 -0.8902  0.0132
  207MOL0     C27253   8.570   6.832   5.821  0.1176  0.0630  0.0330
  207MOL0     C27254   8.637   6.735   5.723 -0.7368 -0.2117  0.6379
  207MOL0     C27255   8.779   6.777   5.713  0.0855  0.7279 -0.4361
  207MOL0     C27256   8.896   6.810   5.694  0.7744 -0.2673  0.4237
  207MOL0     C27257   8.697   7.172   6.183 -0.1413  0.1422 -1.6281
  207MOL0     C27258   8.719   7.296   6.247 -0.1724  0.8248 -0.5894
  207MOL0     H27259   8.835   7.830   6.198 -0.6637  1.0042  0.3538
  207MOL0     H27260   8.831   8.061   6.305 -0.8556  0.7403 -0.8584
  207MOL0     H27261   8.557   8.076   6.635  2.4815  2.2667  3.3572
  207MOL0     H27262   8.441   8.161   6.529 -0.3737 -4.6315  0.6934
  207MOL0     H27263   8.676   8.280   6.693 -0.8424  0.4372 -0.4122
  207MOL0     H27264   8.507   8.272   6.748  0.7151  0.1303  1.5515
  207MOL0     H27265   8.463   8.385   6.516  0.1199  0.3277 -1.4802
  207MOL0     H27266   8.638   8.419   6.528  0.1725  2.0375  0.9475
  207MOL0     H27267   8.447   8.503   6.753  1.9741 -0.7409  2.5425
  207MOL0     H27268   8.618   8.525   6.739  0.2900  0.4599 -0.5583
  207MOL0     H27269   8.592   8.671   6.543 -2.7349 -1.4082 -3.3767
  207MOL0     H27270   8.530   8.733   6.695 -0.9528  1.5436 -1.8323
  207MOL0     H27271   8.289   8.650   6.607  0.9037  1.6564  1.3340
  207MOL0     H27272   8.380   8.625   6.461  3.9063  1.1214 -0.0567
  207MOL0     H27273   8.253   8.857   6.506  1.0533  0.6900  0.2186
  207MOL0     H27274   8.391   8.885   6.612  1.3928  0.5311 -0.6124
  207MOL0     H27275   8.368   8.824   6.318 -0.7731  1.4065 -0.3277
  207MOL0     H27276   8.524   8.855   6.414 -0.6576 -0.2544  3.8155
  207MOL0     H27277   8.461   9.089   6.590  0.7000 -0.8439  0.4143
  207MOL0     H27278   8.317   9.420   6.491 -0.3689 -0.9623  1.2285
  207MOL0     H27279   8.496   9.415   6.455 -0.4894 -0.7267 -3.8903
  207MOL0     H27280   8.446   9.453   6.705  3.0915 -0.7244  1.1737
  207MOL0     H27281   8.512   9.297   6.681  1.8876  1.2688 -2.1421
  207MOL0     H27282   8.200   9.382   6.691  0.0690  1.7415  1.9441
  207MOL0     H27283   8.245   9.218   6.678 -0.3457 -1.4690  1.8565
  207MOL0     H27284   8.178   9.296   6.922 -0.7483 -0.2627 -1.9915
  207MOL0     H27285   8.329   9.382   6.932  2.2617 -2.4506  2.7549
  207MOL0     H27286   8.485   8.967   6.953 -1.9190  1.9547  3.3752
  207MOL0     H27287   8.388   8.727   6.927  0.9415  0.0569  0.3466
  207MOL0     H27288   8.261   8.398   6.718  0.0330  1.1006  1.4299
  207MOL0     H27289   8.187   8.180   6.688 -1.5539 -1.1605 -0.6087
  207MOL0     H27290   7.952   7.867   6.926 -3.1959  1.3629 -0.8250
  207MOL0     H27291   7.923   8.021   7.007  0.6626  0.9500 -1.3313
  207MOL0     H27292   8.046   7.870   7.162  0.8419  0.0136  0.3630
  207MOL0     H27293   8.148   7.995   7.139  1.7870  0.5244 -2.9079
  207MOL0     H27294   8.271   7.821   7.132 -0.7674 -0.4606  0.8953
  207MOL0     H27295   8.275   7.879   6.961  1.4065 -2.1798  0.8801
  207MOL0     H27296   8.119   7.708   6.893  0.8195  0.3780 -1.3091
  207MOL0     H27297   8.277   7.659   6.943 -1.5423  0.4587 -0.8548
  207MOL0     H27298   8.102   7.510   6.995  0.9614 -4.1751  1.8030
  207MOL0     H27299   8.038   7.612   7.119 -0.0622 -4.2742  0.5378
  207MOL0     H27300   8.255   7.614   7.238 -1.6427  0.8074 -1.4772
  207MOL0     H27301   8.328   7.490   7.139 -1.6424 -2.4234 -0.6436
  207MOL0     H27302   8.055   7.454   7.256  0.6534  1.1002  0.2149
  207MOL0     H27303   8.150   7.332   7.171 -1.6566 -1.2910  1.3625
  207MOL0     H27304   8.129   7.309   7.414  0.5486 -0.5996  0.6384
  207MOL0     H27305   8.229   7.456   7.437  0.6489  2.8043 -2.4385
  207MOL0     H27306   8.051   8.181   7.106  3.2180  0.5803  0.8788
  207MOL0     H27307   8.124   8.423   7.124 -0.7356  1.7812 -1.6254
  207MOL0     H27308   8.004   8.885   6.828 -0.5443  0.5360 -0.3379
  207MOL0     H27309   8.099   9.110   6.824 -0.2627 -0.5321  1.6249
  207MOL0     H27310   8.450   7.923   6.476  1.0194 -0.7446  2.0197
  207MOL0     H27311   8.475   7.714   6.389  1.5326  0.8400  4.8745
  207MOL0     H27312   8.465   7.473   6.104  0.5889 -0.9508  0.3202
  207MOL0     H27313   8.428   7.258   5.997  0.1920 -3.0129  0.4191
  207MOL0     H27314   8.610   6.902   6.153  0.5839 -0.9479  0.4458
  207MOL0     H27315   8.739   6.962   6.045  0.4792 -1.3727 -1.1042
  207MOL0     H27316   8.717   6.762   5.954 -0.1563 -0.0038 -2.2853
  207MOL0     H27317   8.556   6.748   6.021 -0.1188 -2.8454 -1.6492
  207MOL0     H27318   8.582   6.936   5.790 -2.4202  0.5118  0.3565
  207MOL0     H27319   8.462   6.811   5.825  0.2199 -1.1468 -2.1447
  207MOL0     H27320   8.639   6.630   5.754  1.1097 -2.3894 -5.3450
  207MOL0     H27321   8.593   6.743   5.623 -0.6874 -0.9163  0.5509
  207MOL0     H27322   8.995   6.848   5.684 -0.1545  2.1632 -0.3276
  207MOL0     H27323   8.764   7.089   6.203 -3.4161 -2.0614  1.4892
  207MOL0     H27324   8.802   7.308   6.316  1.2695  0.1390 -2.1525
  208MOL0     O27325   2.551   9.350   9.611  0.2329  0.6730  1.9549
  208MOL0     C27326   2.513   9.280   9.706  0.6436 -0.7181 -0.1838
  208MOL0     O27327   2.602   9.233   9.798  0.5015  0.5137  0.0303
  208MOL0     C27328   2.729   9.203   9.766  0.6004  0.4451  0.3362
  208MOL0     C27329   2.833   9.291   9.809  0.8264  0.9630 -0.7163
  208MOL0     C27330   2.962   9.261   9.779  0.5453  0.1446 -0.5718
  208MOL0     C27331   2.996   9.146   9.699 -2.0826  0.0986 -1.1714
  208MOL0     O27332   3.122   9.122   9.647  0.4562 -0.2208 -0.0660
  208MOL0     C27333   3.229   9.200   9.683 -0.6244 -0.8372 -0.0840
  208MOL0     C27334   3.245   9.331   9.604  1.0206  0.5504 -0.6328
  208MOL0     C27335   3.221   9.313   9.455  0.1485  0.5458  0.3822
  208MOL0     C27336   3.305   9.418   9.386 -0.2909 -0.8131  0.5988
  208MOL0     C27337   3.271   9.442   9.233 -0.3160  0.9071  0.0286
  208MOL0     C27338   3.296   9.582   9.201 -0.1095  1.3042  0.1528
  208MOL0     C27339   3.443   9.613   9.176 -0.0753  0.4227  0.0900
  208MOL0     C27340   3.459   9.766   9.137  0.3602  0.3460 -0.5206
  208MOL0     N27341   3.449   9.843   9.251 -0.5391  0.7543  0.7505
  208MOL0     C27342   3.333   9.893   9.311 -0.5394 -0.0248  0.7264
  208MOL0     C27343   3.382   9.957   9.427 -0.0352 -0.2954 -0.1923
  208MOL0     C27344   3.302  10.004   9.539  0.3958  0.2445  0.2428
  208MOL0     C27345   3.261  10.149   9.528  0.1448 -0.1795  0.0589
  208MOL0     C27346   3.202  10.225   9.647 -0.8918 -0.4190  0.4371
  208MOL0     C27347   3.229  10.371   9.642 -1.4173  0.1758  0.3113
  208MOL0     O27348   3.167  10.414   9.518 -0.0728 -0.2758 -0.2714
  208MOL0     C27349   3.044  10.482   9.513 -0.3892  0.1769  0.4696
  208MOL0     C27350   3.035  10.589   9.425  0.5200 -0.7051 -0.1995
  208MOL0     C27351   2.920  10.660   9.414 -0.3973 -0.0302  0.9902
  208MOL0     C27352   2.795  10.609   9.473 -0.3072  0.5374 -0.3638
  208MOL0     C27353   2.659  10.674   9.448 -0.8916  0.8654  0.2200
  208MOL0     O27354   2.666  10.802   9.417  0.9348  0.3315 -0.6782
  208MOL0     C27355   2.550  10.864   9.377 -0.3255  0.5156 -0.5329
  208MOL0     C27356   2.494  10.855   9.250  0.4070 -0.8800 -0.5301
  208MOL0     C27357   2.376  10.925   9.210 -0.0062 -0.4257  0.2145
  208MOL0     C27358   2.311  11.004   9.302 -0.7516 -0.3944 -0.3181
  208MOL0     O27359   2.202  11.076   9.256 -0.3687 -0.4985 -0.0198
  208MOL0     C27360   2.080  11.043   9.316  0.5152  0.0994 -0.2931
  208MOL0     C27361   2.039  10.902   9.273 -0.6363  0.2117  0.0676
  208MOL0     C27362   1.899  10.861   9.332 -0.8625 -0.8549 -0.1015
  208MOL0     C27363   1.880  10.712   9.345  0.1319  0.2254  0.3921
  208MOL0     C27364   1.739  10.655   9.360 -0.8624  1.1150  0.2050
  208MOL0     C27365   1.733  10.522   9.438  0.8589  0.2058 -0.4109
  208MOL0     C27366   1.830  10.422   9.377 -1.0630  0.1380 -0.6306
  208MOL0     C27367   1.792  10.277   9.395  0.5726 -0.2515 -0.3256
  208MOL0    Cl27368   1.664  10.226   9.291 -0.6247 -0.0578  0.5835
  208MOL0     C27369   2.354  11.002   9.439  0.4139  0.1010 -0.3465
  208MOL0     C27370   2.477  10.940   9.472 -0.3984  0.9190 -0.1815
  208MOL0     O27371   2.556  10.603   9.462  0.0278 -0.3351  0.1802
  208MOL0     C27372   2.815  10.506   9.566  0.3673  0.2220  0.7527
  208MOL0     C27373   2.932  10.444   9.581  0.0398 -0.0100  0.4463
  208MOL0     N27374   3.520   9.953   9.426  0.5960 -0.2556  0.1687
  208MOL0     N27375   3.559   9.887   9.322 -0.5963  0.2551  0.7332
  208MOL0     C27376   2.897   9.054   9.658  0.9517 -0.4985 -0.2489
  208MOL0     C27377   2.761   9.092   9.699 -0.2074 -0.7204 -0.2505
  208MOL0     C27378   2.373   9.263   9.740 -0.7824 -0.4971  0.6588
  208MOL0     C27379   2.334   9.168   9.842 -0.7250  0.4339  0.5520
  208MOL0     C27380   2.195   9.144   9.861 -0.5388 -0.0149 -0.6519
  208MOL0     C27381   2.102   9.210   9.779  0.2082 -0.2794 -1.4228
  208MOL0     O27382   1.964   9.199   9.796 -0.5945  0.3829  0.1026
  208MOL0     C27383   1.916   9.164   9.927 -0.3407 -0.3560  0.5900
  208MOL0     C27384   1.780   9.221   9.951 -0.8744 -0.3300 -0.0246
  208MOL0     C27385   1.683   9.141   9.868 -0.2466 -1.3285  0.0920
  208MOL0     C27386   1.544   9.170   9.911 -0.3930 -0.0703 -0.3703
  208MOL0     C27387   1.461   9.139   9.799 -0.0147  0.2404  0.2486
  208MOL0     C27388   1.393   9.110   9.702  1.0901 -0.0245 -1.2909
  208MOL0     C27389   2.150   9.300   9.684 -0.0055 -0.6089 -0.0582
  208MOL0     C27390   2.283   9.332   9.666 -0.0713 -0.4542  0.1530
  208MOL0     H27391   2.806   9.382   9.861 -2.5868  0.0779 -0.7317
  208MOL0     H27392   3.031   9.334   9.819  0.3428 -1.9169  4.2378
  208MOL0     H27393   3.318   9.137   9.675 -0.3485 -0.3182 -1.3649
  208MOL0     H27394   3.219   9.233   9.787  0.8447 -1.4898  0.2916
  208MOL0     H27395   3.343   9.373   9.627  1.5181  0.6367 -2.7053
  208MOL0     H27396   3.168   9.402   9.635 -0.3207 -0.4893 -1.4401
  208MOL0     H27397   3.114   9.330   9.442  0.0908  0.1754  0.3793
  208MOL0     H27398   3.245   9.210   9.428  0.0764  0.9277 -1.2436
  208MOL0     H27399   3.289   9.513   9.437 -1.1730  0.3234 -1.6708
  208MOL0     H27400   3.411   9.394   9.400 -0.4336 -1.7962  0.0930
  208MOL0     H27401   3.166   9.412   9.224 -0.5714  2.1642 -1.3999
  208MOL0     H27402   3.335   9.376   9.173  0.4980  0.7706  1.0136
  208MOL0     H27403   3.247   9.649   9.273 -0.5114  1.4339 -0.2352
  208MOL0     H27404   3.231   9.607   9.117 -3.8225 -0.3870  2.2349
  208MOL0     H27405   3.498   9.601   9.270  0.6527  1.1010 -0.2344
  208MOL0     H27406   3.486   9.549   9.099 -0.4267  2.5752 -2.0198
  208MOL0     H27407   3.389   9.810   9.065 -0.6469  2.1490  1.4760
  208MOL0     H27408   3.555   9.769   9.084 -0.4006 -2.7617 -2.3126
  208MOL0     H27409   3.229   9.871   9.292 -0.7093 -1.4157  2.8437
  208MOL0     H27410   3.349   9.971   9.632 -0.0832  0.5335  0.5925
  208MOL0     H27411   3.207   9.950   9.540  1.6255 -2.0960  2.4158
  208MOL0     H27412   3.176  10.143   9.460 -1.8434  1.4323  2.2425
  208MOL0     H27413   3.334  10.211   9.473  0.3501  1.7308  2.2999
  208MOL0     H27414   3.096  10.205   9.666 -0.4987 -1.1921  1.9839
  208MOL0     H27415   3.256  10.193   9.737 -3.1299 -1.9605  1.3141
  208MOL0     H27416   3.338  10.385   9.641 -0.9686 -1.2630  5.2920
  208MOL0     H27417   3.191  10.415   9.734  3.5928  1.8812  1.8898
  208MOL0     H27418   3.113  10.625   9.359  0.1882 -1.8241 -1.2399
  208MOL0     H27419   2.911  10.737   9.337  0.2398 -2.2374 -1.4190
  208MOL0     H27420   2.545  10.790   9.179  1.7660 -3.0741  2.2112
  208MOL0     H27421   2.355  10.937   9.104  4.6161  0.3621 -0.8410
  208MOL0     H27422   2.004  11.116   9.285  1.8660  2.3190  1.3479
  208MOL0     H27423   2.082  11.068   9.423 -0.6769 -0.4709 -0.1173
  208MOL0     H27424   2.118  10.835   9.306  1.2044  1.2013 -2.0314
  208MOL0     H27425   2.048  10.888   9.164 -1.7948  0.0703 -0.0326
  208MOL0     H27426   1.818  10.895   9.266 -0.2882  0.8786  0.0408
  208MOL0     H27427   1.878  10.894   9.434 -1.5765  0.8646 -0.7664
  208MOL0     H27428   1.921  10.665   9.255 -0.7808  0.1526  0.0040
  208MOL0     H27429   1.939  10.683   9.433 -1.5331 -0.3710  1.3604
  208MOL0     H27430   1.694  10.627   9.264 -0.8299 -1.2658  0.8210
  208MOL0     H27431   1.680  10.733   9.409 -0.4971  0.9156  0.9780
  208MOL0     H27432   1.632  10.481   9.430  1.2996 -0.5999 -2.3192
  208MOL0     H27433   1.766  10.538   9.541  0.6167  2.7612 -0.6858
  208MOL0     H27434   1.835  10.438   9.269 -0.1910  1.1261 -0.4544
  208MOL0     H27435   1.928  10.437   9.424 -1.6713  1.7682  0.1980
  208MOL0     H27436   1.747  10.265   9.494 -1.8881  0.5361 -1.2684
  208MOL0     H27437   1.877  10.208   9.383  0.2402 -0.2604 -3.3247
  208MOL0     H27438   2.302  11.061   9.514  0.2395 -0.8169  0.2719
  208MOL0     H27439   2.517  10.951   9.572  2.5493  0.3151 -1.1897
  208MOL0     H27440   2.733  10.476   9.630 -0.7614  0.9835 -0.2702
  208MOL0     H27441   2.944  10.357   9.645  1.6169 -0.3157 -0.2374
  208MOL0     H27442   2.909   8.961   9.604 -0.0765 -0.9052  0.1785
  208MOL0     H27443   2.682   9.024   9.669 -0.6760  0.4706 -1.8669
  208MOL0     H27444   2.416   9.108   9.881 -0.7803 -0.9529 -1.3610
  208MOL0     H27445   2.167   9.074   9.939 -0.0225  1.4606  0.9031
  208MOL0     H27446   1.978   9.223   9.996  3.0876 -0.8166 -1.8296
  208MOL0     H27447   1.937   9.059   9.950 -0.2154 -0.4924 -0.1152
  208MOL0     H27448   1.782   9.203  10.058  1.9294  2.0905  0.4720
  208MOL0     H27449   1.759   9.326   9.924 -1.6920 -0.9981 -2.2569
  208MOL0     H27450   1.682   9.032   9.879 -1.1739 -1.7791 -3.1940
  208MOL0     H27451   1.707   9.179   9.768  0.5554 -0.1461  0.7196
  208MOL0     H27452   1.517   9.101   9.992 -2.0724  1.8885  0.8263
  208MOL0     H27453   1.528   9.270   9.951 -0.6900 -0.6121  0.9071
  208MOL0     H27454   1.339   9.097   9.610 -0.5488  2.6989 -0.8250
  208MOL0     H27455   2.078   9.348   9.618 -0.6243  1.0134  1.6943
  208MOL0     H27456   2.314   9.396   9.583 -2.0555 -2.1249 -2.0082
  209MOL0     O27457   1.844   1.390  10.446  0.4549  0.2256 -0.5421
  209MOL0     C27458   1.913   1.471  10.506 -0.1265  0.5837  0.4022
  209MOL0     O27459   2.009   1.548  10.454 -0.1520  0.6136 -0.2683
  209MOL0     C27460   2.029   1.562  10.318  0.2604 -0.4039 -0.5336
  209MOL0     C27461   2.010   1.690  10.265 -0.5552  0.0183 -0.3974
  209MOL0     C27462   2.046   1.720  10.132  0.1063  1.4441 -0.9683
  209MOL0     C27463   2.084   1.616  10.041  0.6409 -0.5316  0.2421
  209MOL0     O27464   2.123   1.647   9.917 -0.4734 -0.3797  0.3234
  209MOL0     C27465   2.096   1.552   9.812 -0.2814  0.3205 -0.4445
  209MOL0     C27466   2.087   1.607   9.674  0.3775  0.2341  0.2567
  209MOL0     C27467   2.224   1.669   9.613 -0.2169 -0.2446  0.5466
  209MOL0     C27468   2.205   1.678   9.468  0.8875 -1.1540 -0.1284
  209MOL0     C27469   2.336   1.696   9.393 -0.2211 -1.3485  0.3526
  209MOL0     C27470   2.304   1.744   9.255  0.6840  0.5247  0.5826
  209MOL0     C27471   2.223   1.632   9.167 -0.6676 -0.3703 -0.4432
  209MOL0     C27472   2.303   1.502   9.131  0.5563 -0.2133  0.0041
  209MOL0     N27473   2.304   1.395   9.231  0.7490 -0.0415  0.4110
  209MOL0     C27474   2.194   1.351   9.297 -0.4237  0.0047 -0.1037
  209MOL0     C27475   2.245   1.273   9.395 -0.3357 -0.2919 -0.7550
  209MOL0     C27476   2.172   1.192   9.503  0.8799 -0.1660 -0.2078
  209MOL0     C27477   2.124   1.056   9.440 -0.6730 -1.1218 -0.6097
  209MOL0     C27478   2.091   0.952   9.542 -0.8901 -0.4512 -0.2866
  209MOL0     C27479   2.004   1.005   9.646  0.0276 -0.0247 -0.4098
  209MOL0     O27480   1.886   1.070   9.601 -0.5827  0.4575  0.5264
  209MOL0     C27481   1.832   1.170   9.688 -0.3452  1.1703 -0.8638
  209MOL0     C27482   1.774   1.288   9.648  0.0567  0.7817  0.7756
  209MOL0     C27483   1.712   1.382   9.721 -0.0350  0.2899 -0.2255
  209MOL0     C27484   1.700   1.359   9.861  0.3339 -0.0355  0.6549
  209MOL0     C27485   1.632   1.452   9.955 -0.6146 -0.1628 -1.3863
  209MOL0     O27486   1.665   1.434  10.084 -0.4863 -1.3498 -1.4611
  209MOL0     C27487   1.647   1.534  10.181  0.7290 -0.1419  1.1860
  209MOL0     C27488   1.596   1.486  10.297 -0.3460  0.2056  0.1042
  209MOL0     C27489   1.582   1.574  10.409  0.6489 -0.0114  0.1234
  209MOL0     C27490   1.611   1.710  10.391  1.0387 -0.1751 -0.5783
  209MOL0     O27491   1.568   1.800  10.494  0.0094  0.0800  0.3405
  209MOL0     C27492   1.594   1.755  10.628  0.1782  0.2796 -0.1433
  209MOL0     C27493   1.659   1.864  10.712  0.4337  0.5867  0.5561
  209MOL0     C27494   1.691   1.831  10.864 -0.3166  0.8220 -0.3837
  209MOL0     C27495   1.799   1.918  10.933 -1.0349  0.2305  0.1117
  209MOL0     C27496   1.922   1.956  10.847 -0.3088 -1.2373  0.4420
  209MOL0     C27497   2.046   1.991  10.934  0.0377  1.3328  0.3495
  209MOL0     C27498   2.010   2.114  11.013 -0.5252 -0.1007 -0.5779
  209MOL0     C27499   2.111   2.171  11.110 -0.0063  0.2191  0.3262
  209MOL0    Cl27500   2.263   2.214  11.035  0.0697 -0.5094  0.0844
  209MOL0     C27501   1.667   1.757  10.267 -0.5092 -0.2637 -0.2823
  209MOL0     C27502   1.678   1.666  10.164 -0.3675  0.1253  0.0484
  209MOL0     O27503   1.568   1.551   9.907 -0.1447 -0.1785 -0.0803
  209MOL0     C27504   1.762   1.242   9.910 -0.4307 -0.6880  0.5211
  209MOL0     C27505   1.823   1.147   9.828  0.0114 -0.7977 -0.9156
  209MOL0     N27506   2.382   1.259   9.377  0.3971  0.5093 -0.7287
  209MOL0     N27507   2.419   1.334   9.278  0.4741 -1.1267  0.8973
  209MOL0     C27508   2.106   1.485  10.101  0.1463 -0.6130  0.8590
  209MOL0     C27509   2.082   1.464  10.235 -0.1122  0.4789  0.0639
  209MOL0     C27510   1.896   1.469  10.649 -0.0379 -1.0738 -0.3394
  209MOL0     C27511   1.802   1.391  10.723  0.2875  0.8239  1.3807
  209MOL0     C27512   1.802   1.398  10.858 -0.3568 -0.4222  0.4365
  209MOL0     C27513   1.875   1.493  10.934 -0.7693 -0.8203 -0.7756
  209MOL0     O27514   1.865   1.516  11.070  0.7054 -0.0452 -0.1714
  209MOL0     C27515   1.797   1.428  11.153  0.1669 -0.7056  0.0618
  209MOL0     C27516   1.792   1.480  11.304  0.3145  0.1422  0.1855
  209MOL0     C27517   1.737   1.621  11.313  0.1404  0.0971 -0.0756
  209MOL0     C27518   1.589   1.641  11.261 -1.0640  0.7011 -0.0951
  209MOL0     C27519   1.549   1.781  11.276 -0.6457  0.4970  0.2104
  209MOL0     C27520   1.530   1.898  11.271 -0.2361 -0.0573  1.2501
  209MOL0     C27521   1.964   1.579  10.868  0.0815 -0.1801  0.6873
  209MOL0     C27522   1.971   1.568  10.723  0.0566  0.9902 -0.9783
  209MOL0     H27523   1.982   1.772  10.331  0.7257 -1.4621  2.1198
  209MOL0     H27524   2.053   1.825  10.104  1.6571  1.3954 -0.8735
  209MOL0     H27525   1.992   1.525   9.831 -0.6773  0.5634 -2.1289
  209MOL0     H27526   2.158   1.462   9.814 -0.7582 -0.0094 -0.4336
  209MOL0     H27527   1.998   1.668   9.659 -1.5016 -1.6173  2.9478
  209MOL0     H27528   2.069   1.512   9.624 -3.5432  0.2899  1.2598
  209MOL0     H27529   2.316   1.613   9.636  0.2027 -1.8228 -3.9395
  209MOL0     H27530   2.248   1.772   9.640  1.2430 -0.4532  0.1726
  209MOL0     H27531   2.162   1.584   9.431  0.8418 -0.6954 -1.2620
  209MOL0     H27532   2.133   1.756   9.448  0.9962 -0.7199  1.0654
  209MOL0     H27533   2.401   1.609   9.400  1.1337 -0.3495  0.7242
  209MOL0     H27534   2.400   1.782   9.415 -0.5742 -0.5381 -1.5390
  209MOL0     H27535   2.396   1.774   9.205 -0.9987  0.7638 -2.5882
  209MOL0     H27536   2.236   1.828   9.242  1.4343  0.6994 -3.4863
  209MOL0     H27537   2.132   1.600   9.218 -0.4353  0.0639  0.2550
  209MOL0     H27538   2.191   1.679   9.073  1.3395 -0.9956 -1.4827
  209MOL0     H27539   2.408   1.526   9.112  0.6148 -2.3900 -3.2507
  209MOL0     H27540   2.262   1.456   9.041  1.2836 -0.1988 -0.3370
  209MOL0     H27541   2.088   1.370   9.287 -0.2108  0.7099 -1.2002
  209MOL0     H27542   2.088   1.252   9.539  0.5438  0.0518 -1.3249
  209MOL0     H27543   2.252   1.175   9.576  1.5845  2.0958 -0.3783
  209MOL0     H27544   2.211   1.011   9.392 -1.8427  1.6398 -6.1722
  209MOL0     H27545   2.051   1.072   9.360  0.1763  1.6594 -0.9372
  209MOL0     H27546   2.039   0.878   9.480 -3.5351  0.9401  0.1033
  209MOL0     H27547   2.187   0.916   9.581  1.6733  3.7590 -2.0754
  209MOL0     H27548   2.069   1.068   9.709  1.4291  1.4087 -3.1090
  209MOL0     H27549   1.979   0.926   9.718  1.2100  0.5019  0.6242
  209MOL0     H27550   1.753   1.301   9.542 -3.3299 -1.9635  0.9229
  209MOL0     H27551   1.670   1.477   9.690  0.3042  0.2048 -0.9507
  209MOL0     H27552   1.586   1.378  10.307 -0.5833  0.2658  0.5309
  209MOL0     H27553   1.535   1.532  10.497 -0.3743 -3.4677 -1.8502
  209MOL0     H27554   1.657   1.666  10.632  0.8473  0.7608  0.2060
  209MOL0     H27555   1.503   1.723  10.681  0.3952 -3.6554 -1.7551
  209MOL0     H27556   1.594   1.951  10.700 -1.8049 -1.2627 -1.9401
  209MOL0     H27557   1.751   1.886  10.656  0.7590 -0.1834  0.7845
  209MOL0     H27558   1.723   1.727  10.859 -0.9204  0.5604  0.7931
  209MOL0     H27559   1.601   1.834  10.926  0.1581  0.8758  0.3175
  209MOL0     H27560   1.755   2.014  10.961  0.3564  0.4889  1.5473
  209MOL0     H27561   1.823   1.863  11.024 -2.0866  1.8725  1.4398
  209MOL0     H27562   1.905   2.040  10.780  2.6477 -1.1464 -0.3087
  209MOL0     H27563   1.943   1.869  10.783  1.1924 -1.4744  1.2291
  209MOL0     H27564   2.132   2.019  10.872 -0.2380  3.5478  0.9207
  209MOL0     H27565   2.077   1.901  10.988 -0.6499 -0.5496 -2.1958
  209MOL0     H27566   1.983   2.203  10.955 -1.6337 -0.1253 -0.1202
  209MOL0     H27567   1.924   2.088  11.075 -0.8112 -0.5523 -1.1555
  209MOL0     H27568   2.118   2.098  11.192 -1.2008 -0.9131 -0.5319
  209MOL0     H27569   2.065   2.251  11.169 -0.7317  0.7762 -0.9568
  209MOL0     H27570   1.697   1.860  10.252  0.2255 -0.1732  1.5786
  209MOL0     H27571   1.699   1.720  10.072 -3.6226  0.9469 -0.3477
  209MOL0     H27572   1.765   1.226  10.018 -0.2404  3.1431  1.2393
  209MOL0     H27573   1.865   1.059   9.877  5.8036  2.0775  0.1147
  209MOL0     H27574   2.148   1.405  10.041 -2.0557  0.2856 -2.0757
  209MOL0     H27575   2.108   1.372  10.287 -0.8018  0.8244  1.0432
  209MOL0     H27576   1.732   1.323  10.674  0.5448  1.3554  0.2365
  209MOL0     H27577   1.726   1.339  10.907  0.8533  0.5631  3.7503
  209MOL0     H27578   1.837   1.326  11.151 -0.8218 -1.1080  0.1429
  209MOL0     H27579   1.697   1.422  11.108  1.0332  1.5026 -2.3966
  209MOL0     H27580   1.732   1.409  11.362  0.1717  0.1262  0.0184
  209MOL0     H27581   1.889   1.481  11.353 -0.9406  0.9861  2.8757
  209MOL0     H27582   1.804   1.688  11.258  0.6615 -0.6324 -0.3444
  209MOL0     H27583   1.734   1.668  11.412 -2.0438  4.4626 -1.9339
  209MOL0     H27584   1.579   1.623  11.153  0.4260  2.6632 -0.6192
  209MOL0     H27585   1.513   1.586  11.317 -2.1013  0.4732 -1.6595
  209MOL0     H27586   1.499   2.000  11.267  0.4666  0.3280  3.8021
  209MOL0     H27587   2.024   1.648  10.927 -1.2555  0.2556  1.5724
  209MOL0     H27588   2.038   1.638  10.674  1.0027  0.4369 -0.5124
  210MOL0     O27589  10.939   7.565   7.123  0.1795  0.6499  0.0057
  210MOL0     C27590  10.876   7.462   7.095 -0.1035 -0.4839  0.0052
  210MOL0     O27591  10.904   7.382   6.990 -0.6400 -0.3926  0.0389
  210MOL0     C27592  11.002   7.427   6.901 -0.6792 -0.2978 -0.3799
  210MOL0     C27593  10.963   7.480   6.776  0.2294 -0.5363  0.4732
  210MOL0     C27594  11.065   7.551   6.698  0.2970  0.2616 -0.5557
  210MOL0     C27595  11.196   7.549   6.747  0.3504 -0.4379  0.1307
  210MOL0     O27596  11.286   7.619   6.671  1.0402 -0.6725 -0.3953
  210MOL0     C27597  11.418   7.560   6.635 -0.6910  1.1793  0.0876
  210MOL0     C27598  11.397   7.451   6.525 -0.6329 -0.7420 -0.0007
  210MOL0     C27599  11.522   7.371   6.513 -0.3865  0.9146  0.7646
  210MOL0     C27600  11.508   7.235   6.444 -0.9056 -1.1087  0.1450
  210MOL0     C27601  11.653   7.172   6.430  0.3276 -0.0807 -0.1135
  210MOL0     C27602  11.707   7.219   6.294  0.4459 -0.8138  0.1057
  210MOL0     C27603  11.854   7.182   6.271 -0.1948  0.4204  0.2452
  210MOL0     C27604  11.917   7.198   6.134  0.1542  0.0444 -0.7202
  210MOL0     N27605  11.899   7.334   6.084 -0.5370 -0.4697 -0.3020
  210MOL0     C27606  11.965   7.454   6.118  0.1799  0.4019  0.5919
  210MOL0     C27607  11.943   7.551   6.032  0.0981  0.6907  0.0086
  210MOL0     C27608  11.998   7.697   6.039  0.8235  1.0726 -0.0601
  210MOL0     C27609  12.141   7.704   6.079  1.0338 -0.3489 -0.0742
  210MOL0     C27610  12.189   7.845   6.081 -0.8193 -0.7282 -0.9567
  210MOL0     C27611  12.345   7.834   6.095  0.1104 -0.3286 -0.7155
  210MOL0     O27612  12.403   7.964   6.093  0.1112 -0.1272  0.7539
  210MOL0     C27613  12.537   7.968   6.099 -0.0380 -0.7594 -0.2437
  210MOL0     C27614  12.623   7.888   6.023  0.7560 -0.6489  0.1854
  210MOL0     C27615  12.759   7.914   6.041  0.1768  1.1253  0.5567
  210MOL0     C27616  12.814   7.996   6.141 -0.2931  0.9305  0.3597
  210MOL0     C27617  12.956   8.017   6.139 -0.1644 -1.2212  0.8890
  210MOL0     O27618  13.012   8.095   6.224  0.7942 -0.5632  0.3080
  210MOL0     C27619  13.133   8.153   6.212  0.7278  0.4136  0.6238
  210MOL0     C27620  13.245   8.085   6.247 -0.0591  0.6762 -1.4869
  210MOL0     C27621  13.376   8.145   6.244  0.1283  0.1025 -0.7202
  210MOL0     C27622  13.390   8.273   6.210 -0.7496 -0.5631 -0.4746
  210MOL0     O27623  13.518   8.324   6.212 -0.1308  0.3548  0.3098
  210MOL0     C27624  13.615   8.245   6.152 -0.4903 -0.5609 -0.4353
  210MOL0     C27625  13.729   8.347   6.124 -0.1543 -0.8287  0.0426
  210MOL0     C27626  13.836   8.258   6.055  0.0959  0.1501  0.0572
  210MOL0     C27627  13.832   8.237   5.894  0.1067 -0.5385 -0.6523
  210MOL0     C27628  13.916   8.117   5.851  0.3005  0.1856  0.0198
  210MOL0     C27629  13.920   8.120   5.695 -0.4620 -0.4338 -0.4890
  210MOL0     C27630  13.784   8.077   5.636  0.2847 -0.2344  0.4292
  210MOL0     C27631  13.798   8.072   5.480  0.1516 -0.2652 -0.5716
  210MOL0    Cl27632  13.639   8.045   5.406  0.0527  0.0787  0.0707
  210MOL0     C27633  13.280   8.351   6.178 -0.1505  0.2749  0.9653
  210MOL0     C27634  13.151   8.292   6.185  0.3364  0.4555 -0.2854
  210MOL0     O27635  13.018   7.949   6.064  0.5547 -0.0661 -0.5397
  210MOL0     C27636  12.722   8.060   6.227 -0.3387  0.3046  0.8364
  210MOL0     C27637  12.592   8.054   6.195 -0.1153 -0.6669  0.8561
  210MOL0     N27638  11.879   7.486   5.922 -0.2991  0.3169 -0.3814
  210MOL0     N27639  11.857   7.368   5.958 -0.4930  0.6871  0.3227
  210MOL0     C27640  11.230   7.483   6.866 -0.1312 -0.7756 -0.2072
  210MOL0     C27641  11.136   7.422   6.935 -0.3327  0.5362  1.1416
  210MOL0     C27642  10.774   7.427   7.197 -0.6392  0.1930 -0.6411
  210MOL0     C27643  10.758   7.499   7.316  0.0714  0.2079  0.0687
  210MOL0     C27644  10.671   7.459   7.422  0.4022 -0.5305 -0.0041
  210MOL0     C27645  10.588   7.359   7.392  0.6554 -0.0069  0.1658
  210MOL0     O27646  10.481   7.336   7.478 -0.6932 -0.3114  0.2853
  210MOL0     C27647  10.477   7.204   7.527 -0.8599 -0.5285 -1.0363
  210MOL0     C27648  10.399   7.192   7.658 -0.1602 -1.0789 -1.0087
  210MOL0     C27649  10.486   7.217   7.784  0.7089 -0.0333  0.6849
  210MOL0     C27650  10.551   7.359   7.790 -0.2129  0.6348 -0.1073
  210MOL0     C27651  10.655   7.345   7.897  0.6380  0.2235  1.0957
  210MOL0     C27652  10.742   7.321   7.975  0.9988 -0.3297 -0.1816
  210MOL0     C27653  10.593   7.281   7.273  0.4575  0.0332 -0.0122
  210MOL0     C27654  10.691   7.318   7.181 -0.1027  0.3619 -0.1776
  210MOL0     H27655  10.857   7.484   6.754  0.7076 -1.1331 -2.4074
  210MOL0     H27656  11.051   7.602   6.603  0.2462 -0.0034 -0.6919
  210MOL0     H27657  11.474   7.516   6.717  0.7667  1.7624 -0.5504
  210MOL0     H27658  11.480   7.636   6.586  0.4728  0.7559  0.8736
  210MOL0     H27659  11.368   7.496   6.429  0.9243  1.2150  0.3868
  210MOL0     H27660  11.315   7.388   6.559 -0.1860 -2.1049 -1.3563
  210MOL0     H27661  11.553   7.355   6.617  0.5907 -0.0626  0.3453
  210MOL0     H27662  11.596   7.437   6.465 -1.1394  3.6463  3.0633
  210MOL0     H27663  11.457   7.170   6.516  2.7655 -1.2990  2.8681
  210MOL0     H27664  11.452   7.235   6.351 -0.1785 -0.2898 -0.3131
  210MOL0     H27665  11.651   7.063   6.429  1.7448 -0.1665 -2.5224
  210MOL0     H27666  11.723   7.196   6.510 -0.2570  0.9332  0.1109
  210MOL0     H27667  11.720   7.327   6.279  1.7921 -0.8817  0.6739
  210MOL0     H27668  11.640   7.198   6.210 -0.8106 -2.0755  1.3808
  210MOL0     H27669  11.921   7.209   6.352 -1.4828  1.9441  0.8651
  210MOL0     H27670  11.841   7.074   6.279 -3.8223  0.5619 -1.5088
  210MOL0     H27671  11.860   7.136   6.064 -2.3732  1.4573 -0.0382
  210MOL0     H27672  12.024   7.175   6.140  1.0991  3.7285 -0.7782
  210MOL0     H27673  12.016   7.471   6.212  0.4064 -3.3638  1.2828
  210MOL0     H27674  11.936   7.755   6.108 -2.2536 -2.6467  0.5891
  210MOL0     H27675  11.984   7.732   5.936  2.0538 -2.1406 -1.4296
  210MOL0     H27676  12.206   7.645   6.013  0.5268 -1.2839  0.2463
  210MOL0     H27677  12.156   7.660   6.178  0.7019 -2.8459 -1.0503
  210MOL0     H27678  12.163   7.903   5.992 -0.6159  3.9698  1.6941
  210MOL0     H27679  12.154   7.898   6.170 -0.0263  0.5390 -1.3701
  210MOL0     H27680  12.380   7.772   6.012 -1.5997 -2.0988 -0.1706
  210MOL0     H27681  12.376   7.783   6.187  2.4614 -1.2683 -1.9266
  210MOL0     H27682  12.590   7.832   5.936 -0.2034  1.2187 -0.7003
  210MOL0     H27683  12.814   7.855   5.967  1.1362  1.4097  1.0328
  210MOL0     H27684  13.231   7.986   6.289 -0.4110  0.7762 -1.3671
  210MOL0     H27685  13.452   8.087   6.296 -0.9556  0.8778  1.8857
  210MOL0     H27686  13.581   8.210   6.054  2.0994  2.6036 -2.6814
  210MOL0     H27687  13.655   8.173   6.224  1.8115 -0.0832 -1.1549
  210MOL0     H27688  13.767   8.386   6.219  0.0125  2.1982 -1.1452
  210MOL0     H27689  13.697   8.435   6.066  1.6462 -0.6069 -0.6890
  210MOL0     H27690  13.846   8.163   6.109  1.6780 -0.3505 -1.0165
  210MOL0     H27691  13.927   8.313   6.080  0.2000 -1.0175  2.5741
  210MOL0     H27692  13.729   8.229   5.860 -0.1058  4.0157 -1.8214
  210MOL0     H27693  13.859   8.332   5.846 -0.1310 -0.1966 -0.1314
  210MOL0     H27694  13.879   8.025   5.898  0.7627  0.0949  0.2206
  210MOL0     H27695  14.016   8.127   5.895 -0.4245 -1.2960  2.1860
  210MOL0     H27696  14.001   8.065   5.646  1.6983  1.7366  0.4661
  210MOL0     H27697  13.947   8.221   5.664  2.4291 -0.9788  0.0508
  210MOL0     H27698  13.759   7.977   5.672  1.3839 -0.0349  1.8616
  210MOL0     H27699  13.697   8.139   5.657  1.2448  0.8638  1.3372
  210MOL0     H27700  13.864   7.988   5.454 -0.8890 -1.0401 -0.7727
  210MOL0     H27701  13.840   8.167   5.446  1.5420 -0.9808 -0.9157
  210MOL0     H27702  13.296   8.444   6.125  1.9640 -2.0842 -2.9744
  210MOL0     H27703  13.056   8.344   6.187 -0.8100 -1.5419  2.3293
  210MOL0     H27704  12.752   8.131   6.304  0.5535  2.0834 -1.0270
  210MOL0     H27705  12.516   8.107   6.252  2.0376 -0.8825  4.2168
  210MOL0     H27706  11.326   7.479   6.915 -0.1427  0.1400 -0.0788
  210MOL0     H27707  11.161   7.368   7.026  0.7859  0.8134  1.0134
  210MOL0     H27708  10.820   7.585   7.337  0.5553 -0.0694 -0.2173
  210MOL0     H27709  10.675   7.524   7.510  1.0691  2.4022 -2.0463
  210MOL0     H27710  10.577   7.166   7.551 -1.7656 -1.4919  1.4524
  210MOL0     H27711  10.413   7.134   7.473 -0.9446 -1.6879  0.5070
  210MOL0     H27712  10.319   7.267   7.668  3.1369  2.8614 -1.6627
  210MOL0     H27713  10.349   7.095   7.667 -0.5048 -0.7495  1.0232
  210MOL0     H27714  10.561   7.139   7.801  0.3817 -0.0571  2.0994
  210MOL0     H27715  10.422   7.228   7.872  1.0956  1.8773  0.7594
  210MOL0     H27716  10.611   7.371   7.700  1.5868 -0.3698  0.8883
  210MOL0     H27717  10.474   7.434   7.806 -0.2837  0.4472  0.4515
  210MOL0     H27718  10.822   7.295   8.041  1.3928  2.7232  0.6623
  210MOL0     H27719  10.519   7.204   7.253 -0.0890  0.0924  1.6695
  210MOL0     H27720  10.693   7.252   7.094 -0.9496  1.7877 -1.3111
  211MOL0     O27721   1.745   7.826   2.723 -0.1553 -0.0572 -0.8113
  211MOL0     C27722   1.760   7.829   2.849 -0.7246 -0.6966  1.8667
  211MOL0     O27723   1.700   7.747   2.934  0.5558  0.0213  0.1012
  211MOL0     C27724   1.626   7.647   2.880 -0.9106  0.3324 -0.8037
  211MOL0     C27725   1.677   7.510   2.874  0.1901  0.9697  0.1784
  211MOL0     C27726   1.614   7.403   2.818  0.4335 -0.2229 -0.7346
  211MOL0     C27727   1.473   7.419   2.787  1.2376 -0.1440 -0.3103
  211MOL0     O27728   1.387   7.314   2.747  0.7409 -0.2257  0.4926
  211MOL0     C27729   1.445   7.198   2.683 -0.1686 -0.2279 -0.3108
  211MOL0     C27730   1.340   7.130   2.590 -0.2184 -0.0767  0.5709
  211MOL0     C27731   1.409   7.018   2.507  0.2867 -0.3979  0.0960
  211MOL0     C27732   1.492   7.068   2.381  0.5162 -0.0975  1.0125
  211MOL0     C27733   1.580   6.962   2.309  0.7953  0.3866  0.0114
  211MOL0     C27734   1.656   7.005   2.182 -0.0333  0.9315 -0.0210
  211MOL0     C27735   1.564   7.016   2.062  0.1452 -0.2493  0.5655
  211MOL0     C27736   1.636   7.053   1.921  0.2503  0.6524  0.3935
  211MOL0     N27737   1.700   6.938   1.870 -0.6660  0.8004 -0.0746
  211MOL0     C27738   1.830   6.907   1.884  0.0556 -0.4220  0.0189
  211MOL0     C27739   1.848   6.793   1.800  0.1362  0.8596 -0.0034
  211MOL0     C27740   1.974   6.716   1.780 -0.7794 -1.3954  0.3050
  211MOL0     C27741   2.076   6.804   1.709  1.1606  0.3068 -0.4623
  211MOL0     C27742   2.225   6.756   1.721  0.2226  0.0390  0.3900
  211MOL0     C27743   2.251   6.630   1.644 -0.3019  0.3128 -0.0173
  211MOL0     O27744   2.400   6.625   1.610  1.1510  0.0114 -0.0720
  211MOL0     C27745   2.442   6.687   1.489  0.1558  0.9366  0.1264
  211MOL0     C27746   2.359   6.766   1.410 -0.2153 -0.5779 -0.8779
  211MOL0     C27747   2.394   6.814   1.288 -0.8549 -1.1277  0.4667
  211MOL0     C27748   2.525   6.792   1.239 -0.3722  0.0720 -0.3096
  211MOL0     C27749   2.578   6.845   1.109 -0.6098  0.1295 -0.7568
  211MOL0     O27750   2.489   6.910   1.035 -0.2760  0.3789 -0.2114
  211MOL0     C27751   2.514   6.980   0.922 -0.7689  0.5008  0.0853
  211MOL0     C27752   2.470   7.114   0.910 -0.0476  0.1510  0.0233
  211MOL0     C27753   2.482   7.180   0.784  0.2295 -0.1555 -0.0719
  211MOL0     C27754   2.559   7.125   0.683  0.2189 -0.1186 -0.0265
  211MOL0     O27755   2.572   7.218   0.580  0.3635  0.7878  0.0771
  211MOL0     C27756   2.653   7.177   0.466  0.9060 -0.2005  0.3634
  211MOL0     C27757   2.568   7.089   0.372  0.3755 -0.3502  0.1466
  211MOL0     C27758   2.647   7.082   0.235  0.7670 -0.0204  0.0637
  211MOL0     C27759   2.562   7.005   0.132  0.7356  0.3037 -1.0839
  211MOL0     C27760   2.613   7.008  -0.013  0.4622  1.0167 -0.5432
  211MOL0     C27761   2.524   6.967  -0.118  0.4475 -0.6701  0.1563
  211MOL0     C27762   2.418   6.861  -0.058  0.2413 -0.9482 -0.0641
  211MOL0     C27763   2.317   6.825  -0.169  0.1384  0.0372 -0.2941
  211MOL0    Cl27764   2.191   6.703  -0.107 -0.0801  0.0088  0.4403
  211MOL0     C27765   2.614   6.996   0.696  0.7702 -0.0552  0.3576
  211MOL0     C27766   2.590   6.925   0.816  0.3929  0.4676  0.6054
  211MOL0     O27767   2.693   6.817   1.075  0.2742  0.5970  0.3161
  211MOL0     C27768   2.614   6.710   1.319  0.9053 -0.0771 -0.1842
  211MOL0     C27769   2.570   6.662   1.442  0.3485 -0.1261 -0.3461
  211MOL0     N27770   1.727   6.768   1.740  0.6519 -0.0912  0.2975
  211MOL0     N27771   1.637   6.847   1.786 -0.3765  0.0184 -0.4849
  211MOL0     C27772   1.414   7.546   2.795  0.5441  0.1835  1.2205
  211MOL0     C27773   1.490   7.660   2.835  0.0576  0.2289  0.0227
  211MOL0     C27774   1.875   7.916   2.896 -0.3057 -0.3695  0.0835
  211MOL0     C27775   1.887   7.922   3.041  0.6788  1.0455 -0.0851
  211MOL0     C27776   1.991   7.988   3.099  0.0445 -0.3520  0.2107
  211MOL0     C27777   2.087   8.055   3.011  0.4838 -0.2442  0.2991
  211MOL0     O27778   2.199   8.128   3.050  1.4327  0.2899  1.7985
  211MOL0     C27779   2.224   8.124   3.187 -0.4997  0.2044 -0.5001
  211MOL0     C27780   2.360   8.194   3.207  0.7980 -0.5973  0.7009
  211MOL0     C27781   2.346   8.297   3.327  0.4553 -0.4731 -0.0729
  211MOL0     C27782   2.324   8.235   3.457 -0.8774  0.3351 -0.4039
  211MOL0     C27783   2.307   8.338   3.562 -0.6914  0.0574 -0.1683
  211MOL0     C27784   2.290   8.401   3.665 -1.2962 -0.7931 -0.6461
  211MOL0     C27785   2.071   8.051   2.874 -0.0331 -0.5505  0.6767
  211MOL0     C27786   1.963   7.994   2.813  0.0417  0.1769 -1.0102
  211MOL0     H27787   1.778   7.481   2.900 -0.7249 -2.2265  0.4955
  211MOL0     H27788   1.645   7.299   2.808 -2.5063 -1.5760  2.2879
  211MOL0     H27789   1.485   7.130   2.759  3.1835  0.2150 -1.5265
  211MOL0     H27790   1.528   7.237   2.623  1.2552  3.0404  3.3299
  211MOL0     H27791   1.285   7.204   2.531 -1.5750 -1.9106 -0.5636
  211MOL0     H27792   1.256   7.082   2.642 -0.3579 -1.1617 -0.6207
  211MOL0     H27793   1.326   6.954   2.478  0.0676 -0.6094  1.1487
  211MOL0     H27794   1.472   6.951   2.567  0.4457 -0.1127  0.2512
  211MOL0     H27795   1.424   7.101   2.302  3.2741  0.8906 -1.1067
  211MOL0     H27796   1.557   7.147   2.420 -0.7843  1.0792  0.8922
  211MOL0     H27797   1.518   6.874   2.289  0.4521  1.0914 -2.3941
  211MOL0     H27798   1.664   6.935   2.374  0.0437 -0.5517  0.6116
  211MOL0     H27799   1.731   6.930   2.155 -1.6641 -0.7337 -0.1212
  211MOL0     H27800   1.723   7.088   2.207 -2.7169  2.7291  1.6723
  211MOL0     H27801   1.502   6.926   2.055 -0.8406  0.3837  0.8659
  211MOL0     H27802   1.487   7.084   2.100 -2.3150 -2.6065  0.1718
  211MOL0     H27803   1.706   7.138   1.923  3.0891 -1.5397  0.2404
  211MOL0     H27804   1.559   7.080   1.848  1.4390  0.9410 -0.8090
  211MOL0     H27805   1.907   6.963   1.937 -0.4738 -2.0703  2.7184
  211MOL0     H27806   1.943   6.635   1.713 -0.1165 -2.0064  0.7326
  211MOL0     H27807   2.014   6.675   1.873 -3.1231 -0.6705  1.7368
  211MOL0     H27808   2.072   6.902   1.758  0.5047 -0.3867  0.9377
  211MOL0     H27809   2.046   6.813   1.604  0.4511 -1.9090 -0.4948
  211MOL0     H27810   2.293   6.835   1.689  0.9593 -0.4628  0.6911
  211MOL0     H27811   2.249   6.751   1.828  1.1756  0.6575  0.2183
  211MOL0     H27812   2.182   6.616   1.560  1.4200 -5.4773 -0.9489
  211MOL0     H27813   2.224   6.542   1.703 -2.0529  0.7911 -0.0635
  211MOL0     H27814   2.255   6.788   1.434  0.1396 -0.2226  0.3817
  211MOL0     H27815   2.317   6.871   1.237  1.4151  1.5090 -0.2172
  211MOL0     H27816   2.413   7.163   0.988  4.1340  1.0312  2.8616
  211MOL0     H27817   2.448   7.283   0.776  1.0572  0.0801 -0.6657
  211MOL0     H27818   2.736   7.117   0.505  0.4288 -1.3138 -0.2938
  211MOL0     H27819   2.695   7.269   0.425  0.2547 -0.1177 -0.1262
  211MOL0     H27820   2.473   7.144   0.363  1.7638  2.0588 -1.0660
  211MOL0     H27821   2.544   6.993   0.418 -3.4704  0.6637  0.6107
  211MOL0     H27822   2.747   7.038   0.238  0.7644 -0.0966 -0.8466
  211MOL0     H27823   2.665   7.184   0.201 -2.0591  0.8316  0.8571
  211MOL0     H27824   2.553   6.907   0.180 -0.2066  1.5991  1.5628
  211MOL0     H27825   2.465   7.055   0.128  0.9122  0.9142  1.0969
  211MOL0     H27826   2.701   6.944  -0.025  1.3129  1.1151  3.5779
  211MOL0     H27827   2.662   7.103  -0.036  4.6714 -0.8421 -0.2863
  211MOL0     H27828   2.582   6.934  -0.205  0.4636 -1.0585  0.3151
  211MOL0     H27829   2.476   7.058  -0.155  0.9481  0.5336  2.3216
  211MOL0     H27830   2.470   6.773  -0.018 -2.5009 -1.8580  1.7438
  211MOL0     H27831   2.364   6.899   0.029 -0.4029 -0.5193 -0.6404
  211MOL0     H27832   2.374   6.779  -0.251  1.0099 -0.8273  0.7799
  211MOL0     H27833   2.263   6.915  -0.201 -0.7180 -0.3013  0.1497
  211MOL0     H27834   2.690   6.956   0.630  1.4413 -1.7257  2.0452
  211MOL0     H27835   2.629   6.826   0.834 -2.2743 -0.6817  0.5116
  211MOL0     H27836   2.715   6.687   1.287  0.8741  1.9635 -1.9857
  211MOL0     H27837   2.644   6.616   1.507  1.4866 -0.1709 -1.6344
  211MOL0     H27838   1.310   7.553   2.766  1.1295  2.2619 -0.7535
  211MOL0     H27839   1.452   7.761   2.847 -1.7501 -0.3013 -0.8877
  211MOL0     H27840   1.834   7.856   3.109  2.2113 -0.5591 -0.3578
  211MOL0     H27841   2.019   7.971   3.202  0.9760 -5.0024 -0.5742
  211MOL0     H27842   2.234   8.024   3.231 -1.1201  0.2426 -0.2550
  211MOL0     H27843   2.134   8.169   3.231  0.1042  1.1084 -0.1734
  211MOL0     H27844   2.443   8.125   3.222  0.0248 -1.5757  0.6242
  211MOL0     H27845   2.378   8.260   3.122 -3.4462  0.6956  0.5629
  211MOL0     H27846   2.270   8.371   3.303  2.4255  1.6035 -0.2134
  211MOL0     H27847   2.428   8.369   3.330 -1.1884  1.4487  1.1310
  211MOL0     H27848   2.240   8.166   3.456  1.5495 -2.8702 -2.7093
  211MOL0     H27849   2.406   8.168   3.486  1.2841  2.1458 -1.9197
  211MOL0     H27850   2.277   8.454   3.757  3.0417  0.9026 -0.7783
  211MOL0     H27851   2.143   8.112   2.819  0.1531 -0.6729  0.7811
  211MOL0     H27852   1.933   7.994   2.709 -1.4933  2.4728 -0.6357
  212MOL0     O27853   7.308   9.667   1.673  0.6723 -0.0755 -0.1678
  212MOL0     C27854   7.280   9.783   1.651  0.6814 -0.4627 -0.4297
  212MOL0     O27855   7.289   9.846   1.532  0.0311 -0.6622  0.2092
  212MOL0     C27856   7.351   9.789   1.430 -0.1744  0.7725 -0.0655
  212MOL0     C27857   7.288   9.806   1.299 -0.0718 -0.2877 -0.3229
  212MOL0     C27858   7.346   9.749   1.188  0.3864  0.0379 -0.8636
  212MOL0     C27859   7.463   9.681   1.194  0.0139 -0.3405  0.0939
  212MOL0     O27860   7.517   9.630   1.070  0.2208  0.1948 -0.4040
  212MOL0     C27861   7.656   9.584   1.061  0.1539 -0.2748  0.0076
  212MOL0     C27862   7.676   9.479   0.939 -0.8688  0.5139  0.7812
  212MOL0     C27863   7.675   9.562   0.804 -0.4602 -0.0013 -0.4797
  212MOL0     C27864   7.748   9.479   0.698 -0.8268  0.4548 -1.5641
  212MOL0     C27865   7.740   9.523   0.559 -0.3092 -1.1427 -0.3103
  212MOL0     C27866   7.803   9.658   0.535 -0.5844  0.5838 -0.8988
  212MOL0     C27867   7.888   9.665   0.405  0.4108  0.6836 -0.6064
  212MOL0     C27868   7.798   9.614   0.284 -0.1688 -1.1064  0.1427
  212MOL0     N27869   7.859   9.650   0.154  0.4563 -0.4081  0.1770
  212MOL0     C27870   7.828   9.766   0.091  0.7486 -0.7031 -0.3826
  212MOL0     C27871   7.872   9.747  -0.033 -0.3038  0.2284  0.5020
  212MOL0     C27872   7.872   9.855  -0.148  0.1475  0.1661  1.0392
  212MOL0     C27873   7.875  10.000  -0.096  0.6604 -0.0224  0.6900
  212MOL0     C27874   8.016  10.025  -0.020 -0.1822 -0.6393 -0.2285
  212MOL0     C27875   8.011  10.146   0.066  0.0853 -0.1034 -0.5177
  212MOL0     O27876   7.924  10.111   0.166  0.4500  0.6547 -0.5288
  212MOL0     C27877   7.915  10.196   0.269 -0.0393 -0.6617 -0.1495
  212MOL0     C27878   7.843  10.151   0.376  0.2606 -0.5408  0.9407
  212MOL0     C27879   7.823  10.232   0.491  1.6471  0.3940  0.9845
  212MOL0     C27880   7.858  10.364   0.489 -0.8331  0.6595  0.3978
  212MOL0     C27881   7.823  10.448   0.600  0.0028  0.2124 -0.5714
  212MOL0     O27882   7.720  10.409   0.690 -0.1642  0.6403 -0.8711
  212MOL0     C27883   7.669  10.501   0.778  0.3017 -0.4803  0.6482
  212MOL0     C27884   7.645  10.470   0.913  0.3759  0.7166 -0.8956
  212MOL0     C27885   7.580  10.551   0.994  0.2190  0.1204 -0.1857
  212MOL0     C27886   7.554  10.682   0.958  0.2752 -0.5739 -0.2036
  212MOL0     O27887   7.484  10.770   1.029  0.0475 -0.0489  0.3728
  212MOL0     C27888   7.512  10.772   1.164 -0.2530  0.7786 -0.3305
  212MOL0     C27889   7.575  10.908   1.197  0.5535  0.3797 -0.2335
  212MOL0     C27890   7.501  11.023   1.131 -1.0290 -0.6937 -0.1088
  212MOL0     C27891   7.581  11.150   1.149  0.6262 -0.3404  0.0372
  212MOL0     C27892   7.480  11.259   1.102 -0.2927 -0.6307  1.1147
  212MOL0     C27893   7.543  11.398   1.117 -0.1068 -0.2513 -0.1509
  212MOL0     C27894   7.444  11.509   1.075  1.1387  0.2329  1.1483
  212MOL0     C27895   7.423  11.515   0.930  0.1865 -0.5014  0.5713
  212MOL0    Cl27896   7.338  11.672   0.871 -0.4146  0.3313 -0.0109
  212MOL0     C27897   7.575  10.713   0.830  1.2960 -0.0262 -0.4716
  212MOL0     C27898   7.631  10.629   0.742 -0.1777 -0.5112  0.4887
  212MOL0     O27899   7.880  10.560   0.599  0.3682 -0.2259 -0.6864
  212MOL0     C27900   7.948  10.408   0.387  0.1189 -0.5200 -0.5695
  212MOL0     C27901   7.974  10.325   0.276  0.6510  0.2913  0.2257
  212MOL0     N27902   7.938   9.632  -0.049 -0.3701 -1.1089  0.4875
  212MOL0     N27903   7.928   9.569   0.067  0.4807 -0.2380  0.3576
  212MOL0     C27904   7.528   9.667   1.320 -0.4106 -0.5973  0.4448
  212MOL0     C27905   7.484   9.735   1.433 -0.1381  0.5930  0.4012
  212MOL0     C27906   7.205   9.868   1.745 -0.4652  1.4374 -0.5684
  212MOL0     C27907   7.174  10.007   1.734  0.7172 -0.4851 -0.2530
  212MOL0     C27908   7.107  10.080   1.836  0.2110  0.0583 -1.0166
  212MOL0     C27909   7.079  10.020   1.957  0.0045 -0.5968 -0.1130
  212MOL0     O27910   7.018  10.098   2.056  0.4961 -0.2096 -0.7228
  212MOL0     C27911   6.946  10.034   2.168 -0.9807 -0.3802  1.1593
  212MOL0     C27912   6.831   9.957   2.111  0.2576  0.9968  0.3005
  212MOL0     C27913   6.712  10.055   2.087  0.1881  0.2341  0.3921
  212MOL0     C27914   6.572   9.977   2.060 -0.4457 -1.0989  0.4900
  212MOL0     C27915   6.527   9.920   2.179  0.2425  0.4275  0.3683
  212MOL0     C27916   6.494   9.870   2.283 -0.5242  0.0238 -0.5736
  212MOL0     C27917   7.112   9.885   1.976  0.4667  0.1288 -0.5661
  212MOL0     C27918   7.166   9.815   1.871  0.6494  1.3629  0.0824
  212MOL0     H27919   7.202   9.872   1.297 -0.5038 -0.8206  0.1365
  212MOL0     H27920   7.297   9.762   1.092 -0.9446 -0.8693 -0.3363
  212MOL0     H27921   7.674   9.515   1.144  3.0067  0.3206 -0.0294
  212MOL0     H27922   7.731   9.663   1.057 -1.0166  0.8204 -2.5588
  212MOL0     H27923   7.585   9.419   0.935  0.0297 -1.0482  2.3497
  212MOL0     H27924   7.766   9.424   0.968 -0.8871  1.6599  3.2723
  212MOL0     H27925   7.727   9.657   0.823 -0.0456 -0.8574  3.5683
  212MOL0     H27926   7.572   9.588   0.778 -0.7610  0.5891  1.1501
  212MOL0     H27927   7.854   9.463   0.720  0.0178 -1.3574 -5.8343
  212MOL0     H27928   7.691   9.386   0.695  2.0746 -1.6170  1.0933
  212MOL0     H27929   7.640   9.529   0.513 -0.1808  0.8452 -0.4293
  212MOL0     H27930   7.795   9.445   0.505  0.3667 -0.2964 -0.8738
  212MOL0     H27931   7.855   9.689   0.626 -0.4184 -2.4525  0.1518
  212MOL0     H27932   7.719   9.726   0.519 -3.0406 -2.4192 -1.7665
  212MOL0     H27933   7.919   9.770   0.401  3.8219 -0.0007  2.6737
  212MOL0     H27934   7.981   9.609   0.423 -1.2178 -1.3601  2.3586
  212MOL0     H27935   7.704   9.670   0.286  1.7497  2.4994  3.2513
  212MOL0     H27936   7.771   9.508   0.288 -1.6023 -0.7678 -0.0933
  212MOL0     H27937   7.770   9.843   0.140  0.7032 -1.6561  1.1010
  212MOL0     H27938   7.777   9.841  -0.201 -0.4721  3.5063  1.0544
  212MOL0     H27939   7.953   9.831  -0.217 -0.7570 -1.2641  0.4041
  212MOL0     H27940   7.791  10.015  -0.026 -0.3996 -0.6742 -0.3984
  212MOL0     H27941   7.869  10.076  -0.173  1.5620 -1.5084 -0.9112
  212MOL0     H27942   8.049   9.936   0.033 -1.6154 -0.0442  1.7758
  212MOL0     H27943   8.089  10.046  -0.098  2.8655 -2.4014  1.9308
  212MOL0     H27944   7.972  10.234   0.013  0.6036  0.5843  0.2201
  212MOL0     H27945   8.115  10.155   0.098  0.4285 -1.3630 -1.1841
  212MOL0     H27946   7.797  10.053   0.374  1.4593 -1.1260 -1.9689
  212MOL0     H27947   7.760  10.191   0.570 -1.2773  1.8379 -0.4325
  212MOL0     H27948   7.653  10.369   0.952 -1.3818  0.9984  0.3024
  212MOL0     H27949   7.548  10.502   1.086 -0.2291 -1.2188 -1.0255
  212MOL0     H27950   7.586  10.698   1.197 -0.7920 -0.2981 -1.4259
  212MOL0     H27951   7.422  10.751   1.223 -0.1909 -2.7148 -1.2040
  212MOL0     H27952   7.681  10.919   1.176 -0.0396  4.7571 -2.0619
  212MOL0     H27953   7.568  10.922   1.306 -1.8669 -0.7171 -0.1746
  212MOL0     H27954   7.399  11.035   1.168 -0.4494  1.1991  1.0039
  212MOL0     H27955   7.504  11.004   1.023  0.4311  1.4675 -0.5285
  212MOL0     H27956   7.604  11.166   1.254  0.9669  1.2167 -0.2498
  212MOL0     H27957   7.669  11.148   1.085  1.0124 -4.3438  0.4359
  212MOL0     H27958   7.388  11.244   1.160 -1.0503 -0.6820 -0.0783
  212MOL0     H27959   7.454  11.228   1.001 -0.4318 -1.1781  1.3175
  212MOL0     H27960   7.623  11.407   1.044 -1.8194 -1.8968 -2.3439
  212MOL0     H27961   7.571  11.416   1.222  1.5126 -0.1152 -0.5907
  212MOL0     H27962   7.347  11.504   1.125 -0.7646  0.3223 -2.2054
  212MOL0     H27963   7.463  11.613   1.103  0.2827  0.7585 -0.1385
  212MOL0     H27964   7.359  11.428   0.912  0.2244 -0.0679 -1.9256
  212MOL0     H27965   7.515  11.502   0.873  1.5957 -1.2543  2.8706
  212MOL0     H27966   7.552  10.815   0.803  0.2866  0.1088  0.8504
  212MOL0     H27967   7.645  10.652   0.637  0.5062 -0.8261  0.5040
  212MOL0     H27968   7.977  10.512   0.375 -0.8259 -0.2014 -0.1924
  212MOL0     H27969   8.023  10.363   0.187 -2.7042  0.6436 -1.6395
  212MOL0     H27970   7.616   9.604   1.327  0.9920  1.0542 -1.0742
  212MOL0     H27971   7.550   9.743   1.519  0.4153  0.7054 -0.0241
  212MOL0     H27972   7.200  10.063   1.644  1.0371 -2.1337 -1.2227
  212MOL0     H27973   7.074  10.183   1.827  0.8790  0.9684  4.0444
  212MOL0     H27974   6.912  10.106   2.243  0.5652 -3.0252  4.7092
  212MOL0     H27975   7.018   9.977   2.227  0.7750  1.2638  0.7179
  212MOL0     H27976   6.849   9.913   2.012 -1.4097 -0.5304  0.6284
  212MOL0     H27977   6.797   9.875   2.174 -0.2104  0.9218 -0.0467
  212MOL0     H27978   6.723  10.130   2.008 -0.5041 -1.8915 -1.8293
  212MOL0     H27979   6.716  10.108   2.183  1.9097  2.1518 -0.6561
  212MOL0     H27980   6.491  10.049   2.043  2.7580  3.0441  1.0499
  212MOL0     H27981   6.582   9.898   1.985 -0.6317 -0.8056  0.1533
  212MOL0     H27982   6.474   9.802   2.363  0.6505 -3.2210 -2.8202
  212MOL0     H27983   7.101   9.822   2.063 -1.9250 -0.0154 -0.9116
  212MOL0     H27984   7.194   9.714   1.897 -2.1006  0.6698  0.7026
  213MOL0     O27985   8.487   5.299   0.852  0.3570  0.4082  0.1405
  213MOL0     C27986   8.572   5.253   0.933  0.5104 -0.3679  1.2066
  213MOL0     O27987   8.545   5.225   1.066  0.5254  0.2536 -0.6744
  213MOL0     C27988   8.420   5.233   1.112  0.4093  0.2986 -0.8903
  213MOL0     C27989   8.375   5.130   1.195  0.9390  0.0183  0.2543
  213MOL0     C27990   8.258   5.140   1.272  0.1380  0.3623  0.0079
  213MOL0     C27991   8.174   5.246   1.261 -0.4471 -1.2163  0.1569
  213MOL0     O27992   8.058   5.266   1.327 -0.3474 -0.1220 -0.4629
  213MOL0     C27993   7.978   5.149   1.351  0.8709  0.4014 -0.5777
  213MOL0     C27994   7.911   5.145   1.486 -0.1949  0.5337 -0.3911
  213MOL0     C27995   7.901   4.996   1.538  0.9220  0.0389 -0.6775
  213MOL0     C27996   8.011   4.951   1.637  0.5851  0.6715  1.1456
  213MOL0     C27997   7.988   4.798   1.659  0.0267  0.1565  1.3704
  213MOL0     C27998   8.068   4.751   1.776 -0.5475 -0.2889 -0.4752
  213MOL0     C27999   7.997   4.645   1.859 -0.7617 -0.1856 -0.1344
  213MOL0     C28000   8.095   4.605   1.972  0.1454 -0.3697 -0.0276
  213MOL0     N28001   8.196   4.509   1.928 -0.3348  0.3594 -0.0592
  213MOL0     C28002   8.162   4.382   1.881 -0.0596  0.6402 -0.5968
  213MOL0     C28003   8.288   4.331   1.858 -0.0381  0.4695 -0.0180
  213MOL0     C28004   8.323   4.189   1.814  0.5893  0.2560  0.3330
  213MOL0     C28005   8.259   4.164   1.675 -0.0182 -0.2314  0.7076
  213MOL0     C28006   8.285   4.017   1.634 -0.5098 -0.2810  0.3126
  213MOL0     C28007   8.205   3.965   1.523  0.6379 -0.6509  0.6209
  213MOL0     O28008   8.207   4.045   1.404  0.5002  0.0088 -0.3393
  213MOL0     C28009   8.134   3.993   1.299  0.1634  0.3488 -0.5644
  213MOL0     C28010   8.196   3.974   1.181  0.3698  0.1930 -0.6802
  213MOL0     C28011   8.135   3.915   1.075 -0.2382 -0.0883 -0.6491
  213MOL0     C28012   7.999   3.871   1.080  0.9158  0.2796 -0.6907
  213MOL0     C28013   7.928   3.793   0.967  0.8300  0.2339 -0.0171
  213MOL0     O28014   8.006   3.732   0.876 -0.0282  0.3427  0.4439
  213MOL0     C28015   7.959   3.695   0.753  0.4440 -0.5827 -0.2127
  213MOL0     C28016   8.021   3.578   0.698  0.7164 -0.1979 -1.0252
  213MOL0     C28017   7.992   3.533   0.563  0.6725  0.4429  0.1661
  213MOL0     C28018   7.890   3.591   0.494 -1.2242  0.6669  0.3788
  213MOL0     O28019   7.848   3.558   0.371  0.0100 -0.3083  0.1189
  213MOL0     C28020   7.917   3.450   0.302 -0.1244  0.3086 -0.2979
  213MOL0     C28021   7.846   3.392   0.187  0.2746  0.5311  0.7370
  213MOL0     C28022   7.791   3.493   0.085  0.3720 -0.0407  0.2596
  213MOL0     C28023   7.670   3.575   0.137  0.5669  0.4403 -0.3318
  213MOL0     C28024   7.594   3.627   0.020  0.6633  0.0787  1.1630
  213MOL0     C28025   7.491   3.736   0.053  0.5975 -0.1051  0.2883
  213MOL0     C28026   7.350   3.706   0.103 -0.4223 -0.3117 -0.6894
  213MOL0     C28027   7.265   3.832   0.084  1.5005 -0.5982  0.3604
  213MOL0    Cl28028   7.097   3.780   0.121  0.0527  0.1563 -0.6974
  213MOL0     C28029   7.826   3.703   0.551 -0.1737 -0.1462 -0.7287
  213MOL0     C28030   7.865   3.760   0.668  0.1821 -0.2764 -0.8688
  213MOL0     O28031   7.808   3.797   0.959 -0.6966  0.5741 -0.1620
  213MOL0     C28032   7.934   3.890   1.205  0.8380 -0.5873  0.0310
  213MOL0     C28033   8.003   3.958   1.313  0.0930 -0.5811  0.2438
  213MOL0     N28034   8.388   4.422   1.902 -0.0743 -0.2193 -0.2240
  213MOL0     N28035   8.333   4.526   1.946  0.1873  0.9842 -0.3596
  213MOL0     C28036   8.217   5.352   1.174 -0.0497  0.0877  0.1001
  213MOL0     C28037   8.340   5.343   1.109 -0.7577  0.0031 -0.2844
  213MOL0     C28038   8.716   5.255   0.901 -0.5533 -0.2692  0.1790
  213MOL0     C28039   8.820   5.198   0.985  0.3477 -0.6493  0.8617
  213MOL0     C28040   8.948   5.198   0.938 -0.3644 -0.2046  0.0087
  213MOL0     C28041   8.980   5.246   0.810 -0.6448 -0.0090  0.2458
  213MOL0     O28042   9.087   5.203   0.738  0.3811 -0.2521 -0.1633
  213MOL0     C28043   9.202   5.153   0.795  0.3334 -0.4801 -1.0417
  213MOL0     C28044   9.294   5.251   0.870 -0.3242 -0.3581  0.3657
  213MOL0     C28045   9.263   5.304   1.020  0.0327  0.0244 -0.5315
  213MOL0     C28046   9.253   5.198   1.130  0.2226 -0.2367 -0.2169
  213MOL0     C28047   9.157   5.251   1.235 -0.7754  0.3966 -0.4558
  213MOL0     C28048   9.073   5.291   1.321  0.3045 -0.2287  0.4398
  213MOL0     C28049   8.882   5.312   0.738  0.4830  1.1207 -0.3291
  213MOL0     C28050   8.753   5.310   0.779 -0.7418  0.7197  0.2928
  213MOL0     H28051   8.449   5.051   1.206  2.4190  1.6948  3.5968
  213MOL0     H28052   8.239   5.060   1.343 -0.9708 -0.4156 -1.1277
  213MOL0     H28053   8.032   5.054   1.340 -0.2175 -0.3664  0.4766
  213MOL0     H28054   7.895   5.142   1.281 -0.3991 -4.2677  0.9996
  213MOL0     H28055   7.810   5.185   1.475 -0.4807  0.2648  1.0669
  213MOL0     H28056   7.953   5.206   1.566  1.0858  1.4292 -1.6892
  213MOL0     H28057   7.887   4.921   1.460 -2.2305  0.7302 -0.8922
  213MOL0     H28058   7.803   4.995   1.585  2.4596  0.1702  2.8986
  213MOL0     H28059   8.104   4.970   1.582  0.9766 -2.6241  0.4666
  213MOL0     H28060   8.003   5.006   1.731  0.5768  0.6934  1.1320
  213MOL0     H28061   8.026   4.755   1.566  3.1730 -0.0760  2.6306
  213MOL0     H28062   7.879   4.790   1.659  0.1086 -1.2456  2.0597
  213MOL0     H28063   8.092   4.835   1.841  1.8039 -1.3800  0.1906
  213MOL0     H28064   8.161   4.712   1.732 -0.5309  1.7096 -2.3503
  213MOL0     H28065   7.908   4.698   1.895 -2.1162 -0.1743 -3.2280
  213MOL0     H28066   7.970   4.566   1.788  0.6227 -0.7032 -0.1207
  213MOL0     H28067   8.033   4.577   2.058  1.1496 -2.6276  0.0238
  213MOL0     H28068   8.140   4.700   1.999 -2.7635  1.8544 -2.2380
  213MOL0     H28069   8.070   4.325   1.874 -1.0595  2.1760 -0.3864
  213MOL0     H28070   8.282   4.115   1.883 -2.0523 -2.5695 -3.7617
  213MOL0     H28071   8.430   4.172   1.823  0.4960 -1.3762 -1.0698
  213MOL0     H28072   8.282   4.240   1.600 -0.6541  0.1942  0.9293
  213MOL0     H28073   8.150   4.170   1.680 -0.0550 -1.4206  3.2148
  213MOL0     H28074   8.390   4.012   1.604 -0.5071  1.6824 -0.1874
  213MOL0     H28075   8.267   3.951   1.719 -0.4189  2.8825  2.9663
  213MOL0     H28076   8.102   3.961   1.557 -0.3706 -0.8296 -2.1506
  213MOL0     H28077   8.240   3.865   1.494  3.5773  0.4496 -0.0326
  213MOL0     H28078   8.296   4.011   1.164  0.7809  0.7872  2.5093
  213MOL0     H28079   8.210   3.888   1.002  0.8692 -2.6555  1.2676
  213MOL0     H28080   8.112   3.546   0.747 -0.0806  0.0420  0.6504
  213MOL0     H28081   8.053   3.452   0.523 -2.1753 -0.6863 -2.3090
  213MOL0     H28082   7.944   3.374   0.375 -0.4827  3.1291  3.0729
  213MOL0     H28083   8.011   3.484   0.257  0.6788  0.6084  1.4924
  213MOL0     H28084   7.758   3.339   0.226  0.2512  0.6134  0.7977
  213MOL0     H28085   7.906   3.322   0.129  0.5655  2.3713 -1.3207
  213MOL0     H28086   7.748   3.432   0.005 -1.5291  1.5436 -0.0201
  213MOL0     H28087   7.868   3.557   0.041  0.0562  1.3582  1.6322
  213MOL0     H28088   7.615   3.508   0.203  1.7810 -1.0142 -0.7374
  213MOL0     H28089   7.703   3.659   0.199  0.9930  0.7319 -0.9381
  213MOL0     H28090   7.543   3.549  -0.039 -2.1151 -0.3047  3.8271
  213MOL0     H28091   7.673   3.684  -0.028  2.7271  0.6489  4.9020
  213MOL0     H28092   7.472   3.801  -0.033 -0.8298 -1.3944 -0.4178
  213MOL0     H28093   7.539   3.806   0.122  2.4329 -1.7907  0.8098
  213MOL0     H28094   7.310   3.624   0.042 -1.9953 -0.3060  0.2813
  213MOL0     H28095   7.348   3.682   0.209 -1.1961 -0.2166 -0.6749
  213MOL0     H28096   7.272   3.860  -0.022  1.5603 -1.9749 -0.0196
  213MOL0     H28097   7.289   3.919   0.144  0.6250 -0.5240  0.6141
  213MOL0     H28098   7.762   3.761   0.485 -1.5452 -0.7658 -0.0004
  213MOL0     H28099   7.830   3.859   0.696  0.0531 -0.8388  1.1132
  213MOL0     H28100   7.830   3.859   1.209  0.4280  0.7566  0.3575
  213MOL0     H28101   7.951   3.953   1.408  0.1800  0.1751  0.3380
  213MOL0     H28102   8.157   5.442   1.183  0.0572  0.2603 -0.7610
  213MOL0     H28103   8.379   5.424   1.047  1.2675  0.7573  1.8013
  213MOL0     H28104   8.800   5.151   1.081 -2.0049 -2.6477 -0.4953
  213MOL0     H28105   9.031   5.157   0.994  0.4957  0.5849 -0.6751
  213MOL0     H28106   9.250   5.109   0.707  1.1011  1.8589 -1.8639
  213MOL0     H28107   9.185   5.068   0.862 -2.2807 -0.1533 -1.1856
  213MOL0     H28108   9.395   5.207   0.869 -0.5039 -1.1088  3.6295
  213MOL0     H28109   9.310   5.331   0.798 -2.1636  1.6750  2.0681
  213MOL0     H28110   9.163   5.349   1.017 -0.4373 -0.7675  1.4717
  213MOL0     H28111   9.326   5.387   1.051 -1.8919  1.9744 -1.5967
  213MOL0     H28112   9.222   5.106   1.080 -2.1851  1.2931 -1.7833
  213MOL0     H28113   9.352   5.202   1.176 -0.3518  1.9108  1.0000
  213MOL0     H28114   9.017   5.325   1.405 -1.6854  0.5579 -1.1091
  213MOL0     H28115   8.884   5.361   0.641  0.3573  2.9561  0.5518
  213MOL0     H28116   8.670   5.351   0.722 -2.1610  3.1073  3.7571
  214MOL0     O28117   1.851   9.447   3.794 -0.7424  0.5804 -0.0776
  214MOL0     C28118   1.771   9.424   3.702  0.7496 -1.0030 -0.6083
  214MOL0     O28119   1.656   9.496   3.676  0.0949  0.6011 -0.2523
  214MOL0     C28120   1.601   9.575   3.775  0.2771  0.1110  0.2675
  214MOL0     C28121   1.597   9.549   3.906 -1.1448 -0.0973 -0.1456
  214MOL0     C28122   1.528   9.639   3.993  0.6095 -0.5951  0.4612
  214MOL0     C28123   1.459   9.755   3.932  0.2161  0.4643 -0.8038
  214MOL0     O28124   1.397   9.853   4.009  0.1797  0.2259 -0.3230
  214MOL0     C28125   1.420   9.863   4.152  0.0799 -0.3517  0.1427
  214MOL0     C28126   1.372   9.991   4.211  1.1430  0.3422 -0.7524
  214MOL0     C28127   1.469  10.105   4.161 -0.4598 -0.3754  0.3313
  214MOL0     C28128   1.495  10.227   4.254  0.3587 -0.6076  0.3908
  214MOL0     C28129   1.374  10.313   4.260  0.9493  0.3021 -0.2376
  214MOL0     C28130   1.351  10.372   4.397 -0.6292 -0.1751  0.4623
  214MOL0     C28131   1.277  10.268   4.492 -0.3795  0.4508  0.6669
  214MOL0     C28132   1.300  10.307   4.644  0.1482 -0.3021  0.9939
  214MOL0     N28133   1.250  10.203   4.742 -0.0265  1.0205 -0.3148
  214MOL0     C28134   1.279  10.198   4.876  0.9197  0.1588  0.9769
  214MOL0     C28135   1.203  10.099   4.924  0.0800  0.4298 -0.5461
  214MOL0     C28136   1.175  10.069   5.072  1.3401  0.5028  0.2464
  214MOL0     C28137   1.205   9.923   5.105  0.2778 -0.1081 -0.5826
  214MOL0     C28138   1.262   9.902   5.248 -1.3536 -0.9492 -0.9509
  214MOL0     C28139   1.135   9.908   5.332 -0.2848 -0.7868  0.5166
  214MOL0     O28140   1.159   9.855   5.464  1.1669  0.4376  0.1675
  214MOL0     C28141   1.131   9.727   5.496  0.8820  0.4032  1.0098
  214MOL0     C28142   1.148   9.673   5.628 -0.3512  0.9052  0.3292
  214MOL0     C28143   1.117   9.537   5.650 -0.0907  0.0858 -0.4410
  214MOL0     C28144   1.064   9.448   5.553 -0.5320  0.3592 -1.1944
  214MOL0     C28145   1.035   9.308   5.578 -0.5133 -0.6791  0.2569
  214MOL0     O28146   1.025   9.223   5.475 -0.1067  0.1849  1.0502
  214MOL0     C28147   0.966   9.103   5.475  0.1033  0.4543 -0.0547
  214MOL0     C28148   1.016   9.015   5.377 -0.3732  0.2396 -0.9464
  214MOL0     C28149   0.956   8.893   5.360  0.0139 -0.4990  0.4679
  214MOL0     C28150   0.839   8.863   5.432  0.3766 -1.4423  1.0437
  214MOL0     O28151   0.785   8.741   5.403 -0.2547  0.1425 -0.2849
  214MOL0     C28152   0.645   8.721   5.422 -0.4579  0.3243 -0.9945
  214MOL0     C28153   0.587   8.626   5.320  0.7141  0.3642  0.0996
  214MOL0     C28154   0.618   8.653   5.177  0.5822 -0.2132  0.7760
  214MOL0     C28155   0.573   8.551   5.073  0.5104 -0.0792 -0.0570
  214MOL0     C28156   0.583   8.597   4.918  0.0031 -0.6593 -0.2848
  214MOL0     C28157   0.469   8.675   4.873 -0.4539 -0.3063 -0.3434
  214MOL0     C28158   0.479   8.716   4.727  0.0997  0.0671  0.3789
  214MOL0     C28159   0.363   8.787   4.669  0.4189  0.1859  0.0928
  214MOL0    Cl28160   0.257   8.658   4.599  0.3068 -0.3774  0.2961
  214MOL0     C28161   0.782   8.956   5.513  1.0181  0.0896  0.2248
  214MOL0     C28162   0.858   9.068   5.545  1.0717  0.2510  0.3542
  214MOL0     O28163   1.003   9.275   5.697  0.2190  0.2262  0.6633
  214MOL0     C28164   1.044   9.500   5.430 -0.5200 -1.3876  0.6703
  214MOL0     C28165   1.082   9.635   5.402  0.5059  0.0015  0.5577
  214MOL0     N28166   1.145  10.027   4.821 -0.1882 -1.1254 -1.0128
  214MOL0     N28167   1.173  10.098   4.708  0.2131  0.1645  0.0952
  214MOL0     C28168   1.462   9.772   3.797 -0.0018  0.1490  0.5199
  214MOL0     C28169   1.529   9.683   3.724 -1.2574 -0.1055 -0.0768
  214MOL0     C28170   1.798   9.312   3.609  0.0806 -0.3949 -0.4627
  214MOL0     C28171   1.930   9.274   3.577  0.3361  0.5067  0.5226
  214MOL0     C28172   1.960   9.175   3.494  1.3848  0.8368  0.4950
  214MOL0     C28173   1.856   9.109   3.426  0.1544 -0.8992 -0.3996
  214MOL0     O28174   1.884   9.010   3.339  0.8017 -0.5398 -0.1111
  214MOL0     C28175   1.863   8.879   3.396  0.0199  0.1035 -0.4099
  214MOL0     C28176   1.908   8.764   3.302  1.3596 -1.3658 -0.2892
  214MOL0     C28177   1.809   8.723   3.193 -0.5815  0.3913  0.0099
  214MOL0     C28178   1.761   8.840   3.107  1.1263 -0.3903  0.9294
  214MOL0     C28179   1.694   8.788   2.984 -0.4354  0.3713 -0.2847
  214MOL0     C28180   1.633   8.738   2.892 -0.2848 -1.1196 -0.7339
  214MOL0     C28181   1.729   9.143   3.461 -0.4132  0.2578  0.5187
  214MOL0     C28182   1.694   9.239   3.558  0.0858 -0.5724  0.0918
  214MOL0     H28183   1.656   9.468   3.948  0.4452  0.5992 -0.9777
  214MOL0     H28184   1.519   9.620   4.099 -0.1400 -0.9259  0.3454
  214MOL0     H28185   1.520   9.849   4.194  0.3472 -0.3038 -0.4588
  214MOL0     H28186   1.355   9.786   4.195 -0.2895  0.8873  1.8957
  214MOL0     H28187   1.380   9.983   4.319  1.6553  0.2408 -0.7967
  214MOL0     H28188   1.265  10.007   4.191  0.9648 -1.4918 -1.5028
  214MOL0     H28189   1.452  10.146   4.061 -0.8224  0.9729  0.9231
  214MOL0     H28190   1.570  10.066   4.145 -0.8374 -1.4663  0.5134
  214MOL0     H28191   1.521  10.189   4.353  0.6860  2.6681  1.6806
  214MOL0     H28192   1.586  10.278   4.220  1.5222 -0.0498  3.9600
  214MOL0     H28193   1.285  10.258   4.227  1.5759 -1.2504  0.5332
  214MOL0     H28194   1.370  10.401   4.195  0.3737  0.8361  0.4944
  214MOL0     H28195   1.277  10.448   4.371  2.7801  3.1546 -0.4577
  214MOL0     H28196   1.423  10.435   4.450 -2.3859 -0.0436  2.8530
  214MOL0     H28197   1.171  10.254   4.472 -0.3219 -1.4071  1.4569
  214MOL0     H28198   1.316  10.167   4.475 -0.1865  0.6491 -0.1047
  214MOL0     H28199   1.268  10.405   4.682  2.9495  1.0989  0.0793
  214MOL0     H28200   1.407  10.318   4.665 -0.3404  3.4655  2.3524
  214MOL0     H28201   1.324  10.284   4.924 -0.5932  2.0809 -0.8705
  214MOL0     H28202   1.072  10.089   5.104  1.4034 -0.4175  1.0740
  214MOL0     H28203   1.244  10.127   5.134  2.0260 -2.0668  2.0945
  214MOL0     H28204   1.273   9.876   5.034 -0.6329 -1.0429 -0.8677
  214MOL0     H28205   1.118   9.857   5.102  0.7087 -0.6662 -0.9928
  214MOL0     H28206   1.298   9.802   5.273  1.4084 -0.8190 -3.8107
  214MOL0     H28207   1.343   9.973   5.272 -2.0590  0.2766 -2.0770
  214MOL0     H28208   1.041   9.871   5.290  0.2457 -1.3206 -0.2298
  214MOL0     H28209   1.105  10.014   5.338 -1.1286 -1.0206  0.6448
  214MOL0     H28210   1.171   9.732   5.716 -2.0789 -1.4923  2.5372
  214MOL0     H28211   1.134   9.519   5.755  0.0492 -0.5492 -0.5691
  214MOL0     H28212   1.103   9.033   5.314  1.6994 -2.4339  0.9164
  214MOL0     H28213   0.991   8.831   5.279  4.3401  0.9882  0.9407
  214MOL0     H28214   0.599   8.820   5.411  0.9383  1.1340  0.1674
  214MOL0     H28215   0.629   8.685   5.524 -0.3264  3.5261  0.2630
  214MOL0     H28216   0.478   8.636   5.326  0.6981  0.1495  0.2003
  214MOL0     H28217   0.601   8.522   5.350  1.1038  0.7151  1.2014
  214MOL0     H28218   0.726   8.672   5.170  0.4256  1.8835  2.7769
  214MOL0     H28219   0.559   8.740   5.147 -1.8628 -1.5083  1.5417
  214MOL0     H28220   0.644   8.470   5.094 -0.7063 -1.1308  0.1088
  214MOL0     H28221   0.471   8.517   5.093 -0.7326  2.4259 -1.6704
  214MOL0     H28222   0.582   8.504   4.861  1.1185 -0.1551 -1.1614
  214MOL0     H28223   0.678   8.649   4.903  1.3151 -1.8968  2.9124
  214MOL0     H28224   0.475   8.763   4.938  0.6937  0.3843 -1.3425
  214MOL0     H28225   0.381   8.612   4.887  1.8169 -3.8200 -0.4556
  214MOL0     H28226   0.567   8.780   4.721 -0.0235  0.3203  1.2975
  214MOL0     H28227   0.503   8.622   4.675 -0.0113 -1.5791  3.0862
  214MOL0     H28228   0.409   8.858   4.599 -0.5631  0.8650  0.1059
  214MOL0     H28229   0.309   8.849   4.742 -2.1650 -2.5443  0.6779
  214MOL0     H28230   0.689   8.955   5.568  2.2206  0.7316  2.3700
  214MOL0     H28231   0.810   9.140   5.611 -1.7372  0.9818 -2.2535
  214MOL0     H28232   1.010   9.441   5.345  3.2860 -1.1699 -1.2217
  214MOL0     H28233   1.061   9.663   5.299  1.6605 -1.2909 -0.0628
  214MOL0     H28234   1.434   9.868   3.754  2.1491  0.3108 -0.6538
  214MOL0     H28235   1.554   9.708   3.622  0.4927 -0.6997  0.1730
  214MOL0     H28236   2.013   9.333   3.615  0.4607  2.1181 -1.9980
  214MOL0     H28237   2.065   9.162   3.472  1.2729 -1.9810  1.2628
  214MOL0     H28238   1.759   8.859   3.423 -1.0525  0.1830 -3.9882
  214MOL0     H28239   1.926   8.865   3.484 -0.6980 -2.3116 -0.2288
  214MOL0     H28240   1.998   8.797   3.250  1.3380 -1.4229 -0.3635
  214MOL0     H28241   1.929   8.681   3.371  2.5012 -0.2894  0.6948
  214MOL0     H28242   1.718   8.680   3.236 -1.1947  1.7436  0.1001
  214MOL0     H28243   1.849   8.648   3.124 -0.4398  2.3123 -2.0960
  214MOL0     H28244   1.687   8.907   3.151 -1.5620  0.0209 -3.6409
  214MOL0     H28245   1.848   8.894   3.068  1.0148  0.6756  2.0841
  214MOL0     H28246   1.574   8.697   2.813  0.3441 -0.4730 -1.5705
  214MOL0     H28247   1.649   9.091   3.409 -0.4819  0.8124  0.0561
  214MOL0     H28248   1.604   9.270   3.609  2.4735  1.0575  3.7474
  215MOL0     O28249   1.998   2.189   3.641  0.1626  0.3350  0.3034
  215MOL0     C28250   1.964   2.229   3.528 -0.1180  1.0549 -0.6437
  215MOL0     O28251   2.020   2.328   3.455 -0.3020  0.1730  0.0642
  215MOL0     C28252   2.122   2.401   3.509  0.2590  0.0331  0.6206
  215MOL0     C28253   2.140   2.522   3.447  0.3901  0.4062  0.1830
  215MOL0     C28254   2.236   2.610   3.478 -0.2007  0.0270 -0.7060
  215MOL0     C28255   2.331   2.580   3.576 -0.3344 -0.0689 -0.6461
  215MOL0     O28256   2.446   2.659   3.585 -0.0595  0.4384 -0.3864
  215MOL0     C28257   2.536   2.621   3.689 -0.5970  0.1531 -1.1897
  215MOL0     C28258   2.651   2.708   3.672 -0.1762 -0.4595 -0.3988
  215MOL0     C28259   2.764   2.662   3.772  0.1531 -0.7036 -0.8552
  215MOL0     C28260   2.902   2.727   3.760  0.1585 -0.0242  0.1247
  215MOL0     C28261   2.896   2.879   3.805 -0.8200 -0.3407  0.3286
  215MOL0     C28262   3.027   2.941   3.747  0.0519 -1.5913 -0.1588
  215MOL0     C28263   3.027   2.986   3.601  0.1950 -0.1906  0.0199
  215MOL0     C28264   3.159   3.048   3.555 -0.3017  0.2805 -0.6227
  215MOL0     N28265   3.186   3.152   3.649 -0.4538  0.0257  1.2363
  215MOL0     C28266   3.290   3.149   3.734 -0.9823 -0.6271 -0.3467
  215MOL0     C28267   3.290   3.275   3.792  0.0231 -0.1661  0.1476
  215MOL0     C28268   3.384   3.328   3.885  0.0325  0.0410 -0.6144
  215MOL0     C28269   3.410   3.230   4.001  0.2639 -0.4869 -0.0274
  215MOL0     C28270   3.480   3.306   4.116  0.0925  0.4992  0.7605
  215MOL0     C28271   3.387   3.359   4.211 -0.5457 -0.9418 -0.4088
  215MOL0     O28272   3.354   3.258   4.303 -0.0468 -0.2810 -0.2177
  215MOL0     C28273   3.287   3.295   4.424 -0.4882 -0.0595  0.4988
  215MOL0     C28274   3.235   3.417   4.466  0.0464  0.3511  0.2105
  215MOL0     C28275   3.163   3.431   4.582 -0.3735 -0.6315  0.2990
  215MOL0     C28276   3.135   3.323   4.667  0.3165 -0.1762  0.5294
  215MOL0     C28277   3.065   3.355   4.800 -0.5390  0.9761  0.1899
  215MOL0     O28278   3.026   3.486   4.829  0.0478 -0.3225 -0.4303
  215MOL0     C28279   2.965   3.528   4.946  1.3101  0.7649 -0.6140
  215MOL0     C28280   2.993   3.655   4.996  0.1039 -0.5052 -0.1282
  215MOL0     C28281   2.927   3.705   5.112 -0.4371 -0.1248 -0.1799
  215MOL0     C28282   2.836   3.628   5.191 -0.3469  0.0111  0.5509
  215MOL0     O28283   2.781   3.653   5.309  0.5756 -0.3753  0.1389
  215MOL0     C28284   2.751   3.799   5.339  0.1428 -0.5920 -1.0531
  215MOL0     C28285   2.634   3.815   5.442  0.1234 -0.7119  0.3762
  215MOL0     C28286   2.624   3.971   5.469  0.3527  0.1611  0.2646
  215MOL0     C28287   2.508   4.020   5.555  0.0324  0.3205  0.4473
  215MOL0     C28288   2.557   4.068   5.687 -0.4905  0.1403 -0.0888
  215MOL0     C28289   2.589   3.952   5.776 -1.1623  0.1589  0.5000
  215MOL0     C28290   2.569   3.992   5.928 -0.0082  0.5252  0.0655
  215MOL0     C28291   2.539   3.868   6.003 -0.4306 -0.7361 -0.1002
  215MOL0    Cl28292   2.565   3.900   6.188  0.2632  0.2675 -0.0012
  215MOL0     C28293   2.806   3.506   5.130  0.7667 -0.5641 -0.4463
  215MOL0     C28294   2.868   3.458   5.019 -1.2172 -0.1900  0.6692
  215MOL0     O28295   3.069   3.264   4.880  0.6836 -0.3741  0.1500
  215MOL0     C28296   3.190   3.196   4.630 -0.1961 -0.7163  0.8728
  215MOL0     C28297   3.271   3.185   4.509  0.2287  0.1485  0.4653
  215MOL0     N28298   3.195   3.348   3.732  1.1244 -0.2161 -1.3157
  215MOL0     N28299   3.127   3.276   3.651  0.0410 -0.0387  0.3993
  215MOL0     C28300   2.304   2.466   3.660  0.1846  0.6577 -0.5870
  215MOL0     C28301   2.200   2.377   3.623  0.2955  0.1425  0.0206
  215MOL0     C28302   1.859   2.138   3.480  1.0146 -0.3934  0.2255
  215MOL0     C28303   1.764   2.203   3.397 -0.7495 -0.2924  0.3402
  215MOL0     C28304   1.661   2.133   3.338 -0.4829  0.3298  0.2324
  215MOL0     C28305   1.648   1.998   3.363  0.1931 -0.2272 -0.2173
  215MOL0     O28306   1.549   1.926   3.300  0.1803 -0.1874  0.1386
  215MOL0     C28307   1.469   1.979   3.192 -0.7781 -0.8195 -0.0300
  215MOL0     C28308   1.366   2.076   3.251  0.8135 -0.3375 -0.8049
  215MOL0     C28309   1.341   2.206   3.172 -0.1857  0.8584 -0.3518
  215MOL0     C28310   1.249   2.300   3.245  1.5913  0.3885 -0.3317
  215MOL0     C28311   1.225   2.426   3.171  0.0060 -0.3213  0.2479
  215MOL0     C28312   1.198   2.518   3.096  0.3680 -0.2645 -0.9067
  215MOL0     C28313   1.739   1.928   3.459  0.3835 -0.9686 -0.3521
  215MOL0     C28314   1.850   2.001   3.513  0.4193 -0.7739  0.2141
  215MOL0     H28315   2.079   2.534   3.358  1.7001 -3.3607 -1.4163
  215MOL0     H28316   2.255   2.696   3.414  1.3383  1.1040  1.1161
  215MOL0     H28317   2.571   2.518   3.697 -1.6781 -0.0890  4.5898
  215MOL0     H28318   2.487   2.639   3.785  0.8071  2.1448 -0.7829
  215MOL0     H28319   2.623   2.811   3.696 -0.0291 -0.7825  1.2529
  215MOL0     H28320   2.686   2.705   3.568 -1.0564 -0.9038 -0.6889
  215MOL0     H28321   2.783   2.556   3.750 -0.0107 -0.5986 -1.5241
  215MOL0     H28322   2.731   2.683   3.874 -1.0029  0.4357 -1.4420
  215MOL0     H28323   2.967   2.670   3.827 -0.8633 -0.8428  0.4598
  215MOL0     H28324   2.933   2.720   3.656 -4.2312 -1.1648 -1.3115
  215MOL0     H28325   2.899   2.891   3.913  2.2176 -2.5756  0.6345
  215MOL0     H28326   2.815   2.940   3.764  1.3540  1.5158 -1.5249
  215MOL0     H28327   3.113   2.892   3.792 -0.6213 -0.0885  3.0571
  215MOL0     H28328   3.022   3.033   3.807  1.8342 -1.5265 -0.0807
  215MOL0     H28329   3.018   2.902   3.532 -0.7552  1.3278 -1.7783
  215MOL0     H28330   2.943   3.053   3.580  1.4549  0.4932 -3.5264
  215MOL0     H28331   3.129   3.105   3.467 -0.5680 -1.4078 -1.6646
  215MOL0     H28332   3.240   2.976   3.541 -1.4079 -1.3702  0.9230
  215MOL0     H28333   3.349   3.061   3.756  1.6314  1.5086  2.0139
  215MOL0     H28334   3.337   3.417   3.927 -0.0169 -0.2888  0.0547
  215MOL0     H28335   3.475   3.346   3.827  0.2279  1.2571  0.0487
  215MOL0     H28336   3.468   3.143   3.967 -2.3070 -2.3222 -0.0320
  215MOL0     H28337   3.314   3.198   4.042  0.1598  0.4092  0.4363
  215MOL0     H28338   3.540   3.239   4.177  2.1913 -0.2791 -1.9489
  215MOL0     H28339   3.549   3.383   4.080  0.3224  0.2215  0.6072
  215MOL0     H28340   3.299   3.414   4.174  0.9148  2.9479  1.3380
  215MOL0     H28341   3.449   3.432   4.264 -4.2213  0.6600  2.1538
  215MOL0     H28342   3.251   3.496   4.393 -0.0499  0.3370  0.1754
  215MOL0     H28343   3.118   3.527   4.605 -1.5026 -1.6235  2.5311
  215MOL0     H28344   3.085   3.693   4.953  0.4028  0.8377  1.6139
  215MOL0     H28345   2.963   3.799   5.152 -0.2777 -1.5523  3.3966
  215MOL0     H28346   2.707   3.840   5.248  0.7807 -0.8836 -1.4976
  215MOL0     H28347   2.834   3.853   5.384 -0.1824 -1.8061  1.1858
  215MOL0     H28348   2.666   3.761   5.531  1.0081  1.1265  1.2354
  215MOL0     H28349   2.542   3.768   5.408  0.6219 -0.8647 -0.8288
  215MOL0     H28350   2.620   4.025   5.374 -1.2411  0.1536  0.2950
  215MOL0     H28351   2.715   3.998   5.524  0.3967  0.0402  0.2516
  215MOL0     H28352   2.454   4.101   5.505  0.1366  2.2860  3.2486
  215MOL0     H28353   2.441   3.937   5.577  0.7665  0.1896  2.3560
  215MOL0     H28354   2.468   4.114   5.732 -0.6206 -0.7283  0.5724
  215MOL0     H28355   2.631   4.147   5.674 -1.9999  1.8265  1.0525
  215MOL0     H28356   2.697   3.934   5.777 -1.0611  0.6002  2.5331
  215MOL0     H28357   2.532   3.862   5.751 -1.2522  0.9998 -2.9142
  215MOL0     H28358   2.653   4.041   5.979  0.9289 -1.9445  1.0807
  215MOL0     H28359   2.479   4.053   5.934  1.2723  2.6045 -0.9209
  215MOL0     H28360   2.598   3.778   5.982 -0.0301 -0.6667  0.6621
  215MOL0     H28361   2.433   3.846   5.988 -1.2762  1.9820  1.2400
  215MOL0     H28362   2.746   3.425   5.171 -0.6369  0.5178 -0.2766
  215MOL0     H28363   2.841   3.361   4.978  2.7943 -0.9658 -0.5838
  215MOL0     H28364   3.174   3.105   4.687  0.3210 -1.6400 -0.3850
  215MOL0     H28365   3.322   3.094   4.479 -0.2861  0.7027 -2.4072
  215MOL0     H28366   2.357   2.438   3.750 -0.9730  0.5700  0.0808
  215MOL0     H28367   2.197   2.289   3.685 -0.1718  0.3736  0.3319
  215MOL0     H28368   1.793   2.302   3.362  0.4772 -1.1998 -1.3442
  215MOL0     H28369   1.600   2.189   3.268  0.1044  0.3611 -0.2647
  215MOL0     H28370   1.418   1.898   3.140 -1.1687  0.9865 -2.6568
  215MOL0     H28371   1.538   2.027   3.122  0.2129 -1.5376  0.4324
  215MOL0     H28372   1.275   2.015   3.243  0.3113  0.4083 -0.8360
  215MOL0     H28373   1.393   2.092   3.355 -2.1530  0.6060 -0.1108
  215MOL0     H28374   1.302   2.178   3.074 -2.4512  2.8998 -0.1418
  215MOL0     H28375   1.433   2.263   3.157 -1.0722  1.4707 -4.5307
  215MOL0     H28376   1.151   2.256   3.270  1.3966  2.3110  2.7440
  215MOL0     H28377   1.292   2.327   3.341  2.0044 -1.6397  0.1095
  215MOL0     H28378   1.177   2.598   3.028 -2.4636 -1.4717 -1.6250
  215MOL0     H28379   1.737   1.822   3.481  2.6772 -1.1060 -0.5836
  215MOL0     H28380   1.913   1.960   3.591  1.2074 -1.8364 -0.9384
  216MOL0     O28381   0.008   3.688   9.798  0.9715 -1.9906  1.3079
  216MOL0     C28382  -0.028   3.615   9.886 -0.6319 -0.0103  0.2203
  216MOL0     O28383  -0.088   3.488   9.866 -0.1137  0.5317 -0.2675
  216MOL0     C28384  -0.113   3.430   9.747 -0.5247 -0.2087 -0.3695
  216MOL0     C28385  -0.010   3.367   9.679  0.1284  0.5462  1.1621
  216MOL0     C28386  -0.044   3.318   9.551  0.0281 -0.0070 -0.6868
  216MOL0     C28387  -0.168   3.332   9.498 -0.4178 -0.3060 -0.3352
  216MOL0     O28388  -0.212   3.256   9.391 -0.2291 -0.0319  0.0754
  216MOL0     C28389  -0.133   3.162   9.338 -0.1701 -0.0977 -0.6170
  216MOL0     C28390  -0.199   3.092   9.220 -0.1561 -0.8618 -0.9062
  216MOL0     C28391  -0.101   3.013   9.129 -0.6932 -0.3126 -0.4379
  216MOL0     C28392  -0.050   2.883   9.192 -0.5780 -0.2615  0.2803
  216MOL0     C28393   0.032   2.791   9.099 -0.8302 -0.6312 -0.1387
  216MOL0     C28394  -0.034   2.748   8.968 -1.0905  0.0207 -0.6937
  216MOL0     C28395  -0.176   2.692   8.985 -0.0234  0.4114 -0.2405
  216MOL0     C28396  -0.170   2.562   9.063  1.1605 -0.5388  0.4686
  216MOL0     N28397  -0.304   2.521   9.095  0.0867  0.5846 -0.2970
  216MOL0     C28398  -0.384   2.448   9.010  1.0218  0.4937 -0.6057
  216MOL0     C28399  -0.497   2.443   9.075  0.9683 -0.3785  0.7349
  216MOL0     C28400  -0.622   2.386   9.018  0.0905  0.4931  0.8682
  216MOL0     C28401  -0.659   2.462   8.896 -0.8838  0.2209 -0.2721
  216MOL0     C28402  -0.712   2.611   8.915  0.3317 -0.4085 -0.1309
  216MOL0     C28403  -0.819   2.648   8.810 -0.2719 -0.3969  0.7447
  216MOL0     O28404  -0.761   2.658   8.675 -0.4928  0.0369  0.6764
  216MOL0     C28405  -0.778   2.784   8.625 -0.8232  0.3358 -0.4156
  216MOL0     C28406  -0.722   2.895   8.693  0.0610 -0.0981  0.1000
  216MOL0     C28407  -0.742   3.021   8.645 -0.4503 -0.7162  0.1303
  216MOL0     C28408  -0.790   3.041   8.520 -0.1351  0.7114  0.6891
  216MOL0     C28409  -0.791   3.177   8.468  0.2316 -0.1751  0.9667
  216MOL0     O28410  -0.765   3.271   8.561  0.4567 -0.3484 -1.2721
  216MOL0     C28411  -0.801   3.403   8.555  0.5076 -0.0771  0.3563
  216MOL0     C28412  -0.918   3.442   8.496 -0.0934  0.0781 -0.4644
  216MOL0     C28413  -0.960   3.571   8.493  0.2145  0.3241 -0.2506
  216MOL0     C28414  -0.875   3.673   8.546  0.3579  0.5685  0.4488
  216MOL0     O28415  -0.921   3.804   8.535  0.5756 -0.4178  0.4838
  216MOL0     C28416  -0.898   3.881   8.656 -0.2806 -0.8147 -0.1039
  216MOL0     C28417  -0.984   4.016   8.656 -0.3834 -0.2126 -1.2954
  216MOL0     C28418  -0.904   4.131   8.595 -0.8162 -0.2473  0.6738
  216MOL0     C28419  -0.974   4.272   8.611  0.1015 -0.1090 -0.8976
  216MOL0     C28420  -0.897   4.380   8.548  0.4870 -0.7453  0.1671
  216MOL0     C28421  -0.953   4.519   8.570  0.3637  0.1466  0.0127
  216MOL0     C28422  -0.890   4.627   8.466 -0.3769 -0.2264 -1.1795
  216MOL0     C28423  -0.893   4.769   8.530  0.0101  0.9912 -0.4724
  216MOL0    Cl28424  -1.054   4.827   8.600 -0.1886 -0.5535  0.1775
  216MOL0     C28425  -0.746   3.642   8.585 -0.2079  0.7548 -1.2751
  216MOL0     C28426  -0.715   3.502   8.592 -0.1770 -0.6536  0.1333
  216MOL0     O28427  -0.830   3.202   8.356 -0.4439 -0.6283 -0.2226
  216MOL0     C28428  -0.856   2.937   8.446  0.0892  1.2319  0.2776
  216MOL0     C28429  -0.850   2.806   8.501 -0.1107 -0.0040  0.6719
  216MOL0     N28430  -0.478   2.481   9.206  0.7174  0.0699 -0.2548
  216MOL0     N28431  -0.354   2.520   9.222  0.9008  0.7324  0.5827
  216MOL0     C28432  -0.277   3.380   9.572 -1.1969 -0.2883 -0.8853
  216MOL0     C28433  -0.247   3.434   9.693  0.0889  0.1495  0.1442
  216MOL0     C28434   0.007   3.649  10.016 -0.0052  0.4062 -0.3354
  216MOL0     C28435  -0.063   3.588  10.121 -0.0659  0.2633 -0.6101
  216MOL0     C28436  -0.052   3.630  10.251 -0.3366  0.7581 -0.6998
  216MOL0     C28437   0.032   3.737  10.285  0.0780 -0.2158 -0.2509
  216MOL0     O28438   0.037   3.791  10.409  1.0950  0.1283 -0.9465
  216MOL0     C28439   0.013   3.708  10.528  1.0270  0.3453  0.0748
  216MOL0     C28440   0.048   3.780  10.658 -0.7429 -0.2453  0.2329
  216MOL0     C28441  -0.052   3.892  10.700  0.0214  0.1244 -0.4907
  216MOL0     C28442  -0.153   3.864  10.816 -0.1273  0.6448  0.2883
  216MOL0     C28443  -0.283   3.813  10.755 -1.2382 -0.6120 -0.4387
  216MOL0     C28444  -0.395   3.790  10.718  0.4141 -1.4238 -1.0239
  216MOL0     C28445   0.105   3.793  10.186 -0.0698  0.2713 -0.1222
  216MOL0     C28446   0.097   3.756  10.049 -0.0498  0.7441  0.1769
  216MOL0     H28447   0.094   3.342   9.701  0.0622 -4.9058 -2.4964
  216MOL0     H28448   0.041   3.272   9.502  1.4172  1.8236 -0.0856
  216MOL0     H28449  -0.117   3.090   9.419  0.6015  1.1660  0.3891
  216MOL0     H28450  -0.038   3.206   9.307 -1.4364 -0.0767 -5.1453
  216MOL0     H28451  -0.246   3.166   9.155  0.3893 -1.3503 -1.8775
  216MOL0     H28452  -0.280   3.030   9.258  0.1397  0.4364  2.1368
  216MOL0     H28453  -0.023   3.082   9.096 -1.4367  0.6883 -0.1637
  216MOL0     H28454  -0.167   2.994   9.044 -3.3528  0.0540  1.3966
  216MOL0     H28455   0.019   2.921   9.268 -1.8015  0.1759  1.2095
  216MOL0     H28456  -0.131   2.824   9.236 -1.7468 -0.9781 -2.6173
  216MOL0     H28457   0.060   2.703   9.158  0.7135  0.0918  0.2603
  216MOL0     H28458   0.127   2.839   9.074 -1.8693  2.6822  1.6766
  216MOL0     H28459   0.021   2.666   8.922  1.6056  0.4599  1.4540
  216MOL0     H28460  -0.034   2.825   8.891  2.0384  0.3647 -0.4768
  216MOL0     H28461  -0.241   2.759   9.042  1.2136  2.2309 -0.8771
  216MOL0     H28462  -0.220   2.692   8.884  0.4242  3.8332 -0.5556
  216MOL0     H28463  -0.130   2.575   9.165  0.8711  3.2844  0.2362
  216MOL0     H28464  -0.119   2.489   8.999  1.2341  0.0414 -0.1376
  216MOL0     H28465  -0.360   2.421   8.908  2.8280  0.1912 -0.1452
  216MOL0     H28466  -0.711   2.396   9.080 -1.5190  3.0681 -1.6140
  216MOL0     H28467  -0.606   2.280   8.997 -2.6107 -0.3837  2.7911
  216MOL0     H28468  -0.736   2.402   8.848 -1.2602 -0.8956  1.6390
  216MOL0     H28469  -0.586   2.471   8.815 -0.3661  0.8707  0.2477
  216MOL0     H28470  -0.749   2.631   9.016  0.8401  1.1872 -0.2192
  216MOL0     H28471  -0.624   2.675   8.902  2.0314 -3.1598 -4.1853
  216MOL0     H28472  -0.851   2.746   8.848  1.2886  0.3810  0.1322
  216MOL0     H28473  -0.904   2.580   8.821  1.5358 -3.5119 -2.5574
  216MOL0     H28474  -0.664   2.883   8.785  0.2954  2.3154  0.3150
  216MOL0     H28475  -0.689   3.095   8.704  0.7672 -2.5902  1.5034
  216MOL0     H28476  -0.994   3.367   8.476  2.7337 -3.3639  0.6294
  216MOL0     H28477  -1.055   3.597   8.447  0.5189  1.3938 -0.3197
  216MOL0     H28478  -0.794   3.903   8.681 -0.3347 -1.1429  0.4181
  216MOL0     H28479  -0.933   3.826   8.744 -1.7787  0.5369  0.2050
  216MOL0     H28480  -0.992   4.033   8.763 -0.1196 -5.0994 -0.2674
  216MOL0     H28481  -1.075   3.999   8.597 -1.1294 -0.8734  0.0197
  216MOL0     H28482  -0.894   4.112   8.488 -1.7424  0.5045  0.4438
  216MOL0     H28483  -0.803   4.123   8.636  0.0074 -2.3142 -1.5642
  216MOL0     H28484  -1.076   4.269   8.572 -0.9941  0.1111  1.6839
  216MOL0     H28485  -0.992   4.287   8.718  1.5102 -2.0914 -0.3176
  216MOL0     H28486  -0.883   4.364   8.441  1.9669  2.9415 -0.3520
  216MOL0     H28487  -0.799   4.383   8.597  0.1401 -1.0814  0.8994
  216MOL0     H28488  -0.924   4.542   8.673  0.9158 -1.9211  0.3617
  216MOL0     H28489  -1.062   4.521   8.562  0.3865 -2.3657 -2.5491
  216MOL0     H28490  -0.785   4.597   8.451 -0.0759 -0.4669  1.1012
  216MOL0     H28491  -0.951   4.618   8.376 -1.9014 -2.0392 -0.0509
  216MOL0     H28492  -0.875   4.832   8.443 -2.7405  2.5727 -0.0125
  216MOL0     H28493  -0.814   4.775   8.605  0.4998 -1.2822 -0.7087
  216MOL0     H28494  -0.668   3.716   8.593 -0.9751  1.3832  3.3940
  216MOL0     H28495  -0.610   3.482   8.611 -0.2998  0.1425  1.9118
  216MOL0     H28496  -0.911   2.961   8.355  2.2355 -1.1934 -1.8201
  216MOL0     H28497  -0.904   2.725   8.453 -0.9203  1.1840 -0.4875
  216MOL0     H28498  -0.383   3.376   9.549 -1.3664 -0.7657 -0.0716
  216MOL0     H28499  -0.313   3.505   9.743  2.5127  2.4095  0.3278
  216MOL0     H28500  -0.149   3.523  10.112  2.2968 -3.2450 -0.1996
  216MOL0     H28501  -0.108   3.587  10.334  1.4226  2.7745  1.6910
  216MOL0     H28502   0.067   3.614  10.512 -0.6807 -0.1366 -3.8449
  216MOL0     H28503  -0.092   3.683  10.544  1.9087 -1.4903  4.4247
  216MOL0     H28504   0.076   3.709  10.737 -1.8752  2.4801  3.3124
  216MOL0     H28505   0.141   3.833  10.638 -1.4690  1.1472  0.4328
  216MOL0     H28506  -0.101   3.930  10.611 -1.7150 -2.8005 -0.9169
  216MOL0     H28507  -0.003   3.980  10.742  0.3825 -0.7589  1.0545
  216MOL0     H28508  -0.118   3.793  10.891 -2.0861 -1.7142 -0.8640
  216MOL0     H28509  -0.167   3.959  10.867 -1.5025 -0.8216  2.8806
  216MOL0     H28510  -0.486   3.771  10.664  1.1221 -2.0028 -2.0431
  216MOL0     H28511   0.167   3.877  10.214 -1.0229  0.4119  1.7645
  216MOL0     H28512   0.164   3.800   9.975 -0.3446 -2.3012 -2.1185
  217MOL0     O28513   1.353   3.205   7.343  0.2430 -0.2914  1.1283
  217MOL0     C28514   1.440   3.118   7.351  0.3317 -0.8762 -0.2872
  217MOL0     O28515   1.445   3.008   7.268 -0.1465  0.2544 -0.5311
  217MOL0     C28516   1.340   2.978   7.179 -1.8121  0.5566 -0.4018
  217MOL0     C28517   1.350   3.037   7.055  0.1208 -0.8948 -0.1332
  217MOL0     C28518   1.234   3.022   6.982  0.2109 -0.2023  0.0948
  217MOL0     C28519   1.119   2.945   7.012  1.3029  0.5955 -0.2858
  217MOL0     O28520   1.004   2.945   6.930 -1.1050  0.3417 -0.0077
  217MOL0     C28521   1.017   2.920   6.788 -0.2634  0.1011 -0.1350
  217MOL0     C28522   0.904   3.001   6.709  1.0574  0.7888  0.2661
  217MOL0     C28523   0.864   2.957   6.562  0.2503  0.9674 -0.4910
  217MOL0     C28524   0.995   2.951   6.487 -0.5769  1.0889  0.3415
  217MOL0     C28525   0.971   2.922   6.324  0.3440  0.7022  0.1617
  217MOL0     C28526   0.868   2.815   6.285 -0.0447 -0.4911  0.2940
  217MOL0     C28527   0.859   2.794   6.132 -0.5721 -1.0400  0.2736
  217MOL0     C28528   0.813   2.650   6.113 -0.1131  0.6203 -0.2006
  217MOL0     N28529   0.845   2.606   5.979  0.5153 -0.9852  0.4461
  217MOL0     C28530   0.801   2.651   5.856 -0.3415 -0.0204  0.5589
  217MOL0     C28531   0.869   2.592   5.752 -0.0045  0.1365 -0.8272
  217MOL0     C28532   0.838   2.614   5.614  0.0391  0.9007  0.3505
  217MOL0     C28533   0.690   2.586   5.577  0.7863 -0.2897  0.8153
  217MOL0     C28534   0.686   2.437   5.541  0.1456  0.9366  0.3397
  217MOL0     C28535   0.673   2.348   5.667  0.6971  0.5746 -0.4774
  217MOL0     O28536   0.588   2.389   5.775  0.0865 -0.5824  0.8181
  217MOL0     C28537   0.465   2.337   5.787  0.6590  0.1001  1.0063
  217MOL0     C28538   0.398   2.255   5.700 -0.0204 -0.5419  0.8415
  217MOL0     C28539   0.271   2.199   5.728 -0.8530  1.1122 -0.2815
  217MOL0     C28540   0.217   2.221   5.851  0.7636  1.2463  0.1821
  217MOL0     C28541   0.081   2.161   5.890 -0.2414 -0.5385 -0.9494
  217MOL0     O28542   0.039   2.166   6.024  1.0075 -0.2078 -0.1208
  217MOL0     C28543  -0.076   2.097   6.063  0.0321  1.0047  0.1513
  217MOL0     C28544  -0.171   2.160   6.138  0.2576 -0.1838  0.3672
  217MOL0     C28545  -0.301   2.100   6.159 -0.5851 -0.2786 -0.0974
  217MOL0     C28546  -0.327   1.976   6.100 -1.4828 -0.8079 -0.3950
  217MOL0     O28547  -0.447   1.923   6.131  0.4516 -0.5322  0.0934
  217MOL0     C28548  -0.467   1.785   6.121  0.1526  0.9677  0.4236
  217MOL0     C28549  -0.602   1.738   6.189 -0.4425  0.1005  0.5574
  217MOL0     C28550  -0.593   1.745   6.342 -0.1624 -0.5958  0.9813
  217MOL0     C28551  -0.517   1.636   6.409  0.9764  0.1558  0.0704
  217MOL0     C28552  -0.591   1.493   6.391 -0.1873  0.1602 -0.1791
  217MOL0     C28553  -0.528   1.401   6.498  0.4108 -0.0654 -0.3029
  217MOL0     C28554  -0.566   1.260   6.506 -0.2703  0.3291 -0.1593
  217MOL0     C28555  -0.513   1.177   6.387 -0.3920  0.8996  0.0790
  217MOL0    Cl28556  -0.482   1.022   6.428 -0.5406  0.5481 -0.0663
  217MOL0     C28557  -0.236   1.916   6.022  0.8639 -0.3058 -0.0174
  217MOL0     C28558  -0.109   1.981   6.003  0.0156 -0.1748  0.0067
  217MOL0     O28559   0.015   2.119   5.796 -0.3023  0.0089  0.2545
  217MOL0     C28560   0.281   2.306   5.945  0.0839  0.8417  0.1056
  217MOL0     C28561   0.401   2.361   5.910  1.0290 -0.4626 -0.7948
  217MOL0     N28562   0.965   2.509   5.813  0.1101  0.4827 -0.1955
  217MOL0     N28563   0.952   2.517   5.944  0.2619 -1.0800  0.1081
  217MOL0     C28564   1.121   2.887   7.140 -0.5788 -1.0116  1.6246
  217MOL0     C28565   1.231   2.903   7.218 -0.4150  0.0958 -0.3878
  217MOL0     C28566   1.538   3.140   7.462  0.1599  0.0179 -1.2712
  217MOL0     C28567   1.520   3.250   7.555 -0.1293  0.3677  0.0153
  217MOL0     C28568   1.616   3.284   7.653  0.2776  0.4069  0.3104
  217MOL0     C28569   1.714   3.190   7.676  0.6882  1.1804  0.2845
  217MOL0     O28570   1.807   3.189   7.778 -0.4599 -0.4676  0.1661
  217MOL0     C28571   1.808   3.290   7.874  0.3844  0.7783 -0.0273
  217MOL0     C28572   1.726   3.252   8.004 -0.2876 -1.2697  0.2119
  217MOL0     C28573   1.759   3.114   8.059 -0.4088  0.5994 -0.1617
  217MOL0     C28574   1.734   3.093   8.206 -0.0856  0.0737 -0.5986
  217MOL0     C28575   1.590   3.064   8.223  1.0179 -0.7845 -0.1226
  217MOL0     C28576   1.466   3.044   8.226 -0.2937 -0.8312  0.5553
  217MOL0     C28577   1.730   3.082   7.589  0.1625  0.4077 -0.2026
  217MOL0     C28578   1.642   3.054   7.488  0.1066 -0.3787  0.2998
  217MOL0     H28579   1.430   3.106   7.032  0.2514 -0.9015  0.2926
  217MOL0     H28580   1.207   3.101   6.911 -1.6333  1.3963  2.4153
  217MOL0     H28581   1.020   2.812   6.767 -1.3410  0.1028 -0.3411
  217MOL0     H28582   1.112   2.964   6.758 -0.7940  3.0741  2.1005
  217MOL0     H28583   0.925   3.108   6.705  3.8462  0.3956  1.4950
  217MOL0     H28584   0.808   2.984   6.759  1.8380 -0.9016  1.2911
  217MOL0     H28585   0.799   3.033   6.518 -0.3040  2.5413  2.7242
  217MOL0     H28586   0.807   2.864   6.579  2.0242  0.4669  4.5457
  217MOL0     H28587   1.068   3.029   6.507  1.1015 -0.0836 -0.9298
  217MOL0     H28588   1.045   2.858   6.516 -1.4939 -0.7870 -3.3853
  217MOL0     H28589   1.066   2.880   6.290  0.6947  0.6885  1.1259
  217MOL0     H28590   0.956   3.016   6.271  0.4723  0.0427 -1.0931
  217MOL0     H28591   0.767   2.838   6.319 -0.1698  1.0277 -0.9546
  217MOL0     H28592   0.910   2.724   6.327  2.3838  0.4051 -0.0179
  217MOL0     H28593   0.773   2.851   6.096  0.0149 -0.6592 -0.5655
  217MOL0     H28594   0.952   2.819   6.080  0.2041 -4.0716  0.0291
  217MOL0     H28595   0.708   2.645   6.144 -0.7586  2.2000 -1.9699
  217MOL0     H28596   0.876   2.587   6.177  2.3509  3.1591  0.0933
  217MOL0     H28597   0.716   2.718   5.843 -1.8746 -2.1922 -1.4160
  217MOL0     H28598   0.907   2.541   5.570 -2.0246 -0.7680 -0.2556
  217MOL0     H28599   0.864   2.713   5.574  2.1044  0.8788  1.4593
  217MOL0     H28600   0.662   2.644   5.488  4.6048  0.1297 -0.2828
  217MOL0     H28601   0.610   2.604   5.649 -1.7526  0.9880 -2.0751
  217MOL0     H28602   0.597   2.431   5.477 -0.3208  0.4784  1.0091
  217MOL0     H28603   0.764   2.401   5.474  0.2465 -1.3119  1.5345
  217MOL0     H28604   0.765   2.332   5.724 -1.1796 -2.5340  1.9786
  217MOL0     H28605   0.651   2.248   5.630  3.0504 -0.9268  1.8882
  217MOL0     H28606   0.442   2.236   5.602  3.3307 -0.3356  2.1726
  217MOL0     H28607   0.223   2.135   5.655 -1.7647  2.5148 -0.9534
  217MOL0     H28608  -0.148   2.256   6.183 -4.1956  1.5538 -0.5214
  217MOL0     H28609  -0.385   2.148   6.209 -1.6804 -1.3624 -0.8207
  217MOL0     H28610  -0.378   1.738   6.164 -0.7919 -0.8122  0.4976
  217MOL0     H28611  -0.471   1.746   6.019 -4.6275 -2.9643  1.7249
  217MOL0     H28612  -0.639   1.641   6.157 -3.7296  1.7212 -1.0777
  217MOL0     H28613  -0.684   1.800   6.150 -1.5461 -2.1439 -0.9027
  217MOL0     H28614  -0.687   1.776   6.389  0.3227  2.8075 -0.0262
  217MOL0     H28615  -0.535   1.835   6.363 -0.0691 -0.5107  0.3829
  217MOL0     H28616  -0.416   1.630   6.365 -0.1350  3.7844 -3.6796
  217MOL0     H28617  -0.512   1.661   6.515 -1.5486  1.6012 -0.0904
  217MOL0     H28618  -0.585   1.451   6.290 -1.6709  1.0058 -0.6577
  217MOL0     H28619  -0.700   1.494   6.403  0.0726 -0.1132  2.9140
  217MOL0     H28620  -0.549   1.457   6.590 -2.8300 -0.2663 -0.8158
  217MOL0     H28621  -0.419   1.394   6.488  0.4345  0.3447 -0.3749
  217MOL0     H28622  -0.524   1.220   6.599 -1.2749 -2.4842 -0.7895
  217MOL0     H28623  -0.675   1.255   6.514 -0.3256  0.5027 -0.7522
  217MOL0     H28624  -0.412   1.204   6.353  0.4520 -0.2830  1.5011
  217MOL0     H28625  -0.589   1.167   6.309 -2.6886 -4.7400  2.4966
  217MOL0     H28626  -0.261   1.825   5.969 -1.7965 -0.2983  1.0633
  217MOL0     H28627  -0.036   1.933   5.938  1.6346  0.9452  0.9211
  217MOL0     H28628   0.239   2.333   6.041 -0.9217 -0.2697  0.0161
  217MOL0     H28629   0.458   2.417   5.983  0.2911 -0.1884 -0.4164
  217MOL0     H28630   1.032   2.837   7.177 -3.6451  1.4044 -1.7872
  217MOL0     H28631   1.209   2.864   7.317 -0.9794  1.7031  0.1493
  217MOL0     H28632   1.438   3.319   7.539  0.7349  0.9430 -2.2703
  217MOL0     H28633   1.592   3.370   7.714  0.3222 -0.3941  1.4926
  217MOL0     H28634   1.770   3.386   7.839  1.3838  0.8339 -1.0271
  217MOL0     H28635   1.912   3.309   7.899  0.1602 -0.0679  1.6834
  217MOL0     H28636   1.741   3.336   8.074 -1.0297  1.4917 -2.6927
  217MOL0     H28637   1.617   3.255   7.988 -1.0946 -1.6217  4.3687
  217MOL0     H28638   1.865   3.089   8.058 -0.5446 -0.0370  0.5749
  217MOL0     H28639   1.692   3.048   8.003  0.3088 -0.5747  0.3354
  217MOL0     H28640   1.782   3.003   8.247 -2.8192 -1.9253 -1.4576
  217MOL0     H28641   1.759   3.185   8.261 -1.4669 -0.5412  1.1671
  217MOL0     H28642   1.360   3.036   8.211 -0.2194  0.3798 -0.8329
  217MOL0     H28643   1.813   3.012   7.598 -0.0505  0.2949  1.1120
  217MOL0     H28644   1.664   2.973   7.420 -1.9179 -0.7049 -0.0205
  218MOL0     O28645   4.448   3.439   1.085  0.0883 -0.3796  0.6517
  218MOL0     C28646   4.545   3.423   1.013 -0.4493 -0.0797  1.4964
  218MOL0     O28647   4.676   3.437   1.044 -0.4372  0.2129 -0.8035
  218MOL0     C28648   4.735   3.474   1.172 -0.2196 -0.6802 -0.1036
  218MOL0     C28649   4.672   3.471   1.300  0.3722 -0.8267  0.3287
  218MOL0     C28650   4.736   3.495   1.418  0.3468 -0.3115 -1.5750
  218MOL0     C28651   4.878   3.528   1.413 -0.6240  0.3357 -0.1325
  218MOL0     O28652   4.957   3.546   1.523  0.4992  0.7260  0.0525
  218MOL0     C28653   4.929   3.657   1.614  0.1217 -0.4604 -0.8120
  218MOL0     C28654   5.058   3.676   1.696 -0.1129 -0.8125 -0.2466
  218MOL0     C28655   5.042   3.784   1.809  0.3984  0.1415  1.1720
  218MOL0     C28656   5.089   3.925   1.765 -0.1132  0.7660 -0.1900
  218MOL0     C28657   5.236   3.964   1.792 -1.0414 -0.8826 -0.7345
  218MOL0     C28658   5.337   3.885   1.711  0.0120 -0.7027  0.8061
  218MOL0     C28659   5.472   3.956   1.718 -0.2656 -1.1734  0.2016
  218MOL0     C28660   5.539   3.955   1.857  1.7741 -0.1788  0.3172
  218MOL0     N28661   5.625   4.074   1.863 -1.1838 -0.3931 -0.3522
  218MOL0     C28662   5.601   4.190   1.932 -0.3601  0.0264 -0.3066
  218MOL0     C28663   5.705   4.275   1.910 -0.1400  0.7623  0.9522
  218MOL0     C28664   5.710   4.412   1.966 -0.2995 -0.3419  0.7159
  218MOL0     C28665   5.640   4.514   1.882  0.3381  0.1849  0.3871
  218MOL0     C28666   5.699   4.647   1.894 -0.3139  0.7141  0.6465
  218MOL0     C28667   5.699   4.702   2.030  2.1945  0.6146  0.8689
  218MOL0     O28668   5.559   4.706   2.064 -0.0737  0.4392  0.2594
  218MOL0     C28669   5.526   4.780   2.162  0.3791  0.5721 -0.0496
  218MOL0     C28670   5.615   4.825   2.261  0.1712 -0.1827 -0.0627
  218MOL0     C28671   5.566   4.910   2.366  0.0832 -0.2796 -0.7021
  218MOL0     C28672   5.435   4.962   2.367  0.4183  1.4438  0.3380
  218MOL0     C28673   5.396   5.066   2.457 -0.3458 -0.9205 -0.1867
  218MOL0     O28674   5.458   5.052   2.581  0.1844 -0.4276 -0.9111
  218MOL0     C28675   5.429   5.147   2.686 -0.3904  0.2366  0.1615
  218MOL0     C28676   5.366   5.115   2.801 -0.2340  0.7578  0.1342
  218MOL0     C28677   5.336   5.219   2.893 -0.6671 -0.1630 -0.9493
  218MOL0     C28678   5.379   5.348   2.883  0.2429  0.2282  0.6673
  218MOL0     O28679   5.352   5.449   2.969  0.4881  0.2141  1.2254
  218MOL0     C28680   5.267   5.425   3.081 -0.8822 -0.1741  0.3025
  218MOL0     C28681   5.115   5.441   3.054 -0.6352  0.1585 -0.4081
  218MOL0     C28682   5.073   5.579   3.013  0.0108 -0.7505 -1.0316
  218MOL0     C28683   4.934   5.617   3.054  0.3836  0.1772 -0.6964
  218MOL0     C28684   4.858   5.702   2.944  1.0810 -0.1637  0.1808
  218MOL0     C28685   4.699   5.684   2.959  0.4960  0.0584  0.2730
  218MOL0     C28686   4.632   5.772   2.845 -0.0643  1.2029  0.1499
  218MOL0     C28687   4.632   5.711   2.708 -0.3666  0.3140  0.5980
  218MOL0    Cl28688   4.589   5.533   2.688 -0.0264 -0.1409  0.7082
  218MOL0     C28689   5.443   5.383   2.760 -0.0628  0.5061 -0.3772
  218MOL0     C28690   5.474   5.274   2.671  0.0530  0.3202 -0.0837
  218MOL0     O28691   5.314   5.150   2.428  0.3578 -0.2965  0.2323
  218MOL0     C28692   5.346   4.920   2.266 -0.0578  0.8262  0.0864
  218MOL0     C28693   5.393   4.833   2.163 -1.0514  1.1366 -0.6577
  218MOL0     N28694   5.791   4.201   1.828  0.8280  0.1366  0.1835
  218MOL0     N28695   5.753   4.081   1.816  0.1273  0.5393  0.6901
  218MOL0     C28696   4.947   3.533   1.282 -0.0312  0.7636 -0.1684
  218MOL0     C28697   4.869   3.505   1.170  0.1866 -0.8462  0.4435
  218MOL0     C28698   4.528   3.366   0.870 -0.7208  0.5947 -0.5545
  218MOL0     C28699   4.400   3.336   0.829 -0.0382 -0.4141  0.4953
  218MOL0     C28700   4.376   3.284   0.696 -0.7956 -0.4563 -0.0087
  218MOL0     C28701   4.483   3.246   0.615  0.0954  0.1157  1.2095
  218MOL0     O28702   4.482   3.195   0.490  0.0386  0.0639 -0.2007
  218MOL0     C28703   4.357   3.140   0.439  0.1440 -0.6617  0.2645
  218MOL0     C28704   4.340   3.006   0.490  0.0838 -0.3960  0.5817
  218MOL0     C28705   4.406   2.895   0.406  0.3938  0.4584  0.0390
  218MOL0     C28706   4.423   2.773   0.485 -0.4306  0.0354 -0.0305
  218MOL0     C28707   4.522   2.802   0.592 -0.4089 -0.1109  0.4788
  218MOL0     C28708   4.601   2.842   0.681  0.0038 -0.0865  0.2198
  218MOL0     C28709   4.612   3.270   0.662  0.2423 -0.3100  0.1913
  218MOL0     C28710   4.642   3.326   0.783 -0.2160  0.4007  0.4725
  218MOL0     H28711   4.571   3.432   1.298 -0.3523  0.8682 -2.7356
  218MOL0     H28712   4.688   3.486   1.515 -0.5533  4.6114 -1.3394
  218MOL0     H28713   4.842   3.638   1.678 -0.3433  0.2626 -1.2084
  218MOL0     H28714   4.911   3.751   1.562  2.4931  0.7288  0.3577
  218MOL0     H28715   5.131   3.717   1.625  1.0442 -1.4791  0.5327
  218MOL0     H28716   5.096   3.583   1.738 -0.9236 -0.7550  0.6556
  218MOL0     H28717   5.109   3.753   1.890  0.9166 -1.5341  0.1369
  218MOL0     H28718   4.942   3.787   1.854 -0.1578 -2.7492  0.3293
  218MOL0     H28719   5.076   3.942   1.657 -0.7269 -1.3277 -0.4967
  218MOL0     H28720   5.023   4.000   1.809  0.8015  1.6360 -0.2579
  218MOL0     H28721   5.250   3.946   1.899  0.1907 -0.1122 -0.7507
  218MOL0     H28722   5.234   4.072   1.774 -2.3942 -0.6246  0.7048
  218MOL0     H28723   5.296   3.875   1.610 -2.4836 -0.2350  1.6997
  218MOL0     H28724   5.345   3.784   1.754  2.9775 -0.3804  1.2576
  218MOL0     H28725   5.545   3.914   1.647  0.8216 -0.1645  0.6847
  218MOL0     H28726   5.462   4.062   1.692  3.0927 -1.4247 -3.0749
  218MOL0     H28727   5.590   3.860   1.876 -0.7512 -1.0115  4.1622
  218MOL0     H28728   5.457   3.968   1.929 -1.0897 -2.0849 -2.3288
  218MOL0     H28729   5.514   4.223   1.988 -0.8461 -0.9630 -0.4593
  218MOL0     H28730   5.816   4.437   1.980  1.0016 -3.6920 -1.6950
  218MOL0     H28731   5.668   4.399   2.067 -0.2901 -0.3858  0.7145
  218MOL0     H28732   5.534   4.499   1.901  0.7977 -2.9318  1.0756
  218MOL0     H28733   5.641   4.480   1.778 -0.8108 -1.6073  0.9326
  218MOL0     H28734   5.790   4.646   1.834 -0.3647 -4.3993  0.1987
  218MOL0     H28735   5.638   4.710   1.827  1.0576  1.1116 -0.2637
  218MOL0     H28736   5.745   4.801   2.020  1.4725  0.7351 -2.3092
  218MOL0     H28737   5.766   4.639   2.089  2.2628 -3.3320 -2.9352
  218MOL0     H28738   5.717   4.789   2.265  1.2468  2.6881  1.6435
  218MOL0     H28739   5.638   4.941   2.440  0.8741  0.9608 -1.9354
  218MOL0     H28740   5.325   5.016   2.820 -1.0656  0.8046 -1.2720
  218MOL0     H28741   5.270   5.190   2.974 -2.4200  2.2864 -1.3700
  218MOL0     H28742   5.291   5.501   3.157 -1.6369  0.3683  0.0067
  218MOL0     H28743   5.290   5.326   3.121 -2.3278 -2.0305 -3.0697
  218MOL0     H28744   5.076   5.408   3.151  3.2372 -0.0954  1.2488
  218MOL0     H28745   5.079   5.373   2.976  1.3438  0.2671 -1.4733
  218MOL0     H28746   5.092   5.582   2.905  1.7999  0.0235 -0.7209
  218MOL0     H28747   5.128   5.657   3.065 -1.9448 -0.7658  1.2511
  218MOL0     H28748   4.878   5.524   3.070  1.1448 -0.4739 -1.6502
  218MOL0     H28749   4.932   5.665   3.152 -1.9753  3.7019 -2.2808
  218MOL0     H28750   4.887   5.665   2.846 -2.0900  0.3508 -1.0741
  218MOL0     H28751   4.883   5.809   2.945 -1.2443  0.4504  0.9249
  218MOL0     H28752   4.673   5.732   3.054 -0.5187 -0.0531  0.0656
  218MOL0     H28753   4.660   5.582   2.947 -1.1587  0.7144 -0.1319
  218MOL0     H28754   4.531   5.790   2.881  1.2570  0.8655  4.6956
  218MOL0     H28755   4.677   5.872   2.839  0.9834  0.6980 -0.8604
  218MOL0     H28756   4.729   5.719   2.659 -2.8329  0.0968 -5.1167
  218MOL0     H28757   4.571   5.766   2.636 -1.0319 -0.1328  0.8076
  218MOL0     H28758   5.481   5.481   2.734  2.4210 -1.1493 -3.8272
  218MOL0     H28759   5.533   5.298   2.583  0.3969  0.8983  0.2968
  218MOL0     H28760   5.246   4.961   2.262  0.1799  1.7531  2.2184
  218MOL0     H28761   5.330   4.822   2.075  2.0397 -1.5012 -2.7957
  218MOL0     H28762   5.052   3.559   1.276  0.6653 -1.8536 -0.3903
  218MOL0     H28763   4.923   3.502   1.076  1.5148 -0.3931  1.1694
  218MOL0     H28764   4.309   3.350   0.886 -2.3809 -4.8876 -1.6742
  218MOL0     H28765   4.270   3.273   0.674 -0.6565  0.5549 -1.2961
  218MOL0     H28766   4.371   3.140   0.331 -0.7927  0.2032  0.1186
  218MOL0     H28767   4.266   3.200   0.453  0.4496 -0.2153  0.3489
  218MOL0     H28768   4.375   2.999   0.594  3.1125  1.1258 -0.2030
  218MOL0     H28769   4.233   2.983   0.483 -0.3566  1.8825 -1.6428
  218MOL0     H28770   4.501   2.921   0.358  0.3783 -1.0288 -0.8392
  218MOL0     H28771   4.336   2.879   0.324 -1.0920  2.4799  0.8382
  218MOL0     H28772   4.325   2.747   0.525  0.4931 -0.2789  2.1969
  218MOL0     H28773   4.456   2.697   0.413  1.8953 -0.7857  1.7598
  218MOL0     H28774   4.680   2.870   0.747 -0.0682  2.3247 -0.6110
  218MOL0     H28775   4.697   3.247   0.598 -2.7716 -3.3912 -3.1918
  218MOL0     H28776   4.743   3.330   0.821  1.8870  2.4640 -4.4262
  219MOL0     O28777   9.605   2.904   4.071 -0.4471  0.1551 -0.8173
  219MOL0     C28778   9.653   2.917   4.183  0.9761 -0.9356 -0.1523
  219MOL0     O28779   9.747   2.846   4.243 -0.2519 -0.3297 -0.0557
  219MOL0     C28780   9.805   2.750   4.166  0.1434  0.1923  0.1632
  219MOL0     C28781   9.754   2.625   4.155  0.8873 -0.7590  0.2454
  219MOL0     C28782   9.812   2.517   4.089 -0.9469  0.3377 -1.3512
  219MOL0     C28783   9.929   2.539   4.019 -0.1365 -0.1543 -0.6980
  219MOL0     O28784  10.000   2.444   3.949  0.4045  0.5518  0.7185
  219MOL0     C28785   9.962   2.308   3.965  0.1830  0.5079 -0.7510
  219MOL0     C28786  10.039   2.202   3.884  0.1893  0.1471  0.0509
  219MOL0     C28787  10.181   2.176   3.947 -0.1939 -0.4027  0.8381
  219MOL0     C28788  10.176   2.094   4.071 -0.8438  0.8499 -0.1537
  219MOL0     C28789  10.307   2.067   4.142  1.1542 -0.9384 -0.6886
  219MOL0     C28790  10.399   1.964   4.069 -0.2155  0.3371 -0.5195
  219MOL0     C28791  10.551   2.018   4.077  1.1274 -0.1325 -0.5681
  219MOL0     C28792  10.597   2.014   4.227 -0.6611  0.0448  0.4465
  219MOL0     N28793  10.643   1.876   4.261 -0.5926 -0.4554 -0.0161
  219MOL0     C28794  10.601   1.807   4.370  0.5660 -0.8453 -0.1495
  219MOL0     C28795  10.678   1.691   4.378  0.6586 -0.7323 -0.2939
  219MOL0     C28796  10.668   1.577   4.473 -0.4695 -2.0257 -0.1268
  219MOL0     C28797  10.550   1.487   4.440 -0.7560 -0.6808 -0.9687
  219MOL0     C28798  10.561   1.363   4.526  0.1271  0.1998  0.1706
  219MOL0     C28799  10.544   1.389   4.674  0.4571 -0.0869  0.0747
  219MOL0     O28800  10.420   1.445   4.716 -0.1888 -0.0398  0.6633
  219MOL0     C28801  10.406   1.498   4.849  0.4126 -0.0231  0.4544
  219MOL0     C28802  10.322   1.608   4.864 -0.2017 -0.4016  0.5630
  219MOL0     C28803  10.308   1.680   4.982  0.2063  0.2402 -0.2994
  219MOL0     C28804  10.365   1.618   5.104 -0.4090  0.4942  0.6327
  219MOL0     C28805  10.356   1.679   5.234  0.2520  0.0818 -0.2545
  219MOL0     O28806  10.251   1.766   5.254  1.0455  1.0924 -0.3052
  219MOL0     C28807  10.239   1.829   5.374 -0.5062 -0.3915 -0.4837
  219MOL0     C28808  10.146   1.786   5.460  0.5802  0.1976  0.5287
  219MOL0     C28809  10.119   1.848   5.578 -1.0973 -0.3656 -0.1558
  219MOL0     C28810  10.178   1.971   5.602 -0.9190  0.2828  0.0235
  219MOL0     O28811  10.161   2.039   5.715  0.2403  0.3422  0.2535
  219MOL0     C28812  10.023   2.086   5.730 -0.6260 -0.2788 -0.1696
  219MOL0     C28813  10.014   2.182   5.840 -0.4046  0.0275  0.0060
  219MOL0     C28814  10.001   2.107   5.973 -0.3768  0.6247 -0.1051
  219MOL0     C28815  10.006   2.203   6.102  0.1335 -0.4687 -0.0507
  219MOL0     C28816   9.958   2.132   6.227 -0.2141  0.6129 -0.3422
  219MOL0     C28817  10.045   2.016   6.273  0.3819 -0.8848 -0.6224
  219MOL0     C28818  10.023   2.000   6.425 -0.4687 -0.3055  0.0456
  219MOL0     C28819  10.146   1.934   6.491 -0.1681 -0.1740 -0.8162
  219MOL0    Cl28820  10.166   1.766   6.441 -0.0233 -0.0439  0.3685
  219MOL0     C28821  10.274   2.019   5.510  0.5768  0.0001  0.1824
  219MOL0     C28822  10.306   1.951   5.397 -0.4341  0.3997 -0.7276
  219MOL0     O28823  10.445   1.649   5.315 -0.7479 -0.0113 -0.0089
  219MOL0     C28824  10.445   1.506   5.081  1.0954  0.0987 -0.6349
  219MOL0     C28825  10.472   1.449   4.954  0.0092  0.2837 -0.9455
  219MOL0     N28826  10.759   1.693   4.264 -0.5835  0.5390 -0.0072
  219MOL0     N28827  10.727   1.798   4.195  0.1247  0.9833 -0.0716
  219MOL0     C28828   9.986   2.669   4.035 -0.2602  0.0356  0.8275
  219MOL0     C28829   9.918   2.777   4.091 -0.0497 -0.3169 -0.4442
  219MOL0     C28830   9.602   3.029   4.274  0.1737 -0.6183 -0.0516
  219MOL0     C28831   9.532   3.133   4.228  0.5640  0.3613  0.0065
  219MOL0     C28832   9.497   3.235   4.309 -0.6611  0.0554  0.0271
  219MOL0     C28833   9.523   3.240   4.447  0.6724 -0.1070 -0.4119
  219MOL0     O28834   9.471   3.337   4.536  0.1411  1.4046 -0.1662
  219MOL0     C28835   9.466   3.465   4.474 -0.4559 -0.0319  0.3851
  219MOL0     C28836   9.440   3.582   4.568 -0.6955 -0.7175 -1.3215
  219MOL0     C28837   9.306   3.579   4.631  0.9008 -0.0935  0.0291
  219MOL0     C28838   9.242   3.696   4.569 -0.3827  0.4259 -0.6368
  219MOL0     C28839   9.102   3.696   4.612  0.2283 -0.7449 -0.3861
  219MOL0     C28840   8.981   3.707   4.632 -0.6667  0.6590  0.6981
  219MOL0     C28841   9.592   3.126   4.504 -0.3346  0.1057 -0.0962
  219MOL0     C28842   9.626   3.023   4.412 -0.0925  0.1594  0.1211
  219MOL0     H28843   9.652   2.625   4.193  1.7885  2.6316  3.2151
  219MOL0     H28844   9.759   2.422   4.090 -3.8413  1.8258 -2.0326
  219MOL0     H28845   9.858   2.289   3.939 -0.2557 -2.0448  2.2281
  219MOL0     H28846   9.983   2.285   4.070  3.8048  1.0392 -1.2156
  219MOL0     H28847  10.050   2.244   3.783 -2.1017  2.8537  0.7864
  219MOL0     H28848   9.980   2.112   3.867 -1.0073  0.5971  1.5680
  219MOL0     H28849  10.220   2.275   3.974 -1.4303  0.8341 -1.5473
  219MOL0     H28850  10.252   2.137   3.873  1.5535  1.1978  1.5805
  219MOL0     H28851  10.095   2.135   4.132 -0.2079  1.0664  0.5575
  219MOL0     H28852  10.136   1.993   4.056  0.4485  0.3805 -0.5308
  219MOL0     H28853  10.283   2.031   4.243 -0.0203 -0.8337 -0.9083
  219MOL0     H28854  10.350   2.165   4.164 -3.0565  0.6425  1.9251
  219MOL0     H28855  10.381   1.959   3.961 -2.4255  3.1927 -0.3979
  219MOL0     H28856  10.395   1.864   4.113 -0.6088  0.0366 -1.2267
  219MOL0     H28857  10.605   1.952   4.009  2.1892 -1.0161  1.0829
  219MOL0     H28858  10.564   2.121   4.043  5.1049  0.2356  1.5057
  219MOL0     H28859  10.519   2.047   4.296  0.7025  4.0255  0.3438
  219MOL0     H28860  10.676   2.087   4.245 -1.5413  0.8977  0.9270
  219MOL0     H28861  10.526   1.839   4.442  1.8384  0.2988  0.7212
  219MOL0     H28862  10.659   1.611   4.577 -0.4741 -0.5788 -0.5676
  219MOL0     H28863  10.768   1.534   4.471 -1.6978 -5.0546 -0.9008
  219MOL0     H28864  10.553   1.448   4.338  0.7714 -1.0703 -0.8062
  219MOL0     H28865  10.459   1.540   4.469 -1.4315 -1.5954 -1.3927
  219MOL0     H28866  10.489   1.287   4.495 -0.9335  1.2439  0.0155
  219MOL0     H28867  10.662   1.323   4.513 -0.5281 -1.5792  0.2458
  219MOL0     H28868  10.630   1.453   4.696 -0.8287  2.0422 -0.6662
  219MOL0     H28869  10.550   1.295   4.729 -1.7091 -0.2040  0.2348
  219MOL0     H28870  10.281   1.638   4.768  2.5172 -0.9087 -0.8258
  219MOL0     H28871  10.245   1.769   4.983 -0.1395  0.0778 -2.3744
  219MOL0     H28872  10.085   1.698   5.451  1.2587 -0.2013 -0.3295
  219MOL0     H28873  10.066   1.814   5.667  1.9880  2.6687  3.1594
  219MOL0     H28874   9.962   1.995   5.739 -0.3958 -0.5532 -1.3048
  219MOL0     H28875   9.982   2.136   5.642 -0.8705  1.4172  0.8699
  219MOL0     H28876   9.928   2.249   5.832  0.3245  0.9323 -0.4129
  219MOL0     H28877  10.104   2.244   5.852  0.9317 -1.8477  0.1593
  219MOL0     H28878  10.072   2.027   5.994 -1.1074  0.0160  0.0807
  219MOL0     H28879   9.898   2.071   5.958 -1.0899  2.6391 -0.4209
  219MOL0     H28880  10.103   2.250   6.121 -0.9785  1.6599  0.6325
  219MOL0     H28881   9.932   2.278   6.074  0.5487 -0.0724 -0.1007
  219MOL0     H28882   9.856   2.094   6.215 -0.3609  0.8992 -0.0310
  219MOL0     H28883   9.953   2.208   6.306  0.8339 -1.3139  1.6750
  219MOL0     H28884  10.144   2.051   6.245  1.2323 -2.1120  0.6729
  219MOL0     H28885  10.008   1.924   6.227 -1.6231 -0.9848  1.0410
  219MOL0     H28886   9.997   2.091   6.479  1.8750  0.9929 -0.8461
  219MOL0     H28887   9.934   1.937   6.432 -0.0043 -1.0239 -0.4385
  219MOL0     H28888  10.122   1.928   6.597  0.0065  1.2824 -0.6686
  219MOL0     H28889  10.240   1.989   6.478  2.7430 -3.9286  1.9756
  219MOL0     H28890  10.330   2.107   5.538  1.9407 -1.0808  0.9380
  219MOL0     H28891  10.387   1.987   5.335  0.8774 -2.3150 -0.7701
  219MOL0     H28892  10.497   1.457   5.162  2.4319 -1.1583 -2.1904
  219MOL0     H28893  10.529   1.360   4.930 -0.2591  0.0301 -0.6377
  219MOL0     H28894  10.072   2.698   3.975 -0.5054  0.1062  0.5021
  219MOL0     H28895   9.959   2.877   4.080  0.8940 -0.2550  2.7426
  219MOL0     H28896   9.496   3.144   4.126  2.3928  2.5674 -0.4976
  219MOL0     H28897   9.452   3.323   4.263  1.3649 -0.1713 -2.6825
  219MOL0     H28898   9.385   3.475   4.401  0.3136  1.1527 -0.3469
  219MOL0     H28899   9.557   3.483   4.415  0.4563  1.5317  2.1496
  219MOL0     H28900   9.510   3.581   4.651  0.6967 -2.5300 -2.4580
  219MOL0     H28901   9.469   3.668   4.507 -1.8685  1.5704  1.1135
  219MOL0     H28902   9.300   3.595   4.739  1.9002 -0.9356  0.2281
  219MOL0     H28903   9.263   3.482   4.606  0.3352  0.2259 -0.2571
  219MOL0     H28904   9.295   3.788   4.596  0.3092 -0.5232  1.4653
  219MOL0     H28905   9.247   3.685   4.460  1.6340  1.6343 -0.7083
  219MOL0     H28906   8.874   3.707   4.617 -0.5827 -0.7677 -0.0164
  219MOL0     H28907   9.616   3.108   4.608  1.1690 -2.9866 -0.8557
  219MOL0     H28908   9.672   2.933   4.454 -1.2937 -0.6295 -0.2060
  220MOL0     O28909   8.106   0.310   1.886  0.9050 -0.4918 -0.5452
  220MOL0     C28910   8.017   0.329   1.801  0.0768 -0.2865 -0.3632
  220MOL0     O28911   7.944   0.227   1.756 -0.8135 -0.4574 -0.5963
  220MOL0     C28912   7.939   0.108   1.825 -0.2578  0.4816 -0.5886
  220MOL0     C28913   7.899   0.093   1.957 -0.3219 -1.3112 -0.6591
  220MOL0     C28914   7.897  -0.033   2.017  0.6554  0.0877 -0.4831
  220MOL0     C28915   7.926  -0.144   1.947 -0.3257 -0.1635  0.0182
  220MOL0     O28916   7.918  -0.261   2.010 -0.6874 -0.1567 -0.0627
  220MOL0     C28917   7.790  -0.288   2.069 -0.6253  0.4410  0.2162
  220MOL0     C28918   7.755  -0.440   2.076 -0.1660  0.4264 -0.2482
  220MOL0     C28919   7.829  -0.505   2.191 -0.7783  0.2015  0.6213
  220MOL0     C28920   7.985  -0.512   2.163  0.5792 -0.1390 -0.2585
  220MOL0     C28921   8.060  -0.619   2.251 -0.0163  0.4837 -0.8210
  220MOL0     C28922   8.138  -0.727   2.167  0.2635  0.8462  0.0571
  220MOL0     C28923   8.250  -0.654   2.103  0.0032 -0.5717 -1.2044
  220MOL0     C28924   8.389  -0.698   2.148 -1.0838 -0.3165  0.0556
  220MOL0     N28925   8.507  -0.634   2.081 -0.1340  0.3901 -0.0709
  220MOL0     C28926   8.637  -0.617   2.123  0.2334  0.1164  0.5950
  220MOL0     C28927   8.701  -0.567   2.014 -0.3398 -0.5408 -0.0067
  220MOL0     C28928   8.838  -0.507   2.029 -0.8152  0.5850 -0.3166
  220MOL0     C28929   8.939  -0.570   2.121 -0.8376 -1.2242  0.4808
  220MOL0     C28930   8.943  -0.717   2.152  0.0697  0.6519 -0.0810
  220MOL0     C28931   9.048  -0.761   2.259 -0.5436  0.2826  0.3848
  220MOL0     O28932   9.135  -0.867   2.218  0.5090 -0.0735 -0.9479
  220MOL0     C28933   9.100  -0.995   2.242 -0.0327  0.1244  1.0687
  220MOL0     C28934   9.208  -1.083   2.247 -0.9743  0.0894 -0.5132
  220MOL0     C28935   9.198  -1.218   2.270 -0.7207  0.8732  0.2078
  220MOL0     C28936   9.067  -1.267   2.289  0.0162 -0.0128  0.2980
  220MOL0     C28937   9.054  -1.413   2.296  0.1477  0.0320 -0.2240
  220MOL0     O28938   8.925  -1.462   2.266  0.1525 -0.2133 -0.0426
  220MOL0     C28939   8.883  -1.583   2.296  0.8950  0.2821  0.9451
  220MOL0     C28940   8.909  -1.656   2.411  0.5382  0.6766  0.0344
  220MOL0     C28941   8.876  -1.789   2.404 -0.2408  0.2514 -0.4872
  220MOL0     C28942   8.795  -1.850   2.303  0.6184 -1.0591 -0.7515
  220MOL0     O28943   8.756  -1.979   2.296 -0.3969 -0.6562 -0.3333
  220MOL0     C28944   8.832  -2.086   2.366  0.3472 -0.1298 -0.4336
  220MOL0     C28945   8.757  -2.112   2.501  0.1605 -0.1778  0.2199
  220MOL0     C28946   8.823  -2.209   2.597  0.2632  0.1018 -0.1371
  220MOL0     C28947   8.820  -2.355   2.559 -0.8044 -0.4214  0.1107
  220MOL0     C28948   8.897  -2.442   2.671 -0.6320 -0.1863  0.0676
  220MOL0     C28949   8.967  -2.558   2.593 -0.8558 -1.2633 -0.0701
  220MOL0     C28950   8.991  -2.670   2.683  0.0558 -0.5708 -0.6655
  220MOL0     C28951   9.087  -2.635   2.796  0.0917 -0.0923 -1.0686
  220MOL0    Cl28952   9.150  -2.779   2.882  0.2536  0.3719 -0.1936
  220MOL0     C28953   8.740  -1.761   2.207  1.0588  0.0585 -1.0038
  220MOL0     C28954   8.792  -1.631   2.203 -0.0298 -0.0267  0.1128
  220MOL0     O28955   9.148  -1.486   2.338  0.4456  0.2621  0.3725
  220MOL0     C28956   8.955  -1.177   2.277 -0.2614 -0.7208 -0.9625
  220MOL0     C28957   8.974  -1.040   2.272  1.0025  0.5400  0.2898
  220MOL0     N28958   8.604  -0.545   1.910 -0.2311  0.9515  0.5184
  220MOL0     N28959   8.490  -0.592   1.954 -0.4073  0.4958 -1.0102
  220MOL0     C28960   7.955  -0.134   1.817  1.3157  0.0699  0.1889
  220MOL0     C28961   7.962  -0.007   1.753  0.2586 -0.0589  0.7118
  220MOL0     C28962   8.009   0.455   1.737 -0.0544  0.0010 -0.2073
  220MOL0     C28963   8.111   0.545   1.747 -0.6566  0.0763  0.2658
  220MOL0     C28964   8.103   0.673   1.688 -0.4683  0.1375  0.0801
  220MOL0     C28965   7.984   0.709   1.628 -0.3082 -0.2905  0.2908
  220MOL0     O28966   7.946   0.835   1.588 -0.1037  0.2420  0.5375
  220MOL0     C28967   8.037   0.941   1.603 -0.2881  0.1945  0.1404
  220MOL0     C28968   8.027   0.981   1.748 -0.5207  0.2484 -0.5966
  220MOL0     C28969   8.130   1.093   1.775 -0.8993 -0.2145 -0.2173
  220MOL0     C28970   8.274   1.046   1.796 -1.3507  0.6406 -0.0031
  220MOL0     C28971   8.292   1.031   1.943 -0.5967  0.0348 -0.8154
  220MOL0     C28972   8.318   1.027   2.064  0.7912  0.0960 -0.4022
  220MOL0     C28973   7.887   0.610   1.605  0.0682 -0.1386 -0.0285
  220MOL0     C28974   7.895   0.483   1.654  0.1707  0.1654 -0.9756
  220MOL0     H28975   7.884   0.178   2.022  0.4840 -2.5984  1.2934
  220MOL0     H28976   7.872  -0.032   2.122  0.4409 -1.2109 -0.5097
  220MOL0     H28977   7.704  -0.229   2.034 -1.3210 -0.3029  0.6508
  220MOL0     H28978   7.811  -0.257   2.172 -0.5151  0.9914  0.0332
  220MOL0     H28979   7.767  -0.477   1.973  0.4461  1.4901 -0.5671
  220MOL0     H28980   7.651  -0.464   2.103  1.2467 -4.3350  2.2339
  220MOL0     H28981   7.795  -0.608   2.200 -0.2869 -0.0484 -0.2630
  220MOL0     H28982   7.814  -0.462   2.290  0.2437  0.0415  0.8576
  220MOL0     H28983   7.990  -0.541   2.057  1.3584  0.8129 -0.4945
  220MOL0     H28984   8.027  -0.412   2.177  1.3411 -0.6469  1.1812
  220MOL0     H28985   7.990  -0.663   2.322 -0.3657  0.6781 -1.0407
  220MOL0     H28986   8.130  -0.569   2.319  1.0680 -1.4424 -0.4285
  220MOL0     H28987   8.067  -0.760   2.090 -0.9928  0.6200  1.2673
  220MOL0     H28988   8.174  -0.804   2.237  1.4771  1.8637  0.5888
  220MOL0     H28989   8.249  -0.669   1.994 -2.7837 -1.4222 -1.1283
  220MOL0     H28990   8.228  -0.547   2.112 -0.9707 -0.4554 -3.8879
  220MOL0     H28991   8.394  -0.807   2.133  0.8402 -0.1527 -0.7527
  220MOL0     H28992   8.402  -0.679   2.255  0.6393  0.5405 -0.2792
  220MOL0     H28993   8.683  -0.607   2.221  0.4929  0.7913  0.4124
  220MOL0     H28994   8.831  -0.400   2.047 -0.1569  0.5615  0.0901
  220MOL0     H28995   8.892  -0.521   1.935  0.4676  3.4131 -0.0807
  220MOL0     H28996   8.930  -0.515   2.215  1.7400  1.2431 -0.5583
  220MOL0     H28997   9.030  -0.530   2.074 -0.1690 -2.1643  0.9467
  220MOL0     H28998   8.845  -0.749   2.191  1.4876 -1.9384  1.6720
  220MOL0     H28999   8.965  -0.765   2.057  0.4705 -1.2217  0.9051
  220MOL0     H29000   9.005  -0.776   2.359  2.7946 -3.4311  1.5163
  220MOL0     H29001   9.115  -0.676   2.277 -0.6112  0.1447  1.3332
  220MOL0     H29002   9.308  -1.041   2.235 -1.0797 -0.1936 -2.9532
  220MOL0     H29003   9.286  -1.281   2.277 -1.0853 -0.2117 -3.1027
  220MOL0     H29004   8.983  -1.629   2.486 -1.8740 -0.1960  2.9393
  220MOL0     H29005   8.917  -1.862   2.473  2.1250 -1.5009 -3.4713
  220MOL0     H29006   8.936  -2.069   2.394  0.9309 -1.0761 -1.9063
  220MOL0     H29007   8.822  -2.180   2.311  0.4251 -0.7067  0.5179
  220MOL0     H29008   8.652  -2.136   2.484  0.6994 -1.2258 -1.9780
  220MOL0     H29009   8.747  -2.016   2.554 -2.9601 -0.8151  0.9816
  220MOL0     H29010   8.771  -2.201   2.693 -1.0948 -1.9782 -0.6317
  220MOL0     H29011   8.926  -2.175   2.606  0.9216 -1.8894  0.1506
  220MOL0     H29012   8.722  -2.397   2.535 -0.5352 -0.5836 -0.7549
  220MOL0     H29013   8.872  -2.354   2.462 -0.3558  0.8277  0.3398
  220MOL0     H29014   8.825  -2.471   2.747  0.7025 -0.7424  1.1725
  220MOL0     H29015   8.975  -2.378   2.713  0.8360 -0.7906 -1.5447
  220MOL0     H29016   9.056  -2.520   2.542  0.7563 -2.2825  1.8450
  220MOL0     H29017   8.895  -2.581   2.514 -0.8592 -0.5110 -0.2975
  220MOL0     H29018   8.891  -2.699   2.719  0.4580 -1.6100 -0.3372
  220MOL0     H29019   9.033  -2.752   2.624  1.4447  0.8793 -1.7481
  220MOL0     H29020   9.031  -2.568   2.863  1.3069 -1.7237  1.7729
  220MOL0     H29021   9.175  -2.581   2.760 -0.5686  2.7642  1.1430
  220MOL0     H29022   8.653  -1.792   2.150 -2.4293 -1.1211  4.2111
  220MOL0     H29023   8.748  -1.568   2.126 -1.7164 -0.7935  0.3987
  220MOL0     H29024   8.857  -1.222   2.264  0.0896 -1.3294 -1.5865
  220MOL0     H29025   8.892  -0.968   2.273  1.0682  0.6102  1.5770
  220MOL0     H29026   7.996  -0.225   1.776 -0.4235 -2.0200  2.7445
  220MOL0     H29027   7.972   0.007   1.646  0.0653 -0.5820  0.6209
  220MOL0     H29028   8.194   0.524   1.813  0.7907 -1.2024 -1.8167
  220MOL0     H29029   8.182   0.743   1.710 -0.0375  0.9692 -3.5142
  220MOL0     H29030   8.011   1.027   1.542  3.0649  0.4115 -1.1865
  220MOL0     H29031   8.137   0.912   1.572  0.0481 -5.6975  4.8023
  220MOL0     H29032   7.932   1.030   1.769 -1.1320 -0.5667 -1.3912
  220MOL0     H29033   8.032   0.889   1.808 -1.2080  1.1790  0.9498
  220MOL0     H29034   8.100   1.153   1.861 -1.0634  0.3318 -0.6551
  220MOL0     H29035   8.136   1.174   1.702  0.7986  0.5439  0.7110
  220MOL0     H29036   8.307   0.955   1.744  2.7303  0.3141  2.7376
  220MOL0     H29037   8.335   1.128   1.757 -1.6207  0.2989 -1.1966
  220MOL0     H29038   8.330   1.001   2.168 -2.1554  5.7010  1.7277
  220MOL0     H29039   7.790   0.627   1.561  0.1020  1.2552  0.3856
  220MOL0     H29040   7.820   0.405   1.643  3.2489 -3.2562  0.1287
  221MOL0     O29041   3.160   2.470   5.144  0.5025  0.7468 -0.1583
  221MOL0     C29042   3.236   2.566   5.152  0.4243 -0.0526  0.6164
  221MOL0     O29043   3.219   2.685   5.223  0.3046  0.0228 -0.8241
  221MOL0     C29044   3.093   2.691   5.281 -0.1628 -0.3130 -0.0339
  221MOL0     C29045   2.996   2.758   5.214 -0.0248 -1.3669 -0.3804
  221MOL0     C29046   2.871   2.765   5.274 -0.2057 -0.1043  0.9711
  221MOL0     C29047   2.847   2.710   5.400  0.6777  0.3493 -0.7570
  221MOL0     O29048   2.719   2.723   5.459 -0.1773  0.0314 -0.0490
  221MOL0     C29049   2.598   2.755   5.382  0.0238  0.2436 -0.0696
  221MOL0     C29050   2.484   2.736   5.485 -0.2459  0.2898 -0.3725
  221MOL0     C29051   2.437   2.583   5.503  0.8326 -0.4445 -0.0659
  221MOL0     C29052   2.546   2.500   5.573  1.0604  0.2741  0.5146
  221MOL0     C29053   2.495   2.355   5.614 -0.5337 -0.3385  0.3451
  221MOL0     C29054   2.628   2.279   5.649 -0.4385 -0.4639 -0.5310
  221MOL0     C29055   2.704   2.343   5.767  0.6131 -0.5787 -0.1680
  221MOL0     C29056   2.792   2.246   5.850  0.0202  0.7186 -0.2616
  221MOL0     N29057   2.700   2.155   5.925  0.9328 -0.1717  1.0540
  221MOL0     C29058   2.695   2.022   5.921  0.3892  1.3576 -0.8072
  221MOL0     C29059   2.585   1.987   6.005 -0.3175 -0.5109  0.8453
  221MOL0     C29060   2.555   1.838   6.041 -0.1812  0.4864  0.1308
  221MOL0     C29061   2.533   1.817   6.185  0.4626  0.6036 -0.4484
  221MOL0     C29062   2.650   1.848   6.275  0.0868  0.1103 -0.2923
  221MOL0     C29063   2.625   1.795   6.416  0.6055  0.4551  0.5912
  221MOL0     O29064   2.677   1.874   6.526 -0.1237  0.5131 -0.6687
  221MOL0     C29065   2.655   1.851   6.664  0.4699  0.5262 -0.3814
  221MOL0     C29066   2.736   1.916   6.760 -0.8433 -0.1115  0.2967
  221MOL0     C29067   2.735   1.881   6.898  0.8316  0.2322  0.1757
  221MOL0     C29068   2.628   1.799   6.936 -1.0800 -0.2329  0.3601
  221MOL0     C29069   2.618   1.768   7.083 -1.0810 -0.6451 -0.0026
  221MOL0     O29070   2.508   1.690   7.118 -0.2945 -0.2372  0.2510
  221MOL0     C29071   2.508   1.649   7.254  0.1176  0.0664 -0.7510
  221MOL0     C29072   2.422   1.710   7.345  0.9359  0.0959 -0.3596
  221MOL0     C29073   2.426   1.683   7.481  0.7493 -0.2244  1.4990
  221MOL0     C29074   2.506   1.582   7.524  0.4914 -0.2507 -0.0829
  221MOL0     O29075   2.518   1.576   7.660  0.6746  0.4578 -0.4318
  221MOL0     C29076   2.610   1.493   7.731 -0.7707 -0.2301 -0.2393
  221MOL0     C29077   2.599   1.553   7.880  0.3101 -1.4758  0.7584
  221MOL0     C29078   2.462   1.512   7.954 -0.7086 -0.1367  0.7545
  221MOL0     C29079   2.425   1.631   8.046 -0.1098 -0.1216  0.1967
  221MOL0     C29080   2.306   1.592   8.148 -0.4185 -0.7751 -0.0645
  221MOL0     C29081   2.173   1.598   8.089 -0.1687 -0.2118  0.5808
  221MOL0     C29082   2.064   1.524   8.168 -0.6945  0.1473 -0.0078
  221MOL0     C29083   2.042   1.598   8.304 -0.4200  0.6195  0.2378
  221MOL0    Cl29084   2.080   1.777   8.303  0.2797 -0.0003 -0.0649
  221MOL0     C29085   2.585   1.516   7.429  0.0386  0.6429 -0.1764
  221MOL0     C29086   2.589   1.549   7.294  1.3447 -0.4293  0.1852
  221MOL0     O29087   2.716   1.801   7.158 -0.0447  0.5703  0.5533
  221MOL0     C29088   2.529   1.752   6.846 -0.1545 -0.0629  0.9332
  221MOL0     C29089   2.542   1.783   6.708 -0.7030 -0.1966  0.4543
  221MOL0     N29090   2.539   2.107   6.045  0.4740 -0.3936  0.2046
  221MOL0     N29091   2.598   2.211   5.995 -0.0920  0.0029 -0.0628
  221MOL0     C29092   2.951   2.645   5.474  0.2886 -0.1072  0.2148
  221MOL0     C29093   3.078   2.643   5.408  1.4010  0.3157  0.8578
  221MOL0     C29094   3.366   2.546   5.088  0.3391 -0.0049 -0.2068
  221MOL0     C29095   3.450   2.660   5.067 -1.1077 -0.8486  0.6232
  221MOL0     C29096   3.571   2.633   5.014  0.0097  0.1619 -0.0380
  221MOL0     C29097   3.624   2.507   4.984 -1.2099  0.4972  0.2357
  221MOL0     O29098   3.758   2.502   4.935  0.2802  0.7913 -0.4163
  221MOL0     C29099   3.810   2.389   4.869  0.1956 -0.9447  0.3825
  221MOL0     C29100   3.732   2.363   4.735 -0.3494  1.1306 -0.8978
  221MOL0     C29101   3.794   2.253   4.662 -0.4199  1.4033 -0.7445
  221MOL0     C29102   3.704   2.218   4.537  0.8675 -0.2881 -0.7466
  221MOL0     C29103   3.598   2.130   4.588 -0.6931 -0.3575  0.3397
  221MOL0     C29104   3.535   2.045   4.641  0.4288  1.2828  0.3162
  221MOL0     C29105   3.535   2.400   5.011  0.0629 -0.5067 -0.1478
  221MOL0     C29106   3.401   2.416   5.052  0.3734  0.6098  0.2537
  221MOL0     H29107   3.006   2.790   5.111  4.4881 -3.5562 -0.8588
  221MOL0     H29108   2.793   2.822   5.227  0.7461  1.5029  1.2823
  221MOL0     H29109   2.593   2.691   5.294  1.7709  1.1063 -0.8641
  221MOL0     H29110   2.587   2.859   5.350  3.0117  0.5004 -0.6011
  221MOL0     H29111   2.397   2.795   5.456  1.2024  2.0048 -1.4207
  221MOL0     H29112   2.524   2.774   5.580  0.4697 -1.8565  0.2614
  221MOL0     H29113   2.413   2.545   5.403  2.7125  0.7762 -1.0443
  221MOL0     H29114   2.346   2.573   5.563  1.2724 -0.3130  0.6226
  221MOL0     H29115   2.640   2.501   5.516  0.0128  0.5756 -1.3004
  221MOL0     H29116   2.573   2.559   5.661  0.3195  0.3216  0.7141
  221MOL0     H29117   2.451   2.307   5.526 -0.5360  1.4233 -0.6597
  221MOL0     H29118   2.448   2.358   5.713 -1.4509 -0.5667 -0.0804
  221MOL0     H29119   2.692   2.265   5.562  3.1370 -0.3072  1.8556
  221MOL0     H29120   2.590   2.182   5.683 -1.1378 -0.5964 -1.6310
  221MOL0     H29121   2.766   2.426   5.730  0.5873 -0.4883 -0.0088
  221MOL0     H29122   2.633   2.396   5.831 -0.6096 -1.4984 -0.7245
  221MOL0     H29123   2.860   2.302   5.915 -0.5655  1.6117 -0.4026
  221MOL0     H29124   2.855   2.198   5.774 -0.8549 -1.8350  0.4998
  221MOL0     H29125   2.770   1.960   5.872  1.8767  2.7932 -0.4299
  221MOL0     H29126   2.636   1.775   6.001 -1.5696  0.2237 -2.4926
  221MOL0     H29127   2.461   1.810   5.993 -1.2636  0.6995  2.0107
  221MOL0     H29128   2.515   1.709   6.195  4.5988 -0.1579  0.3252
  221MOL0     H29129   2.451   1.879   6.222  1.3902  1.5136  0.1317
  221MOL0     H29130   2.741   1.797   6.241  3.2574  2.9744  3.0588
  221MOL0     H29131   2.666   1.956   6.282 -2.0937  0.4072  0.9119
  221MOL0     H29132   2.665   1.694   6.420 -0.1296  0.0464 -1.1981
  221MOL0     H29133   2.518   1.786   6.435 -0.1059  3.6323 -1.1476
  221MOL0     H29134   2.817   1.978   6.722  0.2517 -1.3722  0.4693
  221MOL0     H29135   2.809   1.923   6.965  0.2195 -1.7789  2.2176
  221MOL0     H29136   2.358   1.791   7.311 -0.8742 -0.3708  1.6734
  221MOL0     H29137   2.362   1.742   7.546 -1.1263  0.8207 -1.1028
  221MOL0     H29138   2.714   1.497   7.696  1.5681  1.2358  5.6805
  221MOL0     H29139   2.579   1.388   7.729 -1.0033 -0.1751  0.2272
  221MOL0     H29140   2.614   1.660   7.863 -1.0946 -1.1333  1.5979
  221MOL0     H29141   2.682   1.516   7.942  0.0747 -3.6295 -0.1172
  221MOL0     H29142   2.466   1.427   8.022 -0.7487 -2.3351 -1.8449
  221MOL0     H29143   2.377   1.488   7.890 -1.1037  0.6819  0.9500
  221MOL0     H29144   2.516   1.658   8.101  1.7133  1.9934 -3.4522
  221MOL0     H29145   2.396   1.712   7.979 -1.6460 -1.0742 -0.3292
  221MOL0     H29146   2.312   1.665   8.230  1.7426  1.8982 -2.3706
  221MOL0     H29147   2.325   1.489   8.179  0.5189 -0.1773  1.4744
  221MOL0     H29148   2.176   1.551   7.990  3.5389  1.9811 -0.5325
  221MOL0     H29149   2.149   1.704   8.084 -0.4543 -0.0776  3.2821
  221MOL0     H29150   1.970   1.518   8.112 -1.1326 -0.2622  0.7642
  221MOL0     H29151   2.100   1.423   8.190  1.0797  0.9942  1.2132
  221MOL0     H29152   2.100   1.546   8.380  1.4503  1.0013 -0.8655
  221MOL0     H29153   1.935   1.578   8.316 -0.3096 -0.5212 -0.4864
  221MOL0     H29154   2.663   1.444   7.455  1.6247  2.7033  1.0477
  221MOL0     H29155   2.666   1.497   7.237 -0.2442 -2.6198 -0.0974
  221MOL0     H29156   2.445   1.693   6.880  0.7540 -4.4914 -3.4691
  221MOL0     H29157   2.467   1.759   6.632 -3.5237 -0.6189  3.1591
  221MOL0     H29158   2.935   2.612   5.576 -1.3103 -0.0746 -0.0095
  221MOL0     H29159   3.164   2.615   5.467 -0.1804 -1.9755  2.2798
  221MOL0     H29160   3.420   2.761   5.090  0.1178  0.2119 -1.9794
  221MOL0     H29161   3.638   2.717   5.002 -2.3481  2.4516  1.7417
  221MOL0     H29162   3.818   2.293   4.921 -0.2444 -0.1773  1.9272
  221MOL0     H29163   3.913   2.419   4.848 -0.3925 -0.5247 -2.3612
  221MOL0     H29164   3.622   2.360   4.743 -0.8941  5.3701 -3.4824
  221MOL0     H29165   3.735   2.448   4.666  1.4652 -0.9148 -3.4900
  221MOL0     H29166   3.799   2.165   4.727 -0.2039  0.3695 -2.1118
  221MOL0     H29167   3.892   2.285   4.627 -0.7332  3.0651 -0.1564
  221MOL0     H29168   3.657   2.305   4.490 -0.6704  0.0902  1.3704
  221MOL0     H29169   3.771   2.174   4.462 -1.4879 -0.3697 -2.9266
  221MOL0     H29170   3.494   1.950   4.672  2.5101 -0.4457 -1.8877
  221MOL0     H29171   3.572   2.299   4.994 -0.6743 -0.6467 -1.0500
  221MOL0     H29172   3.332   2.333   5.045  1.3759 -0.2923  0.7076
  222MOL0     O29173   2.328   4.116  10.879  0.3306 -0.6200 -0.1967
  222MOL0     C29174   2.262   4.179  10.797 -0.7281  0.1204  0.2180
  222MOL0     O29175   2.244   4.318  10.795  0.2806  0.4730  0.3148
  222MOL0     C29176   2.302   4.392  10.895  0.4335  0.1401  0.0093
  222MOL0     C29177   2.316   4.348  11.033 -0.0847  0.0815 -0.2527
  222MOL0     C29178   2.372   4.437  11.125 -0.2343  0.3620 -0.5491
  222MOL0     C29179   2.422   4.562  11.083  0.4590 -0.4451  0.4082
  222MOL0     O29180   2.488   4.643  11.178  0.3859 -0.5320  0.1971
  222MOL0     C29181   2.482   4.631  11.323 -0.2954 -0.1715 -0.5934
  222MOL0     C29182   2.602   4.575  11.388 -0.0370  0.3135 -0.0814
  222MOL0     C29183   2.737   4.649  11.367 -0.4665 -0.3369  0.0909
  222MOL0     C29184   2.860   4.570  11.422  1.1256 -1.1156 -0.2434
  222MOL0     C29185   2.989   4.658  11.417 -0.0956 -0.3247 -0.1638
  222MOL0     C29186   3.119   4.585  11.375  0.0073  0.7329  0.2384
  222MOL0     C29187   3.166   4.480  11.472  0.1433  0.0927 -0.5002
  222MOL0     C29188   3.319   4.456  11.465 -1.0204 -0.1123 -0.2204
  222MOL0     N29189   3.358   4.344  11.554 -0.2829 -1.3103  0.3030
  222MOL0     C29190   3.411   4.224  11.525 -0.2603  0.4702 -0.3314
  222MOL0     C29191   3.404   4.149  11.637  0.0444 -0.7065  0.3845
  222MOL0     C29192   3.458   4.004  11.655 -0.9216  0.0536 -0.5269
  222MOL0     C29193   3.355   3.892  11.638  0.7894 -0.8622  1.1246
  222MOL0     C29194   3.419   3.753  11.657 -0.9401 -1.3583 -0.8715
  222MOL0     C29195   3.332   3.639  11.629  0.1673  0.5611  0.8439
  222MOL0     O29196   3.221   3.641  11.716 -0.4751 -0.6702  0.8481
  222MOL0     C29197   3.239   3.596  11.840 -0.0664 -0.2268 -0.4361
  222MOL0     C29198   3.320   3.494  11.891 -0.1034  0.4325 -0.2308
  222MOL0     C29199   3.322   3.459  12.027  0.0357  0.3062 -0.1632
  222MOL0     C29200   3.255   3.543  12.123 -0.2034  0.6629 -0.2733
  222MOL0     C29201   3.277   3.526  12.271  0.9455 -0.1468 -0.4787
  222MOL0     O29202   3.195   3.601  12.361 -0.2333 -0.2199 -0.2780
  222MOL0     C29203   3.176   3.558  12.496  0.2016 -0.5199 -0.6809
  222MOL0     C29204   3.100   3.651  12.566  0.2635 -0.7237  0.2092
  222MOL0     C29205   3.053   3.627  12.692 -0.7680 -0.4957 -0.3808
  222MOL0     C29206   3.078   3.503  12.750 -0.5801  0.2896 -0.4488
  222MOL0     O29207   3.029   3.464  12.875 -0.3738 -0.1822 -0.5069
  222MOL0     C29208   2.951   3.558  12.948 -0.1736 -0.2165 -0.2744
  222MOL0     C29209   2.880   3.493  13.066  0.5028 -0.4844 -0.1242
  222MOL0     C29210   2.970   3.404  13.152  0.0585  0.8354  0.0774
  222MOL0     C29211   2.876   3.311  13.247 -0.7537 -1.1788 -0.1225
  222MOL0     C29212   2.969   3.225  13.340 -0.0387  0.5913  0.1513
  222MOL0     C29213   3.003   3.316  13.465  0.0517  0.5560 -0.4273
  222MOL0     C29214   3.100   3.244  13.559 -1.2758  0.5379  0.7983
  222MOL0     C29215   3.257   3.245  13.517 -0.0169  0.1445 -0.5385
  222MOL0    Cl29216   3.328   3.407  13.540  0.0144  0.2574 -0.3226
  222MOL0     C29217   3.146   3.404  12.681  0.6054  0.7378  0.1543
  222MOL0     C29218   3.200   3.432  12.553  0.0041  0.3292 -0.6922
  222MOL0     O29219   3.346   3.427  12.304 -0.5733 -0.2389  0.0414
  222MOL0     C29220   3.183   3.645  12.079 -0.6857  0.0551  0.4694
  222MOL0     C29221   3.172   3.673  11.939  0.7690  0.1579 -0.0958
  222MOL0     N29222   3.338   4.208  11.736  0.1999 -0.1664  0.9753
  222MOL0     N29223   3.308   4.331  11.687 -0.2988  0.8881  0.1866
  222MOL0     C29224   2.409   4.611  10.949 -0.9096 -0.2526 -0.7270
  222MOL0     C29225   2.354   4.524  10.859  0.6405 -0.0109 -0.7532
  222MOL0     C29226   2.189   4.114  10.679 -0.4170 -0.0269  0.2203
  222MOL0     C29227   2.248   3.993  10.627 -0.9949 -0.2077  0.0970
  222MOL0     C29228   2.178   3.926  10.520  0.1919  0.8376  1.1558
  222MOL0     C29229   2.047   3.951  10.493 -0.7561  1.2255 -0.5929
  222MOL0     O29230   1.972   3.870  10.409 -0.3633  0.2246  0.4696
  222MOL0     C29231   2.012   3.739  10.359 -0.3492 -0.2133  0.0814
  222MOL0     C29232   1.925   3.696  10.239  0.9767 -0.4829 -0.2675
  222MOL0     C29233   1.774   3.725  10.264 -0.3162 -0.2931 -0.6912
  222MOL0     C29234   1.682   3.677  10.164  0.0792  0.3072 -0.1456
  222MOL0     C29235   1.664   3.530  10.175  0.4173 -0.8183 -1.1243
  222MOL0     C29236   1.660   3.416  10.213 -0.3392  0.0267 -0.1321
  222MOL0     C29237   1.994   4.065  10.549  0.0515 -0.3713  0.4301
  222MOL0     C29238   2.065   4.149  10.640 -0.2125  0.1564  0.4621
  222MOL0     H29239   2.275   4.255  11.071  1.2725 -0.1737  0.6829
  222MOL0     H29240   2.383   4.399  11.226 -4.2390 -1.8287 -0.7332
  222MOL0     H29241   2.392   4.580  11.359  0.9529 -0.3712  2.6485
  222MOL0     H29242   2.479   4.737  11.351 -4.4324 -0.5117  0.9140
  222MOL0     H29243   2.622   4.474  11.351  0.5245  1.0363 -1.8789
  222MOL0     H29244   2.566   4.578  11.491 -0.5172  1.9482 -0.2693
  222MOL0     H29245   2.730   4.751  11.405  3.4471  1.8474 -4.1202
  222MOL0     H29246   2.757   4.674  11.263  2.0690  0.0689  0.6062
  222MOL0     H29247   2.842   4.523  11.520  2.2356  0.2094  0.6324
  222MOL0     H29248   2.873   4.482  11.358  1.3081 -1.6440  0.4932
  222MOL0     H29249   3.009   4.719  11.506  0.3990  1.0226 -1.1605
  222MOL0     H29250   2.979   4.731  11.336  1.1951 -0.2214 -0.2471
  222MOL0     H29251   3.201   4.652  11.343  1.7093 -2.4953 -2.9901
  222MOL0     H29252   3.092   4.539  11.279  1.0204  0.6669 -0.0341
  222MOL0     H29253   3.150   4.511  11.575 -2.3460 -1.7167 -0.2333
  222MOL0     H29254   3.102   4.391  11.471  1.7884 -1.1741  0.7831
  222MOL0     H29255   3.376   4.545  11.495  0.1845 -0.2669 -1.8968
  222MOL0     H29256   3.337   4.439  11.359 -0.7686 -1.7867  0.0633
  222MOL0     H29257   3.443   4.189  11.428 -1.6488  0.6319 -0.8791
  222MOL0     H29258   3.500   3.994  11.755 -0.3400  0.9945 -0.6696
  222MOL0     H29259   3.536   3.978  11.584 -1.3379 -1.9719 -0.3151
  222MOL0     H29260   3.316   3.906  11.536  0.1020  2.1044  1.7137
  222MOL0     H29261   3.279   3.895  11.716 -0.7644  0.1527 -0.3592
  222MOL0     H29262   3.515   3.740  11.606  0.5864  0.6837  1.2877
  222MOL0     H29263   3.442   3.761  11.763  1.7868  1.4310 -1.5529
  222MOL0     H29264   3.384   3.545  11.648 -0.7172  0.1048  1.0505
  222MOL0     H29265   3.295   3.648  11.527 -0.8427  3.9095  1.3915
  222MOL0     H29266   3.378   3.423  11.833  0.7317  0.2372  0.8098
  222MOL0     H29267   3.375   3.368  12.055  1.5168  1.5432  1.2063
  222MOL0     H29268   3.084   3.750  12.525 -3.5957 -1.0111  0.6133
  222MOL0     H29269   3.011   3.704  12.756  0.7703 -1.0964  1.4651
  222MOL0     H29270   2.868   3.599  12.891  0.1344  3.9887  1.9345
  222MOL0     H29271   3.018   3.631  12.994  0.0738 -0.9379  0.5519
  222MOL0     H29272   2.802   3.435  13.015  0.2568 -0.4019  0.1556
  222MOL0     H29273   2.828   3.574  13.118 -2.6314 -0.8722 -2.3679
  222MOL0     H29274   3.040   3.470  13.205 -1.3881  1.0090  1.9060
  222MOL0     H29275   3.007   3.334  13.077 -1.9208  0.1961 -0.3568
  222MOL0     H29276   2.812   3.370  13.313 -0.2420  0.2473 -0.8661
  222MOL0     H29277   2.815   3.258  13.173 -0.1361  0.2188 -1.7000
  222MOL0     H29278   3.058   3.207  13.280  0.9803  1.0728  1.4777
  222MOL0     H29279   2.919   3.131  13.368 -2.7598  1.7326 -0.5426
  222MOL0     H29280   2.920   3.359  13.522  0.0057  0.7863 -0.6671
  222MOL0     H29281   3.051   3.402  13.418  0.7814 -0.1830 -1.0585
  222MOL0     H29282   3.093   3.277  13.663 -1.5643  0.2017  0.8896
  222MOL0     H29283   3.068   3.139  13.552 -0.1396  0.2448 -0.5536
  222MOL0     H29284   3.260   3.212  13.413 -0.5182  0.2936 -0.6048
  222MOL0     H29285   3.312   3.178  13.584 -2.1569 -2.0266 -0.7935
  222MOL0     H29286   3.157   3.312  12.739 -2.2698 -0.2950 -0.7584
  222MOL0     H29287   3.267   3.356  12.514 -0.8950 -0.0661 -1.4790
  222MOL0     H29288   3.153   3.724  12.146  0.5874  0.5725  0.4557
  222MOL0     H29289   3.119   3.758  11.897  3.7947  0.7998 -3.1064
  222MOL0     H29290   2.459   4.702  10.918  2.2536 -1.2281  1.0819
  222MOL0     H29291   2.320   4.548  10.759 -1.6824 -1.4437 -0.3830
  222MOL0     H29292   2.350   3.975  10.658 -1.5576 -0.5286  1.9016
  222MOL0     H29293   2.225   3.837  10.481 -2.2066 -0.5023  1.1439
  222MOL0     H29294   1.993   3.675  10.446 -1.2158  1.7130  1.3914
  222MOL0     H29295   2.117   3.740  10.328  0.0717 -0.2780  1.4267
  222MOL0     H29296   1.955   3.749  10.148 -2.8805 -1.2205 -2.1703
  222MOL0     H29297   1.938   3.589  10.225 -2.2725 -0.6856 -3.1769
  222MOL0     H29298   1.759   3.832  10.280  1.2482 -0.1922  0.2763
  222MOL0     H29299   1.754   3.682  10.363 -0.1358  0.2408 -0.4217
  222MOL0     H29300   1.588   3.727  10.188  0.2662  1.1208 -1.0235
  222MOL0     H29301   1.718   3.705  10.064 -0.1134  0.4659 -0.1723
  222MOL0     H29302   1.663   3.312  10.241  1.8802  0.3864  1.2383
  222MOL0     H29303   1.889   4.078  10.528  0.2159 -1.3857 -1.2092
  222MOL0     H29304   2.022   4.227  10.703  1.0472 -1.0145  2.9096
  223MOL0     O29305   4.441   7.225  10.948 -0.3507  0.6549 -0.1319
  223MOL0     C29306   4.517   7.298  11.010 -0.1582  0.6943  0.4188
  223MOL0     O29307   4.641   7.262  11.052 -0.8086  0.6603  0.9818
  223MOL0     C29308   4.697   7.140  11.028  0.5015  0.0891 -0.1741
  223MOL0     C29309   4.625   7.018  10.998  0.8796  0.5215 -0.1659
  223MOL0     C29310   4.698   6.906  10.958 -0.8787  0.5429 -0.2853
  223MOL0     C29311   4.838   6.915  10.931  0.8577 -0.1868  0.4612
  223MOL0     O29312   4.922   6.810  10.896 -0.3804 -0.3582  0.8857
  223MOL0     C29313   4.858   6.694  10.839 -0.0506 -0.1702  0.2724
  223MOL0     C29314   4.812   6.703  10.688  0.7143 -0.0547 -0.5570
  223MOL0     C29315   4.769   6.566  10.641 -0.4756 -0.5478  0.2319
  223MOL0     C29316   4.677   6.550  10.510 -0.1952  0.3700  0.2401
  223MOL0     C29317   4.630   6.409  10.466  0.6678  0.6349  0.2014
  223MOL0     C29318   4.647   6.409  10.311  0.8422  0.6540 -0.1238
  223MOL0     C29319   4.633   6.269  10.249  0.5611  0.8207  0.8640
  223MOL0     C29320   4.530   6.176  10.316 -0.2547 -0.6277  0.6516
  223MOL0     N29321   4.548   6.045  10.262  1.0487  0.5317 -0.0228
  223MOL0     C29322   4.437   5.966  10.252 -0.9421  0.4829 -0.3384
  223MOL0     C29323   4.495   5.846  10.202  1.1310  0.1453 -0.8668
  223MOL0     C29324   4.410   5.719  10.183  0.4960  1.0261 -0.8017
  223MOL0     C29325   4.503   5.603  10.143 -0.7713 -0.2820 -0.0711
  223MOL0     C29326   4.550   5.558  10.284 -0.2634  0.7238 -0.3386
  223MOL0     C29327   4.704   5.525  10.289  0.3113  0.7321  1.0233
  223MOL0     O29328   4.742   5.466  10.412 -0.2164  0.4106  0.1377
  223MOL0     C29329   4.796   5.536  10.517  1.3265 -0.0936 -0.3925
  223MOL0     C29330   4.771   5.673  10.521 -0.4117 -0.1819 -0.4607
  223MOL0     C29331   4.805   5.745  10.638 -0.3403  0.6914 -0.0126
  223MOL0     C29332   4.874   5.684  10.746  0.4830  1.3642 -0.3401
  223MOL0     C29333   4.941   5.760  10.850 -0.2362 -0.0820  0.9737
  223MOL0     O29334   5.042   5.698  10.932  0.2991  0.3447 -0.3781
  223MOL0     C29335   5.128   5.780  10.991 -0.9675 -0.0287 -1.2507
  223MOL0     C29336   5.143   5.786  11.130  0.4741  0.6054 -0.4937
  223MOL0     C29337   5.247   5.858  11.187 -0.2199  0.1197  0.5779
  223MOL0     C29338   5.341   5.920  11.108  0.1440  0.7798 -0.2386
  223MOL0     O29339   5.445   5.997  11.161 -0.0199  0.0327  0.5321
  223MOL0     C29340   5.434   6.063  11.290 -0.4847  0.7789  0.1778
  223MOL0     C29341   5.489   5.989  11.408 -0.0433  0.5835 -0.2560
  223MOL0     C29342   5.642   5.975  11.390 -0.5351  0.5340 -0.7994
  223MOL0     C29343   5.692   5.891  11.512  0.0165 -0.0012 -0.1978
  223MOL0     C29344   5.826   5.815  11.495 -0.8643 -0.4598 -0.1738
  223MOL0     C29345   5.932   5.910  11.444 -0.1142  0.0081  0.6362
  223MOL0     C29346   5.996   6.000  11.550 -0.2034 -0.7795 -0.1625
  223MOL0     C29347   6.089   6.102  11.485  0.5064 -0.5609 -0.6250
  223MOL0    Cl29348   6.201   6.167  11.605 -0.0007  0.6401 -0.1448
  223MOL0     C29349   5.335   5.912  10.969  0.3121 -0.1656  0.1897
  223MOL0     C29350   5.228   5.846  10.911 -0.9979 -0.6524  0.2146
  223MOL0     O29351   4.896   5.875  10.875 -0.3308 -0.8258  0.3416
  223MOL0     C29352   4.911   5.546  10.734  0.2044 -0.0670 -0.4541
  223MOL0     C29353   4.865   5.473  10.623 -0.1956  0.5035 -0.2499
  223MOL0     N29354   4.632   5.854  10.214 -0.3878 -0.2560  0.3914
  223MOL0     N29355   4.663   5.973  10.255 -0.1498  0.5902 -0.1101
  223MOL0     C29356   4.904   7.030  10.983 -0.0906  0.3186  0.5141
  223MOL0     C29357   4.837   7.149  11.031  1.0617  0.3221  0.9797
  223MOL0     C29358   4.465   7.427  11.055 -0.5127  0.0031  0.3263
  223MOL0     C29359   4.368   7.493  10.979 -0.6159  0.0720  0.1496
  223MOL0     C29360   4.340   7.626  11.020  0.6383 -0.5900  0.4446
  223MOL0     C29361   4.404   7.694  11.130  0.7671  0.0256 -0.1302
  223MOL0     O29362   4.385   7.820  11.185  0.1342 -0.7414 -0.4553
  223MOL0     C29363   4.257   7.879  11.152 -0.1109 -0.2831 -0.6430
  223MOL0     C29364   4.155   7.803  11.226  0.5541  0.2188 -0.4231
  223MOL0     C29365   4.184   7.812  11.375  0.5586 -0.4904  0.3828
  223MOL0     C29366   4.046   7.803  11.461  0.1360  0.1673  0.5433
  223MOL0     C29367   3.977   7.931  11.462 -0.1192  0.4144  1.0304
  223MOL0     C29368   3.899   8.024  11.455 -1.1324  0.4882 -0.2252
  223MOL0     C29369   4.491   7.612  11.204 -0.0090 -0.4924 -0.1893
  223MOL0     C29370   4.521   7.477  11.168  0.3831 -1.1221 -0.0851
  223MOL0     H29371   4.519   6.999  10.990  1.0472 -0.4090 -0.2639
  223MOL0     H29372   4.647   6.823  10.911  0.4861 -1.8856  2.2468
  223MOL0     H29373   4.771   6.663  10.898 -2.0368  0.1608 -2.3155
  223MOL0     H29374   4.929   6.612  10.856 -1.5898 -1.2622  1.8210
  223MOL0     H29375   4.882   6.763  10.630  0.7891 -1.1988 -1.6879
  223MOL0     H29376   4.727   6.772  10.694  1.2055  0.4789  0.8003
  223MOL0     H29377   4.716   6.518  10.723 -3.2886 -1.8960 -2.2079
  223MOL0     H29378   4.863   6.512  10.625  0.4704  1.3881 -1.1758
  223MOL0     H29379   4.584   6.602  10.536  0.1446  0.2206  1.8162
  223MOL0     H29380   4.733   6.599  10.430 -0.6848  1.1773  0.3756
  223MOL0     H29381   4.530   6.395  10.507  0.3535 -1.6673 -1.1415
  223MOL0     H29382   4.705   6.343  10.511 -0.6677  0.4100  2.2033
  223MOL0     H29383   4.748   6.443  10.287  0.6817  1.6143  0.5054
  223MOL0     H29384   4.573   6.474  10.264 -2.2324  0.5350  3.9801
  223MOL0     H29385   4.606   6.264  10.143  0.4812 -0.3334  0.9303
  223MOL0     H29386   4.732   6.222  10.252  1.1909  2.0519  0.2168
  223MOL0     H29387   4.432   6.216  10.290 -1.2015 -3.0131  0.3791
  223MOL0     H29388   4.552   6.169  10.423  2.4125 -1.8848  0.1094
  223MOL0     H29389   4.334   5.988  10.275 -0.1154  1.7351  2.5998
  223MOL0     H29390   4.332   5.747  10.111 -0.5763 -0.8917 -0.4386
  223MOL0     H29391   4.355   5.681  10.269  2.1476 -1.2626 -0.6586
  223MOL0     H29392   4.585   5.653  10.090 -0.8719  1.7238  1.5103
  223MOL0     H29393   4.455   5.522  10.088 -1.0782 -1.6330  2.0704
  223MOL0     H29394   4.533   5.628  10.366  1.7698 -0.3996  1.1481
  223MOL0     H29395   4.494   5.471  10.318  1.5630  1.1077  4.3975
  223MOL0     H29396   4.763   5.614  10.265  1.6414 -0.1240  0.9820
  223MOL0     H29397   4.740   5.461  10.207  0.2994 -0.6197  2.0415
  223MOL0     H29398   4.732   5.734  10.440 -4.9685  1.9460  2.8478
  223MOL0     H29399   4.767   5.845  10.651  0.0845  0.4773  4.2053
  223MOL0     H29400   5.096   5.715  11.197 -1.0697  0.8969 -1.2244
  223MOL0     H29401   5.248   5.854  11.295  1.4166  0.2725  0.5949
  223MOL0     H29402   5.327   6.076  11.309 -0.0972  1.4680  2.1725
  223MOL0     H29403   5.471   6.166  11.289 -5.1111  2.7279  1.3599
  223MOL0     H29404   5.446   5.890  11.425 -0.5925  0.6560 -1.1620
  223MOL0     H29405   5.490   6.051  11.499  3.8008 -1.8959  1.6828
  223MOL0     H29406   5.686   6.074  11.384 -1.8683  1.4686  2.4260
  223MOL0     H29407   5.646   5.919  11.296 -1.7321  0.7521 -0.9977
  223MOL0     H29408   5.697   5.957  11.599 -0.7106  0.2515 -0.3457
  223MOL0     H29409   5.619   5.816  11.543 -1.4294  1.7443  0.7880
  223MOL0     H29410   5.825   5.723  11.436  3.2042 -2.4476  2.3723
  223MOL0     H29411   5.852   5.780  11.596 -1.2433 -0.6921 -0.1534
  223MOL0     H29412   5.899   5.968  11.358  0.1015  0.7468  1.0505
  223MOL0     H29413   6.001   5.847  11.387  1.1592 -0.0241  2.1270
  223MOL0     H29414   5.918   6.050  11.608 -1.5833 -1.2753 -1.5193
  223MOL0     H29415   6.064   5.948  11.618  0.7556 -0.9623 -1.2394
  223MOL0     H29416   6.032   6.189  11.451  2.0453  1.7058  2.1578
  223MOL0     H29417   6.141   6.054  11.403  0.0130  0.0389 -1.3035
  223MOL0     H29418   5.405   5.962  10.904 -1.1291  2.6111  0.5931
  223MOL0     H29419   5.220   5.840  10.803 -5.0320  3.0402  0.0484
  223MOL0     H29420   4.972   5.498  10.810  1.5109  0.1212 -1.3634
  223MOL0     H29421   4.897   5.370  10.616  0.0824  0.4998  0.8595
  223MOL0     H29422   5.007   7.039  10.951 -0.7285 -1.7835 -2.6122
  223MOL0     H29423   4.895   7.241  11.036  1.2105  0.3611 -0.7536
  223MOL0     H29424   4.326   7.453  10.887  0.6544 -0.6718 -0.1363
  223MOL0     H29425   4.272   7.688  10.963  0.8897 -0.5251  0.2174
  223MOL0     H29426   4.228   7.871  11.047 -1.7788  3.6228 -0.6422
  223MOL0     H29427   4.259   7.984  11.184  0.0075 -0.1776 -1.0030
  223MOL0     H29428   4.062   7.848  11.191 -0.1405 -2.0256 -1.6961
  223MOL0     H29429   4.147   7.697  11.198 -1.7940  0.1204  0.3709
  223MOL0     H29430   4.229   7.907  11.406 -1.7173  0.3272  1.3555
  223MOL0     H29431   4.252   7.733  11.410 -0.2437 -1.3399  0.0782
  223MOL0     H29432   3.975   7.726  11.429  2.8571 -2.7677  1.0958
  223MOL0     H29433   4.067   7.766  11.561  1.4062 -1.9590 -0.4319
  223MOL0     H29434   3.851   8.120  11.457 -0.2353  0.9467  0.1472
  223MOL0     H29435   4.533   7.642  11.299  0.5839 -1.3694 -0.1594
  223MOL0     H29436   4.597   7.437  11.234 -2.3803  1.5066  5.3571
  224MOL0     O29437   5.781   9.302   3.516  0.5537  0.8727  0.5009
  224MOL0     C29438   5.676   9.293   3.442  0.7335 -0.0630  0.3618
  224MOL0     O29439   5.610   9.173   3.407 -0.1251 -0.2614  0.4840
  224MOL0     C29440   5.650   9.040   3.442 -0.2212  0.0289 -0.2501
  224MOL0     C29441   5.578   8.935   3.387 -0.2462 -0.4223 -0.1308
  224MOL0     C29442   5.602   8.801   3.423 -0.1167  0.3905  0.6682
  224MOL0     C29443   5.715   8.767   3.507  0.2710 -0.0822  0.6695
  224MOL0     O29444   5.775   8.647   3.528 -0.1902  0.4770 -0.2270
  224MOL0     C29445   5.727   8.523   3.484  0.9787  1.8411  0.9696
  224MOL0     C29446   5.805   8.416   3.565  0.4436  1.6803 -0.0072
  224MOL0     C29447   5.763   8.280   3.501  0.0376 -0.3152 -0.8086
  224MOL0     C29448   5.838   8.244   3.378 -0.2789 -1.2984  0.2563
  224MOL0     C29449   5.793   8.105   3.315 -0.3713 -0.1045 -0.2716
  224MOL0     C29450   5.779   8.108   3.175  0.8888  0.1745  0.6461
  224MOL0     C29451   5.659   8.193   3.139  0.3395 -0.7082 -0.1967
  224MOL0     C29452   5.617   8.176   2.987 -0.4594  0.2751 -0.9174
  224MOL0     N29453   5.502   8.261   2.938  0.3454 -1.3065  0.2434
  224MOL0     C29454   5.512   8.396   2.913 -0.9788 -0.2942 -0.4405
  224MOL0     C29455   5.391   8.437   2.859  0.9302 -0.0771 -1.2833
  224MOL0     C29456   5.353   8.572   2.811 -0.3903 -1.0485  1.0172
  224MOL0     C29457   5.319   8.573   2.665 -0.0201  0.4207 -0.5697
  224MOL0     C29458   5.288   8.711   2.604 -0.1145 -0.4859  0.0667
  224MOL0     C29459   5.203   8.796   2.695  0.5089  0.8298 -1.0000
  224MOL0     O29460   5.132   8.899   2.621 -0.6152  0.4054  0.3193
  224MOL0     C29461   5.208   8.998   2.584 -0.1865 -1.1687 -0.7282
  224MOL0     C29462   5.344   9.029   2.607  0.3419 -0.8644  0.0965
  224MOL0     C29463   5.405   9.143   2.558 -0.4527  1.1331  0.7590
  224MOL0     C29464   5.328   9.228   2.472 -0.1515 -0.5896 -0.1205
  224MOL0     C29465   5.392   9.353   2.414  0.2401 -0.6134  0.0333
  224MOL0     O29466   5.318   9.458   2.366  0.5060  0.1762 -0.4257
  224MOL0     C29467   5.377   9.558   2.292  0.1253  1.0230 -0.8743
  224MOL0     C29468   5.502   9.554   2.222  1.3988  0.4663  0.2237
  224MOL0     C29469   5.544   9.659   2.140  0.0275 -0.9769  0.8230
  224MOL0     C29470   5.464   9.770   2.126 -0.0829  0.3935  0.1400
  224MOL0     O29471   5.508   9.873   2.050  0.2080  0.1745  1.0357
  224MOL0     C29472   5.417   9.951   1.974  0.4887 -0.4339 -0.3887
  224MOL0     C29473   5.350   9.870   1.862  0.2904  0.4387 -0.2533
  224MOL0     C29474   5.266   9.974   1.764  0.2475  0.0085  0.0816
  224MOL0     C29475   5.241   9.902   1.622  0.6427 -0.2856 -0.6688
  224MOL0     C29476   5.345   9.930   1.518  0.3560 -0.1147 -0.3429
  224MOL0     C29477   5.336   9.824   1.397 -0.7563  0.4938  0.8144
  224MOL0     C29478   5.416   9.860   1.263  0.1449  0.0059 -0.5670
  224MOL0     C29479   5.373   9.771   1.139  0.5255 -0.9248 -0.3880
  224MOL0    Cl29480   5.384   9.592   1.166 -0.1603  0.0175 -0.1417
  224MOL0     C29481   5.337   9.766   2.184  0.0068 -0.5465  0.1232
  224MOL0     C29482   5.299   9.666   2.271  0.5907  0.1360  0.7155
  224MOL0     O29483   5.516   9.355   2.426 -0.6387 -0.1690 -0.4964
  224MOL0     C29484   5.192   9.203   2.458  0.3245 -0.7714 -0.2995
  224MOL0     C29485   5.129   9.087   2.507  0.1125 -0.2682 -0.4517
  224MOL0     N29486   5.306   8.325   2.856 -0.7251  0.4711 -0.3517
  224MOL0     N29487   5.373   8.227   2.888 -0.4061  0.5758 -0.4009
  224MOL0     C29488   5.785   8.876   3.556 -0.6269  0.0324 -0.2814
  224MOL0     C29489   5.754   9.008   3.527 -0.5342 -0.1579  0.3438
  224MOL0     C29490   5.612   9.427   3.408  0.0800 -0.3078  0.2664
  224MOL0     C29491   5.685   9.553   3.422  0.7614  0.1456  0.0367
  224MOL0     C29492   5.610   9.672   3.416  0.0292 -0.4421 -0.0694
  224MOL0     C29493   5.478   9.680   3.382  0.1971  0.2370  0.1630
  224MOL0     O29494   5.423   9.808   3.382  0.1235 -0.2998 -0.8817
  224MOL0     C29495   5.285   9.821   3.378  0.5772 -0.4884  0.2867
  224MOL0     C29496   5.265   9.978   3.380  0.2167  0.5503 -0.4721
  224MOL0     C29497   5.111  10.013   3.381  0.5262  0.1662 -0.0233
  224MOL0     C29498   5.069  10.162   3.412 -0.5922 -0.7623  1.1533
  224MOL0     C29499   5.084  10.259   3.301 -0.3872 -0.0410 -0.0218
  224MOL0     C29500   5.086  10.351   3.217 -0.1286  0.8999  0.4813
  224MOL0     C29501   5.406   9.560   3.351 -0.1346  0.5091 -0.3155
  224MOL0     C29502   5.475   9.438   3.371  0.3418 -0.7192 -0.2516
  224MOL0     H29503   5.500   8.954   3.313 -0.4376 -2.4999 -0.5166
  224MOL0     H29504   5.534   8.723   3.389 -2.4678  1.3592  2.8071
  224MOL0     H29505   5.751   8.525   3.378  0.8449  1.3186  0.9277
  224MOL0     H29506   5.620   8.506   3.498  1.3593 -1.8786  0.3521
  224MOL0     H29507   5.771   8.421   3.669 -0.1607 -1.9640  0.0890
  224MOL0     H29508   5.914   8.427   3.567  0.4089  2.1356 -0.3158
  224MOL0     H29509   5.659   8.264   3.471  0.4637 -2.9485 -1.0669
  224MOL0     H29510   5.782   8.214   3.586 -0.8619  0.4103 -0.0189
  224MOL0     H29511   5.844   8.325   3.305 -0.9897 -3.1233 -1.9645
  224MOL0     H29512   5.941   8.240   3.414 -0.2055  1.1965  0.5065
  224MOL0     H29513   5.699   8.066   3.357  1.1626 -2.2038  1.4483
  224MOL0     H29514   5.864   8.028   3.347  1.1971  0.9934 -1.0282
  224MOL0     H29515   5.766   8.004   3.144 -0.9112  0.2516  1.0399
  224MOL0     H29516   5.868   8.154   3.132 -1.6849  3.1281 -2.0377
  224MOL0     H29517   5.569   8.173   3.197  0.5686 -2.1896 -0.3136
  224MOL0     H29518   5.685   8.298   3.152  2.3868 -1.4088  2.1177
  224MOL0     H29519   5.587   8.071   2.978 -0.3299  0.1565  0.0072
  224MOL0     H29520   5.706   8.195   2.926 -0.6483 -0.1006 -1.3233
  224MOL0     H29521   5.594   8.459   2.945 -0.5492 -0.3434 -1.4085
  224MOL0     H29522   5.440   8.637   2.823  0.9360 -2.5168 -0.1971
  224MOL0     H29523   5.276   8.621   2.871  0.3172  2.2346 -0.5377
  224MOL0     H29524   5.234   8.510   2.637  0.1657  0.3212 -0.9150
  224MOL0     H29525   5.405   8.529   2.615 -1.3818 -4.6818  0.9547
  224MOL0     H29526   5.384   8.757   2.577  0.9600 -1.9491  1.2317
  224MOL0     H29527   5.233   8.699   2.510  1.1276  3.0521 -1.3104
  224MOL0     H29528   5.253   8.846   2.778 -1.9981  0.5249  0.8207
  224MOL0     H29529   5.119   8.732   2.722  1.1237 -0.6333 -2.3959
  224MOL0     H29530   5.392   8.969   2.684 -0.2496 -1.5404 -0.0427
  224MOL0     H29531   5.506   9.169   2.589  0.1554 -1.4562  1.1993
  224MOL0     H29532   5.560   9.463   2.215 -0.4477 -0.9164  1.8339
  224MOL0     H29533   5.641   9.658   2.092  0.2174  0.0420  1.1611
  224MOL0     H29534   5.468  10.040   1.937  1.4860 -0.7835  0.0929
  224MOL0     H29535   5.348   9.994   2.048  1.5433  1.7221 -0.5893
  224MOL0     H29536   5.285   9.794   1.906 -0.2374  0.3221 -1.2101
  224MOL0     H29537   5.429   9.824   1.802 -0.2234 -1.9233  0.7687
  224MOL0     H29538   5.320  10.068   1.744  0.1145 -0.2788 -1.8478
  224MOL0     H29539   5.169   9.993   1.811 -0.3061  1.7593 -1.6126
  224MOL0     H29540   5.235   9.795   1.644  5.3062 -1.3531 -3.2220
  224MOL0     H29541   5.142   9.934   1.586  0.6276  1.9106  1.1208
  224MOL0     H29542   5.445   9.926   1.563 -0.8382  1.2003  2.6516
  224MOL0     H29543   5.334  10.033   1.483  0.6746  0.6314  1.6308
  224MOL0     H29544   5.231   9.814   1.367  0.2466  0.0261 -3.0057
  224MOL0     H29545   5.381   9.733   1.437 -2.3662 -0.9206 -0.4569
  224MOL0     H29546   5.428   9.961   1.221  2.5945 -0.2695 -0.7178
  224MOL0     H29547   5.517   9.829   1.291 -0.5220 -1.4304  0.3105
  224MOL0     H29548   5.440   9.797   1.056  2.0857  0.9622  1.3451
  224MOL0     H29549   5.268   9.788   1.115  0.6530 -1.2040 -1.1697
  224MOL0     H29550   5.259   9.835   2.152  1.8085  0.4496 -2.4367
  224MOL0     H29551   5.199   9.656   2.310  0.5479 -2.3496  0.1533
  224MOL0     H29552   5.131   9.277   2.407 -1.2372 -2.1163 -0.4731
  224MOL0     H29553   5.026   9.057   2.489 -0.6334  2.4470 -1.1503
  224MOL0     H29554   5.870   8.845   3.615  0.1534  3.2055  0.4153
  224MOL0     H29555   5.819   9.089   3.559 -0.4089  0.0911 -0.5174
  224MOL0     H29556   5.783   9.552   3.468  1.0839  0.6788 -0.6193
  224MOL0     H29557   5.655   9.769   3.436 -1.1111  0.0917  0.0303
  224MOL0     H29558   5.232   9.768   3.458  0.1680  1.1375  1.1322
  224MOL0     H29559   5.247   9.782   3.283  0.6281 -0.0360  0.0775
  224MOL0     H29560   5.321  10.020   3.463 -1.9847  1.5747  0.5623
  224MOL0     H29561   5.317  10.024   3.296  2.2949 -1.1311 -0.2067
  224MOL0     H29562   5.052   9.948   3.446 -0.9336  0.3763 -1.0718
  224MOL0     H29563   5.071   9.989   3.282  2.1263 -2.3940 -0.1425
  224MOL0     H29564   4.965  10.173   3.447 -0.2788 -0.7877  2.1269
  224MOL0     H29565   5.122  10.192   3.503  0.3956 -2.8732  1.3157
  224MOL0     H29566   5.078  10.424   3.138  1.4359 -0.2684 -0.8233
  224MOL0     H29567   5.301   9.545   3.329  0.2002 -4.3811  0.1844
  224MOL0     H29568   5.416   9.347   3.360 -1.3014  0.6027 -3.7276
  225MOL0     O29569   1.740   6.067   6.402  0.6563  0.3529  0.4924
  225MOL0     C29570   1.726   6.152   6.314  0.6093 -0.1348 -0.2928
  225MOL0     O29571   1.708   6.288   6.336 -0.1276  0.2900 -0.0021
  225MOL0     C29572   1.753   6.336   6.458 -0.8000 -0.3847 -0.4153
  225MOL0     C29573   1.835   6.452   6.451 -0.0704  0.3514  1.0764
  225MOL0     C29574   1.897   6.492   6.572 -1.1745  0.0865 -1.1742
  225MOL0     C29575   1.877   6.440   6.700  0.0383 -0.6939  0.7250
  225MOL0     O29576   1.929   6.495   6.818  0.0432  0.4094 -0.2732
  225MOL0     C29577   2.048   6.578   6.806 -0.6215 -0.0869  0.6753
  225MOL0     C29578   2.115   6.610   6.944  0.5876 -0.3438  0.2054
  225MOL0     C29579   2.015   6.662   7.054 -0.3346 -0.0971  0.0949
  225MOL0     C29580   2.084   6.691   7.188  0.1376  0.4687  0.4882
  225MOL0     C29581   2.198   6.786   7.182  0.9357 -0.8914  0.5750
  225MOL0     C29582   2.282   6.762   7.308  0.1239  0.9256 -0.0788
  225MOL0     C29583   2.203   6.807   7.431  0.2978 -0.2204 -0.0317
  225MOL0     C29584   2.135   6.947   7.413  1.0385  0.0577 -0.2271
  225MOL0     N29585   2.088   6.984   7.545  0.4116  0.0381  0.6683
  225MOL0     C29586   2.129   7.088   7.619  0.4251 -0.1882  0.7720
  225MOL0     C29587   2.030   7.113   7.715  0.0286  1.3126 -1.1472
  225MOL0     C29588   2.051   7.232   7.809 -1.1638 -0.4185 -0.4183
  225MOL0     C29589   1.963   7.239   7.929 -0.6947  0.0161  0.1565
  225MOL0     C29590   1.970   7.127   8.041  0.7211  0.0490  0.3979
  225MOL0     C29591   1.866   7.142   8.158  0.2226 -0.6917  1.1889
  225MOL0     O29592   1.920   7.250   8.231 -0.6765 -0.3854 -0.5548
  225MOL0     C29593   1.829   7.312   8.316 -0.6223  0.0849  0.4884
  225MOL0     C29594   1.788   7.277   8.448 -0.1430 -0.2163  0.4015
  225MOL0     C29595   1.681   7.331   8.510  0.5830 -0.5435 -0.2283
  225MOL0     C29596   1.615   7.446   8.457 -0.0681  0.3800 -0.9717
  225MOL0     C29597   1.497   7.505   8.519  0.0440 -0.5008  0.2550
  225MOL0     O29598   1.415   7.592   8.443 -0.2438  0.2035 -0.7136
  225MOL0     C29599   1.291   7.622   8.480  0.5929 -0.1077 -0.2879
  225MOL0     C29600   1.200   7.660   8.373 -0.1395 -0.1977  0.3247
  225MOL0     C29601   1.066   7.680   8.392  0.2800 -0.5789 -0.8160
  225MOL0     C29602   1.015   7.681   8.528 -0.3588  0.3264 -0.7316
  225MOL0     O29603   0.883   7.719   8.534  0.4143 -0.4799 -0.2828
  225MOL0     C29604   0.836   7.753   8.665 -0.2060 -0.7019  0.8162
  225MOL0     C29605   0.690   7.793   8.666  0.6841  0.6049 -0.1728
  225MOL0     C29606   0.647   7.890   8.553  0.3606 -0.4062 -0.0583
  225MOL0     C29607   0.499   7.923   8.585  0.3552 -0.0239  0.0891
  225MOL0     C29608   0.447   8.016   8.471 -0.1670 -0.2784  0.5420
  225MOL0     C29609   0.326   8.087   8.527  1.2474  0.6735 -0.2256
  225MOL0     C29610   0.361   8.202   8.627  0.7047  0.9768 -0.9009
  225MOL0     C29611   0.232   8.264   8.681  0.4248 -0.2158  0.5025
  225MOL0    Cl29612   0.160   8.387   8.550  0.0157  0.0219  0.1351
  225MOL0     C29613   1.103   7.661   8.639 -0.1214 -0.1678 -0.8944
  225MOL0     C29614   1.241   7.624   8.610  0.1494  0.0219  0.0667
  225MOL0     O29615   1.491   7.481   8.640  0.6763  0.5283  0.7884
  225MOL0     C29616   1.649   7.489   8.325  1.6068 -0.1300 -0.7735
  225MOL0     C29617   1.752   7.411   8.261  0.6364  0.0401 -0.1538
  225MOL0     N29618   1.940   7.004   7.708  0.4796 -0.1680  0.0470
  225MOL0     N29619   1.974   6.938   7.604  0.3859 -0.2359  1.0716
  225MOL0     C29620   1.781   6.335   6.694 -0.3905 -0.6925 -0.3059
  225MOL0     C29621   1.725   6.279   6.581  0.0597  0.8028  0.1240
  225MOL0     C29622   1.723   6.101   6.170  0.0409  0.1900 -0.3452
  225MOL0     C29623   1.755   6.183   6.062 -0.6257  0.0428 -1.1460
  225MOL0     C29624   1.749   6.147   5.928 -0.7018 -0.2207  0.6770
  225MOL0     C29625   1.712   6.019   5.896  0.2967  0.5324  1.0058
  225MOL0     O29626   1.704   5.972   5.766 -0.2905 -0.9556 -0.2547
  225MOL0     C29627   1.817   6.009   5.684  0.0366  0.0792  0.5402
  225MOL0     C29628   1.840   5.901   5.567 -0.0483  0.6015 -0.5711
  225MOL0     C29629   1.714   5.877   5.485 -0.2860 -0.4430 -0.0012
  225MOL0     C29630   1.728   5.938   5.346  0.3850  0.7040  0.4663
  225MOL0     C29631   1.766   6.076   5.329  0.0430 -1.3024  0.4180
  225MOL0     C29632   1.808   6.190   5.293  0.4303 -0.1046 -0.5433
  225MOL0     C29633   1.693   5.931   6.000  0.2160  0.0831 -0.5397
  225MOL0     C29634   1.700   5.970   6.136  0.3679  1.4074 -1.0090
  225MOL0     H29635   1.842   6.510   6.360 -2.7790 -0.0252  0.5571
  225MOL0     H29636   1.961   6.580   6.569 -2.0905  0.7660 -1.1594
  225MOL0     H29637   2.031   6.678   6.767  0.1500 -0.8022 -1.6253
  225MOL0     H29638   2.120   6.526   6.742 -5.6773 -1.7658 -4.4358
  225MOL0     H29639   2.186   6.690   6.923  0.1018  0.3728  1.1897
  225MOL0     H29640   2.161   6.517   6.979  0.0884 -0.0293  1.8182
  225MOL0     H29641   1.938   6.586   7.069 -1.7629  0.9462 -1.6070
  225MOL0     H29642   1.962   6.755   7.031  1.8729  1.5388  1.2058
  225MOL0     H29643   2.000   6.727   7.247 -1.7073  2.5963 -3.0826
  225MOL0     H29644   2.104   6.603   7.250 -3.2871  0.8589  2.3914
  225MOL0     H29645   2.176   6.893   7.175  1.3123 -0.9151 -1.5912
  225MOL0     H29646   2.266   6.767   7.099  1.0093  0.9759  0.1661
  225MOL0     H29647   2.375   6.816   7.288  0.1948  0.0188 -2.4293
  225MOL0     H29648   2.310   6.657   7.324  2.8463  1.2978 -1.8370
  225MOL0     H29649   2.125   6.736   7.460 -1.8041  0.7158 -2.8981
  225MOL0     H29650   2.276   6.814   7.512  2.4710 -0.7855 -1.8500
  225MOL0     H29651   2.051   6.945   7.344  2.7224  0.0798 -2.4074
  225MOL0     H29652   2.205   7.022   7.374  2.2484 -1.7370 -1.7711
  225MOL0     H29653   2.221   7.142   7.599 -0.4107  0.2912 -2.2771
  225MOL0     H29654   2.027   7.319   7.748 -0.5920 -1.9260 -2.9878
  225MOL0     H29655   2.158   7.241   7.833 -1.5879 -0.1030  1.5180
  225MOL0     H29656   1.861   7.239   7.890 -0.6805  1.3091  0.0838
  225MOL0     H29657   1.986   7.332   7.981  0.8238 -0.7290  0.9049
  225MOL0     H29658   1.959   7.033   7.987 -0.0297  0.7402 -0.6742
  225MOL0     H29659   2.068   7.147   8.087  1.7249 -0.9984 -1.1782
  225MOL0     H29660   1.876   7.053   8.221 -0.6675 -1.2928  0.5157
  225MOL0     H29661   1.765   7.164   8.121 -0.1997 -0.3116  2.5318
  225MOL0     H29662   1.835   7.191   8.494 -0.7065 -0.7291  0.0404
  225MOL0     H29663   1.642   7.284   8.600  0.8808  3.8693  2.5396
  225MOL0     H29664   1.230   7.671   8.269 -0.2412 -2.8669 -0.0632
  225MOL0     H29665   1.001   7.703   8.308  1.1396  0.8376 -1.1228
  225MOL0     H29666   0.898   7.828   8.715 -0.7882 -0.1740  0.7573
  225MOL0     H29667   0.849   7.661   8.722  0.8169 -3.9343 -3.9907
  225MOL0     H29668   0.669   7.835   8.765  2.2335 -1.7541  1.2544
  225MOL0     H29669   0.632   7.701   8.655 -1.8102  1.9466  0.8846
  225MOL0     H29670   0.649   7.843   8.455 -3.6959 -1.9101  0.4025
  225MOL0     H29671   0.708   7.981   8.549  0.3392 -0.3572  0.5879
  225MOL0     H29672   0.450   7.826   8.593  0.5299 -0.0306  1.2096
  225MOL0     H29673   0.501   7.973   8.682  2.0868  0.9619 -0.4110
  225MOL0     H29674   0.425   7.954   8.384  0.3081 -0.0663  0.2685
  225MOL0     H29675   0.526   8.088   8.448 -0.1018 -1.3455 -3.3722
  225MOL0     H29676   0.259   8.017   8.578  4.1173 -3.4577 -1.5821
  225MOL0     H29677   0.278   8.137   8.442 -0.4960 -0.8419 -0.1962
  225MOL0     H29678   0.416   8.166   8.714  0.7927  0.6947 -1.0700
  225MOL0     H29679   0.430   8.276   8.586  0.9998 -0.6577 -3.6173
  225MOL0     H29680   0.259   8.317   8.773  0.5433  1.4217 -0.4409
  225MOL0     H29681   0.168   8.185   8.721 -2.4100  1.3108 -0.7122
  225MOL0     H29682   1.072   7.688   8.740  0.1926  2.4226 -1.4108
  225MOL0     H29683   1.289   7.599   8.704 -2.8951 -0.3230  1.6443
  225MOL0     H29684   1.604   7.567   8.266  2.9056 -0.0342 -1.6939
  225MOL0     H29685   1.777   7.428   8.156  0.0151 -0.8570 -0.4538
  225MOL0     H29686   1.766   6.297   6.795  0.7969 -0.2273  0.0631
  225MOL0     H29687   1.655   6.196   6.585  0.3152  0.6103  0.6665
  225MOL0     H29688   1.779   6.287   6.083 -1.8377  0.3066 -1.0060
  225MOL0     H29689   1.765   6.230   5.859  3.1798 -0.0318  1.5828
  225MOL0     H29690   1.912   6.039   5.729  0.7526 -0.3660 -0.6323
  225MOL0     H29691   1.781   6.102   5.639 -1.1660 -0.7942 -0.3763
  225MOL0     H29692   1.925   5.913   5.499  2.1035  0.1548  1.9109
  225MOL0     H29693   1.870   5.803   5.604 -3.5072 -1.7209 -3.2670
  225MOL0     H29694   1.628   5.919   5.538 -0.2414  2.8170 -2.2263
  225MOL0     H29695   1.706   5.768   5.482  2.4284 -0.7141 -1.1351
  225MOL0     H29696   1.798   5.873   5.292 -0.6468 -2.3777  2.5183
  225MOL0     H29697   1.631   5.928   5.298  0.5102  2.7275 -0.2847
  225MOL0     H29698   1.843   6.285   5.259  1.4472 -0.5052 -0.6295
  225MOL0     H29699   1.661   5.829   5.979  1.8708 -0.7687  0.8190
  225MOL0     H29700   1.694   5.904   6.222 -1.6017  0.9012 -1.4751
  226MOL0     O29701   8.600  11.186   7.663  0.0218 -0.8040 -0.2574
  226MOL0     C29702   8.517  11.192   7.750  0.2353  0.1541 -0.4346
  226MOL0     O29703   8.497  11.105   7.848  0.4292 -0.1405 -0.3920
  226MOL0     C29704   8.586  11.006   7.866 -0.3736  1.2897 -0.2182
  226MOL0     C29705   8.513  10.886   7.869  1.0817  0.0999  0.1378
  226MOL0     C29706   8.582  10.772   7.899 -0.2465  0.3376 -0.2563
  226MOL0     C29707   8.717  10.769   7.930  1.0537  0.2763  0.7777
  226MOL0     O29708   8.774  10.644   7.942 -0.1406  0.3708  0.1904
  226MOL0     C29709   8.918  10.612   7.980  0.6363 -0.9777 -0.1220
  226MOL0     C29710   8.921  10.460   8.018 -0.8752 -0.2964  0.7150
  226MOL0     C29711   8.904  10.438   8.166 -0.3268  0.7584  0.5555
  226MOL0     C29712   8.956  10.308   8.214 -0.3560  0.2140 -0.5305
  226MOL0     C29713   9.034  10.296   8.347 -0.5484  0.5928  0.9162
  226MOL0     C29714   8.978  10.392   8.454 -0.2582  0.4675 -0.7579
  226MOL0     C29715   9.043  10.353   8.589  0.1149  0.0958  0.2818
  226MOL0     C29716   9.028  10.448   8.717  1.0041 -0.3411  0.7642
  226MOL0     N29717   8.879  10.457   8.747 -1.2251 -0.0283 -0.5323
  226MOL0     C29718   8.787  10.362   8.784 -0.2627  0.5846  0.6407
  226MOL0     C29719   8.670  10.422   8.793 -0.1905 -0.1106  0.2367
  226MOL0     C29720   8.539  10.371   8.839  0.0414  0.7275 -1.6819
  226MOL0     C29721   8.541  10.331   8.991 -0.8701  0.8285 -1.0311
  226MOL0     C29722   8.569  10.455   9.085 -0.1727  0.2678  0.5203
  226MOL0     C29723   8.450  10.560   9.081  0.8081  0.0176 -0.4431
  226MOL0     O29724   8.329  10.505   9.135 -0.0805  0.5471 -0.6848
  226MOL0     C29725   8.303  10.503   9.271 -0.2452  0.0850 -0.7125
  226MOL0     C29726   8.408  10.524   9.371  0.9782 -0.4878  0.7898
  226MOL0     C29727   8.376  10.530   9.507 -0.5710 -0.9339  0.5879
  226MOL0     C29728   8.245  10.500   9.551 -0.1268 -0.4827 -0.4249
  226MOL0     C29729   8.212  10.501   9.700  0.2245 -0.0142 -0.0631
  226MOL0     O29730   8.093  10.561   9.739 -0.0820 -0.5916 -0.1750
  226MOL0     C29731   8.047  10.564   9.871  0.0850  0.2122  0.3181
  226MOL0     C29732   7.915  10.597   9.875 -0.8347 -0.1746 -0.6216
  226MOL0     C29733   7.849  10.612   9.996  0.1297 -0.1837 -0.3656
  226MOL0     C29734   7.927  10.612  10.118  0.1028  0.0795  0.6790
  226MOL0     O29735   7.874  10.634  10.237  0.5240  0.5098 -0.2588
  226MOL0     C29736   7.825  10.771  10.261 -0.7125  0.6515 -1.5728
  226MOL0     C29737   7.737  10.768  10.393  0.6948 -0.9710  0.2782
  226MOL0     C29738   7.597  10.821  10.364  0.7813 -1.3338  0.3216
  226MOL0     C29739   7.510  10.845  10.496 -0.3379  0.7787 -0.0123
  226MOL0     C29740   7.454  10.734  10.580  0.4369 -0.4300 -0.0337
  226MOL0     C29741   7.328  10.677  10.517 -0.2972 -0.6110  0.7667
  226MOL0     C29742   7.241  10.586  10.609 -0.7752 -0.6868 -0.0765
  226MOL0     C29743   7.331  10.499  10.701  0.4052  0.3627  0.7765
  226MOL0    Cl29744   7.221  10.396  10.793  0.1092  0.5715 -0.0942
  226MOL0     C29745   8.063  10.575  10.103 -0.0822  0.5942 -1.2338
  226MOL0     C29746   8.125  10.547   9.981 -0.4792  0.9978  0.8904
  226MOL0     O29747   8.294  10.449   9.772 -1.0037  0.0986 -0.2010
  226MOL0     C29748   8.150  10.469   9.454 -0.1772 -0.1221  0.2327
  226MOL0     C29749   8.175  10.464   9.317 -0.5036  0.5850  0.1143
  226MOL0     N29750   8.693  10.553   8.763  0.7168  0.2321  0.8664
  226MOL0     N29751   8.816  10.579   8.754 -0.8008 -0.5438  0.2652
  226MOL0     C29752   8.791  10.889   7.928 -0.0464  0.4144  1.0354
  226MOL0     C29753   8.725  11.009   7.890 -0.4915 -0.3224  0.9369
  226MOL0     C29754   8.409  11.290   7.737 -0.3165  0.2236  0.2886
  226MOL0     C29755   8.279  11.261   7.787  0.0357 -0.2082  0.3440
  226MOL0     C29756   8.163  11.346   7.769  0.5196 -0.0319  0.0241
  226MOL0     C29757   8.175  11.466   7.715  0.3841  0.5540  0.5587
  226MOL0     O29758   8.072  11.554   7.697 -0.2411  0.1558  0.7104
  226MOL0     C29759   7.957  11.488   7.658 -0.1624 -0.1132  0.4484
  226MOL0     C29760   7.860  11.597   7.619  0.4940 -0.7341  0.2777
  226MOL0     C29761   7.739  11.533   7.559  0.3488 -0.4017 -1.0207
  226MOL0     C29762   7.631  11.641   7.501 -0.4957 -0.1146 -1.0544
  226MOL0     C29763   7.587  11.751   7.587 -0.6895 -0.7356 -0.2309
  226MOL0     C29764   7.538  11.825   7.664  0.1727 -1.0729  0.6611
  226MOL0     C29765   8.299  11.493   7.656  0.2456  0.0314 -0.1026
  226MOL0     C29766   8.413  11.411   7.664 -0.1662 -0.0955  0.4058
  226MOL0     H29767   8.405  10.883   7.856  1.0791  0.5580  0.0444
  226MOL0     H29768   8.517  10.685   7.893 -2.2213  1.8607 -2.6195
  226MOL0     H29769   8.959  10.672   8.061  4.3017 -3.2031 -0.0833
  226MOL0     H29770   8.983  10.633   7.895 -2.3404  0.8226 -2.1214
  226MOL0     H29771   9.005  10.409   7.971 -1.4442 -1.6740  1.1460
  226MOL0     H29772   8.835  10.423   7.962 -2.0500  0.9304  1.6256
  226MOL0     H29773   8.799  10.435   8.196  0.0801  3.5796  2.6488
  226MOL0     H29774   8.961  10.520   8.210  1.8948 -1.6119  2.3941
  226MOL0     H29775   8.865  10.248   8.223  0.1827 -0.8367 -1.7874
  226MOL0     H29776   9.014  10.263   8.134 -1.4398  3.6387 -3.5406
  226MOL0     H29777   9.139  10.325   8.335 -1.0309  2.4006  0.7051
  226MOL0     H29778   9.030  10.194   8.387  2.1965  1.7349  4.6840
  226MOL0     H29779   8.874  10.371   8.479  0.0866 -0.4473 -0.0635
  226MOL0     H29780   8.986  10.499   8.433 -3.5249  1.4800  2.2419
  226MOL0     H29781   8.999  10.261   8.627 -2.7111  2.0269  2.0246
  226MOL0     H29782   9.149  10.336   8.566 -0.4427 -0.0421 -2.5819
  226MOL0     H29783   9.070  10.545   8.690  2.9739 -2.0491 -3.1974
  226MOL0     H29784   9.082  10.401   8.800 -0.5022 -1.3390  1.2128
  226MOL0     H29785   8.810  10.257   8.792  1.7499  1.0292  1.1776
  226MOL0     H29786   8.498  10.290   8.779 -1.0148 -1.2666  1.4540
  226MOL0     H29787   8.463  10.450   8.832  2.3807  3.2333 -0.5460
  226MOL0     H29788   8.600  10.247   9.027 -4.1623 -2.6771 -3.1118
  226MOL0     H29789   8.438  10.294   9.003 -0.5712 -0.6221 -2.5573
  226MOL0     H29790   8.572  10.424   9.190  0.2296 -1.4981  0.0250
  226MOL0     H29791   8.665  10.504   9.067  1.5192 -1.6085  3.4602
  226MOL0     H29792   8.428  10.593   8.979  1.7059  0.7206 -0.4192
  226MOL0     H29793   8.477  10.648   9.140  2.5461 -1.5583  1.2628
  226MOL0     H29794   8.513  10.544   9.352  1.2183 -2.1834  0.1872
  226MOL0     H29795   8.440  10.551   9.592 -3.8858 -1.8585  3.5628
  226MOL0     H29796   7.858  10.614   9.785 -1.0221 -1.9501 -0.8896
  226MOL0     H29797   7.747  10.643  10.017  0.4102 -0.4413  1.5215
  226MOL0     H29798   7.767  10.801  10.173 -1.4150 -1.9780 -2.1226
  226MOL0     H29799   7.907  10.842  10.273 -1.8764  1.5081  3.6560
  226MOL0     H29800   7.784  10.827  10.472  1.9534 -2.7365  0.9164
  226MOL0     H29801   7.728  10.670  10.440 -0.7065 -1.6727 -1.3364
  226MOL0     H29802   7.537  10.751  10.305 -0.7108 -0.3459  0.6117
  226MOL0     H29803   7.591  10.915  10.308 -3.9115 -2.0172 -0.7167
  226MOL0     H29804   7.574  10.904  10.561 -0.8774  0.9862  0.3353
  226MOL0     H29805   7.422  10.904  10.467 -0.8935 -0.1853 -0.3211
  226MOL0     H29806   7.432  10.779  10.678  0.1812  3.1974 -1.5900
  226MOL0     H29807   7.537  10.663  10.576  3.3408  2.7295 -1.4916
  226MOL0     H29808   7.347  10.617  10.428 -0.3213 -1.5800  1.3989
  226MOL0     H29809   7.258  10.755  10.487 -2.4168 -2.2750  1.0849
  226MOL0     H29810   7.191  10.665  10.666 -0.7879  1.9495 -3.4075
  226MOL0     H29811   7.179  10.510  10.560 -0.5170 -1.3461  0.5989
  226MOL0     H29812   7.375  10.548  10.789  1.3452 -1.9907  1.6804
  226MOL0     H29813   7.404  10.442  10.643  1.8030  1.0586  1.7906
  226MOL0     H29814   8.125  10.573  10.192 -0.7987  1.8323 -0.6867
  226MOL0     H29815   8.230  10.523   9.994 -1.1113 -3.5566 -0.5941
  226MOL0     H29816   8.044  10.461   9.475 -0.4253  0.0012 -0.9063
  226MOL0     H29817   8.092  10.460   9.247 -4.2047 -2.7197  4.1739
  226MOL0     H29818   8.897  10.878   7.951 -0.4273 -1.7089  1.9913
  226MOL0     H29819   8.783  11.100   7.885 -3.4075  1.6436  0.2803
  226MOL0     H29820   8.272  11.162   7.833  1.4137 -0.0714  0.8900
  226MOL0     H29821   8.083  11.295   7.822  0.9044  1.2169  1.9192
  226MOL0     H29822   7.911  11.428   7.736 -1.0080 -1.2428 -0.8848
  226MOL0     H29823   7.979  11.424   7.572 -3.7752 -0.3749 -0.4721
  226MOL0     H29824   7.834  11.649   7.711  1.1231  4.5174 -2.1604
  226MOL0     H29825   7.890  11.670   7.544 -2.1991  0.0105 -0.1858
  226MOL0     H29826   7.690  11.486   7.644  0.7159 -0.3236 -0.7667
  226MOL0     H29827   7.761  11.457   7.483 -3.4115 -1.0491 -1.6450
  226MOL0     H29828   7.662  11.681   7.404  1.3129  0.2287 -0.3778
  226MOL0     H29829   7.545  11.577   7.479 -1.4569  1.0938 -0.8502
  226MOL0     H29830   7.499  11.907   7.719  0.3240  2.4121 -3.8723
  226MOL0     H29831   8.316  11.581   7.594 -0.3009 -1.1497 -2.0135
  226MOL0     H29832   8.495  11.442   7.600  2.3093 -4.9090  0.7953
  227MOL0     O29833   5.273   0.418   3.664  0.8949 -0.6072  0.2550
  227MOL0     C29834   5.173   0.389   3.733  0.3475 -0.1756  0.0200
  227MOL0     O29835   5.118   0.463   3.835 -0.0169  0.1977 -0.0565
  227MOL0     C29836   5.168   0.593   3.865  0.5787 -0.4567  1.3525
  227MOL0     C29837   5.072   0.672   3.933  0.1320 -0.4874 -0.2656
  227MOL0     C29838   5.107   0.809   3.958  0.3573  0.2295  0.3681
  227MOL0     C29839   5.228   0.866   3.911 -0.0755 -0.1473 -0.2499
  227MOL0     O29840   5.258   1.000   3.947 -0.0596 -0.2054 -0.0982
  227MOL0     C29841   5.164   1.090   3.871  0.3000  0.0195  0.7470
  227MOL0     C29842   5.188   1.235   3.910  0.3010  0.5037 -0.4852
  227MOL0     C29843   5.133   1.261   4.055  0.5499  0.0060 -0.8209
  227MOL0     C29844   4.987   1.258   4.061  0.4962 -1.2009 -0.8792
  227MOL0     C29845   4.965   1.275   4.208 -0.5294 -0.2716  1.1560
  227MOL0     C29846   4.817   1.284   4.252 -0.1311  0.1392  0.2889
  227MOL0     C29847   4.724   1.376   4.167 -0.5290 -0.7561 -0.9551
  227MOL0     C29848   4.654   1.294   4.057 -0.1475 -0.2080  0.0731
  227MOL0     N29849   4.568   1.391   3.984  0.2374 -0.2087  0.8867
  227MOL0     C29850   4.611   1.490   3.891  0.0857 -0.5210  0.7481
  227MOL0     C29851   4.504   1.568   3.853 -0.0704  0.4336 -0.2017
  227MOL0     C29852   4.488   1.689   3.765 -0.4940  0.3364  0.4431
  227MOL0     C29853   4.529   1.819   3.832 -0.0848  0.0591 -0.2100
  227MOL0     C29854   4.565   1.924   3.723  1.0497  0.3665 -0.5693
  227MOL0     C29855   4.603   2.056   3.808 -0.0925  0.4862 -0.0389
  227MOL0     O29856   4.613   2.170   3.719  0.7878 -0.4843 -0.4634
  227MOL0     C29857   4.702   2.176   3.618 -0.9122 -1.9440 -0.3334
  227MOL0     C29858   4.830   2.119   3.628 -0.4625  0.0607  0.0355
  227MOL0     C29859   4.917   2.129   3.519 -0.5242 -0.9155  1.0818
  227MOL0     C29860   4.894   2.202   3.398 -0.5838  0.3607 -0.8962
  227MOL0     C29861   4.999   2.216   3.301 -0.3373  0.7395  0.9917
  227MOL0     O29862   4.976   2.313   3.196 -0.0848  0.1668 -0.7988
  227MOL0     C29863   5.077   2.333   3.103  0.4674  0.0898  0.1431
  227MOL0     C29864   5.028   2.325   2.970 -0.0774  0.1677  0.9745
  227MOL0     C29865   5.118   2.340   2.858 -0.2220  0.5493  1.2526
  227MOL0     C29866   5.255   2.368   2.880 -0.6338  0.5317  1.1715
  227MOL0     O29867   5.331   2.386   2.759  0.3162 -0.0191 -0.5882
  227MOL0     C29868   5.336   2.266   2.686 -0.0559 -0.2850  0.0120
  227MOL0     C29869   5.357   2.277   2.536  0.2676 -0.2482 -0.4429
  227MOL0     C29870   5.510   2.282   2.506 -0.0713 -0.4814  0.1114
  227MOL0     C29871   5.529   2.323   2.354  0.4331  0.8592 -0.3549
  227MOL0     C29872   5.485   2.217   2.249 -0.3805  0.8715  0.0044
  227MOL0     C29873   5.578   2.088   2.254  0.0631 -0.3027  0.0251
  227MOL0     C29874   5.519   1.979   2.174 -0.1938  1.0254  0.6218
  227MOL0     C29875   5.596   1.850   2.193 -0.0093 -0.5819 -0.3142
  227MOL0    Cl29876   5.564   1.740   2.052 -0.2474 -0.3594  0.6915
  227MOL0     C29877   5.305   2.380   3.013  0.5974 -0.1508 -0.3359
  227MOL0     C29878   5.219   2.363   3.124  0.4104 -1.0331 -0.0485
  227MOL0     O29879   5.095   2.139   3.317 -0.1348 -0.0800  0.3769
  227MOL0     C29880   4.757   2.259   3.390  0.0911 -0.1184  1.1467
  227MOL0     C29881   4.677   2.245   3.498  0.8687 -0.2230 -0.1392
  227MOL0     N29882   4.396   1.501   3.918 -0.3719  0.0059 -0.0104
  227MOL0     N29883   4.438   1.399   3.990  0.1091  0.3977  0.2110
  227MOL0     C29884   5.323   0.779   3.859  0.2046 -0.7547 -0.3391
  227MOL0     C29885   5.294   0.648   3.830  0.5845  0.6572 -0.3895
  227MOL0     C29886   5.090   0.263   3.702 -0.9674 -0.1375 -0.4608
  227MOL0     C29887   4.990   0.210   3.785  0.4054 -1.1862 -0.3299
  227MOL0     C29888   4.920   0.095   3.740 -0.1848  0.1247 -0.2052
  227MOL0     C29889   4.947   0.027   3.622 -0.5628 -0.3264 -0.7478
  227MOL0     O29890   4.868  -0.086   3.595 -0.3871 -0.7893  0.3405
  227MOL0     C29891   4.904  -0.155   3.473  0.7616 -1.0639 -0.0490
  227MOL0     C29892   4.864  -0.085   3.337  0.8664 -0.3423 -0.0705
  227MOL0     C29893   4.875  -0.181   3.220 -1.0364 -0.0007  0.7433
  227MOL0     C29894   4.901  -0.122   3.081  0.0695 -0.4643  0.3200
  227MOL0     C29895   5.040  -0.071   3.078 -0.4423 -0.1860  0.9135
  227MOL0     C29896   5.157  -0.041   3.073 -0.7832 -0.0175 -0.0727
  227MOL0     C29897   5.057   0.076   3.551 -0.1034  0.1416  1.2353
  227MOL0     C29898   5.126   0.183   3.584  0.2739 -0.3472 -0.1768
  227MOL0     H29899   4.973   0.635   3.955  0.4571 -0.2292  1.8597
  227MOL0     H29900   5.040   0.883   4.001  1.4976  0.5983  1.5659
  227MOL0     H29901   5.062   1.056   3.895  0.2083 -1.0552 -0.9674
  227MOL0     H29902   5.191   1.084   3.765 -4.2610  0.1656 -0.6430
  227MOL0     H29903   5.131   1.299   3.842  0.1854 -0.5291 -1.3852
  227MOL0     H29904   5.291   1.266   3.893  1.1025 -2.2537 -1.2130
  227MOL0     H29905   5.169   1.358   4.092  0.9500 -1.5540  3.5199
  227MOL0     H29906   5.173   1.190   4.129 -1.1738  2.0100  2.2587
  227MOL0     H29907   4.927   1.331   4.006 -2.1914  0.4057  3.6579
  227MOL0     H29908   4.944   1.165   4.023 -4.7389  1.5211 -2.6148
  227MOL0     H29909   5.015   1.366   4.242  2.7509 -1.3126 -0.4587
  227MOL0     H29910   5.007   1.188   4.260  2.6238 -0.2595 -1.0556
  227MOL0     H29911   4.812   1.323   4.354 -0.2403  1.7427 -0.2977
  227MOL0     H29912   4.788   1.179   4.261  0.6256 -0.2111 -1.1444
  227MOL0     H29913   4.656   1.427   4.236 -0.5282 -0.4766 -1.1584
  227MOL0     H29914   4.784   1.456   4.123 -1.4709  0.1820 -0.5874
  227MOL0     H29915   4.583   1.223   4.102  1.5882 -0.2348  3.0753
  227MOL0     H29916   4.731   1.242   3.999 -0.3846  0.1169 -0.5347
  227MOL0     H29917   4.714   1.509   3.861 -0.7321  0.9856 -1.3650
  227MOL0     H29918   4.383   1.686   3.736 -0.8121  1.0291  1.4710
  227MOL0     H29919   4.550   1.688   3.675 -1.8022  1.5641 -0.5018
  227MOL0     H29920   4.615   1.808   3.898 -2.2845 -0.1956  2.8592
  227MOL0     H29921   4.443   1.855   3.890  0.2277  1.3958 -0.5448
  227MOL0     H29922   4.652   1.888   3.667  2.1431  5.0662 -2.4382
  227MOL0     H29923   4.481   1.939   3.653  1.2162 -0.3022 -0.9173
  227MOL0     H29924   4.687   2.030   3.873 -2.5664  0.7477  3.4924
  227MOL0     H29925   4.518   2.090   3.867 -1.2923  1.2537 -2.0862
  227MOL0     H29926   4.860   2.071   3.720 -0.4004 -0.1324 -0.0841
  227MOL0     H29927   5.020   2.096   3.531  0.5591  2.5348  2.2843
  227MOL0     H29928   4.928   2.292   2.944  0.6489 -0.2341 -1.5599
  227MOL0     H29929   5.079   2.330   2.757 -1.8240 -2.3964  2.0660
  227MOL0     H29930   5.252   2.199   2.708 -0.5768  0.9314  2.0208
  227MOL0     H29931   5.429   2.217   2.717 -0.4572  0.0295  1.8125
  227MOL0     H29932   5.305   2.364   2.496 -0.8696 -0.4896  0.4547
  227MOL0     H29933   5.311   2.188   2.491  2.3070 -0.1483 -2.9167
  227MOL0     H29934   5.556   2.189   2.541 -0.6584  0.0457  2.4715
  227MOL0     H29935   5.549   2.361   2.572  1.1061 -0.1668 -0.9361
  227MOL0     H29936   5.483   2.417   2.323  0.8318 -0.1812 -4.7115
  227MOL0     H29937   5.638   2.331   2.347  0.3368  2.3452 -0.3563
  227MOL0     H29938   5.482   2.271   2.153 -2.6253  0.6543 -0.1010
  227MOL0     H29939   5.389   2.183   2.289  1.5977 -4.8125  0.8870
  227MOL0     H29940   5.574   2.050   2.357 -0.0971  1.9970  0.9323
  227MOL0     H29941   5.681   2.108   2.226  0.1719 -1.6720 -0.6284
  227MOL0     H29942   5.415   1.957   2.198 -0.9823 -0.9041 -3.6842
  227MOL0     H29943   5.503   2.002   2.068 -1.0074 -4.0529 -0.6164
  227MOL0     H29944   5.564   1.799   2.284  0.1434 -0.7738 -0.3659
  227MOL0     H29945   5.704   1.868   2.201 -0.0251  0.2247 -1.6043
  227MOL0     H29946   5.409   2.405   3.030  0.8589 -1.2904 -0.1472
  227MOL0     H29947   5.248   2.363   3.229 -1.9344  0.9356  0.6886
  227MOL0     H29948   4.735   2.318   3.303 -0.5663 -2.4114 -0.3367
  227MOL0     H29949   4.576   2.284   3.497  1.3386  1.0414 -0.1228
  227MOL0     H29950   5.420   0.821   3.835  0.5028 -1.3873 -0.2769
  227MOL0     H29951   5.371   0.595   3.775 -0.3864  3.0457 -4.5444
  227MOL0     H29952   4.959   0.258   3.877 -0.7168 -1.6644 -0.4402
  227MOL0     H29953   4.833   0.058   3.792  0.5182 -0.9274  0.2737
  227MOL0     H29954   4.844  -0.246   3.471 -4.0363  1.7540  0.6527
  227MOL0     H29955   5.011  -0.180   3.467  1.2296  0.9963 -1.3133
  227MOL0     H29956   4.758  -0.063   3.349  0.5368 -1.0198 -1.4936
  227MOL0     H29957   4.911   0.012   3.319 -0.6112  0.3875 -0.1341
  227MOL0     H29958   4.777  -0.230   3.215 -0.5669 -0.9192 -0.0310
  227MOL0     H29959   4.951  -0.256   3.245 -1.1026 -1.1830 -2.2012
  227MOL0     H29960   4.890  -0.192   2.998  4.1148 -0.4503 -0.4361
  227MOL0     H29961   4.839  -0.032   3.075 -0.7792 -1.1288 -1.5906
  227MOL0     H29962   5.257  -0.007   3.091 -2.1950  4.1302  1.1023
  227MOL0     H29963   5.102   0.024   3.466 -1.1960  0.2965  0.5414
  227MOL0     H29964   5.216   0.191   3.523  1.3167  0.1820  1.3610
  228MOL0     O29965   1.646   5.768   2.950  1.7069 -0.4223 -0.3158
  228MOL0     C29966   1.759   5.731   2.926 -0.1129  0.1675 -0.3043
  228MOL0     O29967   1.816   5.628   2.983 -0.5336 -0.0750  0.0867
  228MOL0     C29968   1.732   5.514   2.997  1.4337  0.7745 -0.8688
  228MOL0     C29969   1.762   5.437   3.110 -0.3753 -1.0782  0.3739
  228MOL0     C29970   1.679   5.335   3.144  0.0495 -0.5356  0.0331
  228MOL0     C29971   1.583   5.294   3.062  0.1015  0.6222 -0.9405
  228MOL0     O29972   1.495   5.202   3.115  0.6946  0.2270 -0.6496
  228MOL0     C29973   1.428   5.100   3.041  0.8103  0.1859 -0.2186
  228MOL0     C29974   1.527   4.975   3.022 -0.3572  0.9604  0.0432
  228MOL0     C29975   1.620   5.001   2.913 -0.4550 -0.5247  0.5386
  228MOL0     C29976   1.692   4.883   2.853  0.2792 -0.0040  0.4251
  228MOL0     C29977   1.601   4.801   2.773 -0.6907 -0.3406 -0.7329
  228MOL0     C29978   1.666   4.688   2.704  0.3111 -0.2224 -0.8011
  228MOL0     C29979   1.772   4.609   2.788 -0.1933  0.3402 -0.3001
  228MOL0     C29980   1.828   4.484   2.707  0.3926 -0.7152 -0.1872
  228MOL0     N29981   1.919   4.517   2.592  0.1448  0.0646  0.5994
  228MOL0     C29982   1.881   4.554   2.464  0.9649  1.0378  0.5998
  228MOL0     C29983   1.992   4.557   2.391 -0.1685  0.9933  0.2016
  228MOL0     C29984   2.003   4.602   2.253  0.6222  1.0682  0.7591
  228MOL0     C29985   1.885   4.546   2.176  0.2546 -0.8374 -0.1534
  228MOL0     C29986   1.874   4.388   2.183  0.4251 -0.3532 -0.1847
  228MOL0     C29987   1.937   4.309   2.068  0.2147  0.9502  0.2855
  228MOL0     O29988   1.907   4.169   2.077 -0.4010  0.1826 -0.4348
  228MOL0     C29989   1.975   4.094   1.987  0.0947 -0.3583  0.4660
  228MOL0     C29990   2.027   3.974   2.036  0.5627  0.0598  0.2987
  228MOL0     C29991   2.098   3.891   1.951 -0.0140  0.7371 -0.0509
  228MOL0     C29992   2.112   3.926   1.814  0.2411 -0.1202 -1.3029
  228MOL0     C29993   2.186   3.832   1.728  0.7170 -0.2719  0.1482
  228MOL0     O29994   2.299   3.778   1.766  0.4827  0.1816  1.1146
  228MOL0     C29995   2.313   3.635   1.761  0.0510 -0.5842  0.0087
  228MOL0     C29996   2.444   3.601   1.766 -0.2875 -0.3675  0.0965
  228MOL0     C29997   2.495   3.475   1.760  0.9883 -0.2822  0.4901
  228MOL0     C29998   2.411   3.367   1.735  0.0513 -0.1335 -0.3595
  228MOL0     O29999   2.477   3.251   1.749 -0.3301 -0.0986  0.6240
  228MOL0     C30000   2.419   3.126   1.740  0.4506  0.4809  0.0080
  228MOL0     C30001   2.434   3.048   1.867 -0.0790  0.0598 -0.9191
  228MOL0     C30002   2.380   3.104   1.995  0.8105  0.1427  0.8687
  228MOL0     C30003   2.229   3.099   2.012  0.5272  0.2117 -0.4101
  228MOL0     C30004   2.199   3.197   2.129 -0.3420 -1.3491  0.8649
  228MOL0     C30005   2.065   3.162   2.187  0.0560 -0.0049  0.4279
  228MOL0     C30006   2.039   3.221   2.325  0.6677  0.4057 -0.9338
  228MOL0     C30007   2.095   3.139   2.438 -0.7028 -0.4115  0.0749
  228MOL0    Cl30008   2.048   3.223   2.584 -0.0925 -0.3995  0.2127
  228MOL0     C30009   2.277   3.401   1.724  0.5980  0.3111 -0.8824
  228MOL0     C30010   2.227   3.533   1.725 -0.0838  0.1284 -0.3322
  228MOL0     O30011   2.153   3.831   1.615  0.5560  0.0007 -0.3510
  228MOL0     C30012   2.037   4.034   1.765 -1.1370 -1.2884 -0.3668
  228MOL0     C30013   1.967   4.121   1.849 -0.0030  1.0025 -0.3621
  228MOL0     N30014   2.107   4.512   2.465  0.5087  0.8756  0.4675
  228MOL0     N30015   2.056   4.490   2.583  1.2232 -0.1921 -0.4969
  228MOL0     C30016   1.576   5.352   2.935  0.4155  1.3601  1.4676
  228MOL0     C30017   1.640   5.470   2.903 -1.0258 -0.4946  0.6929
  228MOL0     C30018   1.829   5.807   2.827  0.4608 -0.9260  0.5683
  228MOL0     C30019   1.754   5.900   2.750 -0.4340 -0.7128  0.5186
  228MOL0     C30020   1.821   5.963   2.641 -0.0705 -0.0011  1.0607
  228MOL0     C30021   1.948   5.924   2.600  0.1300  1.0678  0.3289
  228MOL0     O30022   1.992   5.986   2.491 -0.2482  0.2254  0.4244
  228MOL0     C30023   2.131   5.986   2.450  0.2133  0.0342 -0.0792
  228MOL0     C30024   2.147   5.865   2.359 -0.1772  0.8083 -0.3163
  228MOL0     C30025   2.276   5.875   2.286 -1.6381 -0.8383  0.4214
  228MOL0     C30026   2.342   5.739   2.249  0.5690 -1.2414  0.5434
  228MOL0     C30027   2.255   5.637   2.194 -0.5901  0.8859  0.3306
  228MOL0     C30028   2.164   5.560   2.163 -0.0363 -0.2103  0.3707
  228MOL0     C30029   2.016   5.830   2.672 -0.3075 -1.0711 -0.8955
  228MOL0     C30030   1.959   5.772   2.788 -0.0480 -0.5773 -0.9277
  228MOL0     H30031   1.831   5.472   3.185  0.5285 -0.8382 -0.5539
  228MOL0     H30032   1.698   5.273   3.232 -2.5642  0.7043  1.6259
  228MOL0     H30033   1.377   5.127   2.949  0.0492  2.0967  0.7210
  228MOL0     H30034   1.348   5.058   3.104 -0.6190  0.0934 -2.0199
  228MOL0     H30035   1.473   4.884   2.992  0.5846  1.4043 -3.4700
  228MOL0     H30036   1.584   4.956   3.113 -1.0486  0.5140  0.3931
  228MOL0     H30037   1.708   5.056   2.950  0.5634 -1.2261 -0.7559
  228MOL0     H30038   1.572   5.067   2.840  1.9537  2.0368  1.0704
  228MOL0     H30039   1.761   4.927   2.780  2.4091 -2.7746  0.5628
  228MOL0     H30040   1.742   4.836   2.938  1.8255 -0.0883 -0.4879
  228MOL0     H30041   1.557   4.869   2.698  2.4262  1.8397 -0.7887
  228MOL0     H30042   1.516   4.763   2.830 -0.4543  2.7454  1.9877
  228MOL0     H30043   1.704   4.728   2.609 -2.1047 -0.1822 -1.8130
  228MOL0     H30044   1.577   4.628   2.684 -0.6019 -0.9000  4.1720
  228MOL0     H30045   1.858   4.673   2.809 -0.2596 -0.2449  1.9139
  228MOL0     H30046   1.724   4.574   2.880 -0.0192  0.6071 -0.1074
  228MOL0     H30047   1.739   4.428   2.676  1.5787 -1.6959 -2.0015
  228MOL0     H30048   1.883   4.421   2.778  0.3191  1.0967  1.5611
  228MOL0     H30049   1.782   4.589   2.437  0.8366 -0.8941 -1.9153
  228MOL0     H30050   2.091   4.558   2.204 -0.8416 -1.2668  0.0362
  228MOL0     H30051   2.026   4.704   2.222  0.7208  0.1956 -2.4548
  228MOL0     H30052   1.899   4.580   2.073 -3.4229 -2.5450 -1.3944
  228MOL0     H30053   1.791   4.591   2.209 -0.5263 -1.4775 -1.4119
  228MOL0     H30054   1.907   4.347   2.279  6.1498  1.4610 -1.0291
  228MOL0     H30055   1.768   4.360   2.182  1.7056 -6.7813  0.8544
  228MOL0     H30056   2.045   4.326   2.061  0.0571  1.6378 -0.9173
  228MOL0     H30057   1.912   4.361   1.975 -1.8382 -0.2410  0.1250
  228MOL0     H30058   2.003   3.943   2.137  0.0952  0.5785  0.3527
  228MOL0     H30059   2.149   3.812   2.005  1.4955  1.0692 -0.9379
  228MOL0     H30060   2.511   3.683   1.788 -1.0355 -0.2942  2.3635
  228MOL0     H30061   2.601   3.458   1.771  1.5824  2.4997 -0.2126
  228MOL0     H30062   2.465   3.070   1.659  1.7414  1.1865  0.2232
  228MOL0     H30063   2.313   3.149   1.724  0.4961  0.3931 -0.4283
  228MOL0     H30064   2.543   3.040   1.871  0.1804 -1.5066 -5.2302
  228MOL0     H30065   2.389   2.948   1.867  0.1995 -0.0714 -1.3589
  228MOL0     H30066   2.417   3.207   2.000  2.0970 -0.2162 -0.6071
  228MOL0     H30067   2.422   3.054   2.083  2.7906 -2.3291 -1.3320
  228MOL0     H30068   2.170   3.132   1.925 -2.0142  0.3577  1.2668
  228MOL0     H30069   2.195   2.999   2.040 -2.8110  1.0064 -1.1607
  228MOL0     H30070   2.206   3.300   2.094 -0.4896 -1.5380  0.2586
  228MOL0     H30071   2.273   3.172   2.205  2.2795  0.9123 -0.7671
  228MOL0     H30072   2.052   3.053   2.192 -1.9766  0.1937  0.2482
  228MOL0     H30073   1.996   3.200   2.111  1.4656  1.9747  0.0953
  228MOL0     H30074   2.070   3.324   2.343 -0.1564  0.1649  2.6511
  228MOL0     H30075   1.931   3.221   2.342  0.3825  0.5826 -2.6033
  228MOL0     H30076   2.204   3.139   2.431 -0.4463 -1.5022  2.7596
  228MOL0     H30077   2.076   3.031   2.436 -2.2070 -0.1617  0.0246
  228MOL0     H30078   2.194   3.335   1.700 -0.6239  1.4896 -0.0462
  228MOL0     H30079   2.121   3.548   1.706 -0.3569 -1.0269  0.2092
  228MOL0     H30080   2.016   4.046   1.659 -2.0488 -0.5017 -0.1072
  228MOL0     H30081   1.912   4.197   1.796  1.1648  0.6196 -2.2228
  228MOL0     H30082   1.510   5.301   2.865 -0.0831 -0.8799  3.4403
  228MOL0     H30083   1.633   5.535   2.816 -0.2716 -2.5840 -1.0073
  228MOL0     H30084   1.652   5.920   2.780  0.1813 -1.7604  3.7131
  228MOL0     H30085   1.759   6.038   2.593  1.0861  1.7078  2.1243
  228MOL0     H30086   2.189   5.968   2.541 -0.6662  0.3260  0.5535
  228MOL0     H30087   2.163   6.077   2.398  0.1842 -1.4750 -2.9129
  228MOL0     H30088   2.146   5.772   2.417  1.6839  0.5767 -0.6012
  228MOL0     H30089   2.066   5.854   2.286 -0.8897  1.0457  0.4283
  228MOL0     H30090   2.347   5.940   2.339 -2.2412  0.9263 -0.8366
  228MOL0     H30091   2.256   5.937   2.198 -0.1787  1.4759  1.5989
  228MOL0     H30092   2.418   5.761   2.173 -0.4357 -4.8063 -1.7021
  228MOL0     H30093   2.393   5.716   2.344  2.9906  1.9843  0.2395
  228MOL0     H30094   2.085   5.488   2.159 -1.3449  1.2578 -0.8481
  228MOL0     H30095   2.118   5.798   2.651 -0.0988 -0.1578 -1.3353
  228MOL0     H30096   2.005   5.696   2.850  1.3286 -0.4771 -1.7727
  229MOL0     O30097   4.059   4.336   2.140 -0.2691  0.7012 -0.3406
  229MOL0     C30098   4.105   4.230   2.119  0.3681  0.4801  0.3177
  229MOL0     O30099   4.195   4.198   2.017 -0.1778  0.0970  0.6345
  229MOL0     C30100   4.220   4.298   1.926  0.3402 -0.6445 -0.3013
  229MOL0     C30101   4.325   4.394   1.943  0.4992 -0.0543  0.2720
  229MOL0     C30102   4.367   4.473   1.836 -0.3262 -0.1382 -1.4754
  229MOL0     C30103   4.298   4.463   1.712  0.7435 -0.6069  0.0017
  229MOL0     O30104   4.324   4.541   1.602 -0.5715  0.5292  0.1335
  229MOL0     C30105   4.438   4.626   1.598  0.3783  0.0523  0.2513
  229MOL0     C30106   4.407   4.751   1.507 -0.3027  0.0341  0.2422
  229MOL0     C30107   4.343   4.714   1.374  0.4032  0.0738 -0.0698
  229MOL0     C30108   4.316   4.836   1.279  0.2711 -1.1282  0.2097
  229MOL0     C30109   4.277   4.791   1.135  0.2863 -0.3109 -0.3139
  229MOL0     C30110   4.397   4.746   1.051 -0.1272  0.7046  0.1099
  229MOL0     C30111   4.354   4.718   0.900  0.4110  0.7728  0.4050
  229MOL0     C30112   4.246   4.602   0.885 -0.3575  0.7624 -0.3398
  229MOL0     N30113   4.232   4.572   0.747  1.3337 -0.2923  0.0732
  229MOL0     C30114   4.190   4.657   0.648  0.7984  0.2617 -0.4522
  229MOL0     C30115   4.135   4.584   0.545  0.3651  0.2168  0.0887
  229MOL0     C30116   4.107   4.641   0.414 -0.4316 -0.0744 -0.0309
  229MOL0     C30117   3.952   4.664   0.407 -0.1707 -0.3588 -0.6142
  229MOL0     C30118   3.905   4.678   0.268  0.4400 -0.3606 -0.3529
  229MOL0     C30119   3.756   4.701   0.278  0.0093  0.9756 -0.6074
  229MOL0     O30120   3.725   4.814   0.355 -0.9265  0.7217  0.4072
  229MOL0     C30121   3.719   4.937   0.307 -1.2306  0.3683  0.3495
  229MOL0     C30122   3.686   5.043   0.396 -0.1005  0.3590 -0.3039
  229MOL0     C30123   3.670   5.178   0.351  0.4807  0.2477 -0.4588
  229MOL0     C30124   3.677   5.207   0.208  0.8063 -0.4731 -0.2184
  229MOL0     C30125   3.674   5.347   0.154 -0.0334  0.2818  0.0845
  229MOL0     O30126   3.630   5.363   0.021 -0.3050  0.3404 -0.4108
  229MOL0     C30127   3.631   5.492  -0.040 -0.1268  0.2729 -0.4251
  229MOL0     C30128   3.686   5.616   0.003 -0.5403 -0.8476 -0.3920
  229MOL0     C30129   3.673   5.730  -0.070  0.5676 -0.3010 -0.4427
  229MOL0     C30130   3.606   5.736  -0.191 -0.6983  0.6843  0.1915
  229MOL0     O30131   3.586   5.840  -0.274 -0.5214  0.0256 -0.2341
  229MOL0     C30132   3.667   5.957  -0.253 -0.4126 -0.4151  0.1586
  229MOL0     C30133   3.622   6.061  -0.365 -0.0286 -0.0075 -0.4924
  229MOL0     C30134   3.684   6.207  -0.328  0.0026  0.4272 -0.4160
  229MOL0     C30135   3.838   6.181  -0.346 -0.9172 -1.3422 -0.0480
  229MOL0     C30136   3.913   6.309  -0.287 -0.3709 -0.3675  0.1572
  229MOL0     C30137   4.060   6.291  -0.248 -0.3958  0.4105 -0.0337
  229MOL0     C30138   4.078   6.220  -0.112 -0.4599 -0.2094 -0.3541
  229MOL0     C30139   4.238   6.194  -0.088 -0.6611 -0.8057  0.3626
  229MOL0    Cl30140   4.331   6.340  -0.054 -0.0180 -0.2513 -0.0074
  229MOL0     C30141   3.546   5.611  -0.229  0.1296 -0.4725 -0.1093
  229MOL0     C30142   3.548   5.500  -0.149  0.2216  0.1842 -1.0874
  229MOL0     O30143   3.718   5.437   0.227  0.6213  0.1556 -0.3633
  229MOL0     C30144   3.708   5.102   0.120  0.4114  0.1344  0.6664
  229MOL0     C30145   3.735   4.977   0.171  0.7485  0.0768  0.5032
  229MOL0     N30146   4.171   4.453   0.573  0.1925  0.0697 -0.1297
  229MOL0     N30147   4.208   4.446   0.699 -0.6317 -0.7740  0.7773
  229MOL0     C30148   4.197   4.370   1.701 -0.3621  0.4617  0.8954
  229MOL0     C30149   4.156   4.291   1.806  0.4990 -0.7330 -0.1743
  229MOL0     C30150   4.079   4.115   2.204 -0.3359  1.2100 -0.7447
  229MOL0     C30151   4.031   4.137   2.340 -0.2625  0.9619  0.1232
  229MOL0     C30152   4.021   4.027   2.435  0.5441 -0.4286  0.3263
  229MOL0     C30153   4.060   3.896   2.390 -0.6940 -0.2126 -0.1104
  229MOL0     O30154   4.072   3.777   2.461  0.4610  0.6206  1.1959
  229MOL0     C30155   4.008   3.778   2.592  0.2336  0.0549 -0.8813
  229MOL0     C30156   3.860   3.765   2.571 -0.4552  0.1849 -0.2972
  229MOL0     C30157   3.829   3.628   2.511  0.7584 -0.1698 -0.0957
  229MOL0     C30158   3.680   3.601   2.501  1.0892  0.8848 -0.5840
  229MOL0     C30159   3.644   3.461   2.454  0.0651  0.9173 -0.8378
  229MOL0     C30160   3.623   3.352   2.399  0.1655 -0.7619 -0.5061
  229MOL0     C30161   4.120   3.881   2.265 -0.9623  0.7985  0.0524
  229MOL0     C30162   4.122   3.982   2.170  0.5561 -0.7392  0.6098
  229MOL0     H30163   4.379   4.401   2.037  1.0488 -0.6380  0.0132
  229MOL0     H30164   4.452   4.538   1.855  0.7870 -0.0331 -5.7689
  229MOL0     H30165   4.516   4.565   1.552  0.2633  0.4974 -0.5551
  229MOL0     H30166   4.483   4.650   1.695 -1.3220 -1.2197  1.4192
  229MOL0     H30167   4.500   4.802   1.481 -0.2586  0.4775  1.2205
  229MOL0     H30168   4.354   4.832   1.558  0.1279  1.2212 -1.1565
  229MOL0     H30169   4.245   4.666   1.385 -0.4653  1.1009 -2.6329
  229MOL0     H30170   4.416   4.645   1.329  1.1493  1.3807 -0.9278
  229MOL0     H30171   4.229   4.891   1.317 -0.8343 -0.9541 -2.4013
  229MOL0     H30172   4.407   4.897   1.273 -3.1362  5.0908  2.4971
  229MOL0     H30173   4.246   4.883   1.086  3.6448  0.3880 -1.4511
  229MOL0     H30174   4.200   4.714   1.126  2.5219 -2.8059  0.2419
  229MOL0     H30175   4.434   4.648   1.082  2.3274  0.9994 -1.5728
  229MOL0     H30176   4.488   4.805   1.059  0.1839  0.4075 -1.0262
  229MOL0     H30177   4.321   4.814   0.859 -2.3512 -0.6598 -1.0481
  229MOL0     H30178   4.442   4.700   0.839 -1.4206  2.0372 -2.8463
  229MOL0     H30179   4.151   4.647   0.916 -1.1268  0.2148 -1.8038
  229MOL0     H30180   4.279   4.516   0.943  2.3221  3.5540  2.7047
  229MOL0     H30181   4.195   4.766   0.644  2.7028  0.1849 -1.1635
  229MOL0     H30182   4.129   4.562   0.341 -1.2206 -0.6731  0.3585
  229MOL0     H30183   4.173   4.727   0.400 -2.2844  1.7971  1.9824
  229MOL0     H30184   3.930   4.746   0.476  1.2147  0.8848 -1.6016
  229MOL0     H30185   3.902   4.573   0.443  1.2625 -0.5547  1.0468
  229MOL0     H30186   3.964   4.750   0.211 -1.5481  0.6211 -1.2622
  229MOL0     H30187   3.929   4.581   0.223  1.8107 -1.0528  1.7236
  229MOL0     H30188   3.708   4.617   0.328  2.2830 -0.9349 -1.4548
  229MOL0     H30189   3.713   4.697   0.178  1.0701 -0.3663 -1.0363
  229MOL0     H30190   3.689   5.015   0.501 -2.5999  3.4044  0.7420
  229MOL0     H30191   3.665   5.265   0.416 -2.7688 -0.8347  0.9051
  229MOL0     H30192   3.746   5.629   0.092  0.6255 -0.9693 -1.1425
  229MOL0     H30193   3.729   5.812  -0.027  1.6198 -1.3765  0.3266
  229MOL0     H30194   3.772   5.929  -0.263 -0.8940 -3.0841  1.5472
  229MOL0     H30195   3.653   5.998  -0.153  0.4195  0.3039 -0.0107
  229MOL0     H30196   3.513   6.070  -0.355  0.0235 -0.0892  0.1905
  229MOL0     H30197   3.649   6.024  -0.464 -2.7919  1.9127 -2.1046
  229MOL0     H30198   3.658   6.237  -0.226 -1.5635  1.5424 -1.1056
  229MOL0     H30199   3.643   6.274  -0.405 -0.5900  0.1381 -0.3608
  229MOL0     H30200   3.887   6.097  -0.296  0.2370 -1.2352 -0.9543
  229MOL0     H30201   3.865   6.167  -0.451  1.4412  2.3066 -0.1036
  229MOL0     H30202   3.859   6.352  -0.203  0.6106 -0.2649  0.7547
  229MOL0     H30203   3.910   6.381  -0.369  3.4720 -3.1097 -2.7578
  229MOL0     H30204   4.114   6.385  -0.236  0.6332 -0.5122  3.8001
  229MOL0     H30205   4.103   6.231  -0.329  0.5679  3.2467 -1.7725
  229MOL0     H30206   4.024   6.283  -0.042 -0.2082 -0.1820 -0.1864
  229MOL0     H30207   4.035   6.120  -0.123  2.5238 -1.5574 -0.9962
  229MOL0     H30208   4.287   6.133  -0.164  1.4878  1.2413 -0.0208
  229MOL0     H30209   4.250   6.127  -0.002  0.8857  1.9666  2.4814
  229MOL0     H30210   3.471   5.609  -0.308 -0.8137  4.7362  0.2860
  229MOL0     H30211   3.498   5.408  -0.177  4.7571 -3.4259  1.3404
  229MOL0     H30212   3.718   5.126   0.015  1.1532  2.0582  1.1480
  229MOL0     H30213   3.740   4.900   0.096 -3.6133  1.6938 -1.8091
  229MOL0     H30214   4.150   4.355   1.605 -1.4544 -0.9134  1.6113
  229MOL0     H30215   4.081   4.214   1.787 -2.1057  1.7115 -0.4498
  229MOL0     H30216   3.998   4.237   2.368 -4.0077 -0.1474  0.2635
  229MOL0     H30217   3.993   4.047   2.538  1.4168  3.1682  0.0265
  229MOL0     H30218   4.046   3.863   2.649 -3.6733 -0.5678  3.1782
  229MOL0     H30219   4.050   3.688   2.639  2.6447  1.9258  0.8578
  229MOL0     H30220   3.817   3.781   2.670 -4.7989  0.9883 -2.1143
  229MOL0     H30221   3.821   3.841   2.503 -1.2569  1.3596  1.3818
  229MOL0     H30222   3.870   3.552   2.578  1.8408  1.0277  0.6697
  229MOL0     H30223   3.887   3.624   2.418 -2.2554  0.7105 -2.1864
  229MOL0     H30224   3.636   3.606   2.601 -2.9787 -0.3380 -2.1032
  229MOL0     H30225   3.639   3.671   2.429 -1.4819  0.2461  0.1524
  229MOL0     H30226   3.613   3.250   2.367  2.4859 -0.9592 -0.8187
  229MOL0     H30227   4.153   3.780   2.243  2.7061  1.8669 -0.0384
  229MOL0     H30228   4.146   3.956   2.068 -0.4712  0.3298  0.0689
  230MOL0     O30229   6.319   3.318   1.143 -1.5886 -0.2277 -0.3415
  230MOL0     C30230   6.389   3.247   1.222 -0.0731 -0.0612  1.0718
  230MOL0     O30231   6.449   3.125   1.193 -0.0331 -0.2705  0.3170
  230MOL0     C30232   6.401   3.071   1.074 -1.2050  0.7231 -0.0680
  230MOL0     C30233   6.465   3.095   0.955 -0.4268  1.3881 -0.5214
  230MOL0     C30234   6.421   3.035   0.840  0.2466  0.9140 -0.6859
  230MOL0     C30235   6.318   2.938   0.843  0.0738 -0.2363 -0.5121
  230MOL0     O30236   6.273   2.869   0.741  0.0435 -0.0288  0.2844
  230MOL0     C30237   6.358   2.845   0.627 -0.3068 -0.7586 -0.2422
  230MOL0     C30238   6.322   2.933   0.509 -0.5017  1.0721 -0.2905
  230MOL0     C30239   6.174   2.951   0.492  0.4529 -0.0376 -0.8666
  230MOL0     C30240   6.147   3.061   0.380 -0.9655  0.0314  0.0200
  230MOL0     C30241   6.011   3.047   0.326 -0.7098  0.4128 -1.4589
  230MOL0     C30242   5.991   3.140   0.204 -0.0111 -0.2291 -0.5604
  230MOL0     C30243   5.847   3.171   0.171  0.0709 -0.0544  0.8498
  230MOL0     C30244   5.777   3.033   0.134  0.6734 -0.1136  0.4420
  230MOL0     N30245   5.646   3.073   0.074  1.7057 -0.1155  0.3057
  230MOL0     C30246   5.527   3.068   0.145 -0.8468  0.1197 -0.5113
  230MOL0     C30247   5.443   3.138   0.071 -0.5166 -0.6592 -0.3223
  230MOL0     C30248   5.297   3.160   0.099  0.1806  0.0481  0.6300
  230MOL0     C30249   5.215   3.038   0.139  0.6021  0.0695  0.1113
  230MOL0     C30250   5.070   3.074   0.186 -0.8199 -0.3546  0.4620
  230MOL0     C30251   4.985   2.955   0.233  0.3690 -0.6924  0.7016
  230MOL0     O30252   5.050   2.890   0.339  0.1221  0.3810  0.7866
  230MOL0     C30253   5.056   2.948   0.458 -0.1924 -0.0657 -0.7104
  230MOL0     C30254   5.187   2.979   0.512  0.7516  0.9301  0.0647
  230MOL0     C30255   5.203   3.040   0.636  0.6476  0.0790 -1.0766
  230MOL0     C30256   5.081   3.085   0.697  1.2223 -0.2357 -0.3280
  230MOL0     C30257   5.095   3.173   0.820  0.2604  0.4070 -0.2317
  230MOL0     O30258   5.192   3.133   0.896 -0.0692  0.5359 -0.4619
  230MOL0     C30259   5.250   3.213   0.991 -0.5922  0.1452  0.2604
  230MOL0     C30260   5.221   3.344   1.025 -0.6083 -0.8165 -0.4325
  230MOL0     C30261   5.290   3.416   1.123  0.9334 -0.0664  0.2899
  230MOL0     C30262   5.382   3.344   1.211  1.0623 -0.6706  1.2246
  230MOL0     O30263   5.445   3.394   1.322  0.0523 -0.0175 -0.7206
  230MOL0     C30264   5.384   3.514   1.379  0.1979 -0.7684 -0.3627
  230MOL0     C30265   5.434   3.541   1.521  0.0240  0.3493  0.6809
  230MOL0     C30266   5.578   3.588   1.523 -0.1286 -0.1834 -0.7957
  230MOL0     C30267   5.621   3.602   1.673  0.0665 -0.0197  0.4232
  230MOL0     C30268   5.762   3.661   1.674 -0.8229  0.5171 -0.3131
  230MOL0     C30269   5.818   3.691   1.816 -0.3342  0.5208  0.2557
  230MOL0     C30270   5.935   3.793   1.786  1.0066 -0.4887  0.4895
  230MOL0     C30271   6.061   3.740   1.702  0.5027 -1.2695 -0.8066
  230MOL0    Cl30272   6.200   3.844   1.714 -0.4107 -0.2204 -0.1583
  230MOL0     C30273   5.413   3.220   1.171 -0.3529  0.2915 -0.0705
  230MOL0     C30274   5.358   3.158   1.065 -0.4498  1.3343  0.2520
  230MOL0     O30275   5.018   3.263   0.833 -0.0808 -0.4288 -0.4925
  230MOL0     C30276   4.956   3.055   0.642  0.4591 -0.3375  0.1349
  230MOL0     C30277   4.947   2.982   0.527 -0.5493  0.0409 -0.1095
  230MOL0     N30278   5.513   3.192  -0.036  0.6013 -0.1344 -0.5393
  230MOL0     N30279   5.637   3.154  -0.031 -0.3856 -0.7749 -0.0276
  230MOL0     C30280   6.255   2.915   0.965 -1.2355  0.8570  0.3055
  230MOL0     C30281   6.291   2.986   1.078  0.0149 -0.1529 -0.1766
  230MOL0     C30282   6.402   3.312   1.350  0.1900  0.0679  0.4642
  230MOL0     C30283   6.524   3.286   1.419  0.0652  0.3597 -0.8278
  230MOL0     C30284   6.548   3.335   1.550 -0.8288 -0.1357 -0.2441
  230MOL0     C30285   6.457   3.419   1.610 -0.3278 -0.0982  1.0043
  230MOL0     O30286   6.481   3.446   1.739  0.1765 -0.2855  1.7281
  230MOL0     C30287   6.388   3.530   1.820 -0.2323  0.2459  0.3874
  230MOL0     C30288   6.448   3.560   1.960  0.5187  0.6691  0.8103
  230MOL0     C30289   6.437   3.444   2.053 -0.0237 -0.0326  0.1885
  230MOL0     C30290   6.548   3.452   2.149 -0.3274  0.3854  0.0642
  230MOL0     C30291   6.518   3.555   2.261  1.0904  0.6535  0.0053
  230MOL0     C30292   6.484   3.636   2.348 -0.3214  0.5432 -0.0612
  230MOL0     C30293   6.328   3.455   1.547  0.3316 -0.0754  0.4628
  230MOL0     C30294   6.304   3.386   1.418 -0.2809 -0.1532  0.0867
  230MOL0     H30295   6.552   3.158   0.964 -1.0368  2.0972  0.6145
  230MOL0     H30296   6.463   3.057   0.743  1.3257 -1.0273 -0.7020
  230MOL0     H30297   6.341   2.749   0.578  1.2146  0.4245 -3.4340
  230MOL0     H30298   6.461   2.862   0.657 -0.4606  0.8866 -0.5467
  230MOL0     H30299   6.355   2.889   0.415  2.2616  1.2041  0.5113
  230MOL0     H30300   6.378   3.027   0.504 -0.9674  1.2781 -2.9571
  230MOL0     H30301   6.125   2.995   0.580  0.1889 -1.0963 -0.4770
  230MOL0     H30302   6.130   2.852   0.482 -1.4816  0.8250 -1.4244
  230MOL0     H30303   6.161   3.156   0.432  0.4607 -1.5897  2.8271
  230MOL0     H30304   6.225   3.037   0.307 -0.3557 -1.4813  1.1149
  230MOL0     H30305   5.938   3.054   0.407  1.2623  0.0251  0.4452
  230MOL0     H30306   6.011   2.943   0.295  1.6465 -0.6894  1.6656
  230MOL0     H30307   6.062   3.120   0.123 -1.6006  0.2587 -2.1229
  230MOL0     H30308   6.035   3.234   0.238 -0.2931 -1.2284  2.8907
  230MOL0     H30309   5.806   3.212   0.264  3.3497  2.4884  1.3626
  230MOL0     H30310   5.837   3.238   0.085 -1.7123 -4.3059 -2.5905
  230MOL0     H30311   5.764   2.966   0.219 -1.5903 -0.3648 -0.0423
  230MOL0     H30312   5.832   2.980   0.055  0.1913 -1.1172  0.7612
  230MOL0     H30313   5.505   3.008   0.232 -0.0772 -1.5137 -1.3890
  230MOL0     H30314   5.240   3.188   0.009 -2.5833 -3.6271  0.9953
  230MOL0     H30315   5.296   3.239   0.175  2.1582  0.1807  0.5721
  230MOL0     H30316   5.260   2.981   0.221 -2.2495  1.3262  2.7838
  230MOL0     H30317   5.209   2.984   0.045 -1.3915  2.2460 -1.1169
  230MOL0     H30318   5.075   3.151   0.263  3.5054  1.0525 -0.9194
  230MOL0     H30319   5.024   3.133   0.107 -0.1942  1.0084  1.0812
  230MOL0     H30320   4.967   2.893   0.144 -1.5788  0.6395  0.0879
  230MOL0     H30321   4.883   2.986   0.256  0.9629 -0.3142  3.0716
  230MOL0     H30322   5.279   2.959   0.458  0.3125  0.2024 -0.4456
  230MOL0     H30323   5.297   3.057   0.687  1.2198  1.0151 -2.3724
  230MOL0     H30324   5.139   3.402   0.986  0.2822  0.7127 -0.1207
  230MOL0     H30325   5.263   3.520   1.139 -0.2394  0.3356 -3.3447
  230MOL0     H30326   5.276   3.497   1.371  0.3505 -1.2044 -1.7787
  230MOL0     H30327   5.411   3.597   1.314  0.0647 -1.5284 -1.4111
  230MOL0     H30328   5.415   3.447   1.574 -1.2946  0.3425  0.2245
  230MOL0     H30329   5.374   3.622   1.564  1.1891  2.4328 -1.3914
  230MOL0     H30330   5.581   3.684   1.470 -1.4131  0.1317 -0.3199
  230MOL0     H30331   5.640   3.515   1.471  1.8358  0.9809 -0.1968
  230MOL0     H30332   5.543   3.661   1.721 -2.6229 -1.1068 -2.2659
  230MOL0     H30333   5.625   3.498   1.706  0.0032  0.4029  1.8203
  230MOL0     H30334   5.759   3.753   1.614  0.3559  2.0838  1.8746
  230MOL0     H30335   5.828   3.588   1.626 -1.0203 -1.0759  1.6890
  230MOL0     H30336   5.862   3.600   1.858 -2.0028 -0.7937 -0.7086
  230MOL0     H30337   5.747   3.718   1.895 -0.4425 -0.2915  0.4377
  230MOL0     H30338   5.895   3.874   1.724 -2.9682 -2.5654  0.0675
  230MOL0     H30339   5.972   3.819   1.886  0.1346  3.2051 -0.0011
  230MOL0     H30340   6.029   3.745   1.597 -4.2106  1.0083  0.4516
  230MOL0     H30341   6.083   3.636   1.725 -3.6688 -1.4957  3.9413
  230MOL0     H30342   5.477   3.158   1.233 -1.8707  1.2396  2.6155
  230MOL0     H30343   5.377   3.052   1.049 -0.2051  0.7874  3.3716
  230MOL0     H30344   4.861   3.087   0.685 -0.7810 -1.1532 -1.8493
  230MOL0     H30345   4.859   2.926   0.496 -0.3897 -1.2273  1.5850
  230MOL0     H30346   6.178   2.838   0.964 -0.0117 -0.3967 -0.8500
  230MOL0     H30347   6.235   2.974   1.170 -1.2192 -0.7310 -0.9691
  230MOL0     H30348   6.602   3.228   1.371 -0.4441 -0.4665 -0.6715
  230MOL0     H30349   6.644   3.326   1.599  0.2054  0.1121 -2.1291
  230MOL0     H30350   6.286   3.494   1.831 -0.7564  1.4303 -0.3313
  230MOL0     H30351   6.384   3.625   1.766  0.2563 -0.5098 -1.0384
  230MOL0     H30352   6.550   3.586   1.930  0.6433  2.6282  2.6680
  230MOL0     H30353   6.403   3.649   2.005 -0.5901  0.6011 -0.0970
  230MOL0     H30354   6.440   3.350   1.996  1.9920  0.2875 -0.3085
  230MOL0     H30355   6.343   3.438   2.109 -0.1095  0.2133  0.0736
  230MOL0     H30356   6.578   3.359   2.198  0.2914  2.5430  4.1981
  230MOL0     H30357   6.639   3.484   2.097  0.2391  0.3227  1.0075
  230MOL0     H30358   6.463   3.703   2.429  0.4561  2.8800 -1.6644
  230MOL0     H30359   6.254   3.524   1.586  2.1194  1.5577  1.0900
  230MOL0     H30360   6.212   3.403   1.363  1.4967  0.2927 -2.9860
  231MOL0     O30361   2.378  10.414   3.420 -0.5259  0.2059  0.0934
  231MOL0     C30362   2.423  10.308   3.464 -0.7684  0.6277  0.2702
  231MOL0     O30363   2.544  10.295   3.537 -0.3336 -0.1971  0.0416
  231MOL0     C30364   2.632  10.397   3.546 -0.5073 -0.6547 -0.3675
  231MOL0     C30365   2.728  10.414   3.438  0.6826  0.9184 -0.6501
  231MOL0     C30366   2.829  10.516   3.448 -0.2484  0.1404  0.6301
  231MOL0     C30367   2.844  10.587   3.567 -0.3730 -0.3588  0.3134
  231MOL0     O30368   2.941  10.690   3.588  0.2504  0.2489 -0.1433
  231MOL0     C30369   3.069  10.678   3.521 -0.4417 -0.7230 -0.3316
  231MOL0     C30370   3.177  10.765   3.593 -0.5674  0.4077 -0.5796
  231MOL0     C30371   3.202  10.715   3.739 -0.2490 -0.5221  0.3372
  231MOL0     C30372   3.307  10.799   3.811  0.4711 -0.1038 -0.4535
  231MOL0     C30373   3.321  10.737   3.956  0.3065 -0.2084 -0.3425
  231MOL0     C30374   3.439  10.783   4.032 -0.2195  0.1713 -0.1840
  231MOL0     C30375   3.577  10.768   3.966  0.1183  0.2849 -0.1757
  231MOL0     C30376   3.612  10.633   3.910 -0.1550 -0.1649 -0.3315
  231MOL0     N30377   3.742  10.634   3.850 -0.5060 -0.2972  0.2118
  231MOL0     C30378   3.863  10.637   3.911 -0.2256 -0.6030 -0.3586
  231MOL0     C30379   3.959  10.625   3.822  0.1498 -0.4107 -0.1599
  231MOL0     C30380   4.096  10.661   3.846 -1.7574 -0.8676  0.0988
  231MOL0     C30381   4.141  10.666   3.998 -0.0254 -0.1217 -0.1526
  231MOL0     C30382   4.157  10.525   4.063 -0.7567 -0.2729  0.7775
  231MOL0     C30383   4.144  10.538   4.212  0.7713 -0.8596 -0.3084
  231MOL0     O30384   4.221  10.644   4.261  0.0683 -0.6817 -0.4657
  231MOL0     C30385   4.195  10.683   4.394 -0.2805  0.1475 -0.2010
  231MOL0     C30386   4.171  10.821   4.420 -0.4425 -0.3883  0.0898
  231MOL0     C30387   4.143  10.864   4.552 -1.3888  0.7046 -0.5754
  231MOL0     C30388   4.130  10.765   4.653  0.7732 -0.6372  0.3952
  231MOL0     C30389   4.076  10.814   4.786 -0.5977 -1.2057  0.5584
  231MOL0     O30390   4.019  10.947   4.794 -0.7642  0.2944  0.6325
  231MOL0     C30391   3.939  10.970   4.899 -0.1257  0.2067  0.1092
  231MOL0     C30392   4.002  11.009   5.024  0.5179  1.4536 -1.2525
  231MOL0     C30393   3.920  11.036   5.131  0.1472  0.5778  0.3159
  231MOL0     C30394   3.786  11.033   5.117 -0.1928 -0.5349  0.7090
  231MOL0     O30395   3.708  11.081   5.220  1.7030 -0.8042  0.4093
  231MOL0     C30396   3.578  11.036   5.215 -1.3363  0.2599 -0.2291
  231MOL0     C30397   3.519  11.047   5.363  0.2732 -0.3364  0.9805
  231MOL0     C30398   3.548  11.192   5.414 -0.8049 -0.1447  0.0779
  231MOL0     C30399   3.456  11.216   5.533 -0.5808 -0.2950  0.2018
  231MOL0     C30400   3.396  11.351   5.553  0.4403  0.9562 -0.3537
  231MOL0     C30401   3.502  11.459   5.588 -0.4370 -0.0820  1.0079
  231MOL0     C30402   3.424  11.578   5.639  0.9808 -0.8907 -0.3212
  231MOL0     C30403   3.524  11.662   5.718 -0.2847 -0.0929 -1.3021
  231MOL0    Cl30404   3.563  11.615   5.889  0.3483 -0.3090 -0.0653
  231MOL0     C30405   3.727  11.006   4.989  0.3865  1.6720 -0.0422
  231MOL0     C30406   3.803  10.969   4.875  0.4200  0.5311  0.2385
  231MOL0     O30407   4.068  10.720   4.869 -1.0705 -0.6711 -0.7186
  231MOL0     C30408   4.162  10.635   4.626  0.1388 -0.3530 -0.3848
  231MOL0     C30409   4.191  10.591   4.501 -0.1524  0.2041  0.1884
  231MOL0     N30410   3.905  10.608   3.703  0.1419  0.0979 -0.0039
  231MOL0     N30411   3.774  10.609   3.718 -0.7078  0.1115 -0.0319
  231MOL0     C30412   2.749  10.567   3.679 -0.3980  0.3414 -0.0075
  231MOL0     C30413   2.651  10.470   3.662  1.0907  0.1439 -0.1740
  231MOL0     C30414   2.364  10.185   3.423  0.7615  0.3246  0.0946
  231MOL0     C30415   2.380  10.068   3.507 -0.1742 -1.0564 -0.5244
  231MOL0     C30416   2.325   9.947   3.470 -0.5107  0.7198 -0.8301
  231MOL0     C30417   2.247   9.940   3.353 -0.2265  0.2120 -0.1550
  231MOL0     O30418   2.207   9.820   3.294 -0.2078  0.1469  0.2156
  231MOL0     C30419   2.126   9.732   3.367  0.5469  0.3064 -0.0266
  231MOL0     C30420   1.977   9.768   3.345  0.3966  0.3740  0.3574
  231MOL0     C30421   1.871   9.703   3.432 -0.0292  0.5829  0.9086
  231MOL0     C30422   1.732   9.705   3.363 -1.1456  0.3096 -0.4283
  231MOL0     C30423   1.679   9.840   3.376 -0.0259 -0.0748  0.1163
  231MOL0     C30424   1.638   9.953   3.395 -0.6480 -0.1522  1.0578
  231MOL0     C30425   2.232  10.054   3.271  1.0837 -0.4236  0.9037
  231MOL0     C30426   2.294  10.171   3.309  0.9505  0.1632 -0.1197
  231MOL0     H30427   2.730  10.354   3.347  3.1837 -1.4217  0.8033
  231MOL0     H30428   2.902  10.521   3.368 -0.7377 -0.2600  0.1427
  231MOL0     H30429   3.063  10.715   3.418 -1.1377  2.6249  0.7789
  231MOL0     H30430   3.098  10.573   3.524  2.1829 -0.0469  0.6112
  231MOL0     H30431   3.143  10.869   3.595  2.7144  1.6241 -1.6968
  231MOL0     H30432   3.268  10.743   3.537 -0.7554 -1.3479 -0.2587
  231MOL0     H30433   3.246  10.616   3.724  1.5850  0.6272 -2.7313
  231MOL0     H30434   3.104  10.713   3.787 -0.7149 -0.1513 -0.5792
  231MOL0     H30435   3.404  10.793   3.761  1.1083  1.3175  0.5216
  231MOL0     H30436   3.263  10.899   3.812 -0.5233 -0.5323 -0.8130
  231MOL0     H30437   3.315  10.628   3.949 -1.2281 -0.0912 -1.4902
  231MOL0     H30438   3.237  10.766   4.020  1.9790  0.2950  1.7152
  231MOL0     H30439   3.437  10.720   4.120 -5.1434 -1.0085 -0.8873
  231MOL0     H30440   3.424  10.890   4.052  1.1867  1.1946 -3.7715
  231MOL0     H30441   3.583  10.841   3.885 -2.4667  0.2355 -0.4916
  231MOL0     H30442   3.649  10.789   4.046 -1.1805 -2.9391  2.0618
  231MOL0     H30443   3.538  10.592   3.842 -2.1867  1.7806  0.5852
  231MOL0     H30444   3.617  10.580   4.006  0.5187  0.7440  0.1496
  231MOL0     H30445   3.876  10.655   4.017 -3.0560  3.2466 -0.4286
  231MOL0     H30446   4.117  10.766   3.825 -1.3773 -0.7187  1.1534
  231MOL0     H30447   4.167  10.597   3.792 -0.3711  0.1923  0.6150
  231MOL0     H30448   4.071  10.731   4.052 -2.0137  0.9680 -3.7224
  231MOL0     H30449   4.239  10.714   4.006  1.0317 -2.2029  0.0028
  231MOL0     H30450   4.078  10.453   4.041 -1.4160  1.0310 -1.5755
  231MOL0     H30451   4.248  10.485   4.020  1.6831  3.7324  1.6415
  231MOL0     H30452   4.161  10.444   4.264  1.6513 -1.5646 -1.8252
  231MOL0     H30453   4.039  10.562   4.233  1.3465 -0.7575  2.9483
  231MOL0     H30454   4.181  10.891   4.337 -0.1201  0.5227  0.8721
  231MOL0     H30455   4.123  10.969   4.571 -3.2492  0.4699 -1.1100
  231MOL0     H30456   4.110  11.022   5.035  0.5281  0.9628 -0.7567
  231MOL0     H30457   3.970  11.062   5.225  0.4254 -1.2032  0.6883
  231MOL0     H30458   3.570  10.929   5.196  0.8512 -0.0537  0.3988
  231MOL0     H30459   3.524  11.084   5.133  0.9144  1.2250 -1.2274
  231MOL0     H30460   3.548  10.963   5.427 -0.7765 -2.3151 -1.0428
  231MOL0     H30461   3.412  11.028   5.353  0.2962 -0.2273  0.5236
  231MOL0     H30462   3.519  11.261   5.334  1.0373  1.1191  0.4396
  231MOL0     H30463   3.651  11.208   5.447 -0.5517  1.5669 -1.4048
  231MOL0     H30464   3.374  11.144   5.539  1.7365 -2.9870  2.5467
  231MOL0     H30465   3.526  11.194   5.614  0.7902 -1.6868 -1.2784
  231MOL0     H30466   3.333  11.350   5.642 -0.9692 -2.5800 -1.2274
  231MOL0     H30467   3.331  11.378   5.470 -3.1531  0.9712  2.2262
  231MOL0     H30468   3.561  11.494   5.503  0.2990 -0.4421  1.3642
  231MOL0     H30469   3.574  11.412   5.656  0.8987 -0.6649 -0.7427
  231MOL0     H30470   3.387  11.639   5.556 -0.6600 -0.6860  0.5080
  231MOL0     H30471   3.337  11.555   5.701 -0.3380 -0.6762 -2.0254
  231MOL0     H30472   3.501  11.769   5.717  2.1105  0.5305  0.5955
  231MOL0     H30473   3.617  11.652   5.662  0.9216  1.1108  0.3782
  231MOL0     H30474   3.621  11.013   4.966  0.4328 -0.8002 -1.4538
  231MOL0     H30475   3.761  10.946   4.778  0.5578 -1.3754  0.5934
  231MOL0     H30476   4.163  10.562   4.706 -2.8113  1.1183  1.1819
  231MOL0     H30477   4.227  10.490   4.483  1.6965  1.3079 -3.0232
  231MOL0     H30478   2.751  10.617   3.775 -0.0588  0.1327  0.0971
  231MOL0     H30479   2.581  10.466   3.745 -1.2273 -0.0948 -2.0401
  231MOL0     H30480   2.445  10.070   3.594 -0.6085  4.3100  0.0433
  231MOL0     H30481   2.342   9.853   3.523  2.9460  1.9592  0.5241
  231MOL0     H30482   2.151   9.731   3.473 -1.0342  0.0072  0.3683
  231MOL0     H30483   2.134   9.630   3.328 -0.3708 -1.5259  4.0949
  231MOL0     H30484   1.960   9.876   3.349 -0.1197  0.4014 -1.5801
  231MOL0     H30485   1.950   9.740   3.242 -0.0489 -0.5109  0.7012
  231MOL0     H30486   1.879   9.748   3.531  0.6942 -1.0854  1.6372
  231MOL0     H30487   1.892   9.596   3.443 -1.7940  0.1771  0.6438
  231MOL0     H30488   1.747   9.681   3.257 -0.7100 -1.5398  0.0123
  231MOL0     H30489   1.658   9.637   3.406 -1.9820  2.6032  2.0727
  231MOL0     H30490   1.616  10.058   3.391  0.7403  0.1359  0.4303
  231MOL0     H30491   2.159  10.050   3.190 -0.5829 -2.4033  2.3948
  231MOL0     H30492   2.281  10.265   3.256  0.6757  0.8726  1.1805
  232MOL0     O30493   1.418   2.011   5.313 -0.2506  0.8910  0.3711
  232MOL0     C30494   1.425   1.892   5.278 -0.3056 -1.0512  0.3281
  232MOL0     O30495   1.527   1.851   5.197  0.5652  0.8482  0.5417
  232MOL0     C30496   1.612   1.941   5.136  0.6876  0.9066  0.5750
  232MOL0     C30497   1.595   1.979   5.005  0.3091  0.0533 -0.2691
  232MOL0     C30498   1.660   2.081   4.945 -0.0702 -0.5897  0.9180
  232MOL0     C30499   1.770   2.146   5.013  0.2520 -0.3414  0.6415
  232MOL0     O30500   1.856   2.227   4.943  0.3852  0.5601  0.3210
  232MOL0     C30501   1.795   2.334   4.872 -0.0026  0.7360  0.9112
  232MOL0     C30502   1.881   2.370   4.752  0.3625 -0.7369  0.1527
  232MOL0     C30503   1.806   2.440   4.644 -0.3707  0.3905  1.0098
  232MOL0     C30504   1.698   2.541   4.673  0.5188 -0.0447  0.2113
  232MOL0     C30505   1.641   2.601   4.546  0.8806 -0.5456 -1.3437
  232MOL0     C30506   1.741   2.696   4.467  0.3448 -0.2499  0.3209
  232MOL0     C30507   1.701   2.842   4.487  0.0347 -0.9725 -0.6226
  232MOL0     C30508   1.774   2.945   4.404 -0.0747 -0.3575 -0.6512
  232MOL0     N30509   1.734   3.089   4.421  0.6003 -0.0910  1.0680
  232MOL0     C30510   1.767   3.174   4.525  0.5547 -0.1846  0.0302
  232MOL0     C30511   1.745   3.298   4.481 -0.7949  0.7045  0.8083
  232MOL0     C30512   1.785   3.430   4.548 -0.3831  0.2364 -0.7976
  232MOL0     C30513   1.836   3.529   4.442 -0.0665  0.3998  0.1699
  232MOL0     C30514   1.847   3.655   4.519 -0.1893 -0.4937  0.2346
  232MOL0     C30515   1.925   3.769   4.444  0.3023  0.0163 -0.6289
  232MOL0     O30516   2.053   3.760   4.506  1.3723 -0.0255 -0.5251
  232MOL0     C30517   2.074   3.823   4.629 -0.4507  0.1391  0.3068
  232MOL0     C30518   1.971   3.882   4.708 -0.8012 -0.2966  0.1228
  232MOL0     C30519   1.999   3.959   4.821  0.4760 -0.5340 -0.6262
  232MOL0     C30520   2.126   3.967   4.878 -0.8315 -0.2548  0.0725
  232MOL0     C30521   2.151   4.026   5.005 -1.4680 -0.9820  1.0619
  232MOL0     O30522   2.051   4.007   5.089  0.5639 -0.2610 -0.0567
  232MOL0     C30523   2.085   4.018   5.224 -0.6324 -0.1672  0.4162
  232MOL0     C30524   2.031   4.120   5.305  0.2186 -0.0900  0.0046
  232MOL0     C30525   2.061   4.118   5.444 -1.3154 -0.1754  0.0594
  232MOL0     C30526   2.139   4.021   5.500 -0.8001  0.1056  0.4720
  232MOL0     O30527   2.174   4.038   5.625 -0.5538  0.8673  0.1955
  232MOL0     C30528   2.128   3.919   5.687 -0.4845  0.8635  0.6108
  232MOL0     C30529   2.183   3.902   5.835  0.3788  0.6573 -0.6010
  232MOL0     C30530   2.083   3.924   5.943  0.0452  1.3725 -1.0785
  232MOL0     C30531   1.994   4.048   5.929 -0.3538  0.5991  0.6447
  232MOL0     C30532   2.067   4.186   5.926  1.4437  0.0944  1.6835
  232MOL0     C30533   2.161   4.181   6.046 -0.4453 -0.1330  0.7046
  232MOL0     C30534   2.177   4.310   6.116  0.3462 -0.3052 -0.4826
  232MOL0     C30535   2.252   4.419   6.049  0.8513 -0.3691  0.4495
  232MOL0    Cl30536   2.230   4.587   6.126 -0.2300  0.1676  0.2068
  232MOL0     C30537   2.193   3.913   5.418 -1.0465 -1.7071  1.3318
  232MOL0     C30538   2.164   3.920   5.277  0.2794  0.3065 -1.0111
  232MOL0     O30539   2.262   4.078   5.029  0.3432  0.2051 -0.5413
  232MOL0     C30540   2.233   3.899   4.804 -0.3582  0.1869 -0.2723
  232MOL0     C30541   2.207   3.832   4.690 -0.8567  0.1707  0.1608
  232MOL0     N30542   1.693   3.283   4.349  0.9459  0.7290  0.3089
  232MOL0     N30543   1.688   3.161   4.312  0.2321 -0.6102  0.0496
  232MOL0     C30544   1.794   2.109   5.141  0.4595  0.5921  0.0925
  232MOL0     C30545   1.718   2.007   5.203 -0.1627 -0.2119 -0.7121
  232MOL0     C30546   1.335   1.794   5.336 -1.1459 -1.1028  0.4991
  232MOL0     C30547   1.326   1.664   5.297  0.4482  0.8838  1.3617
  232MOL0     C30548   1.236   1.569   5.351 -0.1062  0.2903  0.7201
  232MOL0     C30549   1.161   1.604   5.462 -0.0093 -0.6829 -0.2786
  232MOL0     O30550   1.081   1.498   5.508 -1.2984  0.3956  0.5078
  232MOL0     C30551   0.964   1.531   5.592 -0.5235 -0.6519 -0.7779
  232MOL0     C30552   0.855   1.596   5.497  1.0096 -0.1522 -0.3095
  232MOL0     C30553   0.837   1.531   5.365 -0.0826 -0.1326  0.9111
  232MOL0     C30554   0.770   1.622   5.264  0.0588  0.4410 -0.3347
  232MOL0     C30555   0.858   1.735   5.221 -1.3637  0.2434 -0.4768
  232MOL0     C30556   0.934   1.829   5.197 -0.0972  0.3030  1.0552
  232MOL0     C30557   1.169   1.736   5.503 -1.1066 -0.0411 -0.4915
  232MOL0     C30558   1.252   1.828   5.447 -0.2717 -0.6706  0.8751
  232MOL0     H30559   1.508   1.944   4.950 -0.8184  1.5125  0.5286
  232MOL0     H30560   1.643   2.111   4.842  0.1626  0.9896  1.3128
  232MOL0     H30561   1.765   2.409   4.945  1.0023 -2.7084  5.2845
  232MOL0     H30562   1.699   2.309   4.826  0.7975  0.5665 -0.7621
  232MOL0     H30563   1.942   2.287   4.714  0.6484 -0.3234 -0.3159
  232MOL0     H30564   1.951   2.447   4.787  1.6080 -1.1874 -1.2320
  232MOL0     H30565   1.774   2.364   4.572 -2.0909 -0.9759  3.0910
  232MOL0     H30566   1.890   2.489   4.594 -0.5237 -1.1913 -0.9613
  232MOL0     H30567   1.616   2.499   4.732  0.2606  0.5780  0.3129
  232MOL0     H30568   1.738   2.616   4.743  0.4255  0.4157 -0.2270
  232MOL0     H30569   1.550   2.655   4.573  1.5310 -1.0592  2.4514
  232MOL0     H30570   1.605   2.518   4.484 -1.2140 -0.4470 -0.3645
  232MOL0     H30571   1.738   2.670   4.361 -2.8119  0.4101  0.1323
  232MOL0     H30572   1.844   2.691   4.501  0.3166  0.8105  0.5960
  232MOL0     H30573   1.594   2.848   4.464 -0.6515 -6.3900 -0.2038
  232MOL0     H30574   1.715   2.867   4.592 -1.3198  1.6487 -0.9688
  232MOL0     H30575   1.758   2.932   4.296 -1.4278  2.2352 -0.8425
  232MOL0     H30576   1.879   2.930   4.431  0.2320 -2.6145 -2.6502
  232MOL0     H30577   1.804   3.148   4.624 -0.2058 -1.1994  0.0672
  232MOL0     H30578   1.861   3.417   4.625 -0.6883  0.1695 -0.5085
  232MOL0     H30579   1.696   3.480   4.587  1.3539  1.0516  2.4775
  232MOL0     H30580   1.769   3.549   4.357 -0.9090  3.1091  1.3641
  232MOL0     H30581   1.938   3.502   4.413  0.2377  2.4242 -0.8225
  232MOL0     H30582   1.753   3.704   4.547 -0.2277  0.3822 -1.2505
  232MOL0     H30583   1.900   3.633   4.612  2.9998 -1.2804 -1.6068
  232MOL0     H30584   1.873   3.864   4.454 -1.2713 -0.5476 -2.8233
  232MOL0     H30585   1.936   3.751   4.336  2.4119  0.8538 -0.6014
  232MOL0     H30586   1.868   3.885   4.673 -1.7155  0.3475  2.5996
  232MOL0     H30587   1.912   4.004   4.867  0.5669 -1.0820  0.0941
  232MOL0     H30588   1.974   4.202   5.265 -0.9666 -0.4980  0.7894
  232MOL0     H30589   2.028   4.205   5.501 -0.2958  0.6672 -0.6143
  232MOL0     H30590   2.162   3.827   5.638 -1.5486 -0.6265  2.5346
  232MOL0     H30591   2.020   3.909   5.680 -0.7035  0.0747  3.7259
  232MOL0     H30592   2.268   3.970   5.846 -1.1021  2.3859  0.7073
  232MOL0     H30593   2.228   3.802   5.845 -0.1375  0.6613  4.3855
  232MOL0     H30594   2.121   3.905   6.044  0.4404 -3.7935 -1.9110
  232MOL0     H30595   2.018   3.836   5.931  1.1880  0.4929 -1.0205
  232MOL0     H30596   1.938   4.036   5.836  0.3806  0.1867  0.2528
  232MOL0     H30597   1.922   4.055   6.012  2.1340 -1.1965  3.1552
  232MOL0     H30598   1.988   4.259   5.945  1.2701  0.4007 -0.0929
  232MOL0     H30599   2.112   4.216   5.831 -1.5364  4.1456  1.2476
  232MOL0     H30600   2.248   4.120   6.022  0.1007  0.8316  0.2226
  232MOL0     H30601   2.110   4.117   6.119 -1.3558 -1.3052 -0.9039
  232MOL0     H30602   2.076   4.341   6.147  0.1506 -1.0565 -0.3456
  232MOL0     H30603   2.233   4.279   6.205 -2.4232 -0.7705  1.2581
  232MOL0     H30604   2.224   4.432   5.944 -2.3946 -1.6629  1.0296
  232MOL0     H30605   2.360   4.403   6.050  0.5436 -2.8104  0.5176
  232MOL0     H30606   2.256   3.831   5.450  1.0805 -1.5165 -1.8460
  232MOL0     H30607   2.168   3.838   5.206 -0.0183 -0.8774  0.2954
  232MOL0     H30608   2.337   3.913   4.834  0.2819  0.7881 -2.5498
  232MOL0     H30609   2.285   3.781   4.634  2.3443  1.5018  3.0191
  232MOL0     H30610   1.880   2.151   5.192 -0.9853  0.3501  2.9395
  232MOL0     H30611   1.734   2.001   5.310  1.5860  0.5891 -0.8741
  232MOL0     H30612   1.404   1.633   5.228  1.3326  2.2205  1.7175
  232MOL0     H30613   1.215   1.471   5.308 -0.6837  1.1169 -0.9505
  232MOL0     H30614   1.002   1.598   5.670  1.6353 -3.3497  0.7123
  232MOL0     H30615   0.929   1.436   5.634  3.0269 -2.5725 -1.7958
  232MOL0     H30616   0.753   1.591   5.536  0.1687  2.7085 -1.8685
  232MOL0     H30617   0.866   1.705   5.488 -2.1322  0.0693 -5.5839
  232MOL0     H30618   0.783   1.437   5.371 -0.0815 -0.1198  1.1402
  232MOL0     H30619   0.937   1.507   5.328 -0.9907 -2.6744 -0.0770
  232MOL0     H30620   0.742   1.563   5.177 -1.8365  1.7846 -0.7158
  232MOL0     H30621   0.673   1.668   5.288 -1.7409 -3.5560  0.9242
  232MOL0     H30622   0.994   1.912   5.168  0.3427 -0.8535 -1.6587
  232MOL0     H30623   1.114   1.775   5.587 -1.6918 -1.1536 -0.3341
  232MOL0     H30624   1.257   1.930   5.485  0.7905  0.3215 -1.6590
  233MOL0     O30625   2.631  11.393   0.940 -0.2234  0.4773 -1.2438
  233MOL0     C30626   2.523  11.427   0.891  0.5096  0.0767  0.2818
  233MOL0     O30627   2.399  11.386   0.934  0.7914 -0.5329 -0.5610
  233MOL0     C30628   2.373  11.304   1.043 -0.1181  0.8002 -0.6322
  233MOL0     C30629   2.234  11.276   1.059 -0.5936  0.4470 -0.1451
  233MOL0     C30630   2.202  11.181   1.155  0.5104 -0.4983  1.1682
  233MOL0     C30631   2.293  11.103   1.223 -0.4603 -0.3337 -0.2601
  233MOL0     O30632   2.260  10.998   1.309 -0.3190  0.0186 -0.4586
  233MOL0     C30633   2.151  10.912   1.271  0.9842 -0.2070  0.0008
  233MOL0     C30634   2.045  10.912   1.390 -0.0905  0.8218 -0.6419
  233MOL0     C30635   1.920  10.858   1.328  0.5154 -0.2043  0.6591
  233MOL0     C30636   1.812  10.890   1.426 -0.2290  0.5002  1.0165
  233MOL0     C30637   1.670  10.823   1.373 -1.3435  0.0354  0.0424
  233MOL0     C30638   1.662  10.672   1.375  0.1819  0.0772 -0.9012
  233MOL0     C30639   1.722  10.609   1.501  0.4795  0.3489  0.1574
  233MOL0     C30640   1.644  10.637   1.623 -0.5152 -0.0877 -0.1538
  233MOL0     N30641   1.718  10.584   1.733  0.1565 -0.1462 -0.2144
  233MOL0     C30642   1.709  10.453   1.769 -0.1463 -0.3352 -0.3409
  233MOL0     C30643   1.785  10.436   1.882 -0.1570 -0.2749  0.0917
  233MOL0     C30644   1.823  10.315   1.951  0.5330  1.2229  0.2236
  233MOL0     C30645   1.706  10.247   2.018 -0.6816 -0.1533 -0.1794
  233MOL0     C30646   1.653  10.324   2.130  0.8109  1.3428  0.1811
  233MOL0     C30647   1.545  10.250   2.213  1.1092  1.0818 -0.6354
  233MOL0     O30648   1.428  10.216   2.130  0.2957 -0.3094  0.4575
  233MOL0     C30649   1.311  10.191   2.200 -0.3180 -0.0725  1.0480
  233MOL0     C30650   1.311  10.143   2.331  0.7077  0.1904 -1.0017
  233MOL0     C30651   1.187  10.114   2.399  0.1346  0.2774  0.5901
  233MOL0     C30652   1.066  10.125   2.322  0.1211  0.5614 -0.5281
  233MOL0     C30653   0.932  10.090   2.377 -0.1656  0.5123  0.7165
  233MOL0     O30654   0.834  10.091   2.280 -0.0521 -0.8739  0.0412
  233MOL0     C30655   0.705  10.041   2.306  0.0744 -0.0791  0.0770
  233MOL0     C30656   0.624  10.066   2.197 -0.4247 -0.0290 -0.5787
  233MOL0     C30657   0.498  10.016   2.188 -0.2362  0.8944  0.5218
  233MOL0     C30658   0.443   9.947   2.298 -0.2275 -0.1241 -0.0984
  233MOL0     O30659   0.313   9.902   2.290 -0.6621 -0.5967 -0.1040
  233MOL0     C30660   0.215  10.005   2.334  0.6113  0.9107  0.2074
  233MOL0     C30661   0.079   9.935   2.347 -0.9035 -0.2257  0.1816
  233MOL0     C30662   0.077   9.845   2.479 -0.0530 -0.4986  0.7906
  233MOL0     C30663  -0.021   9.722   2.445 -0.0562  0.1035 -0.2913
  233MOL0     C30664  -0.038   9.624   2.570 -0.6634 -0.7488  0.2710
  233MOL0     C30665  -0.116   9.498   2.546  0.1838  0.0982  0.6578
  233MOL0     C30666  -0.161   9.417   2.670  0.5546 -0.8684 -0.8003
  233MOL0     C30667  -0.047   9.388   2.775 -0.0482 -0.3451 -0.1748
  233MOL0    Cl30668   0.091   9.314   2.681  0.1909 -0.7605 -0.3889
  233MOL0     C30669   0.515   9.927   2.413  0.0803 -0.7369 -0.2836
  233MOL0     C30670   0.647   9.972   2.426 -0.2765  0.3153  0.0958
  233MOL0     O30671   0.917  10.053   2.491  0.5883  0.1061 -0.2321
  233MOL0     C30672   1.075  10.162   2.190 -0.4085 -0.5363 -0.7585
  233MOL0     C30673   1.191  10.193   2.125 -0.3571  1.0288 -0.2623
  233MOL0     N30674   1.852  10.562   1.908  0.8435  0.0627  0.0240
  233MOL0     N30675   1.809  10.640   1.815 -0.6636  0.5195 -0.2523
  233MOL0     C30676   2.425  11.136   1.206 -0.0016 -0.5413  0.2677
  233MOL0     C30677   2.473  11.245   1.129 -0.0273 -0.0646  0.2588
  233MOL0     C30678   2.519  11.527   0.772  0.7230  0.5516  0.5846
  233MOL0     C30679   2.636  11.589   0.728  0.1805  0.1708  0.7282
  233MOL0     C30680   2.634  11.696   0.632  0.5783 -0.7149  0.2273
  233MOL0     C30681   2.511  11.728   0.571  0.9945 -0.3707 -0.6448
  233MOL0     O30682   2.493  11.817   0.467 -0.5124  0.3618  0.1582
  233MOL0     C30683   2.579  11.932   0.455  0.4184  0.1711 -0.2511
  233MOL0     C30684   2.503  12.044   0.532  0.4481 -0.0473 -0.3246
  233MOL0     C30685   2.385  12.098   0.436  0.7185 -0.3677 -0.4912
  233MOL0     C30686   2.317  12.215   0.511 -0.4926 -0.4499  0.0431
  233MOL0     C30687   2.206  12.279   0.431  0.5902  0.9262 -0.3504
  233MOL0     C30688   2.112  12.333   0.365  0.5693  0.5090 -0.1929
  233MOL0     C30689   2.394  11.664   0.612 -0.2417 -0.4351 -0.2911
  233MOL0     C30690   2.395  11.567   0.714  0.4422  0.1574  0.3119
  233MOL0     H30691   2.154  11.323   1.003 -1.1673  0.3933  0.6158
  233MOL0     H30692   2.098  11.160   1.180 -0.1963  3.1819  1.8724
  233MOL0     H30693   2.182  10.810   1.245 -3.8222 -1.0452 -4.0373
  233MOL0     H30694   2.109  10.945   1.175  3.2619 -2.1401 -1.8029
  233MOL0     H30695   2.044  11.016   1.424  1.4676  0.5983  0.1457
  233MOL0     H30696   2.081  10.849   1.471 -1.2379 -0.4361 -1.0646
  233MOL0     H30697   1.918  10.750   1.311 -1.1689 -0.5076  2.5203
  233MOL0     H30698   1.905  10.907   1.231  1.3207 -2.8611 -0.9247
  233MOL0     H30699   1.844  10.874   1.529  2.1054  4.6502  1.1674
  233MOL0     H30700   1.791  10.998   1.419  0.2190  0.5220 -0.3348
  233MOL0     H30701   1.656  10.849   1.268  0.3905 -0.1686 -0.2782
  233MOL0     H30702   1.584  10.851   1.435 -1.4587  1.2388 -0.6125
  233MOL0     H30703   1.711  10.636   1.285 -2.3525 -1.4438 -1.7902
  233MOL0     H30704   1.554  10.653   1.366  0.5680 -2.2137 -1.0694
  233MOL0     H30705   1.719  10.502   1.481  0.7674  0.5633 -1.1190
  233MOL0     H30706   1.824  10.644   1.516  0.6684 -0.3503  0.5250
  233MOL0     H30707   1.543  10.597   1.608 -0.3326 -0.5332 -0.2180
  233MOL0     H30708   1.622  10.743   1.630 -2.3384 -0.5112  1.4129
  233MOL0     H30709   1.666  10.378   1.704 -1.2051  1.3053 -1.6017
  233MOL0     H30710   1.893  10.343   2.030 -1.0970 -0.2748  2.2984
  233MOL0     H30711   1.875  10.252   1.879 -0.6823  1.5103 -0.9448
  233MOL0     H30712   1.737  10.145   2.044 -0.9990 -0.2469 -0.1623
  233MOL0     H30713   1.623  10.245   1.947  0.0054  1.1493 -1.0743
  233MOL0     H30714   1.736  10.336   2.200  2.5266 -1.8004 -1.1031
  233MOL0     H30715   1.602  10.415   2.094 -1.5426  0.6263  1.4671
  233MOL0     H30716   1.509  10.307   2.299 -2.5383 -3.0076  0.9438
  233MOL0     H30717   1.594  10.161   2.254 -1.7541 -0.3245 -0.0305
  233MOL0     H30718   1.404  10.112   2.378  0.0202  1.3646  1.2886
  233MOL0     H30719   1.188  10.078   2.501  3.3016  2.0406  1.3095
  233MOL0     H30720   0.682  10.108   2.116  3.3100  0.8651  2.2612
  233MOL0     H30721   0.450  10.024   2.092  1.6647 -0.3711 -0.6017
  233MOL0     H30722   0.208  10.078   2.253 -0.2947 -1.9701 -2.5113
  233MOL0     H30723   0.237  10.035   2.437 -0.7009 -4.3915  2.3937
  233MOL0     H30724   0.073   9.878   2.254 -4.0135  1.9904 -1.1360
  233MOL0     H30725  -0.004  10.005   2.350 -2.3827 -1.8780  3.4564
  233MOL0     H30726   0.053   9.897   2.572  0.1827 -0.7379  0.9864
  233MOL0     H30727   0.178   9.805   2.494  0.5744 -1.1508 -3.7154
  233MOL0     H30728  -0.125   9.754   2.431 -0.5329 -0.1230  2.2372
  233MOL0     H30729   0.021   9.668   2.360  1.3432 -1.0811  1.0894
  233MOL0     H30730  -0.082   9.676   2.656 -2.0572  2.1525 -2.0033
  233MOL0     H30731   0.062   9.602   2.607 -0.3464 -1.1847 -0.8078
  233MOL0     H30732  -0.048   9.438   2.485  0.1372 -0.3507  1.0449
  233MOL0     H30733  -0.197   9.510   2.474  3.8161 -1.2837 -4.2333
  233MOL0     H30734  -0.237   9.473   2.726 -1.3390 -0.8533 -3.2033
  233MOL0     H30735  -0.198   9.318   2.642 -1.3819 -1.8677  4.2353
  233MOL0     H30736  -0.086   9.323   2.854  3.2524  0.6809  2.5080
  233MOL0     H30737  -0.012   9.483   2.815  1.1508 -0.0647 -1.8007
  233MOL0     H30738   0.473   9.862   2.490 -2.5905 -1.6580 -2.3691
  233MOL0     H30739   0.705   9.918   2.500 -0.0025 -1.5873 -1.4149
  233MOL0     H30740   0.981  10.165   2.136  0.0403 -0.4393 -1.5435
  233MOL0     H30741   1.203  10.220   2.021  0.9044 -3.2072 -1.4074
  233MOL0     H30742   2.496  11.080   1.267 -0.8103 -0.5569  1.2231
  233MOL0     H30743   2.578  11.261   1.110 -0.0801  0.6492  0.5194
  233MOL0     H30744   2.729  11.568   0.780 -0.2439 -1.3567  0.9306
  233MOL0     H30745   2.730  11.739   0.606 -0.1863  1.5616  0.8417
  233MOL0     H30746   2.585  11.969   0.353  1.8658 -1.7093 -0.9107
  233MOL0     H30747   2.678  11.913   0.497  0.8211  0.9374 -0.8347
  233MOL0     H30748   2.446  12.001   0.614 -2.6352  0.2064 -2.1467
  233MOL0     H30749   2.576  12.118   0.566  3.1565 -3.8036  2.8732
  233MOL0     H30750   2.306  12.023   0.426  1.5696 -1.7773  2.4197
  233MOL0     H30751   2.421  12.130   0.338  0.2733  1.8598  0.0178
  233MOL0     H30752   2.282  12.178   0.608 -0.9561  0.4912  0.2455
  233MOL0     H30753   2.391  12.290   0.543  0.1222 -0.8982 -0.3037
  233MOL0     H30754   2.046  12.356   0.284  0.8881  0.7056 -0.3968
  233MOL0     H30755   2.301  11.692   0.564 -0.4320  0.7179  0.7011
  233MOL0     H30756   2.297  11.527   0.741  0.5047 -0.7753 -0.8013
  234MOL0     O30757  11.219   7.123   1.783  0.6034  0.6039  0.5832
  234MOL0     C30758  11.314   7.121   1.856 -0.6963 -1.0360 -0.2866
  234MOL0     O30759  11.430   7.044   1.838  0.0982  0.1239 -0.7226
  234MOL0     C30760  11.438   6.962   1.728 -0.3865 -0.5733  0.3564
  234MOL0     C30761  11.374   6.839   1.738 -0.3485 -1.0498 -0.0294
  234MOL0     C30762  11.389   6.744   1.632 -0.4727 -0.8644 -0.4797
  234MOL0     C30763  11.448   6.773   1.510  0.4140 -0.4368  0.6625
  234MOL0     O30764  11.454   6.677   1.412 -0.9468  0.0070 -0.0207
  234MOL0     C30765  11.494   6.719   1.281 -0.5217  1.1031 -0.1397
  234MOL0     C30766  11.499   6.590   1.191  0.0638  0.7578  0.6495
  234MOL0     C30767  11.548   6.624   1.049  0.1021  0.1457 -0.0937
  234MOL0     C30768  11.575   6.499   0.967 -0.1218 -0.3168  0.0981
  234MOL0     C30769  11.686   6.514   0.863  0.7512 -0.3772 -0.1485
  234MOL0     C30770  11.709   6.378   0.796  0.1700 -1.0216 -0.3763
  234MOL0     C30771  11.798   6.401   0.676  0.5940 -0.2000 -1.0642
  234MOL0     C30772  11.882   6.273   0.659 -0.0517  0.1754  0.3166
  234MOL0     N30773  11.986   6.307   0.552  0.0108  0.0403 -0.6396
  234MOL0     C30774  11.954   6.303   0.419 -0.2115 -0.4502 -0.6233
  234MOL0     C30775  12.077   6.323   0.364  0.6096  0.1639 -0.5206
  234MOL0     C30776  12.105   6.343   0.221  0.2265 -0.4048 -0.3248
  234MOL0     C30777  12.186   6.473   0.204  0.2984  0.6479 -0.1046
  234MOL0     C30778  12.203   6.488   0.051  0.0745 -0.3135 -0.6409
  234MOL0     C30779  12.295   6.611   0.016 -0.1581  1.0278 -0.1071
  234MOL0     O30780  12.342   6.598  -0.122  0.4515 -0.3810 -0.9425
  234MOL0     C30781  12.447   6.509  -0.137 -0.2717 -0.1624 -0.3572
  234MOL0     C30782  12.494   6.495  -0.265 -0.7819  0.1751  1.0089
  234MOL0     C30783  12.603   6.421  -0.295  0.2961  0.5158  0.7963
  234MOL0     C30784  12.684   6.373  -0.199  0.8133  0.1710  0.6501
  234MOL0     C30785  12.807   6.300  -0.232  0.0001 -0.3302  1.0279
  234MOL0     O30786  12.862   6.305  -0.364  0.3793 -0.0219  0.0239
  234MOL0     C30787  12.970   6.224  -0.389 -0.5364 -0.7249  0.2754
  234MOL0     C30788  12.966   6.091  -0.360  0.6992  0.6827  0.5183
  234MOL0     C30789  13.069   6.004  -0.381 -0.1855 -0.6193  0.0500
  234MOL0     C30790  13.188   6.061  -0.439  0.3487 -0.1730  0.8761
  234MOL0     O30791  13.290   5.978  -0.473 -0.0247 -0.0772 -0.2554
  234MOL0     C30792  13.423   6.020  -0.516  0.5082 -0.1725 -0.3063
  234MOL0     C30793  13.512   5.891  -0.524  0.2271  0.1407  0.2703
  234MOL0     C30794  13.653   5.903  -0.601 -0.2376 -0.9769  0.6708
  234MOL0     C30795  13.727   5.773  -0.618 -0.4154 -0.3005 -1.2088
  234MOL0     C30796  13.870   5.782  -0.685 -0.0316  0.3324  0.2446
  234MOL0     C30797  13.842   5.809  -0.835 -0.6048 -0.3825  0.6343
  234MOL0     C30798  13.971   5.786  -0.910  0.2289 -0.3530 -0.4219
  234MOL0     C30799  14.008   5.644  -0.927 -1.0780  0.1721 -0.3046
  234MOL0    Cl30800  14.131   5.610  -1.047 -0.0200  0.4077  0.2708
  234MOL0     C30801  13.189   6.201  -0.472 -0.3733  0.3232 -0.6222
  234MOL0     C30802  13.081   6.287  -0.442 -0.8638  0.5451  0.2311
  234MOL0     O30803  12.861   6.238  -0.140 -0.4237  0.1867 -0.3600
  234MOL0     C30804  12.637   6.376  -0.065  0.7184 -0.4627 -0.6743
  234MOL0     C30805  12.523   6.446  -0.038 -0.1531 -0.2390 -0.2041
  234MOL0     N30806  12.178   6.318   0.461  0.7717  0.9824  0.9371
  234MOL0     N30807  12.122   6.319   0.576 -0.6042 -0.1163  0.7104
  234MOL0     C30808  11.497   6.904   1.499 -0.4074  0.3995  0.1082
  234MOL0     C30809  11.504   6.990   1.609 -0.5522  0.1324  0.0797
  234MOL0     C30810  11.316   7.208   1.983  0.4120 -0.0581  0.9856
  234MOL0     C30811  11.265   7.333   1.979 -0.0366 -0.4046 -0.1603
  234MOL0     C30812  11.272   7.411   2.088  0.0929 -0.6167 -0.4394
  234MOL0     C30813  11.331   7.361   2.206  1.4572  0.6010 -1.2510
  234MOL0     O30814  11.308   7.432   2.327 -0.5192  0.3253  0.2515
  234MOL0     C30815  11.425   7.449   2.412  0.5557  0.6365 -0.5379
  234MOL0     C30816  11.387   7.558   2.512  0.4877 -0.5611 -0.1110
  234MOL0     C30817  11.348   7.690   2.443 -0.3376 -0.2367  0.2272
  234MOL0     C30818  11.334   7.815   2.539  0.6985  0.2910  0.2049
  234MOL0     C30819  11.297   7.771   2.675  0.7740 -0.3986  0.1598
  234MOL0     C30820  11.273   7.736   2.787 -0.2853  0.0792 -0.2545
  234MOL0     C30821  11.385   7.235   2.214  0.1058 -0.2484 -0.6302
  234MOL0     C30822  11.383   7.153   2.094 -0.3298 -1.3561 -0.2119
  234MOL0     H30823  11.312   6.821   1.826  0.5019  0.2117  0.8720
  234MOL0     H30824  11.324   6.659   1.649 -0.5385 -0.2642  2.9518
  234MOL0     H30825  11.595   6.759   1.269  0.3549 -1.5706 -3.4710
  234MOL0     H30826  11.420   6.793   1.249 -1.3216 -0.1125 -1.1978
  234MOL0     H30827  11.405   6.535   1.201 -0.5701  2.1458  3.4521
  234MOL0     H30828  11.572   6.520   1.230  0.8826  2.0175  1.4591
  234MOL0     H30829  11.640   6.682   1.062  0.8881 -1.4169  2.0048
  234MOL0     H30830  11.481   6.690   0.993  0.1009  1.4332  1.3521
  234MOL0     H30831  11.589   6.403   1.017  0.8567 -0.9102 -1.2534
  234MOL0     H30832  11.483   6.479   0.911 -0.2869 -1.2829  0.6829
  234MOL0     H30833  11.770   6.536   0.930 -0.9417 -1.4299  2.5274
  234MOL0     H30834  11.665   6.589   0.786 -1.3056 -1.3405 -0.5861
  234MOL0     H30835  11.616   6.326   0.772 -0.3506 -0.2746 -0.0033
  234MOL0     H30836  11.767   6.312   0.861 -1.5233 -2.0374  0.1564
  234MOL0     H30837  11.732   6.431   0.593  2.0549  0.6398 -1.9714
  234MOL0     H30838  11.868   6.483   0.695  0.6278  0.0890 -2.3463
  234MOL0     H30839  11.812   6.195   0.629  1.2305 -0.2176 -1.8704
  234MOL0     H30840  11.930   6.242   0.752  1.2760 -1.1395 -0.7527
  234MOL0     H30841  11.853   6.299   0.381 -0.7131 -0.3096  0.6589
  234MOL0     H30842  12.014   6.353   0.163 -0.0881 -3.9546 -0.6223
  234MOL0     H30843  12.146   6.251   0.178 -1.8922 -1.9590  0.8077
  234MOL0     H30844  12.277   6.448   0.260 -0.2937 -0.5532  0.3524
  234MOL0     H30845  12.135   6.555   0.255 -2.0498 -1.3387  0.9519
  234MOL0     H30846  12.230   6.389   0.013  2.6724 -1.1350  2.7842
  234MOL0     H30847  12.103   6.514   0.016  0.4136  2.2634  0.1464
  234MOL0     H30848  12.387   6.624   0.075  1.7447  1.8366 -2.9981
  234MOL0     H30849  12.229   6.698   0.013 -0.0025  1.1984 -4.3223
  234MOL0     H30850  12.436   6.522  -0.353  0.6979  0.7249  0.1664
  234MOL0     H30851  12.626   6.405  -0.400 -1.5734 -2.3856  0.6977
  234MOL0     H30852  12.877   6.053  -0.311  1.4191  1.2204  2.3262
  234MOL0     H30853  13.054   5.900  -0.353 -2.0141 -0.2043  0.7193
  234MOL0     H30854  13.472   6.081  -0.440  1.7191 -3.1756  1.4832
  234MOL0     H30855  13.430   6.081  -0.606  4.7917  2.2333  1.3323
  234MOL0     H30856  13.454   5.808  -0.566  0.9462 -1.0551  1.5299
  234MOL0     H30857  13.531   5.851  -0.423 -1.3930  0.6740  0.8205
  234MOL0     H30858  13.710   5.978  -0.545 -0.4633  0.7898 -1.3331
  234MOL0     H30859  13.631   5.956  -0.695 -1.3525  5.5916  3.9922
  234MOL0     H30860  13.735   5.724  -0.521 -0.3591 -0.5724 -1.3482
  234MOL0     H30861  13.666   5.709  -0.683 -0.5554  1.4905 -2.9262
  234MOL0     H30862  13.910   5.681  -0.674 -1.6561 -0.5625 -1.4898
  234MOL0     H30863  13.946   5.845  -0.639  2.6657 -0.2266 -3.0852
  234MOL0     H30864  13.806   5.910  -0.857  0.2262 -0.5015 -1.4919
  234MOL0     H30865  13.771   5.739  -0.879  0.1209 -0.1540 -0.9705
  234MOL0     H30866  13.958   5.833  -1.008  2.0709  3.0979  0.8104
  234MOL0     H30867  14.044   5.839  -0.848 -0.5510 -2.1055  2.1311
  234MOL0     H30868  13.918   5.592  -0.960  0.2556 -1.2855 -1.8318
  234MOL0     H30869  14.048   5.609  -0.831  1.6325 -1.3940 -1.8814
  234MOL0     H30870  13.281   6.243  -0.511 -1.9190  4.0673 -0.6750
  234MOL0     H30871  13.084   6.390  -0.476  1.4735  0.2800 -0.5427
  234MOL0     H30872  12.690   6.335   0.021 -0.4754  3.3477  2.1272
  234MOL0     H30873  12.498   6.465   0.066  0.9428 -2.5227  0.5194
  234MOL0     H30874  11.549   6.930   1.407  3.8932 -1.4080  1.7871
  234MOL0     H30875  11.559   7.083   1.600 -1.0226  0.4852  0.7515
  234MOL0     H30876  11.224   7.369   1.885 -0.8160  1.1403  0.7206
  234MOL0     H30877  11.224   7.508   2.098 -0.2388 -0.9798  2.4249
  234MOL0     H30878  11.507   7.474   2.344  0.3361 -2.0164 -1.8812
  234MOL0     H30879  11.443   7.353   2.460  3.0259 -0.2422 -2.9664
  234MOL0     H30880  11.305   7.525   2.576  0.5326  0.5543  0.5407
  234MOL0     H30881  11.460   7.584   2.589 -1.5698 -0.4736  1.9235
  234MOL0     H30882  11.253   7.672   2.391 -1.5330  0.2496  2.1194
  234MOL0     H30883  11.420   7.709   2.363 -2.1126  4.2731 -0.6104
  234MOL0     H30884  11.425   7.876   2.536  1.1197 -0.3597 -1.5907
  234MOL0     H30885  11.249   7.865   2.491  0.4847 -1.4427 -1.3411
  234MOL0     H30886  11.244   7.686   2.878  1.3583  0.1438  0.3264
  234MOL0     H30887  11.444   7.191   2.294 -0.6631  0.2487  0.2404
  234MOL0     H30888  11.415   7.050   2.097 -0.2383 -1.3017  1.7144
  235MOL0     O30889   6.307   5.420   5.258 -0.0893  0.5060  0.3537
  235MOL0     C30890   6.344   5.535   5.221 -0.7318  0.7184 -0.3191
  235MOL0     O30891   6.263   5.653   5.237 -0.2532 -0.1785 -0.0852
  235MOL0     C30892   6.137   5.637   5.285  0.5077  0.1366  0.6964
  235MOL0     C30893   6.051   5.552   5.218  0.8352 -0.0176  0.5057
  235MOL0     C30894   5.921   5.533   5.260  0.3360  0.6727 -0.8913
  235MOL0     C30895   5.880   5.593   5.383  0.6314  0.4211  0.8905
  235MOL0     O30896   5.752   5.578   5.439 -0.3149 -0.4662 -0.0241
  235MOL0     C30897   5.734   5.446   5.479  0.7605  1.0239 -0.4631
  235MOL0     C30898   5.660   5.439   5.619  0.6896 -0.2065 -0.0185
  235MOL0     C30899   5.520   5.513   5.603 -0.4207 -0.1466  0.0039
  235MOL0     C30900   5.460   5.527   5.744 -0.2398  0.1849 -0.0880
  235MOL0     C30901   5.331   5.603   5.763 -0.7037  0.1848  0.5308
  235MOL0     C30902   5.347   5.750   5.763 -0.0771 -0.9323  0.1560
  235MOL0     C30903   5.217   5.816   5.733  0.3870  0.5613  0.9184
  235MOL0     C30904   5.206   5.959   5.772 -0.3382  0.7037 -0.9589
  235MOL0     N30905   5.185   5.983   5.922 -0.5037 -1.2617 -0.2330
  235MOL0     C30906   5.151   6.105   5.977  0.3615  0.2048 -0.3614
  235MOL0     C30907   5.133   6.087   6.108  0.5729  0.0079 -0.5893
  235MOL0     C30908   5.073   6.199   6.192 -0.5189 -0.8671 -0.1698
  235MOL0     C30909   5.176   6.282   6.258  0.3772  0.2639 -0.8691
  235MOL0     C30910   5.288   6.215   6.335 -0.2263  0.3964 -0.6329
  235MOL0     C30911   5.240   6.107   6.441  0.2473  1.0235  0.1704
  235MOL0     O30912   5.122   6.162   6.505 -0.2211 -0.5957 -0.1312
  235MOL0     C30913   5.143   6.232   6.617 -0.8857 -1.0040 -0.5095
  235MOL0     C30914   5.038   6.314   6.660 -0.9131  0.3084  0.2639
  235MOL0     C30915   5.029   6.382   6.783  0.7732 -0.4048  1.3132
  235MOL0     C30916   5.134   6.358   6.868 -0.2530 -0.1061 -0.6214
  235MOL0     C30917   5.121   6.390   7.013 -0.5737 -0.6892 -0.7200
  235MOL0     O30918   5.019   6.476   7.046  0.8320 -0.2277 -0.4225
  235MOL0     C30919   4.962   6.496   7.164 -0.4245  0.2636 -0.6838
  235MOL0     C30920   4.958   6.397   7.268  0.4362  0.1166 -0.9375
  235MOL0     C30921   4.895   6.424   7.390  0.3848  0.3761  0.4324
  235MOL0     C30922   4.818   6.539   7.410  0.7507  0.0179  0.3759
  235MOL0     O30923   4.744   6.552   7.524  0.3025  0.4360 -1.3986
  235MOL0     C30924   4.716   6.685   7.566 -0.7265  0.2459  0.6732
  235MOL0     C30925   4.719   6.677   7.718 -0.7126  1.0474 -0.0465
  235MOL0     C30926   4.579   6.676   7.776  0.6965  0.9497 -0.6584
  235MOL0     C30927   4.584   6.616   7.921  0.6754 -0.3413 -0.7226
  235MOL0     C30928   4.678   6.697   8.020  0.7135 -0.4970  0.2685
  235MOL0     C30929   4.661   6.660   8.170  0.4704  0.2334  0.6691
  235MOL0     C30930   4.720   6.771   8.256 -0.7867 -0.0409  0.1619
  235MOL0     C30931   4.762   6.723   8.397  0.4513 -0.6139 -0.0530
  235MOL0    Cl30932   4.637   6.625   8.460 -0.0386  0.1165 -0.4942
  235MOL0     C30933   4.798   6.626   7.298  0.3294  0.3051  0.3768
  235MOL0     C30934   4.882   6.606   7.181 -0.4383 -0.3195 -0.1269
  235MOL0     O30935   5.211   6.366   7.086 -0.5851  0.5969  0.3693
  235MOL0     C30936   5.243   6.280   6.835  0.1643 -0.8276 -0.8927
  235MOL0     C30937   5.255   6.222   6.704  1.1256  0.7508 -0.1641
  235MOL0     N30938   5.155   5.956   6.136 -0.1664  0.0827  0.1577
  235MOL0     N30939   5.173   5.892   6.019  0.5998  0.8677  0.5387
  235MOL0     C30940   5.971   5.691   5.446  0.7987  0.4253 -0.4357
  235MOL0     C30941   6.099   5.713   5.396 -1.0977  0.6452 -0.1974
  235MOL0     C30942   6.489   5.556   5.198 -0.0337 -0.4504  0.3037
  235MOL0     C30943   6.535   5.684   5.147  0.4543 -0.1417 -0.7999
  235MOL0     C30944   6.663   5.709   5.122 -0.4906  0.1821  0.0324
  235MOL0     C30945   6.770   5.612   5.138 -1.0072 -0.5513 -0.1252
  235MOL0     O30946   6.905   5.642   5.099 -0.2014  0.7871 -0.3130
  235MOL0     C30947   6.952   5.769   5.141  0.3991 -0.7607 -0.7139
  235MOL0     C30948   7.105   5.785   5.141  0.0487  0.0248  0.5662
  235MOL0     C30949   7.150   5.918   5.208  0.6653  0.3859  0.2086
  235MOL0     C30950   7.300   5.925   5.241 -0.4039  0.1332 -0.2578
  235MOL0     C30951   7.390   5.895   5.125  1.0246 -0.1200  0.8464
  235MOL0     C30952   7.470   5.874   5.034  0.1720  0.5551  0.5385
  235MOL0     C30953   6.728   5.491   5.182 -0.7266  0.6107  0.4368
  235MOL0     C30954   6.593   5.460   5.214  1.2761  0.5658 -0.2428
  235MOL0     H30955   6.078   5.512   5.121 -0.3451 -0.0445  0.1714
  235MOL0     H30956   5.839   5.483   5.209 -2.1247  2.5609  1.0151
  235MOL0     H30957   5.820   5.381   5.502 -1.0847 -1.6108 -0.5168
  235MOL0     H30958   5.671   5.388   5.411  1.3466 -3.2840  2.2466
  235MOL0     H30959   5.724   5.474   5.701 -0.5542  3.9946 -0.5884
  235MOL0     H30960   5.649   5.332   5.635 -2.8655 -0.0108 -0.4013
  235MOL0     H30961   5.461   5.457   5.530  0.6795 -1.6114  0.2124
  235MOL0     H30962   5.530   5.620   5.578 -1.0075  0.4929  2.2891
  235MOL0     H30963   5.439   5.421   5.760 -0.4580 -0.2124 -2.6201
  235MOL0     H30964   5.538   5.557   5.815  2.2261 -2.7447 -1.3605
  235MOL0     H30965   5.290   5.575   5.861  0.6033 -1.3177  0.6878
  235MOL0     H30966   5.260   5.576   5.685 -4.4285 -1.7366  4.1892
  235MOL0     H30967   5.427   5.777   5.693  0.0998  1.1558  1.0736
  235MOL0     H30968   5.384   5.779   5.861 -1.6898 -1.9995  1.1162
  235MOL0     H30969   5.217   5.808   5.624  0.2259  0.5633  0.9185
  235MOL0     H30970   5.136   5.757   5.777  0.4019  0.1934  0.4610
  235MOL0     H30971   5.117   6.004   5.728 -0.9181 -0.6236 -1.1850
  235MOL0     H30972   5.293   5.999   5.719  0.8951 -2.6237 -1.7324
  235MOL0     H30973   5.128   6.197   5.923 -1.5844  1.5197  2.4596
  235MOL0     H30974   5.005   6.154   6.265 -0.7340 -1.8932 -0.9817
  235MOL0     H30975   5.019   6.271   6.130  1.8047  0.0972 -1.1952
  235MOL0     H30976   5.127   6.351   6.327 -1.2001 -1.7195  0.1151
  235MOL0     H30977   5.222   6.346   6.183  5.5620  0.1859  1.7890
  235MOL0     H30978   5.359   6.158   6.275  2.1931 -0.2382  2.5376
  235MOL0     H30979   5.342   6.292   6.391  3.1242 -2.0729 -0.1884
  235MOL0     H30980   5.319   6.072   6.509  1.4647 -0.3038 -1.7993
  235MOL0     H30981   5.201   6.013   6.400  0.3109  1.3057 -0.5459
  235MOL0     H30982   4.959   6.335   6.589  2.1959  3.7303 -2.5974
  235MOL0     H30983   4.932   6.427   6.802 -0.7125 -1.9332 -1.8692
  235MOL0     H30984   5.003   6.299   7.262 -2.0159 -1.6870  3.8646
  235MOL0     H30985   4.878   6.345   7.463  0.9424 -0.1251  0.0305
  235MOL0     H30986   4.623   6.736   7.541 -1.0263  2.1855  4.9312
  235MOL0     H30987   4.793   6.752   7.526  1.9618 -1.5371  2.5353
  235MOL0     H30988   4.761   6.771   7.756 -0.9637  1.3018 -0.3891
  235MOL0     H30989   4.790   6.604   7.758 -0.1812  1.9364  0.6893
  235MOL0     H30990   4.521   6.611   7.709  1.9624 -1.6288  0.5769
  235MOL0     H30991   4.528   6.772   7.783  0.1872  0.6166  0.6745
  235MOL0     H30992   4.481   6.610   7.958  0.2533  0.9620 -1.6299
  235MOL0     H30993   4.622   6.513   7.923 -1.3456 -1.1424  0.8871
  235MOL0     H30994   4.659   6.804   8.002  0.8785 -0.2009  1.7382
  235MOL0     H30995   4.778   6.666   7.989 -0.2960 -2.8339 -0.9070
  235MOL0     H30996   4.720   6.570   8.189 -1.0542 -1.2263 -1.0744
  235MOL0     H30997   4.554   6.649   8.190 -0.4487  2.0968 -2.3888
  235MOL0     H30998   4.811   6.801   8.203  0.0477 -1.5993  0.6419
  235MOL0     H30999   4.663   6.863   8.265  1.1471  1.4607 -1.8692
  235MOL0     H31000   4.796   6.812   8.451  0.0727 -1.8240  2.2685
  235MOL0     H31001   4.841   6.650   8.382  1.7082  0.4625  1.1004
  235MOL0     H31002   4.718   6.698   7.316  1.5954  2.1643 -1.0597
  235MOL0     H31003   4.862   6.666   7.092 -1.0030 -1.0879 -0.5315
  235MOL0     H31004   5.321   6.267   6.908 -1.0320  1.9296  1.0396
  235MOL0     H31005   5.340   6.155   6.699 -1.2556 -2.7592  1.8333
  235MOL0     H31006   5.932   5.742   5.534  0.2795  1.4667 -1.2559
  235MOL0     H31007   6.167   5.781   5.446  0.5925 -1.7474  0.9715
  235MOL0     H31008   6.468   5.765   5.118  0.5748  0.7202  1.2155
  235MOL0     H31009   6.682   5.803   5.073  0.8962 -1.9906 -4.0692
  235MOL0     H31010   6.901   5.800   5.233  0.2893 -0.7576 -0.7762
  235MOL0     H31011   6.909   5.840   5.070  0.7277  2.2482  1.8984
  235MOL0     H31012   7.148   5.707   5.204  1.7356  0.7804  0.4224
  235MOL0     H31013   7.146   5.767   5.041 -3.6777 -1.4780 -0.8327
  235MOL0     H31014   7.094   5.918   5.301  0.0245  1.2123 -0.1669
  235MOL0     H31015   7.134   6.007   5.146  2.9540  0.7319  0.0096
  235MOL0     H31016   7.323   6.026   5.275 -3.3267  0.7897 -0.0076
  235MOL0     H31017   7.331   5.851   5.316  2.4326  2.3006  0.8844
  235MOL0     H31018   7.542   5.886   4.956 -1.1733  2.0020 -0.5350
  235MOL0     H31019   6.809   5.422   5.200  0.9237  2.3370 -0.0899
  235MOL0     H31020   6.566   5.365   5.257 -4.5597  2.7189  1.9408
  236MOL0     O31021   6.292   5.974   8.001  0.0227 -0.4325  0.3392
  236MOL0     C31022   6.396   6.037   7.968  0.8942  0.0869 -0.0873
  236MOL0     O31023   6.514   5.982   7.929 -0.2915 -0.0747 -0.3055
  236MOL0     C31024   6.560   5.855   7.963 -0.3847  0.2329  0.0050
  236MOL0     C31025   6.700   5.831   7.927  0.0555  0.0854 -0.4845
  236MOL0     C31026   6.765   5.717   7.967 -1.2937  0.6168 -0.2463
  236MOL0     C31027   6.702   5.622   8.051  0.6991 -0.7029  0.5840
  236MOL0     O31028   6.786   5.528   8.105 -0.3138 -0.4109  0.8029
  236MOL0     C31029   6.741   5.413   8.180 -0.9280 -0.0838  0.9729
  236MOL0     C31030   6.853   5.348   8.254  0.5476  0.8321  0.0112
  236MOL0     C31031   6.802   5.278   8.372  1.4385  0.1362 -0.3611
  236MOL0     C31032   6.912   5.184   8.428  0.5773  0.5079  0.3617
  236MOL0     C31033   6.859   5.124   8.554 -0.8348 -0.3079  0.1914
  236MOL0     C31034   6.964   5.053   8.637 -0.0707  0.4493 -0.5029
  236MOL0     C31035   6.906   4.973   8.750  0.2910  0.3373 -0.5981
  236MOL0     C31036   7.023   4.874   8.806  1.0335  0.2708  0.2207
  236MOL0     N31037   7.025   4.868   8.951 -0.3508 -0.0373  0.5659
  236MOL0     C31038   6.966   4.763   9.023 -0.9281  0.5415 -0.2357
  236MOL0     C31039   7.011   4.798   9.141 -0.1681  0.1295  0.2167
  236MOL0     C31040   6.984   4.710   9.266 -0.1308  0.2900 -0.1573
  236MOL0     C31041   7.041   4.567   9.285 -0.2510 -0.1835  1.3174
  236MOL0     C31042   7.008   4.483   9.414  0.0207  0.6525 -0.4814
  236MOL0     C31043   7.071   4.348   9.400 -0.7345  0.3228 -0.2723
  236MOL0     O31044   6.976   4.244   9.356 -0.1851 -0.3081 -0.1700
  236MOL0     C31045   6.958   4.149   9.447  0.3061  0.0181 -0.1794
  236MOL0     C31046   6.872   4.166   9.555 -0.3660 -0.1049  1.0180
  236MOL0     C31047   6.886   4.095   9.673 -0.1193 -0.2327 -0.1641
  236MOL0     C31048   6.957   3.974   9.675 -0.7273  0.6768 -0.3980
  236MOL0     C31049   6.966   3.886   9.789  0.0475 -1.2546  0.6158
  236MOL0     O31050   6.859   3.870   9.875  1.3862 -1.4758 -0.7455
  236MOL0     C31051   6.844   3.771   9.966 -0.0862  1.4009  1.0318
  236MOL0     C31052   6.919   3.656   9.969 -0.8655 -0.8257 -1.2334
  236MOL0     C31053   6.867   3.544  10.030  0.0264  0.6691 -0.6762
  236MOL0     C31054   6.753   3.549  10.114 -0.6244  0.5709  0.1919
  236MOL0     O31055   6.713   3.447  10.193  0.6427 -0.8845  0.1748
  236MOL0     C31056   6.799   3.400  10.304  1.2455 -0.3227  0.9418
  236MOL0     C31057   6.703   3.353  10.415 -0.3162 -0.0556  0.3638
  236MOL0     C31058   6.787   3.298  10.536  1.0678  0.4135 -0.4844
  236MOL0     C31059   6.688   3.241  10.638  0.2578 -0.5936  0.1610
  236MOL0     C31060   6.753   3.190  10.765 -0.0053  0.5895 -0.4732
  236MOL0     C31061   6.671   3.178  10.883  0.0063  0.6209 -0.3230
  236MOL0     C31062   6.643   3.316  10.955  0.0580  0.2190  0.2418
  236MOL0     C31063   6.536   3.291  11.066 -0.5697  0.7380 -0.8267
  236MOL0    Cl31064   6.489   3.432  11.154  0.1158 -0.5058 -0.1477
  236MOL0     C31065   6.695   3.677  10.130 -0.6087 -0.0308 -0.2411
  236MOL0     C31066   6.723   3.782  10.045 -0.3856  0.5444 -0.4758
  236MOL0     O31067   7.078   3.850   9.815 -0.6858 -0.0717 -0.1711
  236MOL0     C31068   7.039   3.949   9.566 -0.6718  0.0541 -0.0563
  236MOL0     C31069   7.044   4.044   9.460 -0.4164 -0.4729  0.1496
  236MOL0     N31070   7.082   4.917   9.143 -0.2357  0.7357 -0.9305
  236MOL0     N31071   7.096   4.956   9.027 -0.9271 -0.3523  1.0231
  236MOL0     C31072   6.562   5.647   8.076 -0.7040 -0.6287  0.5095
  236MOL0     C31073   6.497   5.754   8.037  0.2886 -0.6837 -0.3044
  236MOL0     C31074   6.390   6.188   7.941 -0.3751  0.8090 -1.1393
  236MOL0     C31075   6.489   6.255   7.856  0.1194 -0.8365 -1.0073
  236MOL0     C31076   6.489   6.392   7.835 -0.1484  0.3293 -0.0340
  236MOL0     C31077   6.384   6.467   7.889  0.1887 -0.0698 -1.2018
  236MOL0     O31078   6.382   6.607   7.867  0.1717  0.2889  0.0083
  236MOL0     C31079   6.254   6.680   7.878 -0.2915  0.0155 -0.1094
  236MOL0     C31080   6.279   6.833   7.856 -0.1445  0.3566  0.0262
  236MOL0     C31081   6.140   6.907   7.875 -0.7059 -0.5589 -0.4480
  236MOL0     C31082   6.163   7.057   7.835 -0.2973 -0.8037  0.9374
  236MOL0     C31083   6.032   7.129   7.839  0.0819  0.1295  0.0967
  236MOL0     C31084   5.926   7.177   7.845  0.6573 -0.6877 -0.0586
  236MOL0     C31085   6.285   6.398   7.965 -0.4996  0.0631 -0.2118
  236MOL0     C31086   6.284   6.263   7.987  0.7660  0.3486  0.0180
  236MOL0     H31087   6.766   5.904   7.882  1.2957 -0.8173 -0.1985
  236MOL0     H31088   6.871   5.720   7.941 -1.0326 -0.4122  0.6446
  236MOL0     H31089   6.694   5.344   8.108 -0.7369  0.5598  0.2236
  236MOL0     H31090   6.666   5.442   8.254 -2.9467 -1.4281 -0.4330
  236MOL0     H31091   6.930   5.418   8.287 -0.4423  0.9639  2.1997
  236MOL0     H31092   6.897   5.275   8.185 -0.1642 -0.8329  1.2349
  236MOL0     H31093   6.709   5.228   8.347 -0.1451  1.0998  2.9373
  236MOL0     H31094   6.767   5.352   8.445 -0.1081 -1.5644  0.6898
  236MOL0     H31095   6.944   5.112   8.351 -0.4558  0.1029  0.2995
  236MOL0     H31096   6.997   5.246   8.457 -0.8091  0.9625  3.9099
  236MOL0     H31097   6.772   5.060   8.538  0.0571 -1.1610 -1.6251
  236MOL0     H31098   6.824   5.207   8.616 -0.3589 -1.3402  1.9140
  236MOL0     H31099   7.053   5.105   8.674  0.3364 -1.3741  1.2716
  236MOL0     H31100   7.006   4.975   8.573  0.4547  0.5052 -0.2285
  236MOL0     H31101   6.882   5.035   8.837  2.0679 -3.2139  2.7231
  236MOL0     H31102   6.820   4.917   8.713  1.9898 -0.2791 -3.9447
  236MOL0     H31103   7.121   4.910   8.774  0.9424  2.0907  1.7832
  236MOL0     H31104   7.003   4.777   8.760  0.2738  2.1347 -3.7861
  236MOL0     H31105   6.906   4.678   8.990 -4.2394  1.7890  2.0111
  236MOL0     H31106   6.876   4.695   9.271  0.0378 -0.9003  4.2486
  236MOL0     H31107   7.013   4.765   9.356 -1.4958  1.6102 -0.4976
  236MOL0     H31108   7.149   4.569   9.269 -0.6597  0.2147 -1.9922
  236MOL0     H31109   6.993   4.510   9.205 -1.1601 -1.3057  2.6083
  236MOL0     H31110   7.056   4.533   9.499 -1.8333 -2.7043  2.8493
  236MOL0     H31111   6.901   4.477   9.438  0.0643  1.0608 -0.1709
  236MOL0     H31112   7.116   4.331   9.499  1.6364  3.5408 -0.6282
  236MOL0     H31113   7.165   4.351   9.344 -0.2264 -1.8723  0.3690
  236MOL0     H31114   6.800   4.248   9.548 -0.1755  0.3901  3.6838
  236MOL0     H31115   6.819   4.116   9.756  0.0144  0.4665 -0.2278
  236MOL0     H31116   7.016   3.642   9.923 -0.0918  1.0600 -0.2665
  236MOL0     H31117   6.925   3.452  10.032  1.3171  1.4822  0.2090
  236MOL0     H31118   6.855   3.483  10.348 -0.6129 -0.2475  3.4079
  236MOL0     H31119   6.860   3.316  10.270  0.8861  0.4114 -1.8116
  236MOL0     H31120   6.643   3.265  10.389  1.3024 -0.6533 -1.5427
  236MOL0     H31121   6.642   3.437  10.450  0.8040 -0.6102  4.1443
  236MOL0     H31122   6.854   3.367  10.588 -2.9284  2.5322  2.3880
  236MOL0     H31123   6.858   3.223  10.500  2.8511  1.5858  0.4401
  236MOL0     H31124   6.624   3.323  10.671  1.7644  1.1775 -1.1476
  236MOL0     H31125   6.631   3.156  10.598  0.1949 -0.7694  0.6203
  236MOL0     H31126   6.839   3.248  10.802  0.9181 -1.7645  1.3140
  236MOL0     H31127   6.793   3.093  10.735 -2.8094 -0.4809 -0.9817
  236MOL0     H31128   6.731   3.124  10.956  3.1649  2.0613 -1.6621
  236MOL0     H31129   6.577   3.125  10.866 -0.7487  1.6630  0.4297
  236MOL0     H31130   6.731   3.352  11.008  0.8775  0.2549 -1.0902
  236MOL0     H31131   6.601   3.391  10.887  0.8348  0.9684  0.5765
  236MOL0     H31132   6.581   3.222  11.139  0.7277 -1.5565 -3.6081
  236MOL0     H31133   6.452   3.236  11.023 -0.7743 -1.6751  2.3153
  236MOL0     H31134   6.604   3.688  10.187  0.0624  2.0640  0.5279
  236MOL0     H31135   6.672   3.878  10.052 -0.3236  0.5271  0.2701
  236MOL0     H31136   7.109   3.866   9.566  1.6780  1.8918  1.4393
  236MOL0     H31137   7.107   4.035   9.372  1.2227 -1.8953  1.3912
  236MOL0     H31138   6.502   5.574   8.130 -0.8278 -1.7902 -1.1078
  236MOL0     H31139   6.394   5.768   8.068  1.0173  0.7330  1.7282
  236MOL0     H31140   6.562   6.194   7.805 -1.2229 -1.1149 -2.6928
  236MOL0     H31141   6.567   6.438   7.775  1.3760 -3.4169 -1.2184
  236MOL0     H31142   6.196   6.666   7.969 -0.9930 -1.0683 -0.6997
  236MOL0     H31143   6.203   6.633   7.794  1.6906 -1.8057 -0.3962
  236MOL0     H31144   6.358   6.878   7.916 -0.0969 -1.1732  1.1532
  236MOL0     H31145   6.309   6.852   7.752 -3.6818 -0.4387 -1.3174
  236MOL0     H31146   6.107   6.904   7.979 -0.2673  0.0787 -0.2858
  236MOL0     H31147   6.069   6.860   7.806 -1.3209 -1.0788  0.5108
  236MOL0     H31148   6.236   7.108   7.898  2.0332 -2.0050 -0.6060
  236MOL0     H31149   6.190   7.045   7.729  1.3572 -1.0991  1.3745
  236MOL0     H31150   5.827   7.219   7.841  0.8982 -0.1492 -0.4172
  236MOL0     H31151   6.207   6.458   8.011 -1.7054 -1.0386 -0.7682
  236MOL0     H31152   6.208   6.232   8.058  2.2192 -0.6306  1.2259
  237MOL0     O31153   4.301   4.017   4.681  0.2291 -0.1197 -0.0918
  237MOL0     C31154   4.178   4.024   4.697  0.1986  0.0163  0.3852
  237MOL0     O31155   4.085   3.982   4.601 -0.0983 -0.6090 -0.6450
  237MOL0     C31156   4.132   3.934   4.486  0.3319 -0.8731  0.8809
  237MOL0     C31157   4.087   3.998   4.368  0.4712  0.0394  0.2587
  237MOL0     C31158   4.108   3.928   4.244  0.3001 -1.0419 -0.1430
  237MOL0     C31159   4.184   3.813   4.237  0.4803  0.7537 -0.0613
  237MOL0     O31160   4.225   3.751   4.121 -0.5421  0.5420  0.4306
  237MOL0     C31161   4.235   3.845   3.999 -0.2185  0.1049 -0.6211
  237MOL0     C31162   4.287   3.765   3.879 -1.1779 -0.1110  0.3637
  237MOL0     C31163   4.434   3.740   3.873 -0.0723 -0.2511 -0.0127
  237MOL0     C31164   4.485   3.616   3.966 -0.4200  0.3958 -0.0761
  237MOL0     C31165   4.637   3.608   3.936  0.2687  0.5179 -0.5128
  237MOL0     C31166   4.696   3.487   3.999 -0.8199  0.2175 -0.2937
  237MOL0     C31167   4.849   3.481   4.016  0.3225 -0.1015 -0.1837
  237MOL0     C31168   4.894   3.342   4.042  0.0608 -0.6006  0.7750
  237MOL0     N31169   5.039   3.329   4.050  0.0781 -0.2341 -0.4088
  237MOL0     C31170   5.133   3.331   3.949 -0.0507  0.7432  0.1396
  237MOL0     C31171   5.248   3.333   4.008  0.3174 -0.3727  0.3126
  237MOL0     C31172   5.378   3.325   3.930 -0.3616 -0.3156  0.0464
  237MOL0     C31173   5.498   3.379   4.008 -0.2529 -0.2428 -0.1289
  237MOL0     C31174   5.531   3.316   4.142  0.0027  0.3220 -0.3978
  237MOL0     C31175   5.653   3.359   4.214 -0.4079 -0.4390  0.1533
  237MOL0     O31176   5.670   3.291   4.338 -1.0725 -0.3153 -0.5525
  237MOL0     C31177   5.773   3.352   4.404 -0.0242  0.8924 -0.2561
  237MOL0     C31178   5.906   3.333   4.381 -0.2570 -0.5852  0.7314
  237MOL0     C31179   6.006   3.373   4.469  0.4003  0.7914  0.0854
  237MOL0     C31180   5.973   3.426   4.598 -0.2692 -0.1801  0.0463
  237MOL0     C31181   6.068   3.471   4.708  0.2841  0.0178 -0.4135
  237MOL0     O31182   6.017   3.534   4.817 -0.1355 -0.3121 -0.4549
  237MOL0     C31183   6.109   3.592   4.902  0.5116  0.8108  0.5224
  237MOL0     C31184   6.102   3.731   4.919 -1.1192  0.1908  0.2820
  237MOL0     C31185   6.199   3.805   4.998 -0.8267  1.0581  0.7783
  237MOL0     C31186   6.291   3.736   5.073 -0.8544 -0.7712 -1.4970
  237MOL0     O31187   6.398   3.794   5.143 -0.1157 -0.4134 -0.4977
  237MOL0     C31188   6.374   3.933   5.178 -0.8673  0.2972  0.3362
  237MOL0     C31189   6.513   3.963   5.246  0.5773 -0.5785 -0.4682
  237MOL0     C31190   6.508   4.095   5.323  0.1832  0.5538  0.2984
  237MOL0     C31191   6.530   4.227   5.230 -0.4470  0.1799 -0.0105
  237MOL0     C31192   6.516   4.350   5.323 -0.7865  0.1127  0.2836
  237MOL0     C31193   6.528   4.483   5.250  0.0899  0.3588  0.1267
  237MOL0     C31194   6.452   4.601   5.308 -0.4678 -0.2374 -0.1725
  237MOL0     C31195   6.324   4.638   5.231 -0.2943  0.1494  0.1407
  237MOL0    Cl31196   6.228   4.485   5.199  0.1812  0.1188 -0.3891
  237MOL0     C31197   6.304   3.600   5.051 -0.8017  0.2873 -0.1733
  237MOL0     C31198   6.208   3.530   4.968 -1.1667  0.4079  0.3487
  237MOL0     O31199   6.184   3.464   4.672 -0.5631 -0.0140 -0.0394
  237MOL0     C31200   5.839   3.447   4.614 -0.7614  0.5294  0.6278
  237MOL0     C31201   5.739   3.401   4.524  0.4875 -0.0823  0.1296
  237MOL0     N31202   5.226   3.344   4.140 -0.1639 -0.3176 -0.8116
  237MOL0     N31203   5.098   3.343   4.168 -0.1325  0.2386 -0.4843
  237MOL0     C31204   4.208   3.740   4.352  1.0179  0.4858 -0.7030
  237MOL0     C31205   4.184   3.802   4.475  0.4586 -0.1600  0.0384
  237MOL0     C31206   4.126   4.077   4.821  0.3045 -0.6357  0.0278
  237MOL0     C31207   4.019   4.168   4.814  0.4890  0.5337  0.3939
  237MOL0     C31208   3.952   4.212   4.930  0.9601 -0.4914  0.7376
  237MOL0     C31209   3.995   4.175   5.056  0.0768  0.4619 -0.0001
  237MOL0     O31210   3.929   4.224   5.170 -0.5820 -0.9157 -0.8402
  237MOL0     C31211   3.966   4.182   5.305 -0.1260 -0.4371  0.5412
  237MOL0     C31212   3.894   4.054   5.351 -0.3716  0.2613  0.1274
  237MOL0     C31213   3.743   4.052   5.310 -0.4881 -0.5472  0.1812
  237MOL0     C31214   3.667   3.923   5.343  0.7209 -0.3102 -0.0846
  237MOL0     C31215   3.521   3.936   5.314 -0.2666 -0.1721 -0.2508
  237MOL0     C31216   3.408   3.969   5.290 -0.6467 -0.5289 -0.4405
  237MOL0     C31217   4.098   4.086   5.068 -0.8982  0.2963 -0.4328
  237MOL0     C31218   4.164   4.044   4.952  0.1578  0.7634  0.6214
  237MOL0     H31219   4.022   4.084   4.369  1.9825  1.2311  0.0067
  237MOL0     H31220   4.059   3.974   4.158  0.1881 -0.0293  0.4517
  237MOL0     H31221   4.314   3.917   4.020  0.1544 -0.4154 -0.2236
  237MOL0     H31222   4.140   3.895   3.977 -0.6091 -0.5100 -0.3633
  237MOL0     H31223   4.261   3.832   3.796  2.0201 -1.9806 -2.4213
  237MOL0     H31224   4.241   3.669   3.856 -0.4635 -0.0479 -1.5150
  237MOL0     H31225   4.484   3.830   3.909 -0.3618 -0.9592  2.3213
  237MOL0     H31226   4.461   3.723   3.769 -0.0914  0.6200 -0.1673
  237MOL0     H31227   4.460   3.636   4.070  3.3461  1.7769  0.7230
  237MOL0     H31228   4.432   3.526   3.932 -0.7954  1.2697 -1.9394
  237MOL0     H31229   4.685   3.700   3.972  2.7088 -0.9483  0.1694
  237MOL0     H31230   4.663   3.627   3.832 -2.2237  2.1353 -0.9368
  237MOL0     H31231   4.665   3.395   3.949  0.5368 -2.5473  3.4338
  237MOL0     H31232   4.659   3.468   4.100 -2.2453 -0.5666 -0.9333
  237MOL0     H31233   4.912   3.519   3.934 -1.3328  0.0656 -1.4443
  237MOL0     H31234   4.875   3.548   4.098 -3.7056  3.6924 -1.5600
  237MOL0     H31235   4.856   3.278   3.961 -3.1389 -0.9116  2.3471
  237MOL0     H31236   4.859   3.298   4.136  2.4827 -4.2532  0.2005
  237MOL0     H31237   5.110   3.327   3.843  0.9563 -0.3987 -0.0609
  237MOL0     H31238   5.371   3.377   3.834  3.6408  4.5302  1.9430
  237MOL0     H31239   5.405   3.223   3.900 -1.1733 -0.6771  0.5207
  237MOL0     H31240   5.478   3.486   4.016  2.2455  0.1281  3.7934
  237MOL0     H31241   5.589   3.375   3.947  1.7909  1.1541  2.5821
  237MOL0     H31242   5.443   3.334   4.204  0.1722 -3.4407  1.1974
  237MOL0     H31243   5.525   3.207   4.131 -0.9949 -0.3028  4.2680
  237MOL0     H31244   5.654   3.467   4.226  3.3016  0.1128 -3.1660
  237MOL0     H31245   5.739   3.340   4.149  0.8350  3.0954  0.5880
  237MOL0     H31246   5.941   3.281   4.293 -1.1895  0.5788 -0.3496
  237MOL0     H31247   6.110   3.351   4.447  0.7805  3.4601 -1.2255
  237MOL0     H31248   6.021   3.786   4.873 -1.4438 -0.1646  0.4191
  237MOL0     H31249   6.201   3.914   5.004  1.0690  0.9848  2.5621
  237MOL0     H31250   6.291   3.934   5.249  1.7220 -0.0947  3.6327
  237MOL0     H31251   6.365   4.003   5.095 -0.4906  0.5603  0.5165
  237MOL0     H31252   6.587   3.969   5.166  1.2455 -1.8964  0.0157
  237MOL0     H31253   6.552   3.882   5.309  2.1590  1.9922  2.0837
  237MOL0     H31254   6.595   4.089   5.389  1.0962 -2.9582 -0.9778
  237MOL0     H31255   6.418   4.107   5.384  0.5256  1.7593  0.5896
  237MOL0     H31256   6.626   4.217   5.177 -0.7572 -0.7746 -0.4007
  237MOL0     H31257   6.456   4.230   5.150  0.8180  1.1220 -1.2068
  237MOL0     H31258   6.598   4.348   5.395 -0.1267 -1.6120 -0.4668
  237MOL0     H31259   6.416   4.347   5.368 -1.8246 -0.0871 -1.8873
  237MOL0     H31260   6.493   4.458   5.150  0.3482 -3.7463  0.9020
  237MOL0     H31261   6.629   4.522   5.239 -0.0062  0.6962  0.4196
  237MOL0     H31262   6.427   4.579   5.412 -0.9192  0.4241 -0.1397
  237MOL0     H31263   6.525   4.682   5.309  2.2448 -2.5130  1.6724
  237MOL0     H31264   6.353   4.695   5.142 -0.2739  2.6994  1.6870
  237MOL0     H31265   6.262   4.705   5.291  0.8659 -1.8176  3.8255
  237MOL0     H31266   6.385   3.549   5.102 -1.1366 -0.7407 -0.6579
  237MOL0     H31267   6.220   3.422   4.958  1.7672  0.8290 -1.8456
  237MOL0     H31268   5.798   3.501   4.699 -0.4921  0.5299  0.7614
  237MOL0     H31269   5.634   3.421   4.543  0.4398 -2.8748  4.0059
  237MOL0     H31270   4.257   3.644   4.339  4.6142  2.4985 -5.2693
  237MOL0     H31271   4.204   3.748   4.567  3.7743 -1.3644 -1.2101
  237MOL0     H31272   3.977   4.190   4.716  0.0225 -2.1233 -0.0765
  237MOL0     H31273   3.878   4.291   4.938  4.3279  2.8326  2.6377
  237MOL0     H31274   3.924   4.258   5.372  0.0886 -0.4171  0.6532
  237MOL0     H31275   4.076   4.183   5.310  0.0231  0.8512 -1.4843
  237MOL0     H31276   3.942   3.965   5.308  0.4675 -0.6930  2.8530
  237MOL0     H31277   3.907   4.046   5.459  1.0208 -4.4119 -0.1479
  237MOL0     H31278   3.738   4.082   5.205  1.9369  0.5866  0.3129
  237MOL0     H31279   3.695   4.132   5.367 -1.4515  0.6969 -2.2630
  237MOL0     H31280   3.716   3.841   5.290 -1.0134 -1.0281 -0.6742
  237MOL0     H31281   3.674   3.897   5.449 -0.0168  0.0510  0.0615
  237MOL0     H31282   3.313   4.006   5.257 -1.3722 -1.2954  0.7155
  237MOL0     H31283   4.127   4.048   5.165  3.8663  0.5126 -1.5439
  237MOL0     H31284   4.254   3.983   4.959 -0.8926 -0.6088  4.4836
  238MOL0     O31285   6.301   6.222   8.299  0.4918 -0.3080  1.4153
  238MOL0     C31286   6.355   6.323   8.333  0.1003 -0.0374  0.1585
  238MOL0     O31287   6.489   6.344   8.355 -0.2622 -0.4107  0.7441
  238MOL0     C31288   6.564   6.228   8.327  0.5124  0.7345  0.3049
  238MOL0     C31289   6.606   6.219   8.196 -0.0894  0.7086 -0.7442
  238MOL0     C31290   6.683   6.119   8.144 -0.1048 -1.2131  0.0976
  238MOL0     C31291   6.731   6.024   8.234 -0.2378  0.4534 -0.1075
  238MOL0     O31292   6.811   5.939   8.177 -1.0004 -0.2869 -0.1569
  238MOL0     C31293   6.946   5.926   8.237  0.4589 -0.0131  0.5119
  238MOL0     C31294   7.044   5.949   8.126 -0.4268  0.0602 -0.2775
  238MOL0     C31295   7.042   6.080   8.051 -0.8092 -0.5706  0.1955
  238MOL0     C31296   7.175   6.104   7.974  0.1153  0.4404 -0.2147
  238MOL0     C31297   7.203   6.002   7.866  0.6016  0.7857 -0.4990
  238MOL0     C31298   7.110   6.027   7.749  1.1335  0.7644  0.1079
  238MOL0     C31299   7.109   5.914   7.638 -0.8570  0.7700  0.3225
  238MOL0     C31300   7.065   5.779   7.691 -0.9822  0.9401 -0.2795
  238MOL0     N31301   7.051   5.678   7.585 -0.6059  0.0316  0.6526
  238MOL0     C31302   7.146   5.590   7.549 -0.4534 -0.6291 -0.0378
  238MOL0     C31303   7.068   5.493   7.481 -0.9515  0.4748  0.1784
  238MOL0     C31304   7.131   5.371   7.428  0.2090 -0.0737  0.5807
  238MOL0     C31305   7.179   5.360   7.273 -0.9610 -0.0063 -0.1603
  238MOL0     C31306   7.098   5.459   7.195  0.8165 -0.7838 -0.1544
  238MOL0     C31307   7.123   5.444   7.047  0.1216  0.3440 -0.1533
  238MOL0     O31308   7.123   5.314   7.017  0.7923 -0.2928  0.5300
  238MOL0     C31309   7.022   5.220   7.014 -0.8053  0.0022 -0.0623
  238MOL0     C31310   6.889   5.262   6.986  0.3034 -0.3684 -0.4838
  238MOL0     C31311   6.782   5.177   6.989  0.3546  0.2398  0.2906
  238MOL0     C31312   6.804   5.041   7.029 -0.7938 -0.5163 -0.4102
  238MOL0     C31313   6.685   4.944   7.028  0.1245 -0.2375 -0.1448
  238MOL0     O31314   6.562   4.997   6.985  0.6650  0.0418  0.9205
  238MOL0     C31315   6.446   4.928   7.024  0.2930 -0.0208  0.6801
  238MOL0     C31316   6.419   4.896   7.151 -0.5122 -0.3339 -0.5274
  238MOL0     C31317   6.311   4.826   7.187  0.8641  1.1613 -0.4228
  238MOL0     C31318   6.233   4.767   7.088  0.5641  0.5402  0.2297
  238MOL0     O31319   6.131   4.679   7.113  0.0287 -0.0941 -0.8381
  238MOL0     C31320   6.102   4.634   7.250  0.7393  1.1596 -1.1998
  238MOL0     C31321   5.989   4.521   7.241 -0.5596 -0.6229 -0.1585
  238MOL0     C31322   5.905   4.529   7.378  1.1284  0.0603 -0.5797
  238MOL0     C31323   5.820   4.406   7.417 -0.6929 -0.7244 -0.3503
  238MOL0     C31324   5.679   4.443   7.461  0.3657  0.7118 -0.6928
  238MOL0     C31325   5.671   4.527   7.581 -0.9487  0.3488  0.0670
  238MOL0     C31326   5.532   4.511   7.647 -0.0721 -0.2965  0.9691
  238MOL0     C31327   5.432   4.597   7.561  0.0140 -0.8759 -0.0948
  238MOL0    Cl31328   5.494   4.775   7.565 -0.1635 -0.4447 -0.0949
  238MOL0     C31329   6.252   4.785   6.953 -0.7342 -0.2138  0.0924
  238MOL0     C31330   6.363   4.870   6.928 -0.1972  0.0919 -0.0091
  238MOL0     O31331   6.710   4.834   7.073  0.0737  0.4010  0.1101
  238MOL0     C31332   6.940   5.004   7.066 -0.4172  0.3313  0.1483
  238MOL0     C31333   7.050   5.093   7.052 -0.6518 -1.4376  0.1374
  238MOL0     N31334   6.931   5.521   7.492 -0.2554 -0.0929 -0.5549
  238MOL0     N31335   6.924   5.626   7.557 -0.9867 -0.0315  0.5850
  238MOL0     C31336   6.693   6.031   8.368  0.8724 -0.0109 -0.2681
  238MOL0     C31337   6.604   6.122   8.414 -0.1948 -1.1300 -0.8283
  238MOL0     C31338   6.257   6.445   8.359  0.6354 -0.0194  0.6217
  238MOL0     C31339   6.308   6.564   8.413  0.0295 -1.4690 -0.1483
  238MOL0     C31340   6.220   6.669   8.425 -0.0382 -0.0779  0.7640
  238MOL0     C31341   6.094   6.669   8.364 -0.2583  0.0099 -0.3084
  238MOL0     O31342   6.026   6.787   8.372  0.0798 -0.0853 -0.4082
  238MOL0     C31343   5.888   6.780   8.429  0.3546 -0.8907  0.2730
  238MOL0     C31344   5.811   6.913   8.428 -0.2468 -0.4892 -0.3873
  238MOL0     C31345   5.671   6.902   8.512  0.9142  0.1528  0.1937
  238MOL0     C31346   5.564   7.006   8.487 -1.0027  0.8258  0.6881
  238MOL0     C31347   5.618   7.134   8.518 -0.3607 -0.5389 -0.7345
  238MOL0     C31348   5.672   7.248   8.523  0.5792 -0.5347 -0.7217
  238MOL0     C31349   6.047   6.556   8.312  0.9989  0.5094  0.6780
  238MOL0     C31350   6.120   6.443   8.317 -0.7316  0.4160  0.8928
  238MOL0     H31351   6.565   6.292   8.127  0.5823 -0.5635 -2.5723
  238MOL0     H31352   6.697   6.097   8.039  1.3943 -3.5928  0.7010
  238MOL0     H31353   6.968   5.827   8.279  1.6343  1.2775  3.1155
  238MOL0     H31354   6.954   6.001   8.316  2.7230  1.4115 -0.9598
  238MOL0     H31355   7.024   5.868   8.056 -1.3603 -1.0668  1.2462
  238MOL0     H31356   7.143   5.924   8.165 -0.6281 -1.3644 -0.6371
  238MOL0     H31357   7.031   6.169   8.114 -1.6794 -2.1084  2.3719
  238MOL0     H31358   6.960   6.070   7.980 -0.2197  1.0048 -0.7488
  238MOL0     H31359   7.166   6.207   7.936  0.3150  1.3210  1.9544
  238MOL0     H31360   7.268   6.100   8.033  1.1263 -0.2454 -1.7836
  238MOL0     H31361   7.190   5.902   7.908 -3.9339  2.2802  2.4215
  238MOL0     H31362   7.301   6.018   7.821 -0.1189  1.1362 -2.0216
  238MOL0     H31363   7.130   6.126   7.707 -0.2787  0.9967 -0.0555
  238MOL0     H31364   7.006   6.011   7.778  1.7328 -1.9981  1.0907
  238MOL0     H31365   7.039   5.939   7.557  0.8441  1.1876 -1.0891
  238MOL0     H31366   7.206   5.895   7.592 -0.8309 -0.8201  1.0043
  238MOL0     H31367   6.969   5.781   7.744  1.2975  0.0068  4.3075
  238MOL0     H31368   7.131   5.736   7.767  0.0567  1.3953 -0.9019
  238MOL0     H31369   7.250   5.579   7.578 -0.8218  0.3880  1.7938
  238MOL0     H31370   7.054   5.294   7.437 -1.4877  1.1815 -1.8644
  238MOL0     H31371   7.221   5.357   7.488  1.3402  2.6241 -0.2897
  238MOL0     H31372   7.190   5.258   7.236  0.9077 -0.4604  1.4174
  238MOL0     H31373   7.283   5.394   7.272 -1.5772  2.1436 -2.7568
  238MOL0     H31374   6.992   5.442   7.210  0.1879  3.6950  1.9886
  238MOL0     H31375   7.111   5.563   7.225 -2.1266 -0.2094 -0.5810
  238MOL0     H31376   7.219   5.493   7.026  0.1938  0.4708  0.4710
  238MOL0     H31377   7.043   5.500   6.996  0.9616  1.7285 -0.0042
  238MOL0     H31378   6.854   5.359   6.954 -3.9926 -2.3918 -2.7796
  238MOL0     H31379   6.681   5.208   6.968  0.3937 -0.9984 -2.0208
  238MOL0     H31380   6.484   4.937   7.228 -2.3006  0.6551  0.5159
  238MOL0     H31381   6.291   4.799   7.290 -3.4978 -1.2755 -1.6320
  238MOL0     H31382   6.068   4.720   7.310 -0.1974 -1.9688  3.2464
  238MOL0     H31383   6.193   4.589   7.291  1.3059  2.2987 -1.1622
  238MOL0     H31384   6.034   4.423   7.222  0.5603 -0.1407 -0.0606
  238MOL0     H31385   5.925   4.553   7.158  2.1628  0.5180 -1.9500
  238MOL0     H31386   5.839   4.616   7.373  0.3863 -0.5812 -2.6685
  238MOL0     H31387   5.972   4.538   7.464  0.5158 -2.2002  0.1886
  238MOL0     H31388   5.820   4.337   7.332  0.2334  0.7222 -1.5750
  238MOL0     H31389   5.864   4.349   7.499  2.6792  1.8383 -0.1332
  238MOL0     H31390   5.622   4.354   7.488 -0.6276  0.9921 -1.7888
  238MOL0     H31391   5.631   4.499   7.380 -1.9475  1.3803  1.0277
  238MOL0     H31392   5.690   4.629   7.545 -0.6030  0.9472  1.8589
  238MOL0     H31393   5.746   4.491   7.652 -1.3857  1.3201  1.0587
  238MOL0     H31394   5.476   4.418   7.652 -3.2056  1.4670  1.7104
  238MOL0     H31395   5.540   4.557   7.746 -4.3060 -0.6862  1.6856
  238MOL0     H31396   5.337   4.594   7.615  0.3263  0.7596  0.6131
  238MOL0     H31397   5.413   4.555   7.462 -1.9718  1.3045 -0.7215
  238MOL0     H31398   6.193   4.734   6.877 -0.9795  0.5786 -0.2538
  238MOL0     H31399   6.384   4.888   6.823 -3.9141  0.4701 -0.8555
  238MOL0     H31400   6.970   4.904   7.097  3.7464  1.6764  1.2028
  238MOL0     H31401   7.150   5.053   7.066 -0.7146 -0.8675  2.6980
  238MOL0     H31402   6.725   5.964   8.448  2.0697 -0.7240 -1.3041
  238MOL0     H31403   6.602   6.143   8.520 -0.4639 -0.1252 -1.0186
  238MOL0     H31404   6.411   6.567   8.448 -0.2630  0.0252  0.6777
  238MOL0     H31405   6.264   6.754   8.476 -1.5522  0.6271  0.9217
  238MOL0     H31406   5.898   6.732   8.526 -0.1402 -1.0582  0.2475
  238MOL0     H31407   5.827   6.702   8.380  1.5808 -1.0409 -1.0868
  238MOL0     H31408   5.882   6.986   8.468  0.8222 -0.3278 -2.4358
  238MOL0     H31409   5.792   6.946   8.325  2.4089 -2.0174 -1.4793
  238MOL0     H31410   5.700   6.902   8.618  0.7431  0.5375  0.2388
  238MOL0     H31411   5.627   6.803   8.497  1.2621  0.0764 -0.3732
  238MOL0     H31412   5.545   6.996   8.379  0.1362  0.7323  0.4844
  238MOL0     H31413   5.478   6.989   8.552  0.2120 -2.8232  1.6014
  238MOL0     H31414   5.708   7.348   8.536 -0.1088 -0.5569  1.7402
  238MOL0     H31415   5.973   6.566   8.233  1.7061 -0.7975 -0.1768
  238MOL0     H31416   6.079   6.375   8.243 -2.4495  1.1482  1.1324
  239MOL0     O31417   8.398   5.129   8.091  0.1874  0.9296  0.0761
  239MOL0     C31418   8.450   5.163   7.991  0.1356 -0.4535  0.3670
  239MOL0     O31419   8.412   5.119   7.871  0.6291 -0.0044  0.2340
  239MOL0     C31420   8.311   5.017   7.866  0.2487  0.0545  0.2326
  239MOL0     C31421   8.192   5.047   7.785 -0.0394  0.4345 -0.9175
  239MOL0     C31422   8.104   4.938   7.780 -0.6358 -0.6358 -0.1262
  239MOL0     C31423   8.131   4.811   7.843  0.5142  0.3409 -0.7066
  239MOL0     O31424   8.042   4.710   7.816 -1.2096 -0.3277 -0.0725
  239MOL0     C31425   8.039   4.608   7.921 -0.0961  0.0221  0.2379
  239MOL0     C31426   7.937   4.508   7.874 -0.1448  0.2332 -0.0640
  239MOL0     C31427   7.904   4.382   7.951  0.4376  0.5462 -1.2094
  239MOL0     C31428   7.821   4.298   7.865  0.4701  0.3858  0.1529
  239MOL0     C31429   7.812   4.147   7.904  0.7605  0.3812 -0.4158
  239MOL0     C31430   7.776   4.120   8.051 -0.2609 -0.0167  0.0113
  239MOL0     C31431   7.872   4.162   8.163 -0.0237 -0.4487  0.5123
  239MOL0     C31432   7.859   4.090   8.290 -0.5789 -0.1846  0.4598
  239MOL0     N31433   7.902   3.952   8.296  0.3028  0.5911 -0.6798
  239MOL0     C31434   8.018   3.892   8.276  0.2250 -0.2704 -1.0097
  239MOL0     C31435   8.005   3.754   8.294  0.4351  0.5628 -0.4826
  239MOL0     C31436   8.105   3.645   8.286  0.4105  0.3424 -0.9858
  239MOL0     C31437   8.228   3.684   8.380 -0.0591  0.3104 -1.0634
  239MOL0     C31438   8.211   3.670   8.533 -0.3566  0.3811 -0.4925
  239MOL0     C31439   8.304   3.765   8.618  0.6805  0.4465  0.1187
  239MOL0     O31440   8.304   3.726   8.757 -0.1564  0.3053 -0.8932
  239MOL0     C31441   8.349   3.803   8.854 -0.4345 -0.0678  0.5443
  239MOL0     C31442   8.431   3.917   8.833  0.4084  0.0992 -0.7941
  239MOL0     C31443   8.474   3.989   8.942 -0.0944  0.1091  0.1952
  239MOL0     C31444   8.449   3.943   9.071 -0.2263  0.0907  0.2900
  239MOL0     C31445   8.495   4.017   9.194 -1.0228  0.4919  0.1527
  239MOL0     O31446   8.566   4.137   9.166  0.3199 -0.8910 -0.0944
  239MOL0     C31447   8.626   4.190   9.269  0.8277  0.0992  0.6046
  239MOL0     C31448   8.561   4.292   9.332 -0.1876  0.6115  0.8196
  239MOL0     C31449   8.617   4.338   9.451  0.0793  0.8715 -0.8269
  239MOL0     C31450   8.742   4.282   9.496  0.3172  1.3470  0.4181
  239MOL0     O31451   8.823   4.322   9.600  0.0187 -0.8462  0.3958
  239MOL0     C31452   8.766   4.424   9.693 -0.5464  1.0474  0.5776
  239MOL0     C31453   8.860   4.419   9.814 -0.2613 -0.0643  0.4309
  239MOL0     C31454   8.987   4.501   9.793  0.0987  0.2780  0.5268
  239MOL0     C31455   9.051   4.512   9.929 -0.1787 -0.5742  0.5736
  239MOL0     C31456   9.192   4.557   9.924  0.2054  0.2758 -0.1719
  239MOL0     C31457   9.216   4.689   9.849 -0.8577 -0.3538 -0.3300
  239MOL0     C31458   9.369   4.724   9.870 -0.0280  1.0337  0.0948
  239MOL0     C31459   9.392   4.868   9.832  0.0799 -0.2514 -0.2221
  239MOL0    Cl31460   9.318   4.965   9.957 -0.4142 -0.7187  0.2208
  239MOL0     C31461   8.804   4.180   9.431 -0.7657  0.2405 -0.1999
  239MOL0     C31462   8.733   4.116   9.327  0.5484  0.5313 -0.2293
  239MOL0     O31463   8.480   3.959   9.297 -0.2307  0.1081 -0.2889
  239MOL0     C31464   8.380   3.822   9.091  0.2391 -0.1185  0.7013
  239MOL0     C31465   8.338   3.748   8.980 -0.0555 -0.4967 -0.0108
  239MOL0     N31466   7.870   3.736   8.318  0.4634  0.7106 -0.2461
  239MOL0     N31467   7.814   3.850   8.330 -0.4760  0.5187  0.3365
  239MOL0     C31468   8.252   4.798   7.913  0.8277  0.4493  0.5409
  239MOL0     C31469   8.339   4.900   7.932 -0.3897 -0.7615 -1.0880
  239MOL0     C31470   8.532   5.280   7.992  0.9847  1.1802 -0.0924
  239MOL0     C31471   8.599   5.300   7.873  0.2479 -0.0413 -0.5435
  239MOL0     C31472   8.688   5.409   7.856 -0.6251 -0.2482 -0.5222
  239MOL0     C31473   8.701   5.506   7.954 -0.3112 -0.5987 -0.8863
  239MOL0     O31474   8.785   5.611   7.968 -0.4032  0.5250  0.1058
  239MOL0     C31475   8.899   5.598   7.870  0.5922 -0.5128 -0.5570
  239MOL0     C31476   8.993   5.720   7.885 -0.2085 -0.1098  0.2355
  239MOL0     C31477   9.100   5.741   7.776 -0.4744  0.0326 -0.6890
  239MOL0     C31478   9.204   5.626   7.774  0.1377 -1.0949  0.3821
  239MOL0     C31479   9.343   5.674   7.775 -1.4863 -0.4872  1.1282
  239MOL0     C31480   9.453   5.728   7.766  0.0199  0.8223  0.1021
  239MOL0     C31481   8.618   5.485   8.069 -0.8095  0.5093  0.0718
  239MOL0     C31482   8.537   5.376   8.090 -0.0136 -0.6329  0.0912
  239MOL0     H31483   8.184   5.134   7.721  3.5648  0.9657 -0.8169
  239MOL0     H31484   8.018   4.946   7.714 -2.2163 -2.2199  1.6137
  239MOL0     H31485   8.012   4.656   8.016 -3.7033  1.6480 -1.4339
  239MOL0     H31486   8.134   4.555   7.920 -0.9900 -1.6448  0.3545
  239MOL0     H31487   7.988   4.469   7.786  1.6254 -2.5420  2.0240
  239MOL0     H31488   7.841   4.551   7.842 -0.3599 -0.6196 -0.6127
  239MOL0     H31489   7.836   4.415   8.029  1.0167  0.3323 -0.6051
  239MOL0     H31490   7.994   4.325   7.978 -0.6209 -1.0521 -0.9259
  239MOL0     H31491   7.720   4.338   7.850  0.6068  1.1721  1.2137
  239MOL0     H31492   7.868   4.302   7.766 -0.6717  0.3028 -0.4150
  239MOL0     H31493   7.903   4.090   7.882 -0.5601 -1.5576 -1.1466
  239MOL0     H31494   7.734   4.094   7.848  4.6559 -5.3120 -1.2832
  239MOL0     H31495   7.751   4.013   8.057 -1.8679  0.2832 -0.7088
  239MOL0     H31496   7.685   4.181   8.063  0.5562  1.6722 -1.9048
  239MOL0     H31497   7.976   4.154   8.132 -0.1093  2.0288 -0.6622
  239MOL0     H31498   7.846   4.265   8.188 -0.8439  0.4648 -3.4380
  239MOL0     H31499   7.755   4.100   8.322  0.2472 -0.9319  3.6842
  239MOL0     H31500   7.920   4.135   8.369 -1.1371 -0.1537  0.8746
  239MOL0     H31501   8.104   3.957   8.260  1.7136 -0.9673  3.0342
  239MOL0     H31502   8.128   3.619   8.182 -0.0412  0.4400 -1.1179
  239MOL0     H31503   8.072   3.552   8.332 -1.9625  1.5490 -0.0791
  239MOL0     H31504   8.251   3.789   8.356  1.9378 -0.0895 -1.0334
  239MOL0     H31505   8.307   3.615   8.349 -1.0944 -1.0384 -0.7442
  239MOL0     H31506   8.107   3.699   8.552  0.0613  0.1547  2.6844
  239MOL0     H31507   8.226   3.570   8.575  1.2102  0.2772 -1.2564
  239MOL0     H31508   8.251   3.858   8.594  2.4809  1.7044  0.8423
  239MOL0     H31509   8.403   3.758   8.573  1.3647  0.9633  1.4883
  239MOL0     H31510   8.444   3.965   8.736 -0.4825  1.8329 -0.1020
  239MOL0     H31511   8.529   4.080   8.920 -0.0806 -0.0630 -0.5003
  239MOL0     H31512   8.472   4.334   9.285 -0.7308 -1.8109 -0.4989
  239MOL0     H31513   8.570   4.417   9.509 -0.3727  0.6965 -0.9596
  239MOL0     H31514   8.676   4.378   9.732  0.5441 -0.0660  1.8669
  239MOL0     H31515   8.752   4.525   9.654  0.0255  1.0931  0.4830
  239MOL0     H31516   8.892   4.318   9.839 -2.0183 -0.2457  2.2042
  239MOL0     H31517   8.805   4.450   9.903 -0.5596  0.9722 -0.0942
  239MOL0     H31518   8.957   4.602   9.764  2.8505  0.9312 -0.2588
  239MOL0     H31519   9.044   4.466   9.706 -3.3166  0.0106 -1.8137
  239MOL0     H31520   8.987   4.593   9.966 -1.0622  0.3603 -2.6672
  239MOL0     H31521   9.047   4.423   9.993  0.8256  0.8142  2.6834
  239MOL0     H31522   9.254   4.478   9.882 -0.1590  0.5380 -1.2154
  239MOL0     H31523   9.224   4.570  10.028  0.3272 -2.1428  0.1440
  239MOL0     H31524   9.151   4.763   9.896  2.2462  2.4553 -0.1288
  239MOL0     H31525   9.194   4.683   9.742 -0.9008 -0.3259 -0.3234
  239MOL0     H31526   9.403   4.707   9.973  0.8614  3.4963  0.2648
  239MOL0     H31527   9.430   4.656   9.810  0.0800 -0.1316  1.4697
  239MOL0     H31528   9.339   4.909   9.745 -2.3273  0.3068  1.4243
  239MOL0     H31529   9.501   4.881   9.834  0.4007 -2.3678  2.6161
  239MOL0     H31530   8.903   4.146   9.458 -0.6740  1.8224  1.6400
  239MOL0     H31531   8.772   4.023   9.285 -0.7704  1.2076 -3.2327
  239MOL0     H31532   8.367   3.779   9.190 -0.3626  1.4725  1.3594
  239MOL0     H31533   8.277   3.659   8.994 -0.5017  0.0509  1.8730
  239MOL0     H31534   8.276   4.704   7.962  0.9897  0.8707  1.2914
  239MOL0     H31535   8.421   4.892   8.003 -3.0191 -0.8813  2.1460
  239MOL0     H31536   8.600   5.228   7.792  0.3253  0.2763 -0.8288
  239MOL0     H31537   8.751   5.427   7.769  1.5748 -2.4642  0.5078
  239MOL0     H31538   8.861   5.596   7.767  2.4441  0.1576 -1.3058
  239MOL0     H31539   8.963   5.511   7.884 -1.4842 -2.5383 -2.6484
  239MOL0     H31540   8.939   5.813   7.905 -0.3753 -0.2513  0.4491
  239MOL0     H31541   9.052   5.710   7.977  0.9770 -1.6022 -0.6351
  239MOL0     H31542   9.157   5.832   7.798  1.3090 -1.4996  1.5514
  239MOL0     H31543   9.049   5.757   7.680  0.2899 -1.7281 -1.4341
  239MOL0     H31544   9.177   5.566   7.861  1.2998 -0.0692  1.4979
  239MOL0     H31545   9.185   5.553   7.695 -1.5705 -2.2130  1.7548
  239MOL0     H31546   9.545   5.780   7.749 -1.9692  3.5895 -3.7686
  239MOL0     H31547   8.638   5.550   8.154  0.9815  0.6658 -0.4236
  239MOL0     H31548   8.479   5.376   8.182 -2.0345  0.4173 -1.1203
  240MOL0     O31549  10.935   2.046   6.887  0.1881 -0.0650  0.5860
  240MOL0     C31550  10.927   1.925   6.905  0.4233  0.1631 -0.1919
  240MOL0     O31551  10.805   1.858   6.914 -0.1935  0.4339  0.0449
  240MOL0     C31552  10.683   1.920   6.877 -0.7775 -0.2052  0.4905
  240MOL0     C31553  10.653   1.958   6.751 -0.2525  0.1330 -0.5585
  240MOL0     C31554  10.545   2.042   6.720 -0.2177 -0.4300 -0.2221
  240MOL0     C31555  10.441   2.048   6.817 -1.0759  0.1045 -0.1333
  240MOL0     O31556  10.324   2.096   6.770  0.3798 -0.2479 -0.4751
  240MOL0     C31557  10.241   2.157   6.864  0.5945  0.2568  0.9973
  240MOL0     C31558  10.116   2.183   6.795  0.3348  0.2609 -0.0149
  240MOL0     C31559  10.018   2.260   6.886  0.4377  0.2496  0.1150
  240MOL0     C31560   9.888   2.303   6.819 -0.7911  0.2299  0.5037
  240MOL0     C31561   9.769   2.318   6.914 -1.1893 -0.5620 -0.3980
  240MOL0     C31562   9.700   2.180   6.938 -0.0672 -0.1665  0.5320
  240MOL0     C31563   9.555   2.185   6.985  0.1386 -0.0209  0.4024
  240MOL0     C31564   9.529   2.182   7.139 -0.8587 -0.7955 -0.3746
  240MOL0     N31565   9.396   2.232   7.171 -0.2687  0.4565 -0.1131
  240MOL0     C31566   9.280   2.156   7.189 -0.5377 -0.7650 -0.0028
  240MOL0     C31567   9.195   2.244   7.236  0.8141  0.2954  1.5612
  240MOL0     C31568   9.042   2.211   7.267 -0.5247 -0.9048  0.2762
  240MOL0     C31569   8.933   2.267   7.172  0.0595  0.9394 -0.3710
  240MOL0     C31570   8.910   2.420   7.172 -0.6579  0.8591 -0.5955
  240MOL0     C31571   8.842   2.449   7.038 -0.0778 -0.3547  0.2195
  240MOL0     O31572   8.706   2.421   7.050  0.7213 -0.4466  0.1603
  240MOL0     C31573   8.623   2.416   6.943 -0.4118 -0.6436 -0.0531
  240MOL0     C31574   8.659   2.468   6.818  0.8452 -0.2930  0.0267
  240MOL0     C31575   8.558   2.478   6.722 -0.0583  0.5534 -0.1021
  240MOL0     C31576   8.428   2.426   6.746  0.2731 -0.1755 -0.0309
  240MOL0     C31577   8.324   2.430   6.638 -1.2579  0.5048  0.6868
  240MOL0     O31578   8.201   2.424   6.672  0.5959  0.1383  0.2900
  240MOL0     C31579   8.108   2.402   6.576  0.5874 -0.4533 -0.0265
  240MOL0     C31580   8.100   2.274   6.514  0.1937 -0.6333  0.4911
  240MOL0     C31581   8.002   2.251   6.411  0.0217 -0.2423  0.4175
  240MOL0     C31582   7.913   2.344   6.375 -0.1039 -0.6289 -0.0226
  240MOL0     O31583   7.808   2.325   6.287  0.2473 -0.4650 -0.3982
  240MOL0     C31584   7.836   2.225   6.186 -0.5739 -0.1785 -0.0311
  240MOL0     C31585   7.731   2.225   6.080  0.1771  0.2169  0.0265
  240MOL0     C31586   7.709   2.083   6.018  0.1606 -0.0580  0.4475
  240MOL0     C31587   7.607   2.089   5.891 -1.5428  0.4753  0.1726
  240MOL0     C31588   7.632   2.209   5.796 -0.3736  0.6655 -0.1730
  240MOL0     C31589   7.552   2.199   5.662 -0.4513 -0.4113  0.4555
  240MOL0     C31590   7.622   2.285   5.556 -0.5716 -0.7697 -0.3718
  240MOL0     C31591   7.559   2.424   5.548  0.0446 -0.3163 -0.7780
  240MOL0    Cl31592   7.678   2.547   5.501  0.4820 -0.0030  0.3809
  240MOL0     C31593   7.917   2.476   6.431 -1.1875  0.6277 -0.1782
  240MOL0     C31594   8.015   2.502   6.528  0.7755  0.5245 -0.7116
  240MOL0     O31595   8.372   2.427   6.520 -0.0079 -0.0023 -0.0200
  240MOL0     C31596   8.389   2.373   6.876  0.2455  0.4643 -0.4826
  240MOL0     C31597   8.495   2.367   6.968  0.5963 -0.2719 -0.1515
  240MOL0     N31598   9.252   2.374   7.246  0.0103 -0.2864 -0.2894
  240MOL0     N31599   9.373   2.365   7.197  0.2515 -0.2704  0.4389
  240MOL0     C31600  10.472   2.008   6.943 -0.0991  0.6601 -0.4877
  240MOL0     C31601  10.588   1.939   6.974  0.1757  0.0903 -0.5099
  240MOL0     C31602  11.056   1.857   6.895 -0.2154  0.3225 -0.3340
  240MOL0     C31603  11.171   1.907   6.954  0.0522  0.0029 -0.4064
  240MOL0     C31604  11.287   1.835   6.962 -0.3749  0.4145  1.1448
  240MOL0     C31605  11.301   1.695   6.919  0.7775  0.4549  0.0620
  240MOL0     O31606  11.400   1.602   6.933  0.0110 -0.0357  0.5326
  240MOL0     C31607  11.514   1.651   6.999  0.4108 -0.4092 -0.6339
  240MOL0     C31608  11.621   1.552   6.960  0.2769 -0.3317 -0.4051
  240MOL0     C31609  11.621   1.418   7.044  0.1521 -0.6939 -0.0402
  240MOL0     C31610  11.759   1.354   7.045 -0.5364  0.0799 -0.3476
  240MOL0     C31611  11.748   1.231   7.126  1.0091 -0.1287  0.1795
  240MOL0     C31612  11.730   1.136   7.192  0.2331  0.0769 -0.7638
  240MOL0     C31613  11.176   1.653   6.855  0.5713  0.1262 -0.3742
  240MOL0     C31614  11.061   1.727   6.862  0.0695 -0.8273  0.2651
  240MOL0     H31615  10.718   1.932   6.669  1.3742 -2.6990  1.4390
  240MOL0     H31616  10.520   2.074   6.619 -3.9093 -0.8929  0.4104
  240MOL0     H31617  10.297   2.244   6.900  0.4073  0.2415  1.3293
  240MOL0     H31618  10.232   2.103   6.959  0.1835 -0.1003  0.7599
  240MOL0     H31619  10.059   2.095   6.764 -0.3381  1.4297 -2.3376
  240MOL0     H31620  10.139   2.237   6.702  1.0602 -2.5142 -1.5446
  240MOL0     H31621  10.051   2.358   6.921  1.7337  0.8505 -2.5766
  240MOL0     H31622   9.994   2.202   6.976 -0.3202  0.4945  0.0746
  240MOL0     H31623   9.909   2.397   6.768 -1.1865  1.0440  1.8054
  240MOL0     H31624   9.860   2.253   6.726 -0.2744  0.4368  0.2288
  240MOL0     H31625   9.705   2.395   6.870  1.6826  1.2218 -1.7912
  240MOL0     H31626   9.796   2.359   7.012 -3.0224 -1.7026  0.6272
  240MOL0     H31627   9.757   2.126   7.014 -3.4601 -0.9836  2.7284
  240MOL0     H31628   9.692   2.125   6.844 -0.2398  0.8641 -0.0700
  240MOL0     H31629   9.515   2.278   6.945 -0.0073 -0.7875 -1.3273
  240MOL0     H31630   9.494   2.106   6.940 -0.8855  1.8017 -1.5402
  240MOL0     H31631   9.605   2.231   7.201  1.7187 -3.9828 -0.7202
  240MOL0     H31632   9.531   2.077   7.171  2.1579 -0.6672  0.1126
  240MOL0     H31633   9.254   2.051   7.182 -0.1617 -1.0457  2.0910
  240MOL0     H31634   9.026   2.246   7.370 -2.1879  0.3651 -0.3700
  240MOL0     H31635   9.028   2.103   7.262 -0.3475 -0.9585  0.8377
  240MOL0     H31636   8.837   2.228   7.208  1.6612 -0.4255  2.8456
  240MOL0     H31637   8.947   2.226   7.072 -2.3041  3.2216 -1.7807
  240MOL0     H31638   8.847   2.459   7.253 -0.3294  0.3882 -0.1029
  240MOL0     H31639   9.010   2.463   7.177 -0.7739  1.0200  0.5763
  240MOL0     H31640   8.890   2.393   6.958  1.6724 -0.8992  1.5773
  240MOL0     H31641   8.845   2.557   7.021 -3.4772 -0.2095 -0.2613
  240MOL0     H31642   8.762   2.494   6.799  1.0142  0.0394  1.3353
  240MOL0     H31643   8.576   2.515   6.622 -0.8634 -0.6016 -0.7090
  240MOL0     H31644   8.175   2.197   6.532 -0.4908 -1.1376  1.2333
  240MOL0     H31645   8.000   2.151   6.369  2.7087 -0.1336 -0.1481
  240MOL0     H31646   7.837   2.126   6.231 -0.6561  0.8414  2.4126
  240MOL0     H31647   7.929   2.254   6.137 -0.6058 -0.0667 -0.0268
  240MOL0     H31648   7.766   2.295   6.004  2.9124 -1.1249 -0.0692
  240MOL0     H31649   7.642   2.264   6.131  0.1692 -0.9778  0.9632
  240MOL0     H31650   7.670   2.015   6.094  0.2260  1.6686  2.1151
  240MOL0     H31651   7.803   2.040   5.982  1.4068  3.5658 -1.1260
  240MOL0     H31652   7.632   1.989   5.853  1.4913  0.7684  1.1411
  240MOL0     H31653   7.503   2.095   5.926 -2.1183  1.4977 -1.6092
  240MOL0     H31654   7.739   2.214   5.773  0.0643 -1.7786  1.0551
  240MOL0     H31655   7.599   2.305   5.837  0.8529  1.2837 -0.5854
  240MOL0     H31656   7.443   2.207   5.659 -0.5087 -1.3158 -1.2346
  240MOL0     H31657   7.571   2.095   5.634  1.4628 -0.6659  2.4155
  240MOL0     H31658   7.731   2.290   5.551 -0.6191  0.9326 -5.9795
  240MOL0     H31659   7.598   2.236   5.461 -0.0606 -0.6455 -0.5659
  240MOL0     H31660   7.543   2.461   5.649  1.7570 -0.0726 -0.5612
  240MOL0     H31661   7.468   2.429   5.487  0.0312  1.7212 -0.6539
  240MOL0     H31662   7.856   2.557   6.393 -2.3408 -1.0592 -2.1146
  240MOL0     H31663   8.013   2.598   6.578  0.9607 -0.9904  2.4515
  240MOL0     H31664   8.294   2.322   6.890  0.0791  1.3179  2.0246
  240MOL0     H31665   8.479   2.332   7.070 -0.0744  0.7029  0.0902
  240MOL0     H31666  10.404   2.011   7.028  3.1811  1.7724  2.3378
  240MOL0     H31667  10.609   1.886   7.067  1.7080 -0.3060 -1.0449
  240MOL0     H31668  11.165   2.013   6.976 -0.1422 -0.0836 -0.0293
  240MOL0     H31669  11.369   1.897   6.997 -0.1769  1.6876 -1.3017
  240MOL0     H31670  11.505   1.670   7.107 -1.6201  3.4172 -1.3058
  240MOL0     H31671  11.536   1.752   6.962  1.6263 -0.4184 -0.0270
  240MOL0     H31672  11.618   1.527   6.853  2.3951 -2.1598 -0.1168
  240MOL0     H31673  11.716   1.598   6.986 -1.1746  2.2227  0.6848
  240MOL0     H31674  11.546   1.350   7.003  0.5847  0.4641 -3.0172
  240MOL0     H31675  11.607   1.436   7.151 -0.4101 -0.3882 -0.1629
  240MOL0     H31676  11.797   1.326   6.946 -1.1074 -1.5623 -0.1276
  240MOL0     H31677  11.834   1.419   7.092 -0.9484 -0.8606  1.6867
  240MOL0     H31678  11.714   1.049   7.253 -2.3255  1.8257  1.2521
  240MOL0     H31679  11.167   1.557   6.806  1.2697  1.0304 -2.3783
  240MOL0     H31680  10.966   1.698   6.818  2.2123 -0.2242 -5.7148
  241MOL0     O31681  10.521   2.400   3.167  0.3567  1.1530  0.0479
  241MOL0     C31682  10.495   2.325   3.261 -0.1789  0.1413  0.1046
  241MOL0     O31683  10.559   2.189   3.272  0.1492 -0.4345 -0.1100
  241MOL0     C31684  10.634   2.143   3.170  0.3643 -0.5513  0.1438
  241MOL0     C31685  10.600   2.139   3.034 -0.4461  0.3869 -0.4646
  241MOL0     C31686  10.670   2.062   2.946 -0.3631  0.1469 -0.8022
  241MOL0     C31687  10.777   1.979   2.990 -0.3522  0.0865 -0.1956
  241MOL0     O31688  10.855   1.896   2.905 -0.5397 -0.6322  0.1053
  241MOL0     C31689  10.778   1.802   2.835  0.4317 -0.0882  0.2570
  241MOL0     C31690  10.747   1.684   2.916 -0.5343 -0.0004 -0.1386
  241MOL0     C31691  10.692   1.575   2.817  0.8944  1.0845  0.1089
  241MOL0     C31692  10.639   1.455   2.895 -0.4574  0.3845 -0.4494
  241MOL0     C31693  10.740   1.353   2.968 -0.5167 -0.1522  1.3503
  241MOL0     C31694  10.820   1.261   2.880  0.5646 -0.2568  0.3529
  241MOL0     C31695  10.910   1.185   2.975  0.7053  0.0214  1.2163
  241MOL0     C31696  10.987   1.083   2.876 -0.3176 -0.4102  0.4525
  241MOL0     N31697  10.897   0.989   2.803  1.0276  1.0263 -0.1205
  241MOL0     C31698  10.807   0.888   2.847  0.1105 -0.3453  0.3913
  241MOL0     C31699  10.754   0.843   2.734 -0.1598 -0.0997 -0.3676
  241MOL0     C31700  10.637   0.744   2.710  0.6643 -0.4568  0.3785
  241MOL0     C31701  10.643   0.624   2.812  0.1300  0.1993 -0.4113
  241MOL0     C31702  10.569   0.490   2.777 -0.1293  0.1804  0.6054
  241MOL0     C31703  10.421   0.506   2.729  0.2203 -0.8619  0.0226
  241MOL0     O31704  10.369   0.372   2.709  0.0037 -0.2150  0.4959
  241MOL0     C31705  10.347   0.340   2.579  0.5049 -0.0493  0.5686
  241MOL0     C31706  10.432   0.329   2.470  0.4580 -0.0490 -0.6966
  241MOL0     C31707  10.396   0.298   2.334 -0.6433 -0.2075  0.4657
  241MOL0     C31708  10.256   0.267   2.311 -0.0806  1.4421 -0.3699
  241MOL0     C31709  10.193   0.250   2.172  0.0003  0.3721 -0.6684
  241MOL0     O31710  10.284   0.277   2.078 -0.0926 -0.5530  0.1344
  241MOL0     C31711  10.229   0.267   1.953 -1.1398 -0.6494 -0.3659
  241MOL0     C31712  10.208   0.375   1.868 -1.1660 -0.4153 -1.0568
  241MOL0     C31713  10.162   0.366   1.736 -1.0698 -0.3521  0.5369
  241MOL0     C31714  10.140   0.238   1.677 -0.7200  0.0862  0.2275
  241MOL0     O31715  10.110   0.231   1.541  0.3455  0.2436  0.3887
  241MOL0     C31716  10.003   0.145   1.511 -0.2986 -0.2553  0.0312
  241MOL0     C31717   9.998   0.128   1.359  0.3142  0.5858 -1.0952
  241MOL0     C31718   9.904   0.014   1.324  0.0930 -0.2184  0.6966
  241MOL0     C31719   9.924  -0.000   1.168  0.9895  0.0498 -0.4409
  241MOL0     C31720   9.795  -0.024   1.081 -0.4628 -0.5190 -0.7504
  241MOL0     C31721   9.729  -0.154   1.116  0.5222 -0.0674 -0.2376
  241MOL0     C31722   9.590  -0.177   1.041  0.0186  0.9972 -0.2737
  241MOL0     C31723   9.485  -0.077   1.084  0.3666 -0.5021  0.1269
  241MOL0    Cl31724   9.492  -0.045   1.263 -0.2543  0.1006  0.3599
  241MOL0     C31725  10.166   0.125   1.761  0.2554  0.4734  0.7673
  241MOL0     C31726  10.216   0.144   1.896  1.0247  0.1384 -0.1442
  241MOL0     O31727  10.068   0.228   2.159  0.5558  0.1486  0.1925
  241MOL0     C31728  10.170   0.275   2.419  0.2051 -0.4334 -0.1514
  241MOL0     C31729  10.206   0.314   2.556  0.2773 -0.7344  0.1934
  241MOL0     N31730  10.812   0.898   2.620  0.3157  0.3935  0.0528
  241MOL0     N31731  10.895   0.980   2.667  0.2162  0.0676 -0.8028
  241MOL0     C31732  10.826   1.999   3.123 -0.0271  0.4791  1.1515
  241MOL0     C31733  10.750   2.076   3.212 -0.7738 -0.5364  0.3040
  241MOL0     C31734  10.411   2.384   3.354  0.0998  0.1181 -0.5217
  241MOL0     C31735  10.421   2.350   3.493 -0.3067  0.1488  0.1318
  241MOL0     C31736  10.323   2.393   3.584  0.7495  0.8456 -0.0261
  241MOL0     C31737  10.215   2.477   3.538 -0.4778 -0.1533 -0.6127
  241MOL0     O31738  10.118   2.505   3.637  0.5880  0.9555  0.8061
  241MOL0     C31739  10.010   2.590   3.609  0.6451 -0.1968 -0.2115
  241MOL0     C31740   9.885   2.521   3.553 -0.2900 -1.0576 -0.3880
  241MOL0     C31741   9.781   2.608   3.467  1.0041  0.1240 -0.5250
  241MOL0     C31742   9.717   2.707   3.565  0.3848 -1.0142  0.5298
  241MOL0     C31743   9.597   2.785   3.520 -1.2628 -0.4628  0.7162
  241MOL0     C31744   9.512   2.864   3.519  0.8504  0.1010  0.1008
  241MOL0     C31745  10.212   2.522   3.408  0.2397 -0.2618  0.1757
  241MOL0     C31746  10.307   2.473   3.315 -0.2138  0.6784 -0.3307
  241MOL0     H31747  10.520   2.207   3.007  2.9409  4.0048 -2.3871
  241MOL0     H31748  10.639   2.055   2.842 -0.6690  4.0720 -1.1020
  241MOL0     H31749  10.849   1.772   2.758  1.4321 -3.1370  2.1317
  241MOL0     H31750  10.689   1.851   2.795  0.2073 -2.2390 -2.0991
  241MOL0     H31751  10.671   1.716   2.987 -0.9312  0.7033 -0.8597
  241MOL0     H31752  10.839   1.664   2.971 -2.1723  1.2357  3.3568
  241MOL0     H31753  10.758   1.539   2.737  2.0566 -1.0812  1.9114
  241MOL0     H31754  10.609   1.626   2.768  2.0901  2.9879 -0.0432
  241MOL0     H31755  10.568   1.485   2.972 -1.0236  1.9863 -1.5426
  241MOL0     H31756  10.590   1.378   2.835 -0.8459 -0.6190  1.1018
  241MOL0     H31757  10.681   1.309   3.049 -1.3466 -0.5972  0.5195
  241MOL0     H31758  10.806   1.420   3.025  0.7712  1.0167 -1.2844
  241MOL0     H31759  10.889   1.311   2.812 -1.6254 -1.5885 -3.0963
  241MOL0     H31760  10.751   1.189   2.835  0.8291 -1.8532  2.3055
  241MOL0     H31761  10.998   1.241   3.009  3.5206 -3.6904  0.6488
  241MOL0     H31762  10.858   1.134   3.056 -1.0701 -0.7595 -0.3357
  241MOL0     H31763  11.049   1.014   2.933  0.8941 -0.2867 -0.6640
  241MOL0     H31764  11.048   1.146   2.811 -1.2347  0.6311  0.5739
  241MOL0     H31765  10.767   0.877   2.947 -1.9510  0.4442 -0.2992
  241MOL0     H31766  10.658   0.716   2.607 -1.6789  2.6772 -1.1405
  241MOL0     H31767  10.538   0.788   2.725  0.6300 -0.1358 -0.7111
  241MOL0     H31768  10.590   0.664   2.899 -0.0688 -1.2618  0.1735
  241MOL0     H31769  10.743   0.583   2.834 -1.3450 -2.7752  1.4218
  241MOL0     H31770  10.627   0.438   2.700  0.3726 -0.4247  1.3653
  241MOL0     H31771  10.572   0.434   2.871 -0.1253 -1.2133 -0.1946
  241MOL0     H31772  10.423   0.562   2.635  3.8112 -0.5117  0.1635
  241MOL0     H31773  10.364   0.555   2.808  2.3918  0.4546  0.8620
  241MOL0     H31774  10.539   0.343   2.482  0.5990 -0.6832 -1.1258
  241MOL0     H31775  10.469   0.292   2.254 -1.2438 -0.8983 -0.0517
  241MOL0     H31776  10.228   0.472   1.913  0.1991 -0.1772 -2.1138
  241MOL0     H31777  10.168   0.456   1.675  0.8496  0.1764  1.4301
  241MOL0     H31778   9.905   0.186   1.538 -1.1364 -2.2493  0.1866
  241MOL0     H31779  10.012   0.050   1.566  0.4496  0.2112  0.7308
  241MOL0     H31780  10.099   0.098   1.329  0.9537 -0.6947  2.0307
  241MOL0     H31781   9.974   0.222   1.309 -1.3278  0.1251 -1.2688
  241MOL0     H31782   9.798   0.037   1.341 -0.1733 -0.1383 -0.9208
  241MOL0     H31783   9.927  -0.079   1.377 -0.0169  1.1103  3.2357
  241MOL0     H31784   9.964   0.098   1.140  1.7284 -0.4841 -1.3347
  241MOL0     H31785   9.998  -0.077   1.144  3.9340  1.7108  2.6078
  241MOL0     H31786   9.833  -0.034   0.979 -1.0158 -0.8784 -0.9282
  241MOL0     H31787   9.728   0.061   1.098 -0.8030 -1.0998  0.9956
  241MOL0     H31788   9.705  -0.173   1.221  1.5668 -4.1663 -0.5568
  241MOL0     H31789   9.796  -0.238   1.095 -1.3730 -2.0198  1.1275
  241MOL0     H31790   9.618  -0.168   0.935  0.7467  0.9407 -0.0937
  241MOL0     H31791   9.548  -0.276   1.061  0.2223  1.2630  1.6139
  241MOL0     H31792   9.382  -0.103   1.060  0.0800 -1.3346  2.0497
  241MOL0     H31793   9.503   0.021   1.040  2.8295 -0.4107  1.1579
  241MOL0     H31794  10.159   0.022   1.726 -0.2370  0.3516  1.2101
  241MOL0     H31795  10.225   0.058   1.961 -0.6142 -0.3566 -0.5291
  241MOL0     H31796  10.065   0.260   2.394  0.8412 -2.2524 -2.0556
  241MOL0     H31797  10.136   0.332   2.637  3.4749  4.6545  2.2708
  241MOL0     H31798  10.923   1.957   3.148 -0.8467 -3.5128 -1.3069
  241MOL0     H31799  10.792   2.083   3.312  0.7680  0.2168 -0.3632
  241MOL0     H31800  10.499   2.283   3.528  0.4157  1.2270  0.6195
  241MOL0     H31801  10.327   2.353   3.685 -1.2911 -0.1654 -0.3077
  241MOL0     H31802  10.040   2.681   3.556 -1.1655 -1.0772 -2.9907
  241MOL0     H31803   9.983   2.631   3.707  0.9787  1.1517 -0.6609
  241MOL0     H31804   9.920   2.451   3.477  1.7407 -1.3616  0.7514
  241MOL0     H31805   9.835   2.473   3.639  2.2843  0.1138  1.9054
  241MOL0     H31806   9.705   2.549   3.414  0.0725  2.0496 -1.4333
  241MOL0     H31807   9.838   2.661   3.390  1.4231 -0.7655 -0.8512
  241MOL0     H31808   9.686   2.670   3.663 -1.1611  3.0534  1.7869
  241MOL0     H31809   9.788   2.782   3.599 -1.5167  0.8786  0.5202
  241MOL0     H31810   9.441   2.944   3.514  0.3096 -0.2883  1.2822
  241MOL0     H31811  10.121   2.574   3.378 -1.4977 -2.3108  1.5350
  241MOL0     H31812  10.311   2.493   3.209 -0.8418 -1.2623 -0.7542
  242MOL0     O31813   1.249   3.550   1.822 -0.1300  0.0136  0.0194
  242MOL0     C31814   1.163   3.549   1.913 -0.6635  0.6628 -0.1178
  242MOL0     O31815   1.075   3.449   1.940 -0.3204  0.1767  0.5681
  242MOL0     C31816   1.040   3.366   1.835 -0.3380 -0.5722 -0.5383
  242MOL0     C31817   1.072   3.233   1.844 -0.4263 -0.3366  0.9992
  242MOL0     C31818   1.022   3.144   1.749 -0.3285  0.8759  0.6564
  242MOL0     C31819   0.944   3.195   1.637 -0.1095  0.9163 -1.0615
  242MOL0     O31820   0.914   3.125   1.529  0.3983 -0.1266  0.7784
  242MOL0     C31821   0.900   2.982   1.543  0.8489 -0.6571 -0.1930
  242MOL0     C31822   0.817   2.919   1.431  1.0677  1.1601 -0.2922
  242MOL0     C31823   0.808   2.762   1.441  0.2222  0.4119 -1.1298
  242MOL0     C31824   0.751   2.706   1.574 -0.0912  0.4193 -0.5202
  242MOL0     C31825   0.694   2.558   1.544  0.5692  0.5686  0.3319
  242MOL0     C31826   0.637   2.484   1.673  0.4125  0.0565  0.1073
  242MOL0     C31827   0.558   2.356   1.640 -0.7118 -0.3151 -0.2371
  242MOL0     C31828   0.644   2.243   1.585 -0.9219 -0.0820  1.0030
  242MOL0     N31829   0.577   2.118   1.584  0.7804 -0.0978  0.0825
  242MOL0     C31830   0.620   2.007   1.654 -0.4471 -0.0772 -0.3688
  242MOL0     C31831   0.514   1.929   1.661 -0.6747 -0.1020  0.3068
  242MOL0     C31832   0.510   1.792   1.732  0.4290 -0.0480  0.0096
  242MOL0     C31833   0.538   1.672   1.638  0.2786  0.2264  0.5962
  242MOL0     C31834   0.438   1.670   1.511 -0.1506 -0.6451  0.0564
  242MOL0     C31835   0.294   1.663   1.538 -0.5505 -0.2489 -0.2749
  242MOL0     O31836   0.273   1.546   1.622 -0.1543 -0.4403  0.2538
  242MOL0     C31837   0.145   1.505   1.642 -0.3641  0.0837  0.1629
  242MOL0     C31838   0.030   1.591   1.641  0.0229  0.0318  0.2718
  242MOL0     C31839  -0.097   1.544   1.672  0.7022  1.0870 -0.4524
  242MOL0     C31840  -0.110   1.403   1.710 -0.3414 -0.5798 -0.2101
  242MOL0     C31841  -0.247   1.337   1.734  0.3901 -0.7667  0.4081
  242MOL0     O31842  -0.276   1.209   1.780  0.6535  0.5266  0.0153
  242MOL0     C31843  -0.385   1.146   1.716  0.8323  0.1923 -0.4667
  242MOL0     C31844  -0.469   1.067   1.797 -0.7212 -0.9321 -0.4695
  242MOL0     C31845  -0.574   0.999   1.736 -0.1925  0.3988  1.0718
  242MOL0     C31846  -0.609   1.003   1.598 -0.3115 -0.3021  0.4061
  242MOL0     O31847  -0.727   0.928   1.567  0.3151  1.0632  0.1547
  242MOL0     C31848  -0.781   0.939   1.435 -0.3648 -0.1027  0.8206
  242MOL0     C31849  -0.931   0.924   1.446 -0.1391  0.1415 -0.8212
  242MOL0     C31850  -0.980   1.041   1.529 -0.8711  0.3712 -0.0164
  242MOL0     C31851  -1.131   1.043   1.517 -0.2284  0.3591  0.4052
  242MOL0     C31852  -1.189   1.168   1.577 -0.3217  1.0007 -0.4104
  242MOL0     C31853  -1.342   1.182   1.594 -0.5937  1.2920 -0.1166
  242MOL0     C31854  -1.390   1.113   1.720 -0.4838 -0.5599  0.3169
  242MOL0     C31855  -1.403   1.222   1.829 -0.1892  0.1907  0.0767
  242MOL0    Cl31856  -1.431   1.139   1.985  0.3908  0.6281 -0.0359
  242MOL0     C31857  -0.525   1.081   1.517 -0.6026 -0.2166  0.0671
  242MOL0     C31858  -0.417   1.155   1.577 -0.4992 -0.2662  0.3665
  242MOL0     O31859  -0.336   1.410   1.694 -0.1824 -0.5438  0.0331
  242MOL0     C31860   0.004   1.324   1.711  0.0827  0.3127  1.0082
  242MOL0     C31861   0.128   1.369   1.671 -0.2233  0.1789 -0.4329
  242MOL0     N31862   0.404   1.981   1.594 -0.7074 -0.8961  0.1119
  242MOL0     N31863   0.451   2.092   1.550  0.5863 -0.1280  0.2265
  242MOL0     C31864   0.908   3.325   1.640 -0.3456 -0.4914  0.2298
  242MOL0     C31865   0.968   3.415   1.730  0.0946 -0.3057  0.3099
  242MOL0     C31866   1.170   3.660   2.011 -0.3850  0.8026  0.2237
  242MOL0     C31867   1.070   3.686   2.103 -0.0023  0.8222  1.4309
  242MOL0     C31868   1.080   3.809   2.172 -0.3510 -0.0284 -0.3669
  242MOL0     C31869   1.188   3.885   2.161  0.1988 -0.2640 -0.1363
  242MOL0     O31870   1.195   4.006   2.235  0.5513 -0.0557 -0.6723
  242MOL0     C31871   1.175   4.008   2.383 -0.0760  0.3743  0.5888
  242MOL0     C31872   1.128   4.141   2.449 -0.0502  0.3722 -0.3434
  242MOL0     C31873   0.973   4.163   2.438 -0.7159 -0.4213  0.7480
  242MOL0     C31874   0.931   4.198   2.292 -0.5481 -1.1682  0.1658
  242MOL0     C31875   0.810   4.126   2.262 -1.3826  0.0356 -0.6967
  242MOL0     C31876   0.710   4.067   2.225 -0.0018 -0.2500  0.0671
  242MOL0     C31877   1.285   3.856   2.079 -0.3532  0.5131  0.0190
  242MOL0     C31878   1.280   3.746   1.999  0.4103 -0.4135  0.8777
  242MOL0     H31879   1.145   3.220   1.924  0.6377  4.6341  1.1831
  242MOL0     H31880   1.076   3.050   1.745  0.2414  1.1622  1.3671
  242MOL0     H31881   0.847   2.963   1.637 -1.1777  0.2756 -1.0790
  242MOL0     H31882   0.998   2.933   1.536  0.3417 -1.6562 -0.4073
  242MOL0     H31883   0.839   2.945   1.327  2.2187 -3.2531 -1.3710
  242MOL0     H31884   0.717   2.961   1.447  2.0525  3.4257  0.3141
  242MOL0     H31885   0.911   2.727   1.431  0.3146 -0.1639  1.2350
  242MOL0     H31886   0.748   2.721   1.360 -1.2772  0.7108 -0.1990
  242MOL0     H31887   0.835   2.695   1.643 -1.2080 -0.9477  0.6745
  242MOL0     H31888   0.674   2.772   1.614 -1.5472  0.0055 -2.4763
  242MOL0     H31889   0.773   2.498   1.498 -2.0076  0.6505 -4.9323
  242MOL0     H31890   0.619   2.578   1.467  0.3292  0.7074  0.6000
  242MOL0     H31891   0.576   2.554   1.730 -0.4785 -0.4603 -0.1936
  242MOL0     H31892   0.728   2.456   1.727  1.0417  2.4185  0.3689
  242MOL0     H31893   0.512   2.315   1.731 -2.3269 -0.5310 -1.1140
  242MOL0     H31894   0.475   2.376   1.572  1.2896  0.6346 -2.5389
  242MOL0     H31895   0.728   2.235   1.655 -0.8311  2.9828  1.3753
  242MOL0     H31896   0.682   2.259   1.484 -0.9124 -1.8363  0.6842
  242MOL0     H31897   0.717   1.989   1.698 -0.8614 -2.3470 -0.2508
  242MOL0     H31898   0.404   1.783   1.757  0.6938 -0.5534  1.0058
  242MOL0     H31899   0.556   1.794   1.831  2.3337  0.8390 -0.8221
  242MOL0     H31900   0.534   1.588   1.709  0.5894  1.4249  2.0812
  242MOL0     H31901   0.638   1.673   1.592  0.3920  1.8976  0.8151
  242MOL0     H31902   0.466   1.757   1.450  0.0755 -1.1138 -0.5259
  242MOL0     H31903   0.468   1.588   1.445  0.4400  0.4663 -1.0997
  242MOL0     H31904   0.236   1.650   1.446 -0.9735  3.9826 -0.7728
  242MOL0     H31905   0.271   1.758   1.585 -1.5799  0.0099 -1.2443
  242MOL0     H31906   0.045   1.694   1.608  2.8902  0.4728  2.5451
  242MOL0     H31907  -0.177   1.614   1.651  1.3465  2.3196  1.0284
  242MOL0     H31908  -0.442   1.065   1.902 -0.4415  3.2891 -0.3053
  242MOL0     H31909  -0.645   0.942   1.795 -1.4437  0.7255 -0.0557
  242MOL0     H31910  -0.739   0.868   1.363 -0.7288  1.5589 -1.1466
  242MOL0     H31911  -0.767   1.040   1.396 -4.9023  0.5444  0.3571
  242MOL0     H31912  -0.949   0.823   1.484  0.5645 -2.1044 -5.6188
  242MOL0     H31913  -0.977   0.933   1.347  3.7386  0.4003 -2.8315
  242MOL0     H31914  -0.927   1.135   1.516  0.2841  0.2159  2.7717
  242MOL0     H31915  -0.948   1.027   1.633  2.1787 -0.0948 -0.9358
  242MOL0     H31916  -1.155   1.042   1.411 -0.7766  1.9333  0.4897
  242MOL0     H31917  -1.173   0.947   1.549  2.3872 -1.2503 -0.7231
  242MOL0     H31918  -1.161   1.245   1.505  0.0872  1.2893  0.0468
  242MOL0     H31919  -1.142   1.196   1.672  1.0717 -0.9504 -0.4693
  242MOL0     H31920  -1.393   1.130   1.512  2.9181 -0.0518 -1.6529
  242MOL0     H31921  -1.365   1.289   1.600  2.2406  1.9600 -0.1703
  242MOL0     H31922  -1.485   1.061   1.704 -2.2338  1.7690  2.3388
  242MOL0     H31923  -1.319   1.039   1.757 -2.3688 -2.5470  0.1656
  242MOL0     H31924  -1.485   1.290   1.805 -0.7793 -0.1977  0.9670
  242MOL0     H31925  -1.311   1.280   1.817  0.1189 -0.6115 -1.9645
  242MOL0     H31926  -0.556   1.093   1.414 -2.1156  2.6549  0.7702
  242MOL0     H31927  -0.361   1.207   1.501 -1.6678  4.2651  2.2592
  242MOL0     H31928   0.006   1.218   1.734  4.6616  0.4660  2.2745
  242MOL0     H31929   0.214   1.303   1.675 -1.0940 -1.1116 -1.8259
  242MOL0     H31930   0.848   3.358   1.556 -1.3705 -1.2611  0.6529
  242MOL0     H31931   0.956   3.521   1.714 -1.8171 -0.4113  0.8073
  242MOL0     H31932   0.984   3.619   2.105 -0.1235  0.9240  0.3491
  242MOL0     H31933   1.000   3.835   2.241 -0.8410  2.6515 -1.8376
  242MOL0     H31934   1.274   3.994   2.427 -0.0746  2.8880  1.5321
  242MOL0     H31935   1.106   3.931   2.418 -0.9403  1.2722  0.8903
  242MOL0     H31936   1.145   4.121   2.555  0.1708 -0.7733 -0.5807
  242MOL0     H31937   1.188   4.224   2.409 -1.1063  0.4373 -1.8777
  242MOL0     H31938   0.969   4.241   2.515  4.0129 -0.5275  1.3608
  242MOL0     H31939   0.932   4.066   2.469  2.6831 -2.1019  0.4405
  242MOL0     H31940   0.913   4.305   2.281 -1.3081 -1.1922  1.1312
  242MOL0     H31941   1.003   4.159   2.219  1.0211  2.1418 -0.2600
  242MOL0     H31942   0.611   4.027   2.227  0.6616 -1.9333  0.5901
  242MOL0     H31943   1.369   3.923   2.069 -0.4818  0.4343 -2.1096
  242MOL0     H31944   1.365   3.720   1.937  0.1744  1.8716 -0.5295
  243MOL0     O31945  10.814   4.917  10.690  0.4441 -0.1046 -0.4115
  243MOL0     C31946  10.813   4.974  10.801  1.0405 -0.2165 -0.0646
  243MOL0     O31947  10.797   4.922  10.925  0.3867 -0.0720  0.6894
  243MOL0     C31948  10.811   4.785  10.942 -0.3887  0.7250 -0.2822
  243MOL0     C31949  10.803   4.683  10.850 -0.8490 -0.7016 -0.4898
  243MOL0     C31950  10.783   4.549  10.888  0.6883 -0.3551  0.9189
  243MOL0     C31951  10.782   4.509  11.017  0.3108  0.1659  0.4648
  243MOL0     O31952  10.776   4.371  11.032  0.3611  0.1236 -0.1870
  243MOL0     C31953  10.785   4.316  11.163 -0.9110 -0.2319 -0.2925
  243MOL0     C31954  10.779   4.163  11.174 -0.2681  0.7399 -0.3721
  243MOL0     C31955  10.877   4.107  11.291  0.0357 -0.0240 -0.7092
  243MOL0     C31956  10.975   4.001  11.252 -0.5423  0.2246 -1.0618
  243MOL0     C31957  11.030   3.927  11.366  0.3378 -0.5200 -0.0633
  243MOL0     C31958  11.075   3.997  11.490 -0.5703 -1.2171  0.6655
  243MOL0     C31959  11.115   3.888  11.594 -0.1779  0.5632  0.1110
  243MOL0     C31960  11.004   3.796  11.647 -0.1360 -0.2715 -0.4933
  243MOL0     N31961  10.918   3.867  11.744  0.1386  0.5809  0.1085
  243MOL0     C31962  10.878   3.825  11.869  0.3044  0.6398 -0.5847
  243MOL0     C31963  10.782   3.909  11.910  0.2533  0.3911  0.3597
  243MOL0     C31964  10.721   3.918  12.049 -0.5468 -0.4305 -0.1446
  243MOL0     C31965  10.819   3.992  12.139  0.3379  0.0514 -0.7804
  243MOL0     C31966  10.828   4.137  12.090 -0.5138 -0.5271  0.0427
  243MOL0     C31967  10.907   4.224  12.187  1.6281 -0.7223 -0.0535
  243MOL0     O31968  10.815   4.227  12.300  0.6201  0.4821  0.1123
  243MOL0     C31969  10.852   4.308  12.399  0.0396  0.3831 -0.2471
  243MOL0     C31970  10.993   4.356  12.413  0.2766 -0.5796 -0.0386
  243MOL0     C31971  11.017   4.455  12.515 -0.5332 -0.2445  0.3154
  243MOL0     C31972  10.914   4.499  12.607 -0.4601  0.0605 -0.4994
  243MOL0     C31973  10.943   4.583  12.726  0.8446 -1.2956 -0.4323
  243MOL0     O31974  10.920   4.722  12.715  0.0593 -0.3070  0.1983
  243MOL0     C31975  10.880   4.780  12.605 -0.3197  0.2194  0.4005
  243MOL0     C31976  10.976   4.827  12.517 -0.4826 -0.2554 -0.3887
  243MOL0     C31977  10.950   4.910  12.412  0.3255 -0.7288  0.4528
  243MOL0     C31978  10.815   4.951  12.399 -0.0475  0.1974 -0.0691
  243MOL0     O31979  10.772   5.046  12.305 -0.5897  0.3606 -0.2212
  243MOL0     C31980  10.874   5.121  12.232  0.2722 -0.3170 -0.0724
  243MOL0     C31981  10.804   5.216  12.131  0.3457  0.1956 -0.4870
  243MOL0     C31982  10.718   5.317  12.205 -0.3524 -0.2519 -0.2566
  243MOL0     C31983  10.638   5.406  12.105  0.2691 -0.0001 -0.2752
  243MOL0     C31984  10.520   5.502  12.171  0.4810 -0.1620 -0.8591
  243MOL0     C31985  10.577   5.598  12.278 -0.3521 -0.5244 -0.2907
  243MOL0     C31986  10.484   5.695  12.334  0.6640  0.7853 -0.2439
  243MOL0     C31987  10.524   5.747  12.473 -0.5323 -0.7693  0.1082
  243MOL0    Cl31988  10.375   5.830  12.528 -0.2615  0.0592  0.2588
  243MOL0     C31989  10.718   4.912  12.495 -0.3830  0.2916  0.3231
  243MOL0     C31990  10.749   4.828  12.594  0.8597  0.8978  0.9781
  243MOL0     O31991  10.964   4.534  12.837  0.7543 -0.3269 -0.6782
  243MOL0     C31992  10.786   4.431  12.598 -0.7452  0.2944  1.6389
  243MOL0     C31993  10.754   4.355  12.484 -0.6474 -0.0455 -0.2621
  243MOL0     N31994  10.757   4.003  11.810 -0.9051  0.7095 -0.9047
  243MOL0     N31995  10.837   3.976  11.710  0.3089 -0.9572 -0.3074
  243MOL0     C31996  10.797   4.610  11.115  1.1746  0.9385 -0.1407
  243MOL0     C31997  10.806   4.745  11.072 -0.3641 -0.4804 -0.7402
  243MOL0     C31998  10.782   5.121  10.808  0.1176 -0.8468  0.1144
  243MOL0     C31999  10.742   5.184  10.686  0.5408 -0.2332 -0.6087
  243MOL0     C32000  10.704   5.314  10.679 -0.9343 -0.6428  0.4848
  243MOL0     C32001  10.689   5.383  10.791  1.2869  0.7360 -0.0978
  243MOL0     O32002  10.655   5.520  10.785  0.2944  0.3953  0.1143
  243MOL0     C32003  10.573   5.575  10.679 -0.3594  1.3277 -0.1506
  243MOL0     C32004  10.499   5.703  10.742  0.2119 -0.3625  0.8543
  243MOL0     C32005  10.377   5.742  10.655  0.2071  0.5056 -0.4486
  243MOL0     C32006  10.412   5.870  10.587  0.5518 -0.4234 -0.8939
  243MOL0     C32007  10.299   5.928  10.511  0.0932 -0.7489 -0.1776
  243MOL0     C32008  10.213   5.997  10.463  0.2068  0.4707 -0.2646
  243MOL0     C32009  10.722   5.332  10.919  0.8482 -0.6761 -0.0784
  243MOL0     C32010  10.771   5.206  10.920 -0.3533  0.7969  0.1881
  243MOL0     H32011  10.811   4.696  10.742  1.0804 -2.4577 -0.6144
  243MOL0     H32012  10.780   4.468  10.817  1.9283 -1.6005  2.2149
  243MOL0     H32013  10.707   4.362  11.225  1.0343  0.2946  1.9395
  243MOL0     H32014  10.881   4.350  11.204 -1.2761  1.5972 -0.8698
  243MOL0     H32015  10.814   4.128  11.076  2.2337  1.3389  0.2268
  243MOL0     H32016  10.677   4.130  11.197 -1.1957  2.7774 -1.3147
  243MOL0     H32017  10.821   4.086  11.382 -0.1514 -0.0731 -0.8362
  243MOL0     H32018  10.936   4.192  11.329  0.5952 -0.3446 -0.8497
  243MOL0     H32019  10.924   3.931  11.185 -0.0087  0.1568 -1.4076
  243MOL0     H32020  11.051   4.051  11.191  0.9644 -1.3204 -0.5436
  243MOL0     H32021  11.113   3.867  11.329 -0.3970 -0.4893 -1.8541
  243MOL0     H32022  10.955   3.857  11.403  1.6973 -1.3230  1.2710
  243MOL0     H32023  10.996   4.066  11.520 -0.9320 -0.4010 -1.9196
  243MOL0     H32024  11.159   4.061  11.460 -0.8566  0.0177  2.3291
  243MOL0     H32025  11.187   3.826  11.540 -1.6307  1.5146 -3.1049
  243MOL0     H32026  11.168   3.933  11.678  1.5596 -1.9848  0.5008
  243MOL0     H32027  11.070   3.721  11.692  2.5240  2.8013  1.2190
  243MOL0     H32028  10.951   3.746  11.566  1.3141 -1.9932 -0.4472
  243MOL0     H32029  10.915   3.743  11.930  0.0718 -0.0821 -1.3938
  243MOL0     H32030  10.711   3.818  12.092  0.3059 -1.3212 -1.9098
  243MOL0     H32031  10.627   3.971  12.070 -1.3581 -2.1510  0.8181
  243MOL0     H32032  10.916   3.942  12.133  0.6583  0.0200  2.6672
  243MOL0     H32033  10.792   3.984  12.245 -0.3216  2.9038 -0.6480
  243MOL0     H32034  10.877   4.135  11.992 -1.5690  3.3901 -0.7551
  243MOL0     H32035  10.733   4.186  12.067 -0.8883 -0.5738  1.4404
  243MOL0     H32036  10.922   4.324  12.147 -1.4414 -0.3604 -0.5792
  243MOL0     H32037  10.999   4.169  12.210  1.9173 -1.6786 -3.0304
  243MOL0     H32038  11.070   4.321  12.345 -0.8246 -6.8933  1.3103
  243MOL0     H32039  11.120   4.487  12.511 -0.9417  0.9945 -2.2416
  243MOL0     H32040  11.078   4.793  12.531  0.0110  0.8397 -1.1049
  243MOL0     H32041  11.022   4.949  12.341  0.1815  2.5690  1.9348
  243MOL0     H32042  10.932   5.044  12.179 -0.5310 -1.1301  0.1866
  243MOL0     H32043  10.937   5.180  12.299 -0.3275  5.3396 -3.8187
  243MOL0     H32044  10.741   5.148  12.073  0.6656 -1.6920  1.2515
  243MOL0     H32045  10.886   5.264  12.077 -1.9062  2.4041 -2.1635
  243MOL0     H32046  10.781   5.374  12.275 -1.2092  0.5387 -0.1124
  243MOL0     H32047  10.636   5.267  12.256 -2.2538  2.3792 -0.5542
  243MOL0     H32048  10.709   5.473  12.056  0.4795  0.3167  0.4488
  243MOL0     H32049  10.578   5.339  12.042  0.3545 -0.3714  0.0391
  243MOL0     H32050  10.440   5.447  12.222  1.2619 -0.6469 -0.1069
  243MOL0     H32051  10.463   5.551  12.092 -0.2007  3.6711  1.7367
  243MOL0     H32052  10.665   5.654  12.244  0.4774 -1.0440  0.9292
  243MOL0     H32053  10.621   5.543  12.362 -2.7920  0.3152  1.6456
  243MOL0     H32054  10.453   5.778  12.270 -0.3987  2.1804  1.9472
  243MOL0     H32055  10.392   5.637  12.340 -0.1354  2.1043  1.0386
  243MOL0     H32056  10.617   5.805  12.463 -1.5196  0.9436  0.4856
  243MOL0     H32057  10.550   5.672  12.548  0.9655 -0.8438 -0.4368
  243MOL0     H32058  10.618   4.944  12.469 -0.2906  0.7008  0.4622
  243MOL0     H32059  10.667   4.810  12.663  0.5922  0.4649  0.5571
  243MOL0     H32060  10.715   4.430  12.679 -1.2379 -1.8119  1.2443
  243MOL0     H32061  10.657   4.306  12.492  0.8252 -3.0514  0.5741
  243MOL0     H32062  10.811   4.591  11.220 -0.2563  0.3023 -0.0371
  243MOL0     H32063  10.798   4.833  11.134 -3.5735  1.0859 -3.0607
  243MOL0     H32064  10.745   5.130  10.592 -2.5254  2.6317 -2.5678
  243MOL0     H32065  10.716   5.364  10.584  1.9789  2.3589  2.2569
  243MOL0     H32066  10.493   5.503  10.659 -1.0624  1.9748  0.2747
  243MOL0     H32067  10.625   5.600  10.586 -0.2266 -1.9139 -1.0592
  243MOL0     H32068  10.462   5.671  10.840  2.6574 -0.8624  1.6778
  243MOL0     H32069  10.579   5.774  10.763  1.5898 -1.0047 -1.7687
  243MOL0     H32070  10.293   5.757  10.724  1.0416  0.3632  0.6149
  243MOL0     H32071  10.356   5.658  10.589  1.0328 -0.4258  0.4476
  243MOL0     H32072  10.433   5.954  10.655 -2.6736  1.7062 -2.2505
  243MOL0     H32073  10.491   5.841  10.518  2.6300 -0.6467  1.4427
  243MOL0     H32074  10.135   6.059  10.424 -0.1442  0.1808 -0.0207
  243MOL0     H32075  10.741   5.390  11.009  1.0915  0.6846 -0.9683
  243MOL0     H32076  10.798   5.167  11.018  3.4486  1.7858 -0.2798
  244MOL0     O32077   9.016  10.946   3.223 -0.2400  0.8467  0.4578
  244MOL0     C32078   8.961  10.892   3.323  0.3353  0.5292  0.1517
  244MOL0     O32079   8.888  10.963   3.421  0.5462  0.3593  0.5104
  244MOL0     C32080   8.861  11.101   3.405  0.2078  0.5282  0.2501
  244MOL0     C32081   8.791  11.147   3.295  0.3978  0.0657  0.4573
  244MOL0     C32082   8.772  11.286   3.280  0.0332  0.5750 -0.5289
  244MOL0     C32083   8.800  11.374   3.386 -0.6985 -0.3371  0.7599
  244MOL0     O32084   8.780  11.504   3.379 -0.6837 -0.2015  0.2940
  244MOL0     C32085   8.762  11.578   3.259  0.3554  0.5424 -0.0260
  244MOL0     C32086   8.782  11.722   3.282 -0.9041 -0.4653  0.2328
  244MOL0     C32087   8.754  11.789   3.141 -0.4729  1.0910 -0.3693
  244MOL0     C32088   8.732  11.930   3.135 -0.8987 -0.1742 -0.0367
  244MOL0     C32089   8.638  11.972   3.022 -1.0443  0.4372  0.6222
  244MOL0     C32090   8.597  12.123   3.046 -0.7802  0.4949 -0.0647
  244MOL0     C32091   8.479  12.127   3.147 -0.1955 -0.1828 -0.7016
  244MOL0     C32092   8.420  12.268   3.174 -0.0623  0.5925  0.4895
  244MOL0     N32093   8.299  12.279   3.088  0.1990  0.1805  0.3862
  244MOL0     C32094   8.277  12.259   2.951  0.1424  0.2789 -0.1949
  244MOL0     C32095   8.147  12.286   2.931 -0.3057  0.8285 -0.5436
  244MOL0     C32096   8.084  12.289   2.797  0.1413  0.1888 -0.8126
  244MOL0     C32097   8.113  12.156   2.716  0.4460  0.4691 -0.2921
  244MOL0     C32098   8.103  12.025   2.791 -0.7484 -0.1877 -0.5841
  244MOL0     C32099   7.964  11.979   2.843 -0.5928 -0.8662 -0.3797
  244MOL0     O32100   7.987  11.839   2.876  0.5845 -0.4602  2.1663
  244MOL0     C32101   7.885  11.772   2.942  0.7141  0.1447  0.6241
  244MOL0     C32102   7.892  11.637   2.965 -0.7065 -0.2805 -0.9285
  244MOL0     C32103   7.797  11.553   3.014  0.2853  0.1303  0.0309
  244MOL0     C32104   7.676  11.615   3.058 -0.4601 -0.1555  0.0207
  244MOL0     C32105   7.581  11.521   3.126 -0.0197  0.0497  0.4265
  244MOL0     O32106   7.594  11.388   3.117 -0.1895 -0.9325 -0.0114
  244MOL0     C32107   7.503  11.311   3.186  0.7735  0.1270 -0.8100
  244MOL0     C32108   7.523  11.283   3.319  0.2747  0.8267  0.5108
  244MOL0     C32109   7.433  11.193   3.379 -0.0505 -0.2851 -0.5616
  244MOL0     C32110   7.327  11.143   3.311 -0.0221  0.5012 -0.3500
  244MOL0     O32111   7.238  11.046   3.351 -0.5284 -0.5945 -0.5500
  244MOL0     C32112   7.208  11.047   3.485  0.6281 -0.3467 -0.6564
  244MOL0     C32113   7.078  10.976   3.511 -0.4862  0.6362 -0.6304
  244MOL0     C32114   6.962  11.009   3.412  0.5059 -0.0842  0.0771
  244MOL0     C32115   6.822  10.980   3.478  0.5890  0.5672  0.2204
  244MOL0     C32116   6.703  11.009   3.379 -0.1948  0.0038  0.0573
  244MOL0     C32117   6.673  10.901   3.271  0.0438 -0.0730 -0.1078
  244MOL0     C32118   6.601  10.776   3.320 -0.7473 -0.1656 -0.2208
  244MOL0     C32119   6.546  10.698   3.195  0.3932  0.1852  0.1150
  244MOL0    Cl32120   6.670  10.586   3.138  0.4519 -0.2417  0.1323
  244MOL0     C32121   7.303  11.180   3.183  1.2957  0.7013 -0.2433
  244MOL0     C32122   7.392  11.266   3.115 -0.2953  0.5801 -0.5725
  244MOL0     O32123   7.493  11.580   3.182  0.6319  0.3325 -0.0769
  244MOL0     C32124   7.658  11.756   3.038  0.7901 -0.2411  0.1922
  244MOL0     C32125   7.763  11.828   2.986 -0.1536 -0.5645  0.7471
  244MOL0     N32126   8.084  12.296   3.054 -0.0798 -0.3301  0.6613
  244MOL0     N32127   8.179  12.305   3.142 -0.0369  0.4860 -0.1854
  244MOL0     C32128   8.877  11.330   3.491 -0.2672  0.1160 -0.2299
  244MOL0     C32129   8.912  11.192   3.502  0.6918  0.3669  0.5234
  244MOL0     C32130   8.962  10.749   3.345  0.2365  0.6783 -0.2246
  244MOL0     C32131   8.947  10.656   3.235  0.7597 -0.1077  0.4338
  244MOL0     C32132   8.926  10.523   3.264  0.1820 -0.9005 -0.3391
  244MOL0     C32133   8.929  10.472   3.398 -0.8587 -0.8653 -0.1945
  244MOL0     O32134   8.906  10.343   3.434  0.0828  0.6214  0.7394
  244MOL0     C32135   8.900  10.240   3.329  0.1950 -0.1967  0.7314
  244MOL0     C32136   9.035  10.208   3.252  0.0809 -0.6671 -0.0127
  244MOL0     C32137   9.017  10.158   3.107 -1.1740  0.3357  0.1025
  244MOL0     C32138   8.928  10.034   3.091  0.1956  0.0579  0.0743
  244MOL0     C32139   8.983   9.899   3.098 -0.5468  0.4833  0.4101
  244MOL0     C32140   9.038   9.791   3.073  0.1785 -0.5383  0.9018
  244MOL0     C32141   8.946  10.568   3.498  0.4042 -0.5197  0.2625
  244MOL0     C32142   8.961  10.705   3.473  0.3048  0.1445  0.7085
  244MOL0     H32143   8.732  11.083   3.230 -0.0505 -0.6299  1.5217
  244MOL0     H32144   8.707  11.328   3.204  1.9578  2.1259 -1.3914
  244MOL0     H32145   8.660  11.558   3.225 -1.4398  0.8657  4.5109
  244MOL0     H32146   8.833  11.539   3.186  2.5229  1.5435  1.4537
  244MOL0     H32147   8.884  11.750   3.311 -1.2356 -0.5856  1.5812
  244MOL0     H32148   8.715  11.753   3.362  0.6794 -1.1220  1.8949
  244MOL0     H32149   8.662  11.747   3.100  0.0333  1.3534 -1.8248
  244MOL0     H32150   8.827  11.752   3.068 -0.3758 -2.4118  1.2923
  244MOL0     H32151   8.685  11.951   3.231 -2.2340  1.6044 -1.0116
  244MOL0     H32152   8.832  11.976   3.129  0.0640 -1.9025  1.7780
  244MOL0     H32153   8.547  11.914   3.008 -0.7591 -0.4738  2.3106
  244MOL0     H32154   8.700  11.969   2.931  0.8326 -1.4737  1.8654
  244MOL0     H32155   8.583  12.156   2.942  1.7499 -0.4306 -0.7882
  244MOL0     H32156   8.680  12.187   3.078 -1.2613  1.0061  0.1813
  244MOL0     H32157   8.397  12.056   3.139  1.5806 -2.8183  2.1932
  244MOL0     H32158   8.521  12.086   3.239 -2.2118  0.3173  0.4938
  244MOL0     H32159   8.489  12.348   3.146 -0.7640  1.0041 -0.1113
  244MOL0     H32160   8.375  12.277   3.274  1.1735  0.0396  1.1121
  244MOL0     H32161   8.345  12.228   2.872  1.1328  0.1576  0.6837
  244MOL0     H32162   8.130  12.369   2.738  3.6734 -1.4797 -0.5738
  244MOL0     H32163   7.976  12.292   2.814 -0.3538 -2.4870 -2.8066
  244MOL0     H32164   8.219  12.169   2.694  0.4521  0.0063 -0.5484
  244MOL0     H32165   8.055  12.154   2.623  0.7302  0.5967 -0.4710
  244MOL0     H32166   8.128  11.944   2.721 -3.5148 -1.7748  0.1262
  244MOL0     H32167   8.164  12.033   2.881  0.7434  0.8564 -1.6280
  244MOL0     H32168   7.881  11.988   2.772 -1.5518 -3.2953  0.3157
  244MOL0     H32169   7.936  12.034   2.933  2.2794 -0.3466  0.2981
  244MOL0     H32170   7.989  11.597   2.936 -0.7675 -1.0583 -0.0848
  244MOL0     H32171   7.824  11.449   3.026  1.1451  0.4640  1.2248
  244MOL0     H32172   7.615  11.319   3.365  3.6705 -4.0549 -1.5556
  244MOL0     H32173   7.466  11.168   3.480  0.7227  3.7558  0.3439
  244MOL0     H32174   7.189  11.146   3.527  0.7980 -1.0161  1.1180
  244MOL0     H32175   7.296  10.992   3.522 -1.0126 -3.2469 -0.7749
  244MOL0     H32176   7.044  10.981   3.615 -6.9131  2.0624 -2.3036
  244MOL0     H32177   7.103  10.871   3.491 -2.9078 -0.3408  1.0008
  244MOL0     H32178   6.984  10.945   3.326  0.7043 -0.8074  0.6463
  244MOL0     H32179   6.975  11.111   3.377  3.5956 -1.2909 -2.8662
  244MOL0     H32180   6.826  10.880   3.520  2.2202 -1.0021 -3.2678
  244MOL0     H32181   6.812  11.042   3.568  2.0711  1.0788  0.0652
  244MOL0     H32182   6.731  11.097   3.320  1.1892 -1.3602 -1.4278
  244MOL0     H32183   6.614  11.040   3.435 -0.0283  1.7808 -0.5820
  244MOL0     H32184   6.769  10.886   3.223 -0.1450  3.1500 -1.7532
  244MOL0     H32185   6.610  10.944   3.193  0.3137  1.1630  0.3217
  244MOL0     H32186   6.672  10.715   3.377  0.3261  0.7730 -0.5041
  244MOL0     H32187   6.524  10.794   3.396  0.9655 -3.3320  2.5674
  244MOL0     H32188   6.530  10.765   3.109  1.7732 -0.7437 -0.9057
  244MOL0     H32189   6.455  10.642   3.220  1.6488 -1.6924  0.6519
  244MOL0     H32190   7.214  11.149   3.129  0.3160  2.3340  0.3327
  244MOL0     H32191   7.388  11.302   3.012  1.2296 -2.5310 -1.8490
  244MOL0     H32192   7.575  11.811   3.081  0.6586 -1.2731  1.2757
  244MOL0     H32193   7.749  11.933   2.965 -2.5936 -0.9706  0.1249
  244MOL0     H32194   8.904  11.395   3.573  1.7796 -1.4420  0.4154
  244MOL0     H32195   8.973  11.159   3.585  0.4603  1.6323  1.2254
  244MOL0     H32196   8.942  10.708   3.140 -0.7379 -0.8720  0.0780
  244MOL0     H32197   8.918  10.457   3.179  2.3180 -0.4756 -0.9203
  244MOL0     H32198   8.833  10.265   3.247  0.8583 -2.0294 -0.4440
  244MOL0     H32199   8.853  10.153   3.376 -1.4088  0.2422  0.0116
  244MOL0     H32200   9.099  10.296   3.267 -2.0662  1.0876 -0.4567
  244MOL0     H32201   9.078  10.131   3.316 -0.5959  1.0613  2.6966
  244MOL0     H32202   9.114  10.149   3.058 -0.1580 -2.4061  2.3376
  244MOL0     H32203   8.976  10.241   3.049 -0.0715 -0.6588 -2.2193
  244MOL0     H32204   8.842  10.036   3.159  0.1578  0.7144  0.0133
  244MOL0     H32205   8.897  10.040   2.986  2.5787  1.7142 -0.6241
  244MOL0     H32206   9.081   9.693   3.060  0.2701 -0.5276  1.1136
  244MOL0     H32207   8.955  10.530   3.599  0.7256  1.1395  0.8903
  244MOL0     H32208   8.991  10.772   3.553  0.4633  2.3165 -1.0602
  245MOL0     O32209  10.174  10.713  11.133 -0.3184  0.5446 -0.5349
  245MOL0     C32210  10.092  10.635  11.159 -0.0744  0.2873 -0.3711
  245MOL0     O32211   9.971  10.664  11.201  0.1785  0.5836  0.4222
  245MOL0     C32212   9.944  10.793  11.229  0.5244 -0.4282  0.9346
  245MOL0     C32213   9.964  10.830  11.356 -0.1294  0.1780 -0.0097
  245MOL0     C32214   9.951  10.961  11.399 -0.1765 -0.5000  0.0168
  245MOL0     C32215   9.914  11.063  11.312 -0.5074  0.7605  0.5596
  245MOL0     O32216   9.910  11.188  11.363 -0.0596  0.1961  1.1768
  245MOL0     C32217   9.853  11.296  11.280 -0.8886 -0.1183 -0.1931
  245MOL0     C32218   9.861  11.437  11.344  0.3568 -0.5269 -1.0398
  245MOL0     C32219   9.821  11.431  11.492  0.7769  0.3637 -0.7017
  245MOL0     C32220   9.864  11.552  11.559 -0.6742 -0.5277  0.2215
  245MOL0     C32221  10.017  11.552  11.606  0.1712  0.5549 -0.9351
  245MOL0     C32222  10.046  11.420  11.690 -0.3400 -1.1324 -0.0963
  245MOL0     C32223   9.940  11.397  11.797  0.2690  0.1070  0.2080
  245MOL0     C32224   9.951  11.487  11.929  0.2838  0.0088  0.0761
  245MOL0     N32225  10.082  11.487  11.989 -0.0231 -0.7322 -0.2871
  245MOL0     C32226  10.173  11.392  12.010 -0.7023 -0.3376 -0.4263
  245MOL0     C32227  10.283  11.453  12.053 -0.6053  0.0400 -0.5456
  245MOL0     C32228  10.407  11.381  12.101 -0.4778  0.3678 -0.3932
  245MOL0     C32229  10.533  11.456  12.056 -0.1386  0.0633  0.7513
  245MOL0     C32230  10.598  11.405  11.924 -0.6763 -0.1779  0.0605
  245MOL0     C32231  10.710  11.492  11.882  0.7373  0.2031  0.3440
  245MOL0     O32232  10.798  11.429  11.785  0.2615 -0.9505 -0.0383
  245MOL0     C32233  10.763  11.460  11.648  0.0597  0.1902 -0.1303
  245MOL0     C32234  10.857  11.540  11.572  0.5026  0.8375  0.0370
  245MOL0     C32235  10.816  11.580  11.442 -0.2200  0.4402  0.0397
  245MOL0     C32236  10.686  11.550  11.387  0.0521 -0.3876  0.3109
  245MOL0     C32237  10.659  11.609  11.246  0.4784  1.1079  0.3593
  245MOL0     O32238  10.758  11.674  11.173  0.0976 -0.7369 -0.6094
  245MOL0     C32239  10.739  11.698  11.040  0.2498  0.0681  0.8795
  245MOL0     C32240  10.704  11.829  11.000  1.1160 -0.6418  0.3032
  245MOL0     C32241  10.700  11.868  10.860  0.9748  0.4759 -1.3267
  245MOL0     C32242  10.730  11.774  10.767 -0.0208 -0.5886  0.3076
  245MOL0     O32243  10.730  11.801  10.633 -0.4538 -0.5958  0.1890
  245MOL0     C32244  10.800  11.720  10.537  0.8215  0.1445  1.0494
  245MOL0     C32245  10.954  11.729  10.546 -0.0651  0.4074 -0.8777
  245MOL0     C32246  11.011  11.867  10.516  0.3200  0.3171 -0.0773
  245MOL0     C32247  10.988  11.986  10.626  0.2301  0.4299 -0.5263
  245MOL0     C32248  11.060  12.122  10.584  0.5380 -0.4540 -0.2603
  245MOL0     C32249  11.063  12.216  10.709  0.4222 -0.1237 -0.6045
  245MOL0     C32250  11.167  12.169  10.817 -0.5960  0.5934  0.5579
  245MOL0     C32251  11.158  12.277  10.928  0.0302 -0.2418 -0.1390
  245MOL0    Cl32252  11.010  12.286  11.004  0.3966 -0.2863  0.1418
  245MOL0     C32253  10.751  11.637  10.814 -0.0634  0.0321 -0.0759
  245MOL0     C32254  10.754  11.603  10.942  0.1160  0.2197 -0.0141
  245MOL0     O32255  10.552  11.573  11.196 -0.4552 -0.0338 -0.4522
  245MOL0     C32256  10.607  11.459  11.449  0.1316  0.7308 -0.8810
  245MOL0     C32257  10.641  11.417  11.583  0.4185 -0.1435  0.3785
  245MOL0     N32258  10.254  11.584  12.066  0.0885  0.4619  0.3458
  245MOL0     N32259  10.135  11.606  12.016 -0.6436 -0.0788 -0.9388
  245MOL0     C32260   9.884  11.028  11.177 -0.3049  0.3780  0.4191
  245MOL0     C32261   9.907  10.897  11.137  0.0041  1.5608  0.4830
  245MOL0     C32262  10.133  10.499  11.176  0.1119 -0.3066  0.3809
  245MOL0     C32263  10.045  10.410  11.237 -1.2574  1.1490 -0.5472
  245MOL0     C32264  10.075  10.266  11.223  0.7969 -0.5381  0.1209
  245MOL0     C32265  10.185  10.218  11.168 -0.1927 -1.2204  0.7483
  245MOL0     O32266  10.230  10.089  11.164  0.0189 -0.0853  0.3439
  245MOL0     C32267  10.140   9.979  11.187  0.9111  0.9220 -0.0263
  245MOL0     C32268  10.196   9.841  11.145  0.2672  0.6991 -0.8122
  245MOL0     C32269  10.105   9.730  11.091 -0.2779 -0.9366  0.7589
  245MOL0     C32270  10.177   9.604  11.049  0.0397  0.7539 -1.5250
  245MOL0     C32271  10.097   9.502  10.980  0.4157 -0.8330  0.0973
  245MOL0     C32272  10.038   9.419  10.915  0.0609 -0.0805 -1.0867
  245MOL0     C32273  10.265  10.313  11.106 -0.1004  0.5732 -0.6940
  245MOL0     C32274  10.241  10.451  11.101  0.1219  0.9732  0.3070
  245MOL0     H32275   9.988  10.748  11.423 -1.5012 -0.1591  0.0858
  245MOL0     H32276   9.972  10.988  11.502 -1.3832  0.8973 -0.0702
  245MOL0     H32277   9.748  11.271  11.267 -1.7102  3.6547 -2.3353
  245MOL0     H32278   9.896  11.306  11.180 -0.8827  1.2153 -0.0772
  245MOL0     H32279   9.809  11.515  11.288 -3.0683 -2.2585 -0.5449
  245MOL0     H32280   9.967  11.456  11.363 -0.2775  3.9178 -0.8774
  245MOL0     H32281   9.846  11.336  11.542 -2.1780  0.7235  1.7662
  245MOL0     H32282   9.712  11.439  11.503  1.1584  1.7710  5.4065
  245MOL0     H32283   9.858  11.630  11.482 -0.4180 -0.0272  0.6947
  245MOL0     H32284   9.813  11.571  11.654  2.1763 -2.5973  2.3583
  245MOL0     H32285  10.037  11.637  11.673  3.0448 -0.1978 -0.7066
  245MOL0     H32286  10.089  11.564  11.524 -0.5484 -0.6531 -1.7721
  245MOL0     H32287  10.142  11.421  11.743 -2.3258  0.0305  3.8337
  245MOL0     H32288  10.056  11.338  11.618 -2.8373  1.8951 -4.3590
  245MOL0     H32289   9.835  11.405  11.767  0.4791 -0.2605 -0.6637
  245MOL0     H32290   9.937  11.290  11.821 -1.4533  0.3901  1.4946
  245MOL0     H32291   9.888  11.434  12.001  0.4397 -2.4319 -1.4719
  245MOL0     H32292   9.923  11.589  11.899 -2.4382 -0.6014  0.2087
  245MOL0     H32293  10.155  11.285  12.000 -4.0228 -0.0199  0.8380
  245MOL0     H32294  10.401  11.278  12.065 -0.8227  0.2563 -0.0240
  245MOL0     H32295  10.416  11.377  12.210  4.2845 -2.8238 -0.5851
  245MOL0     H32296  10.602  11.433  12.137 -1.0198 -2.1442  0.9640
  245MOL0     H32297  10.508  11.561  12.036 -4.9292 -0.6961  1.4523
  245MOL0     H32298  10.635  11.304  11.945 -4.6045 -1.3537  2.2953
  245MOL0     H32299  10.529  11.398  11.840  2.3865  1.0246 -2.7848
  245MOL0     H32300  10.769  11.514  11.971 -0.2359 -1.3499  1.4047
  245MOL0     H32301  10.665  11.576  11.827  0.4708  0.3075  0.7223
  245MOL0     H32302  10.956  11.560  11.611  1.3950  1.6676 -2.4386
  245MOL0     H32303  10.895  11.629  11.387  1.2336 -1.4720  0.3116
  245MOL0     H32304  10.683  11.898  11.081  1.5105 -1.9136  1.5273
  245MOL0     H32305  10.669  11.966  10.825 -0.2942  0.1560 -1.1284
  245MOL0     H32306  10.765  11.749  10.437 -0.3805  2.4571  2.0567
  245MOL0     H32307  10.771  11.615  10.551 -1.1935  0.0994 -2.2671
  245MOL0     H32308  11.000  11.671  10.466 -0.5601  0.8834 -1.5231
  245MOL0     H32309  10.989  11.693  10.644 -2.0145 -5.8652 -2.0437
  245MOL0     H32310  10.969  11.904  10.421  1.2632  2.9093  0.4404
  245MOL0     H32311  11.117  11.846  10.502  0.5030  1.2261 -0.1558
  245MOL0     H32312  10.888  12.028  10.632  1.5043  3.7441 -0.4547
  245MOL0     H32313  11.004  11.948  10.727 -0.3281  0.2554 -0.4984
  245MOL0     H32314  11.004  12.161  10.499  4.3970  0.5207 -2.6246
  245MOL0     H32315  11.161  12.105  10.544  1.1482  2.1041  0.0329
  245MOL0     H32316  10.963  12.222  10.754  0.4347  1.8960 -0.7241
  245MOL0     H32317  11.102  12.313  10.677 -0.2593 -0.2744 -1.9425
  245MOL0     H32318  11.133  12.078  10.868  0.3757  0.9300  1.8778
  245MOL0     H32319  11.268  12.150  10.778 -0.6526 -1.1429  1.1809
  245MOL0     H32320  11.186  12.368  10.874 -2.3282  0.6219 -0.0348
  245MOL0     H32321  11.238  12.258  10.999  0.4291 -1.4459 -0.8631
  245MOL0     H32322  10.762  11.551  10.749  0.8794 -0.0940  0.2376
  245MOL0     H32323  10.777  11.499  10.962 -1.8637 -0.2537  0.0492
  245MOL0     H32324  10.510  11.437  11.406  0.6785 -1.1619 -1.2362
  245MOL0     H32325  10.573  11.352  11.638 -0.5836 -0.8892 -1.6311
  245MOL0     H32326   9.828  11.097  11.115 -1.6079 -0.2981  0.7924
  245MOL0     H32327   9.910  10.872  11.031  1.8305  0.8610  0.6540
  245MOL0     H32328   9.957  10.438  11.294 -0.1283  0.1039  1.8826
  245MOL0     H32329  10.014  10.200  11.285  0.1655  0.0686  0.1483
  245MOL0     H32330  10.047   9.995  11.133  0.1502 -0.6860  0.7247
  245MOL0     H32331  10.113   9.971  11.293 -1.8801  0.5249 -0.7015
  245MOL0     H32332  10.261   9.865  11.059 -0.0943 -0.4283 -1.4163
  245MOL0     H32333  10.265   9.812  11.224  0.5225  1.5713 -0.6996
  245MOL0     H32334  10.058   9.770  11.001  0.6771  1.4876  1.2422
  245MOL0     H32335  10.027   9.706  11.164  1.0782  1.5023  3.1953
  245MOL0     H32336  10.257   9.630  10.979 -0.9647  0.5189 -2.7937
  245MOL0     H32337  10.234   9.570  11.136  0.9743 -1.1142 -2.7888
  245MOL0     H32338  10.001   9.348  10.844  2.1161 -1.6706 -0.6808
  245MOL0     H32339  10.354  10.263  11.068  0.4661 -0.6256  1.9342
  245MOL0     H32340  10.302  10.508  11.032  1.0194 -0.5700 -0.2173
  246MOL0     O32341   6.007   4.517   3.531  0.0544 -0.0730  0.6001
  246MOL0     C32342   6.105   4.565   3.472  0.5978  0.1656  0.8611
  246MOL0     O32343   6.171   4.689   3.501  0.7766 -0.1594 -0.3538
  246MOL0     C32344   6.127   4.755   3.617 -0.4661 -0.0332 -0.0117
  246MOL0     C32345   6.000   4.805   3.626  0.0032  0.3171 -0.2791
  246MOL0     C32346   5.954   4.871   3.742  0.4304  0.4010 -1.4105
  246MOL0     C32347   6.048   4.886   3.856  1.1929 -0.2265  0.6027
  246MOL0     O32348   6.008   4.928   3.984 -0.3538 -0.2181  0.6027
  246MOL0     C32349   5.873   4.976   3.999  0.2978  0.1596  0.5421
  246MOL0     C32350   5.839   5.008   4.149  0.1674 -0.4862 -0.3188
  246MOL0     C32351   5.696   5.069   4.147 -0.0030  0.4104 -0.1258
  246MOL0     C32352   5.629   5.092   4.283 -0.3692  0.4795  0.9299
  246MOL0     C32353   5.487   5.141   4.269  1.1417  0.5212 -0.6224
  246MOL0     C32354   5.454   5.215   4.390 -0.6655 -1.1301 -0.0932
  246MOL0     C32355   5.311   5.243   4.415 -0.5634  0.0542 -1.1635
  246MOL0     C32356   5.234   5.127   4.471 -0.1197  0.1654  0.1499
  246MOL0     N32357   5.099   5.165   4.520 -0.4734 -0.4267  0.2608
  246MOL0     C32358   5.050   5.269   4.597 -0.6775  0.6929  1.2798
  246MOL0     C32359   4.917   5.244   4.613 -0.0499  0.5806  0.9943
  246MOL0     C32360   4.817   5.300   4.702  0.0015  0.4081  0.3634
  246MOL0     C32361   4.738   5.192   4.776 -0.1713 -0.2104  0.0034
  246MOL0     C32362   4.620   5.234   4.865 -0.2357  0.3704 -0.2662
  246MOL0     C32363   4.506   5.265   4.770  0.4089 -0.4030 -1.0936
  246MOL0     O32364   4.404   5.342   4.833  1.0641  0.9444 -0.4416
  246MOL0     C32365   4.299   5.301   4.916 -0.7477  0.2768 -0.3539
  246MOL0     C32366   4.209   5.401   4.970  0.4296  1.3502 -0.3726
  246MOL0     C32367   4.088   5.349   5.031 -0.2059  0.7152 -0.0257
  246MOL0     C32368   4.056   5.213   5.028 -0.0767 -0.6939 -0.7752
  246MOL0     C32369   3.917   5.179   5.060  0.6233  0.9170 -0.2518
  246MOL0     O32370   3.884   5.046   5.064 -0.6539  0.0872  0.9436
  246MOL0     C32371   3.761   5.014   5.103  0.4250 -0.4108  0.3797
  246MOL0     C32372   3.752   4.940   5.227  0.4857  0.3091 -0.5897
  246MOL0     C32373   3.633   4.879   5.261  0.4095 -0.3343 -0.2301
  246MOL0     C32374   3.509   4.889   5.193  0.1802 -0.0107  0.6890
  246MOL0     O32375   3.396   4.831   5.235  0.6461  0.1193  0.0306
  246MOL0     C32376   3.282   4.822   5.148 -0.0654 -0.5507 -0.0205
  246MOL0     C32377   3.166   4.762   5.232 -0.2204  0.5017  0.1532
  246MOL0     C32378   3.052   4.752   5.142  0.1326  0.7271 -0.3592
  246MOL0     C32379   3.039   4.618   5.078 -0.2716  0.8220  0.0246
  246MOL0     C32380   2.911   4.589   5.014 -0.5606 -0.2428  0.2594
  246MOL0     C32381   2.916   4.455   4.931  0.8984 -0.4507 -0.3577
  246MOL0     C32382   3.006   4.445   4.810 -0.1616  0.3695  0.2607
  246MOL0     C32383   2.971   4.327   4.721  0.3519  0.7494  0.3738
  246MOL0    Cl32384   2.824   4.352   4.628  0.6905  0.1719 -0.2980
  246MOL0     C32385   3.525   4.954   5.065 -0.3033  1.5760  0.9048
  246MOL0     C32386   3.649   5.002   5.019  0.8065  0.6161  0.2798
  246MOL0     O32387   3.843   5.257   5.104 -0.1225  0.4106 -0.4562
  246MOL0     C32388   4.151   5.121   4.982 -0.6467 -0.5074 -1.1983
  246MOL0     C32389   4.276   5.162   4.935  0.8946 -0.0321 -0.1029
  246MOL0     N32390   4.882   5.133   4.539 -0.4885  1.0701  1.1871
  246MOL0     N32391   4.992   5.095   4.470  0.4364 -0.5092 -0.8451
  246MOL0     C32392   6.182   4.839   3.843  0.8256  0.3282 -0.7295
  246MOL0     C32393   6.214   4.779   3.722  0.5334 -0.5527  0.4417
  246MOL0     C32394   6.163   4.494   3.358 -0.7614  0.7959  0.3801
  246MOL0     C32395   6.102   4.376   3.311 -0.2220 -0.2951  0.6903
  246MOL0     C32396   6.141   4.315   3.189  0.8712 -0.2622 -0.2973
  246MOL0     C32397   6.247   4.373   3.116 -0.4293 -0.0877  0.2509
  246MOL0     O32398   6.320   4.314   3.015 -0.0411 -0.4780  0.6358
  246MOL0     C32399   6.263   4.187   2.961  0.6837 -0.0035  0.0279
  246MOL0     C32400   6.346   4.119   2.854 -0.3510  0.0430 -1.3423
  246MOL0     C32401   6.299   3.981   2.823 -0.1704  0.6479  0.4370
  246MOL0     C32402   6.368   3.929   2.696  0.1646 -0.1862 -0.0474
  246MOL0     C32403   6.510   3.912   2.715  0.0697  1.0038 -0.4060
  246MOL0     C32404   6.625   3.890   2.743 -0.4981 -0.1432 -0.5210
  246MOL0     C32405   6.307   4.486   3.166 -0.7325  0.9493  0.6186
  246MOL0     C32406   6.264   4.551   3.282 -1.0537  0.9077  1.1439
  246MOL0     H32407   5.940   4.790   3.537  1.8390  0.0819 -1.5443
  246MOL0     H32408   5.851   4.901   3.757  0.4177 -0.8958  1.8935
  246MOL0     H32409   5.797   4.903   3.970 -0.6590 -0.2315  3.6865
  246MOL0     H32410   5.864   5.069   3.942 -0.8036 -0.6493 -0.6785
  246MOL0     H32411   5.903   5.080   4.201  0.6473 -0.9866 -0.2139
  246MOL0     H32412   5.842   4.913   4.203 -1.2808  2.1106  5.0136
  246MOL0     H32413   5.628   5.002   4.094  0.7776  1.1407 -2.1575
  246MOL0     H32414   5.693   5.168   4.102  1.0330  0.1272 -0.8682
  246MOL0     H32415   5.639   4.998   4.339  1.0672  1.2588  2.0516
  246MOL0     H32416   5.695   5.156   4.342  3.2560 -3.6335  1.9217
  246MOL0     H32417   5.430   5.048   4.257  3.0604 -1.0164  1.4731
  246MOL0     H32418   5.473   5.196   4.176  2.7846 -2.3799 -2.7653
  246MOL0     H32419   5.510   5.308   4.377  1.0534 -2.1279 -0.0927
  246MOL0     H32420   5.495   5.177   4.484 -0.2904 -2.0639 -0.6215
  246MOL0     H32421   5.314   5.326   4.486  0.5467  0.0067 -1.1391
  246MOL0     H32422   5.272   5.274   4.318  0.8122 -0.5754 -1.9586
  246MOL0     H32423   5.285   5.094   4.562  0.1616 -2.1366 -0.7968
  246MOL0     H32424   5.230   5.042   4.403 -1.6691  1.3163 -1.2959
  246MOL0     H32425   5.112   5.339   4.652 -1.2324  4.4948 -2.4529
  246MOL0     H32426   4.751   5.356   4.635 -0.5517 -1.5789 -0.8480
  246MOL0     H32427   4.871   5.366   4.771  0.1497  0.5950  0.0699
  246MOL0     H32428   4.809   5.142   4.842  0.5421  2.7067  1.6374
  246MOL0     H32429   4.699   5.124   4.701  3.1078 -0.5780 -1.5206
  246MOL0     H32430   4.603   5.156   4.940 -2.3070 -0.5070 -1.5665
  246MOL0     H32431   4.642   5.323   4.924 -1.2425  0.8010 -0.5205
  246MOL0     H32432   4.468   5.170   4.731  0.5328  0.0081 -2.2664
  246MOL0     H32433   4.547   5.316   4.683  2.6452  0.4118  0.3507
  246MOL0     H32434   4.221   5.509   4.958 -2.1407  1.4194 -4.0351
  246MOL0     H32435   4.007   5.416   5.056 -0.1600  0.8770 -0.2986
  246MOL0     H32436   3.832   4.922   5.298 -0.9461 -0.0136  0.9875
  246MOL0     H32437   3.640   4.829   5.357 -2.4356  1.6786  1.1819
  246MOL0     H32438   3.303   4.762   5.059 -1.0283 -1.4146  0.3160
  246MOL0     H32439   3.252   4.922   5.117  0.1519 -1.3546 -3.2042
  246MOL0     H32440   3.143   4.825   5.319  3.7374  1.1012  0.9688
  246MOL0     H32441   3.189   4.670   5.288  1.9954  0.6371 -0.4534
  246MOL0     H32442   3.037   4.826   5.063 -0.4999  1.0283  0.0293
  246MOL0     H32443   2.966   4.774   5.206  1.4252  1.7261  1.1229
  246MOL0     H32444   3.117   4.611   5.001 -0.2235 -2.8028  0.2270
  246MOL0     H32445   3.073   4.539   5.147  3.0916  0.4042 -1.8714
  246MOL0     H32446   2.866   4.673   4.959  0.5324 -1.9914 -3.6907
  246MOL0     H32447   2.849   4.569   5.101 -1.8536 -0.9305 -0.7721
  246MOL0     H32448   2.817   4.419   4.902 -0.8533 -0.3015  4.5624
  246MOL0     H32449   2.939   4.375   5.001 -0.2823  0.8891  1.6774
  246MOL0     H32450   2.980   4.534   4.751  0.8568 -1.8186 -3.8369
  246MOL0     H32451   3.111   4.450   4.840 -1.2196  4.1659  4.4475
  246MOL0     H32452   2.967   4.230   4.770  1.4609  1.7166  2.5181
  246MOL0     H32453   3.049   4.311   4.645  2.0442  1.0703  1.9743
  246MOL0     H32454   3.440   4.960   4.997  0.9814  1.3714 -0.7707
  246MOL0     H32455   3.649   5.023   4.913  2.2926 -2.4101 -0.4554
  246MOL0     H32456   4.139   5.014   4.987 -4.1975 -0.2506 -1.6017
  246MOL0     H32457   4.335   5.082   4.892  1.1037  0.1675 -0.1948
  246MOL0     H32458   6.252   4.856   3.924 -1.2672  4.4665  0.5020
  246MOL0     H32459   6.313   4.741   3.698  1.1403  0.7796  0.7435
  246MOL0     H32460   6.023   4.326   3.367 -0.2141 -0.3802  0.6262
  246MOL0     H32461   6.094   4.224   3.155  0.0310  0.3115 -0.7220
  246MOL0     H32462   6.165   4.207   2.917  0.6630  0.6324  0.3435
  246MOL0     H32463   6.249   4.119   3.045  0.8923 -0.1563 -0.0623
  246MOL0     H32464   6.337   4.184   2.766 -3.6664  0.0587 -1.1193
  246MOL0     H32465   6.447   4.113   2.895 -1.3825  1.8509  1.7856
  246MOL0     H32466   6.192   3.985   2.800  0.1261 -3.6033 -3.0047
  246MOL0     H32467   6.325   3.915   2.905 -3.1366 -0.0326  0.9609
  246MOL0     H32468   6.324   3.832   2.673  0.0920 -0.4977  1.3089
  246MOL0     H32469   6.355   4.001   2.615  4.0009  2.4684  1.3957
  246MOL0     H32470   6.725   3.859   2.761  0.0292 -0.2543 -3.2189
  246MOL0     H32471   6.398   4.508   3.110 -0.5167 -0.0704  0.5612
  246MOL0     H32472   6.324   4.637   3.311  3.5273 -2.1481  1.5546
  247MOL0     O32473   4.870  11.313  10.792 -0.1860 -0.0101  0.5603
  247MOL0     C32474   4.890  11.285  10.913  0.8706 -0.5882  0.3781
  247MOL0     O32475   4.949  11.173  10.955 -0.4147  0.5315  0.0157
  247MOL0     C32476   5.026  11.095  10.869  0.0836 -1.1114 -0.8015
  247MOL0     C32477   5.112  11.154  10.784  0.0961  0.1876  0.6953
  247MOL0     C32478   5.192  11.082  10.692  0.8660 -0.1187  0.4401
  247MOL0     C32479   5.189  10.941  10.697  0.0802 -0.1211 -0.4938
  247MOL0     O32480   5.272  10.864  10.622  0.3334  0.1045  0.1640
  247MOL0     C32481   5.315  10.912  10.489  0.1727  0.0568 -0.4262
  247MOL0     C32482   5.230  10.849  10.387 -0.0486 -0.3514 -0.4234
  247MOL0     C32483   5.286  10.888  10.249  0.7369  0.0690 -0.1833
  247MOL0     C32484   5.181  10.890  10.136 -1.0726  0.1900  0.2891
  247MOL0     C32485   5.239  10.914   9.994  0.1076 -0.8750 -0.4268
  247MOL0     C32486   5.120  10.942   9.891 -0.1486 -0.0141  0.1081
  247MOL0     C32487   5.180  10.959   9.750 -0.7689  0.0867  0.5291
  247MOL0     C32488   5.220  11.101   9.710 -0.0147  0.3684 -0.9866
  247MOL0     N32489   5.221  11.130   9.569 -0.4170  0.0577 -0.5500
  247MOL0     C32490   5.328  11.164   9.481  0.6067 -0.2892 -0.7749
  247MOL0     C32491   5.271  11.201   9.370  0.4276 -0.5352  0.5936
  247MOL0     C32492   5.349  11.257   9.249  0.4024  0.3981 -0.5915
  247MOL0     C32493   5.419  11.395   9.292  0.0994  0.3637  0.0796
  247MOL0     C32494   5.443  11.494   9.176 -0.2709 -0.5565 -0.7807
  247MOL0     C32495   5.508  11.622   9.227 -1.3226  0.1013  0.4618
  247MOL0     O32496   5.419  11.681   9.319  0.9980 -0.0849 -0.6036
  247MOL0     C32497   5.488  11.759   9.412  0.8291  0.2656  0.6297
  247MOL0     C32498   5.537  11.699   9.523 -0.3335 -0.0003  0.2250
  247MOL0     C32499   5.614  11.780   9.614  0.7535  1.2862  0.9306
  247MOL0     C32500   5.631  11.920   9.586 -0.2375  0.1577 -0.7707
  247MOL0     C32501   5.687  11.996   9.690  1.1075  0.5028 -0.4309
  247MOL0     O32502   5.677  12.127   9.678 -0.2270 -0.5013 -0.5586
  247MOL0     C32503   5.707  12.214   9.780 -0.0395  0.2218 -0.1030
  247MOL0     C32504   5.799  12.316   9.762 -0.2599 -0.5747  0.3457
  247MOL0     C32505   5.822  12.419   9.854  0.1896 -0.0042 -0.3229
  247MOL0     C32506   5.772  12.412   9.983 -0.5202 -0.8418  0.0685
  247MOL0     O32507   5.796  12.504  10.089  0.6257  0.8431  0.8405
  247MOL0     C32508   5.924  12.574  10.076 -0.1543  0.1582 -0.5757
  247MOL0     C32509   5.965  12.640  10.212 -0.2751 -0.7961  1.3006
  247MOL0     C32510   6.015  12.552  10.328  0.5114 -0.3366 -0.2839
  247MOL0     C32511   6.028  12.634  10.459  0.0355 -0.0776 -0.4205
  247MOL0     C32512   6.072  12.559  10.589 -0.3221  0.0668 -0.2065
  247MOL0     C32513   6.226  12.540  10.594 -0.5357  0.4259 -0.6862
  247MOL0     C32514   6.273  12.456  10.713 -0.0249  0.8580 -0.6527
  247MOL0     C32515   6.300  12.307  10.675  0.6070  0.6389 -0.6000
  247MOL0    Cl32516   6.142  12.233  10.616 -0.5775 -0.0176 -0.1600
  247MOL0     C32517   5.689  12.306  10.006  0.5680  0.5339  0.0831
  247MOL0     C32518   5.653  12.211   9.910  1.1067  0.4397  0.1541
  247MOL0     O32519   5.752  11.933   9.776 -1.1543 -0.1580 -0.2226
  247MOL0     C32520   5.567  11.982   9.476  0.4882 -0.1225  0.7771
  247MOL0     C32521   5.505  11.893   9.382 -0.8621  0.5638 -0.4731
  247MOL0     N32522   5.133  11.193   9.391  0.2378 -0.3802 -0.0889
  247MOL0     N32523   5.100  11.153   9.506  0.6565  0.6556 -0.4385
  247MOL0     C32524   5.115  10.882  10.798  0.3853  0.1957 -0.8267
  247MOL0     C32525   5.027  10.959  10.878  0.3772  0.7263  0.0442
  247MOL0     C32526   4.820  11.366  11.020  0.0549 -0.3022 -0.7242
  247MOL0     C32527   4.777  11.498  10.992 -0.7271  0.0107  0.0410
  247MOL0     C32528   4.719  11.578  11.084  0.3694 -0.3116 -0.1848
  247MOL0     C32529   4.691  11.535  11.217  0.2129  0.8525  0.3231
  247MOL0     O32530   4.622  11.609  11.311 -0.2632  0.2993 -0.3882
  247MOL0     C32531   4.692  11.725  11.354  0.7820  0.3131 -0.2527
  247MOL0     C32532   4.598  11.823  11.417 -0.2730 -0.1985  0.2308
  247MOL0     C32533   4.652  11.946  11.490 -0.0616 -0.8905 -0.6916
  247MOL0     C32534   4.547  12.017  11.582 -0.5433  0.0219  0.7830
  247MOL0     C32535   4.552  11.956  11.713  0.6914  0.4237  0.0791
  247MOL0     C32536   4.561  11.921  11.825  0.9298  0.0535 -0.2639
  247MOL0     C32537   4.744  11.408  11.247 -0.0487  0.6748  0.4766
  247MOL0     C32538   4.806  11.326  11.158 -0.8798  0.4664 -0.1192
  247MOL0     H32539   5.110  11.260  10.762 -1.5038  0.3570  1.5312
  247MOL0     H32540   5.253  11.142  10.626 -2.3902 -1.6916 -4.6063
  247MOL0     H32541   5.416  10.873  10.474 -0.3608 -1.7567  0.5000
  247MOL0     H32542   5.310  11.021  10.477  1.5241  0.2320  0.4073
  247MOL0     H32543   5.121  10.857  10.395 -0.2831 -3.0848  0.1229
  247MOL0     H32544   5.246  10.742  10.400  1.2458 -0.0637  0.4521
  247MOL0     H32545   5.369  10.824  10.220 -1.0476 -1.7015 -1.6645
  247MOL0     H32546   5.333  10.987  10.255  4.0324 -1.3965 -0.1000
  247MOL0     H32547   5.128  10.795  10.143 -3.4954  1.0344 -3.5421
  247MOL0     H32548   5.106  10.968  10.153  1.7126  3.1466  0.1918
  247MOL0     H32549   5.307  10.834   9.963  0.5484 -0.7735  0.2633
  247MOL0     H32550   5.284  11.013   9.998 -0.9647 -0.4134  0.9218
  247MOL0     H32551   5.076  11.036   9.927  1.2784  1.6135 -2.0845
  247MOL0     H32552   5.048  10.860   9.898 -0.0868 -0.1015 -0.2634
  247MOL0     H32553   5.273  10.908   9.727  0.8853  3.3280 -0.6514
  247MOL0     H32554   5.108  10.925   9.675  2.2694 -1.6744 -1.7952
  247MOL0     H32555   5.323  11.124   9.740  0.2422  2.6948 -3.3474
  247MOL0     H32556   5.157  11.172   9.764  1.3488  1.0844 -0.2749
  247MOL0     H32557   5.428  11.169   9.521 -1.1401  1.2684  4.1684
  247MOL0     H32558   5.270  11.281   9.177  0.3992 -0.6343 -0.9461
  247MOL0     H32559   5.414  11.185   9.199 -0.7905 -1.4271  0.3320
  247MOL0     H32560   5.515  11.371   9.339 -2.3186 -0.9332  5.0646
  247MOL0     H32561   5.356  11.442   9.367  1.7156 -0.5062  2.0912
  247MOL0     H32562   5.494  11.456   9.086  2.8257 -0.7916  0.9462
  247MOL0     H32563   5.348  11.524   9.131  1.6647  1.2458 -4.1458
  247MOL0     H32564   5.524  11.695   9.147 -0.3326  1.6050  1.9408
  247MOL0     H32565   5.604  11.588   9.268 -2.2142 -0.6899  1.9705
  247MOL0     H32566   5.540  11.592   9.543  1.3228 -0.8195 -3.5402
  247MOL0     H32567   5.651  11.739   9.707  1.0212  0.3838  0.4353
  247MOL0     H32568   5.852  12.325   9.668  1.2515  2.9929  1.3390
  247MOL0     H32569   5.903  12.486   9.826  0.0519  0.4764  0.3797
  247MOL0     H32570   5.921  12.656  10.004 -1.0494 -0.3884 -1.1728
  247MOL0     H32571   6.009  12.507  10.056 -0.2376 -0.3747  0.7711
  247MOL0     H32572   5.883  12.709  10.237 -0.1864  0.4513 -1.4488
  247MOL0     H32573   6.048  12.708  10.195 -0.0998 -0.9197  1.6445
  247MOL0     H32574   6.117  12.524  10.300  1.2965  1.0454  1.0379
  247MOL0     H32575   5.946  12.468  10.344  0.3901  0.0195  1.2742
  247MOL0     H32576   6.105  12.709  10.439  0.7121 -0.1202  1.7436
  247MOL0     H32577   5.935  12.691  10.472  0.6287  0.5914  1.0653
  247MOL0     H32578   6.023  12.461  10.584  0.9534 -0.6456  0.7336
  247MOL0     H32579   6.042  12.603  10.684 -1.2362 -0.3887 -0.2683
  247MOL0     H32580   6.281  12.635  10.590  2.0031 -0.9489 -4.2155
  247MOL0     H32581   6.265  12.492  10.504  2.5678 -1.3140  1.4235
  247MOL0     H32582   6.367  12.494  10.754 -0.7226  1.9944 -0.0561
  247MOL0     H32583   6.202  12.467  10.795  1.2786  0.3007  0.5961
  247MOL0     H32584   6.347  12.255  10.759  0.2188 -1.4886 -1.6473
  247MOL0     H32585   6.373  12.295  10.594 -0.7969 -0.3300 -1.7748
  247MOL0     H32586   5.642  12.287  10.102  0.6903 -0.7019 -0.0888
  247MOL0     H32587   5.591  12.127   9.939  1.6505 -0.1468 -0.3393
  247MOL0     H32588   5.579  12.089   9.461  0.7780 -0.0513  1.4557
  247MOL0     H32589   5.463  11.927   9.288 -1.4218  1.1292 -0.0322
  247MOL0     H32590   5.134  10.777  10.817 -2.2441 -0.0893  0.5948
  247MOL0     H32591   4.970  10.902  10.951 -0.3987 -0.7807 -1.6703
  247MOL0     H32592   4.803  11.532  10.893 -0.0191 -0.8819 -0.0897
  247MOL0     H32593   4.701  11.679  11.049  1.1800 -0.0826  0.0482
  247MOL0     H32594   4.731  11.771  11.262  1.5225 -1.7463 -1.0163
  247MOL0     H32595   4.775  11.705  11.423 -0.3602 -0.0352  1.0679
  247MOL0     H32596   4.533  11.864  11.339  0.5225  2.1563  0.7236
  247MOL0     H32597   4.546  11.765  11.493 -0.8740  0.3568  0.2589
  247MOL0     H32598   4.682  12.012  11.408  0.4108 -2.1999 -1.6059
  247MOL0     H32599   4.743  11.930  11.548 -0.2277  0.5929  0.0193
  247MOL0     H32600   4.576  12.122  11.590  1.8531  0.0443 -4.1225
  247MOL0     H32601   4.447  12.015  11.538 -0.4016  5.3772 -0.3937
  247MOL0     H32602   4.578  11.893  11.928 -0.6391 -0.1063 -0.0284
  247MOL0     H32603   4.736  11.386  11.353  3.3386  2.1938  1.1808
  247MOL0     H32604   4.837  11.236  11.210 -2.4661  1.3186  2.5430
  248MOL0     O32605   8.878   4.879   2.760  0.1289 -0.6837  0.3726
  248MOL0     C32606   8.866   4.993   2.803  0.1331  0.5052 -0.2866
  248MOL0     O32607   8.951   5.091   2.768  0.3671  0.1233 -0.1310
  248MOL0     C32608   9.075   5.060   2.709  0.5450  0.0959 -0.0758
  248MOL0     C32609   9.094   5.061   2.573  0.1596  1.2518 -0.1302
  248MOL0     C32610   9.221   5.028   2.512 -0.3942 -0.0592  0.6078
  248MOL0     C32611   9.324   4.985   2.595  0.2374 -0.1491  0.0533
  248MOL0     O32612   9.450   4.947   2.554 -0.6764 -0.3381 -0.3783
  248MOL0     C32613   9.513   5.010   2.445 -0.5833  0.5285  0.2351
  248MOL0     C32614   9.544   4.892   2.348 -0.0591  0.1423 -0.9668
  248MOL0     C32615   9.608   4.766   2.413  0.5933  0.0606  0.8569
  248MOL0     C32616   9.647   4.661   2.307  0.6297 -0.2594  0.0410
  248MOL0     C32617   9.530   4.619   2.208  0.6113  0.1321 -0.5296
  248MOL0     C32618   9.566   4.507   2.109  0.2423  0.0356  0.0846
  248MOL0     C32619   9.433   4.484   2.034 -0.0639  0.0187  1.1260
  248MOL0     C32620   9.447   4.344   1.962 -0.4235  0.3969 -0.0795
  248MOL0     N32621   9.355   4.318   1.851  0.4533 -0.5998 -0.6758
  248MOL0     C32622   9.221   4.316   1.872  0.3714  0.3263 -0.5526
  248MOL0     C32623   9.172   4.266   1.755 -0.8127  0.4503 -1.2272
  248MOL0     C32624   9.032   4.276   1.709 -0.7966 -0.5577 -0.5946
  248MOL0     C32625   8.937   4.243   1.823  0.2876  0.1564 -0.6349
  248MOL0     C32626   8.781   4.242   1.791 -0.3544 -0.1895  0.2764
  248MOL0     C32627   8.707   4.387   1.802 -0.5954  0.2825 -0.4276
  248MOL0     O32628   8.767   4.475   1.713 -0.7886  0.1165  0.0007
  248MOL0     C32629   8.849   4.578   1.764  0.6415 -0.2261 -0.4092
  248MOL0     C32630   8.905   4.584   1.898  0.4920 -0.4115 -0.1646
  248MOL0     C32631   8.982   4.690   1.936  0.2345  0.0687  0.1390
  248MOL0     C32632   9.018   4.796   1.842  0.1710  0.6347 -1.2535
  248MOL0     C32633   9.094   4.910   1.890  0.3207  0.6683 -0.6970
  248MOL0     O32634   9.125   4.919   2.023 -0.5964  0.4959  1.1856
  248MOL0     C32635   9.195   5.022   2.064  0.2146 -0.2737  0.5510
  248MOL0     C32636   9.333   5.035   2.018  0.0687 -0.1257 -0.4348
  248MOL0     C32637   9.404   5.140   2.075  0.2377 -0.0797 -0.6143
  248MOL0     C32638   9.341   5.222   2.171  0.2401  0.1185  0.3891
  248MOL0     O32639   9.381   5.345   2.227  0.8349 -0.0016 -0.5211
  248MOL0     C32640   9.524   5.351   2.252  0.0772  1.2701 -0.3066
  248MOL0     C32641   9.567   5.452   2.359  0.6581  0.0871 -1.0006
  248MOL0     C32642   9.534   5.416   2.505 -0.2671 -0.6177 -1.1141
  248MOL0     C32643   9.381   5.421   2.525 -0.4537  0.3547 -0.2309
  248MOL0     C32644   9.344   5.396   2.674  0.0871  0.9954  0.5830
  248MOL0     C32645   9.196   5.407   2.699  0.8032 -0.3066  0.0416
  248MOL0     C32646   9.170   5.386   2.845  0.7136 -0.4539 -0.1902
  248MOL0     C32647   9.209   5.513   2.924 -0.4046  0.3307 -0.3816
  248MOL0    Cl32648   9.109   5.512   3.074 -0.5782 -0.2980 -0.1565
  248MOL0     C32649   9.206   5.208   2.206 -1.2851  1.2993 -0.2652
  248MOL0     C32650   9.133   5.101   2.162  0.2527  0.6149 -0.1235
  248MOL0     O32651   9.116   4.999   1.808  0.5870  0.2380  0.1366
  248MOL0     C32652   8.974   4.781   1.709 -0.1010 -0.3353 -0.3453
  248MOL0     C32653   8.885   4.677   1.673  0.3330 -0.0693 -0.0648
  248MOL0     N32654   9.281   4.242   1.666  0.8096  0.3644 -0.8913
  248MOL0     N32655   9.391   4.261   1.730  0.4060  0.0339  0.6032
  248MOL0     C32656   9.296   4.972   2.736 -0.1214  0.9035  0.2391
  248MOL0     C32657   9.179   5.004   2.789  0.3760 -0.0198  0.2037
  248MOL0     C32658   8.755   5.028   2.885 -0.2858  1.2457  0.2838
  248MOL0     C32659   8.745   5.153   2.931  0.2585 -0.9063  0.2085
  248MOL0     C32660   8.645   5.193   3.015 -0.2368  0.6281 -0.5305
  248MOL0     C32661   8.547   5.103   3.055  0.3277 -0.1964 -0.2026
  248MOL0     O32662   8.445   5.146   3.135  0.3530  0.0973  0.0681
  248MOL0     C32663   8.461   5.129   3.278 -0.2655 -0.4982 -0.9023
  248MOL0     C32664   8.333   5.184   3.348 -0.7189 -0.5497 -0.0172
  248MOL0     C32665   8.364   5.189   3.501 -0.5540 -0.0826  0.6627
  248MOL0     C32666   8.399   5.054   3.563 -0.2323 -0.2429  0.4753
  248MOL0     C32667   8.287   4.966   3.543 -0.7607  0.2911 -0.0881
  248MOL0     C32668   8.204   4.893   3.518  0.1297 -0.2087 -0.4314
  248MOL0     C32669   8.553   4.973   3.020  0.3028  0.6407  0.4165
  248MOL0     C32670   8.652   4.941   2.926 -0.3268 -0.2915  0.7000
  248MOL0     H32671   9.021   5.107   2.507 -1.1182  0.2386  0.5431
  248MOL0     H32672   9.218   5.024   2.403 -2.8173  2.0076  0.5035
  248MOL0     H32673   9.611   5.052   2.468  1.7206 -3.2229 -1.8557
  248MOL0     H32674   9.452   5.080   2.387  0.3043  0.3929 -0.8894
  248MOL0     H32675   9.609   4.922   2.265  2.5531  1.9303  1.5529
  248MOL0     H32676   9.448   4.868   2.300  1.0892 -0.7842 -2.9340
  248MOL0     H32677   9.540   4.722   2.487  2.7401 -0.6994  2.4993
  248MOL0     H32678   9.690   4.806   2.473  0.2020  0.5504  1.0762
  248MOL0     H32679   9.726   4.701   2.243  0.5019 -1.2299 -0.7293
  248MOL0     H32680   9.678   4.574   2.365  0.8689 -1.1326 -1.3524
  248MOL0     H32681   9.481   4.700   2.152 -0.5569 -2.5026 -3.6097
  248MOL0     H32682   9.451   4.572   2.267 -1.0107  0.6688 -2.1473
  248MOL0     H32683   9.616   4.426   2.163  0.1838  1.2504  2.0607
  248MOL0     H32684   9.645   4.547   2.046 -0.6181 -0.1828 -1.1646
  248MOL0     H32685   9.350   4.466   2.103 -2.5585  1.1649 -1.4175
  248MOL0     H32686   9.396   4.568   1.976  0.3583  1.0506  2.2942
  248MOL0     H32687   9.435   4.264   2.036 -0.8197  0.4753 -0.0569
  248MOL0     H32688   9.551   4.331   1.929 -0.7961 -2.3500 -0.4178
  248MOL0     H32689   9.149   4.333   1.952 -0.9740 -1.6819 -1.2353
  248MOL0     H32690   9.017   4.197   1.635  1.1775 -1.9913  0.4580
  248MOL0     H32691   9.005   4.371   1.662 -2.5801 -2.5354 -3.9892
  248MOL0     H32692   8.941   4.312   1.908 -1.4427 -0.7463  0.2454
  248MOL0     H32693   8.962   4.144   1.862  1.5822  1.1124  1.1046
  248MOL0     H32694   8.756   4.216   1.688  1.9966  1.9885 -0.9641
  248MOL0     H32695   8.732   4.172   1.859 -0.8746 -0.3875 -0.2944
  248MOL0     H32696   8.708   4.410   1.909 -1.1967 -3.1686  0.4473
  248MOL0     H32697   8.602   4.365   1.780  0.0859 -0.3232 -3.5498
  248MOL0     H32698   8.886   4.508   1.974  0.5658 -1.1104 -0.8305
  248MOL0     H32699   9.027   4.702   2.034 -0.8517  4.4825  0.3001
  248MOL0     H32700   9.374   4.977   1.936 -0.5991  1.8617 -2.2708
  248MOL0     H32701   9.510   5.162   2.062 -0.3039  2.9015 -0.7020
  248MOL0     H32702   9.574   5.355   2.155 -0.0151 -0.3443 -0.4363
  248MOL0     H32703   9.548   5.255   2.299  1.0673  0.2848 -2.6696
  248MOL0     H32704   9.509   5.543   2.340 -1.2122 -0.7663  0.2886
  248MOL0     H32705   9.675   5.467   2.358  0.7626 -0.5752 -0.4746
  248MOL0     H32706   9.578   5.493   2.570 -0.2607 -2.7848  1.5937
  248MOL0     H32707   9.578   5.319   2.529 -1.0741 -0.8169 -0.4331
  248MOL0     H32708   9.354   5.521   2.490 -0.1386 -0.2861 -2.4017
  248MOL0     H32709   9.330   5.348   2.462 -0.6601 -0.5652  0.9450
  248MOL0     H32710   9.394   5.475   2.731 -1.5578  0.5286  2.8255
  248MOL0     H32711   9.388   5.302   2.708  1.7097  0.0134 -3.6338
  248MOL0     H32712   9.147   5.325   2.646  0.6154 -0.3828  0.3313
  248MOL0     H32713   9.159   5.502   2.659 -0.2932 -1.4847 -1.8451
  248MOL0     H32714   9.065   5.363   2.864  0.3870 -1.6994 -3.0052
  248MOL0     H32715   9.234   5.304   2.878  1.4268 -0.2980 -1.1352
  248MOL0     H32716   9.171   5.600   2.869 -2.1303 -1.8122 -2.8465
  248MOL0     H32717   9.318   5.516   2.935  0.1432 -2.9373 -3.2372
  248MOL0     H32718   9.173   5.276   2.284  3.3734  0.8383  2.4791
  248MOL0     H32719   9.035   5.082   2.203  0.9934 -1.5110  0.8073
  248MOL0     H32720   8.991   4.860   1.636 -1.0742  0.0419 -0.1682
  248MOL0     H32721   8.862   4.668   1.567  1.2125  2.0375 -0.4995
  248MOL0     H32722   9.361   4.909   2.795 -1.0075  2.0878  2.6216
  248MOL0     H32723   9.159   4.976   2.892  0.4358  1.1359  0.5465
  248MOL0     H32724   8.823   5.224   2.905  1.3693 -2.7053 -1.7104
  248MOL0     H32725   8.655   5.294   3.054 -0.1648  0.0281  1.0864
  248MOL0     H32726   8.546   5.186   3.316 -1.0648 -0.7056  1.4059
  248MOL0     H32727   8.478   5.026   3.310  3.0971  0.7317  1.9475
  248MOL0     H32728   8.294   5.281   3.315  1.9168  0.7376  0.3810
  248MOL0     H32729   8.253   5.116   3.319 -2.3482  0.3477  2.1332
  248MOL0     H32730   8.277   5.240   3.541  2.8279  4.2980  3.4264
  248MOL0     H32731   8.442   5.262   3.525 -3.5254  3.2676  0.9397
  248MOL0     H32732   8.484   5.006   3.514 -0.2836 -1.0319  1.1368
  248MOL0     H32733   8.430   5.073   3.666  0.2913 -0.7217  0.4104
  248MOL0     H32734   8.111   4.844   3.497  0.5523 -0.5524 -1.5888
  248MOL0     H32735   8.470   4.912   3.056  0.2400  0.9291  0.7647
  248MOL0     H32736   8.658   4.838   2.892 -1.6842 -0.5238  1.1170
  249MOL0     O32737   6.711   4.216  11.386  0.8459  0.2170 -0.2788
  249MOL0     C32738   6.702   4.093  11.401 -0.6844  0.2603  0.0179
  249MOL0     O32739   6.704   4.021  11.524  0.5778 -0.2543  0.2925
  249MOL0     C32740   6.693   4.102  11.636  0.2545 -0.0583 -0.3906
  249MOL0     C32741   6.781   4.224  11.663 -0.1413 -0.0597  0.7506
  249MOL0     C32742   6.779   4.275  11.790  0.2785 -0.7199  0.0828
  249MOL0     C32743   6.708   4.222  11.893 -0.6908 -0.2415  0.3129
  249MOL0     O32744   6.724   4.267  12.023  0.0219  0.0538 -0.2572
  249MOL0     C32745   6.601   4.333  12.072  0.2495  0.4237 -0.2007
  249MOL0     C32746   6.624   4.432  12.195  0.7819 -0.3491 -0.2834
  249MOL0     C32747   6.503   4.505  12.245  0.2869 -0.7326  0.1252
  249MOL0     C32748   6.517   4.591  12.368  0.1004  0.0671 -0.6771
  249MOL0     C32749   6.387   4.667  12.410  0.1426 -0.1038 -0.2171
  249MOL0     C32750   6.423   4.757  12.524  0.7054 -1.0135 -0.8203
  249MOL0     C32751   6.303   4.807  12.603 -0.2996  1.0119 -0.1871
  249MOL0     C32752   6.340   4.918  12.689  0.6251 -0.1061  0.5979
  249MOL0     N32753   6.427   4.886  12.793 -0.5245  1.2728  0.7288
  249MOL0     C32754   6.557   4.928  12.792  0.0294  0.9090 -0.3881
  249MOL0     C32755   6.614   4.880  12.902 -0.4769  0.1542 -0.5547
  249MOL0     C32756   6.748   4.928  12.950 -0.3014  0.2686 -0.7524
  249MOL0     C32757   6.805   4.825  13.038 -0.0534  0.5565 -0.6352
  249MOL0     C32758   6.931   4.858  13.126 -0.2125  0.3750  0.0523
  249MOL0     C32759   6.936   5.004  13.171  0.1278 -0.1527 -0.1526
  249MOL0     O32760   6.971   5.082  13.058 -0.6237 -0.4393  0.2106
  249MOL0     C32761   7.093   5.056  13.005  0.8356 -1.2767  0.4102
  249MOL0     C32762   7.205   5.069  13.090  0.0450  0.6472 -0.3599
  249MOL0     C32763   7.331   5.037  13.040 -0.2529 -0.0451 -0.1977
  249MOL0     C32764   7.351   5.018  12.899 -0.5600 -0.5230  0.1330
  249MOL0     C32765   7.494   5.001  12.851  0.7985 -0.0310  0.2112
  249MOL0     O32766   7.516   4.993  12.718 -0.8751  0.5561 -0.0283
  249MOL0     C32767   7.639   4.940  12.674 -1.1483  0.0855  0.1792
  249MOL0     C32768   7.695   4.816  12.710  0.4793  0.2810 -0.5861
  249MOL0     C32769   7.809   4.771  12.651 -0.3342 -0.7335  0.3888
  249MOL0     C32770   7.887   4.854  12.563  0.0833  0.1858 -0.6225
  249MOL0     O32771   8.007   4.788  12.532 -0.5447  0.4194 -0.2866
  249MOL0     C32772   8.099   4.875  12.459  0.2689  0.2823 -0.7481
  249MOL0     C32773   8.236   4.807  12.441  0.4902  0.9748 -0.0812
  249MOL0     C32774   8.312   4.868  12.313  0.1350  0.1810 -0.2118
  249MOL0     C32775   8.457   4.820  12.285  0.0587 -0.5008  0.0717
  249MOL0     C32776   8.490   4.848  12.136  0.3766  0.3448  0.1402
  249MOL0     C32777   8.516   4.995  12.110  0.2756 -0.7207 -0.5226
  249MOL0     C32778   8.515   5.034  11.964 -0.9001 -0.1093 -1.0407
  249MOL0     C32779   8.643   4.975  11.913 -0.0303 -0.1020  0.3886
  249MOL0    Cl32780   8.665   5.044  11.743  0.2623  0.0231 -0.0993
  249MOL0     C32781   7.842   4.979  12.534 -0.6507 -0.3900 -0.7277
  249MOL0     C32782   7.717   5.026  12.581  0.0281  0.0380 -0.5097
  249MOL0     O32783   7.577   5.003  12.940 -0.4283 -1.0819 -0.2326
  249MOL0     C32784   7.240   5.008  12.813 -0.0973  0.3179 -0.1711
  249MOL0     C32785   7.109   5.026  12.862  0.0709  0.7766 -0.7516
  249MOL0     N32786   6.511   4.803  12.969  0.0131 -0.5643 -0.9961
  249MOL0     N32787   6.403   4.810  12.904 -0.5177  0.3229  0.1999
  249MOL0     C32788   6.631   4.108  11.874 -0.9644 -0.6579 -0.0043
  249MOL0     C32789   6.628   4.053  11.748  0.2404  0.3280  0.2030
  249MOL0     C32790   6.696   4.022  11.283  0.5434  0.0239 -0.3743
  249MOL0     C32791   6.747   3.896  11.271  0.4431 -0.5378  0.4930
  249MOL0     C32792   6.743   3.834  11.146 -0.8851 -0.2737 -0.0606
  249MOL0     C32793   6.684   3.890  11.030  0.2109 -0.0341  0.3042
  249MOL0     O32794   6.693   3.817  10.911 -0.5859 -0.0317  0.9665
  249MOL0     C32795   6.645   3.876  10.796  0.3751  0.4576 -0.1179
  249MOL0     C32796   6.501   3.838  10.788  0.0865 -0.9082 -0.1197
  249MOL0     C32797   6.449   3.692  10.784  0.5245 -0.2774 -1.3602
  249MOL0     C32798   6.504   3.608  10.669 -1.1361 -0.1664 -0.5134
  249MOL0     C32799   6.439   3.631  10.543 -0.7139 -0.0775  0.2267
  249MOL0     C32800   6.412   3.662  10.426 -1.0062  0.5244 -0.7269
  249MOL0     C32801   6.637   4.025  11.048  0.4397  0.0994 -0.2112
  249MOL0     C32802   6.640   4.090  11.171  0.0804 -0.7129 -0.6788
  249MOL0     H32803   6.850   4.259  11.587 -2.6891  2.6635 -0.5579
  249MOL0     H32804   6.844   4.357  11.820 -1.8765  0.5891  1.5189
  249MOL0     H32805   6.533   4.252  12.102 -1.6484  0.4419 -3.8397
  249MOL0     H32806   6.546   4.379  11.989 -3.0046 -4.1667 -0.9738
  249MOL0     H32807   6.697   4.506  12.161  0.2162  1.1943  1.6741
  249MOL0     H32808   6.663   4.376  12.280 -0.4876  0.7681  1.0835
  249MOL0     H32809   6.420   4.433  12.250 -0.5437  0.2834  1.7115
  249MOL0     H32810   6.468   4.573  12.167  0.6798 -1.2637 -0.5308
  249MOL0     H32811   6.546   4.534  12.456 -0.9155  0.9741  0.2669
  249MOL0     H32812   6.594   4.664  12.345  0.5343 -0.3213 -0.4659
  249MOL0     H32813   6.299   4.606  12.433  0.7333 -0.9432 -0.1292
  249MOL0     H32814   6.353   4.729  12.326  0.3940  0.9836  0.4630
  249MOL0     H32815   6.479   4.835  12.472 -0.0429 -2.2288 -3.6944
  249MOL0     H32816   6.492   4.703  12.590  1.6851  1.1390 -0.0150
  249MOL0     H32817   6.223   4.840  12.535 -0.2197  0.3993 -0.5818
  249MOL0     H32818   6.274   4.714  12.652  2.8097 -1.5953 -2.8474
  249MOL0     H32819   6.243   4.955  12.723  0.0099  2.0741 -3.0178
  249MOL0     H32820   6.385   4.983  12.614 -1.6843 -1.0446 -1.7368
  249MOL0     H32821   6.610   4.989  12.720  1.6263 -0.5362 -0.4949
  249MOL0     H32822   6.732   5.021  13.005  0.3114  1.3636 -2.3792
  249MOL0     H32823   6.816   4.960  12.871  3.6169 -2.9842  0.9205
  249MOL0     H32824   6.825   4.738  12.975 -1.3126  0.1086 -0.4338
  249MOL0     H32825   6.722   4.789  13.099  1.1268 -3.1785 -0.9937
  249MOL0     H32826   6.927   4.800  13.218  3.4639  0.2422  0.2589
  249MOL0     H32827   7.025   4.826  13.081 -0.4326 -0.0421 -0.1111
  249MOL0     H32828   7.004   5.018  13.256  0.0352 -3.2063  0.5302
  249MOL0     H32829   6.835   5.030  13.204 -1.7508 -2.6183 -3.2851
  249MOL0     H32830   7.199   5.093  13.195  1.5634 -1.1224  0.1890
  249MOL0     H32831   7.413   5.029  13.111 -1.2154 -3.7337  0.7275
  249MOL0     H32832   7.643   4.750  12.778  0.0814  0.9995 -0.1856
  249MOL0     H32833   7.853   4.674  12.671  1.4769 -0.0870 -0.2068
  249MOL0     H32834   8.115   4.965  12.519 -0.2062 -2.2977  3.7213
  249MOL0     H32835   8.061   4.902  12.361  0.7360  1.3258 -0.6597
  249MOL0     H32836   8.216   4.700  12.428  3.2136  0.4917 -1.0784
  249MOL0     H32837   8.295   4.812  12.533  1.0445  0.1044 -0.3786
  249MOL0     H32838   8.309   4.976  12.331 -1.8112 -0.1860  2.3011
  249MOL0     H32839   8.250   4.842  12.226  1.3021 -5.1806  0.2191
  249MOL0     H32840   8.516   4.884  12.352 -0.5170  1.5183 -1.2748
  249MOL0     H32841   8.456   4.712  12.298  1.8132 -0.8407 -2.1005
  249MOL0     H32842   8.409   4.821  12.067  4.2814 -0.3689 -4.7690
  249MOL0     H32843   8.581   4.793  12.112  1.3150  1.0048  1.9612
  249MOL0     H32844   8.604   5.025  12.168 -1.0551 -1.2069  1.8501
  249MOL0     H32845   8.434   5.048  12.159 -1.0062 -1.9823 -1.2459
  249MOL0     H32846   8.427   4.986  11.920  0.1921 -0.7754 -2.6052
  249MOL0     H32847   8.505   5.143  11.958 -1.1215  0.0462  1.3489
  249MOL0     H32848   8.643   4.865  11.909  2.1980 -0.1086 -0.7198
  249MOL0     H32849   8.733   5.018  11.955  0.2037  3.2716 -3.0561
  249MOL0     H32850   7.890   5.039  12.456  2.0023 -1.1778  0.1877
  249MOL0     H32851   7.668   5.122  12.565  3.4487  2.5407  2.4154
  249MOL0     H32852   7.242   5.007  12.705 -0.8912  4.5188 -0.3879
  249MOL0     H32853   7.032   5.027  12.786  1.9844 -1.3980 -2.8804
  249MOL0     H32854   6.590   4.063  11.965  0.7633  2.1085  2.3147
  249MOL0     H32855   6.564   3.967  11.728  0.3272 -0.4338  2.8269
  249MOL0     H32856   6.809   3.865  11.354 -2.1475 -2.3704  1.8938
  249MOL0     H32857   6.779   3.733  11.159 -2.1118 -0.7990 -0.5271
  249MOL0     H32858   6.700   3.841  10.708  0.0066 -1.2182  0.2712
  249MOL0     H32859   6.649   3.984  10.808  0.6845  0.2707  1.7471
  249MOL0     H32860   6.463   3.879  10.882  5.3031  5.4606 -0.0179
  249MOL0     H32861   6.452   3.880  10.700 -1.2512 -4.1848 -1.1112
  249MOL0     H32862   6.340   3.704  10.782  0.2505 -0.6830  3.0112
  249MOL0     H32863   6.474   3.649  10.881 -1.7559 -0.4772 -0.8128
  249MOL0     H32864   6.611   3.630  10.661 -0.8981 -1.7646 -2.6639
  249MOL0     H32865   6.494   3.502  10.692 -0.9851 -1.5618 -5.7562
  249MOL0     H32866   6.387   3.711  10.333 -0.0479  1.7662 -0.3578
  249MOL0     H32867   6.594   4.098  10.980  1.1647  4.1270  3.2091
  249MOL0     H32868   6.610   4.193  11.184 -1.5079 -1.3391  1.0776
  250MOL0     O32869   8.760   4.279  10.755  0.4894 -0.2129 -0.3780
  250MOL0     C32870   8.849   4.224  10.821  1.1372  0.5151 -0.1320
  250MOL0     O32871   8.949   4.150  10.773  0.1991  0.2094  0.8801
  250MOL0     C32872   8.922   4.049  10.675  0.0391 -0.2342  0.4762
  250MOL0     C32873   8.793   4.011  10.639 -0.0200  0.2087 -0.0866
  250MOL0     C32874   8.767   3.931  10.528 -0.0415  0.5144  0.0183
  250MOL0     C32875   8.881   3.872  10.466 -0.7300  0.0318  0.6935
  250MOL0     O32876   8.887   3.784  10.352  0.7164 -0.1291 -0.3079
  250MOL0     C32877   8.758   3.742  10.291 -0.1362 -0.5933  1.4604
  250MOL0     C32878   8.660   3.651  10.366  0.5875 -0.0503 -0.2408
  250MOL0     C32879   8.740   3.522  10.392  0.2181 -0.0950 -0.4152
  250MOL0     C32880   8.812   3.534  10.521  0.4228  0.7012 -0.1166
  250MOL0     C32881   8.873   3.409  10.587  0.6464  0.7951 -0.0870
  250MOL0     C32882   8.956   3.452  10.719  0.2344  0.1298  0.5682
  250MOL0     C32883   8.880   3.533  10.826 -0.2168  0.1337 -0.3063
  250MOL0     C32884   8.758   3.458  10.879  0.3230 -0.2058 -1.4344
  250MOL0     N32885   8.773   3.335  10.965  0.0977 -0.8080  0.5722
  250MOL0     C32886   8.822   3.207  10.939  1.2209  0.0346 -1.2061
  250MOL0     C32887   8.803   3.131  11.054 -0.6619  0.4078  0.0247
  250MOL0     C32888   8.854   2.996  11.087  0.5693 -0.1300 -0.2990
  250MOL0     C32889   8.844   2.960  11.237 -0.6724 -0.3093 -0.2902
  250MOL0     C32890   8.915   2.840  11.285  1.0726  0.2626 -0.2906
  250MOL0     C32891   8.863   2.805  11.425  0.4803 -0.1399  0.9546
  250MOL0     O32892   8.952   2.707  11.480  0.5384  0.3201  0.1175
  250MOL0     C32893   8.903   2.574  11.489  0.1447 -0.5354  1.3706
  250MOL0     C32894   8.964   2.495  11.578 -0.6771 -0.1384 -0.4239
  250MOL0     C32895   8.938   2.363  11.598  0.5968  0.1544 -0.2287
  250MOL0     C32896   8.834   2.296  11.523  1.2665  0.2306  0.0753
  250MOL0     C32897   8.802   2.147  11.550  0.7239 -0.6983  0.8732
  250MOL0     O32898   8.714   2.085  11.471  0.0077  0.0886  0.3451
  250MOL0     C32899   8.662   1.965  11.484 -0.3494 -0.2712 -0.4019
  250MOL0     C32900   8.717   1.860  11.563 -0.4296 -0.2837 -0.5440
  250MOL0     C32901   8.652   1.732  11.559 -0.1351  0.5915 -0.1039
  250MOL0     C32902   8.550   1.710  11.468  0.1617  0.2066  0.8265
  250MOL0     O32903   8.486   1.590  11.459 -0.0344  0.5310  0.7525
  250MOL0     C32904   8.394   1.549  11.349 -0.4926 -0.3110  0.3665
  250MOL0     C32905   8.394   1.395  11.333 -0.8422  0.2472 -0.5514
  250MOL0     C32906   8.522   1.331  11.286  0.1969  0.9573  0.0142
  250MOL0     C32907   8.642   1.367  11.362 -0.1352  0.5522  0.4929
  250MOL0     C32908   8.763   1.271  11.336 -0.4776 -0.5332 -0.2218
  250MOL0     C32909   8.900   1.348  11.318  0.9445  0.7908  0.6213
  250MOL0     C32910   8.961   1.379  11.448 -0.7254 -0.0395 -0.2338
  250MOL0     C32911   9.094   1.466  11.437  0.8943 -0.4890 -0.8030
  250MOL0    Cl32912   9.210   1.371  11.349  0.2534  0.1620  0.3771
  250MOL0     C32913   8.504   1.819  11.391  0.9133 -0.7236  0.8236
  250MOL0     C32914   8.563   1.946  11.400  0.5532 -0.5039 -0.2918
  250MOL0     O32915   8.845   2.114  11.656 -0.3259  0.4111 -0.6148
  250MOL0     C32916   8.764   2.378  11.432 -0.2336 -0.0418  1.0490
  250MOL0     C32917   8.807   2.509  11.409 -0.5531 -0.1382  0.1958
  250MOL0     N32918   8.753   3.225  11.143  0.4678  0.0986 -0.7145
  250MOL0     N32919   8.738   3.339  11.090  0.2137 -0.3744 -0.2464
  250MOL0     C32920   9.013   3.908  10.508 -0.0562  0.9741  0.0704
  250MOL0     C32921   9.035   3.989  10.613 -0.6759  0.0560 -0.3306
  250MOL0     C32922   8.868   4.255  10.960  0.1397  0.2237 -0.1409
  250MOL0     C32923   8.912   4.159  11.050 -0.2664 -0.1630 -0.2028
  250MOL0     C32924   8.901   4.183  11.191 -0.0014  0.2644 -0.4590
  250MOL0     C32925   8.864   4.308  11.242 -0.9344  0.4994  0.6853
  250MOL0     O32926   8.859   4.337  11.374  0.5806 -0.7577  0.5660
  250MOL0     C32927   8.912   4.267  11.483  0.8578  0.9163  0.4049
  250MOL0     C32928   8.787   4.228  11.565 -0.3818 -0.0560  1.2220
  250MOL0     C32929   8.731   4.096  11.508  0.0721 -0.3802 -0.0865
  250MOL0     C32930   8.592   4.124  11.443 -0.2092 -0.4967  0.0902
  250MOL0     C32931   8.519   4.000  11.417 -0.9711 -0.7129 -1.5774
  250MOL0     C32932   8.471   3.897  11.389 -0.8241  0.1745  1.0508
  250MOL0     C32933   8.827   4.404  11.153 -0.1620 -0.8403  0.3881
  250MOL0     C32934   8.828   4.375  11.018  0.5468 -0.8979 -0.1519
  250MOL0     H32935   8.705   4.068  10.668  0.5140  0.4183  1.1499
  250MOL0     H32936   8.667   3.912  10.491 -1.6485  4.4121  1.7818
  250MOL0     H32937   8.787   3.705  10.192 -0.1650 -0.6619  1.4780
  250MOL0     H32938   8.700   3.830  10.261  1.0108 -0.9501 -2.3242
  250MOL0     H32939   8.580   3.621  10.297  0.0198 -1.4138  0.9625
  250MOL0     H32940   8.611   3.696  10.453  0.8025  2.5926 -1.3834
  250MOL0     H32941   8.813   3.501  10.313 -0.4004 -0.0633 -1.0101
  250MOL0     H32942   8.669   3.440  10.395  0.8858 -0.7134 -0.9998
  250MOL0     H32943   8.895   3.602  10.501 -1.9131  4.0285  0.6028
  250MOL0     H32944   8.747   3.581  10.595  0.3499 -1.3558  1.2145
  250MOL0     H32945   8.933   3.351  10.517  1.4021 -1.3577  2.1679
  250MOL0     H32946   8.795   3.335  10.610  0.5475  1.0371  0.3928
  250MOL0     H32947   9.041   3.514  10.691  0.8918 -0.9718  0.0823
  250MOL0     H32948   8.993   3.359  10.762  0.9464 -0.8731 -2.0656
  250MOL0     H32949   8.947   3.564  10.907  0.8975 -0.7521 -0.8557
  250MOL0     H32950   8.859   3.627  10.773 -0.8998  0.3906  0.4078
  250MOL0     H32951   8.695   3.436  10.792 -1.7290 -0.1674 -0.0182
  250MOL0     H32952   8.700   3.523  10.945  0.9623  0.1958 -1.2588
  250MOL0     H32953   8.857   3.175  10.841  3.5805  0.6431 -0.6423
  250MOL0     H32954   8.957   2.982  11.051  0.6798 -2.1323  0.6802
  250MOL0     H32955   8.785   2.929  11.034 -2.1254  1.9488  0.3827
  250MOL0     H32956   8.737   2.960  11.262 -0.5384  0.4531  0.2949
  250MOL0     H32957   8.886   3.039  11.299  1.8384 -0.6520 -1.4481
  250MOL0     H32958   8.921   2.760  11.211  4.4509  0.4162 -0.3447
  250MOL0     H32959   9.021   2.866  11.300  1.6994 -0.4627 -2.9425
  250MOL0     H32960   8.759   2.769  11.425 -0.0535  1.3527  0.5104
  250MOL0     H32961   8.866   2.897  11.483 -1.0323  2.3298 -2.5702
  250MOL0     H32962   9.047   2.545  11.627 -1.4129  1.3345 -0.6068
  250MOL0     H32963   8.998   2.303  11.667  1.0556  0.9551  0.0825
  250MOL0     H32964   8.796   1.869  11.636 -1.8021  2.0487  0.7832
  250MOL0     H32965   8.692   1.641  11.604 -0.1450 -0.1936 -1.6430
  250MOL0     H32966   8.410   1.579  11.245 -2.3831 -2.5001 -0.6335
  250MOL0     H32967   8.289   1.576  11.369 -0.3875  1.3653 -1.0875
  250MOL0     H32968   8.322   1.359  11.259  2.1921 -3.9288 -1.8380
  250MOL0     H32969   8.359   1.351  11.428 -1.0981  1.3944 -0.1013
  250MOL0     H32970   8.538   1.327  11.178  2.0233 -1.6779  0.2827
  250MOL0     H32971   8.503   1.230  11.324 -1.9078  1.0784 -0.5938
  250MOL0     H32972   8.680   1.463  11.326 -2.5780  2.4580  2.6422
  250MOL0     H32973   8.625   1.356  11.470  2.0385 -0.0273  0.8278
  250MOL0     H32974   8.748   1.215  11.243 -0.6561 -1.1276  0.1651
  250MOL0     H32975   8.772   1.205  11.422 -0.6669  2.8179  2.5971
  250MOL0     H32976   8.906   1.446  11.270  0.6362  0.1396 -0.8063
  250MOL0     H32977   8.965   1.287  11.255 -1.2011 -1.1089  0.1124
  250MOL0     H32978   8.890   1.430  11.513 -0.2954 -0.6955  0.7649
  250MOL0     H32979   8.972   1.281  11.495 -4.3816 -0.4313  0.0931
  250MOL0     H32980   9.138   1.493  11.533  0.1216 -1.2988 -0.2084
  250MOL0     H32981   9.071   1.561  11.387 -3.2052 -1.6230 -1.4233
  250MOL0     H32982   8.411   1.799  11.339  1.7524 -1.7611 -0.3432
  250MOL0     H32983   8.530   2.034  11.346  1.0630  0.1557  0.4436
  250MOL0     H32984   8.681   2.334  11.377 -1.2529 -0.0228  2.5007
  250MOL0     H32985   8.759   2.579  11.342  0.6030  1.7995  1.2962
  250MOL0     H32986   9.098   3.847  10.478 -1.1738 -1.0665  0.8707
  250MOL0     H32987   9.135   4.001  10.653  0.0701 -1.5306 -1.6162
  250MOL0     H32988   8.971   4.075  11.015  1.1803  0.8013 -0.1575
  250MOL0     H32989   8.936   4.103  11.256  0.6943  1.2408  0.3978
  250MOL0     H32990   8.969   4.338  11.544  1.3197  1.5948 -0.7751
  250MOL0     H32991   8.981   4.183  11.469 -2.4455 -2.4649  2.6081
  250MOL0     H32992   8.823   4.219  11.668 -3.5912  3.5701  2.9111
  250MOL0     H32993   8.714   4.309  11.555  0.1253  0.0772 -2.8858
  250MOL0     H32994   8.700   4.031  11.590  1.4654 -2.7140 -1.3248
  250MOL0     H32995   8.802   4.032  11.456  1.4589  0.3078  0.9047
  250MOL0     H32996   8.542   4.183  11.521  3.1516  2.6362  0.1455
  250MOL0     H32997   8.602   4.189  11.356 -0.5363 -1.1266 -0.4235
  250MOL0     H32998   8.418   3.804  11.385  1.0023 -0.9399  1.6432
  250MOL0     H32999   8.812   4.503  11.197  0.7113 -1.0119  1.1003
  250MOL0     H33000   8.789   4.446  10.946 -0.2245 -1.5615 -0.3950
  251MOL0     O33001   8.962   4.809   3.831 -0.2650 -0.7249  0.4525
  251MOL0     C33002   9.048   4.751   3.893 -0.0485 -0.4261  1.0279
  251MOL0     O33003   9.134   4.668   3.834  0.1890 -0.1188 -0.9774
  251MOL0     C33004   9.146   4.653   3.709 -0.0667 -0.5809  0.0688
  251MOL0     C33005   9.175   4.763   3.619 -0.1369  0.8306  0.5593
  251MOL0     C33006   9.182   4.745   3.482 -0.3728 -0.5025  0.7324
  251MOL0     C33007   9.161   4.614   3.425  0.5586  0.4473  0.2593
  251MOL0     O33008   9.181   4.591   3.284 -0.4491  0.2787 -0.2993
  251MOL0     C33009   9.070   4.533   3.199 -0.2603  0.1820  0.1540
  251MOL0     C33010   9.124   4.429   3.092 -0.4429  0.9596  0.5918
  251MOL0     C33011   9.172   4.507   2.972 -0.1855  0.2702  0.0837
  251MOL0     C33012   9.208   4.412   2.853  0.4622 -0.5875  0.1743
  251MOL0     C33013   9.280   4.468   2.723  0.4713  0.4736  0.6076
  251MOL0     C33014   9.199   4.586   2.665 -0.4397 -0.6232 -0.1229
  251MOL0     C33015   9.236   4.631   2.517 -0.1614  0.1132  0.1796
  251MOL0     C33016   9.116   4.652   2.423 -0.3637  0.0777  0.9369
  251MOL0     N33017   9.080   4.532   2.356 -0.2889 -0.7358 -0.4270
  251MOL0     C33018   8.976   4.467   2.401 -0.3086  1.1615 -0.4885
  251MOL0     C33019   8.946   4.378   2.308  0.9891  0.5582 -0.0545
  251MOL0     C33020   8.843   4.260   2.318  0.0476  0.0340 -0.7099
  251MOL0     C33021   8.706   4.317   2.355 -0.2891  0.2158  1.3083
  251MOL0     C33022   8.643   4.400   2.237  0.6328 -0.0921  0.8768
  251MOL0     C33023   8.625   4.553   2.256  0.6884  0.4468 -0.4772
  251MOL0     O33024   8.582   4.586   2.393 -0.3267  0.0184 -0.3839
  251MOL0     C33025   8.461   4.532   2.419 -0.2084 -0.0181  0.4075
  251MOL0     C33026   8.356   4.509   2.330  0.0596  0.4148  0.0443
  251MOL0     C33027   8.235   4.470   2.379  0.4485 -0.5360 -0.4604
  251MOL0     C33028   8.214   4.443   2.512 -1.1545  0.4535 -0.0631
  251MOL0     C33029   8.074   4.423   2.564 -0.6046  0.7303  0.1559
  251MOL0     O33030   7.971   4.427   2.471  1.2903 -0.2766  0.0436
  251MOL0     C33031   7.847   4.426   2.526 -0.3564  0.5472  0.6764
  251MOL0     C33032   7.818   4.514   2.631  0.3232 -0.2875 -0.3460
  251MOL0     C33033   7.688   4.512   2.685  0.3294 -0.6891  1.4347
  251MOL0     C33034   7.591   4.419   2.637 -0.1370  0.6475 -0.2428
  251MOL0     O33035   7.476   4.392   2.700 -0.3383 -0.2380 -0.5116
  251MOL0     C33036   7.449   4.454   2.827  0.1489  0.0866  0.4435
  251MOL0     C33037   7.296   4.459   2.845 -0.5508  0.8549  0.7655
  251MOL0     C33038   7.268   4.493   2.990  0.0316 -1.2312 -0.6636
  251MOL0     C33039   7.120   4.531   3.013 -0.0068 -0.5122 -0.6641
  251MOL0     C33040   7.062   4.512   3.159  0.1700  0.1415  0.3385
  251MOL0     C33041   7.056   4.367   3.197 -0.4266 -0.6768 -0.5902
  251MOL0     C33042   6.961   4.347   3.316 -0.3536 -0.6750 -0.3015
  251MOL0     C33043   7.025   4.247   3.422  0.8002 -0.5480  0.9803
  251MOL0    Cl33044   6.963   4.278   3.591 -0.0284 -0.3036  0.5606
  251MOL0     C33045   7.619   4.346   2.524 -0.4197  0.8210 -0.3979
  251MOL0     C33046   7.750   4.353   2.466  0.2001 -0.1156  0.3119
  251MOL0     O33047   8.063   4.386   2.678 -0.6015  0.3198  0.4979
  251MOL0     C33048   8.322   4.468   2.606  0.6267  0.4997  0.7194
  251MOL0     C33049   8.445   4.511   2.557 -0.5668 -0.7055 -0.2388
  251MOL0     N33050   9.022   4.398   2.202  0.4136  0.5573 -0.3022
  251MOL0     N33051   9.101   4.504   2.229 -0.2628  0.1125 -0.3070
  251MOL0     C33052   9.136   4.503   3.513  0.5675  0.4102 -0.1558
  251MOL0     C33053   9.129   4.528   3.649 -0.1282  0.3513 -0.1244
  251MOL0     C33054   9.068   4.782   4.038  0.7137 -0.9765  0.3360
  251MOL0     C33055   8.983   4.886   4.090 -0.2646  0.0068 -0.4378
  251MOL0     C33056   9.011   4.923   4.227 -0.2046 -0.2110  0.4577
  251MOL0     C33057   9.097   4.856   4.309 -0.0692  1.1209  0.0970
  251MOL0     O33058   9.116   4.868   4.445 -0.0963  0.8667 -0.2792
  251MOL0     C33059   8.995   4.880   4.533 -0.0467 -0.1793  0.0409
  251MOL0     C33060   9.040   4.877   4.681 -0.9400  0.0998  0.1148
  251MOL0     C33061   9.101   4.745   4.737 -0.0999 -0.4460  0.1722
  251MOL0     C33062   9.001   4.628   4.754 -0.2001 -0.7416 -0.0888
  251MOL0     C33063   9.078   4.506   4.728  0.3399 -0.4693 -0.2609
  251MOL0     C33064   9.156   4.419   4.697 -0.3463  0.6582  0.1491
  251MOL0     C33065   9.178   4.745   4.253 -0.0198 -1.6832  0.0074
  251MOL0     C33066   9.159   4.716   4.123 -0.6428 -0.6722 -0.3498
  251MOL0     H33067   9.214   4.859   3.651  0.6566  0.7459 -0.1278
  251MOL0     H33068   9.199   4.827   3.412 -1.5308 -1.5458 -0.8542
  251MOL0     H33069   9.008   4.609   3.151  2.1624 -0.4700 -4.6362
  251MOL0     H33070   9.003   4.466   3.252 -0.6190 -1.8357 -2.5836
  251MOL0     H33071   9.043   4.362   3.063 -1.9162  2.0271  2.0484
  251MOL0     H33072   9.197   4.369   3.148 -1.7177 -0.6380  0.5961
  251MOL0     H33073   9.267   4.557   2.994 -0.0628  1.2107 -2.3014
  251MOL0     H33074   9.097   4.577   2.933  2.0991  0.6639 -4.1745
  251MOL0     H33075   9.243   4.313   2.886 -0.0185 -0.7366  0.2430
  251MOL0     H33076   9.105   4.394   2.820  0.3946 -0.3667  0.2641
  251MOL0     H33077   9.292   4.382   2.657 -0.0929  0.0765  1.0139
  251MOL0     H33078   9.385   4.495   2.737  0.5310  1.4227 -1.4255
  251MOL0     H33079   9.205   4.662   2.743 -1.0828 -1.0407  0.3553
  251MOL0     H33080   9.095   4.552   2.668 -0.5485 -0.2289  0.8266
  251MOL0     H33081   9.282   4.727   2.540  0.4393 -0.4754  1.5691
  251MOL0     H33082   9.318   4.567   2.483 -1.3384 -0.8768 -0.8671
  251MOL0     H33083   9.129   4.737   2.356  1.6345 -0.5184  0.4886
  251MOL0     H33084   9.039   4.683   2.495  0.3469  4.3255  0.0974
  251MOL0     H33085   8.938   4.457   2.502 -1.1163  0.4140 -0.8559
  251MOL0     H33086   8.873   4.182   2.389 -2.1744 -1.5887 -1.4618
  251MOL0     H33087   8.840   4.205   2.224  2.5716 -2.3977  0.4859
  251MOL0     H33088   8.720   4.382   2.442 -1.4368  2.0617  0.1556
  251MOL0     H33089   8.635   4.241   2.388  0.2072 -3.0618 -4.0133
  251MOL0     H33090   8.701   4.388   2.145 -2.9418 -3.0521 -1.3127
  251MOL0     H33091   8.554   4.346   2.202 -0.7896  1.4072  2.0318
  251MOL0     H33092   8.562   4.602   2.181  1.4778  0.0057 -1.4615
  251MOL0     H33093   8.725   4.596   2.240  1.0910 -0.9358 -2.0111
  251MOL0     H33094   8.372   4.524   2.223 -2.7579 -2.0926 -0.8807
  251MOL0     H33095   8.144   4.468   2.322  0.0803  1.1166  0.0037
  251MOL0     H33096   7.889   4.587   2.669 -0.6949 -0.0945  1.3186
  251MOL0     H33097   7.666   4.580   2.766 -2.3435  2.0899 -1.3414
  251MOL0     H33098   7.477   4.559   2.820  1.5466 -0.2905  0.0300
  251MOL0     H33099   7.491   4.399   2.912  0.7056  1.0793  0.8303
  251MOL0     H33100   7.257   4.358   2.826 -0.1741  0.8354  0.0569
  251MOL0     H33101   7.258   4.533   2.774  0.3210  0.5742 -0.0135
  251MOL0     H33102   7.330   4.578   3.019 -1.1795 -0.1150 -1.2387
  251MOL0     H33103   7.292   4.419   3.067  0.6675  1.0940  1.5098
  251MOL0     H33104   7.100   4.637   2.995  0.3614 -0.4618 -0.7817
  251MOL0     H33105   7.064   4.469   2.942 -2.0725 -0.4198  0.8241
  251MOL0     H33106   6.961   4.552   3.151 -0.0665 -0.7040 -1.3987
  251MOL0     H33107   7.117   4.578   3.227 -0.8946  1.7962 -0.3364
  251MOL0     H33108   7.155   4.323   3.209 -1.0568 -1.5807  1.7150
  251MOL0     H33109   7.029   4.292   3.122 -0.2127 -2.1015  0.7077
  251MOL0     H33110   6.941   4.438   3.374  0.0853 -0.1752 -0.9292
  251MOL0     H33111   6.864   4.307   3.286 -0.5677 -1.9397  1.7964
  251MOL0     H33112   7.134   4.258   3.421  0.9262 -0.1068  5.0133
  251MOL0     H33113   6.999   4.150   3.379  0.2703 -1.0476  2.3846
  251MOL0     H33114   7.544   4.276   2.488 -1.0071  0.8373  0.7478
  251MOL0     H33115   7.777   4.299   2.376  2.9630 -0.3223  1.1704
  251MOL0     H33116   8.309   4.469   2.713  0.5393 -1.1584  0.7535
  251MOL0     H33117   8.525   4.540   2.625 -0.9603  1.6201 -0.6846
  251MOL0     H33118   9.120   4.407   3.466  3.6146 -1.1821  1.7614
  251MOL0     H33119   9.110   4.436   3.704 -0.4991  0.6349  0.2282
  251MOL0     H33120   8.911   4.938   4.028 -2.1980 -1.2062  0.6767
  251MOL0     H33121   8.947   5.004   4.258 -1.1251 -1.2882  1.4806
  251MOL0     H33122   8.922   4.803   4.506  0.6134 -1.2366  1.1809
  251MOL0     H33123   8.938   4.971   4.510 -0.9122 -1.0027 -1.1879
  251MOL0     H33124   9.120   4.950   4.700 -0.7842 -0.3495  1.2985
  251MOL0     H33125   8.956   4.889   4.751 -1.0794  0.6265 -0.1356
  251MOL0     H33126   9.152   4.751   4.834  1.0025 -1.7400 -0.3018
  251MOL0     H33127   9.180   4.717   4.666 -0.4778  1.3019 -0.9979
  251MOL0     H33128   8.965   4.624   4.857  0.3287  2.2841  0.3174
  251MOL0     H33129   8.927   4.637   4.675  0.7340 -2.9855 -1.2908
  251MOL0     H33130   9.237   4.350   4.690  1.2148  2.5648 -1.6801
  251MOL0     H33131   9.242   4.693   4.324 -0.4822 -1.5585  0.5174
  251MOL0     H33132   9.213   4.628   4.090  0.3987  0.4259 -1.7057
  252MOL0     O33133   1.581   8.612   5.240  0.3536  0.1219 -0.2217
  252MOL0     C33134   1.646   8.629   5.348  0.0448 -0.0653  0.0942
  252MOL0     O33135   1.585   8.619   5.474 -0.2627  0.3771  0.4298
  252MOL0     C33136   1.463   8.551   5.477  0.0008  0.3177  0.4726
  252MOL0     C33137   1.459   8.414   5.439  0.1828 -0.0611 -1.0520
  252MOL0     C33138   1.341   8.351   5.424  0.8463  0.1591  0.0086
  252MOL0     C33139   1.212   8.417   5.441 -0.1730  0.1935 -0.0795
  252MOL0     O33140   1.100   8.343   5.413  0.5354 -0.1291 -0.6611
  252MOL0     C33141   1.006   8.418   5.359  0.0914 -0.9927  1.3254
  252MOL0     C33142   0.878   8.334   5.342  0.3352  0.1227 -0.9226
  252MOL0     C33143   0.902   8.220   5.230 -0.5827 -0.1922  0.1654
  252MOL0     C33144   0.773   8.141   5.209 -0.7754 -0.3773  0.3254
  252MOL0     C33145   0.789   8.005   5.131  0.7340 -0.2277 -0.2300
  252MOL0     C33146   0.923   7.934   5.132 -0.2751 -0.9993  0.8058
  252MOL0     C33147   0.900   7.790   5.091 -0.8728  0.4081 -0.3826
  252MOL0     C33148   1.040   7.717   5.084  0.1802  0.1291 -0.5463
  252MOL0     N33149   1.012   7.575   5.108  0.5866  1.1287  0.2100
  252MOL0     C33150   0.953   7.496   5.012 -0.6497  1.3638  1.3074
  252MOL0     C33151   0.938   7.372   5.075 -0.2771 -1.4012 -0.3651
  252MOL0     C33152   0.881   7.255   5.002  0.3531 -0.4413  1.0535
  252MOL0     C33153   0.794   7.158   5.087 -0.3393 -0.4225 -0.3743
  252MOL0     C33154   0.649   7.145   5.037  1.1373 -1.2593  0.2272
  252MOL0     C33155   0.638   7.036   4.929 -1.0694 -0.0584  0.0348
  252MOL0     O33156   0.703   7.073   4.811 -0.1165  0.2653  0.3505
  252MOL0     C33157   0.645   7.170   4.724  0.3009 -0.1717  0.1967
  252MOL0     C33158   0.744   7.219   4.632  0.5054 -0.1393 -0.6406
  252MOL0     C33159   0.714   7.298   4.523  1.5649 -0.7373  0.4594
  252MOL0     C33160   0.583   7.346   4.512 -0.1413 -0.4884 -0.3971
  252MOL0     C33161   0.540   7.446   4.407 -0.7887 -0.3353 -0.5703
  252MOL0     O33162   0.628   7.460   4.307  0.0560  0.0712 -0.0828
  252MOL0     C33163   0.604   7.561   4.212 -0.4000 -1.3522 -0.3544
  252MOL0     C33164   0.704   7.646   4.172 -0.6338  0.0672 -0.1421
  252MOL0     C33165   0.697   7.731   4.060  0.7645 -1.1886 -0.7847
  252MOL0     C33166   0.577   7.729   3.988  0.0500  0.3806  0.4171
  252MOL0     O33167   0.579   7.788   3.865  0.7776 -0.4084  0.4138
  252MOL0     C33168   0.529   7.920   3.884  0.4341 -0.6676  0.7319
  252MOL0     C33169   0.550   8.000   3.755  0.0153  0.0634  0.0144
  252MOL0     C33170   0.485   7.940   3.622  0.0495  0.2147  0.6004
  252MOL0     C33171   0.488   8.024   3.502  0.3856 -0.5355  0.6228
  252MOL0     C33172   0.402   7.960   3.390 -0.5270  0.2107  0.6570
  252MOL0     C33173   0.387   8.042   3.264  0.1455  0.7010  0.0730
  252MOL0     C33174   0.336   7.948   3.148  0.9646  0.1364 -0.4697
  252MOL0     C33175   0.296   8.031   3.039  0.2853  1.1240 -0.8264
  252MOL0    Cl33176   0.123   8.063   3.049 -0.0963  0.1089 -0.1090
  252MOL0     C33177   0.468   7.657   4.027 -0.3380  0.6894  0.4312
  252MOL0     C33178   0.482   7.577   4.140  0.8699 -0.3264 -0.4285
  252MOL0     O33179   0.435   7.503   4.417  0.1582 -0.1737  0.7843
  252MOL0     C33180   0.486   7.305   4.618 -0.6306 -1.1282  1.0003
  252MOL0     C33181   0.512   7.218   4.718 -0.6874 -0.7873 -0.4201
  252MOL0     N33182   0.963   7.390   5.209  0.0376  0.3753  0.9505
  252MOL0     N33183   1.025   7.505   5.219 -0.8288  0.0467 -0.2463
  252MOL0     C33184   1.223   8.553   5.497 -0.3992  1.0992  0.1025
  252MOL0     C33185   1.348   8.613   5.511 -0.8604 -0.5292 -0.4530
  252MOL0     C33186   1.774   8.690   5.330 -0.4429  0.4929  0.7323
  252MOL0     C33187   1.830   8.741   5.441  0.2283  0.0599 -0.2572
  252MOL0     C33188   1.954   8.818   5.422  0.3008  0.4040  1.2103
  252MOL0     C33189   2.016   8.837   5.300 -0.9514  1.3113  0.9619
  252MOL0     O33190   2.142   8.911   5.309  0.4613  0.4993  0.1903
  252MOL0     C33191   2.239   8.901   5.194 -0.0736 -0.6388 -0.0229
  252MOL0     C33192   2.364   8.843   5.269 -0.6578  0.3940 -0.2284
  252MOL0     C33193   2.480   8.816   5.168 -0.9070  0.2157  0.2079
  252MOL0     C33194   2.469   8.666   5.121 -1.2006  0.0042 -0.7287
  252MOL0     C33195   2.606   8.628   5.091 -0.0430  0.5041 -0.2022
  252MOL0     C33196   2.714   8.598   5.054 -0.3888  0.2077  0.0379
  252MOL0     C33197   1.961   8.769   5.184  0.8303 -0.1653  0.0090
  252MOL0     C33198   1.839   8.701   5.195  0.0244 -0.1746 -0.3089
  252MOL0     H33199   1.553   8.371   5.406 -0.6069 -0.4361 -2.9378
  252MOL0     H33200   1.362   8.248   5.396  1.5450 -0.7782  3.5004
  252MOL0     H33201   1.029   8.449   5.257 -1.7310 -2.8923  0.2643
  252MOL0     H33202   0.974   8.511   5.407  1.4448  0.6968 -0.8715
  252MOL0     H33203   0.800   8.397   5.298  4.1021  6.3450  0.1678
  252MOL0     H33204   0.834   8.298   5.436 -3.5261  5.0683 -0.3949
  252MOL0     H33205   0.983   8.159   5.273 -1.1525 -0.7055  0.5236
  252MOL0     H33206   0.946   8.265   5.141  3.8045  0.2470  2.2828
  252MOL0     H33207   0.723   8.120   5.304 -1.2627 -0.7387 -0.0050
  252MOL0     H33208   0.699   8.212   5.169 -0.1745  1.0451  1.6508
  252MOL0     H33209   0.755   8.032   5.030 -2.0052 -2.1723  0.0537
  252MOL0     H33210   0.709   7.942   5.170  0.3390 -1.3157 -2.5836
  252MOL0     H33211   0.964   7.937   5.233 -0.7218  3.1573  1.0112
  252MOL0     H33212   0.988   7.975   5.054 -5.2762  1.1946 -2.7409
  252MOL0     H33213   0.842   7.750   5.175 -0.2477  0.4361  0.0649
  252MOL0     H33214   0.834   7.784   5.003 -3.0135 -2.4004  1.2381
  252MOL0     H33215   1.115   7.747   5.158 -2.0754 -0.6592  2.2467
  252MOL0     H33216   1.064   7.737   4.979 -2.8616 -3.0734 -2.0887
  252MOL0     H33217   0.920   7.521   4.912  1.6140 -0.9201 -0.1146
  252MOL0     H33218   0.974   7.208   4.968  0.7363  1.5435 -0.8041
  252MOL0     H33219   0.822   7.287   4.916  2.5349 -3.5592 -1.8698
  252MOL0     H33220   0.795   7.204   5.186 -1.1176  0.8344 -0.9264
  252MOL0     H33221   0.843   7.061   5.099  2.1113  0.7576 -0.1563
  252MOL0     H33222   0.583   7.122   5.122  0.4488  0.3200  0.1425
  252MOL0     H33223   0.600   7.238   5.007  1.5673 -0.2331  2.4577
  252MOL0     H33224   0.534   7.004   4.922 -0.3551 -2.2050 -2.5212
  252MOL0     H33225   0.694   6.946   4.957 -1.0699  0.5533  2.2303
  252MOL0     H33226   0.844   7.178   4.647 -0.0381 -2.6473 -3.1000
  252MOL0     H33227   0.796   7.312   4.454  1.0636 -0.8455 -0.1603
  252MOL0     H33228   0.797   7.643   4.227 -1.3971 -0.4046  1.1712
  252MOL0     H33229   0.788   7.789   4.046 -1.4477  2.9358  0.2897
  252MOL0     H33230   0.580   7.978   3.962  1.6963  0.5335 -0.9147
  252MOL0     H33231   0.420   7.917   3.893  0.2625 -2.1582 -1.1682
  252MOL0     H33232   0.656   8.019   3.738 -0.3212  0.7384 -1.5497
  252MOL0     H33233   0.504   8.100   3.761  1.2290  0.6552 -0.1573
  252MOL0     H33234   0.380   7.927   3.651 -0.1028 -0.5022 -0.2667
  252MOL0     H33235   0.505   7.835   3.602 -6.2921 -1.5774  1.4925
  252MOL0     H33236   0.442   8.117   3.537  0.3426 -0.4138  0.2431
  252MOL0     H33237   0.590   8.051   3.473 -0.8628  3.3976 -0.6465
  252MOL0     H33238   0.303   7.955   3.436 -0.1619  1.7498  1.6680
  252MOL0     H33239   0.425   7.861   3.349 -3.6371  0.7878 -3.1676
  252MOL0     H33240   0.482   8.087   3.236  0.2479  1.6626  1.8289
  252MOL0     H33241   0.310   8.117   3.283 -0.6186 -0.3522  1.3839
  252MOL0     H33242   0.426   7.896   3.114  1.0239  0.9410 -1.5732
  252MOL0     H33243   0.256   7.882   3.185 -1.9651  2.1876 -2.6906
  252MOL0     H33244   0.303   7.976   2.944  2.8795 -2.0698  0.9890
  252MOL0     H33245   0.353   8.122   3.020  0.2646  1.2250 -0.3971
  252MOL0     H33246   0.380   7.651   3.963  2.8939  2.4655 -4.8291
  252MOL0     H33247   0.405   7.504   4.163  0.9110 -0.0631  0.5821
  252MOL0     H33248   0.385   7.345   4.617 -0.4700 -0.7053 -0.2668
  252MOL0     H33249   0.438   7.185   4.790 -0.7926 -0.9466 -0.6023
  252MOL0     H33250   1.131   8.601   5.528 -1.3722 -2.5597  3.7799
  252MOL0     H33251   1.357   8.719   5.529  0.1555 -0.8413  1.0427
  252MOL0     H33252   1.784   8.718   5.537  1.4355  0.5497  0.4659
  252MOL0     H33253   2.001   8.870   5.505  0.1034  1.4689  0.6736
  252MOL0     H33254   2.257   9.000   5.150 -1.6063 -0.1566  0.3454
  252MOL0     H33255   2.215   8.834   5.112  2.8594  1.3174 -2.7114
  252MOL0     H33256   2.381   8.911   5.354  0.6610 -0.1168 -0.0601
  252MOL0     H33257   2.337   8.746   5.312  0.9534 -0.0967 -0.2582
  252MOL0     H33258   2.574   8.837   5.219 -1.3326  0.3410  0.9611
  252MOL0     H33259   2.466   8.882   5.082 -0.5378  0.1553  0.0985
  252MOL0     H33260   2.435   8.597   5.199  2.3514  1.0912  2.0429
  252MOL0     H33261   2.406   8.640   5.035 -3.7581 -1.4213  1.4217
  252MOL0     H33262   2.816   8.580   5.026  0.6325 -0.1904  3.4508
  252MOL0     H33263   1.992   8.770   5.081 -1.3647  0.6420 -0.7032
  252MOL0     H33264   1.791   8.657   5.108  3.1587 -1.4384 -1.5228
  253MOL0     O33265   9.169   9.182   1.025  0.1945  0.2027 -0.4940
  253MOL0     C33266   9.056   9.201   1.064 -0.8928  0.7295 -0.0433
  253MOL0     O33267   8.952   9.115   1.051 -0.4066  0.1412 -0.5382
  253MOL0     C33268   8.972   8.985   1.001 -0.2175 -0.0822 -0.0145
  253MOL0     C33269   8.952   8.877   1.086  0.5985  0.4158  0.1778
  253MOL0     C33270   8.992   8.753   1.038 -0.4436  0.3405 -0.2743
  253MOL0     C33271   9.050   8.734   0.911  0.6902  0.9422  0.4701
  253MOL0     O33272   9.070   8.607   0.872 -0.0786  0.6223  0.1812
  253MOL0     C33273   8.966   8.506   0.888 -0.1588 -0.3859  1.1963
  253MOL0     C33274   9.036   8.403   0.976 -0.4095  0.3742 -0.2818
  253MOL0     C33275   8.951   8.283   1.023 -0.2284 -0.0657  0.7324
  253MOL0     C33276   8.842   8.321   1.125 -0.2178 -0.4007  0.2836
  253MOL0     C33277   8.703   8.249   1.097  0.8015 -0.3543  0.2013
  253MOL0     C33278   8.705   8.098   1.102  0.0891 -0.5142  0.3433
  253MOL0     C33279   8.585   8.051   1.035  0.1882  0.4102  0.5121
  253MOL0     C33280   8.454   8.072   1.109  1.3531 -0.3958 -0.0638
  253MOL0     N33281   8.346   8.003   1.032 -0.7957  0.3446  0.5730
  253MOL0     C33282   8.334   7.870   1.019  0.1695  1.5316  0.9486
  253MOL0     C33283   8.231   7.848   0.929  0.1519 -0.7813 -0.0788
  253MOL0     C33284   8.194   7.710   0.877 -0.0468 -0.5239 -0.2927
  253MOL0     C33285   8.061   7.682   0.943  0.0425 -1.2006  0.1184
  253MOL0     C33286   7.992   7.558   0.899  0.0054  0.6588 -1.1812
  253MOL0     C33287   7.887   7.526   1.005  0.2669 -0.1742 -0.2591
  253MOL0     O33288   7.820   7.409   0.961  0.1219 -0.3909 -0.2730
  253MOL0     C33289   7.802   7.314   1.055 -0.1123  0.1631  0.7107
  253MOL0     C33290   7.849   7.187   1.029  0.1985 -0.1539 -0.0959
  253MOL0     C33291   7.831   7.083   1.121 -0.7441  0.0091 -0.5109
  253MOL0     C33292   7.760   7.106   1.239  0.1893  0.0381  0.5958
  253MOL0     C33293   7.744   7.001   1.337 -0.5196  0.7826 -0.9021
  253MOL0     O33294   7.695   7.021   1.465  0.1485  0.0404  0.3794
  253MOL0     C33295   7.688   6.907   1.543 -0.3335  0.0971  0.4121
  253MOL0     C33296   7.618   6.794   1.506 -0.3196 -0.5335  0.2736
  253MOL0     C33297   7.622   6.684   1.588  0.5850  0.4775  0.1025
  253MOL0     C33298   7.684   6.684   1.719  0.7230 -0.5674  0.3146
  253MOL0     O33299   7.705   6.579   1.800  0.1825  0.9894  0.1854
  253MOL0     C33300   7.602   6.481   1.813  0.6953  0.3223  0.8873
  253MOL0     C33301   7.623   6.374   1.713 -0.2568 -0.1128  0.1088
  253MOL0     C33302   7.495   6.293   1.705  0.3173  0.3936  1.6282
  253MOL0     C33303   7.521   6.186   1.599 -0.1985 -0.4128 -0.1049
  253MOL0     C33304   7.401   6.083   1.570  1.3758 -0.2113 -0.1724
  253MOL0     C33305   7.361   6.013   1.699  0.1829  0.5486  0.4051
  253MOL0     C33306   7.270   5.893   1.675  0.0676 -0.6415 -1.2135
  253MOL0     C33307   7.143   5.926   1.603 -0.4279  0.8955  0.0581
  253MOL0    Cl33308   7.034   5.778   1.603  0.1249 -0.1662 -0.2641
  253MOL0     C33309   7.740   6.806   1.760  0.5748 -0.5530  0.8715
  253MOL0     C33310   7.743   6.920   1.674 -0.6536  0.3771 -1.5678
  253MOL0     O33311   7.788   6.890   1.301  1.0427 -1.1076 -0.4286
  253MOL0     C33312   7.714   7.236   1.268 -0.3213  0.0909 -0.6045
  253MOL0     C33313   7.729   7.340   1.173  0.0475  0.4952 -0.1359
  253MOL0     N33314   8.191   7.969   0.885  0.2211 -0.1255  0.1276
  253MOL0     N33315   8.259   8.057   0.946 -0.3838 -0.0503  0.3468
  253MOL0     C33316   9.063   8.842   0.824 -0.2948 -0.9745 -0.5454
  253MOL0     C33317   9.030   8.962   0.872 -0.0448 -0.0140 -0.2073
  253MOL0     C33318   9.020   9.321   1.141 -0.3971 -0.4221 -1.2167
  253MOL0     C33319   9.114   9.427   1.146  0.0961  0.5816  0.1943
  253MOL0     C33320   9.081   9.535   1.234  0.2473 -0.7931 -0.0432
  253MOL0     C33321   8.958   9.542   1.305  0.9242 -0.8856  0.7923
  253MOL0     O33322   8.927   9.638   1.398  0.6380 -0.0910  0.4104
  253MOL0     C33323   9.044   9.684   1.470 -0.6097 -0.0260  0.1808
  253MOL0     C33324   9.013   9.783   1.575  0.2683  0.6158 -0.1946
  253MOL0     C33325   8.932   9.728   1.695 -0.6800 -0.8800  0.2156
  253MOL0     C33326   8.884   9.850   1.787  0.1272  0.4115  0.3765
  253MOL0     C33327   8.985   9.881   1.883  0.2539  0.0467 -0.0461
  253MOL0     C33328   9.083   9.893   1.949  0.6624  0.0047 -0.0672
  253MOL0     C33329   8.859   9.446   1.275  0.0564 -0.7266 -0.1011
  253MOL0     C33330   8.894   9.332   1.206 -0.8565 -0.3574  0.3654
  253MOL0     H33331   8.905   8.883   1.183 -1.2162 -1.0058 -0.5500
  253MOL0     H33332   8.974   8.667   1.101 -2.2991 -0.6338 -2.0305
  253MOL0     H33333   8.964   8.473   0.783  1.9881  0.2051  0.9348
  253MOL0     H33334   8.863   8.535   0.913 -0.2254 -0.1291  0.6391
  253MOL0     H33335   9.079   8.450   1.065  1.9864 -0.4726 -0.9160
  253MOL0     H33336   9.122   8.362   0.921 -2.0263 -2.3431 -0.9700
  253MOL0     H33337   9.003   8.198   1.068  0.7804 -1.6275 -3.0080
  253MOL0     H33338   8.901   8.243   0.935 -1.9611 -1.1117  2.1245
  253MOL0     H33339   8.893   8.277   1.211 -0.3832 -2.0404 -0.4036
  253MOL0     H33340   8.826   8.428   1.137  0.7940 -0.0809 -0.9280
  253MOL0     H33341   8.667   8.282   0.999  1.1209  3.5827  1.2490
  253MOL0     H33342   8.630   8.291   1.166  0.2018 -0.7949 -0.1623
  253MOL0     H33343   8.720   8.060   1.203  0.1454  0.4932  0.7236
  253MOL0     H33344   8.796   8.070   1.047  0.3791  1.1327 -0.0783
  253MOL0     H33345   8.581   8.092   0.934 -1.1472 -3.3582 -1.1585
  253MOL0     H33346   8.591   7.944   1.012 -3.3259  0.6610 -2.5717
  253MOL0     H33347   8.432   8.176   1.135  0.0657 -1.2332  2.5966
  253MOL0     H33348   8.470   8.017   1.202 -0.2059 -0.7163  0.0496
  253MOL0     H33349   8.405   7.789   1.036  0.4111  1.8528  1.4661
  253MOL0     H33350   8.271   7.641   0.912 -0.3447 -1.1770 -0.9015
  253MOL0     H33351   8.188   7.720   0.768 -0.0992  0.4881 -0.2068
  253MOL0     H33352   7.998   7.768   0.916 -0.3690 -1.8874 -1.2222
  253MOL0     H33353   8.087   7.689   1.049 -1.4616  0.7085  0.4211
  253MOL0     H33354   7.956   7.583   0.798  2.2180  5.5528 -1.0271
  253MOL0     H33355   8.075   7.486   0.898  1.0700  1.8460 -0.6495
  253MOL0     H33356   7.815   7.607   1.020  2.6690  1.9366  0.5389
  253MOL0     H33357   7.934   7.504   1.101  0.0248  1.0712  0.1656
  253MOL0     H33358   7.897   7.180   0.932 -2.8651  0.0817 -1.7647
  253MOL0     H33359   7.865   6.984   1.091 -1.1412 -1.2075  2.6405
  253MOL0     H33360   7.572   6.774   1.409  0.7218 -0.8062 -0.1772
  253MOL0     H33361   7.576   6.599   1.539  0.9950 -2.6343  4.4895
  253MOL0     H33362   7.507   6.534   1.823 -0.4786 -1.4774 -0.1382
  253MOL0     H33363   7.612   6.418   1.902  1.1669 -0.8301  0.0486
  253MOL0     H33364   7.707   6.316   1.752 -1.6685 -1.4524  1.2857
  253MOL0     H33365   7.638   6.425   1.618 -2.5786  0.0728 -0.2260
  253MOL0     H33366   7.409   6.353   1.673  0.2189 -0.2425  0.6501
  253MOL0     H33367   7.479   6.256   1.806 -0.6415  0.8527  1.6523
  253MOL0     H33368   7.542   6.243   1.508 -2.8983 -0.6013 -0.9242
  253MOL0     H33369   7.617   6.142   1.629 -0.5560 -0.5696  0.8380
  253MOL0     H33370   7.426   6.005   1.498 -2.2724  0.9575 -3.0047
  253MOL0     H33371   7.324   6.144   1.521  1.3258 -0.3130 -0.2192
  253MOL0     H33372   7.316   6.081   1.772 -0.4682 -3.5692  4.3089
  253MOL0     H33373   7.449   5.978   1.753 -1.5107 -1.6355  1.9515
  253MOL0     H33374   7.323   5.815   1.619  0.8240  0.1980 -1.6814
  253MOL0     H33375   7.251   5.850   1.774 -1.3697  5.9385  1.9132
  253MOL0     H33376   7.178   5.958   1.504  3.2130  1.6373  1.4201
  253MOL0     H33377   7.080   6.000   1.654 -1.2741  0.2104  0.0343
  253MOL0     H33378   7.790   6.814   1.856 -2.3040 -3.3605  2.8091
  253MOL0     H33379   7.795   7.008   1.711 -1.0327 -0.0297 -0.0015
  253MOL0     H33380   7.659   7.266   1.356 -0.2484 -0.8461 -0.2285
  253MOL0     H33381   7.688   7.437   1.198  1.7774  1.7730 -1.9231
  253MOL0     H33382   9.097   8.836   0.722 -1.7542 -0.5679 -1.0765
  253MOL0     H33383   9.036   9.035   0.792  3.3939 -1.2068 -1.2391
  253MOL0     H33384   9.202   9.414   1.084 -0.3924  1.1271 -0.6201
  253MOL0     H33385   9.162   9.608   1.240  0.1339 -0.5505 -1.2013
  253MOL0     H33386   9.116   9.743   1.413 -1.4042  1.9275  1.0840
  253MOL0     H33387   9.096   9.597   1.511  2.7895  1.3086 -0.9140
  253MOL0     H33388   9.112   9.816   1.608  1.4435 -2.4826 -0.2750
  253MOL0     H33389   8.966   9.866   1.520 -1.3547 -0.5462 -0.6465
  253MOL0     H33390   8.997   9.662   1.754 -1.3160 -1.0748  0.7004
  253MOL0     H33391   8.850   9.668   1.655 -1.6781  0.2777  0.4746
  253MOL0     H33392   8.861   9.939   1.728  2.1335  0.8939  0.2424
  253MOL0     H33393   8.783   9.834   1.825 -1.2465  0.4549 -2.9342
  253MOL0     H33394   9.166   9.901   2.017  0.6606 -1.3756  0.1255
  253MOL0     H33395   8.766   9.460   1.329  0.8085  1.3234  0.7778
  253MOL0     H33396   8.825   9.249   1.208 -1.5579  0.1964  2.1453
  254MOL0     O33397   8.932   5.224   5.980  0.3814  0.4285  0.5674
  254MOL0     C33398   8.837   5.223   6.056  1.1053 -0.3631  0.3889
  254MOL0     O33399   8.838   5.227   6.196  0.2507  0.0712 -0.1202
  254MOL0     C33400   8.952   5.252   6.252 -0.3844 -0.3334 -0.7413
  254MOL0     C33401   8.999   5.374   6.244 -0.3451 -1.1622  0.8644
  254MOL0     C33402   9.127   5.407   6.294  0.4402  1.2111 -0.7086
  254MOL0     C33403   9.195   5.311   6.361 -0.0004  0.9607  0.0431
  254MOL0     O33404   9.318   5.348   6.416  0.1285 -0.5321 -0.6881
  254MOL0     C33405   9.426   5.261   6.408  0.4389 -0.9287  0.0198
  254MOL0     C33406   9.554   5.317   6.474 -0.1205 -0.4679 -0.5843
  254MOL0     C33407   9.546   5.376   6.617  0.4680  0.8858  0.0732
  254MOL0     C33408   9.683   5.397   6.689  0.6265 -0.1136  0.7957
  254MOL0     C33409   9.655   5.436   6.828 -0.0322 -1.1150 -0.7865
  254MOL0     C33410   9.776   5.506   6.903  0.0551  0.4396  0.2458
  254MOL0     C33411   9.877   5.403   6.967  0.0980  0.0408 -0.6180
  254MOL0     C33412   9.992   5.472   7.042  0.8438  1.1582  0.5903
  254MOL0     N33413   9.955   5.493   7.179 -0.7122  0.6047 -0.1085
  254MOL0     C33414   9.901   5.616   7.232  0.5132  1.4490 -0.5521
  254MOL0     C33415   9.878   5.590   7.362 -0.0231  1.2297 -0.7278
  254MOL0     C33416   9.841   5.682   7.473 -0.3237 -0.0436 -0.0348
  254MOL0     C33417   9.906   5.823   7.459  0.4381  0.8902  0.5427
  254MOL0     C33418   9.858   5.910   7.564  0.6375  0.0855  1.0244
  254MOL0     C33419   9.722   5.982   7.535 -0.3418 -0.8132 -0.5041
  254MOL0     O33420   9.603   5.903   7.507 -0.2994  0.0917  0.2247
  254MOL0     C33421   9.475   5.956   7.488 -0.1932  0.3078 -0.1270
  254MOL0     C33422   9.453   6.086   7.489 -0.0411 -1.1726  0.7797
  254MOL0     C33423   9.323   6.137   7.488  0.1296  0.8579 -0.0437
  254MOL0     C33424   9.209   6.060   7.454 -0.6090 -0.0297  0.5348
  254MOL0     C33425   9.066   6.113   7.486 -0.1845  1.1314 -0.0303
  254MOL0     O33426   8.975   6.007   7.489  0.2864 -0.3064  0.4776
  254MOL0     C33427   8.838   6.029   7.498  0.1780 -0.7575  0.1811
  254MOL0     C33428   8.771   6.135   7.439  0.5267  0.0212  0.3287
  254MOL0     C33429   8.638   6.151   7.449 -0.3355  1.0989 -0.2064
  254MOL0     C33430   8.569   6.066   7.541  1.2384  0.7349 -0.1645
  254MOL0     O33431   8.429   6.091   7.549  0.0133 -0.1117 -0.1576
  254MOL0     C33432   8.408   6.201   7.636  0.1654 -0.6767 -1.1598
  254MOL0     C33433   8.262   6.211   7.657 -0.2271  0.3155 -0.1114
  254MOL0     C33434   8.228   6.350   7.708 -0.1947 -0.4342 -1.1772
  254MOL0     C33435   8.219   6.377   7.855 -0.2244  0.0299  0.0776
  254MOL0     C33436   8.159   6.505   7.912  0.9422  1.3846 -0.5610
  254MOL0     C33437   8.208   6.636   7.856 -0.1570 -0.8364  0.5794
  254MOL0     C33438   8.151   6.676   7.716 -0.5376  1.2601  0.6466
  254MOL0     C33439   8.186   6.830   7.666 -0.5599  0.4200  0.0303
  254MOL0    Cl33440   8.363   6.835   7.660  0.1787 -0.1258  0.1320
  254MOL0     C33441   8.635   5.959   7.609  0.1025  0.0435  0.3342
  254MOL0     C33442   8.771   5.941   7.584  0.5571 -0.4589  0.1447
  254MOL0     O33443   9.038   6.228   7.518 -0.1449  0.0825  0.0594
  254MOL0     C33444   9.234   5.916   7.431  0.1575  0.0770  1.1956
  254MOL0     C33445   9.368   5.878   7.454 -0.2079  0.7811 -0.8732
  254MOL0     N33446   9.914   5.458   7.382 -1.2451 -0.1728 -1.3298
  254MOL0     N33447   9.966   5.404   7.279 -1.0435 -0.2688 -0.0723
  254MOL0     C33448   9.144   5.179   6.373  0.4250 -0.0696  0.3152
  254MOL0     C33449   9.022   5.152   6.323 -0.4296 -0.1755  0.6845
  254MOL0     C33450   8.709   5.219   5.980 -0.2931  0.0865 -0.4979
  254MOL0     C33451   8.598   5.175   6.061 -0.3836  0.6194 -0.6538
  254MOL0     C33452   8.462   5.166   6.010 -0.3538  0.7593  1.1295
  254MOL0     C33453   8.442   5.181   5.872  1.1169  0.3624  0.7452
  254MOL0     O33454   8.320   5.167   5.800  0.7098 -0.3246 -0.1779
  254MOL0     C33455   8.225   5.092   5.864  0.3874 -0.4745  0.1520
  254MOL0     C33456   8.136   5.037   5.755 -0.4971  0.7260  0.3642
  254MOL0     C33457   8.056   5.146   5.684  0.4478  0.2578  0.7261
  254MOL0     C33458   7.952   5.088   5.598 -0.1539 -0.2432  0.3947
  254MOL0     C33459   7.827   5.063   5.667  0.6130  0.7319  0.1052
  254MOL0     C33460   7.725   5.043   5.732  0.9264  0.2877  0.5569
  254MOL0     C33461   8.552   5.198   5.790 -0.6199  1.5307 -0.3012
  254MOL0     C33462   8.687   5.212   5.841 -0.3934  0.0355  1.6026
  254MOL0     H33463   8.930   5.458   6.232  2.7963  3.3941  7.9361
  254MOL0     H33464   9.164   5.509   6.302  1.2627  0.7616  2.4961
  254MOL0     H33465   9.438   5.231   6.304  1.5942 -0.4890  0.0068
  254MOL0     H33466   9.412   5.170   6.466  0.6788 -1.5610 -0.8981
  254MOL0     H33467   9.586   5.397   6.407  1.9547 -1.9515 -1.4700
  254MOL0     H33468   9.633   5.242   6.469  0.6649  0.1749  1.2268
  254MOL0     H33469   9.494   5.289   6.660  0.6854 -0.0123 -1.4248
  254MOL0     H33470   9.477   5.461   6.622  0.8142  1.1738  0.0379
  254MOL0     H33471   9.740   5.304   6.685 -0.4429 -0.7257 -1.5567
  254MOL0     H33472   9.751   5.461   6.631 -0.5122  1.5689  1.2289
  254MOL0     H33473   9.604   5.365   6.892 -2.9414  1.0427 -0.5187
  254MOL0     H33474   9.581   5.515   6.813  1.0627 -0.4031 -3.0152
  254MOL0     H33475   9.727   5.558   6.985 -1.0242  0.5751 -0.4668
  254MOL0     H33476   9.831   5.564   6.829  0.7477 -2.0189 -1.3158
  254MOL0     H33477   9.832   5.337   7.043  1.2076  1.5727  1.4603
  254MOL0     H33478   9.922   5.338   6.891  1.1302 -0.0459  0.0539
  254MOL0     H33479  10.016   5.573   7.009  1.5443  1.0697  0.8290
  254MOL0     H33480  10.083   5.412   7.035  0.2436  0.4046 -2.7237
  254MOL0     H33481   9.893   5.712   7.184 -1.5238  1.3865 -0.4168
  254MOL0     H33482   9.881   5.634   7.562  1.4981  0.8153 -0.3432
  254MOL0     H33483   9.732   5.693   7.480 -0.0212  2.6366  1.7775
  254MOL0     H33484   9.884   5.861   7.359 -0.5301 -0.5798  0.1620
  254MOL0     H33485  10.014   5.815   7.470  0.2901 -0.6576  1.1563
  254MOL0     H33486   9.842   5.853   7.656 -3.9792 -1.0089 -0.2153
  254MOL0     H33487   9.930   5.989   7.586  0.7639 -0.9422  5.0336
  254MOL0     H33488   9.737   6.039   7.443 -1.8107 -2.2262 -1.6849
  254MOL0     H33489   9.709   6.054   7.615 -3.0668 -0.6425 -1.0233
  254MOL0     H33490   9.544   6.140   7.509  1.5752 -3.0126 -1.0692
  254MOL0     H33491   9.291   6.236   7.516  1.0260  1.3499 -0.6999
  254MOL0     H33492   8.818   6.204   7.370  0.1974  1.9951  2.0045
  254MOL0     H33493   8.593   6.235   7.398 -0.9623 -0.6619 -2.7329
  254MOL0     H33494   8.443   6.293   7.589  2.9544 -1.3178 -0.5214
  254MOL0     H33495   8.462   6.199   7.731 -0.7829  0.7115 -0.5540
  254MOL0     H33496   8.234   6.134   7.730  4.0086 -0.0049  1.4342
  254MOL0     H33497   8.215   6.191   7.560  0.3604 -3.4801  0.2400
  254MOL0     H33498   8.132   6.379   7.666  1.8227  1.4131 -5.0715
  254MOL0     H33499   8.299   6.424   7.667 -1.8969  1.2901 -1.1545
  254MOL0     H33500   8.153   6.296   7.885 -0.3501  0.4572  1.0052
  254MOL0     H33501   8.314   6.356   7.904  0.4830  1.6826 -0.5022
  254MOL0     H33502   8.170   6.494   8.021 -0.3840  0.3188 -0.5042
  254MOL0     H33503   8.051   6.505   7.890  1.1805  0.1570 -1.8990
  254MOL0     H33504   8.316   6.651   7.873 -0.6069  0.2190  2.9555
  254MOL0     H33505   8.167   6.716   7.918  0.5989  0.3785 -0.4259
  254MOL0     H33506   8.208   6.614   7.647  2.4983  5.7741 -1.4079
  254MOL0     H33507   8.045   6.654   7.703 -0.7674  2.8815 -0.6573
  254MOL0     H33508   8.151   6.904   7.738 -0.0624 -2.4675  3.5377
  254MOL0     H33509   8.143   6.841   7.566  0.0914 -1.5056 -0.4949
  254MOL0     H33510   8.590   5.891   7.681  1.9959 -3.5590 -1.5661
  254MOL0     H33511   8.823   5.860   7.633  3.0453  1.9407  1.7832
  254MOL0     H33512   9.145   5.855   7.415 -0.2881  0.6196  1.5834
  254MOL0     H33513   9.405   5.776   7.461  0.9805  1.1951 -0.8291
  254MOL0     H33514   9.200   5.094   6.412  1.9429  0.8760  0.2814
  254MOL0     H33515   8.968   5.059   6.341 -0.2698 -0.3034  0.5059
  254MOL0     H33516   8.618   5.162   6.167  3.7398 -4.9667 -1.6677
  254MOL0     H33517   8.386   5.141   6.084  0.2928 -1.0925  1.2148
  254MOL0     H33518   8.172   5.160   5.931 -1.2324 -0.5056 -1.0392
  254MOL0     H33519   8.270   5.008   5.917 -1.5965 -0.6681  1.6114
  254MOL0     H33520   8.208   5.002   5.681 -1.5949 -3.1318  0.8881
  254MOL0     H33521   8.066   4.956   5.777 -1.5234  1.6299  0.5029
  254MOL0     H33522   8.117   5.209   5.619  0.0717  0.8025  0.8934
  254MOL0     H33523   8.011   5.220   5.750  0.3727  2.0920 -1.2773
  254MOL0     H33524   7.936   5.161   5.517 -3.3079  1.2260  2.1668
  254MOL0     H33525   7.982   4.998   5.542  0.2145 -1.4938  2.5081
  254MOL0     H33526   7.631   5.008   5.771 -0.8061  2.9278 -0.9441
  254MOL0     H33527   8.537   5.202   5.682 -2.3995  2.7817 -0.0606
  254MOL0     H33528   8.771   5.217   5.772  0.1069  2.0554  2.2757
  255MOL0     O33529   8.394   7.417   9.870  0.1869  0.3275  0.5205
  255MOL0     C33530   8.474   7.370   9.796  0.1563  0.8728  0.2506
  255MOL0     O33531   8.455   7.246   9.723 -0.4308  0.4423 -0.4675
  255MOL0     C33532   8.335   7.175   9.746 -0.4356  0.1634 -0.7151
  255MOL0     C33533   8.275   7.105   9.640  0.0388 -0.5989  0.8933
  255MOL0     C33534   8.157   7.033   9.658 -0.0388 -0.2805  0.1800
  255MOL0     C33535   8.106   7.012   9.783  0.1404 -0.3386 -0.1165
  255MOL0     O33536   8.008   6.921   9.791 -0.2533  0.6546 -0.0937
  255MOL0     C33537   7.928   6.909   9.913 -0.5035  0.2837 -0.4817
  255MOL0     C33538   7.830   6.794   9.894 -1.3933 -0.4812  0.5412
  255MOL0     C33539   7.767   6.758  10.031 -0.0233  1.0434  0.1284
  255MOL0     C33540   7.647   6.659  10.010 -0.8169 -0.5344  1.0402
  255MOL0     C33541   7.577   6.628  10.131  1.0778  0.1057 -0.1419
  255MOL0     C33542   7.662   6.539  10.213 -0.0399 -0.0267 -1.8481
  255MOL0     C33543   7.583   6.450  10.317 -0.4652  0.2457  0.1883
  255MOL0     C33544   7.517   6.320  10.250  0.7981 -0.3433 -0.0761
  255MOL0     N33545   7.471   6.228  10.353 -1.3093  0.3012  0.1693
  255MOL0     C33546   7.555   6.143  10.432  0.3990 -1.3184 -0.7517
  255MOL0     C33547   7.466   6.088  10.520 -0.3474  0.2017  0.5330
  255MOL0     C33548   7.501   6.003  10.645  1.3907 -0.3918  0.3643
  255MOL0     C33549   7.596   5.881  10.619 -0.5020 -0.4846  0.0518
  255MOL0     C33550   7.523   5.769  10.530 -0.3948 -1.5701 -0.8752
  255MOL0     C33551   7.528   5.797  10.377 -0.5651  0.3763 -0.8406
  255MOL0     O33552   7.466   5.694  10.324  0.1639 -0.3097  0.1316
  255MOL0     C33553   7.346   5.715  10.272  0.5416 -0.2019  1.1920
  255MOL0     C33554   7.306   5.661  10.153  0.1452 -0.1179  1.5602
  255MOL0     C33555   7.170   5.675  10.103 -1.3102  0.2822 -1.0430
  255MOL0     C33556   7.075   5.756  10.165  0.2182 -1.0654 -0.3923
  255MOL0     C33557   6.943   5.772  10.109  0.8278  1.3460 -0.5286
  255MOL0     O33558   6.924   5.720   9.985  0.1849 -0.4283  0.8050
  255MOL0     C33559   6.803   5.704   9.933  0.0902  0.2894  0.0078
  255MOL0     C33560   6.759   5.570   9.936  0.9157 -0.6946 -0.6760
  255MOL0     C33561   6.629   5.534   9.893  0.0962 -0.4315  0.1525
  255MOL0     C33562   6.554   5.632   9.827  0.2590  0.3379 -0.2425
  255MOL0     O33563   6.444   5.602   9.758  0.1841  0.1154 -0.2364
  255MOL0     C33564   6.372   5.475   9.771 -0.1535  0.4705 -1.2091
  255MOL0     C33565   6.231   5.495   9.721 -0.1389 -0.4721  0.9498
  255MOL0     C33566   6.154   5.371   9.698  0.5058  1.4899 -0.0267
  255MOL0     C33567   6.131   5.278   9.816  0.0294  1.0064  0.3478
  255MOL0     C33568   6.039   5.335   9.925 -0.7386 -0.0917  0.7558
  255MOL0     C33569   5.895   5.303   9.889 -0.4346  0.3609  0.1937
  255MOL0     C33570   5.824   5.354  10.013  1.4950  0.2470  0.1569
  255MOL0     C33571   5.676   5.336   9.982 -0.8434  0.2266  0.1514
  255MOL0    Cl33572   5.569   5.359  10.129 -0.1861  0.1659  0.7685
  255MOL0     C33573   6.596   5.763   9.817  0.2581  0.0204  0.8138
  255MOL0     C33574   6.725   5.800   9.874 -0.1243  0.4249 -0.6076
  255MOL0     O33575   6.857   5.834  10.176 -0.5219  0.8050  0.4814
  255MOL0     C33576   7.113   5.804  10.290  0.4362 -0.9599 -0.1081
  255MOL0     C33577   7.252   5.799  10.340  0.3831 -0.5296  0.5855
  255MOL0     N33578   7.340   6.140  10.488 -0.5258  0.2273  0.4551
  255MOL0     N33579   7.345   6.217  10.390 -0.0101 -0.4196  0.7604
  255MOL0     C33580   8.174   7.061   9.899  0.4871  0.4825  0.3234
  255MOL0     C33581   8.283   7.144   9.876  0.4338 -0.4810  0.0040
  255MOL0     C33582   8.598   7.434   9.793  0.6014  0.2187 -0.0489
  255MOL0     C33583   8.695   7.370   9.721  0.5796 -0.1404 -0.6917
  255MOL0     C33584   8.826   7.425   9.736 -0.1374 -0.3272 -0.7429
  255MOL0     C33585   8.860   7.542   9.797 -0.0325 -0.3254 -0.6670
  255MOL0     O33586   8.988   7.578   9.806  0.1179 -0.0838 -1.6612
  255MOL0     C33587   9.024   7.707   9.871 -0.6431  0.6107  1.1421
  255MOL0     C33588   9.171   7.735   9.872 -0.7893  0.8348 -1.1174
  255MOL0     C33589   9.248   7.775   9.742 -0.2952  0.6578  1.0356
  255MOL0     C33590   9.387   7.820   9.787  0.3981  1.6373 -0.2544
  255MOL0     C33591   9.375   7.946   9.850 -0.1689  0.1199  0.0937
  255MOL0     C33592   9.394   8.048   9.902  0.6671 -0.0254 -0.4253
  255MOL0     C33593   8.751   7.612   9.855  0.5328 -0.2394  0.5836
  255MOL0     C33594   8.624   7.555   9.861  0.0238  0.1231  0.5069
  255MOL0     H33595   8.308   7.136   9.542  0.0725 -0.8771  0.8167
  255MOL0     H33596   8.101   7.002   9.571  1.3158  2.8228 -1.9987
  255MOL0     H33597   7.892   7.011   9.931  3.8566  1.8847  0.5023
  255MOL0     H33598   7.989   6.883  10.000  2.0259  4.2592 -0.8048
  255MOL0     H33599   7.883   6.711   9.847  1.0424  1.6510 -0.7130
  255MOL0     H33600   7.750   6.830   9.827 -0.8478 -2.2855 -1.1652
  255MOL0     H33601   7.720   6.845  10.077 -2.8428 -0.8361  1.0435
  255MOL0     H33602   7.843   6.731  10.106 -0.4828  2.2380  1.0557
  255MOL0     H33603   7.581   6.693   9.929  1.3853  0.7955 -0.2985
  255MOL0     H33604   7.691   6.565   9.976 -0.1703 -0.9635  2.9323
  255MOL0     H33605   7.500   6.563  10.089  1.7070  0.3215 -1.6906
  255MOL0     H33606   7.540   6.716  10.185  1.1294 -1.2696  2.2836
  255MOL0     H33607   7.731   6.602  10.269  2.6850 -3.7995 -0.5780
  255MOL0     H33608   7.714   6.462  10.154 -4.2868 -2.4704 -2.8490
  255MOL0     H33609   7.655   6.400  10.382 -1.7198 -1.3798  0.3899
  255MOL0     H33610   7.505   6.508  10.367 -0.0297  1.7222 -0.7851
  255MOL0     H33611   7.593   6.273  10.189 -2.9093 -2.1658 -3.7691
  255MOL0     H33612   7.436   6.354  10.185  0.0142  0.7812  1.4179
  255MOL0     H33613   7.662   6.126  10.428  0.6788 -0.6778  1.9498
  255MOL0     H33614   7.412   5.968  10.697  2.8287 -1.3856  2.2979
  255MOL0     H33615   7.546   6.077  10.712 -1.1744  1.7238 -0.1038
  255MOL0     H33616   7.638   5.851  10.715 -1.9164 -0.2049  0.7844
  255MOL0     H33617   7.681   5.920  10.562  0.1771  0.0545  1.3803
  255MOL0     H33618   7.573   5.673  10.547  4.8659  1.0616  0.4519
  255MOL0     H33619   7.425   5.767  10.579  1.3355 -2.7092  2.8981
  255MOL0     H33620   7.631   5.787  10.341 -0.0959  1.6411  0.0813
  255MOL0     H33621   7.497   5.899  10.351  0.3872  1.1653  0.9704
  255MOL0     H33622   7.378   5.598  10.101 -2.7223 -2.6998  0.3777
  255MOL0     H33623   7.153   5.616  10.013  0.3129  0.3924 -1.4443
  255MOL0     H33624   6.827   5.497   9.979  0.9859 -0.1947  0.0684
  255MOL0     H33625   6.596   5.430   9.889 -4.8130  0.8733 -0.2768
  255MOL0     H33626   6.362   5.445   9.876 -2.4738  3.1211 -0.5349
  255MOL0     H33627   6.430   5.397   9.721 -0.5153  0.1851 -1.1851
  255MOL0     H33628   6.240   5.542   9.623 -4.2690 -0.8998  0.1656
  255MOL0     H33629   6.175   5.562   9.786  1.5788  0.9833  1.0139
  255MOL0     H33630   6.201   5.298   9.632  1.3459 -2.3772  4.2732
  255MOL0     H33631   6.059   5.393   9.649 -0.7607 -1.4228  0.8740
  255MOL0     H33632   6.078   5.186   9.789 -0.3084  0.8938  1.3378
  255MOL0     H33633   6.230   5.267   9.860  0.6657  1.5164 -0.9281
  255MOL0     H33634   6.054   5.444   9.932  2.9279 -0.4290  0.1346
  255MOL0     H33635   6.065   5.293  10.023 -6.2678 -2.8644  1.4180
  255MOL0     H33636   5.887   5.196   9.868  4.4476 -0.2835  0.4354
  255MOL0     H33637   5.872   5.366   9.802 -2.2746  0.6999  0.8885
  255MOL0     H33638   5.839   5.307  10.111  0.6191 -1.4826 -0.4970
  255MOL0     H33639   5.836   5.462  10.023  0.2096  0.3204  1.3949
  255MOL0     H33640   5.646   5.236   9.950  0.8103 -0.8239  1.6831
  255MOL0     H33641   5.647   5.411   9.908 -1.4075 -0.2377 -0.1066
  255MOL0     H33642   6.543   5.833   9.753 -0.5606 -1.4789 -0.2185
  255MOL0     H33643   6.761   5.902   9.866 -2.0968  1.0934 -1.6095
  255MOL0     H33644   7.041   5.860  10.350  0.2178 -1.1970 -0.1498
  255MOL0     H33645   7.286   5.849  10.431 -0.8424  0.1768  0.6770
  255MOL0     H33646   8.156   7.033  10.002  0.2454 -1.1115 -0.1221
  255MOL0     H33647   8.337   7.194   9.956  1.1107  1.6369 -1.6821
  255MOL0     H33648   8.695   7.284   9.655 -1.3130  0.0261 -0.9729
  255MOL0     H33649   8.912   7.378   9.689  3.0386  0.7418  3.4179
  255MOL0     H33650   8.999   7.708   9.977  0.7715 -0.3433  1.5071
  255MOL0     H33651   8.975   7.795   9.829  1.2689  0.9028 -0.6428
  255MOL0     H33652   9.196   7.810   9.948  2.4187 -1.8199  0.7090
  255MOL0     H33653   9.219   7.650   9.921 -0.1078 -0.6373 -4.1041
  255MOL0     H33654   9.197   7.848   9.678 -0.6450 -2.0772 -2.0825
  255MOL0     H33655   9.264   7.687   9.680  1.3184  0.9543  0.9993
  255MOL0     H33656   9.434   7.750   9.857 -0.1826  4.0973  2.8247
  255MOL0     H33657   9.460   7.842   9.709  1.2553  0.6636  0.2461
  255MOL0     H33658   9.422   8.146   9.934  0.0308 -0.4834  1.6144
  255MOL0     H33659   8.757   7.709   9.903 -2.7371 -0.8978  2.6809
  255MOL0     H33660   8.548   7.608   9.917  1.7938  2.2581  0.9915
  256MOL0     O33661   6.476   4.211   4.561 -0.6586 -0.5884  0.1348
  256MOL0     C33662   6.454   4.109   4.631  0.3868 -0.8831 -0.8155
  256MOL0     O33663   6.541   4.055   4.728  0.2692 -0.7602  0.2470
  256MOL0     C33664   6.668   4.104   4.720 -0.1258  0.3503 -0.5128
  256MOL0     C33665   6.764   4.078   4.627  0.4257  0.3865  1.0660
  256MOL0     C33666   6.890   4.119   4.640 -0.8772 -0.2463  0.3499
  256MOL0     C33667   6.933   4.170   4.765  1.4194 -1.0958  0.1564
  256MOL0     O33668   7.065   4.192   4.794 -0.2057 -0.1777  0.1402
  256MOL0     C33669   7.166   4.120   4.728  0.6507 -0.9036 -0.1922
  256MOL0     C33670   7.311   4.137   4.785 -0.3435 -0.1920  1.1212
  256MOL0     C33671   7.320   4.167   4.932 -0.0855 -0.8916 -0.7091
  256MOL0     C33672   7.457   4.199   4.987 -0.1101  0.2494  0.0971
  256MOL0     C33673   7.478   4.192   5.143 -0.2498  0.3086 -0.4848
  256MOL0     C33674   7.625   4.213   5.193 -1.0060  0.2962  0.7290
  256MOL0     C33675   7.707   4.081   5.169  0.4845 -0.5198  0.8040
  256MOL0     C33676   7.859   4.095   5.205  0.1224  0.0046  0.3059
  256MOL0     N33677   7.953   3.989   5.166 -0.0346 -0.2990 -0.0226
  256MOL0     C33678   8.059   4.015   5.084  0.0724  0.1455  0.5940
  256MOL0     C33679   8.119   3.892   5.089 -2.1171  0.5896  0.1130
  256MOL0     C33680   8.236   3.858   5.001 -0.6562 -1.0097  0.9747
  256MOL0     C33681   8.218   3.881   4.852 -0.2048 -0.0201  0.3465
  256MOL0     C33682   8.078   3.821   4.798  0.2461  1.0979 -0.3558
  256MOL0     C33683   8.053   3.666   4.817 -0.0456 -0.2266  1.0436
  256MOL0     O33684   8.167   3.599   4.766 -0.5930 -0.1004  0.1882
  256MOL0     C33685   8.163   3.561   4.635 -0.8287  1.2150  1.1541
  256MOL0     C33686   8.286   3.527   4.593 -0.4773  0.0780  0.4288
  256MOL0     C33687   8.312   3.498   4.462  0.0028 -0.0571 -0.2061
  256MOL0     C33688   8.203   3.483   4.369  0.9706  1.1911  0.7050
  256MOL0     C33689   8.222   3.452   4.220 -0.6085 -1.0773 -0.6606
  256MOL0     O33690   8.358   3.476   4.176  1.2806 -0.3570  0.7468
  256MOL0     C33691   8.388   3.464   4.045 -0.0032 -0.2558  0.0866
  256MOL0     C33692   8.292   3.503   3.944  0.1198 -0.1053 -0.4930
  256MOL0     C33693   8.324   3.484   3.804 -0.0163  0.7563  1.2434
  256MOL0     C33694   8.459   3.441   3.767  0.3055 -0.2749 -0.1023
  256MOL0     O33695   8.516   3.428   3.645  0.0690  1.0710 -0.7899
  256MOL0     C33696   8.441   3.369   3.540 -0.1533  0.1595  0.0187
  256MOL0     C33697   8.543   3.373   3.425 -0.0243 -0.0328 -0.1863
  256MOL0     C33698   8.618   3.244   3.396 -0.1811  0.4135  0.2380
  256MOL0     C33699   8.692   3.188   3.519  0.6902  0.3563  0.0593
  256MOL0     C33700   8.742   3.042   3.497 -0.2242  0.1232  0.0873
  256MOL0     C33701   8.815   2.985   3.624  0.1027 -0.4546  0.0421
  256MOL0     C33702   8.713   2.944   3.730  0.9742 -0.5168  0.4254
  256MOL0     C33703   8.778   2.850   3.847  0.2210 -0.6359  0.0306
  256MOL0    Cl33704   8.884   2.954   3.955  0.0025  0.5307 -0.6584
  256MOL0     C33705   8.546   3.403   3.867  0.5497  0.1658 -0.7073
  256MOL0     C33706   8.506   3.410   4.006 -0.1511 -1.2829 -0.6867
  256MOL0     O33707   8.129   3.402   4.156  0.0527 -0.1016 -0.6479
  256MOL0     C33708   8.070   3.509   4.413 -0.2272  0.8457  0.2943
  256MOL0     C33709   8.053   3.542   4.549  0.9890 -1.0038  0.3363
  256MOL0     N33710   8.064   3.803   5.174  0.9447 -0.1262 -0.1478
  256MOL0     N33711   7.956   3.861   5.221  0.7043 -0.1733 -0.4934
  256MOL0     C33712   6.844   4.191   4.866  0.2022  0.0953  0.1267
  256MOL0     C33713   6.704   4.158   4.843 -1.0272 -0.3916  0.0255
  256MOL0     C33714   6.331   4.044   4.613 -0.2407  0.3355  0.4197
  256MOL0     C33715   6.312   3.911   4.658  0.0429 -0.5306  0.1642
  256MOL0     C33716   6.195   3.837   4.622  0.2366  0.2597 -0.5811
  256MOL0     C33717   6.086   3.899   4.561  0.0033 -0.2184  1.3688
  256MOL0     O33718   5.980   3.814   4.553 -0.4412 -0.6856  0.8614
  256MOL0     C33719   5.853   3.859   4.494  0.3551  0.1174  0.1021
  256MOL0     C33720   5.851   3.843   4.344  0.4263  0.8499  0.4503
  256MOL0     C33721   5.887   3.692   4.304  0.3116  0.5009  0.9754
  256MOL0     C33722   5.929   3.703   4.161  0.2111 -0.1467 -0.3662
  256MOL0     C33723   6.000   3.580   4.122  0.3857 -0.4165  0.8182
  256MOL0     C33724   6.057   3.472   4.120  0.1967  0.0327 -0.7865
  256MOL0     C33725   6.103   4.030   4.511 -1.2886 -0.6199 -0.2977
  256MOL0     C33726   6.223   4.096   4.535 -0.9167  0.3990 -0.0866
  256MOL0     H33727   6.731   4.038   4.532 -0.2470  0.3361  1.3153
  256MOL0     H33728   6.945   4.109   4.547 -0.2379 -0.4756  0.7528
  256MOL0     H33729   7.161   4.148   4.623  1.4087 -2.0854 -0.5740
  256MOL0     H33730   7.147   4.012   4.723  1.2417 -1.0333  0.2052
  256MOL0     H33731   7.351   4.229   4.741 -0.1534  0.1056  1.9030
  256MOL0     H33732   7.370   4.046   4.766  1.5918  1.1303  0.5218
  256MOL0     H33733   7.279   4.077   4.979 -0.0026 -0.7227 -0.3066
  256MOL0     H33734   7.252   4.251   4.953  0.3437 -0.7724  0.2417
  256MOL0     H33735   7.532   4.132   4.943  2.5649  0.6076  3.6845
  256MOL0     H33736   7.484   4.295   4.943 -0.8932  0.4720  0.0772
  256MOL0     H33737   7.445   4.109   5.207  1.7947  0.7196  1.2042
  256MOL0     H33738   7.423   4.276   5.188  1.3341  0.4940  1.2396
  256MOL0     H33739   7.637   4.239   5.299  3.1381 -2.2702  1.1208
  256MOL0     H33740   7.663   4.291   5.126 -0.5251  2.0914  2.9576
  256MOL0     H33741   7.653   4.006   5.227  0.9428 -1.0867  0.5076
  256MOL0     H33742   7.705   4.061   5.061 -0.3660  3.2222 -0.0301
  256MOL0     H33743   7.860   4.086   5.314 -0.9357 -1.0121  0.2447
  256MOL0     H33744   7.903   4.189   5.169  3.5970 -1.9174 -1.0451
  256MOL0     H33745   8.100   4.094   5.023 -1.4882 -0.0757 -0.8180
  256MOL0     H33746   8.270   3.754   5.005  1.3142 -0.4019  1.3486
  256MOL0     H33747   8.314   3.926   5.037 -3.6351  2.0009  2.3335
  256MOL0     H33748   8.307   3.826   4.820  0.9391  1.8067  0.2785
  256MOL0     H33749   8.228   3.985   4.820  2.0408 -0.9283 -2.2507
  256MOL0     H33750   7.992   3.880   4.832 -0.2650 -0.4546  1.2141
  256MOL0     H33751   8.072   3.815   4.689 -0.5636  0.2141 -0.2763
  256MOL0     H33752   7.969   3.620   4.763  0.8517  1.0680 -1.6744
  256MOL0     H33753   8.028   3.640   4.920  0.2539 -1.2251  0.8755
  256MOL0     H33754   8.369   3.546   4.660  2.1116 -2.1987 -1.8830
  256MOL0     H33755   8.416   3.509   4.433  0.6715  2.4298  2.6335
  256MOL0     H33756   8.198   3.551   3.967 -0.7070 -0.7566 -2.3240
  256MOL0     H33757   8.247   3.514   3.734  0.6276  2.1904  1.1089
  256MOL0     H33758   8.351   3.427   3.517 -0.2798 -0.3091 -0.7179
  256MOL0     H33759   8.407   3.265   3.551 -0.7236  0.3969  0.5053
  256MOL0     H33760   8.616   3.452   3.445 -0.4264  0.8806 -2.0677
  256MOL0     H33761   8.493   3.412   3.336 -1.2453  1.1226  0.9654
  256MOL0     H33762   8.688   3.257   3.313  0.0272  4.5124  0.8634
  256MOL0     H33763   8.536   3.176   3.370  0.4469 -0.7135  1.0846
  256MOL0     H33764   8.770   3.264   3.524  1.3531 -0.3863  1.3092
  256MOL0     H33765   8.636   3.196   3.613  2.2277  1.7350  0.9042
  256MOL0     H33766   8.823   3.047   3.425  1.9668 -2.2870  2.1651
  256MOL0     H33767   8.650   2.984   3.485 -0.9855  0.3037  3.6906
  256MOL0     H33768   8.880   3.056   3.675  3.5167 -4.2339  1.4565
  256MOL0     H33769   8.866   2.894   3.590  0.1639 -0.2821 -0.3377
  256MOL0     H33770   8.665   3.037   3.762 -0.9993 -1.6331  0.9343
  256MOL0     H33771   8.632   2.888   3.682  1.7609  0.0903 -1.7213
  256MOL0     H33772   8.833   2.764   3.808  3.5626  0.5562  1.7246
  256MOL0     H33773   8.699   2.802   3.907  1.7984 -3.3251  0.1066
  256MOL0     H33774   8.637   3.359   3.828 -1.0603 -3.3289 -0.9136
  256MOL0     H33775   8.571   3.381   4.088 -0.1215 -1.1677 -0.6690
  256MOL0     H33776   7.987   3.501   4.343 -0.4225  0.6241  0.5490
  256MOL0     H33777   7.949   3.569   4.562  0.7475  2.7526 -5.4702
  256MOL0     H33778   6.881   4.219   4.964  3.0615 -0.3278 -0.7326
  256MOL0     H33779   6.642   4.187   4.928  2.4519  1.9872  1.9772
  256MOL0     H33780   6.379   3.850   4.717  0.5104  0.2072  0.4131
  256MOL0     H33781   6.196   3.732   4.648 -0.9059  0.1409 -0.9572
  256MOL0     H33782   5.826   3.960   4.526 -2.5695 -1.2459  2.3563
  256MOL0     H33783   5.774   3.796   4.536 -0.0400  0.2698 -0.4092
  256MOL0     H33784   5.756   3.877   4.302 -0.6193  2.2441  3.6349
  256MOL0     H33785   5.931   3.912   4.314 -1.0218  2.3085 -0.2256
  256MOL0     H33786   5.803   3.622   4.309  0.4639  0.2834  0.5307
  256MOL0     H33787   5.969   3.653   4.365  0.6646 -4.2693 -2.0349
  256MOL0     H33788   5.846   3.739   4.099  2.7967  2.5857 -2.5325
  256MOL0     H33789   5.999   3.786   4.145 -1.7050  1.6326  0.0005
  256MOL0     H33790   6.100   3.374   4.134  0.0310  0.3710  2.9594
  256MOL0     H33791   6.028   4.081   4.451 -0.5245  1.7065  0.5884
  256MOL0     H33792   6.237   4.198   4.499  0.1348  0.3495  0.1434
  257MOL0     O33793   5.816   3.016   6.363 -0.1049 -0.2339  1.1015
  257MOL0     C33794   5.781   2.916   6.313 -0.2744 -0.0731 -0.4550
  257MOL0     O33795   5.687   2.908   6.208 -0.6900 -0.0144 -1.4243
  257MOL0     C33796   5.683   3.026   6.129  0.8534 -0.2553 -0.2051
  257MOL0     C33797   5.795   3.083   6.071  0.1886 -0.0527 -1.2267
  257MOL0     C33798   5.787   3.207   6.008 -0.3811 -0.2536  0.1489
  257MOL0     C33799   5.672   3.270   5.991 -0.4544 -0.9824 -0.1079
  257MOL0     O33800   5.659   3.392   5.929  1.1169  0.8645  0.1621
  257MOL0     C33801   5.668   3.379   5.788  0.0303  0.0185  0.6538
  257MOL0     C33802   5.735   3.501   5.749  0.1384 -0.3491  0.6143
  257MOL0     C33803   5.641   3.623   5.761  0.8273  0.2848 -0.4540
  257MOL0     C33804   5.728   3.753   5.710 -0.1339  1.5301  0.4271
  257MOL0     C33805   5.840   3.797   5.806  0.2891 -0.2307 -0.1625
  257MOL0     C33806   5.780   3.850   5.932  0.5003 -0.6662 -0.4723
  257MOL0     C33807   5.657   3.956   5.898 -0.0140 -0.3345 -0.2747
  257MOL0     C33808   5.638   4.035   6.021  0.2854 -0.1723 -0.0331
  257MOL0     N33809   5.511   4.119   6.010  0.0133  0.2841  0.3852
  257MOL0     C33810   5.505   4.254   5.984 -0.2008 -0.1496  0.3976
  257MOL0     C33811   5.381   4.279   5.935  1.3953 -0.4618  0.6664
  257MOL0     C33812   5.326   4.412   5.877 -1.1264  0.1356 -0.3305
  257MOL0     C33813   5.300   4.420   5.725 -0.2361 -0.0630  0.1645
  257MOL0     C33814   5.394   4.331   5.634  0.7786 -0.2638 -0.6476
  257MOL0     C33815   5.317   4.327   5.497 -0.2759  0.6397  0.7352
  257MOL0     O33816   5.361   4.227   5.409  0.4158  0.4460 -0.3694
  257MOL0     C33817   5.322   4.236   5.280  0.7048 -0.4277 -0.2438
  257MOL0     C33818   5.395   4.307   5.188  0.5354  0.1674 -1.1764
  257MOL0     C33819   5.341   4.308   5.055 -0.2990  0.3174  0.7887
  257MOL0     C33820   5.224   4.232   5.021 -0.3170 -0.2456  0.3278
  257MOL0     C33821   5.171   4.238   4.888 -1.0594 -0.5075  1.0240
  257MOL0     O33822   5.031   4.260   4.865 -0.8707  0.1590 -1.2376
  257MOL0     C33823   4.970   4.257   4.747  0.3640 -0.9105  0.6140
  257MOL0     C33824   4.833   4.295   4.745  1.0657 -0.0540 -0.2493
  257MOL0     C33825   4.748   4.288   4.638  0.4489 -0.1223  1.1749
  257MOL0     C33826   4.797   4.224   4.515 -0.3367  0.0283 -1.1700
  257MOL0     O33827   4.717   4.194   4.412  0.4725  0.0605 -0.2583
  257MOL0     C33828   4.595   4.269   4.376  0.1194 -0.0865 -0.0195
  257MOL0     C33829   4.537   4.209   4.245 -0.3796 -0.0987 -0.5760
  257MOL0     C33830   4.438   4.092   4.265  1.0859  0.3735  0.4354
  257MOL0     C33831   4.492   3.990   4.361  0.8171  0.2760 -1.1345
  257MOL0     C33832   4.596   3.903   4.288 -0.1644  0.5310  0.3889
  257MOL0     C33833   4.685   3.843   4.390 -0.1108  0.2552  0.3833
  257MOL0     C33834   4.790   3.743   4.318  1.3291  0.4673  0.0880
  257MOL0     C33835   4.914   3.823   4.284 -1.0614 -0.0189  0.8045
  257MOL0    Cl33836   5.021   3.858   4.432 -0.2552 -0.1031  0.0004
  257MOL0     C33837   4.930   4.187   4.510 -0.4899  0.3718  0.3957
  257MOL0     C33838   5.021   4.207   4.623 -0.3473 -0.0614  0.1244
  257MOL0     O33839   5.251   4.238   4.804 -0.4932  0.4655  0.2625
  257MOL0     C33840   5.151   4.171   5.121  0.3087  0.4976  0.2797
  257MOL0     C33841   5.203   4.171   5.246 -0.1567 -0.6058 -0.2828
  257MOL0     N33842   5.312   4.155   5.933  0.1771 -0.0032  0.7159
  257MOL0     N33843   5.394   4.061   5.978  0.2481 -0.7496 -0.2989
  257MOL0     C33844   5.557   3.217   6.045 -0.1034  0.5201  0.2261
  257MOL0     C33845   5.560   3.092   6.109  0.2113  1.0931  0.1361
  257MOL0     C33846   5.838   2.793   6.348  0.2158  0.3467 -0.1101
  257MOL0     C33847   5.773   2.670   6.369 -0.6618  0.0933  0.0790
  257MOL0     C33848   5.840   2.548   6.405  0.5667 -0.4402  0.2610
  257MOL0     C33849   5.980   2.548   6.426  0.4545 -0.4257  0.2697
  257MOL0     O33850   6.047   2.430   6.460 -0.1313  0.4781 -0.0082
  257MOL0     C33851   6.026   2.311   6.378  0.0644 -0.2366 -0.4744
  257MOL0     C33852   6.130   2.209   6.403 -0.6168  0.5884  0.0139
  257MOL0     C33853   6.270   2.266   6.381 -1.4731  0.0461  0.5896
  257MOL0     C33854   6.363   2.136   6.339 -0.7526 -0.8810 -0.0281
  257MOL0     C33855   6.365   2.050   6.460 -0.7749 -0.2543 -0.7670
  257MOL0     C33856   6.357   1.974   6.555 -0.1338 -0.4062  0.7435
  257MOL0     C33857   6.049   2.663   6.401 -0.0035 -0.1274 -0.5983
  257MOL0     C33858   5.978   2.777   6.372 -0.3849 -0.9989  0.2722
  257MOL0     H33859   5.892   3.037   6.080  0.1497  0.1759  0.7059
  257MOL0     H33860   5.870   3.248   5.951  0.0638  0.5799  1.3450
  257MOL0     H33861   5.568   3.376   5.743  0.0210  2.7118  0.3306
  257MOL0     H33862   5.729   3.296   5.749 -2.1140 -0.4550 -2.0432
  257MOL0     H33863   5.752   3.489   5.642  1.6925  2.2214  0.5023
  257MOL0     H33864   5.830   3.526   5.797  0.4533  1.0031 -0.6342
  257MOL0     H33865   5.604   3.638   5.863 -0.6653 -0.3648 -0.8808
  257MOL0     H33866   5.551   3.605   5.701  1.4352  2.0503 -2.0162
  257MOL0     H33867   5.776   3.733   5.614  0.8876 -1.0634  1.3976
  257MOL0     H33868   5.653   3.830   5.690 -1.7122  0.0128  0.1872
  257MOL0     H33869   5.890   3.874   5.747  0.2664 -1.0077 -1.2239
  257MOL0     H33870   5.914   3.718   5.827  0.0044 -2.0319 -4.8383
  257MOL0     H33871   5.859   3.908   5.981  0.4773  0.3925 -1.6391
  257MOL0     H33872   5.738   3.769   5.993 -0.9373 -0.0282 -0.5752
  257MOL0     H33873   5.676   4.034   5.824 -0.6421  1.2756  1.2098
  257MOL0     H33874   5.562   3.910   5.870 -0.5087  1.0049 -0.8517
  257MOL0     H33875   5.719   4.108   6.025 -0.4461  0.6662 -0.3276
  257MOL0     H33876   5.638   3.967   6.107 -0.9153  4.0790  3.6523
  257MOL0     H33877   5.596   4.313   5.986  0.7856 -1.5087 -1.3000
  257MOL0     H33878   5.407   4.481   5.902 -1.3853 -0.8642  3.9338
  257MOL0     H33879   5.232   4.439   5.926 -1.0086  5.1770 -2.3297
  257MOL0     H33880   5.295   4.519   5.679  1.0669  0.4133  1.0132
  257MOL0     H33881   5.194   4.394   5.724 -0.2973  0.1816  0.1821
  257MOL0     H33882   5.490   4.381   5.614  0.7125  0.2203  0.1860
  257MOL0     H33883   5.392   4.227   5.668 -2.5874 -0.5899 -1.5325
  257MOL0     H33884   5.311   4.424   5.447  0.3794  1.6109  2.4504
  257MOL0     H33885   5.215   4.295   5.522 -0.3855 -0.1584 -0.6531
  257MOL0     H33886   5.485   4.365   5.207 -1.0207  1.9686  1.2727
  257MOL0     H33887   5.387   4.366   4.976 -0.4131 -0.0799  0.4312
  257MOL0     H33888   4.790   4.320   4.841  0.2205  0.9850 -0.8765
  257MOL0     H33889   4.646   4.324   4.651 -0.8832 -1.5607 -3.3288
  257MOL0     H33890   4.621   4.375   4.373  1.1554 -0.3129 -3.9988
  257MOL0     H33891   4.523   4.263   4.459 -0.3742  1.9929 -0.2470
  257MOL0     H33892   4.619   4.184   4.176 -0.2227  2.7479 -1.5348
  257MOL0     H33893   4.491   4.291   4.189 -0.6723  1.0739  1.3152
  257MOL0     H33894   4.415   4.046   4.168  1.0498  1.0668  0.1155
  257MOL0     H33895   4.352   4.133   4.320  0.2289  2.3166 -2.1613
  257MOL0     H33896   4.537   4.042   4.446  1.1983  3.2628 -2.9966
  257MOL0     H33897   4.407   3.932   4.399 -0.6173  2.7201 -0.4109
  257MOL0     H33898   4.654   3.974   4.229 -1.0634  1.4266  0.5516
  257MOL0     H33899   4.565   3.818   4.227  2.3822 -2.2368  2.6761
  257MOL0     H33900   4.626   3.782   4.458  0.7557  2.1742  3.0533
  257MOL0     H33901   4.747   3.911   4.450  2.6031 -1.8121  0.1341
  257MOL0     H33902   4.807   3.661   4.388 -0.8510  0.7902  1.0861
  257MOL0     H33903   4.747   3.710   4.223 -2.9159  0.0584  1.9227
  257MOL0     H33904   4.887   3.910   4.224 -3.3391 -0.7580  0.6754
  257MOL0     H33905   4.974   3.749   4.231 -2.3268 -0.0470 -0.6650
  257MOL0     H33906   4.974   4.124   4.433 -2.8953 -2.6662  1.3350
  257MOL0     H33907   5.115   4.151   4.624 -1.1272 -1.4450 -0.4254
  257MOL0     H33908   5.054   4.127   5.102  0.9228 -0.9690  0.3899
  257MOL0     H33909   5.157   4.133   5.337  1.1047  0.0421  0.6649
  257MOL0     H33910   5.463   3.272   6.039  0.2616  1.5420  2.5184
  257MOL0     H33911   5.472   3.045   6.152  1.3081 -0.3552  0.8988
  257MOL0     H33912   5.665   2.665   6.361 -0.6211 -2.7630  0.2862
  257MOL0     H33913   5.790   2.460   6.445 -2.1783  0.8744 -0.0842
  257MOL0     H33914   6.019   2.337   6.272 -4.0007  1.5822  0.0567
  257MOL0     H33915   5.928   2.271   6.402  0.6152  0.1623  2.9206
  257MOL0     H33916   6.120   2.168   6.504 -2.1739  0.6358 -0.0874
  257MOL0     H33917   6.106   2.120   6.343 -0.3054 -1.2855  2.4988
  257MOL0     H33918   6.327   2.303   6.466  1.9566 -0.6438 -1.2229
  257MOL0     H33919   6.263   2.346   6.307  2.5390 -0.1801 -0.2920
  257MOL0     H33920   6.325   2.062   6.267  1.6714 -2.9296  0.6292
  257MOL0     H33921   6.463   2.166   6.305  0.2998 -2.5745  1.3674
  257MOL0     H33922   6.355   1.899   6.631  0.0790 -2.1526 -0.9121
  257MOL0     H33923   6.157   2.665   6.414 -0.1027  1.1938  0.2367
  257MOL0     H33924   6.031   2.867   6.342  0.8480 -1.6189  0.5145
  258MOL0     O33925   1.063   0.516   7.683 -0.4048  0.7349 -0.3708
  258MOL0     C33926   1.182   0.478   7.667  0.1100 -1.1467  1.0511
  258MOL0     O33927   1.243   0.486   7.539  0.5256 -0.4302 -0.7269
  258MOL0     C33928   1.174   0.525   7.422  0.7632  0.3832 -0.7001
  258MOL0     C33929   1.198   0.655   7.369  1.6547 -0.1646 -0.9605
  258MOL0     C33930   1.127   0.697   7.250 -0.3063  0.2019  0.1361
  258MOL0     C33931   1.046   0.606   7.175 -0.2114 -0.6092 -0.5300
  258MOL0     O33932   1.004   0.627   7.050 -0.1278 -0.3973 -0.0640
  258MOL0     C33933   1.083   0.656   6.943  0.5819  0.3978  0.8092
  258MOL0     C33934   0.997   0.660   6.815 -0.0891 -0.1609 -0.1791
  258MOL0     C33935   1.053   0.704   6.691 -0.1058  0.8331  0.0082
  258MOL0     C33936   1.119   0.839   6.703  0.7322  0.0932 -0.0017
  258MOL0     C33937   1.224   0.880   6.599  0.6560 -0.3034 -0.0560
  258MOL0     C33938   1.198   0.910   6.454  0.5012 -0.0817 -0.3196
  258MOL0     C33939   1.084   0.996   6.448 -0.0041  0.2979  0.4175
  258MOL0     C33940   1.073   1.068   6.312  0.6987 -0.9377 -0.2253
  258MOL0     N33941   0.949   1.144   6.287  0.7684  0.2115  0.3834
  258MOL0     C33942   0.846   1.163   6.368 -0.2904  0.3066 -0.0837
  258MOL0     C33943   0.758   1.237   6.287  0.1326  0.0763 -0.3716
  258MOL0     C33944   0.625   1.284   6.332  0.4537 -0.3362  0.6762
  258MOL0     C33945   0.513   1.182   6.301  0.1466 -0.5426  0.5985
  258MOL0     C33946   0.390   1.216   6.379  0.7793 -0.6957 -0.0051
  258MOL0     C33947   0.328   1.348   6.344  0.9792  1.0298  0.4549
  258MOL0     O33948   0.276   1.342   6.211 -0.8600  0.5732 -0.0287
  258MOL0     C33949   0.143   1.386   6.202  0.7201  0.5533  0.1694
  258MOL0     C33950   0.046   1.296   6.254  0.4051  0.0020  0.5528
  258MOL0     C33951  -0.085   1.290   6.205 -0.4446 -0.2352 -0.3517
  258MOL0     C33952  -0.127   1.384   6.105  0.9988 -1.1315 -0.0058
  258MOL0     C33953  -0.268   1.389   6.052  0.1185 -0.5294  1.1052
  258MOL0     O33954  -0.352   1.287   6.084  0.5050 -0.3245  0.4238
  258MOL0     C33955  -0.472   1.263   6.018  0.1136 -0.1341 -0.0772
  258MOL0     C33956  -0.573   1.352   5.990 -0.1766 -0.4145 -0.5368
  258MOL0     C33957  -0.703   1.310   5.951 -0.0583 -0.3770  0.5592
  258MOL0     C33958  -0.729   1.184   5.930  0.8591  0.8024  0.8431
  258MOL0     O33959  -0.859   1.152   5.887  0.6530  0.0412  0.0864
  258MOL0     C33960  -0.940   1.055   5.958  0.3381  0.5173 -0.7767
  258MOL0     C33961  -0.934   0.933   5.866  0.4057  0.2952  0.8083
  258MOL0     C33962  -1.000   0.949   5.726 -0.1425 -1.0825 -0.0075
  258MOL0     C33963  -1.012   0.808   5.665  0.2772  0.4684 -0.3893
  258MOL0     C33964  -1.119   0.721   5.722 -0.3882 -0.6387 -0.4620
  258MOL0     C33965  -1.152   0.604   5.616 -0.4887 -0.2231 -0.2374
  258MOL0     C33966  -1.031   0.531   5.557  0.1362  0.0711 -0.3020
  258MOL0     C33967  -1.095   0.409   5.494 -0.2337 -0.8354  0.3934
  258MOL0    Cl33968  -0.999   0.344   5.355 -0.2187 -0.3783  0.0907
  258MOL0     C33969  -0.641   1.086   5.968  0.5776  0.0575  0.0157
  258MOL0     C33970  -0.510   1.128   6.014 -0.1818  0.5513  0.1659
  258MOL0     O33971  -0.298   1.481   5.972 -1.2137  0.1892 -0.2762
  258MOL0     C33972  -0.032   1.488   6.057  0.2568 -1.1519 -0.5187
  258MOL0     C33973   0.103   1.477   6.101 -0.0775  0.1192 -0.1843
  258MOL0     N33974   0.801   1.243   6.157 -0.0622 -0.9000 -0.4724
  258MOL0     N33975   0.917   1.183   6.161  0.1823  0.2160  0.0991
  258MOL0     C33976   1.032   0.479   7.234  0.1783  0.3187  0.3170
  258MOL0     C33977   1.089   0.435   7.355 -0.0343  0.0256  0.0221
  258MOL0     C33978   1.249   0.416   7.779  0.1009 -0.5984  0.8725
  258MOL0     C33979   1.393   0.390   7.769  0.6332 -0.1875 -0.2914
  258MOL0     C33980   1.463   0.334   7.887 -0.3952  0.2500 -0.9990
  258MOL0     C33981   1.392   0.297   8.000  0.4752  0.4286 -0.4593
  258MOL0     O33982   1.439   0.230   8.116 -0.3635 -0.1149 -0.3852
  258MOL0     C33983   1.581   0.225   8.126 -0.9380  0.1000  0.2962
  258MOL0     C33984   1.629   0.182   8.262 -0.9751  1.1117  0.1802
  258MOL0     C33985   1.779   0.158   8.265 -0.1512  0.6800 -0.1688
  258MOL0     C33986   1.803   0.046   8.376  0.6860  0.0659  0.7908
  258MOL0     C33987   1.782  -0.085   8.313  0.7525 -0.4170 -0.6282
  258MOL0     C33988   1.781  -0.190   8.259  0.1531 -0.3720  0.2964
  258MOL0     C33989   1.262   0.348   8.017 -0.2132 -0.0016  0.8488
  258MOL0     C33990   1.190   0.403   7.907 -0.6830 -0.1353 -0.6327
  258MOL0     H33991   1.273   0.724   7.408 -0.0141  0.5102  1.2847
  258MOL0     H33992   1.141   0.792   7.200  2.4102  1.6523  3.2956
  258MOL0     H33993   1.164   0.589   6.912  2.4490  3.6603 -2.0415
  258MOL0     H33994   1.145   0.744   6.962 -0.6192  2.7392 -4.2719
  258MOL0     H33995   0.917   0.732   6.835  2.8713  2.9533  1.6031
  258MOL0     H33996   0.955   0.559   6.804  0.0930 -0.8361  3.7480
  258MOL0     H33997   0.979   0.712   6.611 -2.4815  0.5650  2.0539
  258MOL0     H33998   1.126   0.625   6.673  1.1921  1.3277  2.5817
  258MOL0     H33999   1.041   0.915   6.694 -1.1610 -1.8667 -0.8556
  258MOL0     H34000   1.164   0.846   6.803 -1.3890  2.2660  0.9142
  258MOL0     H34001   1.310   0.814   6.611  0.3865 -0.4351  1.4633
  258MOL0     H34002   1.254   0.978   6.637 -3.3610  1.7968 -1.6867
  258MOL0     H34003   1.180   0.818   6.398  1.3429  0.1224 -0.9553
  258MOL0     H34004   1.290   0.957   6.418 -0.2113  0.5850 -1.3239
  258MOL0     H34005   0.985   0.950   6.456 -0.1224 -0.7774 -4.4185
  258MOL0     H34006   1.098   1.079   6.519 -0.3487  0.0717  0.7532
  258MOL0     H34007   1.088   1.001   6.226  0.0851 -0.8388 -0.4166
  258MOL0     H34008   1.153   1.143   6.320  1.2750 -1.6754  1.3183
  258MOL0     H34009   0.841   1.121   6.468 -0.0082 -3.7988 -1.6187
  258MOL0     H34010   0.593   1.382   6.297  0.7221  1.3597  4.7081
  258MOL0     H34011   0.625   1.292   6.441  0.9213  3.2815  0.5316
  258MOL0     H34012   0.556   1.084   6.324  0.3441 -0.3138  1.2276
  258MOL0     H34013   0.482   1.191   6.196  1.3273  2.3414  0.3978
  258MOL0     H34014   0.306   1.148   6.360  0.1419  0.8564 -3.7641
  258MOL0     H34015   0.413   1.204   6.485  2.0814 -2.4339 -0.4387
  258MOL0     H34016   0.400   1.431   6.344  0.4074  1.5317  0.5043
  258MOL0     H34017   0.255   1.373   6.422  0.3976  1.4517 -0.2187
  258MOL0     H34018   0.079   1.224   6.329  3.6235  1.9453  1.1833
  258MOL0     H34019  -0.147   1.214   6.252  1.4444  0.2249  3.2210
  258MOL0     H34020  -0.537   1.453   6.001  1.9663 -1.2908  1.2205
  258MOL0     H34021  -0.777   1.386   5.927 -1.9990 -1.4511  2.7321
  258MOL0     H34022  -1.041   1.093   5.976  2.3689  5.2038  2.8066
  258MOL0     H34023  -0.896   1.042   6.057  3.4465  1.3091 -1.9656
  258MOL0     H34024  -0.995   0.854   5.910 -0.8328  0.2659 -0.8635
  258MOL0     H34025  -0.833   0.892   5.858  0.8727  1.5713 -0.2639
  258MOL0     H34026  -0.942   1.017   5.663  1.5647  1.1701  3.6660
  258MOL0     H34027  -1.096   0.996   5.749  0.1538 -1.0484  1.2104
  258MOL0     H34028  -1.023   0.817   5.557 -0.4138  0.4176 -0.3254
  258MOL0     H34029  -0.916   0.754   5.671  0.3736  0.5482 -1.1622
  258MOL0     H34030  -1.212   0.776   5.738  1.1738  2.5878 -1.7014
  258MOL0     H34031  -1.102   0.679   5.822 -1.1925  0.5922  0.2064
  258MOL0     H34032  -1.214   0.653   5.540 -0.1935  1.7758  0.7304
  258MOL0     H34033  -1.214   0.534   5.673 -0.1082 -0.0397  0.4206
  258MOL0     H34034  -0.979   0.603   5.494  0.6198 -0.9487 -1.0904
  258MOL0     H34035  -0.959   0.497   5.632  2.1866  0.7231 -1.8919
  258MOL0     H34036  -1.184   0.444   5.442  1.8958  1.9178 -1.7229
  258MOL0     H34037  -1.115   0.331   5.567  1.2317 -0.8176  0.8617
  258MOL0     H34038  -0.666   0.981   5.957 -0.9225  0.4981 -1.2485
  258MOL0     H34039  -0.443   1.045   6.035 -4.4419 -4.2955 -2.8066
  258MOL0     H34040  -0.068   1.551   5.976 -0.3622  2.1218  2.1335
  258MOL0     H34041   0.178   1.528   6.042  1.4438  0.1017  1.6415
  258MOL0     H34042   0.988   0.405   7.168 -0.8307  2.0293 -0.9855
  258MOL0     H34043   1.083   0.329   7.379 -1.4612  0.6557  2.9719
  258MOL0     H34044   1.459   0.397   7.683  3.6693  0.3099  1.9137
  258MOL0     H34045   1.569   0.311   7.885 -0.4410 -0.2526  0.6426
  258MOL0     H34046   1.626   0.319   8.092 -2.3869 -0.1474 -2.6222
  258MOL0     H34047   1.603   0.150   8.049 -2.6300  0.7033 -0.8373
  258MOL0     H34048   1.595   0.249   8.341 -2.7077 -0.8716  1.1958
  258MOL0     H34049   1.566   0.098   8.290  1.9723 -1.0303  0.8711
  258MOL0     H34050   1.844   0.241   8.294  1.4760 -0.1897 -1.1583
  258MOL0     H34051   1.814   0.123   8.168  2.2682  1.0333  0.5088
  258MOL0     H34052   1.909   0.040   8.401  0.8611 -0.1907  0.0197
  258MOL0     H34053   1.742   0.058   8.467  1.9560 -0.0650  1.6879
  258MOL0     H34054   1.783  -0.280   8.200 -1.6328  0.2101 -0.7199
  258MOL0     H34055   1.206   0.350   8.110 -3.5611  0.1062 -0.9962
  258MOL0     H34056   1.083   0.419   7.915 -0.4305  1.4898  0.0818
  259MOL0     O34057   9.661   5.111   0.368  0.6185 -0.0888  0.2045
  259MOL0     C34058   9.660   5.220   0.417 -1.0794 -0.5458  0.0663
  259MOL0     O34059   9.677   5.243   0.552  0.0436  0.0708  0.5732
  259MOL0     C34060   9.704   5.143   0.629 -0.8611 -0.0247  0.0137
  259MOL0     C34061   9.601   5.063   0.677  0.1985 -0.1740 -0.4196
  259MOL0     C34062   9.630   4.957   0.757 -0.5519 -0.1703 -0.1935
  259MOL0     C34063   9.764   4.926   0.793  0.8047  0.2931  0.3247
  259MOL0     O34064   9.765   4.825   0.885 -0.5354 -0.3071  0.1799
  259MOL0     C34065   9.893   4.774   0.934  0.3330 -0.3807  1.0601
  259MOL0     C34066   9.946   4.677   0.833 -1.6192 -0.2336  0.2735
  259MOL0     C34067  10.096   4.654   0.876  1.3796 -0.6444 -0.1446
  259MOL0     C34068  10.156   4.545   0.797  0.4153  0.0922  0.6186
  259MOL0     C34069  10.299   4.511   0.846 -0.9491 -0.9870 -0.0638
  259MOL0     C34070  10.293   4.437   0.974  0.2824  0.0520  0.4628
  259MOL0     C34071  10.231   4.299   0.963 -0.6625 -0.0327  0.3687
  259MOL0     C34072  10.098   4.303   1.027  0.1300  0.1513 -0.0351
  259MOL0     N34073  10.004   4.205   0.973  0.2825 -0.5614 -0.3465
  259MOL0     C34074   9.953   4.207   0.846 -1.0383  0.2508  0.3013
  259MOL0     C34075   9.864   4.101   0.840  0.1048  0.4285  0.1147
  259MOL0     C34076   9.794   4.050   0.717  0.5312  1.1113  1.2608
  259MOL0     C34077   9.660   4.110   0.707 -0.1400  0.1696  0.6387
  259MOL0     C34078   9.672   4.269   0.691 -0.5486 -0.8424  0.1985
  259MOL0     C34079   9.552   4.356   0.705  0.6908 -0.3077  0.2845
  259MOL0     O34080   9.596   4.490   0.679 -0.3356  0.5099 -0.3213
  259MOL0     C34081   9.632   4.534   0.556 -0.3826 -0.1206 -0.2274
  259MOL0     C34082   9.685   4.665   0.544 -0.8968  0.0738 -0.7184
  259MOL0     C34083   9.736   4.711   0.418 -0.8027  0.2829  0.1668
  259MOL0     C34084   9.721   4.641   0.299 -0.0702 -0.6820  0.0103
  259MOL0     C34085   9.767   4.693   0.162  0.7366  0.0595  0.0064
  259MOL0     O34086   9.849   4.796   0.159  0.8055  0.1648 -0.2316
  259MOL0     C34087   9.848   4.868   0.045 -0.0078 -0.4017 -0.2666
  259MOL0     C34088   9.825   5.004   0.060 -0.1223  1.0656  0.4875
  259MOL0     C34089   9.823   5.091  -0.041 -0.6710  0.7672 -0.1230
  259MOL0     C34090   9.855   5.050  -0.166 -0.6537  0.0111  0.4685
  259MOL0     O34091   9.847   5.122  -0.280 -0.0974  0.2448 -0.0759
  259MOL0     C34092   9.833   5.265  -0.273 -0.1054  0.4383  0.2278
  259MOL0     C34093   9.768   5.317  -0.401 -0.2389 -0.0797  0.5479
  259MOL0     C34094   9.774   5.470  -0.391 -0.3903  0.4482 -0.8564
  259MOL0     C34095   9.720   5.560  -0.499  0.0469 -0.1143  0.7351
  259MOL0     C34096   9.820   5.549  -0.617  0.4780  0.3020  0.9659
  259MOL0     C34097   9.769   5.642  -0.731  0.0023 -0.3138  0.4163
  259MOL0     C34098   9.894   5.674  -0.823  0.5340  0.6596 -0.7762
  259MOL0     C34099   9.856   5.785  -0.926 -0.7480 -0.3409 -0.0030
  259MOL0    Cl34100   9.777   5.717  -1.068  0.0157 -0.3684  0.1750
  259MOL0     C34101   9.885   4.911  -0.192 -0.0099 -1.0199 -0.3045
  259MOL0     C34102   9.873   4.820  -0.081 -0.4646  0.0946  0.1081
  259MOL0     O34103   9.712   4.636   0.066  0.6593 -0.0587 -0.5910
  259MOL0     C34104   9.649   4.519   0.311  0.2643  0.0026 -0.0939
  259MOL0     C34105   9.597   4.465   0.439 -0.8311 -0.6194  0.3883
  259MOL0     N34106   9.872   4.042   0.963  0.7252  0.9793  0.4152
  259MOL0     N34107   9.955   4.098   1.040  0.2027  0.6249 -1.1036
  259MOL0     C34108   9.868   5.004   0.737 -0.0921 -0.4435  0.8488
  259MOL0     C34109   9.839   5.114   0.656  0.1517 -0.7554  0.3190
  259MOL0     C34110   9.663   5.327   0.322  0.8282 -0.6887  0.2369
  259MOL0     C34111   9.715   5.449   0.361 -0.5935  0.5210  0.2161
  259MOL0     C34112   9.724   5.543   0.259 -0.6653 -0.0706  0.1651
  259MOL0     C34113   9.673   5.521   0.131  0.1088  0.4856  0.2648
  259MOL0     O34114   9.677   5.611   0.032 -1.4188 -0.3143  1.0049
  259MOL0     C34115   9.717   5.746   0.064  0.3192  0.0893  0.5077
  259MOL0     C34116   9.595   5.828   0.091  0.7086 -0.2303 -0.0549
  259MOL0     C34117   9.497   5.840  -0.030 -0.9533 -0.7521  0.7326
  259MOL0     C34118   9.481   5.986  -0.069  0.4774 -0.4979  0.1745
  259MOL0     C34119   9.369   6.036  -0.149  0.8010 -0.6966 -0.6050
  259MOL0     C34120   9.292   6.072  -0.235  0.3694 -0.2336  1.0557
  259MOL0     C34121   9.623   5.399   0.097 -0.0395  0.4355 -0.4686
  259MOL0     C34122   9.604   5.303   0.191 -0.3834 -0.3747 -0.5656
  259MOL0     H34123   9.503   5.095   0.641  1.5740  0.7946 -3.7017
  259MOL0     H34124   9.549   4.901   0.801 -0.8250  0.7854  0.5441
  259MOL0     H34125   9.884   4.741   1.038  1.0237 -1.9271  0.6514
  259MOL0     H34126   9.969   4.852   0.945  0.8526 -1.0515  2.4442
  259MOL0     H34127   9.950   4.722   0.734 -1.6210 -1.7038 -0.4167
  259MOL0     H34128   9.885   4.587   0.825 -0.0185 -1.4988  1.4964
  259MOL0     H34129  10.102   4.619   0.979  0.4671 -3.2632 -0.9139
  259MOL0     H34130  10.153   4.747   0.868  1.9462 -0.5307  3.4338
  259MOL0     H34131  10.082   4.465   0.790  0.7655 -0.1667 -0.1719
  259MOL0     H34132  10.155   4.594   0.699 -4.3959  2.6570  1.6391
  259MOL0     H34133  10.352   4.607   0.847 -1.2324 -0.7871  2.5663
  259MOL0     H34134  10.357   4.455   0.771 -1.3134  1.2243 -2.1186
  259MOL0     H34135  10.271   4.483   1.071  3.6090 -1.9560  2.3910
  259MOL0     H34136  10.400   4.415   0.985  0.6307  0.6480 -1.4083
  259MOL0     H34137  10.218   4.274   0.857 -0.5902  1.3349  0.0157
  259MOL0     H34138  10.290   4.223   1.015  0.0440 -2.3917 -3.4736
  259MOL0     H34139  10.059   4.405   1.034  3.8629  1.7131  0.3730
  259MOL0     H34140  10.104   4.272   1.132  1.3968 -4.8092 -1.3085
  259MOL0     H34141   9.965   4.266   0.756  1.1704 -0.0154  0.3587
  259MOL0     H34142   9.787   3.942   0.705  1.0281  1.3407 -1.8517
  259MOL0     H34143   9.853   4.084   0.632  2.5955  0.2347  2.2705
  259MOL0     H34144   9.597   4.090   0.794 -0.6655 -0.7957  0.0513
  259MOL0     H34145   9.618   4.075   0.612  0.5962  1.3694 -0.1518
  259MOL0     H34146   9.743   4.299   0.768  0.2693  0.5004 -1.0318
  259MOL0     H34147   9.717   4.279   0.591 -4.5591  1.7911 -1.6352
  259MOL0     H34148   9.505   4.358   0.803 -0.3937  2.2070 -0.2181
  259MOL0     H34149   9.476   4.309   0.641  1.9477 -0.5651 -1.0840
  259MOL0     H34150   9.683   4.714   0.641 -0.4943 -1.7886  0.2608
  259MOL0     H34151   9.772   4.814   0.418 -0.2538  0.0919  0.2904
  259MOL0     H34152   9.773   5.028   0.152 -1.1770  1.3309 -0.1542
  259MOL0     H34153   9.779   5.185  -0.009 -0.6457  0.3059  1.3261
  259MOL0     H34154   9.930   5.314  -0.265  0.0565  0.3399 -0.9694
  259MOL0     H34155   9.767   5.298  -0.193  1.2274 -0.1671  1.6335
  259MOL0     H34156   9.666   5.286  -0.422 -0.3849  2.1238 -2.6679
  259MOL0     H34157   9.822   5.281  -0.489  1.5656 -0.1039  1.6095
  259MOL0     H34158   9.867   5.513  -0.352 -1.5447  1.7249  0.5856
  259MOL0     H34159   9.705   5.490  -0.309  2.0263  0.8380  1.2291
  259MOL0     H34160   9.623   5.519  -0.529  0.4892 -0.8691  0.2906
  259MOL0     H34161   9.712   5.662  -0.460 -2.7852  0.3472 -0.8635
  259MOL0     H34162   9.827   5.444  -0.646  0.3415  0.4444  0.4036
  259MOL0     H34163   9.916   5.578  -0.574 -0.6458  3.0900  1.8153
  259MOL0     H34164   9.734   5.736  -0.688 -0.0490  1.1981 -2.7000
  259MOL0     H34165   9.694   5.585  -0.786  0.7089  1.4417 -2.5571
  259MOL0     H34166   9.985   5.704  -0.769  0.4467 -0.8894  0.2831
  259MOL0     H34167   9.931   5.588  -0.880 -2.5648 -2.2964  1.2947
  259MOL0     H34168   9.949   5.831  -0.961 -1.6281  0.5599 -1.2501
  259MOL0     H34169   9.808   5.865  -0.868 -0.8369 -0.0331 -0.4962
  259MOL0     H34170   9.903   4.869  -0.291 -0.6816 -3.0907  0.3922
  259MOL0     H34171   9.885   4.716  -0.106  4.2745  0.9122 -1.9853
  259MOL0     H34172   9.632   4.458   0.223 -0.3489  0.0376 -0.0085
  259MOL0     H34173   9.546   4.369   0.430 -1.9435 -0.1511  1.2766
  259MOL0     H34174   9.966   4.965   0.763  0.4307  1.1983  1.4630
  259MOL0     H34175   9.917   5.177   0.615 -1.6291  0.8541 -0.7380
  259MOL0     H34176   9.735   5.475   0.464  1.2335  1.9959 -0.4599
  259MOL0     H34177   9.769   5.635   0.295 -0.6062  1.7052 -3.8964
  259MOL0     H34178   9.765   5.795  -0.021  0.3715  0.7017  0.8880
  259MOL0     H34179   9.783   5.748   0.151 -0.5317 -2.3606  1.3017
  259MOL0     H34180   9.537   5.769   0.162  0.0765 -2.4756 -2.2981
  259MOL0     H34181   9.625   5.924   0.135  0.8663 -0.4078  0.2256
  259MOL0     H34182   9.399   5.799  -0.004 -1.1171 -0.9199 -0.1389
  259MOL0     H34183   9.534   5.766  -0.101  0.8366 -0.4686  1.3204
  259MOL0     H34184   9.458   6.032   0.027 -1.1550  0.7475 -0.7779
  259MOL0     H34185   9.568   6.030  -0.120  0.9077 -3.1126 -1.5511
  259MOL0     H34186   9.215   6.074  -0.310  0.7451 -2.5472  0.5503
  259MOL0     H34187   9.584   5.381  -0.003 -4.1862 -2.5702  1.3672
  259MOL0     H34188   9.554   5.210   0.167 -0.9852 -0.1671 -0.1661
  260MOL0     O34189   0.156   5.706   0.710 -0.9420  0.3100  0.2302
  260MOL0     C34190   0.091   5.611   0.682  0.2714  0.8670  0.3983
  260MOL0     O34191   0.135   5.492   0.637 -0.3803  0.0573  0.4915
  260MOL0     C34192   0.270   5.476   0.631 -0.6222 -0.3891  0.0491
  260MOL0     C34193   0.364   5.479   0.733  0.1780 -0.0788  0.5236
  260MOL0     C34194   0.499   5.433   0.711 -0.7832  0.4700 -1.3428
  260MOL0     C34195   0.531   5.368   0.596 -0.4185 -0.2727 -0.1170
  260MOL0     O34196   0.661   5.328   0.584 -0.1991 -0.0191  0.2951
  260MOL0     C34197   0.731   5.399   0.472 -1.2284  0.4761 -0.2781
  260MOL0     C34198   0.753   5.315   0.338 -0.2523  1.1897 -0.0167
  260MOL0     C34199   0.819   5.395   0.230 -0.7951  0.2426  0.4022
  260MOL0     C34200   0.792   5.335   0.089  0.1402  0.4803  0.1904
  260MOL0     C34201   0.890   5.406  -0.009 -0.3935  0.1223  0.1521
  260MOL0     C34202   0.855   5.542  -0.065 -0.9059  0.4361  0.2327
  260MOL0     C34203   0.937   5.583  -0.191 -0.0583  1.0518  0.3700
  260MOL0     C34204   1.069   5.660  -0.167 -0.6086  0.5567  0.1910
  260MOL0     N34205   1.133   5.686  -0.300 -0.4068 -0.3665 -0.3532
  260MOL0     C34206   1.155   5.592  -0.396  0.4722  0.4256  1.0292
  260MOL0     C34207   1.198   5.666  -0.503  0.5405 -0.1617  0.1616
  260MOL0     C34208   1.222   5.603  -0.635 -0.6701 -0.2854  0.5248
  260MOL0     C34209   1.371   5.582  -0.677 -0.0086 -0.1768 -0.6688
  260MOL0     C34210   1.420   5.700  -0.755  0.2353 -1.0740  0.2555
  260MOL0     C34211   1.571   5.696  -0.778  0.5411  0.8807  0.3319
  260MOL0     O34212   1.609   5.577  -0.830 -0.6982  0.5174 -0.1101
  260MOL0     C34213   1.738   5.527  -0.828 -0.0794  0.7914  0.3380
  260MOL0     C34214   1.842   5.579  -0.752 -1.0292 -0.3384  0.0091
  260MOL0     C34215   1.970   5.528  -0.774  0.3609  0.3325 -0.6030
  260MOL0     C34216   1.994   5.414  -0.849  0.1395  0.6000  0.8492
  260MOL0     C34217   2.122   5.351  -0.840  0.8157 -0.1274  0.0067
  260MOL0     O34218   2.213   5.411  -0.760 -0.3020 -0.7439  0.6562
  260MOL0     C34219   2.345   5.363  -0.758  0.5088 -0.7045 -0.1157
  260MOL0     C34220   2.414   5.317  -0.870  0.6634 -0.6122 -0.5104
  260MOL0     C34221   2.549   5.296  -0.853  0.0165  0.2901  0.4923
  260MOL0     C34222   2.610   5.296  -0.731  0.9891  0.8062  1.1370
  260MOL0     O34223   2.746   5.276  -0.719  0.7682 -0.7572  0.0286
  260MOL0     C34224   2.790   5.186  -0.622  0.7816  0.0668  1.3399
  260MOL0     C34225   2.931   5.151  -0.653  0.8797  0.2035  0.5018
  260MOL0     C34226   2.992   5.055  -0.550  0.5473  0.6984 -0.0075
  260MOL0     C34227   3.124   4.997  -0.608  0.6085 -0.0510 -0.3601
  260MOL0     C34228   3.194   4.914  -0.488  0.0939 -1.0927  0.1208
  260MOL0     C34229   3.311   4.825  -0.534 -0.4908  0.4999  0.7137
  260MOL0     C34230   3.325   4.696  -0.449 -0.1153  0.4639  0.4731
  260MOL0     C34231   3.447   4.695  -0.368 -0.9398  0.4618 -0.5004
  260MOL0    Cl34232   3.419   4.823  -0.257  0.1971 -0.2720 -0.2993
  260MOL0     C34233   2.537   5.330  -0.621  0.0596 -1.0814 -0.5159
  260MOL0     C34234   2.402   5.362  -0.632 -0.0439  0.6097 -0.2127
  260MOL0     O34235   2.139   5.244  -0.905 -0.4344  0.2571  0.1276
  260MOL0     C34236   1.887   5.363  -0.919  0.1086 -0.5826  0.2876
  260MOL0     C34237   1.755   5.409  -0.900 -0.7986 -0.2386 -0.2675
  260MOL0     N34238   1.200   5.800  -0.466 -0.1235  0.1657  0.6842
  260MOL0     N34239   1.173   5.808  -0.346 -0.3917  0.6502  1.0667
  260MOL0     C34240   0.435   5.358   0.495  0.2340  0.4740 -0.6443
  260MOL0     C34241   0.302   5.403   0.523 -0.7211 -0.0985  0.9303
  260MOL0     C34242  -0.057   5.635   0.680 -0.1686  0.5025  0.6346
  260MOL0     C34243  -0.142   5.536   0.620  0.9776  0.2897 -0.4031
  260MOL0     C34244  -0.285   5.541   0.616 -0.6074 -1.1649  0.2856
  260MOL0     C34245  -0.341   5.659   0.672 -1.0846  0.3830 -0.1899
  260MOL0     O34246  -0.471   5.659   0.679 -0.5893 -0.0537 -0.0552
  260MOL0     C34247  -0.526   5.784   0.627 -0.1171 -0.6408  1.1775
  260MOL0     C34248  -0.548   5.766   0.471 -0.7936 -0.1987 -0.6807
  260MOL0     C34249  -0.612   5.898   0.428  0.1007  0.1674 -0.5634
  260MOL0     C34250  -0.606   5.897   0.277 -0.3266  0.7883  0.4787
  260MOL0     C34251  -0.623   6.024   0.220 -0.6601 -0.3156  0.4212
  260MOL0     C34252  -0.656   6.127   0.167 -0.3894 -0.6136 -0.5964
  260MOL0     C34253  -0.259   5.750   0.750 -0.8962  0.5701 -0.5821
  260MOL0     C34254  -0.121   5.748   0.740 -0.4841 -0.2032 -0.5772
  260MOL0     H34255   0.358   5.523   0.832  1.3338  1.0821  0.1019
  260MOL0     H34256   0.570   5.451   0.790 -1.7591 -0.5446 -0.1940
  260MOL0     H34257   0.828   5.428   0.513 -0.5430 -0.0164 -1.5266
  260MOL0     H34258   0.679   5.492   0.449  2.2730  2.2119 -1.8278
  260MOL0     H34259   0.654   5.283   0.304  0.4769  0.6213 -1.7049
  260MOL0     H34260   0.817   5.226   0.342  1.5879  2.4738  0.1644
  260MOL0     H34261   0.927   5.402   0.246 -1.1375  0.6059  2.8963
  260MOL0     H34262   0.777   5.496   0.231  1.3441  1.1827  0.8612
  260MOL0     H34263   0.808   5.227   0.095  1.8312  0.6506 -0.5933
  260MOL0     H34264   0.695   5.364   0.049  0.3868 -0.7254 -1.3807
  260MOL0     H34265   0.896   5.339  -0.095 -1.9828  0.1151  0.0103
  260MOL0     H34266   0.993   5.419   0.025  0.1745 -1.9885 -0.6516
  260MOL0     H34267   0.863   5.613   0.018 -2.8963 -1.5608  2.2882
  260MOL0     H34268   0.747   5.552  -0.082 -1.5738 -1.1472  2.9158
  260MOL0     H34269   0.966   5.489  -0.239 -1.6179  0.3165  0.8160
  260MOL0     H34270   0.867   5.639  -0.253 -2.1766 -0.7773  0.9671
  260MOL0     H34271   1.127   5.580  -0.120  0.5456  0.1526 -1.7952
  260MOL0     H34272   1.077   5.752  -0.108  0.3454  0.8163 -0.2999
  260MOL0     H34273   1.128   5.486  -0.395 -1.9935  0.9027 -1.7302
  260MOL0     H34274   1.168   5.665  -0.706 -2.3881 -0.8738  1.2744
  260MOL0     H34275   1.175   5.505  -0.639 -1.3687  0.0726 -2.8397
  260MOL0     H34276   1.380   5.494  -0.741  0.0709  0.2913 -1.3204
  260MOL0     H34277   1.429   5.566  -0.586  0.6316 -1.3285 -1.2686
  260MOL0     H34278   1.373   5.718  -0.852  3.2976 -0.2778 -1.2132
  260MOL0     H34279   1.397   5.789  -0.695  1.8676 -0.1536 -0.4287
  260MOL0     H34280   1.631   5.725  -0.692 -2.1872 -0.7721  2.9687
  260MOL0     H34281   1.600   5.775  -0.848  1.7630  0.3361  0.1822
  260MOL0     H34282   1.827   5.652  -0.673 -0.1484 -0.3971  0.2438
  260MOL0     H34283   2.035   5.575  -0.701 -2.9666  0.4201  2.5816
  260MOL0     H34284   2.378   5.304  -0.971 -2.9914 -0.8991  0.6926
  260MOL0     H34285   2.603   5.275  -0.945 -2.3090 -1.0222 -0.6512
  260MOL0     H34286   2.718   5.104  -0.611 -0.7854  1.2156  0.1742
  260MOL0     H34287   2.791   5.239  -0.526  1.8065  0.7493  0.9672
  260MOL0     H34288   2.996   5.239  -0.647  2.9304 -1.1716 -0.3468
  260MOL0     H34289   2.943   5.100  -0.749  0.9352  1.2389 -0.0534
  260MOL0     H34290   2.925   4.971  -0.530 -0.1306  2.0276  4.3950
  260MOL0     H34291   3.012   5.100  -0.453  0.2656  2.1282 -0.5824
  260MOL0     H34292   3.096   4.929  -0.688 -1.3909  1.3240 -0.9183
  260MOL0     H34293   3.187   5.075  -0.652  0.3606 -0.2952 -1.1574
  260MOL0     H34294   3.116   4.864  -0.431 -1.0453  0.6710  0.2093
  260MOL0     H34295   3.239   4.974  -0.408  2.3264 -2.0943 -0.3248
  260MOL0     H34296   3.402   4.883  -0.551 -0.6156 -0.0186 -2.3935
  260MOL0     H34297   3.287   4.785  -0.633 -5.3350  2.7963  0.6531
  260MOL0     H34298   3.232   4.669  -0.398 -0.3608  2.6954  1.2796
  260MOL0     H34299   3.340   4.623  -0.530  2.0432 -0.3602  1.5347
  260MOL0     H34300   3.538   4.705  -0.427  0.6876 -0.4835  1.7059
  260MOL0     H34301   3.453   4.595  -0.324 -2.7564 -0.7322 -2.7740
  260MOL0     H34302   2.580   5.344  -0.522 -0.5784 -1.8155 -0.1274
  260MOL0     H34303   2.350   5.385  -0.540  0.7853  2.0631 -0.0805
  260MOL0     H34304   1.886   5.277  -0.986 -3.6461 -1.3527  1.0936
  260MOL0     H34305   1.679   5.348  -0.948  0.9835 -2.3561 -0.5498
  260MOL0     H34306   0.460   5.308   0.402  0.8681 -1.5515  0.5385
  260MOL0     H34307   0.228   5.377   0.449 -0.2798 -1.7213  1.0133
  260MOL0     H34308  -0.091   5.451   0.574 -0.9487 -0.1345 -1.8913
  260MOL0     H34309  -0.349   5.471   0.565 -1.9386  0.0277  0.2532
  260MOL0     H34310  -0.467   5.875   0.640  1.1881 -1.5755  2.1601
  260MOL0     H34311  -0.627   5.794   0.668 -0.9604 -2.2464 -0.3783
  260MOL0     H34312  -0.451   5.751   0.424  1.0656  2.6170  1.8821
  260MOL0     H34313  -0.617   5.683   0.455  0.6447 -1.4645 -0.5242
  260MOL0     H34314  -0.566   5.981   0.482  1.3494 -2.1351  2.1410
  260MOL0     H34315  -0.715   5.896   0.466  0.7070 -3.2353  1.2263
  260MOL0     H34316  -0.508   5.859   0.247 -0.4893  0.3506  0.4928
  260MOL0     H34317  -0.692   5.836   0.245 -0.3830 -0.2630  2.4626
  260MOL0     H34318  -0.681   6.221   0.123  2.8314  0.6687  0.0276
  260MOL0     H34319  -0.307   5.830   0.805  2.1429  1.3342  1.2538
  260MOL0     H34320  -0.062   5.820   0.795 -1.0532 -1.3512  1.6694
  261MOL0     O34321   5.102   8.306   9.424 -0.7842  0.5527  0.0815
  261MOL0     C34322   5.229   8.300   9.409  0.3344  0.1972 -0.1595
  261MOL0     O34323   5.309   8.408   9.370  0.1814  0.6162 -0.1061
  261MOL0     C34324   5.233   8.517   9.322 -0.8861 -0.1470  0.5696
  261MOL0     C34325   5.218   8.632   9.399 -0.3845  0.0555  0.2651
  261MOL0     C34326   5.129   8.730   9.364 -0.6238 -0.3339  0.3950
  261MOL0     C34327   5.055   8.719   9.237  0.2963  0.0144 -0.6475
  261MOL0     O34328   4.960   8.811   9.199 -0.3466  0.4512  0.5558
  261MOL0     C34329   4.929   8.924   9.283 -0.0082  0.1296  1.5068
  261MOL0     C34330   4.841   9.038   9.214  0.1301 -0.3684 -0.4976
  261MOL0     C34331   4.695   9.000   9.171  1.3880 -0.0150  1.2360
  261MOL0     C34332   4.693   8.903   9.052 -0.0115 -0.3894 -0.1221
  261MOL0     C34333   4.566   8.831   9.027 -0.4791 -0.1860  0.0652
  261MOL0     C34334   4.519   8.725   9.129  0.0171 -0.7726 -0.1292
  261MOL0     C34335   4.595   8.596   9.099  0.6496 -0.2819  0.2465
  261MOL0     C34336   4.535   8.480   9.174 -0.1341  0.4669  0.4551
  261MOL0     N34337   4.571   8.493   9.312  0.1765  0.0553  0.3822
  261MOL0     C34338   4.691   8.540   9.359  0.4833 -0.3013  1.0051
  261MOL0     C34339   4.672   8.570   9.482  0.4755 -0.9900  0.0048
  261MOL0     C34340   4.770   8.619   9.584 -0.1278 -0.7183 -0.6747
  261MOL0     C34341   4.827   8.488   9.652  0.1692 -0.0414 -0.6684
  261MOL0     C34342   4.922   8.514   9.770 -0.3939  0.4796  0.0591
  261MOL0     C34343   4.971   8.371   9.821  0.3073 -0.4621  0.2261
  261MOL0     O34344   5.109   8.375   9.864  0.2185  0.7389 -0.5689
  261MOL0     C34345   5.127   8.438   9.983 -0.4625 -0.1419 -0.1874
  261MOL0     C34346   5.030   8.488  10.074  0.4328  0.4636 -0.5036
  261MOL0     C34347   5.066   8.548  10.189 -0.3228  0.6033 -0.4475
  261MOL0     C34348   5.201   8.573  10.224 -0.1671 -0.7061 -0.3436
  261MOL0     C34349   5.243   8.635  10.346 -1.1871  0.0736  0.8052
  261MOL0     O34350   5.379   8.646  10.357 -0.0785 -0.6222  0.0693
  261MOL0     C34351   5.445   8.724  10.453 -0.8804  0.4690 -0.4675
  261MOL0     C34352   5.583   8.690  10.480  0.2909 -0.2445  0.9423
  261MOL0     C34353   5.653   8.764  10.567 -0.7702  0.6616 -0.0556
  261MOL0     C34354   5.607   8.873  10.635 -0.8094  0.0981  0.2871
  261MOL0     O34355   5.682   8.949  10.721  0.5194  0.4098  0.3554
  261MOL0     C34356   5.807   8.897  10.745  0.2493  0.1572 -0.3090
  261MOL0     C34357   5.876   8.946  10.873 -0.6418 -0.8226 -0.4932
  261MOL0     C34358   5.786   8.934  10.986  0.3754  0.0676 -0.7983
  261MOL0     C34359   5.805   8.794  11.050 -0.0436  0.4604  0.1139
  261MOL0     C34360   5.726   8.792  11.187  0.3263  0.6504  0.0006
  261MOL0     C34361   5.578   8.788  11.156 -0.1273  0.4948 -0.3401
  261MOL0     C34362   5.518   8.734  11.283  0.3082 -0.4683 -0.8716
  261MOL0     C34363   5.377   8.697  11.250 -0.5823 -0.4519 -0.6285
  261MOL0    Cl34364   5.370   8.540  11.164  0.4445  0.2632 -0.8400
  261MOL0     C34365   5.470   8.908  10.615  0.1509  0.1574  0.5156
  261MOL0     C34366   5.390   8.837  10.524  0.3197  0.6561  0.4059
  261MOL0     O34367   5.157   8.667  10.420  0.1897 -0.3612  0.3887
  261MOL0     C34368   5.290   8.540  10.122 -0.7720  0.6981 -1.1237
  261MOL0     C34369   5.257   8.469  10.007  0.3473 -0.3706  0.2243
  261MOL0     N34370   4.541   8.544   9.514  0.1602 -0.3987 -0.7086
  261MOL0     N34371   4.481   8.513   9.409  0.5772  0.0476 -0.0370
  261MOL0     C34372   5.081   8.614   9.159 -0.1016  0.8739 -0.5093
  261MOL0     C34373   5.169   8.512   9.196 -0.7551  1.1924  0.2672
  261MOL0     C34374   5.299   8.170   9.431  0.1642  1.1986  0.2714
  261MOL0     C34375   5.232   8.053   9.476 -0.3343 -0.5282 -1.5026
  261MOL0     C34376   5.300   7.927   9.479  0.0446 -1.1893  0.2501
  261MOL0     C34377   5.428   7.914   9.427  0.4911 -0.2269 -0.7197
  261MOL0     O34378   5.486   7.794   9.419 -0.3633 -0.0048 -0.5936
  261MOL0     C34379   5.508   7.725   9.540  1.0766  1.3522 -0.6107
  261MOL0     C34380   5.639   7.763   9.607 -0.8701 -0.0558  0.3706
  261MOL0     C34381   5.754   7.754   9.500 -1.0350  0.4200 -0.1742
  261MOL0     C34382   5.892   7.795   9.554 -0.4243  1.1540 -0.1746
  261MOL0     C34383   6.005   7.730   9.482  0.8584 -1.0999 -0.2169
  261MOL0     C34384   6.098   7.670   9.433  0.2766  0.7749  0.4752
  261MOL0     C34385   5.497   8.032   9.393  0.0498 -0.9885 -0.1501
  261MOL0     C34386   5.434   8.157   9.405 -0.1866  0.1227 -1.1777
  261MOL0     H34387   5.289   8.645   9.479  0.7760  1.6804 -0.9569
  261MOL0     H34388   5.124   8.815   9.431 -1.5930  1.0344 -1.3341
  261MOL0     H34389   5.022   8.973   9.314  1.7736 -0.8872 -1.8101
  261MOL0     H34390   4.874   8.880   9.367 -1.2582 -3.2367 -0.8744
  261MOL0     H34391   4.905   9.072   9.133 -0.1647 -1.8264 -1.3753
  261MOL0     H34392   4.838   9.114   9.293 -1.2457  0.2238 -1.1094
  261MOL0     H34393   4.640   9.082   9.124  0.1954 -1.3668  0.1584
  261MOL0     H34394   4.652   8.955   9.262  2.9988 -3.3420  0.5008
  261MOL0     H34395   4.719   8.973   8.972 -1.3534 -1.8160 -1.9018
  261MOL0     H34396   4.776   8.833   9.048  4.7302  4.6219 -3.2764
  261MOL0     H34397   4.581   8.776   8.934 -0.5170  1.5998 -1.0505
  261MOL0     H34398   4.486   8.906   9.027 -1.3292 -0.9948  2.4595
  261MOL0     H34399   4.411   8.706   9.128 -0.4921  1.7148  1.2053
  261MOL0     H34400   4.528   8.769   9.228  0.0690 -0.2723 -0.3531
  261MOL0     H34401   4.587   8.576   8.992  0.9632 -1.1033  0.3714
  261MOL0     H34402   4.703   8.613   9.113  0.8005  0.9897 -2.0087
  261MOL0     H34403   4.569   8.382   9.140  1.2222  1.4395 -1.1688
  261MOL0     H34404   4.426   8.477   9.158  0.1950  3.8301 -4.7591
  261MOL0     H34405   4.782   8.549   9.300 -1.3023 -0.4051 -2.0203
  261MOL0     H34406   4.717   8.672   9.664  2.0643  4.4073 -2.2075
  261MOL0     H34407   4.840   8.688   9.537 -1.2134 -0.1713 -1.5433
  261MOL0     H34408   4.860   8.434   9.563 -3.0761 -3.1362 -0.2298
  261MOL0     H34409   4.738   8.431   9.681 -0.4190  0.2637 -1.8096
  261MOL0     H34410   5.001   8.573   9.723  1.8119 -3.0016 -0.9706
  261MOL0     H34411   4.858   8.553   9.850 -3.2475 -2.8253 -0.3671
  261MOL0     H34412   4.960   8.305   9.734  0.1089 -1.9439  1.3309
  261MOL0     H34413   4.906   8.331   9.900  1.0204 -0.8643  0.6243
  261MOL0     H34414   4.926   8.470  10.049  0.0473  2.5028 -0.5639
  261MOL0     H34415   4.998   8.582  10.266  0.7770  0.8200  0.4742
  261MOL0     H34416   5.634   8.608  10.431 -2.1322 -1.5057  0.3961
  261MOL0     H34417   5.754   8.725  10.563 -1.0894 -0.2969  0.7420
  261MOL0     H34418   5.868   8.937  10.664 -0.8371  0.9319 -0.7627
  261MOL0     H34419   5.803   8.788  10.762 -1.3110 -0.1304 -2.2748
  261MOL0     H34420   5.894   9.053  10.860  0.0250 -1.0217 -1.3484
  261MOL0     H34421   5.968   8.888  10.888  0.5358  1.3070  1.0851
  261MOL0     H34422   5.683   8.955  10.956 -0.5311 -1.1802  1.2431
  261MOL0     H34423   5.803   9.009  11.063 -1.6178  1.4573 -1.6190
  261MOL0     H34424   5.788   8.717  10.974  2.1460  1.9945 -2.0928
  261MOL0     H34425   5.913   8.779  11.064 -0.0669 -0.4638 -0.6248
  261MOL0     H34426   5.763   8.865  11.259  0.2544  1.5706 -0.8719
  261MOL0     H34427   5.749   8.697  11.236 -0.1779  0.6352  0.2137
  261MOL0     H34428   5.551   8.703  11.092 -2.5595 -0.1816  1.4568
  261MOL0     H34429   5.542   8.888  11.131 -1.0238  0.1400 -0.4800
  261MOL0     H34430   5.573   8.646  11.319 -1.4036 -1.5418 -0.7357
  261MOL0     H34431   5.524   8.817  11.354  0.9744  1.4469 -3.0588
  261MOL0     H34432   5.322   8.783  11.211 -0.2579  2.0095  3.7533
  261MOL0     H34433   5.328   8.678  11.346 -2.3627 -3.2519 -1.9600
  261MOL0     H34434   5.418   8.993  10.658 -2.2139 -0.2428 -1.2626
  261MOL0     H34435   5.290   8.871  10.496 -0.0328 -1.9786 -2.0051
  261MOL0     H34436   5.397   8.559  10.131 -0.7458 -0.3650  2.9829
  261MOL0     H34437   5.339   8.435   9.944  1.6031 -0.4860  1.8491
  261MOL0     H34438   5.019   8.621   9.070 -1.2043 -0.8936  0.0676
  261MOL0     H34439   5.164   8.428   9.127 -1.1268 -0.5499  2.3364
  261MOL0     H34440   5.129   8.069   9.507 -0.3720  1.2589 -2.3966
  261MOL0     H34441   5.243   7.838   9.501 -0.0051 -1.7081 -1.7576
  261MOL0     H34442   5.517   7.620   9.512  1.3480  1.8185 -2.4173
  261MOL0     H34443   5.428   7.731   9.613  0.4413 -0.2490 -1.1445
  261MOL0     H34444   5.641   7.868   9.639  1.0458  0.4762 -1.2758
  261MOL0     H34445   5.656   7.701   9.695 -0.7441  1.8496  1.7611
  261MOL0     H34446   5.727   7.810   9.410  2.5325 -0.1383 -1.7498
  261MOL0     H34447   5.758   7.648   9.471  0.8095  1.0799 -2.6336
  261MOL0     H34448   5.892   7.904   9.562  1.6525  1.2067 -0.1908
  261MOL0     H34449   5.904   7.747   9.652 -0.4688  0.0176 -0.7069
  261MOL0     H34450   6.177   7.623   9.378 -1.0230  1.7127 -2.4315
  261MOL0     H34451   5.602   8.028   9.366  0.6779  1.8354  1.4667
  261MOL0     H34452   5.493   8.246   9.383 -1.0210  1.3230  1.1811
  262MOL0     O34453  10.683   2.615   6.338 -0.2608  0.0168  0.0442
  262MOL0     C34454  10.755   2.516   6.315  0.7145 -0.0701  0.2971
  262MOL0     O34455  10.826   2.437   6.405 -0.0748 -0.3870  0.2688
  262MOL0     C34456  10.786   2.433   6.539 -0.1932 -0.5960  0.1720
  262MOL0     C34457  10.787   2.551   6.608  0.1279  0.0093 -0.3918
  262MOL0     C34458  10.758   2.552   6.745 -1.0566  0.2354 -0.0151
  262MOL0     C34459  10.736   2.433   6.816 -0.1561  0.9778  0.2348
  262MOL0     O34460  10.709   2.444   6.947 -0.1695  0.7398  0.1029
  262MOL0     C34461  10.712   2.326   7.025  0.2842  0.6554  1.2052
  262MOL0     C34462  10.707   2.355   7.172  0.4998  0.1710 -0.7652
  262MOL0     C34463  10.642   2.245   7.255 -1.0724  0.4968 -0.5263
  262MOL0     C34464  10.495   2.235   7.244  0.0464  0.6091  0.0771
  262MOL0     C34465  10.451   2.129   7.341 -0.5757  0.1102  0.4357
  262MOL0     C34466  10.297   2.109   7.332  0.6007 -0.7600  0.4954
  262MOL0     C34467  10.235   2.042   7.454  0.7980  0.1587 -0.6630
  262MOL0     C34468  10.291   1.904   7.490  1.3124  0.3530  0.1857
  262MOL0     N34469  10.173   1.844   7.549 -0.2637  0.9764 -0.0993
  262MOL0     C34470  10.143   1.712   7.519 -0.6332  0.6144 -0.8441
  262MOL0     C34471  10.058   1.675   7.613  0.6328  0.4487 -0.6998
  262MOL0     C34472   9.977   1.553   7.631 -0.0249  0.5781  0.2838
  262MOL0     C34473  10.042   1.422   7.588 -0.9435 -0.4549 -0.1537
  262MOL0     C34474  10.143   1.376   7.699 -0.2832 -1.2168  1.5096
  262MOL0     C34475  10.281   1.456   7.701  0.4743 -0.3464 -0.6427
  262MOL0     O34476  10.343   1.452   7.568 -0.0672  0.7089 -0.2164
  262MOL0     C34477  10.447   1.535   7.537 -0.3789  1.0902  0.2126
  262MOL0     C34478  10.501   1.515   7.413  0.6682  0.2910 -0.0973
  262MOL0     C34479  10.601   1.597   7.366  0.4518  0.2606  0.7229
  262MOL0     C34480  10.651   1.702   7.438 -0.3640  1.1412 -0.0096
  262MOL0     C34481  10.761   1.790   7.397 -0.0986  0.6292  0.0901
  262MOL0     O34482  10.780   1.912   7.461  0.0745  0.7468  0.2570
  262MOL0     C34483  10.901   1.983   7.438 -0.5978  0.2612 -0.3875
  262MOL0     C34484  10.949   2.031   7.313  0.4100  0.1697 -0.6025
  262MOL0     C34485  11.073   2.093   7.303  0.2722  0.2102 -0.4621
  262MOL0     C34486  11.161   2.091   7.411 -0.1012  0.8644 -1.1032
  262MOL0     O34487  11.287   2.139   7.409  0.6322 -0.2861  0.0604
  262MOL0     C34488  11.356   2.109   7.283 -0.5794  0.5488 -0.0945
  262MOL0     C34489  11.489   2.171   7.296  0.5733  0.1285 -0.4823
  262MOL0     C34490  11.571   2.151   7.169 -0.2882  0.4355  0.3581
  262MOL0     C34491  11.637   2.019   7.155 -0.3841  0.0244  0.2261
  262MOL0     C34492  11.667   2.002   7.011 -0.4338  0.4144 -1.0181
  262MOL0     C34493  11.791   1.903   7.005  0.4325  0.5369  0.8784
  262MOL0     C34494  11.829   1.887   6.854 -0.5423  0.0998 -0.5970
  262MOL0     C34495  11.956   1.812   6.840  0.6193 -0.2709 -0.1216
  262MOL0    Cl34496  11.938   1.660   6.926 -0.2631 -0.0942 -0.1303
  262MOL0     C34497  11.123   2.032   7.528 -0.8787 -0.6228  0.5748
  262MOL0     C34498  10.996   1.976   7.543  0.4515 -1.2755  0.0835
  262MOL0     O34499  10.845   1.741   7.323 -0.9158  0.5045 -0.0779
  262MOL0     C34500  10.601   1.715   7.565  0.2292  0.2916  0.2869
  262MOL0     C34501  10.502   1.627   7.613 -0.0767 -0.3010 -1.2112
  262MOL0     N34502  10.034   1.783   7.704 -0.7107  0.1064 -0.5929
  262MOL0     N34503  10.109   1.878   7.664  0.3442 -0.2988  0.3430
  262MOL0     C34504  10.751   2.318   6.747  0.0683 -0.1755 -0.6791
  262MOL0     C34505  10.777   2.317   6.608  1.1647  0.6111 -0.8642
  262MOL0     C34506  10.763   2.467   6.172  0.3618  0.4538 -0.3331
  262MOL0     C34507  10.829   2.361   6.143  0.7280  0.8479  0.5897
  262MOL0     C34508  10.833   2.314   6.008 -1.1019 -0.8324 -1.0870
  262MOL0     C34509  10.765   2.387   5.905 -0.2565 -0.3361  0.8318
  262MOL0     O34510  10.776   2.366   5.767  0.7786  0.1535  0.0807
  262MOL0     C34511  10.873   2.266   5.714 -1.2425  0.6127  0.4864
  262MOL0     C34512  10.903   2.303   5.570  0.7942 -0.7557  0.4359
  262MOL0     C34513  10.979   2.443   5.558 -0.7309  0.6874 -0.3955
  262MOL0     C34514  11.103   2.440   5.463  0.2822 -0.3784 -0.0151
  262MOL0     C34515  11.064   2.386   5.333  1.1628  0.1458  0.7190
  262MOL0     C34516  11.037   2.345   5.226 -0.8408  1.3243  0.6219
  262MOL0     C34517  10.694   2.497   5.949  0.7598 -0.2462 -0.2667
  262MOL0     C34518  10.687   2.528   6.077 -0.9484  0.3847 -0.1509
  262MOL0     H34519  10.810   2.643   6.556 -2.6599 -0.5801 -2.9218
  262MOL0     H34520  10.756   2.644   6.803 -1.5575 -1.2421  2.4870
  262MOL0     H34521  10.804   2.271   7.005 -0.3076 -0.6056  1.8386
  262MOL0     H34522  10.635   2.254   6.994 -0.7065  2.1095  0.1184
  262MOL0     H34523  10.647   2.446   7.179  1.3611  0.7396 -0.6129
  262MOL0     H34524  10.807   2.372   7.213  1.4302  0.5137 -3.0186
  262MOL0     H34525  10.662   2.259   7.362  2.2786 -1.8527 -0.6908
  262MOL0     H34526  10.680   2.150   7.216 -2.4269 -0.0820 -0.4749
  262MOL0     H34527  10.441   2.325   7.277  0.0903  1.8029 -2.8448
  262MOL0     H34528  10.464   2.223   7.140 -0.0528  0.1642  0.1571
  262MOL0     H34529  10.471   2.162   7.443  0.0036 -2.6071  1.2882
  262MOL0     H34530  10.506   2.036   7.323 -0.4801  0.4868 -1.4201
  262MOL0     H34531  10.286   2.035   7.252  1.1377  1.4872 -1.7585
  262MOL0     H34532  10.252   2.202   7.298  3.5028  1.0965  1.3496
  262MOL0     H34533  10.219   2.109   7.538 -0.9202  1.3620 -1.8650
  262MOL0     H34534  10.129   2.026   7.431  0.9602 -0.0707 -1.3033
  262MOL0     H34535  10.374   1.915   7.561  2.4169  0.1952 -1.0526
  262MOL0     H34536  10.333   1.852   7.404 -1.3549  0.0170 -1.0092
  262MOL0     H34537  10.187   1.643   7.447 -0.4613  0.1498 -0.2973
  262MOL0     H34538   9.880   1.567   7.583  0.8917  0.4525 -1.6817
  262MOL0     H34539   9.963   1.533   7.738  0.8858 -2.3583 -0.0442
  262MOL0     H34540  10.094   1.425   7.492  0.5548 -0.1905  0.6431
  262MOL0     H34541   9.961   1.349   7.580 -1.8803  0.2176  2.3646
  262MOL0     H34542  10.091   1.378   7.796 -2.2643 -4.5560  0.6690
  262MOL0     H34543  10.164   1.269   7.694  2.3818 -0.9344  3.8355
  262MOL0     H34544  10.347   1.402   7.771  0.6283  1.0287  0.3012
  262MOL0     H34545  10.254   1.558   7.730  3.0485  0.3495 -0.4137
  262MOL0     H34546  10.463   1.444   7.340  1.2520  0.5360 -0.6452
  262MOL0     H34547  10.639   1.585   7.265  3.3381  1.1640  1.6087
  262MOL0     H34548  10.882   2.016   7.228 -0.2083  1.0599 -0.2882
  262MOL0     H34549  11.117   2.135   7.213  1.7415  0.8578  0.5187
  262MOL0     H34550  11.310   2.160   7.198 -1.5842  1.0245  0.7166
  262MOL0     H34551  11.358   2.001   7.266 -1.9045  0.5448 -0.3574
  262MOL0     H34552  11.551   2.130   7.376  0.0920 -0.8492 -0.5998
  262MOL0     H34553  11.470   2.277   7.317 -1.9408 -0.0292 -1.5498
  262MOL0     H34554  11.645   2.231   7.161  1.2371 -0.8053  1.5136
  262MOL0     H34555  11.509   2.174   7.082 -0.4553  5.4722  1.4509
  262MOL0     H34556  11.731   2.023   7.211 -0.6025  1.5229  0.5243
  262MOL0     H34557  11.564   1.949   7.197 -1.2267  0.8585  0.1761
  262MOL0     H34558  11.692   2.095   6.958 -1.1649  0.1169 -1.9017
  262MOL0     H34559  11.579   1.961   6.962  0.2242 -3.0397  0.4457
  262MOL0     H34560  11.763   1.811   7.057  1.5474  1.8108  3.9454
  262MOL0     H34561  11.871   1.936   7.071  1.0912 -0.8566  0.8206
  262MOL0     H34562  11.743   1.846   6.801  0.7269 -1.3870 -1.6271
  262MOL0     H34563  11.849   1.986   6.813  0.3773  0.1471 -0.0758
  262MOL0     H34564  12.046   1.864   6.874  1.3342  0.2712 -2.5969
  262MOL0     H34565  11.984   1.797   6.735  1.7869  1.0054 -0.0266
  262MOL0     H34566  11.201   2.021   7.603  1.2039 -0.9422 -1.5110
  262MOL0     H34567  10.966   1.954   7.645 -1.1395  0.8870  0.1609
  262MOL0     H34568  10.641   1.794   7.627  1.1934  0.9764 -1.1370
  262MOL0     H34569  10.477   1.639   7.718 -0.7765 -0.1240 -1.3918
  262MOL0     H34570  10.748   2.223   6.800  1.2538 -0.2964 -0.7892
  262MOL0     H34571  10.813   2.221   6.571 -0.4819 -0.0104 -0.9272
  262MOL0     H34572  10.886   2.305   6.216  2.1701 -0.0030 -1.0973
  262MOL0     H34573  10.901   2.230   5.997 -0.4388 -1.0020  2.7757
  262MOL0     H34574  10.823   2.169   5.703  2.9483 -1.4491 -4.3250
  262MOL0     H34575  10.958   2.262   5.782 -1.6382  0.3883  0.9771
  262MOL0     H34576  10.950   2.220   5.517 -1.4711 -2.4632  0.9475
  262MOL0     H34577  10.805   2.311   5.521 -0.9552  1.5571  3.9166
  262MOL0     H34578  11.029   2.463   5.653 -2.5068  0.4677  0.6187
  262MOL0     H34579  10.913   2.528   5.537 -0.6434  1.0098  0.5986
  262MOL0     H34580  11.138   2.544   5.463  1.4806 -0.6985  2.3626
  262MOL0     H34581  11.186   2.376   5.497 -0.9200 -1.4952  0.9026
  262MOL0     H34582  11.015   2.318   5.125 -0.6958 -0.6180  1.0767
  262MOL0     H34583  10.647   2.566   5.879 -0.2892  1.6961  2.1895
  262MOL0     H34584  10.625   2.611   6.109 -0.9552  0.6554 -0.8452
  263MOL0     O34585   5.575   6.036   0.549 -1.8012  0.3045  0.1293
  263MOL0     C34586   5.508   6.088   0.452  0.0140  0.5735  0.5310
  263MOL0     O34587   5.491   6.225   0.420 -0.5343 -0.0426  0.0451
  263MOL0     C34588   5.572   6.305   0.496  0.2945 -0.9315  0.1857
  263MOL0     C34589   5.529   6.351   0.621 -0.8600 -0.9592 -0.2514
  263MOL0     C34590   5.599   6.459   0.687  0.0241  0.5929 -0.4423
  263MOL0     C34591   5.716   6.519   0.622 -0.3325  0.6747  0.6328
  263MOL0     O34592   5.794   6.614   0.687  0.1387  0.3515  0.7950
  263MOL0     C34593   5.779   6.647   0.828 -0.8812  0.4865 -0.0648
  263MOL0     C34594   5.705   6.778   0.846 -0.4096  0.0024  0.4290
  263MOL0     C34595   5.711   6.817   0.999  0.4995  0.2050  0.5755
  263MOL0     C34596   5.675   6.961   1.021 -0.1229  0.0436 -0.4917
  263MOL0     C34597   5.684   7.010   1.173 -0.3389  1.6462 -0.0985
  263MOL0     C34598   5.830   7.016   1.240 -0.3485 -0.0655 -0.5962
  263MOL0     C34599   5.894   7.155   1.259  0.1187  0.7272  0.1468
  263MOL0     C34600   5.849   7.232   1.391  0.5059  0.1889 -0.1463
  263MOL0     N34601   5.700   7.242   1.409 -0.7500 -1.4095 -0.3084
  263MOL0     C34602   5.632   7.349   1.362 -0.6068 -0.4949  0.8337
  263MOL0     C34603   5.499   7.329   1.388  0.7104 -0.1766  0.1949
  263MOL0     C34604   5.406   7.458   1.391  0.4987  0.0003  0.3736
  263MOL0     C34605   5.365   7.472   1.246  0.0843  0.1083 -0.7163
  263MOL0     C34606   5.293   7.604   1.212  0.3073  0.4785 -0.0123
  263MOL0     C34607   5.271   7.610   1.058  0.3683 -0.2548 -0.1365
  263MOL0     O34608   5.220   7.478   1.002  1.2257 -0.1278 -0.2263
  263MOL0     C34609   5.095   7.475   0.940 -0.3989  0.2446  0.9969
  263MOL0     C34610   5.076   7.503   0.795  0.3009 -0.6006 -1.1232
  263MOL0     C34611   4.948   7.501   0.739  0.3137  0.3390  0.1086
  263MOL0     C34612   4.834   7.459   0.817  1.0596  0.1241 -0.2772
  263MOL0     C34613   4.694   7.448   0.752 -0.2497  0.9518 -0.3770
  263MOL0     O34614   4.586   7.443   0.840  0.5870  0.2848 -0.2569
  263MOL0     C34615   4.460   7.458   0.789 -0.3460  0.0361 -1.0427
  263MOL0     C34616   4.396   7.352   0.717 -0.3855 -0.8561  0.5322
  263MOL0     C34617   4.273   7.363   0.661  0.8595  0.3088  0.4131
  263MOL0     C34618   4.191   7.475   0.676  0.7945 -0.2478  0.4802
  263MOL0     O34619   4.073   7.490   0.614  0.3918  0.0249  0.7069
  263MOL0     C34620   4.054   7.424   0.485 -0.4682  0.0904 -0.2185
  263MOL0     C34621   3.926   7.481   0.417 -0.0377 -0.8711 -0.3243
  263MOL0     C34622   3.951   7.633   0.370  0.9600  0.6414 -1.1358
  263MOL0     C34623   3.846   7.671   0.264  0.5608  0.4851 -0.2838
  263MOL0     C34624   3.699   7.687   0.325 -0.8980  0.1654  0.0360
  263MOL0     C34625   3.586   7.751   0.246  0.5317 -0.2279 -0.0500
  263MOL0     C34626   3.629   7.892   0.198 -0.0828 -0.8881  1.2028
  263MOL0     C34627   3.519   7.957   0.122 -0.1077  0.1667  1.0320
  263MOL0    Cl34628   3.559   8.127   0.095 -0.1546 -0.0508 -0.3849
  263MOL0     C34629   4.244   7.573   0.765  0.4167  0.1714  0.3784
  263MOL0     C34630   4.375   7.566   0.821  0.4252 -0.5216 -0.5348
  263MOL0     O34631   4.692   7.445   0.629  0.5665 -0.1555  0.2986
  263MOL0     C34632   4.857   7.440   0.960 -0.2052  0.6965  0.8304
  263MOL0     C34633   4.983   7.447   1.009  0.5939  0.9559 -0.1282
  263MOL0     N34634   5.500   7.223   1.477  0.9045 -0.3697 -0.2852
  263MOL0     N34635   5.614   7.166   1.481 -0.8185 -0.0449  0.2275
  263MOL0     C34636   5.750   6.470   0.499 -0.7984  0.7973 -0.0240
  263MOL0     C34637   5.676   6.364   0.442 -0.2816 -0.2287  0.1971
  263MOL0     C34638   5.436   5.997   0.367  0.8060  0.0201 -1.0367
  263MOL0     C34639   5.344   6.050   0.277  0.3254  0.4037  0.2457
  263MOL0     C34640   5.256   5.961   0.218  0.2049 -0.5160  0.0696
  263MOL0     C34641   5.265   5.822   0.227  0.9263 -0.6754 -0.3291
  263MOL0     O34642   5.171   5.757   0.151  0.0924  1.1361  0.1831
  263MOL0     C34643   5.197   5.614   0.137 -0.7948  0.0601  0.1504
  263MOL0     C34644   5.114   5.563   0.019  0.0487 -1.1195 -0.0953
  263MOL0     C34645   5.122   5.412  -0.008  0.4627 -0.4463 -0.8493
  263MOL0     C34646   5.056   5.372  -0.143 -0.4821 -0.1857  0.1051
  263MOL0     C34647   4.928   5.436  -0.183  0.2664  0.9071 -0.1089
  263MOL0     C34648   4.819   5.480  -0.199 -0.7422 -0.9069 -0.0326
  263MOL0     C34649   5.354   5.776   0.317 -0.0192 -0.0569  1.4142
  263MOL0     C34650   5.438   5.863   0.390 -0.7876  0.0205 -0.7412
  263MOL0     H34651   5.435   6.303   0.649 -1.9320  0.7715 -0.7208
  263MOL0     H34652   5.565   6.476   0.789 -0.2510 -2.2874  0.0312
  263MOL0     H34653   5.879   6.662   0.869 -1.6065  2.2639  1.1970
  263MOL0     H34654   5.724   6.575   0.888 -2.2750  0.9644 -0.7250
  263MOL0     H34655   5.597   6.769   0.830 -0.3427  0.6301 -0.4610
  263MOL0     H34656   5.751   6.858   0.787 -0.8504 -0.6792 -0.8699
  263MOL0     H34657   5.820   6.813   1.012  0.6545 -1.0464 -0.7805
  263MOL0     H34658   5.663   6.747   1.067 -0.6867  1.6161  1.2606
  263MOL0     H34659   5.740   7.036   0.975 -1.5653  2.2357  0.8471
  263MOL0     H34660   5.578   6.971   0.971 -0.6301  0.0975  0.4867
  263MOL0     H34661   5.634   6.927   1.224  3.3382 -0.7110  0.0614
  263MOL0     H34662   5.637   7.109   1.178  0.2804  2.0594 -1.7430
  263MOL0     H34663   5.902   6.957   1.182  1.0852  0.7671  0.2875
  263MOL0     H34664   5.830   6.983   1.344 -0.6843  3.5169  0.6879
  263MOL0     H34665   6.001   7.134   1.266  0.1869 -0.4212 -2.8801
  263MOL0     H34666   5.874   7.229   1.181 -1.6238  0.9245  0.7336
  263MOL0     H34667   5.895   7.331   1.395 -0.6491  0.7552 -0.3870
  263MOL0     H34668   5.883   7.186   1.485  1.7394  1.6350  0.1607
  263MOL0     H34669   5.676   7.437   1.316  1.6420 -0.6288  2.5551
  263MOL0     H34670   5.454   7.550   1.426 -0.6279  0.6781  0.1876
  263MOL0     H34671   5.308   7.436   1.434  1.3452 -0.4484  2.1728
  263MOL0     H34672   5.290   7.393   1.238 -1.5941  1.6589 -0.8802
  263MOL0     H34673   5.454   7.466   1.183  0.5338  0.3591 -0.1131
  263MOL0     H34674   5.201   7.607   1.272  1.3066 -0.0288  1.6251
  263MOL0     H34675   5.361   7.684   1.239 -0.2269  1.1769 -0.6993
  263MOL0     H34676   5.376   7.623   1.029  0.5737  0.3178  0.8120
  263MOL0     H34677   5.215   7.695   1.018 -0.6068 -0.9889 -0.3512
  263MOL0     H34678   5.158   7.523   0.726 -0.8721 -0.2137 -2.4451
  263MOL0     H34679   4.941   7.509   0.631  1.8451 -1.7720 -0.2099
  263MOL0     H34680   4.455   7.263   0.701  1.2592  0.2820  0.0144
  263MOL0     H34681   4.238   7.274   0.609  1.9538 -0.4403  0.9023
  263MOL0     H34682   4.030   7.319   0.501 -0.0263 -0.2156 -1.4718
  263MOL0     H34683   4.142   7.441   0.422  0.4973 -1.3029  0.6995
  263MOL0     H34684   3.847   7.491   0.493  2.1511 -0.4792  2.0310
  263MOL0     H34685   3.887   7.412   0.342 -1.0249  0.3530 -0.9757
  263MOL0     H34686   4.052   7.645   0.330  2.2756 -3.7912  0.3222
  263MOL0     H34687   3.955   7.699   0.457  1.3645  0.8694 -1.3278
  263MOL0     H34688   3.870   7.763   0.210  0.6999  0.9338  0.5280
  263MOL0     H34689   3.841   7.583   0.199  1.4580 -2.2869  3.0781
  263MOL0     H34690   3.718   7.749   0.413  0.0334 -0.0568 -0.0004
  263MOL0     H34691   3.657   7.596   0.369  1.4172 -0.5466  0.9385
  263MOL0     H34692   3.495   7.759   0.305 -0.3457 -1.4569 -1.1887
  263MOL0     H34693   3.564   7.700   0.152  0.9591  0.0468 -0.3019
  263MOL0     H34694   3.650   7.963   0.278 -2.9726 -0.7510  1.9677
  263MOL0     H34695   3.712   7.893   0.127 -0.7998  0.5948  0.3400
  263MOL0     H34696   3.426   7.961   0.179 -0.8309 -1.3180  0.0283
  263MOL0     H34697   3.502   7.903   0.028 -1.7942  2.0380  0.2039
  263MOL0     H34698   4.186   7.663   0.784 -0.8188 -0.4433 -0.3660
  263MOL0     H34699   4.417   7.645   0.882  0.0090 -1.2664  0.7624
  263MOL0     H34700   4.775   7.420   1.027 -1.5521  1.9265 -0.3703
  263MOL0     H34701   4.990   7.432   1.116 -3.3070 -3.3565 -0.1457
  263MOL0     H34702   5.833   6.522   0.453 -2.1900  2.9059 -0.3189
  263MOL0     H34703   5.722   6.326   0.351 -0.0785  0.6249 -0.0594
  263MOL0     H34704   5.344   6.158   0.272 -1.8810  0.5262  1.5628
  263MOL0     H34705   5.202   6.026   0.151  2.0497  1.1360  0.0941
  263MOL0     H34706   5.176   5.556   0.227 -3.3348 -2.6509 -1.9860
  263MOL0     H34707   5.303   5.610   0.111 -1.5472  0.4203 -3.6158
  263MOL0     H34708   5.012   5.587   0.051  0.5430 -1.5415  1.9943
  263MOL0     H34709   5.126   5.625  -0.070 -0.8113  0.2863  0.7251
  263MOL0     H34710   5.066   5.361   0.072 -0.2321  3.3259  1.3087
  263MOL0     H34711   5.229   5.388  -0.007  2.0237  4.9896  2.1049
  263MOL0     H34712   5.125   5.403  -0.223  1.0295 -0.0053  1.4312
  263MOL0     H34713   5.039   5.264  -0.151 -1.7088  0.0287 -0.4162
  263MOL0     H34714   4.723   5.527  -0.209 -0.3003  1.1961  3.6842
  263MOL0     H34715   5.350   5.668   0.328  0.2830 -0.0687  1.4168
  263MOL0     H34716   5.496   5.819   0.470 -1.3020  0.0835 -0.3240
  264MOL0     O34717   0.706   8.558   7.106  0.5015 -0.4009 -0.6206
  264MOL0     C34718   0.798   8.493   7.050  0.1998 -0.9517  0.2887
  264MOL0     O34719   0.780   8.362   6.999  0.0568 -0.3511  0.0530
  264MOL0     C34720   0.668   8.286   7.032  0.1958 -0.0588  0.2170
  264MOL0     C34721   0.628   8.262   7.162 -0.3169 -0.4580  0.4787
  264MOL0     C34722   0.503   8.204   7.191 -0.8970  0.8520 -0.4135
  264MOL0     C34723   0.415   8.171   7.088  1.1329  0.6413 -0.3840
  264MOL0     O34724   0.298   8.112   7.120  1.2542 -0.4504  0.1965
  264MOL0     C34725   0.196   8.086   7.013 -0.3877 -0.2282  0.3944
  264MOL0     C34726   0.087   7.998   7.066  0.4573 -0.2976  0.0937
  264MOL0     C34727  -0.027   7.965   6.965 -0.0350 -0.1242 -0.5508
  264MOL0     C34728  -0.121   7.851   6.995 -0.2102  0.4450  0.6672
  264MOL0     C34729  -0.219   7.903   7.103 -0.0558 -0.1473  0.9917
  264MOL0     C34730  -0.167   7.873   7.242  0.5387  0.5559 -0.5197
  264MOL0     C34731  -0.266   7.886   7.358  0.1721  0.0835 -0.9185
  264MOL0     C34732  -0.357   7.763   7.342  0.5399  0.2566 -1.0962
  264MOL0     N34733  -0.439   7.738   7.468 -0.0898 -0.6434 -0.6946
  264MOL0     C34734  -0.419   7.665   7.578  0.3753  0.1677  0.1463
  264MOL0     C34735  -0.532   7.673   7.656 -0.3750 -0.1724 -0.0267
  264MOL0     C34736  -0.551   7.598   7.776  0.3217  0.7301 -0.3576
  264MOL0     C34737  -0.531   7.674   7.912 -0.4749  0.0680  0.0612
  264MOL0     C34738  -0.659   7.705   7.981  0.9410 -0.7690 -0.0306
  264MOL0     C34739  -0.746   7.806   7.896 -0.3609  0.3285  1.3853
  264MOL0     O34740  -0.846   7.875   7.970 -0.8090  0.2121  0.4462
  264MOL0     C34741  -0.958   7.818   8.007  1.4598  0.1951  0.3470
  264MOL0     C34742  -1.031   7.714   7.944 -0.0044 -1.3639  0.2694
  264MOL0     C34743  -1.155   7.667   7.975 -0.0211 -0.1011  0.3892
  264MOL0     C34744  -1.212   7.720   8.092  0.5020  0.1021 -1.2542
  264MOL0     C34745  -1.349   7.682   8.136 -0.0293  0.2426  0.5612
  264MOL0     O34746  -1.445   7.679   8.031 -0.5190 -0.3756  0.2171
  264MOL0     C34747  -1.580   7.647   8.041  0.0705 -0.2849  0.8486
  264MOL0     C34748  -1.670   7.711   7.943  0.1717  0.8594 -0.4312
  264MOL0     C34749  -1.810   7.688   7.955  0.0358  0.5523  0.3762
  264MOL0     C34750  -1.859   7.578   8.035  0.1922  0.7358 -0.7321
  264MOL0     O34751  -1.992   7.550   7.997 -0.0616  0.4237  0.3188
  264MOL0     C34752  -2.044   7.439   8.071  0.6647 -0.5124  0.7720
  264MOL0     C34753  -2.197   7.451   8.046  0.5125  0.4079 -1.1195
  264MOL0     C34754  -2.242   7.485   7.902 -0.1149 -0.7793 -0.2147
  264MOL0     C34755  -2.397   7.502   7.906 -0.0301 -0.6991  1.0230
  264MOL0     C34756  -2.448   7.486   7.763 -0.7081 -0.5205 -1.1036
  264MOL0     C34757  -2.465   7.344   7.719  0.3304  0.0038  0.5497
  264MOL0     C34758  -2.523   7.328   7.576  1.0625  0.1829 -0.4580
  264MOL0     C34759  -2.421   7.334   7.468 -0.4761  0.5276  0.1171
  264MOL0    Cl34760  -2.489   7.226   7.345  0.4731 -0.1810  0.3796
  264MOL0     C34761  -1.770   7.516   8.126  0.5146 -0.2512 -0.1693
  264MOL0     C34762  -1.633   7.555   8.137 -0.0396  0.0955 -0.1975
  264MOL0     O34763  -1.370   7.687   8.258  0.5839 -0.4235 -0.4210
  264MOL0     C34764  -1.156   7.838   8.154 -0.0155  0.7737  0.1693
  264MOL0     C34765  -1.030   7.879   8.116 -0.1280  0.0945  1.0502
  264MOL0     N34766  -0.614   7.757   7.586 -0.4686 -0.2556 -0.0486
  264MOL0     N34767  -0.561   7.792   7.475  0.2875 -0.3886 -0.4256
  264MOL0     C34768   0.453   8.194   6.953 -0.3784 -0.4495 -0.0868
  264MOL0     C34769   0.585   8.247   6.926  0.3582  0.3856  1.0285
  264MOL0     C34770   0.931   8.558   7.035 -0.2054 -0.1302  0.1084
  264MOL0     C34771   0.953   8.694   7.074  0.2432  0.8869  1.0571
  264MOL0     C34772   1.077   8.754   7.064 -0.4279  0.1327  0.1283
  264MOL0     C34773   1.186   8.684   7.001  0.2519  1.4950  0.8271
  264MOL0     O34774   1.311   8.733   6.991 -0.4523  0.4237  0.2379
  264MOL0     C34775   1.344   8.838   7.082  0.0823 -0.1519 -0.0218
  264MOL0     C34776   1.491   8.873   7.046  0.1663 -0.6193 -0.6477
  264MOL0     C34777   1.515   8.967   6.921  0.1890  0.2257 -0.1686
  264MOL0     C34778   1.661   9.014   6.888  0.6931 -0.8117 -0.2797
  264MOL0     C34779   1.716   9.095   6.997 -0.1865 -0.4366  0.9744
  264MOL0     C34780   1.745   9.168   7.089 -0.3108  0.1728 -0.1516
  264MOL0     C34781   1.166   8.550   6.960  0.7188  0.7658 -1.4493
  264MOL0     C34782   1.043   8.487   6.979 -0.5690 -0.3222 -0.2813
  264MOL0     H34783   0.691   8.295   7.244  1.2099  1.6654 -1.4137
  264MOL0     H34784   0.493   8.176   7.296  2.4497 -2.0092 -0.7148
  264MOL0     H34785   0.235   8.027   6.931 -2.2603 -2.2261  0.8271
  264MOL0     H34786   0.150   8.177   6.973  1.9991  0.2833 -1.3659
  264MOL0     H34787   0.034   8.046   7.149  1.7719 -0.4209  1.0381
  264MOL0     H34788   0.118   7.900   7.103 -1.1846 -0.4651  1.1699
  264MOL0     H34789   0.018   7.943   6.868 -1.5948 -2.0677 -0.8986
  264MOL0     H34790  -0.096   8.050   6.958  2.9520  2.5583  0.2181
  264MOL0     H34791  -0.183   7.825   6.909  1.2880 -1.1954  0.0047
  264MOL0     H34792  -0.058   7.766   7.023  0.8991  0.3859 -1.7750
  264MOL0     H34793  -0.314   7.850   7.091  1.5953 -3.0060 -0.6419
  264MOL0     H34794  -0.238   8.010   7.098 -1.0746 -0.3726 -0.3584
  264MOL0     H34795  -0.073   7.926   7.262 -0.9755  3.5631 -0.7473
  264MOL0     H34796  -0.134   7.769   7.239 -0.1324  0.3495 -0.9816
  264MOL0     H34797  -0.215   7.869   7.454 -1.5645 -2.2904 -0.3276
  264MOL0     H34798  -0.313   7.985   7.355  0.9954  0.5015 -0.5758
  264MOL0     H34799  -0.301   7.677   7.304 -1.0750 -0.1638 -2.5915
  264MOL0     H34800  -0.443   7.769   7.275 -0.0493 -1.3412 -0.5448
  264MOL0     H34801  -0.321   7.625   7.601  0.0723 -0.5162  0.2697
  264MOL0     H34802  -0.480   7.515   7.781  0.3883  0.8245  3.6061
  264MOL0     H34803  -0.652   7.556   7.774 -0.2600  1.9502  1.1161
  264MOL0     H34804  -0.467   7.762   7.901  2.7175 -1.7862  2.0616
  264MOL0     H34805  -0.486   7.597   7.976 -3.1178 -1.1087  0.6318
  264MOL0     H34806  -0.724   7.618   7.990 -1.5020  0.5623 -2.8393
  264MOL0     H34807  -0.640   7.757   8.075 -0.8775 -1.0989  0.5634
  264MOL0     H34808  -0.777   7.740   7.814  2.5300 -1.8214  1.8682
  264MOL0     H34809  -0.691   7.883   7.841  1.1365 -1.0523  0.8482
  264MOL0     H34810  -0.973   7.659   7.870 -0.6084 -0.8058 -0.6321
  264MOL0     H34811  -1.200   7.577   7.935  0.8475  0.2861 -1.5780
  264MOL0     H34812  -1.639   7.797   7.884 -0.3437  0.1953 -1.7001
  264MOL0     H34813  -1.885   7.750   7.908 -0.5414  2.9653  4.0841
  264MOL0     H34814  -2.039   7.443   8.180 -1.9847  1.3452  0.9291
  264MOL0     H34815  -1.989   7.354   8.031  1.7598  1.9988 -3.8239
  264MOL0     H34816  -2.233   7.534   8.108 -0.4476  0.8810 -2.2700
  264MOL0     H34817  -2.256   7.373   8.094  0.7685  1.4524  1.0085
  264MOL0     H34818  -2.210   7.404   7.835 -0.7242 -1.6494  0.5156
  264MOL0     H34819  -2.196   7.579   7.871 -2.1171 -0.0305 -1.0688
  264MOL0     H34820  -2.443   7.434   7.978 -1.8930  0.0092  0.5429
  264MOL0     H34821  -2.421   7.605   7.935 -0.4326 -0.7836  0.9951
  264MOL0     H34822  -2.378   7.546   7.704 -0.8797  1.7740  0.8521
  264MOL0     H34823  -2.545   7.536   7.759  0.3407  1.7049 -0.3081
  264MOL0     H34824  -2.529   7.302   7.797 -0.1356  0.6884  0.5516
  264MOL0     H34825  -2.374   7.285   7.712 -1.0781 -2.0501 -4.1280
  264MOL0     H34826  -2.560   7.226   7.571 -1.0057  0.8197  0.5609
  264MOL0     H34827  -2.607   7.396   7.556  1.0836  0.6257  0.8538
  264MOL0     H34828  -2.338   7.269   7.495 -2.4164 -1.6270  1.2757
  264MOL0     H34829  -2.409   7.434   7.427 -1.5911  1.0891  1.0910
  264MOL0     H34830  -1.792   7.431   8.189 -1.9657  0.0899 -0.4822
  264MOL0     H34831  -1.562   7.509   8.205 -0.1475  0.1644 -0.0375
  264MOL0     H34832  -1.211   7.877   8.239 -2.9823  0.9624 -1.6985
  264MOL0     H34833  -0.978   7.955   8.174 -0.2593  0.2921  0.9108
  264MOL0     H34834   0.390   8.178   6.867  0.2259 -3.4778 -0.0741
  264MOL0     H34835   0.631   8.266   6.830 -2.1729 -2.3298 -0.9042
  264MOL0     H34836   0.867   8.747   7.112  0.3493  1.1157  0.9782
  264MOL0     H34837   1.086   8.854   7.105 -0.3518  0.3370 -0.3751
  264MOL0     H34838   1.344   8.804   7.186 -2.2030  0.0579  0.0933
  264MOL0     H34839   1.279   8.926   7.077  0.5717  0.3629  1.7796
  264MOL0     H34840   1.542   8.919   7.130 -0.6684  1.4314 -1.2131
  264MOL0     H34841   1.532   8.772   7.031  1.2545 -0.2170 -0.4425
  264MOL0     H34842   1.461   9.058   6.949  0.8041  0.3185  0.7493
  264MOL0     H34843   1.477   8.919   6.830 -0.3935  3.2218 -1.6121
  264MOL0     H34844   1.734   8.934   6.871  0.7288 -0.9572  0.5302
  264MOL0     H34845   1.649   9.070   6.795 -3.3569  0.2738  0.7126
  264MOL0     H34846   1.757   9.226   7.178 -0.6974 -0.8350  0.5715
  264MOL0     H34847   1.245   8.490   6.915 -0.0495  1.4325 -3.8096
  264MOL0     H34848   1.028   8.393   6.928 -0.6780 -1.1771  1.2655
  265MOL0     O34849   6.606   6.433  10.883 -0.3944 -0.5876  0.0947
  265MOL0     C34850   6.658   6.325  10.909  0.7298  0.2954  0.6291
  265MOL0     O34851   6.780   6.306  10.967 -0.1718 -0.7097 -0.3158
  265MOL0     C34852   6.862   6.412  11.006 -0.1479  0.6817  0.0743
  265MOL0     C34853   6.907   6.515  10.917  0.6608  0.4142  0.2342
  265MOL0     C34854   6.997   6.608  10.964 -0.1809  0.1902 -0.0703
  265MOL0     C34855   7.052   6.607  11.086 -0.8646 -0.2647  0.0335
  265MOL0     O34856   7.153   6.697  11.123 -0.2394 -1.1123  0.0543
  265MOL0     C34857   7.180   6.694  11.266 -0.2529 -1.0010  0.7860
  265MOL0     C34858   7.266   6.822  11.291  0.0478 -1.3188  0.3533
  265MOL0     C34859   7.412   6.822  11.217  0.1662  0.2436 -0.5632
  265MOL0     C34860   7.479   6.963  11.187 -0.0063  0.1916 -0.4811
  265MOL0     C34861   7.597   6.955  11.088 -0.2741 -0.9210  0.0959
  265MOL0     C34862   7.649   7.096  11.075  0.0286  0.1129 -0.4902
  265MOL0     C34863   7.779   7.109  10.999 -0.9329  0.5949  0.0573
  265MOL0     C34864   7.821   7.261  10.971 -0.3427 -0.1684 -0.4416
  265MOL0     N34865   7.735   7.334  10.872 -0.6856 -0.3628 -1.0314
  265MOL0     C34866   7.615   7.392  10.890  0.3774 -0.4938  1.0166
  265MOL0     C34867   7.584   7.434  10.760  0.2592  0.4116 -0.2768
  265MOL0     C34868   7.465   7.509  10.715  1.1241  0.1615 -0.3193
  265MOL0     C34869   7.423   7.503  10.561 -0.0811  0.6941 -0.3779
  265MOL0     C34870   7.299   7.589  10.527 -0.5534  0.6268  0.0730
  265MOL0     C34871   7.175   7.576  10.624 -0.5956  0.1108 -0.5620
  265MOL0     O34872   7.122   7.442  10.637 -0.2256 -0.1823 -0.4128
  265MOL0     C34873   6.991   7.405  10.630 -0.0513  0.4517 -0.0098
  265MOL0     C34874   6.956   7.305  10.534 -0.9855 -0.0301  0.2709
  265MOL0     C34875   6.825   7.275  10.508  0.1362  0.4346 -0.1510
  265MOL0     C34876   6.729   7.324  10.588  0.1570 -0.3505  0.2605
  265MOL0     C34877   6.594   7.250  10.573 -0.0225  0.3133 -0.6758
  265MOL0     O34878   6.474   7.319  10.598  0.4118  0.1267 -1.1174
  265MOL0     C34879   6.355   7.242  10.592 -0.1853 -0.1755  1.4744
  265MOL0     C34880   6.331   7.144  10.492 -0.5966 -0.2654 -0.5091
  265MOL0     C34881   6.214   7.065  10.498 -0.0256 -0.4232 -0.3317
  265MOL0     C34882   6.116   7.096  10.595  0.5508  0.2675  0.2647
  265MOL0     O34883   6.012   7.007  10.602 -0.0913 -0.1465 -0.1872
  265MOL0     C34884   5.885   7.040  10.661 -0.4889  1.0723 -0.0071
  265MOL0     C34885   5.814   7.143  10.582  0.4818 -0.0883  0.7713
  265MOL0     C34886   5.764   7.062  10.456 -0.1604 -0.4539 -0.4892
  265MOL0     C34887   5.708   7.153  10.353  0.5275 -0.3679  0.0599
  265MOL0     C34888   5.669   7.101  10.211 -0.9347 -0.5741 -0.8997
  265MOL0     C34889   5.519   7.053  10.219  0.9160 -1.0520  0.5060
  265MOL0     C34890   5.428   7.180  10.186  0.2603 -0.5768  0.5557
  265MOL0     C34891   5.283   7.133  10.185 -0.1401  0.6309  0.5973
  265MOL0    Cl34892   5.172   7.254  10.111  0.6745  0.3157 -0.4992
  265MOL0     C34893   6.139   7.195  10.695 -0.5175 -0.3061 -0.3378
  265MOL0     C34894   6.261   7.263  10.698  0.1423  0.3599  0.0790
  265MOL0     O34895   6.601   7.126  10.563 -0.1986  0.4253 -0.2884
  265MOL0     C34896   6.763   7.417  10.682 -0.1313 -0.3384 -0.7186
  265MOL0     C34897   6.893   7.457  10.705  0.2113 -0.5389 -0.4305
  265MOL0     N34898   7.691   7.404  10.674 -0.3015 -0.4501  0.2143
  265MOL0     N34899   7.782   7.344  10.745 -0.8468 -0.0588 -0.0501
  265MOL0     C34900   7.011   6.498  11.164 -0.5885 -0.0371 -0.4298
  265MOL0     C34901   6.926   6.391  11.120  0.1841 -0.2244  0.3586
  265MOL0     C34902   6.582   6.207  10.871  0.0631  0.8921  0.4539
  265MOL0     C34903   6.599   6.082  10.940  1.0776  0.0804 -0.0830
  265MOL0     C34904   6.525   5.968  10.898  0.0912 -0.1960  0.1485
  265MOL0     C34905   6.426   5.976  10.807 -0.3179 -0.3365  0.3705
  265MOL0     O34906   6.348   5.862  10.789 -0.2289 -0.9933 -0.0562
  265MOL0     C34907   6.248   5.865  10.683 -0.1014 -1.6017  0.0086
  265MOL0     C34908   6.188   5.724  10.699  0.0896 -1.7549  0.5890
  265MOL0     C34909   6.071   5.703  10.602 -0.4970 -0.4568 -0.6242
  265MOL0     C34910   6.025   5.559  10.593 -0.5011  0.2566  0.0793
  265MOL0     C34911   5.924   5.551  10.484 -0.1619  0.1989 -0.6768
  265MOL0     C34912   5.833   5.545  10.402  0.0821 -0.8439  0.1741
  265MOL0     C34913   6.404   6.106  10.733 -0.2108 -0.0192  0.4455
  265MOL0     C34914   6.491   6.210  10.770  0.3951 -0.7504 -0.0427
  265MOL0     H34915   6.882   6.516  10.811  4.6869  1.7368 -0.8725
  265MOL0     H34916   7.036   6.689  10.903 -2.2527  1.3050 -0.0246
  265MOL0     H34917   7.249   6.614  11.294  0.0730 -0.8153  0.5206
  265MOL0     H34918   7.091   6.681  11.328  0.4540 -2.1397  1.6076
  265MOL0     H34919   7.264   6.835  11.399 -0.3644 -0.8569  0.2947
  265MOL0     H34920   7.210   6.906  11.249 -2.4491 -2.6529  0.8446
  265MOL0     H34921   7.397   6.768  11.123  3.5196  4.5080 -4.0095
  265MOL0     H34922   7.477   6.757  11.276  2.5508  2.5207 -0.5459
  265MOL0     H34923   7.403   7.027  11.142 -0.6591  1.2868  2.0456
  265MOL0     H34924   7.493   7.015  11.282 -3.9235  2.6287 -1.0067
  265MOL0     H34925   7.563   6.914  10.993 -0.5766 -1.9572  0.6410
  265MOL0     H34926   7.671   6.886  11.129  3.0575 -0.6876 -4.7314
  265MOL0     H34927   7.674   7.143  11.171 -0.2432  1.2218 -0.9483
  265MOL0     H34928   7.575   7.154  11.020 -0.5205  0.1298  0.2501
  265MOL0     H34929   7.865   7.064  11.048  4.1972  8.6564  0.1725
  265MOL0     H34930   7.758   7.050  10.909 -3.0746 -1.9009  2.0096
  265MOL0     H34931   7.917   7.251  10.919 -0.1144 -1.3367  0.1536
  265MOL0     H34932   7.826   7.313  11.068 -3.3936  1.7416 -1.1829
  265MOL0     H34933   7.556   7.406  10.979 -2.5681  2.1839 -1.1090
  265MOL0     H34934   7.476   7.612  10.750 -1.6731  0.4555 -0.0422
  265MOL0     H34935   7.376   7.466  10.763  1.1793  0.5582  0.1490
  265MOL0     H34936   7.408   7.401  10.526 -1.1627  1.8010 -3.5176
  265MOL0     H34937   7.501   7.537  10.493  1.2356  0.1261  0.8041
  265MOL0     H34938   7.327   7.694  10.524 -1.6206  0.9779  1.2567
  265MOL0     H34939   7.271   7.547  10.430 -0.7635 -1.5513  1.0067
  265MOL0     H34940   7.103   7.636  10.568 -0.8464  0.6528  0.3227
  265MOL0     H34941   7.188   7.620  10.723 -1.8680  0.1471 -0.3972
  265MOL0     H34942   7.029   7.259  10.468  0.5449 -0.2021  1.9888
  265MOL0     H34943   6.796   7.191  10.446  1.6074 -0.0007 -0.2856
  265MOL0     H34944   6.394   7.123  10.407  0.5900  0.1738  0.2378
  265MOL0     H34945   6.202   6.983  10.427 -1.5863  0.5870 -1.2810
  265MOL0     H34946   5.904   7.074  10.764 -0.9222  3.9438 -0.7931
  265MOL0     H34947   5.826   6.948  10.655  1.5302 -0.1834 -3.3781
  265MOL0     H34948   5.876   7.224  10.544 -2.0626  2.0387  0.8205
  265MOL0     H34949   5.727   7.183  10.635  0.0640  1.7141 -1.1634
  265MOL0     H34950   5.689   6.995  10.498 -1.1764  0.2378 -1.1406
  265MOL0     H34951   5.850   7.018  10.404  0.7024 -0.4689  0.8952
  265MOL0     H34952   5.625   7.212  10.392  2.5572  1.7563  1.4491
  265MOL0     H34953   5.791   7.224  10.345  0.5946 -0.4899 -0.3507
  265MOL0     H34954   5.727   7.010  10.191 -1.4729 -2.0833  3.4049
  265MOL0     H34955   5.690   7.173  10.131 -0.6850  0.3854  0.0017
  265MOL0     H34956   5.496   7.022  10.321  1.5836  2.1465  1.7432
  265MOL0     H34957   5.494   6.970  10.152  0.3181  0.9354 -1.8913
  265MOL0     H34958   5.429   7.252  10.267  0.0041 -1.2882  1.2052
  265MOL0     H34959   5.470   7.226  10.096  1.7336 -1.7238  0.6313
  265MOL0     H34960   5.241   7.108  10.282 -0.6715 -1.3019 -0.0834
  265MOL0     H34961   5.271   7.045  10.121 -1.3675  0.4184  1.1038
  265MOL0     H34962   6.083   7.206  10.787  1.7128  2.4625  0.8142
  265MOL0     H34963   6.291   7.341  10.767  0.5355  0.4505 -0.1905
  265MOL0     H34964   6.688   7.470  10.739  0.9242  2.1908 -1.5557
  265MOL0     H34965   6.920   7.518  10.790 -0.1489 -0.3153 -0.4734
  265MOL0     H34966   7.063   6.479  11.258  0.2731 -0.4610 -0.9767
  265MOL0     H34967   6.926   6.302  11.182 -0.0192  1.4263  2.8545
  265MOL0     H34968   6.668   6.072  11.023  2.5284  1.0435 -1.1352
  265MOL0     H34969   6.553   5.872  10.941  1.1603  0.2526  0.4720
  265MOL0     H34970   6.290   5.876  10.583 -1.1889  0.7750 -0.2612
  265MOL0     H34971   6.171   5.937  10.712 -0.5054 -2.3369  0.8019
  265MOL0     H34972   6.263   5.665  10.646  1.3523  2.5292 -3.0467
  265MOL0     H34973   6.162   5.700  10.803  0.3805 -0.4501  0.9861
  265MOL0     H34974   6.094   5.745  10.504 -1.1285  2.5450  0.3869
  265MOL0     H34975   5.982   5.753  10.643 -0.7300 -0.9238 -0.5558
  265MOL0     H34976   6.115   5.505  10.561  0.0565  1.7932 -1.0942
  265MOL0     H34977   5.993   5.518  10.688  1.5388 -2.1434 -0.1602
  265MOL0     H34978   5.745   5.543  10.340  1.3832 -0.7945 -1.7811
  265MOL0     H34979   6.331   6.121  10.654  0.6742  3.1126  0.0865
  265MOL0     H34980   6.465   6.311  10.741  1.3554  0.2879  2.4188
  266MOL0     O34981   3.604   1.546   5.524  0.8228 -0.1037 -0.7100
  266MOL0     C34982   3.674   1.451   5.498 -0.1465  0.9587  0.2640
  266MOL0     O34983   3.751   1.437   5.377  0.1622 -0.6441  0.3605
  266MOL0     C34984   3.798   1.552   5.312 -0.5872 -0.3621 -0.5289
  266MOL0     C34985   3.932   1.581   5.330 -0.1378  0.6416  0.1497
  266MOL0     C34986   3.995   1.680   5.246  1.3015 -0.3767  0.1686
  266MOL0     C34987   3.922   1.743   5.144 -0.2074 -0.1424  0.6585
  266MOL0     O34988   3.993   1.825   5.064 -0.3170  0.4667  0.3226
  266MOL0     C34989   3.931   1.876   4.944  0.1478  0.0591  0.0411
  266MOL0     C34990   4.019   1.981   4.891 -0.9620 -0.5341 -0.0198
  266MOL0     C34991   4.145   1.922   4.831 -1.2668  0.3939 -0.5012
  266MOL0     C34992   4.232   2.038   4.778  0.1341 -1.2708  0.5410
  266MOL0     C34993   4.363   1.990   4.725 -0.3293 -0.9970  0.3112
  266MOL0     C34994   4.481   2.055   4.794 -0.1912  0.2470  0.2594
  266MOL0     C34995   4.630   2.012   4.759 -0.1570 -0.6284  0.3440
  266MOL0     C34996   4.696   2.094   4.645 -0.2286  1.1926 -0.1668
  266MOL0     N34997   4.816   2.027   4.601  0.2170  0.4177  0.0899
  266MOL0     C34998   4.920   2.010   4.689  0.2594 -0.2329 -0.1808
  266MOL0     C34999   4.998   1.916   4.631 -0.6946 -0.9218  0.2224
  266MOL0     C35000   5.117   1.860   4.705 -0.1152  0.0694 -0.5780
  266MOL0     C35001   5.240   1.895   4.621 -1.1413  0.2216 -0.4953
  266MOL0     C35002   5.360   1.812   4.658 -0.7067  0.7522 -0.5772
  266MOL0     C35003   5.496   1.859   4.616 -0.4591  0.5638  0.1429
  266MOL0     O35004   5.493   1.879   4.473  0.2956 -0.1086  0.7093
  266MOL0     C35005   5.515   1.772   4.392 -1.0340  1.3144 -0.8229
  266MOL0     C35006   5.461   1.784   4.269  0.5223 -0.2293  0.8849
  266MOL0     C35007   5.484   1.689   4.177  0.6452  0.5540 -0.1914
  266MOL0     C35008   5.547   1.569   4.205  0.1586 -0.0308  0.1453
  266MOL0     C35009   5.556   1.467   4.105  0.2000  0.9156  0.3238
  266MOL0     O35010   5.671   1.444   4.040 -1.3983 -0.1229  0.0982
  266MOL0     C35011   5.669   1.333   3.960 -0.0486 -0.0329  0.4860
  266MOL0     C35012   5.676   1.201   4.015 -0.6281  0.0236  0.2370
  266MOL0     C35013   5.683   1.084   3.934 -0.9711  0.2991 -0.1855
  266MOL0     C35014   5.682   1.101   3.794 -0.1199  0.4186 -0.7254
  266MOL0     O35015   5.687   0.987   3.721  1.2452  0.6758 -0.1260
  266MOL0     C35016   5.691   0.991   3.583 -0.0175  0.3165  0.0400
  266MOL0     C35017   5.667   0.853   3.527 -1.4132  0.7062  0.6407
  266MOL0     C35018   5.522   0.828   3.501 -0.3140  0.0988  0.0691
  266MOL0     C35019   5.479   0.693   3.443 -0.7454  0.2133  0.2171
  266MOL0     C35020   5.358   0.705   3.351  0.4219  0.1738  0.1087
  266MOL0     C35021   5.303   0.577   3.293 -0.2107  0.3836 -0.2921
  266MOL0     C35022   5.193   0.603   3.185  0.4994 -0.9703  0.3571
  266MOL0     C35023   5.179   0.486   3.081  0.6831  0.6516  0.1846
  266MOL0    Cl35024   5.180   0.324   3.168  0.7777 -0.2726  0.5493
  266MOL0     C35025   5.681   1.234   3.738 -0.1818 -0.3486 -0.7066
  266MOL0     C35026   5.671   1.344   3.822 -0.0681 -0.7021 -0.2596
  266MOL0     O35027   5.446   1.413   4.096 -0.1574  0.2125  0.1413
  266MOL0     C35028   5.586   1.546   4.333 -0.5515 -0.5642 -0.2268
  266MOL0     C35029   5.586   1.654   4.425 -0.9900 -0.5571  0.3585
  266MOL0     N35030   4.937   1.881   4.508 -0.0947 -0.2002  0.0935
  266MOL0     N35031   4.822   1.945   4.493 -1.0770  0.0771 -0.0363
  266MOL0     C35032   3.780   1.718   5.136  0.8080 -0.4779 -1.6224
  266MOL0     C35033   3.724   1.630   5.226  0.2660  0.0136 -0.4993
  266MOL0     C35034   3.673   1.328   5.585  0.3950  0.1686  0.5903
  266MOL0     C35035   3.578   1.320   5.691 -0.7120 -0.0575  0.6475
  266MOL0     C35036   3.576   1.200   5.768  0.2249 -1.0465  0.0141
  266MOL0     C35037   3.653   1.084   5.734  0.2532 -0.2606 -0.2448
  266MOL0     O35038   3.645   0.971   5.818  0.0027 -0.0142 -0.3131
  266MOL0     C35039   3.745   0.869   5.797 -0.0420 -0.1827 -0.9480
  266MOL0     C35040   3.710   0.756   5.893  1.3838  0.7922 -0.3688
  266MOL0     C35041   3.761   0.616   5.843  0.1336 -0.5982  0.5432
  266MOL0     C35042   3.783   0.519   5.953  0.3558  0.2064 -0.2650
  266MOL0     C35043   3.661   0.504   6.033 -1.0632  0.8589  0.2883
  266MOL0     C35044   3.580   0.455   6.106 -0.3182  0.5831  0.6433
  266MOL0     C35045   3.749   1.100   5.628  0.9505  0.5392 -0.1395
  266MOL0     C35046   3.761   1.219   5.555  0.4283 -0.0088  0.5927
  266MOL0     H35047   3.988   1.529   5.407 -0.1827  0.7772  0.2753
  266MOL0     H35048   4.098   1.711   5.252  1.3984 -0.7357  0.3531
  266MOL0     H35049   3.836   1.923   4.971  0.2708  2.2547 -2.8965
  266MOL0     H35050   3.921   1.808   4.859  1.4262  0.3979 -0.4036
  266MOL0     H35051   4.045   2.046   4.974  0.7247 -0.1896 -0.7883
  266MOL0     H35052   3.981   2.051   4.816  1.7174  0.0403 -0.9414
  266MOL0     H35053   4.111   1.847   4.759  0.8343 -4.1604  2.7265
  266MOL0     H35054   4.200   1.866   4.907 -1.2760  1.2671  0.1594
  266MOL0     H35055   4.174   2.078   4.694 -3.7731  0.3094  3.6852
  266MOL0     H35056   4.246   2.116   4.854  0.9928 -0.4000 -0.4739
  266MOL0     H35057   4.360   2.006   4.617  0.8348  1.9472  0.6206
  266MOL0     H35058   4.377   1.884   4.747  1.6321 -0.4674  1.9009
  266MOL0     H35059   4.461   2.036   4.900 -2.4927  1.4669  0.0992
  266MOL0     H35060   4.472   2.163   4.787  1.2462  0.3215 -1.0422
  266MOL0     H35061   4.690   2.028   4.849  0.4997  1.1811 -0.3825
  266MOL0     H35062   4.639   1.908   4.726 -1.8612 -0.4690 -0.6957
  266MOL0     H35063   4.715   2.195   4.680 -2.0389  1.1476  1.0498
  266MOL0     H35064   4.627   2.111   4.562 -0.0626 -2.0603 -1.1143
  266MOL0     H35065   4.926   2.061   4.785  1.0927  2.6785 -1.6383
  266MOL0     H35066   5.101   1.752   4.714 -0.2423 -0.0278 -1.7423
  266MOL0     H35067   5.121   1.895   4.808 -1.0463 -2.2017  0.2946
  266MOL0     H35068   5.258   2.001   4.642  1.6967 -0.5477  1.5479
  266MOL0     H35069   5.229   1.882   4.513 -2.4019  2.7896 -0.7551
  266MOL0     H35070   5.368   1.780   4.762  1.2367 -0.2494 -0.9896
  266MOL0     H35071   5.351   1.715   4.609 -1.1408 -1.5724  3.6040
  266MOL0     H35072   5.571   1.793   4.660 -0.8418 -0.5488 -0.8236
  266MOL0     H35073   5.511   1.959   4.659 -3.2597  0.6402  1.1968
  266MOL0     H35074   5.399   1.872   4.256 -0.7830 -1.2941 -0.4667
  266MOL0     H35075   5.431   1.704   4.083  0.6882  2.5437  0.0572
  266MOL0     H35076   5.657   1.201   4.122  1.3983 -2.7312  0.7048
  266MOL0     H35077   5.693   0.986   3.981  4.3591 -0.9709 -3.0773
  266MOL0     H35078   5.788   1.032   3.551 -0.1832  2.1060  1.7060
  266MOL0     H35079   5.604   1.051   3.555 -1.1129 -1.5271 -0.7143
  266MOL0     H35080   5.717   0.771   3.579 -2.7842 -1.2928 -1.0518
  266MOL0     H35081   5.698   0.858   3.423 -0.6022  3.4297  0.9241
  266MOL0     H35082   5.493   0.915   3.441  1.1276  0.2923 -0.3915
  266MOL0     H35083   5.483   0.836   3.603 -1.2348  0.6555 -0.3134
  266MOL0     H35084   5.564   0.647   3.391 -0.4546  0.4735  0.4563
  266MOL0     H35085   5.453   0.619   3.519 -1.6509  0.3484  0.0410
  266MOL0     H35086   5.398   0.755   3.262 -0.5855  0.1021 -0.4048
  266MOL0     H35087   5.279   0.768   3.393  0.8987 -0.3090  1.8038
  266MOL0     H35088   5.266   0.506   3.367  0.6965 -0.4223 -0.5885
  266MOL0     H35089   5.382   0.529   3.234 -3.9686 -1.0251 -4.8384
  266MOL0     H35090   5.096   0.625   3.231 -0.3254 -0.1158 -1.6711
  266MOL0     H35091   5.228   0.689   3.126  0.4274 -0.0505  1.6234
  266MOL0     H35092   5.263   0.494   3.011  0.8476  4.6069  0.6411
  266MOL0     H35093   5.084   0.498   3.030  1.4564  1.7867 -1.0442
  266MOL0     H35094   5.685   1.244   3.630 -1.4235 -1.6390 -0.9047
  266MOL0     H35095   5.682   1.447   3.792 -0.1645 -0.9451 -1.1749
  266MOL0     H35096   5.622   1.447   4.359  1.5250  0.1524 -0.1955
  266MOL0     H35097   5.631   1.635   4.521 -1.3693 -1.2220  0.4117
  266MOL0     H35098   3.719   1.770   5.062 -0.3436  0.4571 -0.0818
  266MOL0     H35099   3.615   1.625   5.220  0.2802  0.2724 -1.0304
  266MOL0     H35100   3.517   1.405   5.720  0.3071  0.9098  0.0282
  266MOL0     H35101   3.518   1.186   5.859 -0.1900  1.1990  0.1586
  266MOL0     H35102   3.838   0.918   5.828 -1.2764 -0.0446  3.0836
  266MOL0     H35103   3.752   0.820   5.699  0.9528 -3.6713  0.7054
  266MOL0     H35104   3.747   0.778   5.993  0.6909  1.8985 -0.3379
  266MOL0     H35105   3.601   0.749   5.893  1.4352 -0.3254 -1.1795
  266MOL0     H35106   3.853   0.633   5.786  0.6902  1.8331  1.9976
  266MOL0     H35107   3.691   0.567   5.776 -0.1472 -0.6306  0.8586
  266MOL0     H35108   3.806   0.426   5.900 -1.2657  1.4848 -3.4559
  266MOL0     H35109   3.865   0.542   6.022 -0.2805 -0.5612  0.7674
  266MOL0     H35110   3.518   0.400   6.174 -0.6406 -1.6660 -1.3570
  266MOL0     H35111   3.812   1.019   5.593  1.6047  1.2261 -0.5934
  266MOL0     H35112   3.830   1.236   5.473  1.0033  1.3007  1.3189
  267MOL0     O35113   8.485  10.944   0.095  0.8463 -0.0344  0.4736
  267MOL0     C35114   8.545  10.992   0.002  0.2140  0.2732  0.9172
  267MOL0     O35115   8.490  11.050  -0.114  0.8784  0.1430 -0.3315
  267MOL0     C35116   8.360  11.059  -0.117 -0.2342  0.8978  0.0284
  267MOL0     C35117   8.281  10.945  -0.138  0.5127  0.4900 -0.6076
  267MOL0     C35118   8.145  10.949  -0.161 -0.1638 -0.2941 -0.3453
  267MOL0     C35119   8.082  11.080  -0.155  0.6453 -0.3924 -0.2382
  267MOL0     O35120   7.947  11.093  -0.178  0.2780  0.3926 -0.7052
  267MOL0     C35121   7.869  10.987  -0.235 -0.4637 -0.0475 -0.9144
  267MOL0     C35122   7.775  10.919  -0.144 -0.2296  0.3907  0.1761
  267MOL0     C35123   7.647  10.872  -0.216  1.3026 -0.5814  0.0460
  267MOL0     C35124   7.538  10.824  -0.113  1.4961 -0.3018 -0.2166
  267MOL0     C35125   7.403  10.803  -0.169  0.2824  0.5655  0.0366
  267MOL0     C35126   7.294  10.824  -0.065  0.5566 -0.6129 -0.3494
  267MOL0     C35127   7.262  10.970  -0.005  0.4612 -0.0883  1.4077
  267MOL0     C35128   7.225  11.085  -0.102  0.1677 -0.1263  0.2857
  267MOL0     N35129   7.343  11.130  -0.182 -0.5179  0.1706 -0.3995
  267MOL0     C35130   7.465  11.180  -0.133  0.9362 -0.3096  0.5332
  267MOL0     C35131   7.511  11.263  -0.232  0.9790 -0.2289 -0.0352
  267MOL0     C35132   7.636  11.343  -0.242  0.0634  0.0532  0.3198
  267MOL0     C35133   7.615  11.485  -0.305 -0.8123 -0.4666  0.1041
  267MOL0     C35134   7.506  11.561  -0.238  0.2991 -0.8732  0.5373
  267MOL0     C35135   7.498  11.554  -0.082  1.9087 -0.2303 -0.0341
  267MOL0     O35136   7.390  11.641  -0.041  1.2372 -0.5790 -0.5861
  267MOL0     C35137   7.264  11.601  -0.048  0.9409  0.8300 -0.6710
  267MOL0     C35138   7.172  11.689  -0.002  0.1974 -1.5840 -0.0269
  267MOL0     C35139   7.032  11.683  -0.003  0.1090 -0.0720  0.1410
  267MOL0     C35140   6.980  11.572  -0.069 -0.1057  0.4322 -0.7487
  267MOL0     C35141   6.834  11.562  -0.093 -0.2589  0.1465  0.5815
  267MOL0     O35142   6.786  11.446  -0.124 -0.2853 -0.0501  0.0211
  267MOL0     C35143   6.662  11.440  -0.189  0.4233 -0.0026  0.1544
  267MOL0     C35144   6.645  11.497  -0.323  0.3792 -0.5817  0.1968
  267MOL0     C35145   6.518  11.492  -0.375  0.5829  0.0790  0.2826
  267MOL0     C35146   6.414  11.424  -0.315 -0.4381 -0.3167  0.4498
  267MOL0     O35147   6.292  11.436  -0.376  0.7182  0.2643 -0.4437
  267MOL0     C35148   6.269  11.358  -0.493 -0.3352  0.5638 -0.3355
  267MOL0     C35149   6.228  11.452  -0.605 -0.1730 -0.0244  0.0229
  267MOL0     C35150   6.245  11.393  -0.747  0.0948 -0.2054  0.5611
  267MOL0     C35151   6.189  11.498  -0.847 -0.4663  0.5926 -0.5826
  267MOL0     C35152   6.204  11.443  -0.999 -0.5967 -0.6947  0.0103
  267MOL0     C35153   6.157  11.548  -1.098 -0.8270 -0.1626 -0.5581
  267MOL0     C35154   6.150  11.501  -1.243  0.1177  0.3296 -0.3691
  267MOL0     C35155   6.275  11.501  -1.324  0.8400  0.5980 -0.5607
  267MOL0    Cl35156   6.309  11.664  -1.396 -0.4101  0.4060  0.4223
  267MOL0     C35157   6.426  11.385  -0.182 -0.0204  0.5245  0.2844
  267MOL0     C35158   6.553  11.383  -0.119  0.4901 -0.7366  0.4794
  267MOL0     O35159   6.780  11.668  -0.110  0.1244  0.4643 -0.1853
  267MOL0     C35160   7.068  11.467  -0.115 -0.2245  0.2931 -0.8015
  267MOL0     C35161   7.207  11.482  -0.108 -0.0054 -1.5670 -0.3255
  267MOL0     N35162   7.416  11.272  -0.334  0.4098  1.0036  0.5549
  267MOL0     N35163   7.333  11.177  -0.308 -0.4419 -0.7885 -0.3295
  267MOL0     C35164   8.158  11.195  -0.133 -0.4533  0.5262  0.1103
  267MOL0     C35165   8.298  11.185  -0.109  0.4229 -0.2139 -0.3446
  267MOL0     C35166   8.691  10.960   0.001 -0.4696  0.2468  0.6511
  267MOL0     C35167   8.762  10.955  -0.120 -1.6872 -0.6475 -0.1860
  267MOL0     C35168   8.905  10.930  -0.124  0.4808  1.3017 -0.1544
  267MOL0     C35169   8.979  10.914  -0.007 -0.4914 -0.5895 -0.0443
  267MOL0     O35170   9.112  10.910  -0.021 -0.8961  0.3070  0.1273
  267MOL0     C35171   9.207  10.906   0.096  0.3740  0.1580  0.4455
  267MOL0     C35172   9.348  10.916   0.039  0.3390 -0.3295 -0.1951
  267MOL0     C35173   9.391  11.044  -0.024  0.5653 -0.3159  0.9859
  267MOL0     C35174   9.527  11.101   0.015  0.9562 -0.2265  0.0659
  267MOL0     C35175   9.542  11.138   0.150 -0.5506 -0.0817 -0.0352
  267MOL0     C35176   9.543  11.174   0.269 -0.0041  0.6323 -0.0333
  267MOL0     C35177   8.908  10.919   0.113  0.3535 -0.3160 -0.6994
  267MOL0     C35178   8.772  10.918   0.117 -0.3654  0.3054 -0.4267
  267MOL0     H35179   8.326  10.847  -0.145  2.9773  1.4653  0.3436
  267MOL0     H35180   8.101  10.853  -0.185  1.6726 -0.7212 -2.2661
  267MOL0     H35181   7.930  10.916  -0.292  3.1650  0.6083  1.7607
  267MOL0     H35182   7.813  11.036  -0.315  0.3673 -1.8396 -2.6978
  267MOL0     H35183   7.739  10.982  -0.062 -0.3953 -0.9714  1.1902
  267MOL0     H35184   7.810  10.830  -0.090 -1.0030  0.1560  0.3101
  267MOL0     H35185   7.656  10.783  -0.279  0.3807 -2.6610  2.6571
  267MOL0     H35186   7.612  10.957  -0.275  1.9294  1.4945  2.4864
  267MOL0     H35187   7.568  10.728  -0.071  3.2203  0.8245  1.3155
  267MOL0     H35188   7.524  10.892  -0.029 -3.2138  2.3846 -2.7374
  267MOL0     H35189   7.398  10.710  -0.227 -0.9663  0.0084  0.9835
  267MOL0     H35190   7.378  10.881  -0.241 -4.5888  0.4722  1.3113
  267MOL0     H35191   7.315  10.767   0.026  0.2819 -1.0477 -0.5551
  267MOL0     H35192   7.203  10.784  -0.111  0.1800 -1.2388  0.8929
  267MOL0     H35193   7.171  10.940   0.047 -0.1651 -3.8598 -1.4585
  267MOL0     H35194   7.340  11.011   0.060 -0.0996 -0.3359  2.2428
  267MOL0     H35195   7.194  11.175  -0.047 -1.4801 -1.7338  2.1141
  267MOL0     H35196   7.141  11.088  -0.172 -0.1720  4.2174  0.5932
  267MOL0     H35197   7.513  11.169  -0.037 -0.3359  1.5842  1.4573
  267MOL0     H35198   7.718  11.299  -0.298  0.4102  3.6774 -2.3428
  267MOL0     H35199   7.671  11.350  -0.138  0.3376  1.1665  0.1584
  267MOL0     H35200   7.585  11.472  -0.409 -0.3554  0.6055 -0.1662
  267MOL0     H35201   7.704  11.547  -0.295  0.1766 -1.1369 -3.3141
  267MOL0     H35202   7.527  11.664  -0.269 -0.2243 -1.5927 -2.5291
  267MOL0     H35203   7.409  11.527  -0.275 -0.4342 -0.1851  1.7664
  267MOL0     H35204   7.586  11.580  -0.023 -1.0502  0.6384  4.4416
  267MOL0     H35205   7.477  11.453  -0.046  1.6747 -0.8498 -1.7853
  267MOL0     H35206   7.214  11.779   0.042 -2.9943  0.6089 -1.1646
  267MOL0     H35207   6.961  11.760   0.025 -2.6788 -2.0346 -1.0672
  267MOL0     H35208   6.716  11.525  -0.400 -2.5287 -0.3291 -2.6385
  267MOL0     H35209   6.488  11.561  -0.453  1.4661  1.8617  1.4530
  267MOL0     H35210   6.197  11.281  -0.464  1.8055 -1.4725 -0.1189
  267MOL0     H35211   6.357  11.299  -0.520  0.4954  1.9741 -0.8361
  267MOL0     H35212   6.291  11.540  -0.589  2.0763 -1.9397  2.7977
  267MOL0     H35213   6.123  11.465  -0.579 -0.3714 -1.5187  0.0597
  267MOL0     H35214   6.207  11.291  -0.762 -0.8930  0.1589  0.5108
  267MOL0     H35215   6.351  11.395  -0.774 -0.1073  2.9447 -0.3990
  267MOL0     H35216   6.088  11.533  -0.823 -0.0825  2.7951 -1.8261
  267MOL0     H35217   6.265  11.576  -0.840  2.7024 -2.3128 -0.5436
  267MOL0     H35218   6.151  11.348  -1.010  1.0415 -2.2025  3.3760
  267MOL0     H35219   6.306  11.414  -1.028 -1.1669 -2.2122 -0.5603
  267MOL0     H35220   6.224  11.634  -1.089 -2.1903  0.6625  3.6248
  267MOL0     H35221   6.058  11.585  -1.070  0.0112 -0.5110  3.3903
  267MOL0     H35222   6.114  11.398  -1.240  1.3260 -0.1131 -0.4791
  267MOL0     H35223   6.077  11.559  -1.301 -2.6495  0.1391  2.6649
  267MOL0     H35224   6.249  11.445  -1.415  0.9880 -0.0989 -0.1810
  267MOL0     H35225   6.360  11.458  -1.271  0.5491  1.1301  0.3593
  267MOL0     H35226   6.341  11.355  -0.122 -1.2952  1.9780 -0.7321
  267MOL0     H35227   6.565  11.350  -0.016  0.8233 -5.4363 -0.8309
  267MOL0     H35228   7.028  11.377  -0.161  0.6489 -0.5318  0.0207
  267MOL0     H35229   7.278  11.419  -0.160  1.3251 -0.0313 -0.4326
  267MOL0     H35230   8.115  11.293  -0.149 -1.3648 -0.2581 -2.8873
  267MOL0     H35231   8.359  11.272  -0.087  0.1021 -0.3011  0.9661
  267MOL0     H35232   8.712  10.983  -0.213  0.0188 -3.3412 -2.0550
  267MOL0     H35233   8.956  10.918  -0.219  1.6506 -0.0216  0.5973
  267MOL0     H35234   9.199  10.806   0.138 -0.2163  0.1829  0.3934
  267MOL0     H35235   9.192  10.990   0.165  3.0835  0.6209  0.5869
  267MOL0     H35236   9.421  10.904   0.120  1.1207 -0.7687 -0.9508
  267MOL0     H35237   9.363  10.839  -0.037 -0.1275 -1.8515  1.2016
  267MOL0     H35238   9.322  11.128  -0.010  3.2977  2.0266  1.4458
  267MOL0     H35239   9.397  11.028  -0.133 -3.9309  0.8769  0.3835
  267MOL0     H35240   9.610  11.030   0.017  0.4262 -0.8517  0.2117
  267MOL0     H35241   9.543  11.187  -0.052  0.1211 -1.2451 -1.4984
  267MOL0     H35242   9.549  11.187   0.375  1.7741 -0.4051  0.0269
  267MOL0     H35243   8.962  10.894   0.204 -2.2619  0.5758  1.2239
  267MOL0     H35244   8.716  10.896   0.207  0.3955  1.3595  0.3432
  268MOL0     O35245   1.265   9.963   8.437 -0.5175 -0.0722 -0.0426
  268MOL0     C35246   1.385  10.001   8.424 -0.1301 -0.8876  0.1807
  268MOL0     O35247   1.457  10.011   8.307  0.3015 -0.1884  0.9280
  268MOL0     C35248   1.413   9.948   8.190  0.3859 -0.1268  0.8495
  268MOL0     C35249   1.278   9.934   8.140 -0.1261 -0.6462 -0.4409
  268MOL0     C35250   1.254   9.858   8.025  0.7040 -0.6646 -0.5775
  268MOL0     C35251   1.355   9.792   7.955 -0.0766 -0.2518  0.0584
  268MOL0     O35252   1.325   9.690   7.863  0.1710 -1.3481 -0.5606
  268MOL0     C35253   1.194   9.647   7.832  0.5018 -0.2121 -0.1648
  268MOL0     C35254   1.191   9.538   7.732  0.8766  0.3268  0.5371
  268MOL0     C35255   1.125   9.574   7.605 -0.3326 -0.3153  0.5484
  268MOL0     C35256   1.099   9.458   7.510 -0.4579 -0.3486  1.2772
  268MOL0     C35257   0.954   9.446   7.460 -0.0635  0.0421 -0.9141
  268MOL0     C35258   0.882   9.559   7.390 -0.3285 -0.2629 -0.0315
  268MOL0     C35259   0.976   9.590   7.276  0.9332 -0.0680 -0.1068
  268MOL0     C35260   0.908   9.687   7.168 -0.4727 -0.7916  1.1339
  268MOL0     N35261   0.899   9.820   7.231  0.5606  0.2036  0.6132
  268MOL0     C35262   1.009   9.909   7.239  0.1962 -0.4187 -0.2621
  268MOL0     C35263   0.958  10.035   7.258 -0.7750  0.3523  0.7677
  268MOL0     C35264   1.043  10.161   7.242  0.3674 -0.4006  0.2598
  268MOL0     C35265   1.091  10.225   7.379  1.2241 -0.4121 -0.0421
  268MOL0     C35266   0.964  10.265   7.461  0.0046  0.2902 -0.4846
  268MOL0     C35267   1.005  10.355   7.578  0.7047  0.2368  0.5727
  268MOL0     O35268   1.078  10.272   7.670  0.6742 -0.5909  0.8557
  268MOL0     C35269   1.122  10.329   7.787  0.6086  0.1204 -0.1638
  268MOL0     C35270   1.213  10.261   7.866  0.7883  0.5110 -0.6508
  268MOL0     C35271   1.275  10.317   7.978 -0.1644 -0.0735 -0.0046
  268MOL0     C35272   1.236  10.439   8.021 -0.0084 -0.0185 -0.3492
  268MOL0     C35273   1.292  10.508   8.137 -0.3028  0.3671  0.7587
  268MOL0     O35274   1.419  10.466   8.174  0.2279  0.5690  0.8617
  268MOL0     C35275   1.479  10.535   8.271  0.4042 -1.1077  0.4180
  268MOL0     C35276   1.464  10.493   8.401  0.6473 -0.8440  0.5931
  268MOL0     C35277   1.540  10.561   8.505  1.0379  0.2329  0.0475
  268MOL0     C35278   1.621  10.671   8.480 -0.3707 -1.1825 -0.8266
  268MOL0     O35279   1.680  10.750   8.577  0.0983  0.5211 -1.0834
  268MOL0     C35280   1.588  10.845   8.630 -0.4361 -1.0742  0.2368
  268MOL0     C35281   1.594  10.982   8.547  0.4901  1.1809 -0.9762
  268MOL0     C35282   1.736  11.012   8.486  0.1210 -0.5272  1.2378
  268MOL0     C35283   1.832  11.095   8.582 -0.5601  0.5618  0.2996
  268MOL0     C35284   1.799  11.228   8.639  0.0502  0.4278  0.9377
  268MOL0     C35285   1.915  11.293   8.723 -0.4372  0.5354 -0.2585
  268MOL0     C35286   1.871  11.310   8.874  0.8713 -0.2860 -0.8833
  268MOL0     C35287   1.871  11.179   8.953 -0.5140  0.3047 -0.2556
  268MOL0    Cl35288   1.709  11.107   8.936 -0.1144 -0.2098 -0.1405
  268MOL0     C35289   1.632  10.705   8.347  0.0457 -0.8862  0.1222
  268MOL0     C35290   1.555  10.651   8.234 -0.1240 -0.2157 -0.6508
  268MOL0     O35291   1.231  10.601   8.196  0.1504 -0.0688 -0.3852
  268MOL0     C35292   1.129  10.500   7.962  0.3260 -0.0626  0.5232
  268MOL0     C35293   1.075  10.455   7.843 -0.0325 -0.4191  0.3688
  268MOL0     N35294   0.814  10.013   7.285 -0.1891  1.4417 -0.3950
  268MOL0     N35295   0.791   9.889   7.255  0.9928  0.0225  0.3746
  268MOL0     C35296   1.485   9.809   8.005 -0.5367 -0.0328 -0.7175
  268MOL0     C35297   1.508   9.875   8.122 -0.6482 -0.3812  0.0192
  268MOL0     C35298   1.462  10.039   8.546 -0.5326  0.7231  0.4784
  268MOL0     C35299   1.399  10.065   8.667  0.2726  0.2456  0.2395
  268MOL0     C35300   1.482  10.082   8.787  0.3437  0.4433 -0.2977
  268MOL0     C35301   1.622  10.093   8.774  0.5054 -1.2251 -0.0981
  268MOL0     O35302   1.675  10.120   8.900 -0.6910  0.3635  0.6679
  268MOL0     C35303   1.809  10.163   8.901  0.1301  0.0179 -0.6180
  268MOL0     C35304   1.835  10.296   8.831  0.5902  0.6016 -0.6329
  268MOL0     C35305   1.793  10.414   8.899 -0.3385  0.5360  0.0852
  268MOL0     C35306   1.853  10.534   8.832  0.6756 -0.5487 -0.6553
  268MOL0     C35307   1.838  10.656   8.909  0.7990 -0.0406  0.4255
  268MOL0     C35308   1.840  10.760   8.976 -0.8830  0.0334  0.7194
  268MOL0     C35309   1.681  10.065   8.653  0.3122  0.4302 -0.5207
  268MOL0     C35310   1.606  10.035   8.541  0.2371 -0.2270  0.1784
  268MOL0     H35311   1.198   9.986   8.192  3.0037  3.3006  0.9819
  268MOL0     H35312   1.149   9.844   8.001  0.9862 -0.9430 -1.7429
  268MOL0     H35313   1.152   9.737   7.785  2.0279 -0.5662 -2.3470
  268MOL0     H35314   1.141   9.608   7.920 -1.6713  0.6587 -1.0095
  268MOL0     H35315   1.141   9.452   7.779 -3.8536  2.5148  0.0599
  268MOL0     H35316   1.291   9.503   7.707 -0.1905 -1.9968 -0.8893
  268MOL0     H35317   1.199   9.633   7.551  0.1012 -3.6492 -2.9155
  268MOL0     H35318   1.030   9.625   7.623 -1.0027 -0.2178 -2.5558
  268MOL0     H35319   1.160   9.465   7.419 -3.6554 -1.6422 -1.1508
  268MOL0     H35320   1.132   9.358   7.540  0.0046 -1.0458 -1.2940
  268MOL0     H35321   0.896   9.406   7.543  1.4390 -0.3376 -0.0238
  268MOL0     H35322   0.949   9.353   7.403 -1.6058 -0.7087  0.3914
  268MOL0     H35323   0.866   9.648   7.452 -2.3500  1.5332 -2.9059
  268MOL0     H35324   0.779   9.541   7.360 -0.0010 -1.7177 -0.3532
  268MOL0     H35325   1.065   9.636   7.320  1.5263 -1.5785  0.3250
  268MOL0     H35326   0.995   9.497   7.222  0.6075 -0.0691 -0.2226
  268MOL0     H35327   0.818   9.639   7.127 -1.2011  0.4319  1.2684
  268MOL0     H35328   0.978   9.691   7.083  0.9382 -0.5168  2.2669
  268MOL0     H35329   1.112   9.885   7.216 -0.9519 -4.2613 -2.3597
  268MOL0     H35330   0.979  10.226   7.183  0.3138  0.7585  1.5522
  268MOL0     H35331   1.121  10.139   7.169 -1.7579  0.1028 -2.3355
  268MOL0     H35332   1.150  10.314   7.355  1.1030  0.1349  1.5523
  268MOL0     H35333   1.154  10.159   7.439  1.7006  0.9705  1.0526
  268MOL0     H35334   0.892  10.314   7.395 -0.3993  3.1508  1.8255
  268MOL0     H35335   0.925  10.174   7.508 -0.5486  0.5074 -0.5136
  268MOL0     H35336   0.913  10.386   7.628 -1.7098 -2.5039 -1.8247
  268MOL0     H35337   1.060  10.444   7.544 -1.2216  0.7237 -1.5143
  268MOL0     H35338   1.227  10.158   7.832 -3.6523 -0.0021 -1.5229
  268MOL0     H35339   1.352  10.258   8.026  1.2959 -0.5133 -2.7322
  268MOL0     H35340   1.400  10.408   8.422 -3.0424  1.2393 -1.2773
  268MOL0     H35341   1.523  10.519   8.603 -0.9324  0.2856 -0.2245
  268MOL0     H35342   1.614  10.855   8.736 -0.4570 -0.1535  0.1639
  268MOL0     H35343   1.487  10.803   8.636  0.0443 -2.4043 -0.5841
  268MOL0     H35344   1.570  11.072   8.604 -1.3644  1.4542 -2.0758
  268MOL0     H35345   1.520  10.962   8.468  0.5909 -3.3770 -0.2233
  268MOL0     H35346   1.708  11.077   8.403  0.2605 -1.2381  0.6197
  268MOL0     H35347   1.784  10.921   8.448 -0.8135 -1.0973  1.3757
  268MOL0     H35348   1.859  11.031   8.667 -0.6981 -0.7063 -0.5750
  268MOL0     H35349   1.924  11.105   8.522  0.2105 -2.2406  0.8572
  268MOL0     H35350   1.709  11.220   8.699 -0.1485  3.1449  1.0985
  268MOL0     H35351   1.781  11.297   8.557  1.8759  0.5392  0.5754
  268MOL0     H35352   1.939  11.393   8.687 -1.2389  0.7601 -0.1864
  268MOL0     H35353   2.001  11.225   8.717  1.9698  3.3741 -0.0763
  268MOL0     H35354   1.955  11.370   8.909  0.1980  1.0043 -1.3937
  268MOL0     H35355   1.778  11.366   8.886  0.0162 -1.9330  0.4463
  268MOL0     H35356   1.890  11.206   9.057 -0.7340 -3.3284  0.8511
  268MOL0     H35357   1.953  11.114   8.921 -1.4075 -1.6019  1.1455
  268MOL0     H35358   1.703  10.782   8.319 -1.5414 -0.3120 -2.7780
  268MOL0     H35359   1.576  10.681   8.131 -1.1230 -0.1204 -0.8339
  268MOL0     H35360   1.079  10.583   8.011  2.6141  2.3233 -0.9768
  268MOL0     H35361   0.986  10.501   7.803  0.6737  1.6445  1.0298
  268MOL0     H35362   1.573   9.769   7.957  0.5962 -0.2206  1.3730
  268MOL0     H35363   1.610   9.887   8.158 -1.1918 -0.5167  1.6921
  268MOL0     H35364   1.292  10.074   8.684  0.5329  2.0955  1.1634
  268MOL0     H35365   1.433  10.093   8.882 -0.3196 -3.1802 -0.0651
  268MOL0     H35366   1.862  10.086   8.844 -0.6593 -1.3318  0.4220
  268MOL0     H35367   1.857  10.175   8.999  0.5117 -0.2398 -0.7704
  268MOL0     H35368   1.941  10.301   8.805  1.1016  0.0891  1.2661
  268MOL0     H35369   1.773  10.295   8.741  2.4061 -0.6612 -1.9531
  268MOL0     H35370   1.832  10.407   9.001 -1.2914 -0.5611  0.3958
  268MOL0     H35371   1.686  10.435   8.902 -0.1418  1.5099  1.6878
  268MOL0     H35372   1.961  10.518   8.825  0.7643 -0.7830  0.8749
  268MOL0     H35373   1.808  10.562   8.736 -1.2041 -0.5694  0.1710
  268MOL0     H35374   1.831  10.856   9.025  3.9425  0.5796  1.0271
  268MOL0     H35375   1.789  10.059   8.639  0.3718  0.5377 -0.1123
  268MOL0     H35376   1.659  10.009   8.450 -1.4456  1.5759 -1.4006
  269MOL0     O35377   5.711   3.872   0.380  0.1795  0.2335 -1.0054
  269MOL0     C35378   5.755   3.788   0.295  0.5446 -0.8122 -0.5733
  269MOL0     O35379   5.883   3.753   0.294  0.1829  0.2958 -0.0398
  269MOL0     C35380   5.969   3.771   0.399  0.2142  0.5495 -1.0602
  269MOL0     C35381   5.932   3.750   0.538  0.0193 -0.3423  0.5008
  269MOL0     C35382   6.025   3.782   0.637 -0.4828 -0.0280 -0.2733
  269MOL0     C35383   6.160   3.802   0.606  0.2779 -0.2423 -0.7298
  269MOL0     O35384   6.239   3.850   0.705  1.0412  0.9694  0.1063
  269MOL0     C35385   6.370   3.792   0.721 -0.0247  0.7164  1.2213
  269MOL0     C35386   6.364   3.654   0.795  0.3656 -0.0168 -1.6061
  269MOL0     C35387   6.492   3.625   0.873 -0.8246 -0.2600  0.6421
  269MOL0     C35388   6.480   3.489   0.940 -0.2921 -0.3386 -0.2207
  269MOL0     C35389   6.601   3.438   1.020 -0.4331 -1.0212 -0.0038
  269MOL0     C35390   6.627   3.529   1.140 -1.1427  0.5102 -0.8469
  269MOL0     C35391   6.771   3.530   1.212 -0.0089  0.5695  0.0670
  269MOL0     C35392   6.894   3.585   1.138 -0.1365 -1.1475  0.1469
  269MOL0     N35393   6.935   3.503   1.021 -0.1286 -0.5872 -0.0175
  269MOL0     C35394   6.930   3.560   0.895  0.1894 -0.1867  0.6481
  269MOL0     C35395   6.969   3.452   0.823  0.7735 -0.3785  1.0366
  269MOL0     C35396   6.972   3.456   0.669  0.6073 -1.2562 -0.3406
  269MOL0     C35397   7.072   3.358   0.605 -0.0296 -1.0043 -0.2831
  269MOL0     C35398   7.099   3.386   0.448  0.1686  0.0986 -0.6797
  269MOL0     C35399   6.972   3.403   0.367 -0.0225  0.4231 -0.2388
  269MOL0     O35400   7.008   3.390   0.232  0.3312 -0.5487 -0.2820
  269MOL0     C35401   7.033   3.259   0.189 -0.4261 -0.4936 -0.0424
  269MOL0     C35402   7.106   3.252   0.071 -1.2916  0.6284  0.3371
  269MOL0     C35403   7.138   3.126   0.019  0.1766  0.2266  0.1002
  269MOL0     C35404   7.091   3.003   0.076 -1.3452  0.1022  0.6249
  269MOL0     C35405   7.121   2.883   0.007 -0.9855 -0.2469  0.4158
  269MOL0     O35406   7.234   2.882  -0.069  0.5202 -0.4894 -0.4718
  269MOL0     C35407   7.271   2.761  -0.123 -0.5316 -0.5937 -0.6716
  269MOL0     C35408   7.304   2.763  -0.260 -0.6237 -0.5064 -0.2718
  269MOL0     C35409   7.345   2.644  -0.325  0.5707  0.4384  0.2440
  269MOL0     C35410   7.357   2.522  -0.254  0.3030  0.1599 -0.3185
  269MOL0     O35411   7.364   2.406  -0.325 -0.1315 -0.8221 -0.5484
  269MOL0     C35412   7.447   2.292  -0.270 -0.6984 -0.1511  0.1953
  269MOL0     C35413   7.431   2.173  -0.371  0.5625 -0.5091 -0.1960
  269MOL0     C35414   7.508   2.057  -0.314 -0.5207  0.2030 -0.1849
  269MOL0     C35415   7.532   1.952  -0.417  0.3086  0.3677 -0.5750
  269MOL0     C35416   7.653   1.867  -0.366  0.2737 -0.2587 -0.1599
  269MOL0     C35417   7.635   1.736  -0.432  0.0706  1.3370  0.8697
  269MOL0     C35418   7.761   1.650  -0.413  0.2498 -0.1546 -0.3671
  269MOL0     C35419   7.787   1.577  -0.538 -0.3397  0.5220 -0.9276
  269MOL0    Cl35420   7.636   1.494  -0.591  0.1405 -0.1314  0.0937
  269MOL0     C35421   7.334   2.526  -0.119  0.0562 -1.0104 -1.0724
  269MOL0     C35422   7.301   2.645  -0.056  0.1938 -0.5131 -0.2349
  269MOL0     O35423   7.051   2.782   0.017 -0.4045 -0.8069 -0.1549
  269MOL0     C35424   7.013   3.003   0.194 -0.7257 -0.9226 -0.4445
  269MOL0     C35425   6.989   3.131   0.254 -0.2103  0.3678 -0.1393
  269MOL0     N35426   6.988   3.343   0.898 -0.4056  0.7541 -0.0437
  269MOL0     N35427   6.974   3.375   1.017 -0.9737 -0.5066 -0.2345
  269MOL0     C35428   6.197   3.802   0.469 -0.2343 -0.3865 -0.0395
  269MOL0     C35429   6.104   3.781   0.367  0.3212  1.2091 -0.2958
  269MOL0     C35430   5.666   3.742   0.189 -0.0807  0.1547 -0.6948
  269MOL0     C35431   5.723   3.658   0.096 -0.3226 -0.6805 -0.3580
  269MOL0     C35432   5.658   3.604  -0.011  0.4092  0.3642 -1.0477
  269MOL0     C35433   5.533   3.650  -0.038 -0.4161 -0.6637  0.8439
  269MOL0     O35434   5.448   3.605  -0.140 -0.6583 -0.4063 -0.1007
  269MOL0     C35435   5.487   3.526  -0.251  1.1037 -0.5791  0.9636
  269MOL0     C35436   5.368   3.468  -0.325 -0.1410  0.4982 -0.4728
  269MOL0     C35437   5.268   3.559  -0.387 -0.3895 -0.1100 -1.0607
  269MOL0     C35438   5.161   3.629  -0.294 -0.4549 -0.1250  0.1429
  269MOL0     C35439   5.058   3.682  -0.384 -0.1876 -0.0713 -0.4520
  269MOL0     C35440   4.985   3.728  -0.470 -0.2496  0.3325 -0.2788
  269MOL0     C35441   5.467   3.743   0.046  0.1481 -0.5258 -0.4089
  269MOL0     C35442   5.530   3.785   0.165 -0.4975 -0.9701  0.1481
  269MOL0     H35443   5.830   3.725   0.565  0.7978 -2.7567  1.4290
  269MOL0     H35444   5.994   3.771   0.741 -1.2303 -3.2247 -0.7057
  269MOL0     H35445   6.407   3.873   0.784 -3.4808  4.5882 -1.1897
  269MOL0     H35446   6.427   3.771   0.629  0.0813 -2.4250  1.8844
  269MOL0     H35447   6.343   3.576   0.722  1.4118  0.0714 -2.0251
  269MOL0     H35448   6.290   3.672   0.873  3.8208 -1.7153  2.4630
  269MOL0     H35449   6.516   3.712   0.934  0.8198  0.6016 -1.1027
  269MOL0     H35450   6.575   3.609   0.803 -1.8917 -0.6998 -0.5738
  269MOL0     H35451   6.398   3.508   1.010  0.0793 -0.9760  0.3963
  269MOL0     H35452   6.455   3.407   0.872 -3.1229 -2.1925  2.7566
  269MOL0     H35453   6.689   3.461   0.958 -0.6621  1.4494  0.4688
  269MOL0     H35454   6.581   3.335   1.051 -1.9713 -0.8532 -0.3643
  269MOL0     H35455   6.548   3.506   1.212 -0.6216  0.1376 -0.3869
  269MOL0     H35456   6.608   3.630   1.103 -1.8139  0.2764 -1.1449
  269MOL0     H35457   6.751   3.606   1.288 -1.1700  2.1820 -1.7652
  269MOL0     H35458   6.798   3.435   1.261 -0.1215  1.8162  2.7348
  269MOL0     H35459   6.980   3.595   1.205  0.5272 -1.5313 -0.6375
  269MOL0     H35460   6.859   3.680   1.097 -1.4499 -1.5315  0.3082
  269MOL0     H35461   6.900   3.660   0.866 -2.0109 -0.5050  1.6114
  269MOL0     H35462   6.997   3.561   0.652  3.6520 -1.6608  1.0443
  269MOL0     H35463   6.871   3.441   0.630  0.1919 -0.5677  0.4448
  269MOL0     H35464   7.019   3.263   0.606 -2.7973  0.3152 -3.4235
  269MOL0     H35465   7.168   3.354   0.657  0.9641  0.3695 -1.9091
  269MOL0     H35466   7.161   3.476   0.447 -0.7457  0.8719  2.0830
  269MOL0     H35467   7.151   3.299   0.407 -0.3941  0.8389 -3.1448
  269MOL0     H35468   6.940   3.501   0.403 -0.6450 -0.0123  0.4196
  269MOL0     H35469   6.893   3.332   0.394 -1.1529  2.6652  2.9490
  269MOL0     H35470   7.142   3.339   0.016  2.3955 -0.1037  1.3028
  269MOL0     H35471   7.205   3.132  -0.067  0.3010  0.4195  0.2111
  269MOL0     H35472   7.291   2.855  -0.317  0.2981 -0.6615 -0.7538
  269MOL0     H35473   7.359   2.626  -0.431 -0.8539 -4.9130  0.6601
  269MOL0     H35474   7.420   2.277  -0.165  0.3893  0.2060  0.5380
  269MOL0     H35475   7.551   2.320  -0.256 -1.0695  1.0566  0.7289
  269MOL0     H35476   7.467   2.201  -0.471 -0.9120  1.0201 -0.3471
  269MOL0     H35477   7.325   2.152  -0.386 -0.2802  2.5703  0.7046
  269MOL0     H35478   7.450   2.006  -0.237 -0.4364  2.0652  1.1786
  269MOL0     H35479   7.605   2.096  -0.282  0.8330 -4.0485  1.5539
  269MOL0     H35480   7.443   1.889  -0.432  1.8252 -2.2117  0.6218
  269MOL0     H35481   7.549   1.993  -0.517  1.1175 -1.5984 -1.3051
  269MOL0     H35482   7.639   1.844  -0.260  1.6557 -0.9238 -0.0872
  269MOL0     H35483   7.751   1.909  -0.391  1.3395 -2.6937 -0.4111
  269MOL0     H35484   7.626   1.762  -0.538  0.0444 -1.1653  0.1932
  269MOL0     H35485   7.546   1.678  -0.403  1.0392 -0.2360  0.8117
  269MOL0     H35486   7.852   1.710  -0.404  0.8689 -0.8785 -1.5400
  269MOL0     H35487   7.752   1.593  -0.320 -2.5058 -0.7338 -0.9051
  269MOL0     H35488   7.861   1.498  -0.519  0.2966  1.6317  1.5403
  269MOL0     H35489   7.812   1.649  -0.617 -0.1505  0.1044 -1.2577
  269MOL0     H35490   7.328   2.444  -0.049  2.9524 -0.6932 -0.3262
  269MOL0     H35491   7.282   2.648   0.051  0.7009  3.9283 -0.0722
  269MOL0     H35492   6.978   2.918   0.250  2.2634 -2.2287 -0.3671
  269MOL0     H35493   6.930   3.134   0.345  1.1464 -1.4101  0.8451
  269MOL0     H35494   6.299   3.836   0.450 -0.5617 -0.5678 -2.4447
  269MOL0     H35495   6.132   3.782   0.262  0.7355  1.2977 -0.1862
  269MOL0     H35496   5.828   3.628   0.101  0.1695  1.1636  2.1537
  269MOL0     H35497   5.716   3.531  -0.067 -1.8266 -0.7041 -2.0846
  269MOL0     H35498   5.560   3.448  -0.229  3.5856  1.6754  1.1917
  269MOL0     H35499   5.549   3.584  -0.320  0.7719  1.0009  1.9536
  269MOL0     H35500   5.406   3.395  -0.397  0.3263 -0.5616  0.8072
  269MOL0     H35501   5.319   3.397  -0.258 -0.8205  0.7453 -0.6994
  269MOL0     H35502   5.208   3.492  -0.450 -1.1941  0.9062 -1.4139
  269MOL0     H35503   5.310   3.642  -0.444  1.8516  0.6623  1.5430
  269MOL0     H35504   5.117   3.558  -0.223  0.3578 -1.6979 -0.8599
  269MOL0     H35505   5.220   3.703  -0.239  0.0663 -0.9380  0.7087
  269MOL0     H35506   4.919   3.772  -0.542  3.3074  3.4477 -1.9795
  269MOL0     H35507   5.369   3.776   0.013  0.6654  1.6939  0.0492
  269MOL0     H35508   5.497   3.865   0.231  0.2549  0.2283 -0.8905
  270MOL0     O35509   3.659   0.867   0.866 -0.6037  0.0615 -0.4601
  270MOL0     C35510   3.686   0.764   0.802 -0.0357 -0.0060  0.6634
  270MOL0     O35511   3.686   0.634   0.856 -0.2838  0.1010 -0.3985
  270MOL0     C35512   3.647   0.627   0.987  0.4901 -0.1526 -0.0896
  270MOL0     C35513   3.738   0.636   1.096  0.4244  0.6951 -0.0379
  270MOL0     C35514   3.695   0.612   1.228 -0.7767 -0.7340  0.5105
  270MOL0     C35515   3.553   0.603   1.259  1.3663  0.1202  0.4407
  270MOL0     O35516   3.509   0.595   1.384 -0.4751  0.3700  0.1924
  270MOL0     C35517   3.398   0.519   1.409  0.5100  1.3871 -1.1125
  270MOL0     C35518   3.418   0.446   1.547  0.0889 -0.2177  0.0613
  270MOL0     C35519   3.542   0.356   1.573 -0.1007 -0.6970 -0.0016
  270MOL0     C35520   3.504   0.228   1.650 -0.0483  0.6253  0.1545
  270MOL0     C35521   3.440   0.125   1.553 -0.4586  0.3555  0.2727
  270MOL0     C35522   3.446  -0.019   1.604  0.0145 -0.1933 -0.4100
  270MOL0     C35523   3.349  -0.115   1.528  0.2518  0.0078 -0.8267
  270MOL0     C35524   3.368  -0.114   1.381  0.2216  0.4487 -0.4869
  270MOL0     N35525   3.289  -0.217   1.313  0.0339 -0.0490 -0.2918
  270MOL0     C35526   3.156  -0.254   1.332 -0.7331 -0.9033  0.8602
  270MOL0     C35527   3.117  -0.316   1.220  0.2301 -0.6478  0.3105
  270MOL0     C35528   2.977  -0.350   1.171  0.0632  0.3975  0.0948
  270MOL0     C35529   2.931  -0.264   1.057 -0.5457 -0.4214 -0.0265
  270MOL0     C35530   3.000  -0.292   0.926 -0.0827 -0.1050 -0.5092
  270MOL0     C35531   2.933  -0.210   0.818  0.0524  0.7005 -1.1015
  270MOL0     O35532   2.989  -0.253   0.694  0.3784 -0.2908  0.8884
  270MOL0     C35533   2.984  -0.173   0.583 -0.1855  0.5631  0.0231
  270MOL0     C35534   2.892  -0.064   0.576 -0.2534  0.1622 -0.3815
  270MOL0     C35535   2.892   0.008   0.456  0.9055 -0.5122 -0.1939
  270MOL0     C35536   2.967  -0.020   0.339 -0.5339 -0.9581 -0.2699
  270MOL0     C35537   2.950   0.050   0.204 -0.2708  0.0483  0.1047
  270MOL0     O35538   3.001  -0.012   0.089 -0.2731  0.3358 -0.1004
  270MOL0     C35539   2.943   0.037  -0.022  0.3587  0.3298  0.8906
  270MOL0     C35540   3.012   0.102  -0.119  0.1295 -0.4740 -0.0104
  270MOL0     C35541   2.944   0.141  -0.231 -0.8042 -0.5490  0.3414
  270MOL0     C35542   2.809   0.124  -0.252  0.5339  0.1899  0.1197
  270MOL0     O35543   2.760   0.177  -0.371 -0.0811  0.6964  0.2167
  270MOL0     C35544   2.616   0.199  -0.377 -0.0906  0.1136 -0.5359
  270MOL0     C35545   2.564   0.248  -0.519 -0.5710 -0.8690 -0.1491
  270MOL0     C35546   2.551   0.125  -0.617 -0.0859  0.2853 -0.1178
  270MOL0     C35547   2.490   0.171  -0.749 -1.0517 -0.7703 -0.7722
  270MOL0     C35548   2.468   0.044  -0.827 -0.4913  0.0145  1.0086
  270MOL0     C35549   2.397   0.072  -0.958  0.2502 -0.7027  0.3695
  270MOL0     C35550   2.481   0.159  -1.048 -0.7061 -0.8250  1.0645
  270MOL0     C35551   2.439   0.195  -1.198  0.7325  0.0254 -0.3758
  270MOL0    Cl35552   2.409   0.062  -1.311  0.1024 -0.5261  0.5986
  270MOL0     C35553   2.730   0.057  -0.157  0.7897  0.1465 -0.1113
  270MOL0     C35554   2.808   0.005  -0.051  0.0111 -0.4021  0.5592
  270MOL0     O35555   2.877   0.149   0.204  0.0590 -0.3204 -0.1230
  270MOL0     C35556   3.050  -0.132   0.352  0.8764  0.0476 -0.0137
  270MOL0     C35557   3.071  -0.205   0.475  0.3780 -0.0079 -0.1809
  270MOL0     N35558   3.231  -0.344   1.160 -0.1908 -0.2418 -0.4320
  270MOL0     N35559   3.335  -0.294   1.211  0.2583 -0.7918  1.0713
  270MOL0     C35560   3.467   0.594   1.145  0.6501 -0.3185  0.2083
  270MOL0     C35561   3.507   0.601   1.012 -0.6955  0.2615  0.5591
  270MOL0     C35562   3.713   0.775   0.651  0.0337 -0.9380  0.8561
  270MOL0     C35563   3.794   0.691   0.577 -0.0326  0.4896  0.2264
  270MOL0     C35564   3.822   0.702   0.432  0.0595  0.1015 -0.2554
  270MOL0     C35565   3.761   0.808   0.366  0.1733  0.6526  1.1713
  270MOL0     O35566   3.778   0.841   0.235 -0.3989  0.7522 -0.4756
  270MOL0     C35567   3.755   0.730   0.143 -0.6287 -0.0847 -0.6377
  270MOL0     C35568   3.756   0.764   0.000 -0.9311  0.2606  0.6556
  270MOL0     C35569   3.772   0.630  -0.083  0.4081 -0.1530 -0.0345
  270MOL0     C35570   3.771   0.641  -0.241  0.7193 -0.3880 -0.3827
  270MOL0     C35571   3.688   0.758  -0.274 -0.0704 -0.4965  0.1526
  270MOL0     C35572   3.604   0.847  -0.287  0.8784 -0.2472 -0.3379
  270MOL0     C35573   3.675   0.888   0.436 -0.8300 -0.1565 -0.1183
  270MOL0     C35574   3.666   0.879   0.574  0.4686 -0.3930  0.4702
  270MOL0     H35575   3.845   0.643   1.077  0.3927  0.1867 -0.4088
  270MOL0     H35576   3.768   0.614   1.308 -0.3500  0.2589  0.1186
  270MOL0     H35577   3.378   0.440   1.336 -3.4414  1.3029 -0.1674
  270MOL0     H35578   3.310   0.585   1.412 -0.0974  0.6840 -2.4983
  270MOL0     H35579   3.337   0.374   1.565  2.2609 -2.3231  2.0020
  270MOL0     H35580   3.407   0.518   1.628  1.5858 -3.9101  3.8714
  270MOL0     H35581   3.616   0.417   1.625  0.4489  0.6514 -2.2360
  270MOL0     H35582   3.579   0.324   1.475 -1.5778  1.6902 -1.4287
  270MOL0     H35583   3.592   0.184   1.697  0.4811  1.8549  0.3616
  270MOL0     H35584   3.419   0.255   1.714 -0.4235 -1.5158  0.6276
  270MOL0     H35585   3.478   0.144   1.453 -5.4816  1.3186 -1.7133
  270MOL0     H35586   3.334   0.149   1.541 -1.0029 -0.8477  2.1326
  270MOL0     H35587   3.429  -0.028   1.712 -2.0377 -0.1637 -0.6733
  270MOL0     H35588   3.545  -0.054   1.575  1.0028  1.2136  1.0655
  270MOL0     H35589   3.391  -0.211   1.559  1.7945  0.9979  0.2920
  270MOL0     H35590   3.245  -0.091   1.553  0.1382  0.5542 -1.7713
  270MOL0     H35591   3.471  -0.134   1.350  0.1781 -1.0993  0.2615
  270MOL0     H35592   3.332  -0.019   1.341  0.1281  0.2205 -0.9494
  270MOL0     H35593   3.089  -0.229   1.414 -1.4641 -1.9992  0.6128
  270MOL0     H35594   2.908  -0.348   1.255  1.4780 -1.6218  1.4077
  270MOL0     H35595   2.993  -0.454   1.142 -3.4558 -0.4025  0.6036
  270MOL0     H35596   2.943  -0.163   1.098 -0.6267 -1.0979  1.7427
  270MOL0     H35597   2.822  -0.277   1.052 -0.8463  0.1657  3.1757
  270MOL0     H35598   3.106  -0.265   0.926  0.5487 -2.3184  0.9308
  270MOL0     H35599   2.990  -0.401   0.916  2.0261 -0.6462  2.0532
  270MOL0     H35600   2.947  -0.102   0.833 -1.0119  0.5818  1.0547
  270MOL0     H35601   2.825  -0.228   0.817 -0.0723  0.8325  1.8422
  270MOL0     H35602   2.827  -0.037   0.658  2.5755 -2.7754  3.1872
  270MOL0     H35603   2.828   0.095   0.450  0.8813 -0.6092 -2.0737
  270MOL0     H35604   3.120   0.112  -0.114  0.2284 -0.7896 -1.1930
  270MOL0     H35605   3.009   0.183  -0.308  1.3808 -0.3639  2.1662
  270MOL0     H35606   2.597   0.275  -0.301  0.7930 -2.0649  2.0483
  270MOL0     H35607   2.558   0.107  -0.360  0.6215  0.1778  3.1821
  270MOL0     H35608   2.618   0.332  -0.564 -1.6709  0.6295  1.2029
  270MOL0     H35609   2.461   0.282  -0.510  0.0441  1.1792 -0.4114
  270MOL0     H35610   2.487   0.049  -0.571 -0.3462  0.7344  0.2675
  270MOL0     H35611   2.650   0.084  -0.639 -0.6784 -0.1190 -2.2531
  270MOL0     H35612   2.406   0.241  -0.741  0.5710  1.1260  0.7750
  270MOL0     H35613   2.571   0.227  -0.796 -0.5148 -1.2549 -0.4224
  270MOL0     H35614   2.419  -0.036  -0.771 -2.1476  0.4316  0.2212
  270MOL0     H35615   2.566   0.009  -0.860 -1.7042 -0.2983 -2.6912
  270MOL0     H35616   2.300   0.122  -0.961 -0.0473 -1.1013 -3.8100
  270MOL0     H35617   2.387  -0.026  -1.005 -0.6774 -0.9542  1.0728
  270MOL0     H35618   2.496   0.256  -1.000  3.0803  0.8405 -2.8273
  270MOL0     H35619   2.573   0.101  -1.057 -0.4260 -0.1492 -0.9988
  270MOL0     H35620   2.499   0.270  -1.251  0.5201 -0.0393 -0.7120
  270MOL0     H35621   2.347   0.254  -1.205 -0.3743 -1.8158 -2.8072
  270MOL0     H35622   2.622   0.050  -0.166  0.8174  1.0194 -1.4906
  270MOL0     H35623   2.753  -0.054   0.022  0.8877 -0.8459  0.8744
  270MOL0     H35624   3.087  -0.172   0.259 -0.9969 -1.6760 -0.0840
  270MOL0     H35625   3.143  -0.286   0.484  1.4743  1.0412  0.9520
  270MOL0     H35626   3.360   0.584   1.165  0.6265 -1.8948 -0.5586
  270MOL0     H35627   3.436   0.579   0.933 -1.1216  2.0191  0.4032
  270MOL0     H35628   3.836   0.606   0.631  0.1917  0.4368 -0.0270
  270MOL0     H35629   3.887   0.629   0.386  1.9787 -0.2390  2.7547
  270MOL0     H35630   3.652   0.701   0.165 -1.6066  2.4506 -1.4748
  270MOL0     H35631   3.824   0.646   0.157 -1.8475 -0.9670  0.2166
  270MOL0     H35632   3.663   0.818  -0.017 -0.1844  2.7930  3.6247
  270MOL0     H35633   3.842   0.829  -0.020 -0.7165 -0.5137 -1.1483
  270MOL0     H35634   3.687   0.571  -0.051 -1.1719  2.2198  0.4152
  270MOL0     H35635   3.870   0.591  -0.052  1.6196  0.5518 -2.6553
  270MOL0     H35636   3.874   0.650  -0.279  1.5116 -0.5768  1.5873
  270MOL0     H35637   3.726   0.553  -0.286  0.2294 -1.0065  1.2542
  270MOL0     H35638   3.526   0.920  -0.297  1.1835  0.0563 -0.5387
  270MOL0     H35639   3.616   0.954   0.374  1.2871  0.8913 -1.0901
  270MOL0     H35640   3.606   0.954   0.625  3.1628  0.3116  2.8938
  271MOL0     O35641   9.144   6.408   1.465  0.6585  0.5400 -0.2362
  271MOL0     C35642   9.052   6.319   1.446 -0.1234 -0.8719 -0.0391
  271MOL0     O35643   8.960   6.274   1.533  0.3155  0.4586  0.4068
  271MOL0     C35644   8.960   6.309   1.667 -0.1633 -0.3631 -0.3512
  271MOL0     C35645   9.085   6.314   1.743  0.3224 -0.4563 -0.4827
  271MOL0     C35646   9.070   6.343   1.878 -0.2852 -0.4835  0.1432
  271MOL0     C35647   8.944   6.377   1.940 -0.4024  0.3971 -0.4209
  271MOL0     O35648   8.917   6.423   2.066 -0.5012 -0.0963 -0.5043
  271MOL0     C35649   9.032   6.415   2.164 -0.0167  0.7128  0.2637
  271MOL0     C35650   8.990   6.459   2.301 -0.3748 -0.9900 -0.2192
  271MOL0     C35651   9.093   6.416   2.409 -0.3796  0.0342  0.1322
  271MOL0     C35652   9.068   6.457   2.558 -0.6445  0.3444 -0.5672
  271MOL0     C35653   9.149   6.380   2.660  0.5259 -0.1669 -0.4083
  271MOL0     C35654   9.133   6.435   2.803  0.1213 -0.3830 -0.4146
  271MOL0     C35655   9.209   6.347   2.906  0.4092 -0.2043  0.5011
  271MOL0     C35656   9.363   6.344   2.895  0.3522 -0.0022 -0.2935
  271MOL0     N35657   9.424   6.243   2.986  0.7174  0.1360 -0.1339
  271MOL0     C35658   9.430   6.102   2.982  0.0830 -0.0004 -0.2904
  271MOL0     C35659   9.471   6.062   3.111  0.0035 -0.7928 -0.3487
  271MOL0     C35660   9.501   5.926   3.168  0.3407 -0.1039 -0.1432
  271MOL0     C35661   9.515   5.814   3.061 -0.1052  0.7907  0.6584
  271MOL0     C35662   9.570   5.685   3.127  0.1338 -0.7588  0.9504
  271MOL0     C35663   9.643   5.598   3.015 -0.0710  0.5342  0.4852
  271MOL0     O35664   9.769   5.670   2.980 -0.3629 -0.2255  1.0009
  271MOL0     C35665   9.851   5.621   2.881  0.9903  0.9130 -0.3032
  271MOL0     C35666   9.838   5.497   2.825 -0.2887  0.0513 -0.1757
  271MOL0     C35667   9.903   5.478   2.709  0.0746  0.3050 -0.1074
  271MOL0     C35668   9.967   5.582   2.630 -0.2087  0.0161 -0.0748
  271MOL0     C35669  10.024   5.560   2.496  0.4503 -0.0205  0.7641
  271MOL0     O35670  10.036   5.681   2.418 -0.7658  0.0653  0.0876
  271MOL0     C35671  10.073   5.678   2.291  0.0944 -0.2211  0.4812
  271MOL0     C35672  10.046   5.590   2.194 -0.7273  0.3050  0.7324
  271MOL0     C35673  10.088   5.609   2.061  0.7643  0.0606 -1.0532
  271MOL0     C35674  10.147   5.731   2.019  0.4429  0.0117 -0.1633
  271MOL0     O35675  10.191   5.764   1.891 -0.0341 -0.7492 -0.6016
  271MOL0     C35676  10.143   5.695   1.775  0.3701 -0.0397 -0.5171
  271MOL0     C35677  10.212   5.732   1.638  0.4993 -0.0900 -0.5287
  271MOL0     C35678  10.276   5.867   1.628 -0.0027  0.0308 -0.0813
  271MOL0     C35679  10.329   5.897   1.486 -0.0376  0.2325 -0.9527
  271MOL0     C35680  10.439   5.804   1.431 -0.0506  1.4011 -1.1168
  271MOL0     C35681  10.547   5.876   1.354 -0.0989 -0.2990 -0.4491
  271MOL0     C35682  10.618   5.995   1.436  0.2104  0.0260 -0.3046
  271MOL0     C35683  10.753   6.037   1.366  0.4132 -0.1126  0.3919
  271MOL0    Cl35684  10.877   6.031   1.490  0.3389  0.2809  0.6795
  271MOL0     C35685  10.166   5.830   2.110  0.5396  0.4444  0.2658
  271MOL0     C35686  10.136   5.801   2.243  0.6672 -1.1510 -0.2442
  271MOL0     O35687  10.059   5.449   2.464 -0.4109 -0.1814  0.8070
  271MOL0     C35688   9.980   5.703   2.691  0.1612 -0.5623  0.1770
  271MOL0     C35689   9.919   5.719   2.814  0.0601  0.4131 -0.5933
  271MOL0     N35690   9.499   6.175   3.187  0.2968  0.6222  0.1573
  271MOL0     N35691   9.456   6.282   3.115 -0.6508 -0.4728 -0.2283
  271MOL0     C35692   8.838   6.370   1.853 -0.8259 -0.0742 -0.0547
  271MOL0     C35693   8.835   6.326   1.729 -0.1483 -0.3031  0.5198
  271MOL0     C35694   9.057   6.251   1.317  0.0691  0.3950  0.6066
  271MOL0     C35695   8.961   6.161   1.283 -0.2683  0.9025 -0.6278
  271MOL0     C35696   8.969   6.093   1.160 -0.6331  0.0037 -1.0330
  271MOL0     C35697   9.071   6.121   1.063  0.3905  0.9283 -0.3237
  271MOL0     O35698   9.092   6.047   0.955 -0.1195 -0.2975 -0.6870
  271MOL0     C35699   8.985   5.996   0.882  0.4071  0.1927 -0.0920
  271MOL0     C35700   9.028   5.994   0.736 -0.8731  0.4873 -0.2452
  271MOL0     C35701   9.032   6.131   0.664 -0.0083  0.8088  0.1960
  271MOL0     C35702   8.910   6.225   0.685  0.4107 -0.9895 -0.4936
  271MOL0     C35703   8.778   6.178   0.643 -0.0606  1.0895  0.3036
  271MOL0     C35704   8.672   6.120   0.618 -0.6262 -0.0005  0.0455
  271MOL0     C35705   9.167   6.220   1.095  0.9185  0.0417  0.4318
  271MOL0     C35706   9.152   6.290   1.216  0.3986 -0.4333  0.5615
  271MOL0     H35707   9.179   6.298   1.691 -0.4543 -2.0560 -1.4875
  271MOL0     H35708   9.166   6.354   1.926 -1.0351  0.3514  1.4974
  271MOL0     H35709   9.115   6.480   2.137 -1.2775  2.6916  0.9155
  271MOL0     H35710   9.067   6.312   2.164  0.3625  0.8372 -0.2740
  271MOL0     H35711   8.893   6.412   2.323 -0.0055 -1.7602 -0.2065
  271MOL0     H35712   8.983   6.568   2.309  1.7429 -0.3933 -4.3008
  271MOL0     H35713   9.192   6.441   2.369 -1.2046 -0.7056 -2.6046
  271MOL0     H35714   9.098   6.307   2.407 -0.5655  0.0273 -0.9713
  271MOL0     H35715   9.095   6.563   2.560  0.0593  0.1669 -0.4921
  271MOL0     H35716   8.960   6.450   2.575 -0.9301  2.6933 -1.0717
  271MOL0     H35717   9.255   6.383   2.631  0.2970 -0.5944 -1.3227
  271MOL0     H35718   9.116   6.276   2.657 -1.0161  0.2333  1.0324
  271MOL0     H35719   9.027   6.425   2.831  0.4064  0.8145  1.1912
  271MOL0     H35720   9.156   6.542   2.801  0.5390 -0.4563 -2.6048
  271MOL0     H35721   9.169   6.355   3.007  1.3408  0.1447  0.8443
  271MOL0     H35722   9.165   6.248   2.890  0.3035 -0.1285  0.3123
  271MOL0     H35723   9.406   6.439   2.929  1.2299 -0.7528  0.7604
  271MOL0     H35724   9.392   6.326   2.791 -3.9609  0.6723 -1.8333
  271MOL0     H35725   9.414   6.034   2.899 -2.1033 -0.2097  0.2424
  271MOL0     H35726   9.410   5.906   3.227 -1.0094  3.5840 -0.7138
  271MOL0     H35727   9.595   5.924   3.224  1.0001 -3.1503 -1.1749
  271MOL0     H35728   9.594   5.848   2.993 -0.6438  0.1038 -0.3487
  271MOL0     H35729   9.423   5.791   3.007  0.8513 -0.6491 -0.4537
  271MOL0     H35730   9.633   5.716   3.211  2.5495 -2.9585  0.0915
  271MOL0     H35731   9.487   5.634   3.177  0.6899 -1.1607  1.4781
  271MOL0     H35732   9.581   5.585   2.925  2.0426 -0.0980 -0.9459
  271MOL0     H35733   9.669   5.503   3.062  0.8245  0.0844 -0.8692
  271MOL0     H35734   9.779   5.412   2.859  1.3428 -1.2534 -0.4759
  271MOL0     H35735   9.891   5.374   2.681 -0.7937  0.6810 -1.2088
  271MOL0     H35736   9.987   5.499   2.204 -0.7957  0.2366 -0.2199
  271MOL0     H35737  10.054   5.542   1.983  0.2488 -2.5113  1.2127
  271MOL0     H35738  10.037   5.716   1.759  0.4348  0.5793 -0.1773
  271MOL0     H35739  10.162   5.588   1.783 -1.8363 -0.6692 -2.7466
  271MOL0     H35740  10.124   5.743   1.575 -1.6447 -0.5312  2.1846
  271MOL0     H35741  10.270   5.647   1.601 -0.2049 -0.2196 -1.3441
  271MOL0     H35742  10.369   5.857   1.684  0.3472  1.9909 -0.2246
  271MOL0     H35743  10.206   5.943   1.664 -0.2671  0.2310 -0.9840
  271MOL0     H35744  10.246   5.892   1.414 -2.8319 -0.2029  2.0525
  271MOL0     H35745  10.373   5.996   1.501  1.1451 -0.2904 -0.9398
  271MOL0     H35746  10.388   5.735   1.362 -2.7125 -1.0365  2.8711
  271MOL0     H35747  10.479   5.750   1.517 -2.4805  0.9783 -0.1748
  271MOL0     H35748  10.500   5.921   1.266 -0.8894  3.2448  1.5804
  271MOL0     H35749  10.622   5.798   1.336  2.1057  1.2565  1.3977
  271MOL0     H35750  10.561   6.088   1.427  1.8212  1.3240  1.8900
  271MOL0     H35751  10.631   5.973   1.542 -5.1998 -3.0370  0.0624
  271MOL0     H35752  10.743   6.143   1.342 -0.1489 -0.1402  0.4973
  271MOL0     H35753  10.772   5.976   1.277 -0.5081 -2.0169  1.4288
  271MOL0     H35754  10.206   5.924   2.072  1.4907  0.2813  0.8407
  271MOL0     H35755  10.145   5.878   2.319 -3.9694 -1.2775  0.7317
  271MOL0     H35756  10.029   5.791   2.652  1.1872  0.3172  3.1627
  271MOL0     H35757   9.925   5.814   2.867 -1.0413  0.1395  0.0562
  271MOL0     H35758   8.743   6.388   1.902 -0.2988  3.8350 -0.1940
  271MOL0     H35759   8.749   6.315   1.664 -0.8009  2.3954  0.8184
  271MOL0     H35760   8.890   6.125   1.356 -0.6526  4.5319  0.9856
  271MOL0     H35761   8.894   6.016   1.140 -0.5370 -0.4500  0.2692
  271MOL0     H35762   8.890   6.047   0.900 -0.8765 -2.1123  0.0624
  271MOL0     H35763   8.949   5.901   0.923 -0.0879  0.4301  0.0331
  271MOL0     H35764   9.126   5.946   0.743 -1.0363  0.1057 -0.5673
  271MOL0     H35765   8.963   5.922   0.686  0.3236  0.6066 -2.0639
  271MOL0     H35766   9.040   6.107   0.557  1.4268 -1.1010  0.6754
  271MOL0     H35767   9.118   6.190   0.697 -1.9632  3.0556  1.5734
  271MOL0     H35768   8.907   6.274   0.783  0.3579  1.9816 -1.8710
  271MOL0     H35769   8.921   6.313   0.621 -0.8146 -0.4373  0.0058
  271MOL0     H35770   8.588   6.060   0.589  0.5580 -0.1215 -3.6415
  271MOL0     H35771   9.250   6.238   1.027 -1.1836 -2.0139 -3.0389
  271MOL0     H35772   9.228   6.363   1.240  0.3156 -0.3926  0.7013
  272MOL0     O35773   6.006   1.910   2.656 -0.1131  0.4442  0.1269
  272MOL0     C35774   5.952   1.987   2.572 -0.3222  0.2779 -0.1724
  272MOL0     O35775   5.879   2.096   2.606  1.0552  1.0771 -0.7964
  272MOL0     C35776   5.791   2.077   2.714 -0.3178 -1.2702  0.2824
  272MOL0     C35777   5.777   2.180   2.807 -0.5959  0.0973 -0.0602
  272MOL0     C35778   5.681   2.155   2.908 -0.3250 -0.3967 -0.1794
  272MOL0     C35779   5.612   2.031   2.922  0.6002  0.0285  0.1737
  272MOL0     O35780   5.528   2.007   3.033  0.1485  0.1818  0.2291
  272MOL0     C35781   5.469   1.876   3.052 -0.8698  0.5585 -0.7456
  272MOL0     C35782   5.395   1.878   3.192  0.7339 -0.8248 -1.0087
  272MOL0     C35783   5.342   1.731   3.221 -0.5958 -1.2851 -0.6112
  272MOL0     C35784   5.273   1.709   3.363  0.2438  0.0578 -0.7651
  272MOL0     C35785   5.140   1.634   3.345  0.3436  1.0864 -1.0778
  272MOL0     C35786   5.031   1.714   3.276  0.1307 -0.1024  0.2726
  272MOL0     C35787   4.989   1.832   3.360 -0.0633 -1.3573  0.1348
  272MOL0     C35788   4.876   1.803   3.464  0.1628 -0.5420  0.5966
  272MOL0     N35789   4.899   1.720   3.587 -1.0496 -0.1013 -1.0524
  272MOL0     C35790   5.002   1.746   3.681 -0.7460 -0.0926  0.7073
  272MOL0     C35791   4.993   1.647   3.767  0.9096 -0.5841 -1.3985
  272MOL0     C35792   5.073   1.621   3.892 -0.2841  0.3322 -0.6225
  272MOL0     C35793   5.050   1.732   3.996  0.1560 -0.0452 -0.4534
  272MOL0     C35794   4.907   1.749   4.046  0.0051  0.1606  0.7480
  272MOL0     C35795   4.884   1.891   4.108 -0.3075 -0.4354 -0.3313
  272MOL0     O35796   4.750   1.940   4.114  0.1728  0.0148  0.1746
  272MOL0     C35797   4.646   1.889   4.183  0.0794  0.8476 -0.6488
  272MOL0     C35798   4.538   1.969   4.171 -0.3197  0.1646 -0.4960
  272MOL0     C35799   4.416   1.940   4.225  0.8784  0.5581  0.5106
  272MOL0     C35800   4.405   1.829   4.321 -0.1148  0.0868 -0.1826
  272MOL0     C35801   4.279   1.798   4.390  0.6314  0.0989  0.0678
  272MOL0     O35802   4.274   1.687   4.467 -0.5137  0.5686  0.3706
  272MOL0     C35803   4.157   1.644   4.527 -0.1757  0.0628 -1.2366
  272MOL0     C35804   4.156   1.583   4.657 -0.0107 -0.4142  0.7463
  272MOL0     C35805   4.033   1.557   4.716  0.7008 -1.1641 -1.0668
  272MOL0     C35806   3.915   1.584   4.653  0.0077 -0.2862  0.0125
  272MOL0     O35807   3.803   1.552   4.733  0.9552  0.4932  0.0593
  272MOL0     C35808   3.686   1.626   4.691 -0.0336  0.3666 -0.0438
  272MOL0     C35809   3.586   1.639   4.807  0.1149 -0.8614  0.1156
  272MOL0     C35810   3.549   1.507   4.874  0.7593 -0.3348  0.4802
  272MOL0     C35811   3.439   1.523   4.978  0.4037 -0.4804  0.0025
  272MOL0     C35812   3.458   1.410   5.085  0.1830  0.3623  0.3939
  272MOL0     C35813   3.365   1.442   5.207 -0.0942 -0.3429  0.5196
  272MOL0     C35814   3.378   1.334   5.315  0.1107 -0.1517  1.3207
  272MOL0     C35815   3.305   1.207   5.258  0.3698  0.4186 -1.5738
  272MOL0    Cl35816   3.131   1.227   5.233 -0.0777  0.9321 -0.4340
  272MOL0     C35817   3.919   1.617   4.518 -0.0022  0.1676  1.6321
  272MOL0     C35818   4.039   1.644   4.455  0.0257  0.1404  0.1467
  272MOL0     O35819   4.183   1.884   4.385 -0.1686  0.1689 -0.1426
  272MOL0     C35820   4.514   1.743   4.328 -0.2278 -0.1819 -0.1456
  272MOL0     C35821   4.633   1.767   4.255 -0.0802  0.7699 -0.5071
  272MOL0     N35822   4.901   1.561   3.726  0.0258  0.7013 -0.7768
  272MOL0     N35823   4.847   1.602   3.616  0.6695 -0.6224 -0.2830
  272MOL0     C35824   5.628   1.937   2.815 -0.7712  0.8750  0.1393
  272MOL0     C35825   5.709   1.962   2.713  0.0411 -0.0413  0.7872
  272MOL0     C35826   5.978   1.956   2.438  0.4087  1.0072 -0.2561
  272MOL0     C35827   5.980   2.057   2.340 -0.1682  0.2752  0.4653
  272MOL0     C35828   6.019   2.026   2.204 -0.5722  0.4731 -0.6414
  272MOL0     C35829   6.053   1.897   2.162 -0.3431 -0.2133 -0.4424
  272MOL0     O35830   6.099   1.875   2.033  0.2473  0.1293  0.0414
  272MOL0     C35831   6.130   1.736   1.981  0.3607 -0.3280  0.0625
  272MOL0     C35832   6.273   1.694   2.021  0.0461  0.0847  0.5268
  272MOL0     C35833   6.381   1.797   1.965 -0.1114  0.8321 -0.0195
  272MOL0     C35834   6.384   1.776   1.809  0.3347 -0.7318 -0.3477
  272MOL0     C35835   6.482   1.865   1.751  0.0377  1.1817 -0.0244
  272MOL0     C35836   6.556   1.940   1.704  1.2772  0.3158 -0.3551
  272MOL0     C35837   6.028   1.792   2.262  1.6924 -0.3054  0.6556
  272MOL0     C35838   6.000   1.831   2.392 -0.3806 -0.1091  0.2105
  272MOL0     H35839   5.827   2.276   2.792 -4.3616  2.4680  1.0773
  272MOL0     H35840   5.663   2.234   2.980 -2.2743 -1.4853  0.5937
  272MOL0     H35841   5.562   1.821   3.067 -0.1734  1.5244 -1.4150
  272MOL0     H35842   5.406   1.838   2.971 -0.5324  0.7253 -1.0909
  272MOL0     H35843   5.314   1.951   3.187  0.1410 -1.5330 -2.4231
  272MOL0     H35844   5.460   1.912   3.272  0.3434 -0.8879 -0.6604
  272MOL0     H35845   5.417   1.653   3.205  0.1973 -0.2509 -2.1202
  272MOL0     H35846   5.261   1.709   3.151 -1.7484 -1.6939  0.7853
  272MOL0     H35847   5.342   1.664   3.435 -2.0817 -2.3523  0.1265
  272MOL0     H35848   5.253   1.804   3.413  0.1038  0.1506 -0.9973
  272MOL0     H35849   5.098   1.619   3.445  0.9290  0.6733 -0.8907
  272MOL0     H35850   5.153   1.537   3.297  1.8897  0.0481  1.2653
  272MOL0     H35851   4.944   1.649   3.266 -1.2844  1.9948 -2.2359
  272MOL0     H35852   5.051   1.741   3.172  1.0035 -1.6184 -0.0043
  272MOL0     H35853   5.069   1.884   3.415  0.3867  0.7808 -2.3799
  272MOL0     H35854   4.949   1.906   3.290  1.2156  0.3897  1.1633
  272MOL0     H35855   4.798   1.753   3.405 -0.7036  1.1065  0.2751
  272MOL0     H35856   4.835   1.899   3.498  3.2375  1.6298 -1.3215
  272MOL0     H35857   5.081   1.820   3.677 -0.2365 -0.6215  0.9303
  272MOL0     H35858   5.181   1.614   3.881 -0.1214  1.4062  0.1144
  272MOL0     H35859   5.050   1.528   3.945 -0.6207 -0.2465 -1.7645
  272MOL0     H35860   5.068   1.833   3.959  0.8331  0.8679  2.1456
  272MOL0     H35861   5.104   1.706   4.088 -3.5163 -2.8624  1.1931
  272MOL0     H35862   4.833   1.714   3.974 -0.9916  1.9532  0.8303
  272MOL0     H35863   4.889   1.677   4.126 -3.7075 -2.0316 -1.7389
  272MOL0     H35864   4.931   1.959   4.036 -0.3548 -1.0018 -0.9015
  272MOL0     H35865   4.954   1.894   4.192 -0.8294 -0.3588  0.1022
  272MOL0     H35866   4.535   2.070   4.131 -1.0738  1.0907  1.7113
  272MOL0     H35867   4.329   2.000   4.203 -0.7536 -2.2970 -1.5771
  272MOL0     H35868   4.237   1.540   4.714 -2.1355  0.5868  4.9576
  272MOL0     H35869   4.037   1.518   4.817 -0.9011  2.9487  0.8029
  272MOL0     H35870   3.633   1.570   4.614  4.2508 -3.1301 -0.8529
  272MOL0     H35871   3.709   1.729   4.663  3.3939 -0.2368  0.0731
  272MOL0     H35872   3.497   1.695   4.774  3.2801  3.4111 -2.2729
  272MOL0     H35873   3.635   1.718   4.865 -0.9078  2.1171 -2.7361
  272MOL0     H35874   3.639   1.462   4.915  0.3704 -1.4818  0.1197
  272MOL0     H35875   3.511   1.445   4.792  2.4711  2.8783 -3.0753
  272MOL0     H35876   3.436   1.623   5.023 -0.7239 -0.8870  0.8769
  272MOL0     H35877   3.348   1.515   4.920  0.5937 -0.4812 -0.2958
  272MOL0     H35878   3.557   1.421   5.130  0.9573 -0.3557 -1.0753
  272MOL0     H35879   3.456   1.315   5.030 -0.0047  1.2390 -1.1678
  272MOL0     H35880   3.262   1.444   5.170  0.4117 -0.3504 -0.9874
  272MOL0     H35881   3.387   1.539   5.253 -1.1411 -1.7659  4.3801
  272MOL0     H35882   3.482   1.303   5.329  0.1390 -0.5137  0.4274
  272MOL0     H35883   3.337   1.375   5.407 -0.0895  0.9128  0.7710
  272MOL0     H35884   3.316   1.131   5.337  0.8150  0.7908 -1.2672
  272MOL0     H35885   3.338   1.165   5.163 -1.9887  1.0481 -2.7239
  272MOL0     H35886   3.831   1.621   4.454  0.3748  0.3359  1.1209
  272MOL0     H35887   4.042   1.688   4.355  1.7459 -1.5720 -0.6243
  272MOL0     H35888   4.506   1.647   4.377  0.3214  0.9324  2.2829
  272MOL0     H35889   4.716   1.697   4.259 -1.6409 -1.1098  0.9923
  272MOL0     H35890   5.564   1.849   2.818  0.5831 -0.1918 -0.9950
  272MOL0     H35891   5.708   1.897   2.626  0.5518  0.4663  0.3917
  272MOL0     H35892   5.962   2.159   2.371 -2.2179  0.8166 -2.1688
  272MOL0     H35893   6.032   2.117   2.146 -1.7350 -0.7597 -2.9664
  272MOL0     H35894   6.110   1.741   1.873  3.0312  1.7452 -0.4601
  272MOL0     H35895   6.052   1.671   2.021 -2.9765  3.1053 -0.3131
  272MOL0     H35896   6.289   1.691   2.129  3.2876 -1.8707  0.1090
  272MOL0     H35897   6.304   1.599   1.977  3.5991  1.6865 -0.8465
  272MOL0     H35898   6.478   1.762   2.002  0.1268 -0.1216 -1.4495
  272MOL0     H35899   6.356   1.899   1.992 -0.6485  0.6106  0.3328
  272MOL0     H35900   6.411   1.678   1.768 -1.1294 -1.4375  0.3084
  272MOL0     H35901   6.285   1.803   1.770 -0.5221 -1.4848  1.2263
  272MOL0     H35902   6.632   1.997   1.655  0.9276  0.8250 -0.3079
  272MOL0     H35903   6.043   1.688   2.235  1.5848 -0.5181  1.3904
  272MOL0     H35904   6.012   1.757   2.470 -0.7742 -0.9416 -0.4941
  273MOL0     O35905   9.831   9.264   5.696  0.8895 -0.0714  0.3230
  273MOL0     C35906   9.795   9.157   5.646 -0.3551  0.9059 -1.1683
  273MOL0     O35907   9.781   9.137   5.510 -0.5012 -0.1888  0.2653
  273MOL0     C35908   9.813   9.241   5.428  0.2644  0.1715 -0.5079
  273MOL0     C35909   9.731   9.250   5.310  0.5134 -0.6334 -0.5796
  273MOL0     C35910   9.762   9.333   5.209  0.3207 -0.4242 -0.5013
  273MOL0     C35911   9.878   9.422   5.215  1.1162  0.5024 -0.7377
  273MOL0     O35912   9.901   9.507   5.113 -0.1593 -0.0813  0.0822
  273MOL0     C35913   9.820   9.618   5.109  0.7284 -0.6510 -0.7893
  273MOL0     C35914   9.906   9.740   5.110  0.0104  0.1231 -1.1768
  273MOL0     C35915   9.973   9.763   4.974 -0.4954 -0.0309 -1.0053
  273MOL0     C35916  10.088   9.858   4.983 -0.5680  0.3610  0.3092
  273MOL0     C35917  10.177   9.822   4.860 -0.6852 -0.1928  1.1635
  273MOL0     C35918  10.306   9.912   4.846 -0.4692 -0.2064  0.6322
  273MOL0     C35919  10.372   9.920   4.703 -1.0168  0.0038 -0.8436
  273MOL0     C35920  10.305  10.027   4.615 -1.0017 -0.0320 -0.5116
  273MOL0     N35921  10.351  10.011   4.471 -0.0252  0.6760 -0.5319
  273MOL0     C35922  10.483  10.009   4.435  0.4122 -0.4384 -0.4509
  273MOL0     C35923  10.481  10.007   4.295 -0.2300  0.8316  0.3276
  273MOL0     C35924  10.599   9.999   4.209 -0.4543  0.1635 -1.5659
  273MOL0     C35925  10.575   9.980   4.062 -0.5909 -0.4830 -0.2233
  273MOL0     C35926  10.592   9.844   4.012 -0.6100  0.9484  0.4991
  273MOL0     C35927  10.649   9.846   3.871 -0.3490  0.7375  0.7742
  273MOL0     O35928  10.648   9.726   3.800  0.2018  0.7585  0.1627
  273MOL0     C35929  10.561   9.728   3.699  0.3706 -0.2580  0.8714
  273MOL0     C35930  10.422   9.774   3.701 -0.2524 -0.7880 -0.7725
  273MOL0     C35931  10.353   9.772   3.579  0.6503  0.9612  0.1982
  273MOL0     C35932  10.404   9.711   3.463  0.4432 -0.7130  0.3343
  273MOL0     C35933  10.317   9.664   3.351 -0.1661 -0.1703 -0.1107
  273MOL0     O35934  10.187   9.706   3.352  0.4387  0.2353  0.0330
  273MOL0     C35935  10.093   9.640   3.273 -1.1504 -0.4036  0.6345
  273MOL0     C35936  10.067   9.507   3.277 -0.6534 -0.4392  0.2220
  273MOL0     C35937   9.959   9.453   3.198  0.0230 -0.5978  0.1478
  273MOL0     C35938   9.870   9.538   3.128 -0.6681  0.7106 -0.2777
  273MOL0     O35939   9.759   9.487   3.071  0.2297  0.3714  0.1526
  273MOL0     C35940   9.771   9.456   2.933  0.6125 -0.7745  0.2426
  273MOL0     C35941   9.711   9.581   2.853  1.3770  0.0216 -0.7117
  273MOL0     C35942   9.597   9.666   2.914  0.1006 -0.2109  0.1242
  273MOL0     C35943   9.480   9.589   2.972 -0.9220  0.9616  0.3187
  273MOL0     C35944   9.358   9.673   3.019  0.0897  0.7332  0.2800
  273MOL0     C35945   9.393   9.792   3.121  1.2595 -0.3997  0.1047
  273MOL0     C35946   9.436   9.928   3.077  0.1997 -0.5369  0.0067
  273MOL0     C35947   9.509  10.027   3.166  0.3011  0.6378  0.2568
  273MOL0    Cl35948   9.687   9.974   3.186 -0.1095  0.1129 -0.1800
  273MOL0     C35949   9.908   9.673   3.116 -0.0479 -0.2686 -0.2806
  273MOL0     C35950  10.022   9.722   3.180  0.0588 -0.3551  0.6235
  273MOL0     O35951  10.364   9.584   3.258 -0.2335  0.3432 -0.5487
  273MOL0     C35952  10.539   9.674   3.466  0.5952 -0.1891  0.9424
  273MOL0     C35953  10.613   9.681   3.574  0.7111 -0.0561  0.6286
  273MOL0     N35954  10.347  10.014   4.252 -0.1417  0.0599  1.0355
  273MOL0     N35955  10.274  10.020   4.360  0.3278  0.8029  0.1154
  273MOL0     C35956   9.952   9.433   5.338  0.5120 -0.3616  0.2123
  273MOL0     C35957   9.925   9.332   5.436 -0.1972  0.1361 -0.2869
  273MOL0     C35958   9.797   9.039   5.731  0.2865 -0.3382  0.1582
  273MOL0     C35959   9.771   8.909   5.678 -0.3998 -0.7175 -0.6760
  273MOL0     C35960   9.770   8.798   5.758  0.1203  0.5631  0.3894
  273MOL0     C35961   9.783   8.815   5.895  0.9092  0.5375 -0.5612
  273MOL0     O35962   9.779   8.710   5.987 -0.3472 -0.3225  0.0869
  273MOL0     C35963   9.711   8.594   5.951  0.1107 -0.5652  1.1355
  273MOL0     C35964   9.562   8.634   5.944 -0.1596  0.6148 -0.0450
  273MOL0     C35965   9.471   8.535   5.863  1.2238  0.2000  0.2841
  273MOL0     C35966   9.363   8.477   5.951  0.7334 -0.0710  0.3724
  273MOL0     C35967   9.430   8.366   6.020 -0.4536 -0.8304 -0.1336
  273MOL0     C35968   9.493   8.284   6.092  0.5026 -0.1299  1.3966
  273MOL0     C35969   9.806   8.936   5.946 -0.6313  0.5094  0.0257
  273MOL0     C35970   9.817   9.049   5.865 -0.6147  0.6153 -0.2817
  273MOL0     H35971   9.654   9.175   5.294  0.0974 -1.2489  3.3560
  273MOL0     H35972   9.706   9.332   5.116  0.4360  0.7840 -0.6071
  273MOL0     H35973   9.755   9.630   5.196  0.8581 -3.0518 -0.2982
  273MOL0     H35974   9.745   9.621   5.030 -0.6977 -1.2870  0.4911
  273MOL0     H35975   9.982   9.725   5.188  1.3527 -0.3721 -2.5222
  273MOL0     H35976   9.846   9.827   5.136  0.6759  0.1739  0.3017
  273MOL0     H35977   9.913   9.792   4.886  3.3214  2.5302 -3.0507
  273MOL0     H35978  10.020   9.669   4.945 -0.9750 -0.0793 -1.6586
  273MOL0     H35979  10.048   9.958   4.962 -2.6609 -0.8698 -2.2083
  273MOL0     H35980  10.131   9.840   5.082  0.9807 -2.6786 -0.7931
  273MOL0     H35981  10.110   9.841   4.776 -1.9335  2.9581  2.7061
  273MOL0     H35982  10.202   9.716   4.852 -0.5891 -0.0965 -5.5593
  273MOL0     H35983  10.383   9.867   4.909 -0.5104  0.1919  0.9761
  273MOL0     H35984  10.279  10.013   4.880 -1.0209 -0.2842  0.4364
  273MOL0     H35985  10.475   9.956   4.716 -1.9601  3.0064 -1.1074
  273MOL0     H35986  10.361   9.825   4.649 -2.6658  0.2002 -0.8815
  273MOL0     H35987  10.337  10.129   4.639 -2.2481  0.7506 -1.9827
  273MOL0     H35988  10.197  10.044   4.622 -1.1008 -0.8529  0.0159
  273MOL0     H35989  10.568  10.006   4.502  0.0117 -1.1684  0.0410
  273MOL0     H35990  10.670   9.927   4.252 -0.8232  0.6309 -0.1225
  273MOL0     H35991  10.637  10.101   4.223 -1.5745  0.7925 -2.8923
  273MOL0     H35992  10.639  10.052   4.010 -2.1175  0.4598 -0.8707
  273MOL0     H35993  10.471  10.010   4.046 -0.3410  0.2461 -0.5053
  273MOL0     H35994  10.667   9.798   4.077  0.4436 -0.4031 -1.5515
  273MOL0     H35995  10.500   9.785   4.018  0.2704 -0.4115  1.2135
  273MOL0     H35996  10.751   9.886   3.862 -0.7965  1.5786 -0.9178
  273MOL0     H35997  10.582   9.911   3.816 -0.9033 -2.2522 -2.4191
  273MOL0     H35998  10.371   9.808   3.792  0.7966 -2.2539  0.4070
  273MOL0     H35999  10.248   9.802   3.586  0.7899  1.0837  2.5240
  273MOL0     H36000  10.105   9.426   3.339  0.5703  0.8491  1.2234
  273MOL0     H36001   9.929   9.349   3.202  1.0318 -0.8731  0.9753
  273MOL0     H36002   9.707   9.369   2.910  0.4503 -0.2620 -1.3867
  273MOL0     H36003   9.873   9.431   2.902  0.3399  0.0953 -1.5256
  273MOL0     H36004   9.683   9.545   2.754 -0.7103 -0.5508  0.0398
  273MOL0     H36005   9.801   9.641   2.838  0.6290  0.8918 -1.8694
  273MOL0     H36006   9.572   9.748   2.845  0.1838  2.0236  2.5858
  273MOL0     H36007   9.646   9.719   2.997 -1.5768  0.3187  0.8225
  273MOL0     H36008   9.438   9.524   2.895  0.0233  1.3313 -0.5320
  273MOL0     H36009   9.519   9.527   3.053  0.0091 -1.0018 -1.5407
  273MOL0     H36010   9.297   9.604   3.078  0.6329 -0.4142 -0.4692
  273MOL0     H36011   9.300   9.692   2.928 -0.2601 -1.5294 -0.0283
  273MOL0     H36012   9.467   9.750   3.189  0.1518  1.5055  2.6700
  273MOL0     H36013   9.300   9.810   3.177  2.0439 -1.1294  1.7072
  273MOL0     H36014   9.502   9.913   2.991 -0.9160 -0.5613 -0.8692
  273MOL0     H36015   9.352   9.989   3.044  3.0136  4.6763  1.5110
  273MOL0     H36016   9.469  10.039   3.267  3.8671  3.6271  1.5093
  273MOL0     H36017   9.497  10.124   3.117 -0.6516  0.4252  0.0401
  273MOL0     H36018   9.849   9.745   3.061  2.1309  2.7391  1.0690
  273MOL0     H36019  10.045   9.827   3.164  0.2079 -0.6346 -1.2336
  273MOL0     H36020  10.583   9.624   3.381  0.6858  0.6220  0.5035
  273MOL0     H36021  10.708   9.631   3.556  0.8264  0.3866 -0.0150
  273MOL0     H36022  10.035   9.500   5.356  0.1152 -0.0880  1.0839
  273MOL0     H36023   9.992   9.322   5.521  1.1694  1.3097 -1.1986
  273MOL0     H36024   9.765   8.890   5.571 -0.5082  0.0877 -0.8146
  273MOL0     H36025   9.749   8.708   5.700  0.6189  2.0771 -2.3183
  273MOL0     H36026   9.724   8.516   6.027 -0.1716 -0.5775  1.1689
  273MOL0     H36027   9.743   8.557   5.854 -1.9889 -0.6107  0.4246
  273MOL0     H36028   9.529   8.627   6.048 -0.3511  2.1844  0.0106
  273MOL0     H36029   9.538   8.733   5.904 -2.1475 -1.4396 -4.7220
  273MOL0     H36030   9.537   8.468   5.807  1.5492  2.5156 -2.3327
  273MOL0     H36031   9.408   8.592   5.793 -1.5820  1.8117  3.8169
  273MOL0     H36032   9.326   8.550   6.024  0.9848 -2.6253  3.2658
  273MOL0     H36033   9.276   8.422   5.913  2.6086 -3.0873  0.1059
  273MOL0     H36034   9.574   8.239   6.146  1.4911  0.6166  0.5708
  273MOL0     H36035   9.831   8.945   6.051  2.5135 -1.8192 -0.3622
  273MOL0     H36036   9.839   9.148   5.906  0.7409  1.3806 -2.7223
  274MOL0     O36037   1.842   0.278   6.486  0.3524  0.0922 -0.8968
  274MOL0     C36038   1.888   0.385   6.455 -0.0339 -0.4695 -0.5193
  274MOL0     O36039   1.871   0.447   6.339  0.1085  0.5284  1.0289
  274MOL0     C36040   1.803   0.401   6.233  0.8323 -0.0512 -0.9952
  274MOL0     C36041   1.705   0.301   6.231  0.3645 -0.0698  0.7583
  274MOL0     C36042   1.627   0.267   6.111 -0.7059  0.3071 -0.8749
  274MOL0     C36043   1.658   0.329   5.988 -0.0297  0.3366 -0.6757
  274MOL0     O36044   1.601   0.291   5.872 -0.4589 -0.0969  0.4992
  274MOL0     C36045   1.641   0.351   5.751 -0.1595 -0.2866 -0.4963
  274MOL0     C36046   1.577   0.275   5.639  0.3200 -0.2937 -0.6559
  274MOL0     C36047   1.611   0.337   5.504 -0.4402  0.0773 -0.1100
  274MOL0     C36048   1.495   0.301   5.409  0.5241 -0.3127 -0.0893
  274MOL0     C36049   1.457   0.158   5.385 -0.2297  0.0928  0.2809
  274MOL0     C36050   1.574   0.080   5.329  0.2442 -0.0516  0.0251
  274MOL0     C36051   1.536  -0.069   5.326  1.3903 -0.2389 -0.5139
  274MOL0     C36052   1.637  -0.164   5.258 -0.1512  0.5303  0.3804
  274MOL0     N36053   1.566  -0.279   5.192 -0.0025  0.4735 -0.0256
  274MOL0     C36054   1.547  -0.400   5.244  0.7091  0.8634 -0.0448
  274MOL0     C36055   1.461  -0.464   5.161 -0.5288 -0.8283  0.3622
  274MOL0     C36056   1.401  -0.601   5.168  0.3979  0.6687 -0.0407
  274MOL0     C36057   1.480  -0.680   5.054  0.4234  0.7862 -0.7961
  274MOL0     C36058   1.635  -0.661   5.050 -0.5849 -0.1350  0.6993
  274MOL0     C36059   1.698  -0.719   5.171  0.3399 -0.4573  0.3668
  274MOL0     O36060   1.839  -0.715   5.156  0.7833  0.3866  0.5368
  274MOL0     C36061   1.912  -0.597   5.126  0.3513  0.3265 -0.4766
  274MOL0     C36062   2.037  -0.607   5.067 -0.4257  0.3831 -1.1604
  274MOL0     C36063   2.117  -0.500   5.042 -0.0452 -0.6582 -0.2327
  274MOL0     C36064   2.090  -0.372   5.101  0.3758  0.7167 -0.5429
  274MOL0     C36065   2.190  -0.261   5.086 -0.6102  1.4235 -0.1185
  274MOL0     O36066   2.144  -0.131   5.099  0.3098 -0.4493  0.4776
  274MOL0     C36067   2.199  -0.025   5.043  1.0055  0.8727  0.3778
  274MOL0     C36068   2.163   0.100   5.098  0.4914 -0.8075  0.3632
  274MOL0     C36069   2.200   0.228   5.052 -0.1531 -0.2260 -0.9483
  274MOL0     C36070   2.284   0.230   4.936  0.1986 -0.3551  0.6524
  274MOL0     O36071   2.323   0.360   4.899 -1.3411 -1.3162 -0.4203
  274MOL0     C36072   2.426   0.376   4.807 -0.4243 -0.4884  0.6831
  274MOL0     C36073   2.462   0.516   4.786 -0.1082  0.0232 -0.1850
  274MOL0     C36074   2.336   0.613   4.788  0.4347 -0.5392  0.4794
  274MOL0     C36075   2.384   0.758   4.781 -0.3178 -0.1324  0.3367
  274MOL0     C36076   2.279   0.863   4.782  0.2832  1.0026  0.3139
  274MOL0     C36077   2.330   1.002   4.833  0.9684  0.5904  1.0478
  274MOL0     C36078   2.205   1.088   4.861 -0.6170 -0.5486  0.0549
  274MOL0     C36079   2.255   1.230   4.881 -1.1121 -0.3407 -0.9210
  274MOL0    Cl36080   2.310   1.259   5.054 -0.0138  0.1742 -0.0017
  274MOL0     C36081   2.318   0.110   4.866  0.4083  0.4331  0.2386
  274MOL0     C36082   2.285  -0.016   4.927  0.8434 -0.6931 -0.0176
  274MOL0     O36083   2.302  -0.293   5.052  0.1901 -0.5097 -0.1220
  274MOL0     C36084   1.966  -0.360   5.162  0.7652 -0.4695 -0.3524
  274MOL0     C36085   1.881  -0.471   5.178  0.5135  1.2681  0.1126
  274MOL0     N36086   1.435  -0.379   5.053  0.3448 -0.7839 -0.1598
  274MOL0     N36087   1.493  -0.271   5.078 -1.4040 -0.4811 -0.0860
  274MOL0     C36088   1.744   0.432   5.996  0.1349  0.1394 -0.7604
  274MOL0     C36089   1.814   0.471   6.114  0.0239 -0.0581 -0.4894
  274MOL0     C36090   1.983   0.445   6.552 -0.0270 -0.2426  0.5461
  274MOL0     C36091   2.037   0.576   6.539  0.2685 -0.6133  0.4801
  274MOL0     C36092   2.108   0.642   6.635  0.2756  0.6453  0.3254
  274MOL0     C36093   2.152   0.576   6.746 -0.5359  0.2755  0.2208
  274MOL0     O36094   2.245   0.629   6.832  0.0039 -0.1997  0.3778
  274MOL0     C36095   2.363   0.695   6.775  0.5167  0.7441  0.3934
  274MOL0     C36096   2.395   0.814   6.870 -1.3590  0.0161 -0.3719
  274MOL0     C36097   2.304   0.939   6.860 -0.5125  0.3814 -0.3526
  274MOL0     C36098   2.245   0.990   6.997  0.2669 -0.4154  0.2595
  274MOL0     C36099   2.166   1.114   6.961 -0.6089 -0.1383  0.0012
  274MOL0     C36100   2.101   1.208   6.951 -0.7122 -0.3198  1.1054
  274MOL0     C36101   2.114   0.441   6.759 -0.4150 -0.1206 -0.8308
  274MOL0     C36102   2.033   0.372   6.662 -0.3545  0.1032  0.4411
  274MOL0     H36103   1.664   0.256   6.321 -3.6595 -2.1782 -1.8920
  274MOL0     H36104   1.554   0.187   6.099 -0.1406 -0.2119 -0.9067
  274MOL0     H36105   1.750   0.343   5.749 -0.1166 -0.6248  1.5003
  274MOL0     H36106   1.615   0.457   5.756  1.2681  0.0217  2.4627
  274MOL0     H36107   1.468   0.278   5.649  0.1524 -1.4291 -1.8094
  274MOL0     H36108   1.602   0.170   5.654  1.6582  0.2445  1.2556
  274MOL0     H36109   1.703   0.290   5.470 -1.5377 -2.3905  0.0887
  274MOL0     H36110   1.633   0.444   5.505 -2.5096  0.5795 -1.1419
  274MOL0     H36111   1.404   0.356   5.435  0.6230 -0.4478  0.5636
  274MOL0     H36112   1.531   0.345   5.315 -2.2568 -2.4174 -2.3130
  274MOL0     H36113   1.377   0.132   5.315  2.6951 -1.9637 -2.5485
  274MOL0     H36114   1.416   0.118   5.479  1.1286  1.9444  1.7503
  274MOL0     H36115   1.667   0.096   5.384 -0.4446 -0.4562  1.3296
  274MOL0     H36116   1.599   0.120   5.230 -2.1430  1.9830  0.1466
  274MOL0     H36117   1.523  -0.095   5.432 -1.3744 -1.0245 -0.9727
  274MOL0     H36118   1.441  -0.067   5.273 -0.5781  1.4248  2.7302
  274MOL0     H36119   1.704  -0.212   5.330 -0.0468  0.3797  0.1826
  274MOL0     H36120   1.711  -0.117   5.193  0.1077  0.1938  0.4278
  274MOL0     H36121   1.573  -0.444   5.340 -0.8715 -1.6395 -0.6506
  274MOL0     H36122   1.292  -0.600   5.161  0.0361  1.8692  3.7314
  274MOL0     H36123   1.417  -0.646   5.266 -1.3103 -1.8531 -0.8369
  274MOL0     H36124   1.431  -0.645   4.962 -0.7038 -0.5466 -0.7374
  274MOL0     H36125   1.456  -0.786   5.067 -0.6080  1.1021 -0.0689
  274MOL0     H36126   1.679  -0.721   4.969 -1.5961 -1.9033  1.4074
  274MOL0     H36127   1.662  -0.555   5.041 -0.9878 -0.2061 -4.2892
  274MOL0     H36128   1.664  -0.819   5.199  0.2082 -0.8795 -1.1982
  274MOL0     H36129   1.668  -0.657   5.256  2.3689  1.6915 -0.3826
  274MOL0     H36130   2.060  -0.712   5.053 -3.3452 -0.5297  0.1517
  274MOL0     H36131   2.217  -0.519   5.004  0.2208 -1.5477  0.8740
  274MOL0     H36132   2.090   0.094   5.178 -2.8407 -3.7140 -2.5478
  274MOL0     H36133   2.165   0.315   5.107 -1.2489 -0.4294 -1.3101
  274MOL0     H36134   2.398   0.342   4.707  1.1592  0.4470 -0.1061
  274MOL0     H36135   2.514   0.317   4.834  0.0716  0.4946  1.2752
  274MOL0     H36136   2.507   0.525   4.686  0.8299 -4.0261 -0.3255
  274MOL0     H36137   2.528   0.541   4.870 -2.3119 -0.4003  1.7528
  274MOL0     H36138   2.277   0.600   4.880  1.1679  0.5566  1.1239
  274MOL0     H36139   2.267   0.586   4.707  2.6936  2.5384 -2.8028
  274MOL0     H36140   2.434   0.788   4.874 -1.8653  4.5729 -0.1166
  274MOL0     H36141   2.456   0.756   4.699 -0.3053 -1.3618  0.3560
  274MOL0     H36142   2.203   0.826   4.853  0.3098  1.0269  0.3549
  274MOL0     H36143   2.236   0.879   4.683  1.1842 -1.0631 -0.4809
  274MOL0     H36144   2.395   1.060   4.767  1.8792  0.8485  2.1369
  274MOL0     H36145   2.369   0.994   4.935  0.3070 -0.8298  1.2097
  274MOL0     H36146   2.139   1.097   4.775 -0.7222 -2.9860 -0.2013
  274MOL0     H36147   2.148   1.063   4.952 -1.2729 -0.5528 -0.3530
  274MOL0     H36148   2.180   1.300   4.841  1.8416  2.5568 -1.8347
  274MOL0     H36149   2.336   1.245   4.809  1.0500 -0.5563  1.3313
  274MOL0     H36150   2.366   0.098   4.769 -2.1449  0.0320 -1.0623
  274MOL0     H36151   2.335  -0.107   4.894 -0.8173 -1.1184 -1.5122
  274MOL0     H36152   1.933  -0.269   5.211  0.8691 -0.5911 -0.0533
  274MOL0     H36153   1.799  -0.461   5.248  1.4659 -0.4808  1.5741
  274MOL0     H36154   1.780   0.489   5.911  0.3054  2.7932  0.9536
  274MOL0     H36155   1.872   0.562   6.119 -0.2394  0.0513  1.3080
  274MOL0     H36156   1.999   0.624   6.450  1.1334 -0.8157 -0.0020
  274MOL0     H36157   2.131   0.748   6.631  2.2778  0.2267 -0.5832
  274MOL0     H36158   2.349   0.740   6.676 -4.3090  1.2606  1.0689
  274MOL0     H36159   2.450   0.629   6.780  0.3719  0.5664  0.5465
  274MOL0     H36160   2.408   0.776   6.972  1.1703 -0.2393 -0.7248
  274MOL0     H36161   2.493   0.846   6.834 -0.7892 -1.4439 -0.1688
  274MOL0     H36162   2.223   0.921   6.789  0.2885 -0.4461 -1.0805
  274MOL0     H36163   2.361   1.012   6.803  0.4275 -0.3752 -0.3992
  274MOL0     H36164   2.178   0.916   7.041 -0.7470  0.1860 -0.2506
  274MOL0     H36165   2.332   1.007   7.061  2.2590 -0.8725 -2.1592
  274MOL0     H36166   2.033   1.291   6.955 -0.8947 -0.3741 -0.3505
  274MOL0     H36167   2.157   0.380   6.838 -5.4343 -1.1036  1.5463
  274MOL0     H36168   2.014   0.265   6.668  1.7598 -0.2851  1.1733
  275MOL0     O36169   1.129   2.395   6.450  0.4007 -0.2807 -0.4699
  275MOL0     C36170   1.064   2.400   6.348  0.1762 -0.1209  0.0757
  275MOL0     O36171   1.096   2.472   6.236 -0.0551 -0.9029 -0.5201
  275MOL0     C36172   1.196   2.568   6.243 -0.5583 -0.2201  0.6831
  275MOL0     C36173   1.243   2.649   6.353 -0.0940 -0.4225 -0.0048
  275MOL0     C36174   1.337   2.751   6.331 -0.5015  0.0829  0.1496
  275MOL0     C36175   1.380   2.784   6.200  0.6915  0.5168  0.2915
  275MOL0     O36176   1.472   2.878   6.165  1.8791  0.2216 -0.0218
  275MOL0     C36177   1.505   2.980   6.266  0.6235 -0.1373  0.6043
  275MOL0     C36178   1.385   3.081   6.247 -0.3412  0.0433 -0.4171
  275MOL0     C36179   1.433   3.227   6.269  0.2706  0.6857 -0.0961
  275MOL0     C36180   1.495   3.250   6.417 -0.4248  1.1988  0.5962
  275MOL0     C36181   1.613   3.338   6.422  0.5067 -0.2595  0.2064
  275MOL0     C36182   1.739   3.271   6.369 -0.3347  0.2355 -0.6591
  275MOL0     C36183   1.859   3.359   6.347  0.9953  0.0575  0.0391
  275MOL0     C36184   1.832   3.488   6.266  0.0465  0.4691 -0.0611
  275MOL0     N36185   1.962   3.544   6.225  0.1412 -0.6386  0.4544
  275MOL0     C36186   2.031   3.638   6.289  0.4228 -0.8841 -1.0365
  275MOL0     C36187   2.156   3.632   6.256 -0.2952 -0.3355  1.0074
  275MOL0     C36188   2.266   3.697   6.320  0.4878  0.4574  0.2740
  275MOL0     C36189   2.351   3.591   6.407 -0.5141  0.9458  0.2744
  275MOL0     C36190   2.466   3.661   6.491  0.6841 -0.1651  0.0755
  275MOL0     C36191   2.423   3.719   6.634 -0.4231  1.0076 -0.2765
  275MOL0     O36192   2.385   3.600   6.716 -0.0778 -0.4495  0.5905
  275MOL0     C36193   2.450   3.562   6.835 -0.8787  0.9163 -0.3809
  275MOL0     C36194   2.387   3.463   6.909 -0.8089  0.4584 -0.5805
  275MOL0     C36195   2.419   3.436   7.035  0.1276 -0.5318  0.1419
  275MOL0     C36196   2.514   3.509   7.113  1.0297 -0.5402 -0.0902
  275MOL0     C36197   2.560   3.460   7.238 -1.1501  0.4068  0.0871
  275MOL0     O36198   2.671   3.522   7.297  0.4148 -0.2548  0.1476
  275MOL0     C36199   2.708   3.495   7.425 -0.2713  0.0011  0.0613
  275MOL0     C36200   2.839   3.550   7.452  0.4160 -0.3470 -0.7538
  275MOL0     C36201   2.905   3.514   7.572  0.1287 -0.7873  0.4712
  275MOL0     C36202   2.841   3.435   7.669 -1.1460 -0.6278  0.1669
  275MOL0     O36203   2.901   3.417   7.785  0.7544 -0.7426 -0.4564
  275MOL0     C36204   3.024   3.344   7.792  0.6270  0.0623  0.7172
  275MOL0     C36205   3.113   3.423   7.878 -0.3950  0.1201 -0.0973
  275MOL0     C36206   3.179   3.557   7.824 -0.2399  0.3958 -0.0183
  275MOL0     C36207   3.265   3.629   7.928  0.0074 -0.0626  0.3685
  275MOL0     C36208   3.416   3.586   7.940  1.1022  0.4228  0.1577
  275MOL0     C36209   3.439   3.455   8.006 -0.0114  0.2423  0.3292
  275MOL0     C36210   3.569   3.434   8.077 -0.1653  0.2926 -0.2338
  275MOL0     C36211   3.551   3.307   8.156 -0.4635 -0.3566 -0.3859
  275MOL0    Cl36212   3.556   3.166   8.042  0.1387 -0.5533  0.1270
  275MOL0     C36213   2.715   3.383   7.643  1.5400  0.5130  0.0906
  275MOL0     C36214   2.647   3.408   7.520  0.1392  0.3074 -0.4498
  275MOL0     O36215   2.502   3.365   7.290 -0.2080  0.4971  0.2831
  275MOL0     C36216   2.580   3.609   7.037 -0.8490  0.5221  0.2122
  275MOL0     C36217   2.550   3.634   6.900 -0.2065  0.5599  1.2931
  275MOL0     N36218   2.174   3.533   6.159 -0.3656  0.2508  0.3449
  275MOL0     N36219   2.056   3.486   6.142 -0.7807 -1.3224  0.1252
  275MOL0     C36220   1.347   2.692   6.095  0.5593  0.5744 -1.7260
  275MOL0     C36221   1.248   2.595   6.113 -0.7374  0.0108 -0.7400
  275MOL0     C36222   0.964   2.298   6.340  0.7669  0.2583  0.1671
  275MOL0     C36223   0.889   2.290   6.219 -0.6538 -0.2828  1.3585
  275MOL0     C36224   0.791   2.196   6.195 -0.8049 -0.5423 -0.5161
  275MOL0     C36225   0.751   2.109   6.304 -0.0794 -0.6930 -0.6334
  275MOL0     O36226   0.656   2.019   6.277 -0.6312 -0.7383 -0.7175
  275MOL0     C36227   0.635   1.914   6.379  1.3211  0.1959  0.3735
  275MOL0     C36228   0.518   1.820   6.331 -0.3939  0.2452  0.5094
  275MOL0     C36229   0.521   1.700   6.426  0.1738  0.5527  1.1574
  275MOL0     C36230   0.382   1.651   6.476 -0.0893  0.7278 -0.6751
  275MOL0     C36231   0.407   1.542   6.570  0.1926  0.0429 -0.5235
  275MOL0     C36232   0.419   1.455   6.656 -0.2498  0.5313  0.9452
  275MOL0     C36233   0.816   2.116   6.426  0.1826 -0.5057 -0.0830
  275MOL0     C36234   0.912   2.216   6.456  0.8982  0.1951  1.1612
  275MOL0     H36235   1.204   2.620   6.450 -0.2993 -1.0192 -0.2610
  275MOL0     H36236   1.373   2.795   6.424 -0.6911 -1.8122  1.1792
  275MOL0     H36237   1.594   3.041   6.247  0.5698  0.5371  2.3710
  275MOL0     H36238   1.506   2.946   6.370 -1.3206 -0.2573  0.6123
  275MOL0     H36239   1.297   3.071   6.310  1.3366 -1.1164  1.8676
  275MOL0     H36240   1.357   3.081   6.141  0.8858  0.4330 -0.7651
  275MOL0     H36241   1.347   3.294   6.261 -1.7309 -1.7322 -0.2089
  275MOL0     H36242   1.496   3.251   6.183  1.6149 -0.9433  0.3721
  275MOL0     H36243   1.411   3.287   6.476 -2.1368  0.7361 -1.4555
  275MOL0     H36244   1.528   3.155   6.461  2.0802  1.8171  0.2202
  275MOL0     H36245   1.603   3.356   6.530  1.0882  1.7046 -0.0291
  275MOL0     H36246   1.581   3.433   6.379 -2.1093  0.1851  2.8201
  275MOL0     H36247   1.731   3.228   6.269  0.1528  0.7609 -0.9307
  275MOL0     H36248   1.762   3.188   6.436 -0.4569  0.4066 -0.4015
  275MOL0     H36249   1.898   3.387   6.445  3.8553 -0.9689 -0.7140
  275MOL0     H36250   1.942   3.305   6.301  0.3097 -1.9830  1.0931
  275MOL0     H36251   1.774   3.555   6.330 -1.3410 -1.2262  0.5510
  275MOL0     H36252   1.775   3.470   6.174 -0.7238  2.6129 -0.0566
  275MOL0     H36253   1.989   3.697   6.370 -0.7660 -1.7026 -1.0352
  275MOL0     H36254   2.242   3.786   6.379  3.3189  0.1537  2.1013
  275MOL0     H36255   2.325   3.747   6.243  1.5380 -0.2501  0.5840
  275MOL0     H36256   2.403   3.524   6.339 -1.9854  1.5525 -1.5404
  275MOL0     H36257   2.285   3.531   6.470  0.6358  0.5888  1.1737
  275MOL0     H36258   2.557   3.600   6.484  1.6387  1.4112 -3.7911
  275MOL0     H36259   2.499   3.745   6.429 -0.6612  2.3484  2.5284
  275MOL0     H36260   2.336   3.785   6.629 -0.7340  0.6452  0.1951
  275MOL0     H36261   2.503   3.775   6.682 -0.1004 -0.7306  1.3349
  275MOL0     H36262   2.300   3.418   6.863 -1.3848 -0.5879  1.4168
  275MOL0     H36263   2.366   3.360   7.091  0.2774 -2.5391 -2.2642
  275MOL0     H36264   2.895   3.612   7.382  0.2998 -0.8282 -1.2845
  275MOL0     H36265   3.012   3.528   7.586 -0.0322 -0.1323  1.0863
  275MOL0     H36266   3.083   3.346   7.700 -0.8423  1.6821 -0.2475
  275MOL0     H36267   3.005   3.242   7.825  1.9740 -0.0013  1.3998
  275MOL0     H36268   3.185   3.344   7.901 -1.1292 -0.5836 -0.1633
  275MOL0     H36269   3.065   3.435   7.975 -0.0620 -1.5652  0.3057
  275MOL0     H36270   3.097   3.618   7.787 -0.3568 -2.3182 -5.1911
  275MOL0     H36271   3.237   3.521   7.738  0.0660  1.3445 -0.2147
  275MOL0     H36272   3.280   3.729   7.886 -1.6829  0.7278  1.4993
  275MOL0     H36273   3.219   3.633   8.027 -0.8938  2.8487 -0.0674
  275MOL0     H36274   3.458   3.664   8.004  0.9689  0.1071  0.6348
  275MOL0     H36275   3.479   3.578   7.851 -0.3375  0.3273 -0.8964
  275MOL0     H36276   3.435   3.378   7.928  2.4258 -1.1503  1.4689
  275MOL0     H36277   3.358   3.442   8.078  0.3953  0.9307  0.9259
  275MOL0     H36278   3.661   3.413   8.022  0.8744  0.1299  1.4916
  275MOL0     H36279   3.591   3.515   8.147  0.1705  0.0344 -0.0331
  275MOL0     H36280   3.469   3.305   8.227  1.2558  0.7505  1.7456
  275MOL0     H36281   3.644   3.300   8.213  0.2919  0.7157 -1.4111
  275MOL0     H36282   2.671   3.313   7.714 -0.3142  0.1971 -1.2805
  275MOL0     H36283   2.554   3.352   7.527 -0.0665  0.8149  1.6219
  275MOL0     H36284   2.653   3.669   7.091 -0.6790  0.7842 -0.3011
  275MOL0     H36285   2.600   3.718   6.855  0.1581  0.5114  1.6003
  275MOL0     H36286   1.390   2.721   6.000  0.1054  2.6829 -1.3429
  275MOL0     H36287   1.198   2.561   6.023  4.0495 -3.3467 -2.5377
  275MOL0     H36288   0.911   2.365   6.144 -1.0678 -0.6630  0.8501
  275MOL0     H36289   0.742   2.187   6.099 -0.3626 -0.2727 -0.7691
  275MOL0     H36290   0.608   1.952   6.478  3.2331  1.4476  0.4651
  275MOL0     H36291   0.727   1.856   6.387  0.7562 -0.6283  1.0991
  275MOL0     H36292   0.421   1.870   6.331  0.0177  1.0547  0.1287
  275MOL0     H36293   0.527   1.794   6.225 -3.3934  0.9641 -0.0140
  275MOL0     H36294   0.567   1.732   6.520  1.6736  0.3758  0.5014
  275MOL0     H36295   0.565   1.616   6.371  1.4107  2.2127 -0.5093
  275MOL0     H36296   0.342   1.730   6.539 -1.5526  1.1105 -2.0056
  275MOL0     H36297   0.309   1.633   6.396  0.3592  3.5866 -1.8602
  275MOL0     H36298   0.418   1.385   6.737 -1.2326  2.5510  2.7717
  275MOL0     H36299   0.775   2.059   6.509  1.0473  2.0244  2.2282
  275MOL0     H36300   0.954   2.234   6.554  0.0265 -0.1952  1.6109
  276MOL0     O36301   8.772   7.099   2.556 -0.1051  0.6756 -0.6064
  276MOL0     C36302   8.884   7.049   2.539 -1.1234  0.5919  0.3639
  276MOL0     O36303   8.983   7.036   2.637  0.2829  0.9509 -0.9067
  276MOL0     C36304   8.982   7.084   2.767  0.9480 -0.0530  0.2794
  276MOL0     C36305   9.086   7.052   2.855 -0.1833 -0.9640 -0.0450
  276MOL0     C36306   9.079   7.084   2.996 -0.3366  0.4308  0.2173
  276MOL0     C36307   8.973   7.152   3.050  0.7781 -0.2301  0.0597
  276MOL0     O36308   8.976   7.188   3.178 -0.4754  0.0640  0.2104
  276MOL0     C36309   8.872   7.144   3.259  0.0075  0.0698  1.0640
  276MOL0     C36310   8.917   7.109   3.403  0.5142 -0.5813  1.6138
  276MOL0     C36311   9.042   7.013   3.407  0.1866  0.0645 -0.8279
  276MOL0     C36312   9.008   6.868   3.353  0.1323 -0.8741  0.1304
  276MOL0     C36313   9.117   6.765   3.342 -0.0922 -0.5334 -0.4807
  276MOL0     C36314   9.250   6.784   3.256 -0.2178 -0.1326 -0.3685
  276MOL0     C36315   9.325   6.664   3.211 -0.5200  0.9262  0.6681
  276MOL0     C36316   9.447   6.691   3.115  0.0106  0.0809  0.0072
  276MOL0     N36317   9.410   6.747   2.982  0.6705  0.1784  0.2130
  276MOL0     C36318   9.450   6.876   2.949 -0.5702  0.4967 -0.1382
  276MOL0     C36319   9.429   6.881   2.814  0.3908 -0.0577 -0.8852
  276MOL0     C36320   9.473   6.992   2.717  0.5439  0.0546  0.1186
  276MOL0     C36321   9.499   7.127   2.775 -0.3990 -0.3325  0.6901
  276MOL0     C36322   9.519   7.226   2.661  0.6707 -0.0662  0.2239
  276MOL0     C36323   9.546   7.365   2.700 -0.0135  0.1952 -0.7179
  276MOL0     O36324   9.666   7.361   2.783 -0.8172 -0.0718 -0.0384
  276MOL0     C36325   9.752   7.458   2.735 -0.4950 -0.0923  1.1505
  276MOL0     C36326   9.875   7.439   2.675  0.3454  0.0427 -0.1606
  276MOL0     C36327   9.943   7.561   2.634 -0.8854  0.0324  0.0307
  276MOL0     C36328   9.892   7.685   2.650 -0.3585 -0.1028  0.0068
  276MOL0     C36329   9.979   7.808   2.628 -0.0971  0.0175  0.5551
  276MOL0     O36330   9.920   7.925   2.672  0.0647  0.9823  0.3199
  276MOL0     C36331   9.986   8.045   2.654  0.5901 -0.4755 -0.5767
  276MOL0     C36332   9.973   8.133   2.759 -0.9154  0.2215  0.3699
  276MOL0     C36333  10.045   8.253   2.762 -0.2459 -0.2584  0.8099
  276MOL0     C36334  10.116   8.290   2.644  0.2949  0.1112  0.2562
  276MOL0     O36335  10.178   8.407   2.658  0.1695 -0.2062 -0.3011
  276MOL0     C36336  10.193   8.484   2.534  0.6499  0.3321 -0.0998
  276MOL0     C36337  10.208   8.631   2.571  0.1477  0.1892 -0.2474
  276MOL0     C36338  10.263   8.726   2.465 -0.0075 -0.1087  0.5305
  276MOL0     C36339  10.249   8.875   2.514 -0.5490 -0.1284 -0.0908
  276MOL0     C36340  10.309   8.973   2.411 -0.6034  0.1287  0.5427
  276MOL0     C36341  10.464   8.974   2.416  0.1178  0.3661 -0.2958
  276MOL0     C36342  10.518   9.061   2.294  0.6164 -0.4645  0.0241
  276MOL0     C36343  10.659   9.092   2.311 -0.9694  0.0913 -0.5356
  276MOL0    Cl36344  10.715   9.128   2.139 -0.0023 -0.1169  0.5244
  276MOL0     C36345  10.118   8.203   2.533  0.1243  0.8594  0.1120
  276MOL0     C36346  10.060   8.077   2.545  0.0525  0.4402  0.2634
  276MOL0     O36347  10.095   7.789   2.589 -0.4114 -0.2787  0.2914
  276MOL0     C36348   9.764   7.703   2.714  0.8444 -0.2783 -0.2141
  276MOL0     C36349   9.696   7.587   2.745  0.1748  0.1738  0.5704
  276MOL0     N36350   9.362   6.764   2.775  0.1138 -0.8119 -0.6040
  276MOL0     N36351   9.345   6.685   2.874 -0.4798  0.5686 -0.6186
  276MOL0     C36352   8.867   7.185   2.962  0.3065 -0.8191 -1.1194
  276MOL0     C36353   8.875   7.150   2.827 -0.4456 -1.5506  0.3023
  276MOL0     C36354   8.911   7.022   2.392  0.3019 -0.2663 -0.9057
  276MOL0     C36355   8.998   6.914   2.362  1.0347 -0.8315 -0.2652
  276MOL0     C36356   9.016   6.873   2.230 -0.6824 -0.0375 -0.4584
  276MOL0     C36357   8.951   6.941   2.119 -0.4897  0.5288 -0.7189
  276MOL0     O36358   8.967   6.904   1.986  0.2275  0.4291 -0.2477
  276MOL0     C36359   8.998   6.772   1.962 -0.7081  0.0947 -0.6595
  276MOL0     C36360   8.972   6.743   1.812  0.7520  0.1233 -0.5004
  276MOL0     C36361   9.081   6.652   1.743 -0.2232 -0.0338 -0.5267
  276MOL0     C36362   9.159   6.738   1.641 -0.2949  0.0671  0.4421
  276MOL0     C36363   9.260   6.825   1.692  0.5461  0.3684 -0.0381
  276MOL0     C36364   9.354   6.882   1.741 -0.6692 -0.9480  0.0767
  276MOL0     C36365   8.869   7.048   2.152 -0.1477  0.0436 -0.0643
  276MOL0     C36366   8.853   7.089   2.288 -0.1120  0.3335  0.6380
  276MOL0     H36367   9.172   6.989   2.832  1.6590  1.9254 -1.7661
  276MOL0     H36368   9.160   7.055   3.061 -0.8954  0.0353  0.7495
  276MOL0     H36369   8.824   7.055   3.216  0.1657  0.1559  0.7018
  276MOL0     H36370   8.801   7.226   3.274 -1.7073 -1.9214  5.1863
  276MOL0     H36371   8.834   7.075   3.465 -1.1328  0.6505  0.1918
  276MOL0     H36372   8.932   7.209   3.445 -0.1394 -0.5136  1.6846
  276MOL0     H36373   9.064   6.994   3.513 -1.7664 -3.1325 -0.8563
  276MOL0     H36374   9.128   7.049   3.351  0.7837 -2.5814 -1.7869
  276MOL0     H36375   8.930   6.836   3.422  1.7164 -0.4098  2.2531
  276MOL0     H36376   8.973   6.881   3.250 -0.2064 -2.7782 -0.0412
  276MOL0     H36377   9.064   6.682   3.293  1.6734 -1.8812 -0.2123
  276MOL0     H36378   9.148   6.743   3.444  0.5354 -0.5962 -0.6804
  276MOL0     H36379   9.322   6.844   3.312 -0.1446  1.2154 -1.8340
  276MOL0     H36380   9.230   6.845   3.168 -1.0627 -0.3984 -0.3722
  276MOL0     H36381   9.352   6.603   3.298  0.2378  0.0951 -0.1135
  276MOL0     H36382   9.262   6.598   3.150  0.6228  1.3800 -1.0932
  276MOL0     H36383   9.475   6.586   3.107 -0.2149 -0.0436  0.8135
  276MOL0     H36384   9.534   6.744   3.156  2.2841 -3.0925 -0.3332
  276MOL0     H36385   9.489   6.951   3.017 -1.0621 -0.4003  1.1618
  276MOL0     H36386   9.399   6.988   2.637 -0.3843  0.1346  0.9425
  276MOL0     H36387   9.566   6.956   2.673  1.0276 -2.4593  2.8734
  276MOL0     H36388   9.600   7.127   2.817  0.4110  1.5506 -1.0812
  276MOL0     H36389   9.417   7.145   2.845 -2.3155  0.3614 -1.5875
  276MOL0     H36390   9.607   7.197   2.603  2.5776  0.6214  2.6158
  276MOL0     H36391   9.423   7.231   2.608 -1.0947  1.9460  3.3074
  276MOL0     H36392   9.459   7.406   2.752 -1.6350 -1.2189 -2.1842
  276MOL0     H36393   9.557   7.422   2.607 -0.6619  2.2748  0.4159
  276MOL0     H36394   9.904   7.339   2.645  0.3720  0.4198 -1.4462
  276MOL0     H36395  10.046   7.539   2.608 -1.2175 -0.1949 -1.1793
  276MOL0     H36396   9.921   8.091   2.844 -0.4027 -1.5180 -0.1262
  276MOL0     H36397  10.048   8.318   2.850  0.0791  0.8768 -0.0170
  276MOL0     H36398  10.117   8.455   2.461  1.0373 -3.5630  0.8113
  276MOL0     H36399  10.293   8.460   2.495  0.8951 -0.8036  1.1433
  276MOL0     H36400  10.265   8.642   2.663 -0.4134  0.6468  0.0519
  276MOL0     H36401  10.109   8.671   2.598  1.0796  3.1380 -0.8565
  276MOL0     H36402  10.212   8.708   2.369  0.8964 -1.6210  0.3167
  276MOL0     H36403  10.368   8.710   2.440  1.0383  2.1192  3.0149
  276MOL0     H36404  10.144   8.897   2.535 -0.0232  0.4179  2.3196
  276MOL0     H36405  10.296   8.888   2.612 -0.0423  0.8880 -0.4545
  276MOL0     H36406  10.278   9.078   2.406 -0.6046  0.1639  1.2815
  276MOL0     H36407  10.287   8.927   2.314  2.5172  1.2656 -0.8611
  276MOL0     H36408  10.509   8.875   2.412 -0.5100  0.1243 -1.8304
  276MOL0     H36409  10.503   9.029   2.503 -0.4989  1.7920 -0.8797
  276MOL0     H36410  10.499   8.997   2.207  1.3560  0.0582 -0.5342
  276MOL0     H36411  10.464   9.156   2.290  1.5725  0.2922  2.8839
  276MOL0     H36412  10.710   9.000   2.342 -0.7235  0.6968  0.9500
  276MOL0     H36413  10.680   9.174   2.380  1.9335  1.6532 -3.0101
  276MOL0     H36414  10.171   8.233   2.443  1.6824 -0.4318  0.5475
  276MOL0     H36415  10.058   8.018   2.453  3.1003 -1.2648  1.1501
  276MOL0     H36416   9.721   7.801   2.733  0.8876 -0.2900 -0.0582
  276MOL0     H36417   9.594   7.604   2.778 -1.1864 -3.1847 -1.4026
  276MOL0     H36418   8.781   7.244   2.993  1.8653  1.8502 -1.4711
  276MOL0     H36419   8.781   7.166   2.774  1.0244 -0.5639 -2.1396
  276MOL0     H36420   9.042   6.861   2.445  2.2650  3.2487  1.9741
  276MOL0     H36421   9.076   6.787   2.201 -0.0820  0.2953 -0.2103
  276MOL0     H36422   8.950   6.699   2.028  0.3642 -1.2450 -1.3073
  276MOL0     H36423   9.106   6.765   1.978 -0.9295  0.4428  1.2111
  276MOL0     H36424   8.879   6.687   1.811  0.9791 -0.2653 -2.0897
  276MOL0     H36425   8.943   6.837   1.763  3.4968  1.4892  0.2865
  276MOL0     H36426   9.032   6.570   1.690 -0.5264 -0.0957 -0.1486
  276MOL0     H36427   9.154   6.618   1.817  0.4675  3.7604  0.7490
  276MOL0     H36428   9.192   6.678   1.556 -1.8770 -0.7085  0.3434
  276MOL0     H36429   9.093   6.813   1.597 -1.3552 -2.6714 -3.0775
  276MOL0     H36430   9.443   6.933   1.770 -1.2396  0.5478 -0.7200
  276MOL0     H36431   8.820   7.097   2.069 -0.7587 -2.1355 -1.0619
  276MOL0     H36432   8.793   7.178   2.307 -1.2563 -1.2306  5.9128
  277MOL0     O36433   1.799   9.884   1.846  0.2699  0.0423 -0.0732
  277MOL0     C36434   1.893   9.841   1.782  0.6957 -0.1473  1.2480
  277MOL0     O36435   1.917   9.713   1.733  0.6587 -0.4403  0.1822
  277MOL0     C36436   1.853   9.609   1.796  0.2660 -0.9309 -0.1882
  277MOL0     C36437   1.849   9.587   1.938  0.4055 -0.2520  0.4019
  277MOL0     C36438   1.782   9.488   2.001  0.7127  0.3016  0.6411
  277MOL0     C36439   1.713   9.395   1.920 -0.4080  0.6497 -0.7576
  277MOL0     O36440   1.649   9.288   1.976  0.4854  0.5523  0.1593
  277MOL0     C36441   1.544   9.316   2.075  0.1679 -0.2613  0.3328
  277MOL0     C36442   1.428   9.218   2.065 -0.1339 -0.0958  1.5991
  277MOL0     C36443   1.298   9.268   2.146  0.3361  1.1066  0.9565
  277MOL0     C36444   1.319   9.254   2.289  0.7305  1.1719 -0.4017
  277MOL0     C36445   1.194   9.243   2.379  0.4757  0.1776 -0.6141
  277MOL0     C36446   1.228   9.198   2.523  0.5931  0.7071 -0.0824
  277MOL0     C36447   1.119   9.139   2.608 -0.2071  0.2781  0.9159
  277MOL0     C36448   1.179   9.045   2.709 -0.7320  0.8441 -0.0371
  277MOL0     N36449   1.277   9.105   2.806  2.0746  0.6294 -0.2714
  277MOL0     C36450   1.258   9.190   2.916 -0.1448 -0.0466  0.0218
  277MOL0     C36451   1.382   9.194   2.975  0.2759 -0.9690 -0.2554
  277MOL0     C36452   1.447   9.267   3.092  0.2129 -0.6022 -0.3184
  277MOL0     C36453   1.393   9.208   3.220 -0.7351  0.5273 -0.0171
  277MOL0     C36454   1.380   9.311   3.336 -0.0094 -0.4589  0.0159
  277MOL0     C36455   1.349   9.247   3.466  0.1338  0.0974  0.3576
  277MOL0     O36456   1.346   9.337   3.574  0.3389  0.2862 -0.4413
  277MOL0     C36457   1.222   9.385   3.610  0.2270  0.9328  0.4510
  277MOL0     C36458   1.220   9.429   3.743  0.2846 -0.5012 -0.1908
  277MOL0     C36459   1.097   9.460   3.809  0.0233 -0.1437  0.0537
  277MOL0     C36460   0.983   9.462   3.731  0.4410  0.7563 -0.3089
  277MOL0     C36461   0.857   9.512   3.795  0.3005 -0.0019 -0.2817
  277MOL0     O36462   0.852   9.530   3.934 -0.0535  1.2504 -0.5546
  277MOL0     C36463   0.738   9.564   3.996 -0.4010 -0.9634 -0.0594
  277MOL0     C36464   0.705   9.493   4.118  0.5436  0.2856  0.4571
  277MOL0     C36465   0.582   9.512   4.179 -0.5881 -0.3059 -0.6804
  277MOL0     C36466   0.503   9.622   4.144  0.3855  0.5635 -1.3386
  277MOL0     O36467   0.395   9.667   4.221 -0.0485  0.2819  0.2475
  277MOL0     C36468   0.324   9.570   4.306 -1.0045  1.1720  0.2283
  277MOL0     C36469   0.182   9.615   4.332 -0.2147  0.4377  0.5420
  277MOL0     C36470   0.101   9.525   4.428 -1.0076 -0.2182 -0.0243
  277MOL0     C36471  -0.016   9.599   4.486 -0.1466  0.0404 -0.2912
  277MOL0     C36472  -0.100   9.513   4.581  0.5311 -0.0782 -0.4475
  277MOL0     C36473  -0.171   9.395   4.524 -0.8597 -0.6685  1.6437
  277MOL0     C36474  -0.288   9.350   4.595  0.6775  0.2017  0.8626
  277MOL0     C36475  -0.385   9.275   4.507  0.3528  0.6030  0.2762
  277MOL0    Cl36476  -0.450   9.400   4.388  0.1269  0.2699 -0.5131
  277MOL0     C36477   0.539   9.690   4.032 -0.2965 -0.0521  0.0025
  277MOL0     C36478   0.645   9.658   3.952 -0.6944  0.8152 -0.8016
  277MOL0     O36479   0.765   9.526   3.713 -0.2948 -0.1619 -0.6100
  277MOL0     C36480   0.984   9.420   3.598 -0.3996 -0.4025 -0.3328
  277MOL0     C36481   1.100   9.390   3.537 -0.3432  0.6296  0.9761
  277MOL0     N36482   1.477   9.125   2.893 -0.5074  0.2839  0.2070
  277MOL0     N36483   1.406   9.072   2.799 -0.2124  0.9542 -0.4766
  277MOL0     C36484   1.727   9.397   1.783 -0.1160 -0.5967  0.4310
  277MOL0     C36485   1.808   9.502   1.722 -0.9463 -0.2335 -0.2684
  277MOL0     C36486   2.007   9.935   1.754  0.0640  0.9707 -0.5573
  277MOL0     C36487   1.983  10.071   1.741 -0.8158 -0.3224 -0.5171
  277MOL0     C36488   2.088  10.153   1.700 -0.3242  0.5098 -0.1255
  277MOL0     C36489   2.224  10.115   1.685  0.5917 -0.3087  0.1843
  277MOL0     O36490   2.326  10.196   1.661  0.6295 -0.0789 -0.2714
  277MOL0     C36491   2.308  10.300   1.561  0.7787  0.0484 -0.5262
  277MOL0     C36492   2.297  10.429   1.641 -0.0545 -0.6307  0.8497
  277MOL0     C36493   2.416  10.445   1.736 -0.1237 -0.2262  0.1196
  277MOL0     C36494   2.423  10.581   1.790  0.3091 -0.5219  0.4655
  277MOL0     C36495   2.546  10.600   1.865  0.9110  0.8455 -0.4287
  277MOL0     C36496   2.625  10.615   1.951 -1.2378  0.5287  0.2682
  277MOL0     C36497   2.242   9.974   1.698 -0.4639  0.0855  0.1603
  277MOL0     C36498   2.138   9.884   1.739  0.1713 -0.2983  0.0947
  277MOL0     H36499   1.901   9.656   2.004 -0.6338  2.3036 -1.3021
  277MOL0     H36500   1.769   9.480   2.108  1.1667  0.6562  0.7231
  277MOL0     H36501   1.501   9.416   2.067 -0.1772 -0.2554  1.9845
  277MOL0     H36502   1.598   9.310   2.169  2.4661  0.2136 -0.8852
  277MOL0     H36503   1.453   9.117   2.098  0.4560 -0.6553 -0.3854
  277MOL0     H36504   1.418   9.203   1.957 -0.6327 -1.2673  1.7931
  277MOL0     H36505   1.210   9.209   2.121  2.7924 -2.4993 -0.0180
  277MOL0     H36506   1.271   9.371   2.118 -0.2122  0.7524  0.1594
  277MOL0     H36507   1.375   9.164   2.314 -2.5055 -1.4641 -1.8320
  277MOL0     H36508   1.381   9.336   2.327 -1.1493  1.9912  1.0430
  277MOL0     H36509   1.121   9.182   2.325 -2.4823  4.2710 -1.7260
  277MOL0     H36510   1.144   9.338   2.401  1.6179  0.2040  2.3695
  277MOL0     H36511   1.270   9.277   2.587 -0.0819 -0.8567  2.4280
  277MOL0     H36512   1.292   9.111   2.505  0.2893  0.5793 -0.5410
  277MOL0     H36513   1.078   9.229   2.654 -1.8585  0.4093 -0.6862
  277MOL0     H36514   1.047   9.098   2.536  1.0324  1.3531 -1.0107
  277MOL0     H36515   1.209   8.960   2.647 -2.6171  0.0551  0.0554
  277MOL0     H36516   1.092   9.009   2.765 -0.9546  2.3821  0.6378
  277MOL0     H36517   1.174   9.238   2.965  0.7791  0.8126  0.7838
  277MOL0     H36518   1.419   9.373   3.098  3.7562  0.4535  0.1887
  277MOL0     H36519   1.553   9.242   3.092  0.2393 -0.5097 -0.9194
  277MOL0     H36520   1.450   9.120   3.252 -3.2765 -0.2579  2.8625
  277MOL0     H36521   1.292   9.176   3.196  0.4541 -0.6039 -4.3015
  277MOL0     H36522   1.472   9.369   3.350  1.0119 -2.2265  0.9770
  277MOL0     H36523   1.302   9.385   3.318  0.5656  0.4312  1.0026
  277MOL0     H36524   1.427   9.171   3.476 -0.7093 -1.2303 -2.2765
  277MOL0     H36525   1.255   9.192   3.451  0.7074 -1.3179  1.6686
  277MOL0     H36526   1.311   9.416   3.801  0.0681  1.9009  0.8127
  277MOL0     H36527   1.089   9.493   3.912 -0.3504  2.7265 -0.8066
  277MOL0     H36528   0.777   9.426   4.164  0.6911 -1.6579 -2.3496
  277MOL0     H36529   0.542   9.449   4.258  0.2736 -4.9224 -3.5691
  277MOL0     H36530   0.374   9.565   4.403  4.2888  0.2439 -2.1942
  277MOL0     H36531   0.308   9.477   4.251 -0.1647  1.1979 -0.0701
  277MOL0     H36532   0.119   9.626   4.243 -2.7738  3.7227  2.5424
  277MOL0     H36533   0.196   9.712   4.380 -2.9720  0.2900  1.8508
  277MOL0     H36534   0.179   9.512   4.504  1.4414  1.4373 -2.0836
  277MOL0     H36535   0.080   9.426   4.389  1.4715 -0.3136 -1.3545
  277MOL0     H36536   0.013   9.691   4.538  0.4755 -0.3886  0.1421
  277MOL0     H36537  -0.085   9.636   4.410 -0.1557  0.1147 -0.2470
  277MOL0     H36538  -0.183   9.577   4.612  1.0937  0.4490 -0.0100
  277MOL0     H36539  -0.047   9.485   4.673 -0.8050 -3.0032 -0.4447
  277MOL0     H36540  -0.091   9.321   4.515 -1.8276 -1.4678 -1.6845
  277MOL0     H36541  -0.191   9.434   4.424 -1.8373  1.1395  2.4833
  277MOL0     H36542  -0.257   9.278   4.671  1.9121  1.1316  1.2670
  277MOL0     H36543  -0.350   9.431   4.633 -2.2838 -1.8419  0.7674
  277MOL0     H36544  -0.464   9.226   4.563  1.8486  0.3842  2.3141
  277MOL0     H36545  -0.328   9.204   4.447  0.3222  1.4781 -0.8216
  277MOL0     H36546   0.490   9.777   3.990  0.3330  1.0209  1.4207
  277MOL0     H36547   0.662   9.705   3.855  1.7476 -2.5965 -2.2369
  277MOL0     H36548   0.890   9.424   3.543 -0.8507 -1.5375  0.3092
  277MOL0     H36549   1.094   9.347   3.437  1.7301  1.9810  0.2009
  277MOL0     H36550   1.683   9.317   1.725  0.3688 -2.9355  3.0751
  277MOL0     H36551   1.832   9.493   1.617  0.0545  0.3788 -0.0966
  277MOL0     H36552   1.884  10.115   1.747 -1.7509 -2.3044 -0.2761
  277MOL0     H36553   2.059  10.257   1.689 -0.6694  0.5296  0.8551
  277MOL0     H36554   2.238  10.264   1.484  1.0245  0.1254 -0.7882
  277MOL0     H36555   2.405  10.297   1.510 -0.8898  0.3154 -4.0439
  277MOL0     H36556   2.308  10.511   1.569  3.0184  1.2444  3.2348
  277MOL0     H36557   2.206  10.429   1.702 -0.7005  1.5794 -0.0277
  277MOL0     H36558   2.512  10.428   1.686 -1.4250 -1.8138 -1.9528
  277MOL0     H36559   2.397  10.373   1.817  0.6057  1.0373  1.4743
  277MOL0     H36560   2.425  10.646   1.702  1.0581 -1.6920 -0.3953
  277MOL0     H36561   2.350  10.614   1.865  1.4203  3.2443  0.1248
  277MOL0     H36562   2.685  10.655   2.030  0.9306 -0.4337 -0.7939
  277MOL0     H36563   2.342   9.934   1.682 -1.4896 -2.2190 -0.8438
  277MOL0     H36564   2.169   9.781   1.757  0.9925  0.1497  1.4526
  278MOL0     O36565   0.169   3.801   3.161  0.5570 -0.5892 -0.0727
  278MOL0     C36566   0.164   3.864   3.264  1.1936 -0.8804 -0.5848
  278MOL0     O36567   0.276   3.922   3.330 -0.2304 -0.1840 -0.2470
  278MOL0     C36568   0.407   3.912   3.269 -0.5914  0.5053 -0.4634
  278MOL0     C36569   0.456   3.795   3.213  0.1330  0.4420 -0.1670
  278MOL0     C36570   0.590   3.796   3.163 -0.4444  0.8205 -0.6601
  278MOL0     C36571   0.671   3.917   3.168 -0.9390  0.5786 -0.9945
  278MOL0     O36572   0.792   3.906   3.106 -0.4803  0.3651  0.3582
  278MOL0     C36573   0.862   4.013   3.036  0.2542  0.5542  0.6031
  278MOL0     C36574   0.993   3.943   3.002  0.6829 -0.4785 -0.1305
  278MOL0     C36575   1.099   4.012   2.914  1.0168 -0.4144 -0.2870
  278MOL0     C36576   1.157   4.123   2.998  0.2461 -0.4963  0.2916
  278MOL0     C36577   1.263   4.192   2.924  0.2517  0.0560  0.6940
  278MOL0     C36578   1.203   4.315   2.845  0.2187 -0.0727  0.4639
  278MOL0     C36579   1.302   4.334   2.724  0.6988 -0.8088 -0.7310
  278MOL0     C36580   1.276   4.449   2.625 -0.8027 -0.1485 -0.7855
  278MOL0     N36581   1.379   4.431   2.525 -0.6854 -0.3028  1.0393
  278MOL0     C36582   1.352   4.435   2.396 -0.4079  0.5564  0.2480
  278MOL0     C36583   1.467   4.416   2.321 -0.5507  0.5886 -0.5204
  278MOL0     C36584   1.481   4.422   2.172  1.0055  0.1104  0.8756
  278MOL0     C36585   1.462   4.292   2.108  0.5377  0.1630  0.2480
  278MOL0     C36586   1.467   4.298   1.953  0.0863  0.5189 -0.2544
  278MOL0     C36587   1.441   4.157   1.904  0.0892 -1.1965  0.7924
  278MOL0     O36588   1.470   4.162   1.767 -0.3384 -0.5837 -0.3496
  278MOL0     C36589   1.469   4.047   1.697 -0.1253 -0.4563 -0.2607
  278MOL0     C36590   1.554   4.028   1.593  0.6286 -0.7929  0.4657
  278MOL0     C36591   1.552   3.911   1.505  0.3992  0.0796 -0.3849
  278MOL0     C36592   1.458   3.812   1.539  0.5987  0.0976  0.9588
  278MOL0     C36593   1.460   3.680   1.465 -0.1322 -0.4650  0.0015
  278MOL0     O36594   1.374   3.577   1.498  0.8880  0.5087 -0.0049
  278MOL0     C36595   1.373   3.449   1.452  0.6844 -0.1355  0.5106
  278MOL0     C36596   1.315   3.357   1.529  0.6811  0.1241 -0.9243
  278MOL0     C36597   1.309   3.224   1.496  0.3765  0.2815  0.0643
  278MOL0     C36598   1.376   3.178   1.385  0.0972  0.1251 -0.0566
  278MOL0     O36599   1.368   3.041   1.367  0.3245 -0.1620 -0.2155
  278MOL0     C36600   1.489   2.991   1.314 -0.5023 -0.9953 -0.5894
  278MOL0     C36601   1.496   2.837   1.344  0.0121  1.0372  0.5218
  278MOL0     C36602   1.587   2.756   1.255 -0.1622 -0.6701  0.2025
  278MOL0     C36603   1.729   2.808   1.268  0.1737 -0.5341 -0.0404
  278MOL0     C36604   1.820   2.710   1.204 -0.7290  0.4783 -0.2622
  278MOL0     C36605   1.967   2.759   1.195 -0.8856 -0.5414  0.0495
  278MOL0     C36606   2.040   2.637   1.129  0.6217 -0.8259  0.0482
  278MOL0     C36607   2.125   2.670   1.011  0.5731 -0.2667 -0.2001
  278MOL0    Cl36608   2.026   2.716   0.869  0.4316 -0.3404  0.1945
  278MOL0     C36609   1.443   3.269   1.302 -0.7238  0.0359 -0.1719
  278MOL0     C36610   1.445   3.408   1.333 -0.2919 -0.0770 -0.2288
  278MOL0     O36611   1.541   3.679   1.376  0.3585  0.0234 -0.1081
  278MOL0     C36612   1.366   3.830   1.640  0.0977  0.5095  0.1020
  278MOL0     C36613   1.374   3.949   1.711  1.2322  0.1418 -0.3125
  278MOL0     N36614   1.567   4.389   2.422 -0.5155 -0.0791  0.2819
  278MOL0     N36615   1.510   4.396   2.540  0.0986 -0.2408  0.7232
  278MOL0     C36616   0.617   4.036   3.210  0.5848  0.5349 -0.7356
  278MOL0     C36617   0.486   4.031   3.262 -0.5166  0.8003 -0.1483
  278MOL0     C36618   0.035   3.907   3.316  0.5049  1.1552 -0.2493
  278MOL0     C36619  -0.082   3.850   3.253  0.0334  0.3693  0.2025
  278MOL0     C36620  -0.207   3.864   3.314  0.5074  0.2556 -0.3685
  278MOL0     C36621  -0.228   3.945   3.425 -0.2767 -1.0024  1.3096
  278MOL0     O36622  -0.344   3.986   3.479 -0.2398  0.1832  0.1375
  278MOL0     C36623  -0.439   4.012   3.374  0.9251  1.4630 -0.3924
  278MOL0     C36624  -0.535   3.894   3.369 -0.4050 -0.5229 -0.1711
  278MOL0     C36625  -0.639   3.916   3.257  1.0586  0.0503  0.3633
  278MOL0     C36626  -0.801   3.899   3.286 -1.2717  0.3051 -0.1404
  278MOL0     C36627  -0.849   3.983   3.396 -0.2674  0.3018  0.0353
  278MOL0     C36628  -0.895   4.055   3.484  0.2348 -0.2791  0.8828
  278MOL0     C36629  -0.117   4.006   3.480 -0.2626  0.1215 -0.1561
  278MOL0     C36630   0.013   3.989   3.426 -0.5204  1.2091 -0.7359
  278MOL0     H36631   0.386   3.711   3.213  0.3015  0.2983  0.1922
  278MOL0     H36632   0.623   3.704   3.117 -0.6922 -0.1340  0.9972
  278MOL0     H36633   0.883   4.093   3.107  3.9729 -3.0546  4.1385
  278MOL0     H36634   0.806   4.037   2.946  1.2937  0.0335 -0.1975
  278MOL0     H36635   0.973   3.845   2.957 -1.1886 -0.3042  0.2196
  278MOL0     H36636   1.041   3.919   3.098 -2.5765 -0.0025  1.7954
  278MOL0     H36637   1.041   4.052   2.830 -0.1461 -2.2248 -0.4174
  278MOL0     H36638   1.172   3.936   2.882 -0.7433 -2.0436 -0.6418
  278MOL0     H36639   1.083   4.197   3.031 -1.5747 -0.5607 -3.1960
  278MOL0     H36640   1.203   4.089   3.092  2.8840  1.2243 -0.2822
  278MOL0     H36641   1.313   4.110   2.872 -1.8459 -1.2400  0.5946
  278MOL0     H36642   1.323   4.224   3.010  1.5117 -4.8406  1.9479
  278MOL0     H36643   1.216   4.406   2.905  1.6773  0.0362  0.0231
  278MOL0     H36644   1.097   4.303   2.821  0.9415 -1.7404 -2.2468
  278MOL0     H36645   1.403   4.351   2.760  0.6186 -1.3411 -0.2301
  278MOL0     H36646   1.290   4.237   2.673 -3.0367 -0.9040  0.0397
  278MOL0     H36647   1.277   4.548   2.673 -1.6546 -1.5058  2.3353
  278MOL0     H36648   1.178   4.447   2.576 -0.9386  0.6125 -0.5691
  278MOL0     H36649   1.257   4.459   2.349 -0.5306  0.4585  0.4397
  278MOL0     H36650   1.582   4.459   2.152  0.6982  1.6837  2.0981
  278MOL0     H36651   1.413   4.497   2.130  1.0466 -0.0701  0.4762
  278MOL0     H36652   1.364   4.249   2.126  0.3075  0.0069 -1.2864
  278MOL0     H36653   1.540   4.220   2.135 -0.2928 -2.1594 -3.0160
  278MOL0     H36654   1.386   4.363   1.917  0.4062  2.4978  2.2677
  278MOL0     H36655   1.561   4.335   1.911  0.3219 -1.5306 -1.6550
  278MOL0     H36656   1.335   4.136   1.921  0.2061 -1.6772  0.9651
  278MOL0     H36657   1.507   4.085   1.953  0.8923 -0.9362  0.1098
  278MOL0     H36658   1.641   4.093   1.592 -0.0949  0.2361 -1.5346
  278MOL0     H36659   1.631   3.916   1.431  0.3494  1.0571 -0.3968
  278MOL0     H36660   1.260   3.399   1.613 -1.3562 -1.2841 -1.4567
  278MOL0     H36661   1.261   3.144   1.553 -1.3492  0.1844 -1.4217
  278MOL0     H36662   1.575   3.048   1.349 -0.3921 -0.0264 -2.3108
  278MOL0     H36663   1.497   3.001   1.206  3.1845 -0.5182 -0.3917
  278MOL0     H36664   1.393   2.803   1.329  0.1864  1.1035 -0.9570
  278MOL0     H36665   1.518   2.823   1.450 -1.8539 -0.5589  0.7505
  278MOL0     H36666   1.563   2.776   1.150  1.3412 -3.0491 -0.6576
  278MOL0     H36667   1.576   2.648   1.261  2.2060 -0.9433  0.2085
  278MOL0     H36668   1.731   2.904   1.214 -1.5014 -0.7569 -0.5763
  278MOL0     H36669   1.776   2.812   1.366 -2.0025  3.2403  1.0440
  278MOL0     H36670   1.791   2.688   1.101  1.0957 -1.2583 -0.4639
  278MOL0     H36671   1.816   2.618   1.262  2.7699  0.3641  0.0259
  278MOL0     H36672   2.023   2.782   1.286 -0.4145  0.3499 -0.4447
  278MOL0     H36673   1.990   2.849   1.137 -0.9301 -0.5084  0.0824
  278MOL0     H36674   2.099   2.587   1.206  0.8598 -2.9906 -1.4572
  278MOL0     H36675   1.972   2.561   1.089  1.0854 -0.6221 -1.1615
  278MOL0     H36676   2.177   2.576   0.990  0.7753  0.1669 -1.7681
  278MOL0     H36677   2.200   2.747   1.034 -0.8151  0.4619  2.1634
  278MOL0     H36678   1.497   3.229   1.216 -0.4686 -2.7606  1.1685
  278MOL0     H36679   1.500   3.473   1.265 -1.9254  1.2174 -0.3743
  278MOL0     H36680   1.281   3.767   1.665  0.1363  0.6644  0.6353
  278MOL0     H36681   1.313   3.945   1.800  1.2429 -3.7199 -0.3042
  278MOL0     H36682   0.675   4.127   3.223  0.5189  0.8735 -2.5598
  278MOL0     H36683   0.438   4.117   3.308 -2.2055 -0.9813  1.5908
  278MOL0     H36684  -0.068   3.768   3.183  1.2521 -1.8631  2.8814
  278MOL0     H36685  -0.290   3.810   3.269  1.5462  1.1395 -3.6900
  278MOL0     H36686  -0.398   4.022   3.273  0.5652  0.8373 -0.6102
  278MOL0     H36687  -0.488   4.109   3.383  0.2888  1.4090 -2.6353
  278MOL0     H36688  -0.489   3.796   3.357 -1.4451 -0.7501 -3.3057
  278MOL0     H36689  -0.588   3.900   3.465 -2.1619  0.4897 -1.1391
  278MOL0     H36690  -0.619   3.842   3.179 -4.1749 -2.3759  0.9476
  278MOL0     H36691  -0.625   4.015   3.211 -2.6806 -0.6327 -2.7934
  278MOL0     H36692  -0.850   3.940   3.198  0.3944 -1.0902 -1.8095
  278MOL0     H36693  -0.823   3.796   3.316 -0.4878  0.6536  1.7689
  278MOL0     H36694  -0.920   4.120   3.565  2.9607  1.2006  0.6715
  278MOL0     H36695  -0.122   4.061   3.573  1.6653 -0.8988  0.6125
  278MOL0     H36696   0.093   4.040   3.479  0.4707  0.6308 -1.6333
  279MOL0     O36697   3.833   6.304   9.787  0.0046  0.0616  0.0635
  279MOL0     C36698   3.787   6.202   9.841 -0.3710  0.0056  0.8770
  279MOL0     O36699   3.770   6.091   9.774  0.0204  1.3294 -0.7067
  279MOL0     C36700   3.789   6.065   9.637 -0.9809  0.6816 -0.5146
  279MOL0     C36701   3.886   6.129   9.561  0.4414  0.4653 -1.1038
  279MOL0     C36702   3.899   6.091   9.429 -0.6168 -0.1432 -0.0479
  279MOL0     C36703   3.827   5.986   9.373 -0.6361  0.5131 -0.7909
  279MOL0     O36704   3.820   5.948   9.245 -0.3836 -0.6186 -0.5269
  279MOL0     C36705   3.712   6.024   9.184  1.0871  0.0771 -0.0220
  279MOL0     C36706   3.721   6.171   9.200  0.5185 -1.1704 -0.3865
  279MOL0     C36707   3.621   6.256   9.109  0.7695  0.2142 -0.8032
  279MOL0     C36708   3.470   6.212   9.120 -0.5117 -0.8402 -1.1118
  279MOL0     C36709   3.403   6.282   9.248 -1.1550  0.0503 -0.6485
  279MOL0     C36710   3.256   6.265   9.232  0.1025 -0.6359 -0.4350
  279MOL0     C36711   3.179   6.338   9.340 -0.2198  0.3846  0.1030
  279MOL0     C36712   3.021   6.325   9.325 -0.8116  0.0471  0.4609
  279MOL0     N36713   2.954   6.391   9.441 -0.4046 -0.0762 -0.2401
  279MOL0     C36714   2.988   6.517   9.497 -1.0947 -0.5177  0.7975
  279MOL0     C36715   2.901   6.540   9.603  0.7265 -0.7614 -0.5070
  279MOL0     C36716   2.895   6.653   9.705  0.3955  0.0782  0.3572
  279MOL0     C36717   2.993   6.607   9.818 -0.5173 -0.0380 -0.5958
  279MOL0     C36718   2.959   6.666   9.955 -0.7906 -0.0687 -0.6770
  279MOL0     C36719   2.961   6.826   9.934  0.6696  0.4149 -0.2203
  279MOL0     O36720   2.955   6.893  10.069 -0.4207  0.0882  0.5840
  279MOL0     C36721   3.072   6.957  10.114 -0.1785 -0.1704 -0.3914
  279MOL0     C36722   3.093   6.927  10.247 -0.3035 -0.1997 -0.4816
  279MOL0     C36723   3.212   6.968  10.308 -0.6251  0.0999 -0.0449
  279MOL0     C36724   3.319   7.014  10.232 -0.2893 -0.2186  0.5255
  279MOL0     C36725   3.441   7.055  10.302 -0.2961  0.4062  0.4591
  279MOL0     O36726   3.548   7.113  10.227  1.0588 -0.2326 -0.3455
  279MOL0     C36727   3.670   7.153  10.284 -0.1288  0.2261  0.6096
  279MOL0     C36728   3.742   7.059  10.367  0.0010 -0.0243  0.9500
  279MOL0     C36729   3.862   7.077  10.418  0.9007  0.3595 -1.1824
  279MOL0     C36730   3.923   7.208  10.399  0.0899  0.4497  0.7557
  279MOL0     O36731   4.046   7.243  10.452 -0.6361 -0.7790  0.1472
  279MOL0     C36732   4.139   7.134  10.459 -0.0554 -0.4141  0.7168
  279MOL0     C36733   4.150   7.095  10.605 -0.3413 -0.5942  0.1018
  279MOL0     C36734   4.264   7.006  10.639 -0.1011 -0.2947  0.3076
  279MOL0     C36735   4.415   7.054  10.620 -0.3192 -0.4794  0.7328
  279MOL0     C36736   4.518   6.946  10.576 -0.4123 -1.3321  0.8019
  279MOL0     C36737   4.506   6.880  10.430  0.1658 -0.0562  0.5764
  279MOL0     C36738   4.546   6.987  10.325 -0.1208  0.3809  0.3345
  279MOL0     C36739   4.561   6.919  10.188 -0.5371  0.3677 -0.1188
  279MOL0    Cl36740   4.401   6.876  10.131 -0.4210  0.1677 -0.0055
  279MOL0     C36741   3.857   7.302  10.308 -0.0279  0.0041 -0.1320
  279MOL0     C36742   3.728   7.280  10.267 -0.0516  0.9011  1.1043
  279MOL0     O36743   3.440   7.027  10.421  0.0668  0.1820  0.5756
  279MOL0     C36744   3.288   7.058  10.100 -0.3088 -0.9798  0.4358
  279MOL0     C36745   3.157   7.042  10.045 -0.5274 -0.1717 -0.6340
  279MOL0     N36746   2.815   6.429   9.608 -0.1848 -0.3002  0.5549
  279MOL0     N36747   2.844   6.347   9.513 -0.3763 -0.1280  0.9368
  279MOL0     C36748   3.731   5.925   9.455  0.2728 -0.0029  0.2509
  279MOL0     C36749   3.710   5.968   9.578  0.1897 -0.0777 -0.0244
  279MOL0     C36750   3.765   6.210   9.985 -0.4747  0.1478 -0.2855
  279MOL0     C36751   3.790   6.326  10.062 -1.0401 -0.9273  0.4852
  279MOL0     C36752   3.760   6.343  10.196 -0.1372  0.5288 -0.1665
  279MOL0     C36753   3.717   6.226  10.268  0.1498 -0.0107  0.6933
  279MOL0     O36754   3.669   6.239  10.396 -0.5238 -0.1694 -0.0121
  279MOL0     C36755   3.582   6.133  10.453 -0.2022  0.2700 -0.0157
  279MOL0     C36756   3.503   6.201  10.565  0.0653  0.1601  0.3752
  279MOL0     C36757   3.423   6.104  10.648 -0.5033  0.0164  0.6579
  279MOL0     C36758   3.430   6.159  10.794 -1.0360  1.2005  1.0406
  279MOL0     C36759   3.351   6.286  10.798 -0.4467 -0.4762  0.8194
  279MOL0     C36760   3.297   6.387  10.815 -0.5457  0.5039 -0.4167
  279MOL0     C36761   3.698   6.103  10.197 -0.2702 -0.0688  0.7020
  279MOL0     C36762   3.716   6.106  10.059  0.8606  0.6749 -0.8168
  279MOL0     H36763   3.957   6.200   9.602 -1.1234  2.1883 -1.2601
  279MOL0     H36764   3.975   6.132   9.363 -0.9200 -0.8457 -0.8537
  279MOL0     H36765   3.625   5.978   9.231  1.4026 -0.3421  0.1551
  279MOL0     H36766   3.709   6.006   9.076  0.7029 -0.4090  0.0683
  279MOL0     H36767   3.825   6.196   9.174  0.9198 -2.5581 -0.2103
  279MOL0     H36768   3.698   6.212   9.298 -2.1044 -0.0650 -1.3775
  279MOL0     H36769   3.647   6.253   9.003 -0.7341  0.2271 -1.1907
  279MOL0     H36770   3.633   6.360   9.140  0.4158 -0.4372  1.7705
  279MOL0     H36771   3.417   6.253   9.033  4.2708  0.1163 -3.9480
  279MOL0     H36772   3.467   6.103   9.115  2.3365 -1.0852  0.2088
  279MOL0     H36773   3.419   6.389   9.262  1.4486 -0.5643  2.3828
  279MOL0     H36774   3.435   6.227   9.337  3.6392 -1.5858 -2.9914
  279MOL0     H36775   3.231   6.159   9.219  1.8671 -1.0914 -0.3639
  279MOL0     H36776   3.237   6.327   9.144  0.1186 -1.5566 -1.1069
  279MOL0     H36777   3.212   6.294   9.434 -1.7217  1.4246  1.1626
  279MOL0     H36778   3.204   6.444   9.331 -0.6833  0.5673  0.8818
  279MOL0     H36779   2.986   6.221   9.324 -0.8950 -0.1470  4.9167
  279MOL0     H36780   3.009   6.379   9.231  1.3592 -0.3907 -0.1029
  279MOL0     H36781   3.048   6.592   9.446 -3.3719 -0.5269 -2.1833
  279MOL0     H36782   2.791   6.673   9.732 -0.2385  0.2459 -2.0359
  279MOL0     H36783   2.928   6.749   9.664  2.8513 -1.0114 -0.4319
  279MOL0     H36784   3.095   6.634   9.786 -0.1547 -1.9798 -1.2005
  279MOL0     H36785   2.994   6.498   9.824 -1.4725 -0.0920 -1.2704
  279MOL0     H36786   2.856   6.641   9.982 -1.1556  0.7628 -1.2454
  279MOL0     H36787   3.023   6.629  10.035 -0.8988  2.6264  0.7694
  279MOL0     H36788   2.874   6.849   9.871 -0.3437  1.0379  1.3490
  279MOL0     H36789   3.053   6.858   9.884 -0.2050 -1.6888 -3.5571
  279MOL0     H36790   3.021   6.868  10.303  0.5401 -3.1771 -2.2619
  279MOL0     H36791   3.228   6.944  10.413 -4.6903 -0.5637  0.5973
  279MOL0     H36792   3.692   6.963  10.377 -1.4694  0.2071 -2.6015
  279MOL0     H36793   3.905   6.999  10.481  0.6524 -1.1357 -2.7926
  279MOL0     H36794   4.239   7.165  10.427 -1.1969  1.4958 -1.3157
  279MOL0     H36795   4.115   7.051  10.392  2.1499 -0.5127 -0.0333
  279MOL0     H36796   4.052   7.054  10.630 -2.1121  1.4579 -2.8416
  279MOL0     H36797   4.165   7.188  10.659 -1.9441 -1.0732  1.4499
  279MOL0     H36798   4.257   6.916  10.577 -2.1639 -0.1365  0.2431
  279MOL0     H36799   4.257   6.989  10.747 -2.6122  2.5582  0.7267
  279MOL0     H36800   4.424   7.137  10.548  1.8356 -0.3686  1.0741
  279MOL0     H36801   4.458   7.103  10.708 -1.7582 -0.6625  1.5728
  279MOL0     H36802   4.529   6.870  10.654  3.8075 -1.4224  0.3586
  279MOL0     H36803   4.612   7.000  10.593  2.0591 -5.7100  2.6622
  279MOL0     H36804   4.409   6.840  10.400  0.7740  0.8746 -3.1787
  279MOL0     H36805   4.562   6.787  10.415  0.8523  0.4570 -0.1498
  279MOL0     H36806   4.471   7.064  10.313  0.2447  0.4786 -1.5909
  279MOL0     H36807   4.638   7.040  10.350  0.1234  0.1149  0.0183
  279MOL0     H36808   4.626   6.831  10.191 -3.2092 -1.7583  0.3030
  279MOL0     H36809   4.606   6.994  10.122  0.1052  0.5781  0.5549
  279MOL0     H36810   3.901   7.401  10.315 -3.4651  1.7355 -0.6415
  279MOL0     H36811   3.677   7.358  10.211 -1.8119 -2.6804 -2.8880
  279MOL0     H36812   3.358   7.111  10.035 -1.2021 -2.0238 -1.4654
  279MOL0     H36813   3.131   7.072   9.944 -1.4253  0.1586 -0.3101
  279MOL0     H36814   3.661   5.855   9.412 -0.0290 -0.0218  0.7549
  279MOL0     H36815   3.631   5.908   9.621  1.0144 -2.4947 -1.7092
  279MOL0     H36816   3.832   6.415  10.016  0.2957 -1.2137  1.1040
  279MOL0     H36817   3.778   6.441  10.241 -0.5676  0.8880 -0.7676
  279MOL0     H36818   3.652   6.059  10.493 -0.8619  0.5719  1.7695
  279MOL0     H36819   3.507   6.094  10.384  1.3925 -1.8527 -0.6473
  279MOL0     H36820   3.578   6.254  10.626 -1.1630 -0.1829  2.2583
  279MOL0     H36821   3.432   6.274  10.525 -0.4078  0.0757  1.0439
  279MOL0     H36822   3.463   6.003  10.634 -1.5556  0.0369 -4.1757
  279MOL0     H36823   3.321   6.087  10.613 -0.5110 -3.8331  2.0603
  279MOL0     H36824   3.395   6.080  10.861 -0.0102 -1.4889 -1.3889
  279MOL0     H36825   3.531   6.187  10.827  0.6205 -1.6127 -1.1088
  279MOL0     H36826   3.243   6.476  10.840  1.8892  1.4327  2.0245
  279MOL0     H36827   3.658   6.015  10.246  3.0416 -1.5065  1.0706
  279MOL0     H36828   3.707   6.009  10.010 -1.8937  0.5881 -0.2906
  280MOL0     O36829   6.774   0.520   8.015  0.2790 -0.1343 -0.2186
  280MOL0     C36830   6.698   0.434   7.996  0.0423 -0.3667  0.3418
  280MOL0     O36831   6.598   0.392   8.083  0.5266  0.6836 -0.4037
  280MOL0     C36832   6.587   0.439   8.215 -0.9360 -0.2296  0.5254
  280MOL0     C36833   6.684   0.515   8.294 -0.3519  0.8269  0.1311
  280MOL0     C36834   6.654   0.570   8.419  0.3704 -0.4638  0.3106
  280MOL0     C36835   6.530   0.534   8.479 -0.2518 -0.6710  0.7263
  280MOL0     O36836   6.499   0.584   8.603 -0.0397 -0.4776  0.4482
  280MOL0     C36837   6.523   0.722   8.628 -0.1071 -0.0022 -0.5513
  280MOL0     C36838   6.435   0.753   8.750 -0.1012 -0.7716 -0.2734
  280MOL0     C36839   6.307   0.688   8.761  0.4060  0.2083  0.5566
  280MOL0     C36840   6.229   0.747   8.877  0.0900 -0.0433 -0.4162
  280MOL0     C36841   6.098   0.685   8.894  0.4812 -0.3405  0.3441
  280MOL0     C36842   6.106   0.532   8.915 -0.8336  0.1139  0.1920
  280MOL0     C36843   5.983   0.456   8.957 -0.3312  0.2448  1.0001
  280MOL0     C36844   6.006   0.308   8.936  0.4635  1.0403 -1.0283
  280MOL0     N36845   5.887   0.253   8.873  0.3535  0.7571  0.4412
  280MOL0     C36846   5.876   0.162   8.769  0.1991  0.8185 -0.4029
  280MOL0     C36847   5.758   0.105   8.783 -0.2800  0.3287 -0.4508
  280MOL0     C36848   5.707  -0.005   8.694  0.5017  1.1510 -0.0201
  280MOL0     C36849   5.686   0.026   8.538  0.6278  0.0551 -0.3458
  280MOL0     C36850   5.553   0.100   8.517  0.4251 -0.4100  1.2184
  280MOL0     C36851   5.475   0.048   8.400 -0.9950  0.6267  0.2701
  280MOL0     O36852   5.356   0.125   8.396  0.3722  0.6185  0.1102
  280MOL0     C36853   5.246   0.094   8.314 -0.9658  0.2011 -0.2847
  280MOL0     C36854   5.140   0.163   8.351 -0.5072  0.8980 -1.3026
  280MOL0     C36855   5.017   0.136   8.279 -0.4102  0.1381 -0.5050
  280MOL0     C36856   5.009   0.043   8.177 -1.4986 -0.6633  0.0911
  280MOL0     C36857   4.887   0.031   8.096  0.3282 -0.5318 -0.4257
  280MOL0     O36858   4.886   0.001   7.961  1.2277  0.2866  0.6910
  280MOL0     C36859   4.761  -0.038   7.913 -0.2631  0.5801  0.0695
  280MOL0     C36860   4.706  -0.166   7.949  0.3865  0.0047  1.5800
  280MOL0     C36861   4.573  -0.197   7.905 -0.1598  0.9429  0.1595
  280MOL0     C36862   4.495  -0.097   7.840 -0.6474 -0.3136 -0.2836
  280MOL0     O36863   4.362  -0.133   7.812  0.2669  0.7752 -0.0349
  280MOL0     C36864   4.336  -0.162   7.674  1.2583 -0.4263  0.6095
  280MOL0     C36865   4.213  -0.076   7.623 -0.0794 -0.5230 -0.3197
  280MOL0     C36866   4.160  -0.129   7.494 -0.0528  0.3777  0.6301
  280MOL0     C36867   4.215  -0.067   7.361 -0.2872  0.3449 -0.6486
  280MOL0     C36868   4.162  -0.129   7.239  0.4850 -0.2484  0.2423
  280MOL0     C36869   4.263  -0.127   7.119  0.2135 -0.0662  0.0328
  280MOL0     C36870   4.355  -0.254   7.131  0.2992  0.2548 -0.3582
  280MOL0     C36871   4.286  -0.377   7.066 -0.1653  0.3491 -0.5195
  280MOL0    Cl36872   4.259  -0.372   6.891  0.2121  0.2376 -0.3473
  280MOL0     C36873   4.549   0.028   7.808 -1.0600 -0.3451 -0.4743
  280MOL0     C36874   4.678   0.056   7.851 -0.5966 -0.1297 -0.4481
  280MOL0     O36875   4.782   0.064   8.162  0.9628  0.0703 -0.6989
  280MOL0     C36876   5.122  -0.032   8.152  0.1184  0.7465  0.2709
  280MOL0     C36877   5.242  -0.006   8.215  1.1062  0.3256 -0.3696
  280MOL0     N36878   5.701   0.136   8.904  0.7079 -0.4471  0.5863
  280MOL0     N36879   5.785   0.220   8.960 -0.7301  0.6479 -0.5611
  280MOL0     C36880   6.438   0.461   8.406  0.1583 -0.5429  0.2083
  280MOL0     C36881   6.466   0.421   8.273  1.3526  0.1726  0.2082
  280MOL0     C36882   6.709   0.373   7.861 -0.5161  0.4417  0.2338
  280MOL0     C36883   6.806   0.409   7.760  1.1419  0.0354 -0.7462
  280MOL0     C36884   6.810   0.345   7.638 -0.0799  0.5624 -1.0745
  280MOL0     C36885   6.704   0.259   7.604  0.5711  0.9020  0.0314
  280MOL0     O36886   6.703   0.201   7.483  0.0551  1.1710  0.7789
  280MOL0     C36887   6.610   0.104   7.438  0.3399  0.3115  0.5722
  280MOL0     C36888   6.627  -0.041   7.470  0.5474  0.1956  0.1465
  280MOL0     C36889   6.733  -0.104   7.370 -0.3621 -0.9688 -0.4518
  280MOL0     C36890   6.801  -0.226   7.429  0.3166  0.5154  0.2156
  280MOL0     C36891   6.900  -0.193   7.537  0.5037  0.8913 -0.0909
  280MOL0     C36892   6.975  -0.155   7.625 -0.2367  0.2940 -0.6142
  280MOL0     C36893   6.611   0.222   7.699  0.3535 -0.2631 -0.5234
  280MOL0     C36894   6.612   0.270   7.829 -0.6231 -0.6837  1.0040
  280MOL0     H36895   6.784   0.526   8.253 -0.1815 -0.0852  0.2758
  280MOL0     H36896   6.729   0.623   8.476 -1.2170  3.4225 -0.8288
  280MOL0     H36897   6.479   0.778   8.545 -1.0355  0.6908  0.3884
  280MOL0     H36898   6.628   0.748   8.645  0.4517 -3.2617  2.1887
  280MOL0     H36899   6.424   0.860   8.768  0.6905 -0.9272  1.2689
  280MOL0     H36900   6.494   0.720   8.836 -0.0008  3.0327  1.2877
  280MOL0     H36901   6.325   0.581   8.752  4.7375  0.8912 -1.4699
  280MOL0     H36902   6.259   0.728   8.671  3.9912  3.6313 -0.1623
  280MOL0     H36903   6.296   0.729   8.961 -1.6766 -0.2998  1.0048
  280MOL0     H36904   6.208   0.854   8.867  2.7642  0.8146  1.7520
  280MOL0     H36905   6.039   0.716   8.807  0.9539 -1.2371 -0.3169
  280MOL0     H36906   6.047   0.719   8.984  2.0459  1.0623  0.7515
  280MOL0     H36907   6.179   0.512   8.994 -1.5656 -2.0110  0.4057
  280MOL0     H36908   6.148   0.482   8.827 -0.2804  0.6071  0.1737
  280MOL0     H36909   5.956   0.471   9.062 -3.3400 -3.2489  0.9189
  280MOL0     H36910   5.908   0.501   8.892  0.3358  3.9751  2.5490
  280MOL0     H36911   6.007   0.258   9.033  0.9238 -1.8022 -2.3876
  280MOL0     H36912   6.097   0.287   8.878  0.7447 -0.3070 -0.1442
  280MOL0     H36913   5.949   0.147   8.691  2.2329  2.1803  1.1408
  280MOL0     H36914   5.617  -0.041   8.744  1.1501 -2.2794 -0.9898
  280MOL0     H36915   5.777  -0.089   8.699 -3.3691 -2.4815 -1.0750
  280MOL0     H36916   5.680  -0.065   8.478 -4.3936  0.5064 -0.9663
  280MOL0     H36917   5.775   0.078   8.503  3.1456 -2.9838  0.9841
  280MOL0     H36918   5.483   0.096   8.601 -1.3665 -0.1493 -0.2111
  280MOL0     H36919   5.579   0.204   8.494  2.0331 -0.8359  0.9660
  280MOL0     H36920   5.448  -0.055   8.425 -0.4109  0.1500 -0.9473
  280MOL0     H36921   5.531   0.057   8.306  2.1784  0.9147  2.0785
  280MOL0     H36922   5.133   0.241   8.426  0.1512  1.3342 -1.6907
  280MOL0     H36923   4.923   0.179   8.315  0.6338  4.5860 -2.4410
  280MOL0     H36924   4.761  -0.235   8.011 -3.6038 -3.0153  2.1435
  280MOL0     H36925   4.530  -0.294   7.927  1.8902  0.0395  0.3663
  280MOL0     H36926   4.323  -0.269   7.655 -1.2120 -0.0973  0.0889
  280MOL0     H36927   4.424  -0.137   7.614 -0.1905  1.8578 -0.7258
  280MOL0     H36928   4.237   0.030   7.622 -0.0303 -0.4741  1.5743
  280MOL0     H36929   4.132  -0.099   7.694 -0.4350 -2.0337 -1.1687
  280MOL0     H36930   4.050  -0.134   7.491 -0.1354 -1.2405  3.3480
  280MOL0     H36931   4.198  -0.232   7.488  1.4595  0.8512  1.6097
  280MOL0     H36932   4.192   0.040   7.369 -1.4839 -0.0370  1.9724
  280MOL0     H36933   4.324  -0.074   7.355 -0.3090  0.9186 -5.0870
  280MOL0     H36934   4.070  -0.083   7.202  0.1146 -0.5103  0.8201
  280MOL0     H36935   4.135  -0.234   7.257  0.1672 -0.4314 -1.1419
  280MOL0     H36936   4.327  -0.039   7.127 -2.8150  2.5951 -2.2507
  280MOL0     H36937   4.215  -0.114   7.021  2.3043 -2.4737 -1.4304
  280MOL0     H36938   4.456  -0.236   7.092  0.7985 -0.1191  0.7477
  280MOL0     H36939   4.365  -0.279   7.237 -1.8628  2.6816  0.5241
  280MOL0     H36940   4.186  -0.382   7.109  0.1936 -0.1450  0.2770
  280MOL0     H36941   4.345  -0.467   7.089  1.1727  1.4678  0.6015
  280MOL0     H36942   4.502   0.109   7.752  1.3729  1.6327  0.1423
  280MOL0     H36943   4.716   0.154   7.824  1.0668 -1.2454 -2.3830
  280MOL0     H36944   5.121  -0.122   8.091  1.0802 -0.2452  1.6382
  280MOL0     H36945   5.326  -0.069   8.188 -0.3262 -1.0556 -1.8749
  280MOL0     H36946   6.354   0.425   8.463  0.4837  1.0050  1.7468
  280MOL0     H36947   6.395   0.368   8.211  2.1875 -0.6514 -0.0735
  280MOL0     H36948   6.875   0.489   7.785 -1.6641  1.1676  4.7807
  280MOL0     H36949   6.884   0.381   7.567 -1.2069 -1.4197 -3.3810
  280MOL0     H36950   6.628   0.117   7.331 -0.0791  2.5904  0.7419
  280MOL0     H36951   6.506   0.139   7.439  0.3763  0.4307  0.3123
  280MOL0     H36952   6.661  -0.052   7.574 -2.1156 -0.0781  1.0636
  280MOL0     H36953   6.526  -0.082   7.476  0.2163  1.1989  3.4262
  280MOL0     H36954   6.813  -0.041   7.329  1.3639 -2.9858 -0.3795
  280MOL0     H36955   6.667  -0.134   7.288 -1.5100  1.1982 -0.3896
  280MOL0     H36956   6.727  -0.279   7.488  2.3983 -0.4628  2.0776
  280MOL0     H36957   6.858  -0.294   7.364  3.1928  2.9082 -0.0026
  280MOL0     H36958   7.025  -0.121   7.714 -2.0297  0.8345  0.2398
  280MOL0     H36959   6.546   0.136   7.681  1.4651 -1.7393  2.0552
  280MOL0     H36960   6.532   0.228   7.888 -1.4261 -0.1187  0.3361
  281MOL0     O36961   9.418   2.866   5.113 -0.8536 -0.4504 -0.7039
  281MOL0     C36962   9.402   2.952   5.031  0.8940 -1.7895 -0.2403
  281MOL0     O36963   9.288   2.982   4.971  0.5764 -0.5414 -0.2111
  281MOL0     C36964   9.170   2.912   4.989 -0.2348 -0.1827 -0.0968
  281MOL0     C36965   9.083   2.928   4.889 -0.1782  0.4571  0.2547
  281MOL0     C36966   8.956   2.860   4.883 -0.4974  0.1281 -0.5729
  281MOL0     C36967   8.914   2.772   4.983  0.8040  0.4704  0.0483
  281MOL0     O36968   8.786   2.728   5.000  0.3917  0.6982 -0.1029
  281MOL0     C36969   8.690   2.773   4.904 -0.2525  0.1275 -0.7142
  281MOL0     C36970   8.560   2.736   4.966 -0.3628  0.1015  0.9040
  281MOL0     C36971   8.543   2.589   4.966 -0.8576 -0.3391  0.4126
  281MOL0     C36972   8.393   2.561   5.009  0.1210 -0.0556 -0.0149
  281MOL0     C36973   8.363   2.409   4.988  0.0259  0.3537  0.0801
  281MOL0     C36974   8.234   2.362   5.053  0.5345 -0.6708  0.0353
  281MOL0     C36975   8.117   2.398   4.973  0.3242 -0.3024 -0.2729
  281MOL0     C36976   8.108   2.292   4.855 -0.6563 -0.4908  0.7899
  281MOL0     N36977   7.982   2.308   4.780  0.2187 -0.0520 -0.5171
  281MOL0     C36978   7.872   2.229   4.806 -0.1861 -0.3563  0.8744
  281MOL0     C36979   7.785   2.280   4.711  0.4815  0.2368 -0.4996
  281MOL0     C36980   7.637   2.239   4.703 -0.5188 -0.5915  0.0613
  281MOL0     C36981   7.555   2.273   4.818 -0.4483  0.9703  0.0125
  281MOL0     C36982   7.558   2.428   4.855 -0.1987  0.2235 -0.3417
  281MOL0     C36983   7.581   2.451   4.998  0.4202  0.0642  0.7028
  281MOL0     O36984   7.581   2.585   5.036 -0.1672  1.2210 -0.4430
  281MOL0     C36985   7.699   2.648   5.059 -1.0321  0.6012  0.6092
  281MOL0     C36986   7.747   2.727   4.953  0.3263 -0.9797  0.1537
  281MOL0     C36987   7.869   2.788   4.961  0.9446  0.3951 -0.1571
  281MOL0     C36988   7.950   2.768   5.077  0.7691  0.8313 -0.4825
  281MOL0     C36989   8.066   2.853   5.089 -0.0055 -1.3174  0.3678
  281MOL0     O36990   8.052   2.979   5.049  0.0591  0.6457 -0.0277
  281MOL0     C36991   8.165   3.060   5.017 -0.5737 -0.4633  0.1477
  281MOL0     C36992   8.163   3.200   5.010 -0.1472 -0.2684 -0.1531
  281MOL0     C36993   8.282   3.269   4.977 -0.7199  0.5046 -0.4677
  281MOL0     C36994   8.404   3.217   4.942  1.0127  0.1882  0.0731
  281MOL0     O36995   8.509   3.307   4.918  0.8565  0.2076 -0.3182
  281MOL0     C36996   8.581   3.267   4.805 -0.5464 -1.1218 -1.4350
  281MOL0     C36997   8.727   3.308   4.823  0.5384 -0.4985 -0.1466
  281MOL0     C36998   8.798   3.264   4.698 -0.5633  1.1884  0.3998
  281MOL0     C36999   8.949   3.286   4.726 -0.9483 -0.5940  0.4168
  281MOL0     C37000   9.040   3.238   4.613 -0.5956  1.3103  0.6912
  281MOL0     C37001   9.027   3.289   4.473 -0.6682 -0.6524 -0.7633
  281MOL0     C37002   9.133   3.231   4.378 -0.5120 -0.0795 -0.4014
  281MOL0     C37003   9.130   3.286   4.241 -0.0396 -0.3891 -0.0579
  281MOL0    Cl37004   8.968   3.262   4.157  0.3575 -0.3105  0.4106
  281MOL0     C37005   8.408   3.075   4.960  0.2421 -0.5867  0.0289
  281MOL0     C37006   8.296   3.009   4.992  0.5884  0.6185 -0.3989
  281MOL0     O37007   8.159   2.821   5.164 -0.3348 -0.6105 -0.4191
  281MOL0     C37008   7.911   2.666   5.171  0.2673  0.1118  1.2618
  281MOL0     C37009   7.782   2.604   5.160  0.3650 -0.3089  0.5548
  281MOL0     N37010   7.843   2.386   4.646  0.1477  0.0838  0.3957
  281MOL0     N37011   7.965   2.398   4.682 -0.0448  0.4779 -0.4577
  281MOL0     C37012   9.011   2.747   5.090  0.2517 -0.7174 -0.5143
  281MOL0     C37013   9.132   2.827   5.095  0.2057 -0.1413  0.1744
  281MOL0     C37014   9.518   3.029   4.983 -0.0971  0.1101  0.8893
  281MOL0     C37015   9.509   3.160   4.936 -0.0348 -0.4455 -0.0893
  281MOL0     C37016   9.626   3.228   4.896  0.1060 -0.1571 -1.0023
  281MOL0     C37017   9.751   3.162   4.903  0.2028  0.1526 -1.2378
  281MOL0     O37018   9.868   3.226   4.861  0.2794 -0.1196  0.3843
  281MOL0     C37019   9.875   3.363   4.802 -0.1536 -0.8148  1.0165
  281MOL0     C37020   9.790   3.390   4.672 -0.9747 -0.0108 -0.3012
  281MOL0     C37021   9.869   3.376   4.537  0.2602 -0.2146 -0.9473
  281MOL0     C37022   9.958   3.489   4.501  0.0372  0.0465 -0.3636
  281MOL0     C37023  10.084   3.489   4.581  0.4228 -0.6481  0.0532
  281MOL0     C37024  10.194   3.506   4.632  0.1974 -0.3921  0.1054
  281MOL0     C37025   9.762   3.034   4.947  0.9436 -0.0955  0.7086
  281MOL0     C37026   9.644   2.976   4.984  0.7654  0.1868 -0.6995
  281MOL0     H37027   9.093   2.992   4.802 -1.3679  0.5326  0.1612
  281MOL0     H37028   8.887   2.877   4.801 -3.6542  1.1383  2.0667
  281MOL0     H37029   8.701   2.732   4.803 -0.5147 -1.3765 -0.1543
  281MOL0     H37030   8.692   2.882   4.889 -1.8356  0.3457  0.5245
  281MOL0     H37031   8.481   2.782   4.907  0.7540 -0.0967 -0.8448
  281MOL0     H37032   8.554   2.780   5.066  4.4054  2.0599  0.6161
  281MOL0     H37033   8.614   2.541   5.033 -1.9440  1.5644  3.1235
  281MOL0     H37034   8.569   2.551   4.866 -1.3148 -0.8984  0.4999
  281MOL0     H37035   8.385   2.597   5.112  3.4711  0.0852  0.3128
  281MOL0     H37036   8.329   2.619   4.942 -2.3020 -2.6680 -0.1177
  281MOL0     H37037   8.446   2.368   5.047  1.0652  3.4021  0.8970
  281MOL0     H37038   8.365   2.377   4.883 -0.8224 -0.6110  0.3382
  281MOL0     H37039   8.225   2.414   5.149  1.2690 -0.2316 -0.1259
  281MOL0     H37040   8.231   2.258   5.086 -3.2346 -0.2072  1.6250
  281MOL0     H37041   8.028   2.380   5.035  0.5455  0.1670  0.1894
  281MOL0     H37042   8.116   2.503   4.943 -0.0727 -0.8784 -2.3822
  281MOL0     H37043   8.121   2.190   4.892  2.2649 -0.6059 -0.2789
  281MOL0     H37044   8.191   2.311   4.785 -0.4370  2.1591  1.6512
  281MOL0     H37045   7.853   2.159   4.887 -1.6426 -1.3382 -0.2722
  281MOL0     H37046   7.629   2.131   4.714 -3.5914 -0.4948 -0.4399
  281MOL0     H37047   7.608   2.268   4.601  0.9078  0.6332 -0.0369
  281MOL0     H37048   7.582   2.211   4.904  0.1076  1.0067 -0.1350
  281MOL0     H37049   7.450   2.247   4.796 -0.5620  1.8651 -0.5692
  281MOL0     H37050   7.645   2.476   4.811 -1.1433  2.2841 -0.0607
  281MOL0     H37051   7.465   2.473   4.818 -0.0367 -1.8992 -3.7988
  281MOL0     H37052   7.678   2.414   5.032  0.0753 -0.8547  0.7045
  281MOL0     H37053   7.501   2.400   5.052  0.2827 -0.3812  0.1026
  281MOL0     H37054   7.678   2.733   4.869 -1.6122  0.7370  1.7540
  281MOL0     H37055   7.903   2.857   4.885 -1.9558  2.1945  0.0390
  281MOL0     H37056   8.083   3.274   5.016 -0.9822 -1.1451 -0.3010
  281MOL0     H37057   8.295   3.376   4.984  1.6609  0.4352 -2.3598
  281MOL0     H37058   8.538   3.317   4.718  1.4520  1.1428 -1.2213
  281MOL0     H37059   8.578   3.158   4.792 -3.2115 -1.5691  1.5872
  281MOL0     H37060   8.767   3.253   4.910  0.3728 -2.4387 -1.2290
  281MOL0     H37061   8.742   3.413   4.846  0.0024 -0.5225  0.3328
  281MOL0     H37062   8.783   3.327   4.610  1.4471  1.4693  0.1957
  281MOL0     H37063   8.785   3.157   4.681 -1.8366  0.8567  3.0063
  281MOL0     H37064   8.972   3.390   4.753 -2.7452  0.1437 -0.7390
  281MOL0     H37065   8.971   3.216   4.808  1.0986 -1.3794 -0.7099
  281MOL0     H37066   9.026   3.130   4.603  0.5774  1.0932  1.2616
  281MOL0     H37067   9.145   3.256   4.636 -0.0654  1.3673 -1.5560
  281MOL0     H37068   9.034   3.398   4.486  0.6356 -1.0067  2.5902
  281MOL0     H37069   8.920   3.279   4.455 -1.6110  4.0810  0.7948
  281MOL0     H37070   9.238   3.237   4.406 -0.9466 -0.8462  1.5065
  281MOL0     H37071   9.108   3.125   4.368 -1.4607 -0.3667  3.6438
  281MOL0     H37072   9.216   3.247   4.185 -1.1788 -0.2190 -2.0351
  281MOL0     H37073   9.163   3.390   4.239  2.2988 -1.0142  1.5830
  281MOL0     H37074   8.499   3.017   4.949 -0.5273 -1.6912 -0.6731
  281MOL0     H37075   8.303   2.902   4.977  1.0393  0.4930  0.6178
  281MOL0     H37076   7.981   2.637   5.248  0.5724 -1.4221  0.4434
  281MOL0     H37077   7.751   2.511   5.207 -1.8506 -1.0592 -2.1645
  281MOL0     H37078   8.992   2.684   5.176  1.9869  0.4280  0.7587
  281MOL0     H37079   9.193   2.815   5.183 -0.9589 -0.4897  0.9463
  281MOL0     H37080   9.413   3.211   4.928  1.1235  1.6440 -2.0058
  281MOL0     H37081   9.608   3.322   4.844 -0.7643  0.8745  1.0546
  281MOL0     H37082   9.980   3.382   4.778  0.1826  0.4959  3.2473
  281MOL0     H37083   9.847   3.437   4.878  0.0713  4.4258 -3.3283
  281MOL0     H37084   9.708   3.318   4.673 -1.0177  0.0369  0.8693
  281MOL0     H37085   9.740   3.488   4.681  1.7512  1.2933  2.2380
  281MOL0     H37086   9.798   3.361   4.455 -1.0017  0.8789 -0.0949
  281MOL0     H37087   9.915   3.277   4.530 -0.1876 -0.4366 -0.8100
  281MOL0     H37088   9.987   3.486   4.396  1.0655 -2.2075 -0.0730
  281MOL0     H37089   9.896   3.577   4.518 -0.9033 -0.9636  1.8505
  281MOL0     H37090  10.286   3.531   4.681  0.6090 -0.0910 -0.7980
  281MOL0     H37091   9.857   2.982   4.955  1.3213  0.5752  0.6535
  281MOL0     H37092   9.660   2.882   5.036 -3.9801 -0.4388  0.0464
  282MOL0     O37093   0.561   7.527   3.263 -0.0931  0.6191  0.3910
  282MOL0     C37094   0.443   7.484   3.240  0.4020 -0.4703 -0.7245
  282MOL0     O37095   0.354   7.433   3.337  0.3386 -1.3598  0.3982
  282MOL0     C37096   0.407   7.408   3.461  0.1330 -0.1164 -0.0425
  282MOL0     C37097   0.485   7.295   3.484  0.4981 -0.2938 -0.2856
  282MOL0     C37098   0.541   7.262   3.607  0.4127 -0.2843 -0.3055
  282MOL0     C37099   0.523   7.345   3.720 -0.3766  0.3038  0.4081
  282MOL0     O37100   0.564   7.323   3.848  0.5796 -1.0357 -0.4285
  282MOL0     C37101   0.671   7.236   3.863  0.2136  1.0115 -0.4548
  282MOL0     C37102   0.713   7.241   4.011 -0.0738  0.3408 -0.5028
  282MOL0     C37103   0.833   7.148   4.028 -0.7505  0.6065 -0.3918
  282MOL0     C37104   0.926   7.194   4.140 -0.3449  0.6196  0.2030
  282MOL0     C37105   1.049   7.099   4.143  0.0443 -0.6098  0.3375
  282MOL0     C37106   1.168   7.150   4.235 -0.5778 -0.1245  0.2610
  282MOL0     C37107   1.116   7.194   4.376 -0.3809  0.5256  1.0803
  282MOL0     C37108   1.231   7.211   4.470 -0.6598  0.5049 -0.2374
  282MOL0     N37109   1.208   7.338   4.538 -0.7161 -0.4534 -0.4608
  282MOL0     C37110   1.210   7.469   4.482 -0.6303 -0.0557 -0.3768
  282MOL0     C37111   1.178   7.540   4.591 -0.4299 -0.0048 -0.6163
  282MOL0     C37112   1.185   7.691   4.597 -0.4654  0.9627 -0.1886
  282MOL0     C37113   1.051   7.734   4.650  0.3115 -0.9049  0.1072
  282MOL0     C37114   1.073   7.881   4.685  0.5090  0.4131  1.0659
  282MOL0     C37115   0.943   7.937   4.718  0.3532 -1.4116 -0.1797
  282MOL0     O37116   0.944   8.070   4.782  0.3087  0.6113  0.5497
  282MOL0     C37117   0.916   8.181   4.709  0.1944 -0.3539 -0.1713
  282MOL0     C37118   0.879   8.293   4.786  0.2675 -0.6841  0.2603
  282MOL0     C37119   0.847   8.419   4.723 -1.4407 -0.1643  0.1178
  282MOL0     C37120   0.851   8.436   4.583  0.0938 -0.0037  0.4080
  282MOL0     C37121   0.793   8.557   4.518  1.0665 -0.0442 -0.1099
  282MOL0     O37122   0.776   8.550   4.381  0.0953  0.0142  0.7897
  282MOL0     C37123   0.703   8.653   4.323 -1.0734 -0.0189  0.2864
  282MOL0     C37124   0.558   8.675   4.339 -0.7366  0.7970 -1.1836
  282MOL0     C37125   0.492   8.798   4.298 -0.1723 -0.0004 -0.0948
  282MOL0     C37126   0.575   8.896   4.236  0.0401  0.8987 -0.1112
  282MOL0     O37127   0.522   9.019   4.211  0.3132  0.1036 -0.4161
  282MOL0     C37128   0.584   9.114   4.121  0.6395 -0.2757  0.1519
  282MOL0     C37129   0.562   9.076   3.972  0.1046 -0.0363  0.7190
  282MOL0     C37130   0.413   9.088   3.920 -0.0957  0.2617  0.4596
  282MOL0     C37131   0.306   8.987   3.970 -0.4971 -0.0115 -0.6756
  282MOL0     C37132   0.179   8.999   3.880  0.2779 -0.9994  1.0008
  282MOL0     C37133   0.057   8.930   3.932  0.0444 -0.1233  0.2444
  282MOL0     C37134   0.043   8.774   3.927 -0.4959 -0.3312  0.3869
  282MOL0     C37135  -0.053   8.727   4.032 -0.7672 -0.5884 -0.7425
  282MOL0    Cl37136  -0.090   8.553   4.025  0.1961 -0.4683 -0.3818
  282MOL0     C37137   0.721   8.860   4.211 -0.5298  0.1221  0.0779
  282MOL0     C37138   0.774   8.743   4.240  0.1077  1.1384 -0.1682
  282MOL0     O37139   0.773   8.663   4.581 -0.6037  0.4835  0.3803
  282MOL0     C37140   0.893   8.317   4.508 -0.3222 -0.2963 -1.4830
  282MOL0     C37141   0.926   8.196   4.574  0.6051 -0.0712  0.3192
  282MOL0     N37142   1.143   7.461   4.706  0.1281  0.9683 -0.5833
  282MOL0     N37143   1.186   7.347   4.671  0.3456  0.3357 -0.3931
  282MOL0     C37144   0.456   7.468   3.697  0.0680  0.7180  0.7251
  282MOL0     C37145   0.392   7.501   3.569 -0.7025  0.0809 -0.4531
  282MOL0     C37146   0.380   7.538   3.116 -0.6484 -0.4448 -0.1064
  282MOL0     C37147   0.241   7.552   3.114  0.2674 -0.3691 -0.4748
  282MOL0     C37148   0.181   7.607   3.005  0.3837  0.4399 -0.2714
  282MOL0     C37149   0.247   7.651   2.894 -1.1635 -0.2779  0.0484
  282MOL0     O37150   0.175   7.712   2.793  0.3684 -0.3628 -0.4011
  282MOL0     C37151   0.251   7.775   2.693  0.1207  0.4365  0.8925
  282MOL0     C37152   0.306   7.659   2.592  0.0679 -0.3924 -0.1110
  282MOL0     C37153   0.413   7.728   2.504 -0.6080  0.7156 -0.1978
  282MOL0     C37154   0.475   7.622   2.410  0.6988 -0.2272 -0.2861
  282MOL0     C37155   0.385   7.598   2.296  0.2669 -0.1607  0.0165
  282MOL0     C37156   0.300   7.585   2.206 -0.7148  1.1331 -0.1787
  282MOL0     C37157   0.392   7.633   2.903  0.3533  0.2536  0.3665
  282MOL0     C37158   0.460   7.590   3.013  0.5181  0.0657  0.7717
  282MOL0     H37159   0.503   7.222   3.406  2.9462  1.1033 -1.1318
  282MOL0     H37160   0.601   7.172   3.617 -0.6632 -0.7836  2.3145
  282MOL0     H37161   0.759   7.260   3.803 -0.7784  0.1576 -2.3293
  282MOL0     H37162   0.636   7.137   3.835  0.4481  0.5925  0.6871
  282MOL0     H37163   0.625   7.203   4.063 -1.2580  2.7329 -0.6361
  282MOL0     H37164   0.726   7.343   4.049 -3.5565  1.7990 -2.6997
  282MOL0     H37165   0.890   7.147   3.935  2.6651  2.7743  1.4605
  282MOL0     H37166   0.802   7.046   4.053  4.8065 -0.7327  2.5770
  282MOL0     H37167   0.955   7.297   4.122 -1.2283  0.7960 -0.2458
  282MOL0     H37168   0.878   7.200   4.238  0.2548 -2.8183  0.8344
  282MOL0     H37169   1.085   7.069   4.044  2.9494  0.4228  0.9905
  282MOL0     H37170   1.014   7.005   4.185 -3.5532 -0.0498 -1.0714
  282MOL0     H37171   1.209   7.243   4.193 -0.9231  0.6899  1.6695
  282MOL0     H37172   1.261   7.092   4.237  0.5630  1.6211  1.1671
  282MOL0     H37173   1.058   7.286   4.368 -2.2482 -0.4381  2.6461
  282MOL0     H37174   1.058   7.106   4.405 -0.0924 -0.4923 -1.2432
  282MOL0     H37175   1.324   7.209   4.414  0.1619  2.4851  0.9202
  282MOL0     H37176   1.224   7.133   4.547 -3.0163  3.4655  2.8679
  282MOL0     H37177   1.244   7.516   4.390 -3.7130  0.3870 -1.3940
  282MOL0     H37178   1.206   7.750   4.507 -0.7992  1.2282 -0.0932
  282MOL0     H37179   1.266   7.705   4.669 -1.6628  3.4966  0.7782
  282MOL0     H37180   1.023   7.682   4.742 -1.6932  0.5947  0.3938
  282MOL0     H37181   0.973   7.726   4.574 -2.3857  0.5308  2.5436
  282MOL0     H37182   1.146   7.892   4.766  4.0978  4.9692 -2.2691
  282MOL0     H37183   1.107   7.949   4.606  1.0406 -0.6583  0.3413
  282MOL0     H37184   0.897   7.862   4.784 -1.4595 -0.7930 -0.6734
  282MOL0     H37185   0.875   7.941   4.632 -1.3133 -1.5747  1.0850
  282MOL0     H37186   0.887   8.280   4.894  2.2595  3.0928  0.7473
  282MOL0     H37187   0.807   8.489   4.796 -4.5041 -0.3628 -1.2179
  282MOL0     H37188   0.506   8.594   4.389  1.9589  1.5605  3.5381
  282MOL0     H37189   0.386   8.811   4.311 -0.0918 -1.0952  1.9756
  282MOL0     H37190   0.690   9.143   4.123  0.0780  2.3938 -2.2005
  282MOL0     H37191   0.529   9.206   4.142  0.6024 -0.1307 -0.5294
  282MOL0     H37192   0.595   8.977   3.939  0.7860  0.8772 -1.5536
  282MOL0     H37193   0.629   9.144   3.918  3.5844 -3.2844  0.5507
  282MOL0     H37194   0.412   9.087   3.811  0.0379  2.0452  0.4038
  282MOL0     H37195   0.373   9.190   3.925  0.7647  1.1047 -4.6671
  282MOL0     H37196   0.333   8.882   3.957 -0.3903 -0.0016 -0.5412
  282MOL0     H37197   0.283   9.009   4.075  0.2772 -1.0667 -0.2662
  282MOL0     H37198   0.211   8.958   3.784  1.7394 -0.5156  1.2588
  282MOL0     H37199   0.155   9.101   3.849 -0.4678 -1.5578 -0.3448
  282MOL0     H37200  -0.026   8.977   3.878 -0.3789  2.7030  3.0378
  282MOL0     H37201   0.042   8.956   4.037 -1.7411 -2.5892  0.6777
  282MOL0     H37202   0.016   8.744   3.826  0.5093  0.4301 -0.1291
  282MOL0     H37203   0.145   8.738   3.942 -0.3258  0.0531  0.1757
  282MOL0     H37204  -0.145   8.785   4.040  0.0810  0.5592  2.6904
  282MOL0     H37205  -0.002   8.744   4.128 -1.0087 -1.3564 -0.4709
  282MOL0     H37206   0.763   8.938   4.148 -0.4271  0.3541  0.4321
  282MOL0     H37207   0.878   8.717   4.222  0.5369  3.0877 -0.7117
  282MOL0     H37208   0.903   8.328   4.401 -0.4206  1.3204 -1.3386
  282MOL0     H37209   0.968   8.116   4.514 -0.2789 -0.1182 -0.2560
  282MOL0     H37210   0.440   7.527   3.786 -2.3950  2.5009 -0.7710
  282MOL0     H37211   0.344   7.598   3.568 -1.1668 -0.1190  0.9935
  282MOL0     H37212   0.177   7.523   3.197  0.5906  4.3909  1.7964
  282MOL0     H37213   0.072   7.610   3.013  0.1727  4.7785 -1.8247
  282MOL0     H37214   0.329   7.844   2.726 -0.8818  1.5376  1.0037
  282MOL0     H37215   0.185   7.841   2.637 -3.5273 -0.8154  3.3429
  282MOL0     H37216   0.350   7.576   2.648 -3.1494 -2.6229 -0.6233
  282MOL0     H37217   0.234   7.607   2.528  0.8841 -2.0629  0.2579
  282MOL0     H37218   0.484   7.780   2.568  1.7265  0.1070 -2.1365
  282MOL0     H37219   0.359   7.803   2.446  1.1823  2.3942  0.2162
  282MOL0     H37220   0.566   7.671   2.373 -1.1651  2.7174 -1.3030
  282MOL0     H37221   0.494   7.530   2.466 -2.1662 -1.2209 -0.7993
  282MOL0     H37222   0.235   7.582   2.122 -2.2934  1.1346  1.0054
  282MOL0     H37223   0.448   7.664   2.815 -2.7746 -0.0682 -1.9054
  282MOL0     H37224   0.569   7.587   3.015  0.6085  0.0935 -1.4970
  283MOL0     O37225   1.877  11.372  10.832  0.7020  0.2607 -0.1009
  283MOL0     C37226   1.779  11.448  10.835 -0.6387 -0.4493 -0.1354
  283MOL0     O37227   1.793  11.583  10.854  0.1448  0.5113  0.0237
  283MOL0     C37228   1.904  11.648  10.883 -0.2901 -1.5224  0.2843
  283MOL0     C37229   1.871  11.776  10.918  0.2840 -0.5601  0.3176
  283MOL0     C37230   1.971  11.874  10.941  0.3093  0.4958 -0.6385
  283MOL0     C37231   2.102  11.838  10.942 -0.2406 -0.0417 -0.3168
  283MOL0     O37232   2.207  11.932  10.947  0.0712 -0.7154 -0.1319
  283MOL0     C37233   2.202  11.998  11.077  0.1259  0.1319  0.1395
  283MOL0     C37234   2.305  12.117  11.079  0.1492  0.6510  0.3208
  283MOL0     C37235   2.302  12.182  11.216  0.6423 -0.3663  0.2038
  283MOL0     C37236   2.417  12.278  11.230 -0.0558  0.7825 -0.1711
  283MOL0     C37237   2.424  12.344  11.382  0.6792 -0.8405  0.7063
  283MOL0     C37238   2.553  12.432  11.387  0.5181 -0.1785 -0.5587
  283MOL0     C37239   2.588  12.476  11.526  0.0238 -0.3417 -0.2913
  283MOL0     C37240   2.697  12.388  11.586  0.8462 -0.1114  0.9478
  283MOL0     N37241   2.742  12.461  11.710  0.3324  0.5645  0.0132
  283MOL0     C37242   2.680  12.459  11.835 -0.3542  0.1502  0.3444
  283MOL0     C37243   2.771  12.503  11.923  0.9889 -1.0355  0.0451
  283MOL0     C37244   2.758  12.514  12.068 -0.2113 -0.0400 -0.2418
  283MOL0     C37245   2.619  12.530  12.123 -0.5758 -0.3311  0.3382
  283MOL0     C37246   2.630  12.538  12.275 -0.6818  1.0283 -0.3591
  283MOL0     C37247   2.492  12.541  12.349 -0.8248 -0.2547 -0.1591
  283MOL0     O37248   2.424  12.423  12.321  0.1675  0.7741  0.2561
  283MOL0     C37249   2.297  12.414  12.364 -0.7155  0.5909 -0.1421
  283MOL0     C37250   2.201  12.419  12.275  0.8020 -0.0294 -0.2118
  283MOL0     C37251   2.072  12.439  12.318 -0.5305 -0.2118  0.0062
  283MOL0     C37252   2.036  12.432  12.454  0.1345  0.8178  0.4334
  283MOL0     C37253   1.892  12.446  12.496 -1.3555 -0.2123 -0.4691
  283MOL0     O37254   1.878  12.479  12.629 -0.4215  0.6588  0.2069
  283MOL0     C37255   1.753  12.509  12.679 -0.2988  0.5021  0.0516
  283MOL0     C37256   1.700  12.639  12.673  0.0156  0.8190  0.6042
  283MOL0     C37257   1.573  12.671  12.734 -0.3139  0.7524 -0.3942
  283MOL0     C37258   1.498  12.562  12.793 -1.4030 -0.7144 -0.0159
  283MOL0     O37259   1.375  12.586  12.844 -0.4120 -0.4820 -0.3408
  283MOL0     C37260   1.347  12.709  12.903 -0.4094 -0.2737  0.5754
  283MOL0     C37261   1.220  12.729  12.984 -0.4433 -1.0596 -0.0726
  283MOL0     C37262   1.245  12.747  13.134  0.1928 -0.8692  0.1842
  283MOL0     C37263   1.124  12.771  13.218  0.2331 -0.2171 -0.1954
  283MOL0     C37264   1.127  12.816  13.362  1.3673 -0.3541  0.5492
  283MOL0     C37265   1.148  12.973  13.366 -0.0638  0.1913  0.0381
  283MOL0     C37266   1.134  13.011  13.515  0.5565  0.4948  1.0847
  283MOL0     C37267   1.134  13.167  13.536 -0.2710  0.3282 -0.4536
  283MOL0    Cl37268   1.119  13.195  13.716 -0.3358  0.5330  0.1951
  283MOL0     C37269   1.552  12.433  12.782 -0.2934  0.5878 -0.8055
  283MOL0     C37270   1.681  12.406  12.734  0.1114  0.1175 -0.4203
  283MOL0     O37271   1.799  12.431  12.424  0.9337  0.0565  0.4253
  283MOL0     C37272   2.134  12.417  12.544 -0.2659  0.2295  0.6113
  283MOL0     C37273   2.262  12.414  12.504 -1.3032  0.4648  0.0706
  283MOL0     N37274   2.886  12.517  11.846  0.7807  0.7493  0.4174
  283MOL0     N37275   2.868  12.494  11.717  0.7350  1.0733  0.0834
  283MOL0     C37276   2.132  11.698  10.925 -0.6328 -0.5067 -1.3943
  283MOL0     C37277   2.034  11.605  10.902 -0.2896  0.0981 -0.2143
  283MOL0     C37278   1.645  11.396  10.796 -0.0148  0.2119 -0.3611
  283MOL0     C37279   1.613  11.259  10.770 -0.8608  1.0911 -0.6161
  283MOL0     C37280   1.487  11.211  10.738 -0.0700 -0.1777  0.6753
  283MOL0     C37281   1.385  11.299  10.713 -0.1418  0.8509 -0.2137
  283MOL0     O37282   1.271  11.230  10.692  0.9267 -0.2259 -0.3162
  283MOL0     C37283   1.186  11.286  10.594  0.9036  0.1961 -0.3284
  283MOL0     C37284   1.180  11.208  10.459 -0.1026 -0.0390  0.2689
  283MOL0     C37285   1.321  11.189  10.396 -0.5315 -0.4599 -0.0585
  283MOL0     C37286   1.387  11.327  10.332  0.1595 -0.1755 -0.7679
  283MOL0     C37287   1.515  11.291  10.274 -0.1434  0.4835  1.4219
  283MOL0     C37288   1.632  11.273  10.235 -0.5830 -0.4267  0.7952
  283MOL0     C37289   1.405  11.430  10.734 -0.4196  0.2653 -0.4923
  283MOL0     C37290   1.528  11.475  10.787 -0.3507 -0.2264 -0.6946
  283MOL0     H37291   1.766  11.804  10.918  0.7276  1.4874 -2.4013
  283MOL0     H37292   1.938  11.977  10.954  0.1343  0.1023  3.1943
  283MOL0     H37293   2.226  11.931  11.160  0.2368  0.8409  0.6859
  283MOL0     H37294   2.100  12.034  11.089  0.0280 -0.4593  1.2008
  283MOL0     H37295   2.279  12.189  11.001  1.6560  2.3771  1.3472
  283MOL0     H37296   2.406  12.090  11.048  0.6034  2.6947 -0.0934
  283MOL0     H37297   2.308  12.100  11.288  0.9047 -1.2943 -0.8604
  283MOL0     H37298   2.210  12.236  11.239  0.6208 -0.4808  0.3890
  283MOL0     H37299   2.509  12.225  11.203  1.1799  1.9804  1.4645
  283MOL0     H37300   2.411  12.359  11.157 -0.6850  0.8433 -0.0555
  283MOL0     H37301   2.426  12.267  11.460 -0.1089  0.1841  1.7646
  283MOL0     H37302   2.331  12.398  11.401  1.2787  0.5812 -0.2360
  283MOL0     H37303   2.535  12.507  11.310 -1.7961 -1.9312 -1.8587
  283MOL0     H37304   2.642  12.379  11.353  1.6313  0.4051  1.2896
  283MOL0     H37305   2.626  12.578  11.519 -2.6511  0.6706 -4.2294
  283MOL0     H37306   2.497  12.482  11.586  0.9525 -2.1427  1.3850
  283MOL0     H37307   2.786  12.366  11.525  1.1297 -0.0446  1.3322
  283MOL0     H37308   2.656  12.291  11.615 -0.1102 -0.0369 -0.0811
  283MOL0     H37309   2.580  12.426  11.863 -0.8240  0.7653 -0.5479
  283MOL0     H37310   2.817  12.595  12.111  2.8274 -0.9296 -2.3620
  283MOL0     H37311   2.807  12.426  12.113  0.2607  1.0588  1.5022
  283MOL0     H37312   2.555  12.445  12.097  0.5856 -1.5889  1.4067
  283MOL0     H37313   2.581  12.618  12.070 -1.0001  0.1060  1.3523
  283MOL0     H37314   2.680  12.444  12.303 -0.4065  1.1532 -0.4233
  283MOL0     H37315   2.705  12.612  12.303  2.0126 -2.3359  2.0731
  283MOL0     H37316   2.434  12.615  12.292 -1.9661 -2.1665 -1.5869
  283MOL0     H37317   2.514  12.573  12.451  1.8672 -0.0868 -0.7106
  283MOL0     H37318   2.229  12.433  12.171  1.3372  0.7800  0.0362
  283MOL0     H37319   1.994  12.464  12.248 -2.5239  1.3935  2.6097
  283MOL0     H37320   1.760  12.718  12.628 -0.9751  1.0901 -0.3023
  283MOL0     H37321   1.541  12.774  12.721  3.9261  2.3577  0.4346
  283MOL0     H37322   1.336  12.785  12.825 -2.5641  1.1056  2.0949
  283MOL0     H37323   1.424  12.745  12.971  0.5090  0.5588 -0.8442
  283MOL0     H37324   1.162  12.638  12.962  0.9123 -2.2586  1.1608
  283MOL0     H37325   1.170  12.821  12.951  0.5657  0.6585  2.8574
  283MOL0     H37326   1.316  12.829  13.152  0.4284 -0.8057 -0.9963
  283MOL0     H37327   1.302  12.662  13.171  0.8424 -0.0663  1.1166
  283MOL0     H37328   1.058  12.843  13.168  0.9029  0.3524 -0.2810
  283MOL0     H37329   1.061  12.682  13.212 -1.3360  0.8235  0.3244
  283MOL0     H37330   1.203  12.760  13.417  3.6112  0.5301 -1.5013
  283MOL0     H37331   1.024  12.811  13.399  0.0034  0.8410 -2.7057
  283MOL0     H37332   1.067  13.025  13.315 -0.7534 -0.1192  0.7998
  283MOL0     H37333   1.238  13.013  13.318 -1.9125  1.0920 -2.9507
  283MOL0     H37334   1.048  12.967  13.566  1.0886 -2.9825 -0.7167
  283MOL0     H37335   1.221  12.974  13.569  0.7596 -0.5838  0.0634
  283MOL0     H37336   1.071  13.215  13.461  0.3469  0.0322 -1.1810
  283MOL0     H37337   1.236  13.198  13.513  0.2532 -0.7071  0.3550
  283MOL0     H37338   1.487  12.354  12.819  3.3664 -1.4865  1.8073
  283MOL0     H37339   1.720  12.305  12.727 -0.6320 -0.1182 -1.4722
  283MOL0     H37340   2.114  12.410  12.651  0.1913  1.1212  0.7664
  283MOL0     H37341   2.336  12.413  12.584 -0.2616  1.6894 -0.8185
  283MOL0     H37342   2.234  11.663  10.921 -0.2444  0.2664  0.4853
  283MOL0     H37343   2.054  11.501  10.879  1.2762  0.5342 -0.9814
  283MOL0     H37344   1.688  11.184  10.793 -1.3549  0.7118 -0.2101
  283MOL0     H37345   1.468  11.104  10.732 -1.6169  0.1491 -4.6497
  283MOL0     H37346   1.223  11.385  10.565  1.6757 -0.7059 -2.6575
  283MOL0     H37347   1.088  11.317  10.631  1.3987  1.1880  0.1966
  283MOL0     H37348   1.132  11.112  10.481  2.4364 -1.6180 -0.7056
  283MOL0     H37349   1.115  11.260  10.388 -1.0105 -1.9435 -0.3552
  283MOL0     H37350   1.297  11.131  10.306 -0.5164 -0.3933 -0.1040
  283MOL0     H37351   1.377  11.132  10.470 -3.2339 -3.5750 -0.1573
  283MOL0     H37352   1.318  11.380  10.265  0.7382  1.3224 -0.2244
  283MOL0     H37353   1.398  11.414  10.397 -0.2100  0.1421 -1.1230
  283MOL0     H37354   1.723  11.237  10.192 -1.7854 -2.3219 -0.3313
  283MOL0     H37355   1.326  11.504  10.728  0.5040  1.2131 -1.6358
  283MOL0     H37356   1.527  11.582  10.805  1.2066  0.0855 -2.2305
  284MOL0     O37357   8.935   3.032  10.642  0.0357  0.1847 -0.4514
  284MOL0     C37358   9.019   2.945  10.614  0.0262 -0.2037 -0.0947
  284MOL0     O37359   9.142   2.930  10.670 -0.4258  0.8001  0.3385
  284MOL0     C37360   9.171   3.025  10.767 -0.3637 -0.6649  0.0825
  284MOL0     C37361   9.213   3.149  10.730  1.0509 -0.3327 -1.0625
  284MOL0     C37362   9.233   3.245  10.832 -0.2712 -0.4022 -0.0068
  284MOL0     C37363   9.229   3.218  10.971 -0.5909 -0.6804  0.4164
  284MOL0     O37364   9.259   3.299  11.076  0.5820 -0.1605  0.1498
  284MOL0     C37365   9.185   3.423  11.073  0.2590 -0.5339  0.4208
  284MOL0     C37366   9.103   3.422  11.206 -0.2102 -1.1641 -0.5027
  284MOL0     C37367   9.032   3.556  11.231 -0.7388  0.0926 -0.4056
  284MOL0     C37368   8.923   3.533  11.339 -0.8644 -0.1089  0.2366
  284MOL0     C37369   8.864   3.667  11.371  0.0809  0.7647 -0.0944
  284MOL0     C37370   8.740   3.651  11.461  0.5077 -0.6923  0.4614
  284MOL0     C37371   8.760   3.580  11.591  0.7429 -0.8397 -0.1555
  284MOL0     C37372   8.629   3.587  11.675  0.1642 -0.2484 -0.4857
  284MOL0     N37373   8.528   3.494  11.616  0.3948 -0.1858  0.0287
  284MOL0     C37374   8.554   3.355  11.602 -0.2143 -0.3998 -0.3138
  284MOL0     C37375   8.437   3.318  11.547  0.8298  0.3247 -0.0043
  284MOL0     C37376   8.419   3.175  11.506  0.5376  0.7418 -0.2314
  284MOL0     C37377   8.441   3.156  11.354 -0.2247 -0.0023  0.9324
  284MOL0     C37378   8.396   3.014  11.321 -0.3986  0.0253 -0.5903
  284MOL0     C37379   8.438   2.956  11.180  1.3302  0.0742  0.3330
  284MOL0     O37380   8.487   2.822  11.198 -0.0309 -0.3985 -0.3673
  284MOL0     C37381   8.398   2.725  11.236 -0.2689 -0.1529  1.0569
  284MOL0     C37382   8.448   2.592  11.245  0.4400  0.2643 -0.5954
  284MOL0     C37383   8.366   2.481  11.294 -0.2782 -0.6013  0.5212
  284MOL0     C37384   8.237   2.506  11.316  0.8929 -0.3583  0.5410
  284MOL0     C37385   8.140   2.388  11.333 -0.1763  0.1293 -0.0666
  284MOL0     O37386   8.202   2.266  11.342  0.7953 -0.1733  0.9074
  284MOL0     C37387   8.130   2.149  11.347  0.1648  0.1194  0.7646
  284MOL0     C37388   8.202   2.041  11.400  0.7228  0.0691  0.2448
  284MOL0     C37389   8.148   1.914  11.422  0.4824 -0.7690 -0.3112
  284MOL0     C37390   8.017   1.884  11.377  1.1132  0.9033 -0.1212
  284MOL0     O37391   7.964   1.762  11.393  0.1898 -0.1636 -0.0577
  284MOL0     C37392   7.861   1.753  11.479  0.3344 -1.5199  0.2930
  284MOL0     C37393   7.868   1.612  11.546  0.2437  0.6956  2.0818
  284MOL0     C37394   8.007   1.602  11.608  1.0320 -0.2612  0.3378
  284MOL0     C37395   8.020   1.479  11.699 -0.3908  0.0036  1.3092
  284MOL0     C37396   8.162   1.411  11.708  0.0624  0.1174  0.5721
  284MOL0     C37397   8.274   1.486  11.776 -0.9297  0.0919 -0.5405
  284MOL0     C37398   8.396   1.400  11.792 -0.2729 -0.7640  0.9177
  284MOL0     C37399   8.514   1.489  11.835  0.0394 -0.5294  0.1408
  284MOL0    Cl37400   8.493   1.540  12.007 -0.1361  0.1617 -0.2288
  284MOL0     C37401   7.940   1.993  11.328  0.2977  0.2605  0.7760
  284MOL0     C37402   7.997   2.121  11.315 -0.5015 -0.2774  0.5029
  284MOL0     O37403   8.018   2.406  11.325  0.3786  0.5607  0.2230
  284MOL0     C37404   8.176   2.639  11.309  0.2258  0.6661  0.2736
  284MOL0     C37405   8.257   2.740  11.261  0.5491 -0.8005 -0.5669
  284MOL0     N37406   8.343   3.420  11.548  0.3803  0.0235 -0.1546
  284MOL0     N37407   8.403   3.527  11.592  1.0956 -0.2293 -0.2352
  284MOL0     C37408   9.207   3.090  11.000  0.4130 -0.7664 -0.0824
  284MOL0     C37409   9.182   2.991  10.902  0.1840  0.3156 -0.5438
  284MOL0     C37410   8.955   2.841  10.524  0.1678 -0.8637 -0.6449
  284MOL0     C37411   8.979   2.712  10.539 -0.0029 -0.0230 -0.3889
  284MOL0     C37412   8.918   2.623  10.465  0.1967  0.5710  0.3643
  284MOL0     C37413   8.806   2.660  10.380 -0.5704 -0.2507 -0.1612
  284MOL0     O37414   8.717   2.571  10.330  0.0600 -0.2785  0.2948
  284MOL0     C37415   8.753   2.430  10.332  0.5030 -0.0613  0.0884
  284MOL0     C37416   8.702   2.370  10.460 -0.2522 -0.6091  0.1252
  284MOL0     C37417   8.545   2.339  10.472 -0.4491 -0.1413  0.0318
  284MOL0     C37418   8.486   2.272  10.349  0.3999  0.0133  0.2028
  284MOL0     C37419   8.580   2.159  10.298 -0.4074 -0.7586  0.7227
  284MOL0     C37420   8.664   2.081  10.245  0.3912 -0.2577 -0.8315
  284MOL0     C37421   8.783   2.797  10.367  0.0053 -0.6354 -0.4906
  284MOL0     C37422   8.861   2.889  10.432 -0.4425  0.0555  0.3763
  284MOL0     H37423   9.226   3.181  10.627 -0.7998  1.6159 -0.7646
  284MOL0     H37424   9.267   3.336  10.785  1.0356 -0.3900  0.9133
  284MOL0     H37425   9.112   3.433  10.992 -0.3739 -2.7937  0.6425
  284MOL0     H37426   9.244   3.515  11.079 -0.1921 -0.3162  2.2220
  284MOL0     H37427   9.163   3.402  11.295  0.2904  1.8499 -0.0349
  284MOL0     H37428   9.019   3.351  11.204 -3.8332  2.6945 -2.8183
  284MOL0     H37429   8.977   3.595  11.145 -0.3371  2.7283  0.4447
  284MOL0     H37430   9.095   3.632  11.277 -2.5706 -1.5101  5.6451
  284MOL0     H37431   8.849   3.459  11.307 -1.2461  1.3320 -2.5655
  284MOL0     H37432   8.966   3.491  11.429 -0.1088 -1.6252 -0.7897
  284MOL0     H37433   8.818   3.708  11.281 -2.7764 -1.4858  0.2028
  284MOL0     H37434   8.941   3.731  11.415  3.4727 -2.1425 -1.2549
  284MOL0     H37435   8.663   3.589  11.414  1.4297  0.7649 -3.3729
  284MOL0     H37436   8.696   3.749  11.482 -1.5556 -1.0432 -1.7518
  284MOL0     H37437   8.790   3.476  11.571 -1.8951 -0.9992 -4.4141
  284MOL0     H37438   8.827   3.646  11.647 -2.9872  2.4286  0.9210
  284MOL0     H37439   8.601   3.693  11.679  0.7994  0.0034 -1.9912
  284MOL0     H37440   8.637   3.545  11.776 -1.3107  4.1311  1.7001
  284MOL0     H37441   8.641   3.292  11.614  0.6266  0.5517 -1.1971
  284MOL0     H37442   8.322   3.130  11.532  2.6622 -2.9443  2.2773
  284MOL0     H37443   8.487   3.107  11.557 -0.4842  0.6651  1.0899
  284MOL0     H37444   8.548   3.167  11.331 -0.7403  5.0505 -0.0829
  284MOL0     H37445   8.379   3.234  11.310 -0.1226 -0.5588 -0.2583
  284MOL0     H37446   8.437   2.956  11.404 -1.1742  1.9487  1.2337
  284MOL0     H37447   8.288   3.008  11.338 -0.4372 -3.2359 -1.3662
  284MOL0     H37448   8.521   3.013  11.138  0.9555  0.8018  0.5656
  284MOL0     H37449   8.361   2.957  11.102  0.7231  0.1949  0.9234
  284MOL0     H37450   8.549   2.576  11.207  1.4154 -2.6021  2.7239
  284MOL0     H37451   8.404   2.380  11.299 -1.4104 -1.3808 -3.3698
  284MOL0     H37452   8.309   2.053  11.411  1.2321 -0.9637 -2.9059
  284MOL0     H37453   8.205   1.830  11.460 -0.3150 -1.0275  0.3269
  284MOL0     H37454   7.762   1.777  11.439  0.6275  2.6708  1.6227
  284MOL0     H37455   7.878   1.830  11.554  2.3380 -0.1404 -1.4631
  284MOL0     H37456   7.870   1.527  11.477  2.7797  0.1581  2.7334
  284MOL0     H37457   7.795   1.586  11.623  0.2680 -1.1727  1.5252
  284MOL0     H37458   8.032   1.694  11.661 -0.5163  0.9653 -0.9476
  284MOL0     H37459   8.079   1.604  11.526  1.3647  2.8355  0.5746
  284MOL0     H37460   7.977   1.507  11.796 -2.0692  4.2118 -0.3918
  284MOL0     H37461   7.954   1.407  11.649 -3.3008  1.2557  3.1109
  284MOL0     H37462   8.188   1.377  11.607  5.8291  1.5174  1.2446
  284MOL0     H37463   8.152   1.321  11.768  0.3052  1.4913  2.7729
  284MOL0     H37464   8.244   1.519  11.876  1.5862  0.7626  0.0605
  284MOL0     H37465   8.287   1.570  11.707 -3.2519  0.9339 -0.0533
  284MOL0     H37466   8.375   1.310  11.851 -1.5582 -1.7658 -0.9301
  284MOL0     H37467   8.421   1.355  11.695  3.1803  0.4549  1.1019
  284MOL0     H37468   8.510   1.583  11.779  0.5541  0.8882  2.3547
  284MOL0     H37469   8.609   1.437  11.823  1.0899  1.2155  0.4139
  284MOL0     H37470   7.835   1.978  11.303  0.5868 -1.9398  0.7258
  284MOL0     H37471   7.928   2.197  11.279 -0.3206 -0.1036  0.5207
  284MOL0     H37472   8.071   2.648  11.334  0.4325 -1.4459  2.2157
  284MOL0     H37473   8.200   2.831  11.248  0.0167 -0.5748  2.4579
  284MOL0     H37474   9.198   3.060  11.104 -2.7232 -2.8597 -0.8140
  284MOL0     H37475   9.159   2.891  10.938 -2.0546  1.7371  2.2933
  284MOL0     H37476   9.051   2.686  10.617 -0.4256  1.5014  0.5312
  284MOL0     H37477   8.951   2.520  10.475 -3.2874 -0.8584 -1.3482
  284MOL0     H37478   8.861   2.421  10.316  0.0485 -3.4170 -2.1253
  284MOL0     H37479   8.716   2.383  10.240  3.4091 -1.4139 -0.5217
  284MOL0     H37480   8.758   2.278  10.479  1.2689  0.6149  1.8545
  284MOL0     H37481   8.726   2.426  10.551  1.0019 -3.4781  1.6974
  284MOL0     H37482   8.495   2.433  10.498 -0.6394 -0.7891  2.2036
  284MOL0     H37483   8.538   2.274  10.560  0.8570  0.7941  0.8656
  284MOL0     H37484   8.391   2.225  10.375 -0.5104  1.1724 -0.9631
  284MOL0     H37485   8.463   2.347  10.273 -2.7233 -0.1698  0.8526
  284MOL0     H37486   8.742   2.016  10.211  0.7529 -1.1066  1.4920
  284MOL0     H37487   8.691   2.830  10.318  0.4499  1.1187 -0.2060
  284MOL0     H37488   8.850   2.997  10.423 -3.2715 -0.2115 -0.4072
  285MOL0     O37489   6.177   4.033   8.384 -0.7939  0.5108  0.4043
  285MOL0     C37490   6.149   3.925   8.334  0.0129  0.0116  0.7468
  285MOL0     O37491   6.122   3.809   8.395  0.0046 -0.0415 -0.0135
  285MOL0     C37492   6.096   3.799   8.524 -0.0090 -0.9861  1.1294
  285MOL0     C37493   6.138   3.674   8.570  0.4881  0.6545  0.0497
  285MOL0     C37494   6.119   3.651   8.704  0.6047 -0.7167  0.0100
  285MOL0     C37495   6.046   3.744   8.788 -0.8380 -0.7399  0.7991
  285MOL0     O37496   6.004   3.702   8.913 -0.4606 -0.1434 -0.5540
  285MOL0     C37497   5.923   3.581   8.886 -0.0030 -0.1176 -0.6617
  285MOL0     C37498   5.866   3.528   9.020 -0.5244 -0.7026 -0.0405
  285MOL0     C37499   5.774   3.644   9.081 -1.0151 -0.4726 -0.9007
  285MOL0     C37500   5.740   3.607   9.229  0.1572  0.0424  0.2298
  285MOL0     C37501   5.594   3.650   9.254 -0.3141 -0.2232 -0.4417
  285MOL0     C37502   5.559   3.797   9.247  0.2516  0.8506 -0.6587
  285MOL0     C37503   5.419   3.826   9.300 -0.1122 -0.0669  0.7882
  285MOL0     C37504   5.385   3.977   9.291  0.0581  0.0926  0.4534
  285MOL0     N37505   5.474   4.078   9.354  0.2795  0.7874  0.0249
  285MOL0     C37506   5.516   4.189   9.286  0.1353  0.5706  0.0131
  285MOL0     C37507   5.603   4.247   9.366 -0.1078 -0.2287 -0.6170
  285MOL0     C37508   5.667   4.379   9.340 -0.5148 -0.5339  0.0306
  285MOL0     C37509   5.747   4.437   9.461  0.3558  1.1837 -0.3488
  285MOL0     C37510   5.645   4.522   9.524  0.3595 -0.1535 -0.5647
  285MOL0     C37511   5.690   4.566   9.664  0.1277 -0.1756  0.1867
  285MOL0     O37512   5.583   4.633   9.733 -0.4229  1.1298 -0.0222
  285MOL0     C37513   5.493   4.552   9.804 -0.4793 -0.0558 -0.5089
  285MOL0     C37514   5.386   4.624   9.860 -0.8556  0.2061 -0.7228
  285MOL0     C37515   5.282   4.553   9.912  0.4781 -0.3933 -0.2756
  285MOL0     C37516   5.278   4.416   9.915  0.0531 -0.6594 -0.2465
  285MOL0     C37517   5.183   4.333   9.997 -1.1258  0.2558  0.1021
  285MOL0     O37518   5.186   4.193   9.974 -0.5323 -0.1422 -0.7537
  285MOL0     C37519   5.160   4.103  10.079  0.0266 -1.1261  0.4758
  285MOL0     C37520   5.229   3.988  10.089  0.1823  0.8097 -0.2946
  285MOL0     C37521   5.196   3.892  10.190  0.5149 -0.3349  0.8730
  285MOL0     C37522   5.093   3.911  10.279  0.1373  0.4259  0.0678
  285MOL0     O37523   5.086   3.811  10.372 -0.1668  0.3849 -0.3092
  285MOL0     C37524   4.969   3.805  10.452  0.0516 -0.8086 -0.2051
  285MOL0     C37525   4.992   3.700  10.563 -0.7177 -0.3384 -0.9842
  285MOL0     C37526   4.963   3.565  10.508 -0.4667  0.2028  1.0147
  285MOL0     C37527   4.981   3.450  10.607  0.3258 -0.9291  0.1269
  285MOL0     C37528   4.910   3.476  10.739  0.8847 -0.5740 -0.5240
  285MOL0     C37529   4.905   3.354  10.826 -0.2708  0.1899  0.0566
  285MOL0     C37530   4.839   3.384  10.963  0.2666 -0.0189 -0.1314
  285MOL0     C37531   4.877   3.297  11.081  0.1758  0.5244 -1.0543
  285MOL0    Cl37532   4.827   3.369  11.234  0.4157  0.2988  0.0653
  285MOL0     C37533   5.013   4.024  10.271  0.3598 -1.4036  0.0343
  285MOL0     C37534   5.049   4.123  10.173 -1.0477 -0.0594 -0.0589
  285MOL0     O37535   5.122   4.393  10.090 -0.4688  0.4590  0.5003
  285MOL0     C37536   5.385   4.348   9.865  0.5116 -0.8447  0.8711
  285MOL0     C37537   5.493   4.415   9.800  0.1520 -0.2407 -0.5346
  285MOL0     N37538   5.609   4.183   9.483  0.3970  0.3990 -0.1684
  285MOL0     N37539   5.530   4.079   9.478 -0.4861  0.7201  0.8814
  285MOL0     C37540   6.009   3.869   8.732  0.3210 -0.3454 -0.2044
  285MOL0     C37541   6.034   3.900   8.597 -0.6973 -0.2314  0.2032
  285MOL0     C37542   6.164   3.915   8.188 -0.7327 -0.1507  0.7519
  285MOL0     C37543   6.208   4.018   8.104 -0.8925  0.1298 -0.8332
  285MOL0     C37544   6.218   4.001   7.967  0.2993 -0.9760  0.0205
  285MOL0     C37545   6.196   3.876   7.917  1.1160 -0.4353  0.2837
  285MOL0     O37546   6.214   3.857   7.779 -0.3125  0.2578  0.6347
  285MOL0     C37547   6.312   3.762   7.732  0.0801 -0.2448 -0.9448
  285MOL0     C37548   6.359   3.807   7.589 -0.0009 -0.5281  0.0456
  285MOL0     C37549   6.446   3.934   7.582 -0.6546 -0.5273  0.2433
  285MOL0     C37550   6.521   3.939   7.436 -0.1348  0.0051 -0.5339
  285MOL0     C37551   6.640   3.848   7.431 -1.3326  0.3306 -0.4675
  285MOL0     C37552   6.726   3.761   7.446  0.0616  0.5671  0.7374
  285MOL0     C37553   6.135   3.776   7.994  0.4609  0.7551 -0.7501
  285MOL0     C37554   6.116   3.799   8.130  0.4623  0.3820  0.8670
  285MOL0     H37555   6.191   3.599   8.512  2.1020  0.4348  1.7239
  285MOL0     H37556   6.149   3.555   8.745 -1.3792 -2.2842 -1.9348
  285MOL0     H37557   5.970   3.493   8.842 -0.0943 -0.4665 -0.0750
  285MOL0     H37558   5.835   3.605   8.826 -1.8268 -2.6452  0.8239
  285MOL0     H37559   5.955   3.505   9.079  0.0506 -0.5685 -0.8506
  285MOL0     H37560   5.799   3.443   9.012 -2.8071  1.0278 -0.3883
  285MOL0     H37561   5.688   3.641   9.014 -3.1345 -1.5013  1.6904
  285MOL0     H37562   5.825   3.740   9.090  3.6766 -2.4881 -2.7096
  285MOL0     H37563   5.757   3.501   9.249  0.8344  0.0446 -0.3166
  285MOL0     H37564   5.809   3.667   9.289  1.7771 -1.0689 -0.4665
  285MOL0     H37565   5.576   3.618   9.357  3.3227  0.0459  0.4108
  285MOL0     H37566   5.521   3.588   9.201 -1.3567  0.9933 -0.4851
  285MOL0     H37567   5.565   3.815   9.139 -1.0117  0.0654 -0.8808
  285MOL0     H37568   5.629   3.861   9.302  2.3564 -1.6408 -0.2174
  285MOL0     H37569   5.343   3.768   9.247  0.8275 -1.0851  0.5060
  285MOL0     H37570   5.429   3.806   9.408  0.7989 -0.0082  0.7230
  285MOL0     H37571   5.283   3.988   9.328 -1.2994 -5.6373 -0.6109
  285MOL0     H37572   5.375   4.001   9.184 -1.6306  2.0788  0.9902
  285MOL0     H37573   5.480   4.237   9.196  2.1958  2.0333 -0.0964
  285MOL0     H37574   5.581   4.442   9.316 -1.5183 -1.9028 -0.0609
  285MOL0     H37575   5.729   4.382   9.249 -1.0631  0.0559 -0.3344
  285MOL0     H37576   5.834   4.490   9.419  0.8285 -0.1865 -1.1760
  285MOL0     H37577   5.786   4.370   9.538 -1.3547  0.7535  0.1908
  285MOL0     H37578   5.612   4.606   9.462 -2.9572  2.0902  3.6609
  285MOL0     H37579   5.555   4.463   9.543  1.8349 -2.0783  0.8561
  285MOL0     H37580   5.769   4.638   9.644 -0.4023 -0.1006 -1.8829
  285MOL0     H37581   5.734   4.480   9.716 -0.6167 -0.3742  0.5169
  285MOL0     H37582   5.373   4.731   9.842  2.2276  1.5223  3.4383
  285MOL0     H37583   5.196   4.609   9.947  2.0372  1.2578  1.0580
  285MOL0     H37584   5.314   3.962  10.028  1.8218  0.3800  2.0415
  285MOL0     H37585   5.249   3.800  10.172  2.4146  1.0247 -0.9048
  285MOL0     H37586   4.875   3.787  10.400 -0.1052  0.7041 -0.4791
  285MOL0     H37587   4.953   3.904  10.495 -0.4929 -0.5270 -1.0425
  285MOL0     H37588   4.928   3.717  10.650  2.1652 -1.1042  1.4389
  285MOL0     H37589   5.096   3.687  10.595 -1.8783 -0.6161  3.1934
  285MOL0     H37590   5.011   3.557  10.410  1.9785  3.5287  1.7730
  285MOL0     H37591   4.859   3.571  10.472  1.0162  1.7971 -3.7761
  285MOL0     H37592   4.949   3.355  10.563  0.0577 -1.5122  1.5075
  285MOL0     H37593   5.089   3.440  10.624  0.5400 -2.6037 -1.8483
  285MOL0     H37594   4.812   3.517  10.712  1.6188 -0.0927 -2.6546
  285MOL0     H37595   4.966   3.556  10.787  2.0979 -2.2944  1.0861
  285MOL0     H37596   5.010   3.338  10.851 -0.4545 -0.4298  0.4439
  285MOL0     H37597   4.873   3.260  10.779  3.4074 -1.4593  0.5033
  285MOL0     H37598   4.850   3.489  10.994 -1.0526 -0.3856  1.8124
  285MOL0     H37599   4.734   3.365  10.939  0.7991 -1.3222 -1.5219
  285MOL0     H37600   4.984   3.278  11.092  0.0334  0.5320  0.4894
  285MOL0     H37601   4.834   3.197  11.074  0.2837  0.5853 -3.3969
  285MOL0     H37602   4.928   4.038  10.338  0.7588  1.2470  0.1019
  285MOL0     H37603   4.985   4.208  10.154 -0.5121  0.1245 -1.1210
  285MOL0     H37604   5.390   4.243   9.890 -3.6351 -1.0790  1.3866
  285MOL0     H37605   5.564   4.352   9.748  0.9192  0.2671 -0.1240
  285MOL0     H37606   5.947   3.932   8.796  0.8268 -1.0175  0.9713
  285MOL0     H37607   6.006   3.998   8.559 -0.8997  0.2056  1.4079
  285MOL0     H37608   6.243   4.115   8.135 -1.0724 -0.0227 -0.1440
  285MOL0     H37609   6.243   4.084   7.901  1.7375 -0.9833  0.5276
  285MOL0     H37610   6.273   3.661   7.741 -2.1348  0.7127  1.7184
  285MOL0     H37611   6.398   3.778   7.797 -0.9753  2.9139 -0.1143
  285MOL0     H37612   6.408   3.723   7.539 -1.9949 -0.3048 -2.4772
  285MOL0     H37613   6.270   3.824   7.529  1.3964 -1.8402 -2.5536
  285MOL0     H37614   6.528   3.921   7.654  1.4386  0.2044 -1.8950
  285MOL0     H37615   6.381   4.018   7.609  0.9351  0.3756  1.4026
  285MOL0     H37616   6.447   3.913   7.359  0.8607  2.8564 -2.6429
  285MOL0     H37617   6.558   4.038   7.410  0.0465 -0.0014 -0.2996
  285MOL0     H37618   6.797   3.683   7.467  0.1782  0.4944  0.1054
  285MOL0     H37619   6.111   3.675   7.962  1.8799 -1.5481  4.4103
  285MOL0     H37620   6.095   3.715   8.196  1.0848 -0.4367  0.0447
  286MOL0     O37621   7.902   4.881   0.696  0.0495 -0.0197 -0.7101
  286MOL0     C37622   7.988   4.942   0.628  0.7926  0.2928 -0.4615
  286MOL0     O37623   8.037   5.059   0.671 -0.3683  0.2267  0.5252
  286MOL0     C37624   7.965   5.141   0.744  0.6647 -0.0860  0.9503
  286MOL0     C37625   7.829   5.151   0.721  0.1329 -0.0955 -0.5982
  286MOL0     C37626   7.760   5.239   0.810  0.1702  0.4905  0.0866
  286MOL0     C37627   7.825   5.319   0.904  0.2279  0.8237 -0.4203
  286MOL0     O37628   7.757   5.410   0.981 -0.0337  0.3157  0.8234
  286MOL0     C37629   7.813   5.477   1.093  0.3497  0.8100  0.1458
  286MOL0     C37630   7.698   5.548   1.155 -0.6102  0.0922 -0.5619
  286MOL0     C37631   7.580   5.453   1.206 -0.1863 -1.3978 -1.5372
  286MOL0     C37632   7.479   5.411   1.097 -0.5783  0.0899  0.5651
  286MOL0     C37633   7.334   5.371   1.141 -0.1629 -0.4180  0.2766
  286MOL0     C37634   7.249   5.342   1.010 -0.7323 -0.1474  0.1154
  286MOL0     C37635   7.285   5.207   0.944 -0.3441 -0.1226  0.8009
  286MOL0     C37636   7.231   5.179   0.804 -0.8663  0.3555 -0.0179
  286MOL0     N37637   7.305   5.069   0.732  0.1502  0.2034  0.8431
  286MOL0     C37638   7.342   4.938   0.765  0.8360  0.3899 -1.2539
  286MOL0     C37639   7.406   4.885   0.657  0.3351  0.4696  0.3072
  286MOL0     C37640   7.450   4.741   0.650  0.0997 -1.1882 -0.6249
  286MOL0     C37641   7.606   4.746   0.627  1.2917 -0.7943  0.5984
  286MOL0     C37642   7.680   4.604   0.651 -0.0954 -0.2907 -0.6671
  286MOL0     C37643   7.719   4.595   0.800  0.2693 -0.0921  0.2087
  286MOL0     O37644   7.776   4.465   0.822 -0.0385  0.7898 -0.8692
  286MOL0     C37645   7.896   4.434   0.762 -0.1536  0.5002  0.8897
  286MOL0     C37646   8.006   4.491   0.810 -0.4752  0.5845  0.6692
  286MOL0     C37647   8.132   4.471   0.743  0.4496 -0.1609 -0.2739
  286MOL0     C37648   8.136   4.407   0.617 -0.2508  0.0108  0.0830
  286MOL0     C37649   8.248   4.390   0.527  0.2186 -0.3806 -0.4163
  286MOL0     O37650   8.351   4.450   0.578 -0.8126  0.0986  0.0992
  286MOL0     C37651   8.456   4.489   0.498 -0.3483  0.0729  0.1259
  286MOL0     C37652   8.580   4.421   0.520  0.4212 -1.0515 -0.8761
  286MOL0     C37653   8.696   4.449   0.450  0.5913  0.9316 -0.6452
  286MOL0     C37654   8.698   4.557   0.360  0.0453  0.2667 -0.0022
  286MOL0     O37655   8.816   4.582   0.290  0.0503 -0.1917  0.4325
  286MOL0     C37656   8.818   4.687   0.197  0.1768 -0.7083  0.5165
  286MOL0     C37657   8.953   4.687   0.142 -0.1791  0.9187  0.2898
  286MOL0     C37658   8.988   4.786   0.030 -0.2836  0.3989 -0.8679
  286MOL0     C37659   8.873   4.806  -0.068  0.4633  0.3425 -0.3817
  286MOL0     C37660   8.885   4.905  -0.187 -0.3533  0.1897 -1.0619
  286MOL0     C37661   8.768   4.902  -0.277 -0.4728 -0.8194  0.1679
  286MOL0     C37662   8.762   5.011  -0.383 -1.4917  0.1452 -0.0160
  286MOL0     C37663   8.873   5.114  -0.404 -0.4281  0.0186 -0.0410
  286MOL0    Cl37664   9.012   5.045  -0.498  0.4639 -0.1000  0.2959
  286MOL0     C37665   8.576   4.638   0.362 -0.5548 -0.5628  0.5891
  286MOL0     C37666   8.456   4.597   0.419 -0.5333  0.1786 -0.6578
  286MOL0     O37667   8.230   4.362   0.406 -0.1181 -0.0044  0.8100
  286MOL0     C37668   8.015   4.357   0.568 -0.4184  0.1477 -0.5423
  286MOL0     C37669   7.900   4.363   0.645  0.6272 -0.1128 -0.2164
  286MOL0     N37670   7.410   4.982   0.557 -0.0794 -0.4683 -0.3241
  286MOL0     N37671   7.358   5.089   0.604 -0.3014  0.1086 -0.7742
  286MOL0     C37672   7.964   5.296   0.927 -0.8713 -1.3424 -0.1280
  286MOL0     C37673   8.040   5.218   0.837  1.1109 -0.1659  0.4856
  286MOL0     C37674   8.054   4.887   0.509  1.1753 -0.0275 -0.6728
  286MOL0     C37675   8.135   4.961   0.427  0.0725 -0.7436 -0.0448
  286MOL0     C37676   8.186   4.908   0.309  0.6778 -0.2626 -0.0815
  286MOL0     C37677   8.172   4.771   0.280 -0.2356 -0.2416 -0.9492
  286MOL0     O37678   8.224   4.721   0.164 -0.2892  0.5448 -0.1275
  286MOL0     C37679   8.211   4.587   0.135  0.0031  1.6198 -0.2177
  286MOL0     C37680   8.333   4.547   0.041  0.1831  0.0360  0.0659
  286MOL0     C37681   8.340   4.396   0.019  0.5275  0.2747 -0.0712
  286MOL0     C37682   8.311   4.365  -0.126 -0.1231  0.0482  0.3378
  286MOL0     C37683   8.163   4.355  -0.152 -0.0948  0.6332 -1.0471
  286MOL0     C37684   8.038   4.339  -0.152 -0.6750  0.2289  0.1409
  286MOL0     C37685   8.106   4.695   0.375  0.1609 -0.0052  0.1105
  286MOL0     C37686   8.050   4.748   0.494 -1.0694  0.1945  0.6781
  286MOL0     H37687   7.764   5.089   0.659 -1.5347  1.7397 -0.7667
  286MOL0     H37688   7.653   5.239   0.793 -0.0344 -2.9987  0.6206
  286MOL0     H37689   7.885   5.554   1.062 -1.6408  1.9144 -1.9837
  286MOL0     H37690   7.854   5.398   1.157 -2.8542 -2.9635 -2.0677
  286MOL0     H37691   7.657   5.611   1.076 -1.9439  0.3879  0.3161
  286MOL0     H37692   7.736   5.601   1.243  0.2067  0.0078 -0.8605
  286MOL0     H37693   7.521   5.518   1.272  0.9042  2.2100 -3.8144
  286MOL0     H37694   7.629   5.373   1.263  0.3286  0.9115  1.5816
  286MOL0     H37695   7.459   5.491   1.026 -4.1545  0.3968  1.7178
  286MOL0     H37696   7.537   5.334   1.045 -1.1837  0.1744 -0.2508
  286MOL0     H37697   7.285   5.456   1.189  2.6678  1.0640  0.7331
  286MOL0     H37698   7.341   5.291   1.215 -1.9341  0.0493  0.9899
  286MOL0     H37699   7.263   5.429   0.946 -1.9857 -0.2182 -0.2780
  286MOL0     H37700   7.144   5.336   1.042 -0.5932 -0.7786  0.4679
  286MOL0     H37701   7.393   5.193   0.952 -0.5626 -0.8138  4.7226
  286MOL0     H37702   7.244   5.130   1.011  6.8988 -4.4350  1.2929
  286MOL0     H37703   7.250   5.274   0.754  1.4958  0.7229  1.4791
  286MOL0     H37704   7.124   5.156   0.794 -0.2123 -2.1970 -2.3710
  286MOL0     H37705   7.307   4.890   0.855  1.0266  0.9345 -0.8812
  286MOL0     H37706   7.400   4.700   0.563 -3.2895  1.5501 -0.1776
  286MOL0     H37707   7.431   4.685   0.742  0.1888 -0.8343 -0.3859
  286MOL0     H37708   7.660   4.822   0.683  2.2948 -0.5767 -0.6234
  286MOL0     H37709   7.620   4.788   0.527  1.8642  3.8687  2.4083
  286MOL0     H37710   7.610   4.523   0.627 -1.5884  0.4257  1.0588
  286MOL0     H37711   7.774   4.600   0.595  0.9684 -0.9429  1.0899
  286MOL0     H37712   7.626   4.598   0.858 -0.4622  2.5558 -0.9874
  286MOL0     H37713   7.783   4.678   0.829 -0.7549  1.1003 -0.8593
  286MOL0     H37714   7.997   4.543   0.905 -2.0509  0.8188  0.4157
  286MOL0     H37715   8.223   4.507   0.788  0.8520 -1.5058  0.0305
  286MOL0     H37716   8.597   4.341   0.592  2.5572  0.7069  0.6991
  286MOL0     H37717   8.780   4.382   0.465 -0.0903  0.4760  1.3876
  286MOL0     H37718   8.807   4.783   0.248  0.5327 -0.6258  0.4370
  286MOL0     H37719   8.740   4.682   0.121  0.7033  2.5838 -0.3721
  286MOL0     H37720   8.967   4.586   0.103 -1.3751 -0.4326  3.1235
  286MOL0     H37721   9.017   4.695   0.230  2.4780 -0.2871 -1.4019
  286MOL0     H37722   9.082   4.748  -0.011  0.3313 -0.7477  1.4344
  286MOL0     H37723   9.017   4.881   0.076  0.2125 -1.2919  2.6979
  286MOL0     H37724   8.844   4.705  -0.097 -2.1400  0.7768  0.3473
  286MOL0     H37725   8.786   4.839  -0.009 -0.2444 -1.5905 -0.2724
  286MOL0     H37726   8.985   4.892  -0.231  0.8751  2.6953  0.7227
  286MOL0     H37727   8.894   5.005  -0.145 -2.1228  0.2330 -0.7195
  286MOL0     H37728   8.675   4.903  -0.219  1.1572 -0.6491  2.8931
  286MOL0     H37729   8.771   4.801  -0.320  0.5845 -1.5671  1.9120
  286MOL0     H37730   8.745   4.954  -0.476  1.8738 -0.5781 -0.3056
  286MOL0     H37731   8.670   5.069  -0.392 -0.7634  1.0567 -2.6499
  286MOL0     H37732   8.919   5.143  -0.309 -2.4742 -2.3136  1.7877
  286MOL0     H37733   8.822   5.199  -0.452 -1.3980 -2.0585 -2.9842
  286MOL0     H37734   8.576   4.728   0.301 -3.1254 -0.1005  1.1459
  286MOL0     H37735   8.377   4.671   0.410  2.0005  2.9528 -1.5585
  286MOL0     H37736   8.010   4.305   0.473 -2.4350  0.3199 -0.5735
  286MOL0     H37737   7.807   4.330   0.600  1.1874  0.9549 -2.3099
  286MOL0     H37738   8.012   5.358   1.003  0.4547 -2.7966  0.2705
  286MOL0     H37739   8.142   5.198   0.867 -0.0246 -1.5560  3.8764
  286MOL0     H37740   8.147   5.069   0.433  0.0242 -0.8152  2.1683
  286MOL0     H37741   8.239   4.968   0.235  1.6010  0.6988  1.3080
  286MOL0     H37742   8.113   4.573   0.087  0.2783 -0.4783 -0.2504
  286MOL0     H37743   8.218   4.520   0.221 -0.8477  2.5403  0.5915
  286MOL0     H37744   8.318   4.596  -0.055 -2.0304 -2.3152 -0.9112
  286MOL0     H37745   8.423   4.583   0.090  0.4304 -0.7839  0.2318
  286MOL0     H37746   8.284   4.332   0.088 -1.0854  0.6681 -0.9592
  286MOL0     H37747   8.444   4.377   0.047  0.7092  2.5854  1.1409
  286MOL0     H37748   8.364   4.435  -0.193  0.2806 -0.3898  0.1893
  286MOL0     H37749   8.342   4.263  -0.153 -0.6192  0.2376 -1.0029
  286MOL0     H37750   7.932   4.341  -0.169 -0.4300 -1.6044 -2.1714
  286MOL0     H37751   8.091   4.588   0.369 -1.3489 -0.0481  3.2022
  286MOL0     H37752   7.980   4.693   0.556 -2.7963  0.9566 -0.5096
  287MOL0     O37753   9.690  10.662   8.979  0.1209 -0.5666 -1.1209
  287MOL0     C37754   9.803  10.710   9.013  0.4260 -0.8002  0.1340
  287MOL0     O37755   9.827  10.801   9.106  0.3452  0.4364  0.0544
  287MOL0     C37756   9.741  10.809   9.216  0.8057 -0.9829  0.1012
  287MOL0     C37757   9.605  10.819   9.202 -0.2145  0.1864  0.6414
  287MOL0     C37758   9.518  10.843   9.311 -1.0345 -0.4473  0.1510
  287MOL0     C37759   9.574  10.851   9.442 -0.1119  0.3796  0.0397
  287MOL0     O37760   9.491  10.883   9.539 -0.1835  0.8677  0.4083
  287MOL0     C37761   9.522  10.852   9.669  0.5989  0.1448  0.6750
  287MOL0     C37762   9.569  10.975   9.739 -0.4660  0.0194 -0.8918
  287MOL0     C37763   9.477  11.098   9.734  0.7950 -0.0572  1.0354
  287MOL0     C37764   9.331  11.065   9.767  0.2712  0.6418  0.2726
  287MOL0     C37765   9.240  11.193   9.805 -0.3211 -0.3940 -0.9344
  287MOL0     C37766   9.203  11.267   9.672 -0.1748  0.5945 -0.2204
  287MOL0     C37767   9.101  11.379   9.687 -0.6227  0.2748 -0.8331
  287MOL0     C37768   8.962  11.333   9.667  0.9219  0.3220 -0.6317
  287MOL0     N37769   8.862  11.370   9.774 -0.3770  0.4540 -0.0542
  287MOL0     C37770   8.847  11.316   9.902 -0.0894  0.3421  0.0705
  287MOL0     C37771   8.736  11.370   9.950  0.1226 -1.0768  0.6230
  287MOL0     C37772   8.676  11.336  10.096  1.0015 -0.1636  0.7784
  287MOL0     C37773   8.628  11.463  10.166 -0.2049 -0.0278 -0.6391
  287MOL0     C37774   8.573  11.457  10.303 -0.3711  0.3155 -0.5888
  287MOL0     C37775   8.460  11.363  10.319  0.5281 -0.3029  0.3914
  287MOL0     O37776   8.345  11.392  10.227 -0.0180 -0.7073 -0.0490
  287MOL0     C37777   8.236  11.471  10.265  1.0256  0.5877 -0.1404
  287MOL0     C37778   8.192  11.579  10.189 -0.0744 -0.7848 -0.5618
  287MOL0     C37779   8.084  11.669  10.242  0.0087 -0.8436  0.2966
  287MOL0     C37780   8.005  11.620  10.350  0.3601  0.3149 -0.1412
  287MOL0     C37781   7.908  11.723  10.414 -0.9350 -0.4395  0.2851
  287MOL0     O37782   7.914  11.857  10.368  0.0063 -0.2290  0.2053
  287MOL0     C37783   7.792  11.913  10.388 -0.0469 -0.6822 -0.3714
  287MOL0     C37784   7.771  12.008  10.487 -0.6750  0.5987 -0.0576
  287MOL0     C37785   7.645  12.059  10.517 -0.8006  0.1111  0.7223
  287MOL0     C37786   7.539  12.033  10.431 -0.7362  0.2817 -0.4234
  287MOL0     O37787   7.428  12.107  10.450  0.7011 -0.1711 -0.0014
  287MOL0     C37788   7.323  12.050  10.521  1.2450 -0.6280  0.3961
  287MOL0     C37789   7.203  12.143  10.559  0.6961  0.4838 -1.0947
  287MOL0     C37790   7.106  12.063  10.658 -0.5024  0.3919  0.7207
  287MOL0     C37791   7.041  11.928  10.610  0.2789 -0.4260 -0.0725
  287MOL0     C37792   6.932  11.861  10.699 -0.6184 -0.1581  0.0224
  287MOL0     C37793   6.876  11.745  10.631  1.4938 -0.0001  0.5232
  287MOL0     C37794   6.761  11.664  10.707 -0.1531  0.1458 -0.1818
  287MOL0     C37795   6.701  11.569  10.607 -0.3982 -0.5613  0.4336
  287MOL0    Cl37796   6.599  11.633  10.470 -0.6867 -0.7245  0.2711
  287MOL0     C37797   7.560  11.958  10.314  0.2211  0.3960 -0.0451
  287MOL0     C37798   7.689  11.902  10.288  0.8437 -0.1474  0.4731
  287MOL0     O37799   7.842  11.681  10.500  0.2451  0.0152 -0.8966
  287MOL0     C37800   8.046  11.513  10.425  0.7226  0.5195 -0.6034
  287MOL0     C37801   8.157  11.432  10.379  0.5545  0.9805  0.7654
  287MOL0     N37802   8.673  11.441   9.852 -0.4870  0.9592 -1.1669
  287MOL0     N37803   8.751  11.441   9.748  0.0963  0.5949 -0.2419
  287MOL0     C37804   9.712  10.845   9.461  0.1460 -0.9121  0.9225
  287MOL0     C37805   9.787  10.811   9.345 -0.6895  0.5540  0.1619
  287MOL0     C37806   9.935  10.670   8.940  0.8878  0.5251  0.7819
  287MOL0     C37807   9.946  10.634   8.801 -0.1939  0.1093  0.2737
  287MOL0     C37808  10.077  10.607   8.753 -0.3919 -0.1076  0.3097
  287MOL0     C37809  10.193  10.632   8.831  0.7299 -0.2211 -0.3243
  287MOL0     O37810  10.314  10.614   8.774 -1.0035  0.1443 -0.5403
  287MOL0     C37811  10.382  10.494   8.805 -0.9079 -0.3649 -0.9273
  287MOL0     C37812  10.536  10.539   8.820 -0.2969 -0.3271  0.1541
  287MOL0     C37813  10.615  10.408   8.831 -1.5435  0.6084 -0.1522
  287MOL0     C37814  10.629  10.386   8.986  0.2206 -0.2687  1.6595
  287MOL0     C37815  10.731  10.279   9.008  0.2280  1.2469 -1.3574
  287MOL0     C37816  10.809  10.195   9.045 -0.6173 -0.7062  0.6054
  287MOL0     C37817  10.175  10.656   8.966 -0.7001 -0.1995  0.4898
  287MOL0     C37818  10.042  10.674   9.023 -1.5221 -0.9482  0.5827
  287MOL0     H37819   9.570  10.828   9.099 -0.4593  2.8604  0.9111
  287MOL0     H37820   9.416  10.872   9.287 -0.9340 -1.0819 -1.1290
  287MOL0     H37821   9.597  10.772   9.665  1.9914  1.4412 -0.1966
  287MOL0     H37822   9.443  10.803   9.727  4.1352 -3.4592  3.0283
  287MOL0     H37823   9.668  10.994   9.695 -0.0473 -1.1607 -0.5088
  287MOL0     H37824   9.581  10.952   9.845  0.7342  0.5360 -0.8928
  287MOL0     H37825   9.475  11.141   9.633  0.6846 -0.0237  1.0512
  287MOL0     H37826   9.518  11.168   9.807  3.0458 -0.5896  0.3719
  287MOL0     H37827   9.291  11.009   9.681  0.0276  1.6727 -0.3079
  287MOL0     H37828   9.327  11.001   9.855  0.3134  0.1573 -0.0751
  287MOL0     H37829   9.294  11.267   9.864 -1.2618  0.4692 -1.1312
  287MOL0     H37830   9.147  11.161   9.852 -0.0885 -1.1030 -0.9394
  287MOL0     H37831   9.163  11.199   9.596 -0.8001 -0.5247  1.0550
  287MOL0     H37832   9.295  11.315   9.638 -1.7466  3.4584 -0.7882
  287MOL0     H37833   9.102  11.420   9.789 -2.2557 -1.9776  0.1766
  287MOL0     H37834   9.122  11.461   9.618  1.6949 -1.5847 -2.5162
  287MOL0     H37835   8.952  11.225   9.661  1.5531  0.1091  1.3836
  287MOL0     H37836   8.915  11.369   9.575  1.7858  0.3443 -1.0736
  287MOL0     H37837   8.910  11.244   9.953 -0.3901  0.6679  0.9174
  287MOL0     H37838   8.751  11.283  10.157 -2.2055 -3.4433  2.2388
  287MOL0     H37839   8.594  11.264  10.085 -0.8508  1.9461  0.2008
  287MOL0     H37840   8.560  11.513  10.097 -1.4381 -1.8010 -0.7764
  287MOL0     H37841   8.712  11.533  10.170  0.1657 -0.5036  0.1564
  287MOL0     H37842   8.656  11.441  10.372 -0.3066 -1.3069 -1.0166
  287MOL0     H37843   8.532  11.556  10.327  0.4565  0.4732  0.2342
  287MOL0     H37844   8.428  11.356  10.424 -0.2884  0.2089  0.1818
  287MOL0     H37845   8.494  11.263  10.292 -3.3079 -1.2652 -1.4848
  287MOL0     H37846   8.253  11.602  10.102  2.0214  0.4353  1.1384
  287MOL0     H37847   8.070  11.758  10.182 -1.2794  0.5449  2.4811
  287MOL0     H37848   7.858  12.052  10.534  0.8857  1.3808 -3.3782
  287MOL0     H37849   7.628  12.144  10.583  1.2180  2.0594 -1.1157
  287MOL0     H37850   7.364  12.008  10.613 -0.5946  3.7773  3.5791
  287MOL0     H37851   7.270  11.974  10.464 -0.5818 -1.3851  2.9062
  287MOL0     H37852   7.140  12.157  10.471 -0.1115 -1.8733 -0.9753
  287MOL0     H37853   7.239  12.235  10.605 -0.3574 -0.2508  1.3647
  287MOL0     H37854   7.026  12.136  10.673 -1.2129 -0.4830  1.3164
  287MOL0     H37855   7.157  12.046  10.753  0.7586  4.0812  0.8502
  287MOL0     H37856   6.986  11.946  10.517 -3.6027 -2.2948  1.6579
  287MOL0     H37857   7.122  11.863  10.576  2.0108  1.7995 -0.5097
  287MOL0     H37858   6.850  11.930  10.720 -1.8259 -1.3873 -0.5256
  287MOL0     H37859   6.979  11.830  10.792 -0.6441  0.4924  0.2578
  287MOL0     H37860   6.946  11.666  10.599  0.6086 -0.1889 -1.0543
  287MOL0     H37861   6.824  11.785  10.544  2.7379 -0.1937 -0.3336
  287MOL0     H37862   6.809  11.609  10.789 -1.4402 -0.3108  0.2891
  287MOL0     H37863   6.682  11.725  10.752  1.6994  0.4706  2.9504
  287MOL0     H37864   6.638  11.497  10.661 -2.0479  1.7517  1.7986
  287MOL0     H37865   6.785  11.516  10.561  1.2974  1.5339  0.9471
  287MOL0     H37866   7.479  11.955  10.242 -1.7610  3.0012  1.8968
  287MOL0     H37867   7.696  11.838  10.200 -1.8057  1.2567 -0.9173
  287MOL0     H37868   7.984  11.498  10.513 -0.0247 -0.0286 -1.2104
  287MOL0     H37869   8.163  11.341  10.438 -4.4878  2.1746  3.7022
  287MOL0     H37870   9.764  10.863   9.555 -0.8168  2.7548  0.9085
  287MOL0     H37871   9.895  10.804   9.353 -0.6521  2.0459  1.5257
  287MOL0     H37872   9.855  10.627   8.743 -0.1470  0.9638  0.0818
  287MOL0     H37873  10.072  10.572   8.651  0.1234 -0.3572  0.3707
  287MOL0     H37874  10.370  10.435   8.714 -2.4370  0.6981 -1.4618
  287MOL0     H37875  10.333  10.451   8.893  2.4288  0.9883  1.8329
  287MOL0     H37876  10.553  10.589   8.724 -1.7272  3.1297  1.5505
  287MOL0     H37877  10.563  10.613   8.896  1.1719 -1.2294  0.5450
  287MOL0     H37878  10.709  10.427   8.778 -2.0213 -1.0392 -1.6575
  287MOL0     H37879  10.581  10.317   8.781  0.6591  0.7868 -2.1731
  287MOL0     H37880  10.663  10.479   9.031 -1.9230  3.2590 -3.0346
  287MOL0     H37881  10.534  10.360   9.035 -2.3551  2.4145 -1.4257
  287MOL0     H37882  10.878  10.119   9.078 -2.2296 -3.1335 -1.2257
  287MOL0     H37883  10.263  10.670   9.028 -0.5497  1.1248  0.0116
  287MOL0     H37884  10.038  10.707   9.126 -0.8546  1.1477 -0.0087
  288MOL0     O37885   2.542  10.334   6.148  0.2008  0.2404 -0.5738
  288MOL0     C37886   2.494  10.220   6.174 -0.3174 -0.0054  0.8018
  288MOL0     O37887   2.386  10.189   6.246 -0.5856  0.6226 -0.4513
  288MOL0     C37888   2.306  10.300   6.281 -0.1550 -0.1436 -0.4311
  288MOL0     C37889   2.222  10.366   6.194  0.3556  0.2836  0.1033
  288MOL0     C37890   2.160  10.481   6.236  0.3058  0.6008  0.2503
  288MOL0     C37891   2.178  10.536   6.366 -0.1999  0.3338  0.4616
  288MOL0     O37892   2.109  10.649   6.409 -0.0059 -0.0309  0.2224
  288MOL0     C37893   2.128  10.760   6.320 -0.2533 -0.2601 -0.4463
  288MOL0     C37894   2.062  10.886   6.386  0.3611  0.1306 -0.1277
  288MOL0     C37895   2.075  11.006   6.292 -0.1115 -0.1121  1.2610
  288MOL0     C37896   1.986  11.115   6.340 -0.4174 -0.8386 -0.1636
  288MOL0     C37897   2.037  11.248   6.274 -0.5907  0.7252 -0.5131
  288MOL0     C37898   1.944  11.358   6.326  0.7622  0.2243 -0.0701
  288MOL0     C37899   1.996  11.506   6.309 -0.5956 -0.4605 -0.4433
  288MOL0     C37900   2.031  11.534   6.161 -0.5776 -0.9596  0.0960
  288MOL0     N37901   2.091  11.667   6.149 -0.2228 -0.7442 -0.8727
  288MOL0     C37902   2.200  11.722   6.211  0.0138  0.3567  0.4737
  288MOL0     C37903   2.218  11.838   6.163 -0.8963  0.3789  0.7578
  288MOL0     C37904   2.326  11.935   6.199 -0.3104 -0.3356  0.2156
  288MOL0     C37905   2.254  12.049   6.282 -1.1458  0.8497 -0.4733
  288MOL0     C37906   2.187  12.157   6.199  0.1582 -0.4299 -0.4017
  288MOL0     C37907   2.273  12.288   6.188 -0.9969 -0.8486  0.5042
  288MOL0     O37908   2.399  12.272   6.116 -0.3832 -0.6298  0.0587
  288MOL0     C37909   2.478  12.379   6.084 -0.2210 -0.0153  0.4798
  288MOL0     C37910   2.562  12.361   5.972  0.2799 -0.4395  0.3145
  288MOL0     C37911   2.658  12.457   5.946 -0.3982  0.4417  0.8006
  288MOL0     C37912   2.664  12.579   6.031  0.8624  0.0371  0.0351
  288MOL0     C37913   2.753  12.685   5.995 -0.4123 -0.6732 -0.3238
  288MOL0     O37914   2.709  12.818   6.023 -0.1722  0.3946  0.1595
  288MOL0     C37915   2.776  12.929   5.976  1.2950  0.5154 -1.1501
  288MOL0     C37916   2.793  13.035   6.059  0.2981 -0.9841  0.6380
  288MOL0     C37917   2.862  13.155   6.009  0.4365  0.2461 -0.0497
  288MOL0     C37918   2.906  13.161   5.876  0.0531  0.3576  0.3785
  288MOL0     O37919   2.974  13.273   5.835  0.4485  0.6322 -0.3073
  288MOL0     C37920   2.983  13.285   5.696  0.0468 -0.2516  0.8352
  288MOL0     C37921   3.028  13.426   5.658 -1.0917  0.4268  0.5492
  288MOL0     C37922   3.054  13.434   5.502 -0.5156 -0.3602 -0.0958
  288MOL0     C37923   3.054  13.580   5.442  0.0681  0.3873  0.5501
  288MOL0     C37924   3.141  13.678   5.507 -0.4517 -0.6096 -0.1338
  288MOL0     C37925   3.296  13.670   5.477  0.6662 -0.2443 -0.4200
  288MOL0     C37926   3.379  13.790   5.519  0.3049 -0.0749  0.1331
  288MOL0     C37927   3.373  13.803   5.672 -1.1012 -0.8342  0.0122
  288MOL0    Cl37928   3.438  13.969   5.730  0.1080  0.1017 -0.2180
  288MOL0     C37929   2.889  13.041   5.798 -0.6813  0.2262 -0.3560
  288MOL0     C37930   2.830  12.933   5.858  1.0994 -0.0320  0.5036
  288MOL0     O37931   2.852  12.656   5.926  0.1475 -0.0509 -0.4642
  288MOL0     C37932   2.565  12.603   6.124  0.8062 -0.6653 -0.3202
  288MOL0     C37933   2.465  12.502   6.142  0.0358  0.4850  0.0172
  288MOL0     N37934   2.127  11.862   6.064  0.2916  0.1084  0.4006
  288MOL0     N37935   2.055  11.758   6.054 -0.6034  0.4258  0.9019
  288MOL0     C37936   2.268  10.466   6.456  0.4442 -0.3006  0.5188
  288MOL0     C37937   2.333  10.352   6.405 -0.6029 -0.1551  0.3177
  288MOL0     C37938   2.592  10.104   6.150  0.5873  0.2811  0.2600
  288MOL0     C37939   2.575   9.973   6.208 -0.7189 -0.6402 -0.0976
  288MOL0     C37940   2.658   9.870   6.174 -0.3779 -0.0961 -1.0663
  288MOL0     C37941   2.780   9.897   6.103  0.0911  0.3818  1.7713
  288MOL0     O37942   2.881   9.804   6.081  0.2433 -0.5537 -0.7391
  288MOL0     C37943   2.850   9.669   6.076 -0.1104  0.1994  0.2298
  288MOL0     C37944   2.754   9.635   5.957  0.7312 -0.0461 -0.5488
  288MOL0     C37945   2.765   9.485   5.917 -0.0931  0.5615  0.4783
  288MOL0     C37946   2.642   9.436   5.832 -0.5925  0.6310  0.1681
  288MOL0     C37947   2.521   9.425   5.906 -0.3948  0.2021 -0.1035
  288MOL0     C37948   2.414   9.404   5.958  0.7765  0.5652 -1.2402
  288MOL0     C37949   2.797  10.022   6.047  1.0622  1.0456 -0.5720
  288MOL0     C37950   2.706  10.124   6.072  0.6069  0.0716 -0.2862
  288MOL0     H37951   2.212  10.308   6.103  1.2745  1.0176 -0.4787
  288MOL0     H37952   2.089  10.522   6.166  2.4661 -1.9172 -3.7993
  288MOL0     H37953   2.066  10.741   6.232  0.2421  0.4413 -0.9508
  288MOL0     H37954   2.233  10.776   6.294 -0.4194  1.2414 -0.2947
  288MOL0     H37955   2.115  10.908   6.479  0.6985 -1.8123  0.1725
  288MOL0     H37956   1.955  10.866   6.397  0.3216 -0.4056 -1.3340
  288MOL0     H37957   2.046  10.987   6.188 -0.0690 -0.2082  1.2668
  288MOL0     H37958   2.181  11.031   6.292 -0.1427  0.1165 -0.0825
  288MOL0     H37959   1.891  11.092   6.291  1.4100  0.1648 -4.5899
  288MOL0     H37960   1.970  11.127   6.448  2.0613 -2.9006  0.5335
  288MOL0     H37961   2.033  11.244   6.165 -0.4895 -1.0666 -0.4787
  288MOL0     H37962   2.141  11.265   6.301 -0.3030 -2.2631  0.6161
  288MOL0     H37963   1.932  11.344   6.434 -1.5069 -1.0742 -0.4085
  288MOL0     H37964   1.854  11.340   6.266  2.8902 -4.1013 -2.5064
  288MOL0     H37965   1.916  11.573   6.340 -0.0758  0.4750 -1.0621
  288MOL0     H37966   2.081  11.526   6.374 -0.2781 -1.5260 -0.5082
  288MOL0     H37967   1.954  11.516   6.085  0.7219 -2.5839 -0.9172
  288MOL0     H37968   2.119  11.474   6.136  0.8863  1.6002 -1.3423
  288MOL0     H37969   2.253  11.670   6.290  0.0572 -0.7347 -0.2415
  288MOL0     H37970   2.382  11.969   6.112 -1.2591 -0.9412 -0.6482
  288MOL0     H37971   2.398  11.894   6.270  0.3226 -0.4697 -0.5053
  288MOL0     H37972   2.330  12.083   6.353  0.6330 -3.2760 -0.1142
  288MOL0     H37973   2.175  12.004   6.344 -0.9250  1.5412  0.3275
  288MOL0     H37974   2.150  12.124   6.102  0.8644  0.3319 -0.9516
  288MOL0     H37975   2.096  12.183   6.254  0.2866  0.2795 -0.5064
  288MOL0     H37976   2.283  12.328   6.290 -0.1817 -2.3389  1.0559
  288MOL0     H37977   2.216  12.360   6.130  0.9787  0.6354  0.3069
  288MOL0     H37978   2.557  12.261   5.930  0.0733  0.5174 -2.1099
  288MOL0     H37979   2.734  12.437   5.871  2.0479 -1.1073  3.4916
  288MOL0     H37980   2.771  13.028   6.165  1.7186 -0.5735  0.9734
  288MOL0     H37981   2.878  13.247   6.065 -0.4432  1.7244 -2.0990
  288MOL0     H37982   2.879  13.284   5.664 -1.2493  2.4827  4.3911
  288MOL0     H37983   3.045  13.215   5.639 -1.3273  1.3799 -3.0022
  288MOL0     H37984   3.121  13.446   5.712  0.5634 -2.8550 -0.8019
  288MOL0     H37985   2.958  13.506   5.686  0.3438  1.6395  0.8258
  288MOL0     H37986   2.973  13.373   5.460  0.7331 -1.3978 -1.0637
  288MOL0     H37987   3.150  13.390   5.473  0.6731 -0.4599  3.4170
  288MOL0     H37988   3.091  13.563   5.341  0.3463 -1.0460  0.8679
  288MOL0     H37989   2.951  13.615   5.437  0.4221  1.2330 -2.1674
  288MOL0     H37990   3.129  13.667   5.616 -2.7027 -2.6516 -0.5034
  288MOL0     H37991   3.112  13.778   5.473 -0.3132 -0.9871 -1.4104
  288MOL0     H37992   3.311  13.654   5.370  1.7523  1.3446 -0.5473
  288MOL0     H37993   3.340  13.580   5.522 -2.7765 -1.6205  0.5389
  288MOL0     H37994   3.477  13.772   5.474  0.3900 -0.3062  0.4106
  288MOL0     H37995   3.333  13.878   5.473  0.9190 -0.1665 -0.6842
  288MOL0     H37996   3.443  13.728   5.710 -1.2973  1.0922  5.0801
  288MOL0     H37997   3.270  13.804   5.708 -1.4883  2.1815 -0.9196
  288MOL0     H37998   2.938  13.031   5.701  2.3279 -0.1968  1.0954
  288MOL0     H37999   2.815  12.842   5.800  0.3949  0.9135 -0.8346
  288MOL0     H38000   2.556  12.695   6.181  0.2865 -0.2058 -1.1315
  288MOL0     H38001   2.379  12.518   6.206 -0.1661  0.5367 -0.2660
  288MOL0     H38002   2.277  10.496   6.560 -1.1956  0.6645  0.4207
  288MOL0     H38003   2.392  10.290   6.472 -2.3726 -0.9816  1.1794
  288MOL0     H38004   2.499   9.941   6.279  1.7402 -0.8230  2.6544
  288MOL0     H38005   2.631   9.775   6.219  0.0410  1.0143  1.7099
  288MOL0     H38006   2.804   9.633   6.169 -3.2858 -0.1261 -1.3405
  288MOL0     H38007   2.941   9.609   6.065 -0.1527  0.2860 -0.6300
  288MOL0     H38008   2.656   9.679   5.980  1.2982  2.6886 -2.8639
  288MOL0     H38009   2.775   9.700   5.872 -1.3601  0.0873 -1.0181
  288MOL0     H38010   2.762   9.435   6.014  0.2193 -3.0987 -1.2145
  288MOL0     H38011   2.863   9.457   5.877 -1.4719 -0.0260 -2.8642
  288MOL0     H38012   2.626   9.496   5.742  1.1001  0.3998 -0.3080
  288MOL0     H38013   2.672   9.334   5.807  0.8390  0.3094  2.8353
  288MOL0     H38014   2.314   9.393   5.996  0.4393  0.3647 -2.1648
  288MOL0     H38015   2.890  10.046   5.997  2.9413 -2.6098  0.8229
  288MOL0     H38016   2.740  10.218   6.028  1.9081 -0.5717 -0.6880
  289MOL0     O38017   1.150   3.940   7.135 -0.3825 -0.9081  0.2164
  289MOL0     C38018   1.167   3.823   7.178  0.2924  0.5780 -0.7385
  289MOL0     O38019   1.079   3.718   7.148  0.6723 -0.1848  0.6017
  289MOL0     C38020   0.973   3.744   7.067  0.9879 -0.5445  0.1874
  289MOL0     C38021   0.840   3.724   7.115 -0.4149 -0.2510 -0.2488
  289MOL0     C38022   0.727   3.762   7.043  0.3344  0.3581  0.2581
  289MOL0     C38023   0.731   3.831   6.924  0.5797  0.1035 -0.2521
  289MOL0     O38024   0.616   3.866   6.857  0.8755  0.0870  0.0538
  289MOL0     C38025   0.584   3.996   6.893  0.6700  0.5943 -0.8127
  289MOL0     C38026   0.479   4.049   6.786  0.3911 -0.5170 -0.0286
  289MOL0     C38027   0.444   4.191   6.821 -0.4739 -0.3776  0.1476
  289MOL0     C38028   0.392   4.290   6.708 -0.5686  0.3498  0.0086
  289MOL0     C38029   0.412   4.439   6.736  0.2639  1.1126  0.3287
  289MOL0     C38030   0.387   4.539   6.623  0.2208  0.1714 -1.2817
  289MOL0     C38031   0.252   4.517   6.562  0.2809 -0.7911  0.1743
  289MOL0     C38032   0.199   4.616   6.452 -0.3435 -0.2444 -0.7890
  289MOL0     N38033   0.212   4.754   6.497  0.4133  0.2884  0.2699
  289MOL0     C38034   0.321   4.832   6.470 -0.3820  0.3370  0.3929
  289MOL0     C38035   0.309   4.934   6.557  0.3772  0.6616 -0.8780
  289MOL0     C38036   0.405   5.034   6.601 -0.5567  0.1489  0.1384
  289MOL0     C38037   0.498   4.958   6.699 -0.3747 -0.4374 -0.0186
  289MOL0     C38038   0.601   5.048   6.777 -0.1871  0.0565  0.4711
  289MOL0     C38039   0.719   4.967   6.835 -0.1866 -0.3183  0.1470
  289MOL0     O38040   0.682   4.871   6.932  0.2994 -0.2347 -0.0524
  289MOL0     C38041   0.632   4.913   7.053 -0.3379  0.8057 -0.2189
  289MOL0     C38042   0.640   5.047   7.113 -0.5238 -0.7148  1.0752
  289MOL0     C38043   0.608   5.076   7.243 -0.0470 -0.4751 -0.9816
  289MOL0     C38044   0.548   4.983   7.330  0.9848  0.0763 -0.6357
  289MOL0     C38045   0.520   5.014   7.472  0.4816 -0.2417  0.5670
  289MOL0     O38046   0.509   5.145   7.512  0.1957 -0.1370  1.2258
  289MOL0     C38047   0.521   5.164   7.648  0.2003 -0.6186  0.7515
  289MOL0     C38048   0.649   5.157   7.702  0.0626 -0.7952  0.0270
  289MOL0     C38049   0.668   5.178   7.832 -0.2199  0.5990 -0.3495
  289MOL0     C38050   0.560   5.193   7.915  0.1380 -0.3735  0.6466
  289MOL0     O38051   0.592   5.221   8.051 -0.5503 -0.4569  0.6958
  289MOL0     C38052   0.614   5.355   8.084 -0.4975  0.1544  0.0168
  289MOL0     C38053   0.491   5.445   8.080  0.7734 -0.3529  0.6805
  289MOL0     C38054   0.522   5.592   8.093  0.2664  0.9408 -0.5444
  289MOL0     C38055   0.636   5.622   8.008 -1.0174  0.6281  0.1093
  289MOL0     C38056   0.645   5.781   7.971  0.0479  0.7519 -0.6345
  289MOL0     C38057   0.769   5.809   7.895  0.7912  1.2200 -0.2264
  289MOL0     C38058   0.780   5.954   7.838 -0.5650  0.4382  0.1650
  289MOL0     C38059   0.668   5.997   7.739  0.2264 -0.6451 -0.7241
  289MOL0    Cl38060   0.694   5.938   7.564  0.1395 -0.3157  0.2324
  289MOL0     C38061   0.431   5.194   7.868  0.0362 -0.0783  0.8598
  289MOL0     C38062   0.408   5.194   7.735 -0.2911 -1.3237  0.3048
  289MOL0     O38063   0.499   4.908   7.538  0.8669 -0.2502 -0.1831
  289MOL0     C38064   0.537   4.848   7.271 -0.5775  0.2684 -0.6691
  289MOL0     C38065   0.581   4.810   7.147  0.4446 -0.5771  1.2579
  289MOL0     N38066   0.200   4.909   6.638  0.1483  0.7184 -0.2691
  289MOL0     N38067   0.140   4.805   6.602 -0.1367  0.1504  0.9269
  289MOL0     C38068   0.863   3.856   6.878  0.8803 -0.7007 -0.3739
  289MOL0     C38069   0.980   3.807   6.941 -0.4466 -0.0748  0.4572
  289MOL0     C38070   1.287   3.796   7.257  0.0180  0.4651 -0.0316
  289MOL0     C38071   1.378   3.895   7.291 -0.6266  0.0808  0.0751
  289MOL0     C38072   1.495   3.867   7.359 -0.5553 -0.3363 -0.4611
  289MOL0     C38073   1.517   3.746   7.408 -0.6796  2.2419 -0.7939
  289MOL0     O38074   1.624   3.717   7.493  0.7928 -0.2119 -1.0120
  289MOL0     C38075   1.718   3.817   7.524  0.0229  0.9787  0.4975
  289MOL0     C38076   1.827   3.734   7.613 -0.9339  0.3892  1.4095
  289MOL0     C38077   1.938   3.834   7.659 -0.6737 -0.3163 -0.4183
  289MOL0     C38078   2.054   3.753   7.722 -0.3431  0.8183  0.4196
  289MOL0     C38079   2.009   3.684   7.843  0.3349  0.0362  0.4794
  289MOL0     C38080   1.986   3.630   7.943 -0.1459 -0.1133  0.3698
  289MOL0     C38081   1.426   3.642   7.390  0.8242  0.8404  0.6648
  289MOL0     C38082   1.310   3.665   7.309 -0.8892  0.3080  0.9440
  289MOL0     H38083   0.834   3.682   7.215  1.0568  2.3593  1.0364
  289MOL0     H38084   0.639   3.728   7.096 -0.3231 -0.5425 -1.3399
  289MOL0     H38085   0.668   4.066   6.891  0.5530  0.7311 -1.0068
  289MOL0     H38086   0.537   4.016   6.989 -2.3317 -0.0451 -2.0178
  289MOL0     H38087   0.387   3.996   6.762 -1.1026  2.1549 -0.5751
  289MOL0     H38088   0.514   4.054   6.682  1.2143 -0.7811  0.2225
  289MOL0     H38089   0.522   4.234   6.885 -1.6535 -0.5499  1.7466
  289MOL0     H38090   0.370   4.178   6.900  1.6568 -4.9614  1.7453
  289MOL0     H38091   0.448   4.262   6.618 -0.6067  0.6106 -0.0964
  289MOL0     H38092   0.286   4.277   6.686 -0.5503 -2.5071  1.1624
  289MOL0     H38093   0.510   4.463   6.778  1.2527 -0.1547 -1.1724
  289MOL0     H38094   0.333   4.455   6.810  0.6236 -5.1190  2.6313
  289MOL0     H38095   0.472   4.523   6.557  0.3029 -1.7322 -0.7782
  289MOL0     H38096   0.393   4.637   6.672  0.1797  0.1867 -1.3069
  289MOL0     H38097   0.248   4.415   6.521 -1.2018 -0.5544 -0.3318
  289MOL0     H38098   0.177   4.521   6.642  1.8506 -0.0768  1.6732
  289MOL0     H38099   0.092   4.597   6.434 -0.1995 -1.4941 -0.4519
  289MOL0     H38100   0.248   4.597   6.356  0.4246  0.6986 -0.6013
  289MOL0     H38101   0.403   4.817   6.401  0.2990 -0.7238  1.3997
  289MOL0     H38102   0.360   5.123   6.648 -2.2322  1.3413 -3.3728
  289MOL0     H38103   0.455   5.077   6.514 -0.7557 -0.0608 -0.0804
  289MOL0     H38104   0.548   4.878   6.644  2.7772 -0.0215  1.9482
  289MOL0     H38105   0.441   4.913   6.781  1.3209  0.3961  1.6882
  289MOL0     H38106   0.646   5.125   6.714 -0.1835  0.4812  0.9815
  289MOL0     H38107   0.550   5.105   6.856  1.0805 -0.6897  1.8859
  289MOL0     H38108   0.800   5.037   6.860  0.2182 -1.3651  1.9269
  289MOL0     H38109   0.766   4.915   6.750 -5.2880 -1.1665 -2.5403
  289MOL0     H38110   0.675   5.114   7.035  0.4577 -3.1326 -0.7174
  289MOL0     H38111   0.639   5.173   7.281  1.0775 -1.8402  1.9103
  289MOL0     H38112   0.736   5.134   7.641  1.3500  0.0062  1.4683
  289MOL0     H38113   0.767   5.207   7.868  0.1769  3.2986 -3.2342
  289MOL0     H38114   0.698   5.378   8.017 -0.3580 -1.0950 -0.2734
  289MOL0     H38115   0.663   5.372   8.180 -2.0231 -1.3153  1.1126
  289MOL0     H38116   0.416   5.408   8.150  0.1077 -1.0813 -0.3960
  289MOL0     H38117   0.447   5.438   7.981 -0.6251 -0.2842  1.2656
  289MOL0     H38118   0.547   5.609   8.198 -0.9370  2.0844 -0.4133
  289MOL0     H38119   0.429   5.645   8.067 -1.3454 -1.4623  0.0269
  289MOL0     H38120   0.728   5.599   8.062 -2.3437 -2.2501  1.3441
  289MOL0     H38121   0.631   5.567   7.913  3.5097  1.8372 -1.0790
  289MOL0     H38122   0.642   5.846   8.059  0.1039 -3.2641  2.6852
  289MOL0     H38123   0.558   5.804   7.909 -1.9069 -1.5045  1.0449
  289MOL0     H38124   0.768   5.733   7.817 -3.0835 -0.7489  1.4842
  289MOL0     H38125   0.850   5.780   7.963 -1.5144 -2.0904  1.3671
  289MOL0     H38126   0.797   6.022   7.922 -1.2785 -1.6377  2.1053
  289MOL0     H38127   0.879   5.959   7.793 -0.0984  0.9933  1.2268
  289MOL0     H38128   0.682   6.105   7.730  0.3511 -0.6031 -0.0871
  289MOL0     H38129   0.567   5.984   7.780  0.2727  1.0622 -0.0130
  289MOL0     H38130   0.350   5.205   7.940 -0.6125 -0.0395  0.1416
  289MOL0     H38131   0.303   5.203   7.710 -0.0719 -0.1656 -0.2875
  289MOL0     H38132   0.516   4.764   7.337  0.7938 -1.3148 -2.1621
  289MOL0     H38133   0.550   4.714   7.107  0.3405 -0.3735  0.8385
  289MOL0     H38134   0.855   3.925   6.796 -1.5369 -0.6885 -0.2039
  289MOL0     H38135   1.080   3.836   6.909 -0.0498  0.5127  2.1316
  289MOL0     H38136   1.368   4.001   7.273  1.6904  0.5213  1.0707
  289MOL0     H38137   1.560   3.950   7.386 -0.9926 -0.9183  2.9295
  289MOL0     H38138   1.677   3.898   7.584  1.9508  3.4710 -1.3530
  289MOL0     H38139   1.751   3.861   7.430 -3.8536 -0.6651 -1.8834
  289MOL0     H38140   1.787   3.683   7.702  0.4958  1.2428  2.5765
  289MOL0     H38141   1.873   3.654   7.554 -1.6208  0.3677  0.8990
  289MOL0     H38142   1.900   3.897   7.739 -1.3118 -0.0779 -0.9012
  289MOL0     H38143   1.972   3.901   7.580 -1.3944 -1.6641 -1.9305
  289MOL0     H38144   2.098   3.681   7.652 -1.7482 -3.4658  3.5022
  289MOL0     H38145   2.131   3.822   7.755  3.2433 -3.6247  2.3869
  289MOL0     H38146   1.970   3.584   8.039  0.0002  1.2053  1.0476
  289MOL0     H38147   1.439   3.542   7.431 -1.8245  0.0095 -0.3334
  289MOL0     H38148   1.235   3.592   7.278 -0.7018  0.3370  0.4052
  290MOL0     O38149   3.954  11.227   5.537 -0.4677  0.1971  0.0216
  290MOL0     C38150   3.940  11.329   5.595 -0.2890 -0.9389  0.5505
  290MOL0     O38151   3.962  11.347   5.732  1.1530  0.1490  0.0425
  290MOL0     C38152   3.946  11.234   5.808 -0.5457 -0.0718 -1.1846
  290MOL0     C38153   4.055  11.148   5.816 -0.0293 -0.0549 -1.3083
  290MOL0     C38154   4.061  11.039   5.901  0.0787 -0.6262  0.5312
  290MOL0     C38155   3.948  11.011   5.987 -0.3662  0.7619  0.1337
  290MOL0     O38156   3.956  10.894   6.064 -0.3613 -0.1966  0.4333
  290MOL0     C38157   4.069  10.800   6.071  0.2451 -0.6320 -0.1615
  290MOL0     C38158   4.016  10.678   6.142  0.5561 -1.0768 -0.4163
  290MOL0     C38159   4.110  10.569   6.119 -1.5441  0.7556  1.1826
  290MOL0     C38160   4.087  10.445   6.207 -0.0616  0.4313  1.1450
  290MOL0     C38161   4.198  10.353   6.191  0.0533  0.1174 -0.2088
  290MOL0     C38162   4.181  10.237   6.289 -0.9478 -0.6442  0.4732
  290MOL0     C38163   4.051  10.163   6.293 -0.1575  0.1179  0.8379
  290MOL0     C38164   4.028  10.093   6.159 -0.7549 -1.2295  0.1696
  290MOL0     N38165   3.891  10.036   6.146 -0.0662  0.4148 -0.4969
  290MOL0     C38166   3.844   9.924   6.199 -0.2693  0.9150  0.5948
  290MOL0     C38167   3.713   9.933   6.163  0.3223 -0.4011  0.2488
  290MOL0     C38168   3.610   9.829   6.192  0.0589 -0.3926  0.1566
  290MOL0     C38169   3.602   9.803   6.339  0.9309 -0.4644  0.0965
  290MOL0     C38170   3.486   9.702   6.362 -0.4309  0.5372  0.1033
  290MOL0     C38171   3.502   9.569   6.288 -0.1604 -0.1369  0.7883
  290MOL0     O38172   3.631   9.517   6.327 -0.6318 -0.5378 -0.4186
  290MOL0     C38173   3.638   9.384   6.342  0.0496 -0.5145 -1.5963
  290MOL0     C38174   3.653   9.302   6.236 -0.0814 -0.7043 -0.2219
  290MOL0     C38175   3.675   9.166   6.251  0.4846 -0.5299  0.5379
  290MOL0     C38176   3.682   9.109   6.377 -0.8966 -0.8596  0.4616
  290MOL0     C38177   3.693   8.963   6.409  0.3609  0.2107 -0.4815
  290MOL0     O38178   3.641   8.877   6.314 -0.1257  0.0030 -0.1236
  290MOL0     C38179   3.633   8.733   6.318 -0.2640 -0.0673  0.8901
  290MOL0     C38180   3.632   8.649   6.428 -0.9797 -0.4062  0.1827
  290MOL0     C38181   3.613   8.510   6.416 -1.6781 -0.6562 -0.0104
  290MOL0     C38182   3.577   8.456   6.293  0.6088 -0.2143 -0.0510
  290MOL0     O38183   3.568   8.319   6.267 -0.0745 -0.5722  0.6998
  290MOL0     C38184   3.443   8.263   6.321  0.2238 -0.7469 -1.0012
  290MOL0     C38185   3.466   8.113   6.328 -0.2901  0.3801 -0.1568
  290MOL0     C38186   3.474   8.052   6.191 -0.0829 -0.1942  1.3578
  290MOL0     C38187   3.490   7.900   6.212  0.1189 -0.2027  0.3954
  290MOL0     C38188   3.497   7.843   6.070 -0.4289 -0.2080 -0.1891
  290MOL0     C38189   3.505   7.693   6.082 -0.2195 -0.4606  0.1228
  290MOL0     C38190   3.636   7.642   6.150  0.3948 -1.4770 -0.5442
  290MOL0     C38191   3.766   7.714   6.102 -0.0408 -0.3641 -1.8200
  290MOL0    Cl38192   3.796   7.702   5.925  0.2690  0.0583  0.1837
  290MOL0     C38193   3.588   8.544   6.179 -0.2988 -0.1558 -0.2261
  290MOL0     C38194   3.617   8.681   6.193 -0.2381  0.4048 -0.7958
  290MOL0     O38195   3.729   8.930   6.527 -0.1500 -1.0591  0.8004
  290MOL0     C38196   3.676   9.192   6.492 -0.7199 -0.7714  0.5589
  290MOL0     C38197   3.658   9.337   6.473  0.3414  0.3947 -1.3102
  290MOL0     N38198   3.677  10.048   6.093  0.6787 -0.6123 -0.5341
  290MOL0     N38199   3.794  10.111   6.095  0.3065  0.5101  0.0216
  290MOL0     C38200   3.836  11.087   5.974  0.2571 -0.7940  0.5997
  290MOL0     C38201   3.844  11.205   5.894  1.0682  0.3674 -0.5538
  290MOL0     C38202   3.906  11.450   5.515  0.1187 -0.0901 -0.3695
  290MOL0     C38203   3.879  11.439   5.375 -0.4028 -0.4178  0.2354
  290MOL0     C38204   3.837  11.560   5.304  0.0945  0.5532  0.6900
  290MOL0     C38205   3.834  11.689   5.362 -0.6599 -0.1046 -1.3365
  290MOL0     O38206   3.808  11.810   5.292 -0.0808  0.4158  0.2339
  290MOL0     C38207   3.787  11.806   5.152 -0.2247  0.1455  0.5054
  290MOL0     C38208   3.755  11.938   5.079  0.7022 -0.5577  0.4860
  290MOL0     C38209   3.860  12.041   5.113  0.8123  0.3240 -0.3644
  290MOL0     C38210   3.821  12.180   5.046  0.2101  0.8208 -0.6395
  290MOL0     C38211   3.773  12.170   4.907  0.1874  0.5585  0.1595
  290MOL0     C38212   3.737  12.175   4.793  0.6782 -0.1416  0.8732
  290MOL0     C38213   3.865  11.689   5.496 -0.3891  0.9389  0.8758
  290MOL0     C38214   3.895  11.572   5.578 -0.1095 -0.0957 -0.5257
  290MOL0     H38215   4.144  11.157   5.754  3.8588 -1.1743  3.4816
  290MOL0     H38216   4.153  10.983   5.887 -0.4082 -1.0496 -1.2698
  290MOL0     H38217   4.150  10.851   6.124 -1.3735  0.5302  1.3180
  290MOL0     H38218   4.100  10.769   5.971  1.0067 -1.0406  0.2007
  290MOL0     H38219   3.921  10.652   6.094  0.2705  1.9654 -1.7204
  290MOL0     H38220   4.003  10.699   6.248  1.9297  2.6656 -0.8481
  290MOL0     H38221   4.195  10.624   6.161  0.1886  0.2601 -1.4656
  290MOL0     H38222   4.116  10.545   6.012  0.9515  0.7688  1.2707
  290MOL0     H38223   4.086  10.483   6.309  0.1706 -0.8407  1.6396
  290MOL0     H38224   3.989  10.407   6.178  1.6900 -4.2244  0.4482
  290MOL0     H38225   4.293  10.404   6.212  0.0084 -1.1390  3.7798
  290MOL0     H38226   4.198  10.314   6.089  0.4405 -2.5729  0.7250
  290MOL0     H38227   4.191  10.280   6.389  0.5884  2.4139 -0.8561
  290MOL0     H38228   4.267  10.172   6.271 -1.4546 -0.3748 -4.3373
  290MOL0     H38229   4.057  10.081   6.365  0.2157 -2.0657 -1.5401
  290MOL0     H38230   3.967  10.230   6.313 -0.5146 -0.4448  1.2853
  290MOL0     H38231   4.089  10.002   6.158  0.2841 -0.6249  2.2702
  290MOL0     H38232   4.080  10.148   6.081  4.1304 -0.9922  3.1378
  290MOL0     H38233   3.886   9.857   6.273  0.4105  1.8709  1.0931
  290MOL0     H38234   3.634   9.742   6.130 -2.3898  1.9884 -4.7071
  290MOL0     H38235   3.512   9.860   6.153  0.9690 -0.2531 -2.1894
  290MOL0     H38236   3.594   9.886   6.410 -1.2896 -0.9568  0.4919
  290MOL0     H38237   3.690   9.744   6.366  1.1859 -0.5167 -0.8266
  290MOL0     H38238   3.475   9.675   6.467  2.3884  0.3414  0.4151
  290MOL0     H38239   3.389   9.746   6.338  1.0464  5.3252  1.9031
  290MOL0     H38240   3.484   9.574   6.180 -3.2685 -0.9306  1.1560
  290MOL0     H38241   3.421   9.508   6.329  0.3611 -1.3717  0.0501
  290MOL0     H38242   3.651   9.348   6.137 -0.7205  1.5951  0.7927
  290MOL0     H38243   3.688   9.107   6.161  2.4764 -1.3436  1.3259
  290MOL0     H38244   3.651   8.686   6.528 -2.2362 -2.1621  1.1168
  290MOL0     H38245   3.619   8.442   6.500 -1.9944 -2.7877 -1.5978
  290MOL0     H38246   3.364   8.302   6.256  1.6148  4.2837 -0.1314
  290MOL0     H38247   3.436   8.291   6.426  4.6171  0.2173 -0.7690
  290MOL0     H38248   3.391   8.057   6.384  1.1943 -1.2854  0.2331
  290MOL0     H38249   3.555   8.089   6.386  0.3743 -3.7490 -2.5296
  290MOL0     H38250   3.550   8.099   6.127 -1.8293  0.4268 -0.3459
  290MOL0     H38251   3.383   8.068   6.132  0.4875  0.4216  0.6139
  290MOL0     H38252   3.579   7.886   6.274  0.8140  6.8456  1.8602
  290MOL0     H38253   3.397   7.868   6.260 -0.6943 -0.9719 -1.5733
  290MOL0     H38254   3.586   7.885   6.020 -0.1189 -0.1632  0.3955
  290MOL0     H38255   3.410   7.861   6.006  1.1746 -0.5646 -2.5960
  290MOL0     H38256   3.504   7.647   5.982 -1.0042  1.9905 -1.0527
  290MOL0     H38257   3.422   7.661   6.145  0.6531 -0.7326  1.1687
  290MOL0     H38258   3.630   7.653   6.258  1.9885  1.8804 -0.6876
  290MOL0     H38259   3.637   7.534   6.129 -0.5707 -1.3260 -1.4429
  290MOL0     H38260   3.838   7.651   6.154 -0.2573  0.0213 -1.0477
  290MOL0     H38261   3.764   7.812   6.150 -0.2473 -0.8414 -0.8301
  290MOL0     H38262   3.581   8.500   6.080  1.0435  0.7511 -0.7553
  290MOL0     H38263   3.617   8.740   6.102  2.3542  1.0922 -0.4040
  290MOL0     H38264   3.694   9.150   6.590 -2.4222  1.2044  1.7934
  290MOL0     H38265   3.657   9.402   6.560 -1.3756  0.1854 -1.1531
  290MOL0     H38266   3.751  11.071   6.039 -0.9573 -1.0867 -0.9760
  290MOL0     H38267   3.764  11.276   5.914 -1.8639 -2.7579 -0.1800
  290MOL0     H38268   3.886  11.337   5.339 -2.0619 -0.6483  0.4513
  290MOL0     H38269   3.826  11.561   5.196 -0.3487  1.1764  0.7349
  290MOL0     H38270   3.699  11.743   5.135  1.7490 -2.6873  0.0401
  290MOL0     H38271   3.871  11.752   5.106  1.3677  2.2161  0.8100
  290MOL0     H38272   3.733  11.926   4.973  0.8905  1.9078  0.1087
  290MOL0     H38273   3.655  11.966   5.112  1.1539  0.9803  0.6713
  290MOL0     H38274   3.953  11.999   5.073  1.1275 -1.4203  1.9702
  290MOL0     H38275   3.868  12.059   5.220  2.1424  0.4419 -0.4649
  290MOL0     H38276   3.739  12.225   5.102 -0.4344  0.1572 -1.0286
  290MOL0     H38277   3.907  12.248   5.044  0.0828  0.9968 -0.2418
  290MOL0     H38278   3.692  12.180   4.695  2.0144 -1.8273  0.1334
  290MOL0     H38279   3.886  11.782   5.546 -0.3918  1.5551 -0.2450
  290MOL0     H38280   3.931  11.583   5.679  0.4467 -3.1362 -0.2912
  291MOL0     O38281   9.463   1.752   8.244 -0.0041  0.2657 -0.2797
  291MOL0     C38282   9.419   1.838   8.158 -0.5763  0.9152 -0.4087
  291MOL0     O38283   9.306   1.824   8.091  0.1894  0.3500  0.6286
  291MOL0     C38284   9.233   1.707   8.099  0.2629  0.6667  0.0095
  291MOL0     C38285   9.199   1.652   7.974 -0.0977  0.2188 -0.6323
  291MOL0     C38286   9.117   1.545   7.967  0.6323  0.4917  0.2737
  291MOL0     C38287   9.084   1.475   8.087  0.6603 -0.7101 -0.2222
  291MOL0     O38288   8.994   1.378   8.089 -0.4971  0.8043 -0.1657
  291MOL0     C38289   8.949   1.309   7.963 -0.4486 -0.1151  0.4229
  291MOL0     C38290   8.842   1.205   8.013 -0.2885 -0.7786  0.5386
  291MOL0     C38291   8.705   1.254   7.964  0.3096  0.1693 -0.2233
  291MOL0     C38292   8.652   1.359   8.058 -0.1757 -0.5435 -0.3988
  291MOL0     C38293   8.618   1.297   8.195  0.2009 -0.2896 -0.6878
  291MOL0     C38294   8.473   1.305   8.254  0.0524 -0.3569  0.9227
  291MOL0     C38295   8.469   1.268   8.398  0.0160 -0.7494 -0.1284
  291MOL0     C38296   8.329   1.260   8.457  0.2204 -0.0044 -0.6654
  291MOL0     N38297   8.339   1.299   8.604  0.6903  0.3994  0.0212
  291MOL0     C38298   8.421   1.232   8.693  0.2107 -1.3841 -0.7381
  291MOL0     C38299   8.382   1.284   8.812  0.5474 -0.7076 -0.1508
  291MOL0     C38300   8.457   1.256   8.936 -0.4662 -0.3854 -0.1929
  291MOL0     C38301   8.537   1.378   8.988 -0.0427  0.2150 -0.4318
  291MOL0     C38302   8.621   1.334   9.097 -0.2343 -0.5024 -0.1231
  291MOL0     C38303   8.732   1.424   9.136 -0.4457  0.8367 -1.2010
  291MOL0     O38304   8.672   1.554   9.171 -0.4368 -0.6753 -0.6120
  291MOL0     C38305   8.755   1.644   9.209 -0.8876 -0.1149 -0.1812
  291MOL0     C38306   8.771   1.760   9.137  0.7919  0.5052  0.2799
  291MOL0     C38307   8.869   1.853   9.156  0.7064 -0.4967 -1.1159
  291MOL0     C38308   8.967   1.835   9.261  0.0646  0.4724  0.8171
  291MOL0     C38309   9.086   1.924   9.267  1.0415 -0.2110 -0.1155
  291MOL0     O38310   9.099   2.021   9.166  0.1141  0.3757 -0.2103
  291MOL0     C38311   9.231   2.037   9.131 -1.5970 -0.4178 -0.9006
  291MOL0     C38312   9.299   1.945   9.045  0.5525  0.5574 -0.7717
  291MOL0     C38313   9.424   1.974   8.996  0.1462  0.1472  0.4056
  291MOL0     C38314   9.505   2.088   9.039 -0.2675  1.2646  0.5110
  291MOL0     O38315   9.629   2.093   8.985  0.3228  0.3373  0.4317
  291MOL0     C38316   9.700   2.213   9.015 -0.1327 -0.8451  0.4153
  291MOL0     C38317   9.634   2.333   8.928 -0.0748  0.1578 -0.6590
  291MOL0     C38318   9.698   2.460   8.963  0.9895  0.1820 -0.4847
  291MOL0     C38319   9.672   2.565   8.854 -0.3443  0.1132  0.5723
  291MOL0     C38320   9.709   2.706   8.899  0.8822  0.6347 -0.4020
  291MOL0     C38321   9.632   2.805   8.829  0.5510 -0.5929 -0.3150
  291MOL0     C38322   9.483   2.801   8.869  0.8970  1.5073  0.7902
  291MOL0     C38323   9.431   2.940   8.856  0.7480 -1.2597  0.9116
  291MOL0    Cl38324   9.424   3.013   8.680 -0.4441 -0.0837  0.1098
  291MOL0     C38325   9.443   2.173   9.134  0.5480 -0.2069  0.6573
  291MOL0     C38326   9.308   2.148   9.172  0.5314 -0.8931  0.1820
  291MOL0     O38327   9.171   1.884   9.346  0.1713 -0.2753  0.0003
  291MOL0     C38328   8.945   1.727   9.342  0.1206 -0.2093  1.3361
  291MOL0     C38329   8.852   1.630   9.312  0.9380 -0.8692  0.4968
  291MOL0     N38330   8.291   1.387   8.792  0.1934 -0.8241 -0.9138
  291MOL0     N38331   8.274   1.396   8.665  0.1610 -0.1771  0.2582
  291MOL0     C38332   9.127   1.525   8.210  0.4944 -0.9033 -0.2695
  291MOL0     C38333   9.192   1.649   8.221  0.0619 -0.0812 -0.1337
  291MOL0     C38334   9.528   1.931   8.107 -0.1752  0.0425  0.0797
  291MOL0     C38335   9.665   1.890   8.124  0.3614 -0.1247  1.0253
  291MOL0     C38336   9.761   1.987   8.110  0.0235 -0.5341  1.0062
  291MOL0     C38337   9.729   2.109   8.049 -1.0575  0.5717 -0.7464
  291MOL0     O38338   9.825   2.198   8.045 -0.4278  0.3189  0.1115
  291MOL0     C38339   9.832   2.287   8.156 -0.5591  1.0839 -1.1715
  291MOL0     C38340   9.899   2.407   8.107 -0.0388 -0.3909 -0.0379
  291MOL0     C38341   9.810   2.527   8.086 -0.6357 -0.3191  0.3720
  291MOL0     C38342   9.719   2.521   7.964  0.0703 -0.2239 -0.5243
  291MOL0     C38343   9.792   2.584   7.848  0.8609  0.2053 -0.0488
  291MOL0     C38344   9.831   2.650   7.756 -0.5929  0.3736  0.3972
  291MOL0     C38345   9.599   2.138   8.019  0.0369  0.8014  0.4156
  291MOL0     C38346   9.502   2.046   8.049 -0.3429 -0.2345  0.2938
  291MOL0     H38347   9.218   1.710   7.884  0.3176 -0.0686 -0.7353
  291MOL0     H38348   9.079   1.510   7.872 -0.1979 -1.4762  1.2597
  291MOL0     H38349   9.022   1.247   7.910 -2.5671 -2.9143  0.5597
  291MOL0     H38350   8.913   1.389   7.897  1.1441 -1.6134 -2.4836
  291MOL0     H38351   8.835   1.201   8.122  2.5613  1.9839  0.9932
  291MOL0     H38352   8.867   1.110   7.965 -0.4682 -0.3106 -0.5180
  291MOL0     H38353   8.635   1.170   7.960 -1.1185  1.3376 -0.6970
  291MOL0     H38354   8.713   1.287   7.860  1.4158  1.5244  0.2700
  291MOL0     H38355   8.716   1.448   8.063 -0.6065 -0.1662 -1.3985
  291MOL0     H38356   8.561   1.395   8.010  2.7239  5.1484 -2.7324
  291MOL0     H38357   8.694   1.322   8.270 -0.7074  0.1886  0.0831
  291MOL0     H38358   8.636   1.189   8.198 -0.1050 -0.3999 -2.2662
  291MOL0     H38359   8.403   1.248   8.192 -0.2730 -0.5020  1.4215
  291MOL0     H38360   8.443   1.409   8.246  0.7199 -0.0593  2.1322
  291MOL0     H38361   8.511   1.167   8.411  0.4161 -1.0323 -3.0981
  291MOL0     H38362   8.523   1.341   8.460 -0.6177 -1.2296  1.0236
  291MOL0     H38363   8.269   1.174   8.427 -2.2434  2.2858 -2.8661
  291MOL0     H38364   8.266   1.341   8.420  0.6435  0.7898  0.2941
  291MOL0     H38365   8.493   1.155   8.668 -0.4882 -2.7127  1.1013
  291MOL0     H38366   8.537   1.187   8.906  3.3001  2.4831  2.3615
  291MOL0     H38367   8.394   1.210   9.013 -1.3915  2.0468  0.6062
  291MOL0     H38368   8.468   1.450   9.033  0.7009 -0.4429  1.9161
  291MOL0     H38369   8.608   1.425   8.920 -0.0980 -1.4638 -1.6906
  291MOL0     H38370   8.546   1.333   9.176  0.5765  1.5567  0.7178
  291MOL0     H38371   8.675   1.245   9.062 -0.0328 -0.5929  0.4160
  291MOL0     H38372   8.801   1.445   9.054 -0.6506 -1.1163 -1.9157
  291MOL0     H38373   8.780   1.380   9.224 -3.5056  3.8865  2.3542
  291MOL0     H38374   8.696   1.789   9.064 -1.4914  0.0117  2.2770
  291MOL0     H38375   8.876   1.939   9.090  0.3601  0.4964  0.0915
  291MOL0     H38376   9.248   1.854   9.018 -2.2171  0.8024  2.8236
  291MOL0     H38377   9.455   1.910   8.914  2.6137  0.5507  0.9503
  291MOL0     H38378   9.808   2.205   8.998  0.0656  0.2354  1.0896
  291MOL0     H38379   9.696   2.239   9.121 -2.3116  1.2679 -0.0932
  291MOL0     H38380   9.525   2.344   8.936 -0.3360 -2.6147  0.8907
  291MOL0     H38381   9.656   2.311   8.823  1.5617  0.5312 -0.4105
  291MOL0     H38382   9.807   2.456   8.979  1.2070  1.8829 -1.3397
  291MOL0     H38383   9.660   2.488   9.062  2.9831 -0.6246  0.5767
  291MOL0     H38384   9.740   2.541   8.772 -1.0766 -0.1858  0.0461
  291MOL0     H38385   9.567   2.543   8.831 -0.6055  0.1105  1.7333
  291MOL0     H38386   9.817   2.717   8.886  2.1849 -1.5721  5.6061
  291MOL0     H38387   9.691   2.724   9.005 -0.7526  2.4135 -0.9174
  291MOL0     H38388   9.651   2.795   8.722 -0.0822 -0.8775 -0.4020
  291MOL0     H38389   9.677   2.901   8.858  2.2566 -1.3128 -0.4442
  291MOL0     H38390   9.422   2.744   8.798  2.4554 -0.7140  1.1315
  291MOL0     H38391   9.452   2.756   8.964  0.8735  0.3515  0.2635
  291MOL0     H38392   9.497   3.004   8.916  0.4817 -1.1522  1.0925
  291MOL0     H38393   9.332   2.927   8.900 -2.1726  2.4999 -3.5291
  291MOL0     H38394   9.488   2.259   9.183 -3.5946  3.8293 -1.7643
  291MOL0     H38395   9.270   2.222   9.242 -0.1945  1.8136 -2.8334
  291MOL0     H38396   9.008   1.713   9.428 -1.2188 -1.8482  2.0930
  291MOL0     H38397   8.837   1.549   9.382  0.1681 -0.3449  0.9615
  291MOL0     H38398   9.071   1.478   8.290 -0.9236 -1.0753 -1.3275
  291MOL0     H38399   9.225   1.694   8.314 -0.5256 -3.3177  1.7991
  291MOL0     H38400   9.683   1.788   8.155 -4.4893 -0.9907  1.8667
  291MOL0     H38401   9.866   1.969   8.126  0.3628  0.6118  0.1774
  291MOL0     H38402   9.878   2.249   8.247  0.7865  1.0901 -1.8287
  291MOL0     H38403   9.730   2.310   8.189 -0.0491 -1.9046  3.3440
  291MOL0     H38404   9.974   2.443   8.178 -0.4118 -1.4451  0.9201
  291MOL0     H38405   9.962   2.390   8.019  0.1412 -0.8594  0.1776
  291MOL0     H38406   9.879   2.612   8.075  0.8034 -1.6834 -1.8059
  291MOL0     H38407   9.756   2.545   8.179 -0.9732  0.1223  0.0949
  291MOL0     H38408   9.692   2.417   7.943  0.8581 -0.3939 -0.7216
  291MOL0     H38409   9.620   2.567   7.972 -0.5404 -1.5529 -0.0108
  291MOL0     H38410   9.847   2.716   7.673  0.6351  0.7871  0.9326
  291MOL0     H38411   9.591   2.225   7.954  1.2309  1.4304  1.0818
  291MOL0     H38412   9.396   2.066   8.040 -0.1099  0.5896 -0.8466
  292MOL0     O38413   6.067   7.807  10.894  0.1076 -0.4073 -0.1894
  292MOL0     C38414   5.949   7.852  10.881 -0.3109  0.2781 -1.1673
  292MOL0     O38415   5.897   7.877  10.758 -0.3264 -0.5750 -0.4172
  292MOL0     C38416   5.945   7.818  10.650  1.6051 -0.7118  0.1885
  292MOL0     C38417   5.966   7.906  10.551 -1.0047 -0.2370 -0.1191
  292MOL0     C38418   6.018   7.856  10.433 -0.1001 -1.0259  0.0381
  292MOL0     C38419   6.045   7.716  10.425  0.0696 -0.4546  0.3191
  292MOL0     O38420   6.112   7.681  10.304  0.0130  0.4616  0.0866
  292MOL0     C38421   6.193   7.561  10.288 -0.2713 -0.1333 -0.8823
  292MOL0     C38422   6.331   7.534  10.359  0.8905 -1.2878 -0.0788
  292MOL0     C38423   6.423   7.660  10.329  0.8011  1.0701  1.0266
  292MOL0     C38424   6.573   7.614  10.350  0.1995 -0.2914 -0.3516
  292MOL0     C38425   6.678   7.722  10.335 -0.5093 -0.1505  0.0204
  292MOL0     C38426   6.819   7.666  10.387  0.7812  0.5125 -0.3782
  292MOL0     C38427   6.936   7.716  10.308 -0.6383 -0.2311 -0.8880
  292MOL0     C38428   6.955   7.868  10.321 -0.0219 -0.1040 -0.0303
  292MOL0     N38429   7.051   7.901  10.212 -0.0891 -0.5954 -0.1523
  292MOL0     C38430   7.185   7.911  10.243  1.6948 -0.0321 -0.0668
  292MOL0     C38431   7.237   7.969  10.129  0.4961  0.4896  0.6124
  292MOL0     C38432   7.376   7.993  10.088 -1.1025 -0.5597  0.1486
  292MOL0     C38433   7.440   7.888   9.986 -0.2835  0.0665  0.1659
  292MOL0     C38434   7.574   7.943   9.940  0.3532 -0.2943 -0.1003
  292MOL0     C38435   7.619   7.873   9.816 -0.0719  0.3966  0.6890
  292MOL0     O38436   7.756   7.909   9.789 -0.0152 -0.0666  0.0086
  292MOL0     C38437   7.785   8.019   9.719 -0.0030  0.1885 -0.6909
  292MOL0     C38438   7.824   8.131   9.793  0.1630  0.1346  0.5800
  292MOL0     C38439   7.844   8.251   9.732  0.1921 -0.0012  0.4120
  292MOL0     C38440   7.837   8.260   9.585  1.0883  0.3318  0.4318
  292MOL0     C38441   7.864   8.395   9.528 -0.7832  0.6921  0.5307
  292MOL0     O38442   7.893   8.384   9.387  0.1559 -0.1265 -0.4058
  292MOL0     C38443   7.975   8.472   9.330 -0.0990 -0.6702  0.1014
  292MOL0     C38444   7.936   8.510   9.197  0.3350 -0.0550 -0.6020
  292MOL0     C38445   8.008   8.615   9.140 -0.2259  0.4009 -0.4090
  292MOL0     C38446   8.124   8.670   9.192 -0.6075 -0.2139  0.4113
  292MOL0     O38447   8.195   8.772   9.138 -0.1626  1.0258  0.1370
  292MOL0     C38448   8.141   8.850   9.029 -0.9702  0.3880 -0.7110
  292MOL0     C38449   8.231   8.975   9.015 -0.6984 -0.7092  0.4173
  292MOL0     C38450   8.355   8.944   8.938  0.2735 -0.3707  0.0018
  292MOL0     C38451   8.454   9.068   8.930  0.0231  0.1510 -0.3194
  292MOL0     C38452   8.593   9.016   8.893  0.5640 -0.1215  0.0567
  292MOL0     C38453   8.615   8.960   8.751 -0.2044 -1.3234  0.7090
  292MOL0     C38454   8.752   8.932   8.727  0.4448  0.8897 -0.2546
  292MOL0     C38455   8.774   8.810   8.638  0.4224  0.3410 -0.0664
  292MOL0    Cl38456   8.910   8.842   8.527  0.2822  0.4183  0.3432
  292MOL0     C38457   8.162   8.620   9.312 -0.1866  0.2225 -0.8846
  292MOL0     C38458   8.086   8.530   9.391 -0.2436 -0.0047 -0.4491
  292MOL0     O38459   7.876   8.499   9.601  0.5008  0.1545 -0.2062
  292MOL0     C38460   7.807   8.146   9.513 -0.6478  0.3357 -0.4311
  292MOL0     C38461   7.787   8.025   9.588  0.3276 -0.2596  1.0274
  292MOL0     N38462   7.136   7.998  10.036  0.1705 -1.3217  0.7000
  292MOL0     N38463   7.028   7.965  10.092 -0.2843 -0.3640 -0.6960
  292MOL0     C38464   6.013   7.629  10.524 -0.0002  0.3655 -0.5969
  292MOL0     C38465   5.966   7.683  10.639 -0.1994 -1.1893  0.7907
  292MOL0     C38466   5.862   7.883  10.992  0.2402 -0.5196  1.3242
  292MOL0     C38467   5.745   7.966  10.982 -0.7569 -0.8143 -0.3373
  292MOL0     C38468   5.682   8.022  11.096 -0.1104  0.1993  0.4112
  292MOL0     C38469   5.732   7.998  11.219  0.0092 -0.6034  0.6110
  292MOL0     O38470   5.682   8.056  11.332  1.0486 -0.6168 -0.7555
  292MOL0     C38471   5.646   8.193  11.310  0.4287  0.3114 -0.6599
  292MOL0     C38472   5.771   8.279  11.314 -0.6578 -0.7110  0.2342
  292MOL0     C38473   5.833   8.281  11.448  0.1048 -0.1501 -0.2362
  292MOL0     C38474   5.956   8.372  11.440 -0.1975 -0.5497 -0.8977
  292MOL0     C38475   6.088   8.313  11.431 -0.1501 -0.7694 -0.1838
  292MOL0     C38476   6.199   8.271  11.414  0.0492  1.3754  0.5662
  292MOL0     C38477   5.837   7.904  11.240 -0.3487  0.1470 -0.3914
  292MOL0     C38478   5.905   7.853  11.124 -0.0602 -0.0809 -0.9134
  292MOL0     H38479   5.949   8.011  10.572 -5.9790 -0.8791  0.2983
  292MOL0     H38480   6.050   7.914  10.347 -2.2306 -3.0734 -2.2864
  292MOL0     H38481   6.206   7.546  10.181  0.2133 -2.4619 -0.5419
  292MOL0     H38482   6.127   7.478  10.313  1.7492 -0.7789  3.2598
  292MOL0     H38483   6.374   7.441  10.323  0.3400 -1.8306  0.6434
  292MOL0     H38484   6.316   7.523  10.467  1.2054 -2.9175 -0.1833
  292MOL0     H38485   6.400   7.750  10.387  1.3315  1.2270  0.9984
  292MOL0     H38486   6.392   7.704  10.234 -1.9421  0.9291  1.7878
  292MOL0     H38487   6.581   7.573  10.451  1.1005  2.7242  0.9442
  292MOL0     H38488   6.597   7.531  10.283 -0.0895 -0.9232  0.3206
  292MOL0     H38489   6.650   7.818  10.379  0.6501  1.6215 -2.8315
  292MOL0     H38490   6.685   7.737  10.227  1.4814  3.2749  0.4662
  292MOL0     H38491   6.808   7.558  10.377 -0.3892  0.4177  1.4964
  292MOL0     H38492   6.830   7.698  10.491  2.2844  2.5109 -1.0856
  292MOL0     H38493   7.028   7.661  10.331 -1.5391 -1.4618 -0.0745
  292MOL0     H38494   6.919   7.699  10.202  3.6388 -2.3689 -1.4370
  292MOL0     H38495   7.004   7.897  10.414 -0.2643 -0.8028  0.3271
  292MOL0     H38496   6.854   7.909  10.315 -0.5197 -1.3860 -0.9039
  292MOL0     H38497   7.241   7.874  10.328 -1.9100 -0.1868  2.4114
  292MOL0     H38498   7.446   7.990  10.172  2.0204 -0.6146 -2.2473
  292MOL0     H38499   7.377   8.092  10.040  2.8554 -0.2405  0.5409
  292MOL0     H38500   7.381   7.875   9.895  2.2886 -0.5673 -1.4995
  292MOL0     H38501   7.440   7.789  10.034  1.9050 -0.1471 -0.1852
  292MOL0     H38502   7.577   8.049   9.915 -0.0252 -0.0450  0.8589
  292MOL0     H38503   7.640   7.922  10.025 -1.1441 -1.9039  0.7162
  292MOL0     H38504   7.551   7.898   9.734 -0.7596  3.4105  2.0384
  292MOL0     H38505   7.608   7.765   9.834 -0.8904  0.5106  0.9309
  292MOL0     H38506   7.834   8.138   9.900 -1.1975  2.0496  0.6391
  292MOL0     H38507   7.882   8.332   9.793  0.8105  1.0436 -1.2796
  292MOL0     H38508   7.844   8.470   9.155 -1.5546  1.1095  2.1687
  292MOL0     H38509   7.986   8.641   9.037  1.1573 -0.3166 -0.9141
  292MOL0     H38510   8.041   8.884   9.056  0.0835  2.3113  1.0434
  292MOL0     H38511   8.134   8.788   8.939  1.8465 -2.8061  1.0083
  292MOL0     H38512   8.257   9.023   9.110  1.0715 -1.6745  0.4544
  292MOL0     H38513   8.171   9.046   8.957  1.4029  1.5140  0.7964
  292MOL0     H38514   8.337   8.892   8.844  1.8407  0.8296 -1.0343
  292MOL0     H38515   8.420   8.875   8.993  1.2108 -0.9301 -1.7207
  292MOL0     H38516   8.415   9.139   8.857  0.4033  0.6409 -0.0542
  292MOL0     H38517   8.464   9.115   9.029 -2.1089  1.8369 -0.8195
  292MOL0     H38518   8.633   8.943   8.964 -2.2423 -0.9226  0.9662
  292MOL0     H38519   8.660   9.102   8.902 -1.4034  1.5398 -0.1663
  292MOL0     H38520   8.576   9.025   8.672 -3.0482 -2.9556  0.6400
  292MOL0     H38521   8.561   8.865   8.748 -0.6571 -1.0723  0.8119
  292MOL0     H38522   8.791   9.015   8.666  0.8653  2.7663  2.3932
  292MOL0     H38523   8.816   8.914   8.814 -1.1609  1.3951  1.0923
  292MOL0     H38524   8.682   8.798   8.580 -0.0431  0.8323  0.5533
  292MOL0     H38525   8.789   8.720   8.700 -0.6136 -0.4142 -0.8638
  292MOL0     H38526   8.241   8.678   9.359  0.2500 -1.6718  0.8545
  292MOL0     H38527   8.117   8.506   9.492 -0.1942 -0.7766 -0.6430
  292MOL0     H38528   7.797   8.149   9.405  0.3148 -0.2128 -0.5520
  292MOL0     H38529   7.773   7.944   9.517 -0.7412 -1.4554  2.5619
  292MOL0     H38530   6.035   7.523  10.525  0.9217  0.5304  1.3422
  292MOL0     H38531   5.931   7.626  10.725 -2.1011 -1.2344  0.0386
  292MOL0     H38532   5.723   8.009  10.885  0.6579 -0.7332 -0.6307
  292MOL0     H38533   5.591   8.080  11.085 -0.3057 -0.6273 -3.6522
  292MOL0     H38534   5.573   8.209  11.391 -2.9718 -1.8270 -3.0812
  292MOL0     H38535   5.587   8.215  11.221  0.1549 -0.4530 -0.6720
  292MOL0     H38536   5.835   8.242  11.234 -1.5697 -2.4659  0.2691
  292MOL0     H38537   5.729   8.379  11.296 -1.6869 -0.3474  3.7385
  292MOL0     H38538   5.860   8.178  11.474  1.0256  0.1783  0.1324
  292MOL0     H38539   5.771   8.337  11.519 -0.4737  3.1972 -3.1059
  292MOL0     H38540   5.945   8.454  11.369 -1.3987 -1.2124 -1.5151
  292MOL0     H38541   5.955   8.408  11.544  1.9975 -3.7345  0.3945
  292MOL0     H38542   6.295   8.226  11.397  0.0525  2.0635 -1.6010
  292MOL0     H38543   5.867   7.897  11.344  2.1592  2.0272 -0.9021
  292MOL0     H38544   5.990   7.789  11.146 -0.0025  1.0200  2.7125
  293MOL0     O38545   4.345   0.827   9.677  0.0305  0.8561  0.0532
  293MOL0     C38546   4.233   0.823   9.630 -0.0514  0.6054 -0.1382
  293MOL0     O38547   4.172   0.706   9.575  0.0492 -0.4396  0.6725
  293MOL0     C38548   4.257   0.615   9.532  1.2078  0.7379 -0.5787
  293MOL0     C38549   4.217   0.479   9.565  0.9650 -0.1803  0.7221
  293MOL0     C38550   4.264   0.365   9.512 -0.0767 -0.1025  0.2945
  293MOL0     C38551   4.366   0.377   9.414 -0.1090 -0.3298  0.1882
  293MOL0     O38552   4.402   0.259   9.360 -0.5160 -0.6589  0.4374
  293MOL0     C38553   4.548   0.255   9.348  0.6313 -0.4611  0.4678
  293MOL0     C38554   4.603   0.111   9.344  0.2885 -0.2999  0.2663
  293MOL0     C38555   4.746   0.114   9.419 -0.6755  0.1590  1.1316
  293MOL0     C38556   4.866   0.163   9.334  0.4612  0.1252 -0.1167
  293MOL0     C38557   4.992   0.125   9.416  0.3578 -0.9895  0.5952
  293MOL0     C38558   4.994   0.181   9.557 -0.0483 -0.3614 -0.1145
  293MOL0     C38559   5.120   0.150   9.624 -0.4308 -0.5340  0.2191
  293MOL0     C38560   5.154   0.004   9.653  1.0695  0.5471 -0.4137
  293MOL0     N38561   5.287   0.004   9.719 -0.1140 -0.4091  0.6701
  293MOL0     C38562   5.327   0.056   9.834  1.0986 -0.1198  0.6408
  293MOL0     C38563   5.451   0.027   9.861 -1.1865  0.1171  0.2581
  293MOL0     C38564   5.522   0.106   9.973  0.2562 -0.1924  0.1092
  293MOL0     C38565   5.637   0.025  10.038 -1.0975 -0.1494 -0.7862
  293MOL0     C38566   5.713   0.105  10.146  0.3223 -1.0559 -0.6863
  293MOL0     C38567   5.803   0.209  10.072  0.2480 -0.5294 -0.3578
  293MOL0     O38568   5.886   0.288  10.160 -0.6105  0.6674  0.0438
  293MOL0     C38569   5.972   0.382  10.113 -1.0827  0.0628 -0.1114
  293MOL0     C38570   6.021   0.397   9.985 -0.0465 -0.2872 -0.2689
  293MOL0     C38571   6.105   0.506   9.956  0.2186  0.4111  0.7795
  293MOL0     C38572   6.144   0.600  10.048  0.3943  0.5773 -1.1110
  293MOL0     C38573   6.197   0.724  10.007 -0.1281  0.1256  0.4016
  293MOL0     O38574   6.250   0.735   9.879 -0.1275 -0.5569  1.0786
  293MOL0     C38575   6.302   0.855   9.842  0.2374 -0.3870  0.0854
  293MOL0     C38576   6.397   0.848   9.737 -0.7928 -1.1389  0.0210
  293MOL0     C38577   6.458   0.961   9.679  1.3171 -0.8852  0.7856
  293MOL0     C38578   6.429   1.085   9.721 -0.9574  0.6824 -0.3175
  293MOL0     O38579   6.501   1.186   9.669 -0.3485  0.4269  0.2573
  293MOL0     C38580   6.484   1.319   9.709  0.1353 -0.5642  0.1269
  293MOL0     C38581   6.561   1.416   9.620 -0.6596  0.8288  0.4981
  293MOL0     C38582   6.651   1.515   9.688  0.3442  0.0221 -0.0551
  293MOL0     C38583   6.737   1.585   9.584  0.0280 -0.8296 -0.1787
  293MOL0     C38584   6.831   1.695   9.646  1.2246 -1.4188  0.7070
  293MOL0     C38585   6.770   1.834   9.639 -0.2537  0.5040  0.5722
  293MOL0     C38586   6.862   1.919   9.723  0.4316  0.9361  0.5996
  293MOL0     C38587   6.975   1.967   9.627  0.1970 -0.9778  0.7126
  293MOL0    Cl38588   7.044   2.126   9.686  0.4673  0.4763  0.2891
  293MOL0     C38589   6.328   1.101   9.816 -0.4575  0.2416 -0.9788
  293MOL0     C38590   6.269   0.989   9.888  0.3071  0.3668  0.7487
  293MOL0     O38591   6.221   0.803  10.097  0.3610  0.2023  0.4476
  293MOL0     C38592   6.107   0.574  10.184  0.2258  0.2796  1.1536
  293MOL0     C38593   6.015   0.467  10.218  0.1559 -0.3641 -0.7103
  293MOL0     N38594   5.493  -0.063   9.765 -0.7408 -0.8802  0.4569
  293MOL0     N38595   5.389  -0.076   9.684 -0.0564 -0.0493 -0.7562
  293MOL0     C38596   4.420   0.506   9.377 -0.1077 -0.0248 -0.5192
  293MOL0     C38597   4.358   0.621   9.435 -0.1376  0.1816  0.6651
  293MOL0     C38598   4.160   0.952   9.629 -0.0310 -0.2778  1.0034
  293MOL0     C38599   4.196   1.065   9.707  1.0056  0.4287  0.8356
  293MOL0     C38600   4.124   1.180   9.700  0.9510  0.6207  1.1144
  293MOL0     C38601   4.013   1.189   9.624  0.5891  0.6455  0.5157
  293MOL0     O38602   3.955   1.309   9.623 -0.4076  0.8190  0.2124
  293MOL0     C38603   3.840   1.327   9.542  0.6013 -0.4593  0.7518
  293MOL0     C38604   3.771   1.460   9.599  0.6172  0.2263  0.2342
  293MOL0     C38605   3.852   1.579   9.547 -0.5215  0.8628 -0.5066
  293MOL0     C38606   3.817   1.718   9.590 -0.1441  0.4859 -0.1424
  293MOL0     C38607   3.739   1.785   9.487  1.5943 -1.0241  0.0756
  293MOL0     C38608   3.687   1.843   9.390 -0.4403  0.1490 -0.3536
  293MOL0     C38609   3.954   1.071   9.559  0.2966 -0.8898 -0.3691
  293MOL0     C38610   4.041   0.964   9.547  0.5787 -0.0195  0.7617
  293MOL0     H38611   4.137   0.472   9.637 -0.7452  1.1316 -0.9709
  293MOL0     H38612   4.217   0.269   9.534  0.7452 -0.8472 -1.0484
  293MOL0     H38613   4.597   0.302   9.434 -0.3889  0.8946  0.3392
  293MOL0     H38614   4.581   0.308   9.258  0.7548  0.0453  0.8042
  293MOL0     H38615   4.612   0.067   9.244  0.9903 -3.1544  1.4923
  293MOL0     H38616   4.539   0.044   9.401 -1.3695  0.8273 -0.2044
  293MOL0     H38617   4.772   0.017   9.463 -0.4274  0.1251  0.9133
  293MOL0     H38618   4.745   0.173   9.511 -0.5399  2.0263 -0.0134
  293MOL0     H38619   4.853   0.115   9.237 -1.1977 -1.5854  0.8779
  293MOL0     H38620   4.857   0.267   9.304 -1.9145 -0.8014 -3.0474
  293MOL0     H38621   5.077   0.153   9.353 -2.1250 -1.3233 -3.2195
  293MOL0     H38622   4.991   0.016   9.427  0.9067 -1.1365 -0.6711
  293MOL0     H38623   4.915   0.126   9.608  0.0137 -0.9332 -0.6295
  293MOL0     H38624   4.965   0.287   9.558 -2.6475 -1.0095  0.8768
  293MOL0     H38625   5.198   0.204   9.569 -3.0381  3.2150 -0.1851
  293MOL0     H38626   5.127   0.201   9.720  3.9417  1.7819 -1.0533
  293MOL0     H38627   5.155  -0.049   9.558 -1.8112  0.5505 -0.5139
  293MOL0     H38628   5.079  -0.040   9.720  0.4561  2.6182  0.3616
  293MOL0     H38629   5.279   0.132   9.895 -1.3441 -2.5707  2.0324
  293MOL0     H38630   5.455   0.118  10.059 -0.0122 -3.7434  0.5608
  293MOL0     H38631   5.544   0.208   9.940 -1.1174  0.3909  0.9045
  293MOL0     H38632   5.704  -0.015   9.961 -3.5293 -4.0584 -1.1770
  293MOL0     H38633   5.604  -0.065  10.091  1.0840 -1.3694 -1.3779
  293MOL0     H38634   5.639   0.152  10.212  1.5318 -2.7342  2.0666
  293MOL0     H38635   5.775   0.045  10.213  2.9067  3.6782  1.6617
  293MOL0     H38636   5.748   0.284  10.013  0.3190  1.3355  1.8104
  293MOL0     H38637   5.876   0.165  10.004  0.0760  1.1097 -1.6854
  293MOL0     H38638   5.988   0.336   9.902 -0.8225  0.2906 -0.3919
  293MOL0     H38639   6.123   0.516   9.850 -1.6333 -2.3091  0.0869
  293MOL0     H38640   6.436   0.756   9.695 -0.2979 -1.4434  1.1070
  293MOL0     H38641   6.526   0.947   9.596  0.0660  1.1897 -0.6802
  293MOL0     H38642   6.512   1.328   9.815 -2.9292 -1.3005  1.0906
  293MOL0     H38643   6.375   1.328   9.704 -0.3363 -3.8739  1.5442
  293MOL0     H38644   6.490   1.472   9.558  1.5190  2.3748 -0.7389
  293MOL0     H38645   6.611   1.369   9.535 -0.1071  2.1710  0.0461
  293MOL0     H38646   6.709   1.452   9.757 -0.7407 -2.5180 -1.3402
  293MOL0     H38647   6.594   1.588   9.746  0.3596  0.9743 -1.2119
  293MOL0     H38648   6.806   1.509   9.546  0.5086 -1.3458  1.5975
  293MOL0     H38649   6.678   1.634   9.506 -1.6062  0.9774  2.0500
  293MOL0     H38650   6.925   1.698   9.590 -0.0661 -0.0079 -1.5076
  293MOL0     H38651   6.844   1.669   9.752 -1.4881  1.2000  1.8608
  293MOL0     H38652   6.675   1.819   9.690  0.3018 -0.6881  1.2923
  293MOL0     H38653   6.761   1.866   9.534 -1.5607 -0.8965  0.2163
  293MOL0     H38654   6.800   2.007   9.742  1.4480  1.4370  1.6918
  293MOL0     H38655   6.877   1.867   9.818 -3.6297  0.0095  0.9220
  293MOL0     H38656   6.937   2.000   9.530  0.7371  0.7189  1.0391
  293MOL0     H38657   7.050   1.888   9.618  0.5993 -0.3668 -3.2884
  293MOL0     H38658   6.304   1.204   9.839 -2.2657 -0.3109 -0.2328
  293MOL0     H38659   6.192   1.002   9.962  1.5809 -0.0052  2.1982
  293MOL0     H38660   6.139   0.646  10.259  0.0554  3.2632 -1.4385
  293MOL0     H38661   5.973   0.453  10.317 -1.1218  1.1754 -0.9972
  293MOL0     H38662   4.501   0.522   9.306 -0.0321 -1.1367 -0.6947
  293MOL0     H38663   4.373   0.721   9.396  0.4383 -0.5388 -1.0575
  293MOL0     H38664   4.278   1.055   9.777  0.7076 -2.5826  0.9083
  293MOL0     H38665   4.155   1.272   9.749  1.8251  3.8564 -4.5674
  293MOL0     H38666   3.765   1.248   9.552 -2.4813  2.1599  0.1681
  293MOL0     H38667   3.868   1.344   9.438  2.8107 -2.7898  0.8831
  293MOL0     H38668   3.671   1.461   9.556  0.0335 -0.0805  1.5469
  293MOL0     H38669   3.754   1.450   9.706 -1.7373 -0.1156 -0.1206
  293MOL0     H38670   3.851   1.559   9.439  0.6338 -1.5617 -0.1307
  293MOL0     H38671   3.949   1.555   9.592 -0.3589 -1.2174 -1.8458
  293MOL0     H38672   3.761   1.731   9.683  0.0441  5.1216 -0.4365
  293MOL0     H38673   3.914   1.768   9.601 -0.2868  0.4234  1.6580
  293MOL0     H38674   3.643   1.906   9.314  0.7029  2.9422  1.1692
  293MOL0     H38675   3.861   1.063   9.503 -0.5568 -1.4912  1.0844
  293MOL0     H38676   4.016   0.888   9.473 -3.9472  0.4717  1.5336
  294MOL0     O38677  10.359   8.254   6.993 -0.6790  0.4332 -0.9768
  294MOL0     C38678  10.445   8.187   6.940 -0.2232  0.0918 -0.3396
  294MOL0     O38679  10.501   8.067   6.996 -0.3650  0.3463  0.7012
  294MOL0     C38680  10.455   8.015   7.118 -0.3655 -0.0391 -0.0670
  294MOL0     C38681  10.315   8.014   7.154  0.1522  1.5344  0.3206
  294MOL0     C38682  10.266   7.957   7.272  0.7585 -0.0106  0.4581
  294MOL0     C38683  10.357   7.902   7.366 -0.1890 -0.0343 -0.5379
  294MOL0     O38684  10.311   7.850   7.485 -1.1993 -0.4058  0.1913
  294MOL0     C38685  10.362   7.725   7.540  0.0547 -1.1935  0.2595
  294MOL0     C38686  10.239   7.631   7.541 -0.5112 -0.0497  0.0400
  294MOL0     C38687  10.164   7.642   7.415  0.9998 -0.7454  0.5202
  294MOL0     C38688  10.090   7.505   7.390  0.4168  0.1602  0.9115
  294MOL0     C38689   9.964   7.533   7.308  0.1191  0.2330  0.0544
  294MOL0     C38690   9.915   7.402   7.247 -0.2199  0.3565  0.0872
  294MOL0     C38691   9.881   7.298   7.353  0.7145  0.0022 -0.7501
  294MOL0     C38692   9.784   7.187   7.298 -0.9724 -0.5903 -0.0321
  294MOL0     N38693   9.654   7.233   7.235 -0.4410  0.8616 -0.2100
  294MOL0     C38694   9.542   7.310   7.293  0.0858  1.1461 -0.3208
  294MOL0     C38695   9.481   7.354   7.179  0.1946  1.0826  0.5902
  294MOL0     C38696   9.357   7.439   7.190  0.1924 -0.4966 -1.2526
  294MOL0     C38697   9.385   7.566   7.285  0.3232  0.6917 -0.7197
  294MOL0     C38698   9.335   7.575   7.434  0.6050  0.5912  0.9110
  294MOL0     C38699   9.418   7.676   7.515  0.7882 -0.4074  0.6287
  294MOL0     O38700   9.555   7.656   7.543  0.0881  0.6328  0.1976
  294MOL0     C38701   9.605   7.554   7.614 -0.3308 -0.0199 -1.2000
  294MOL0     C38702   9.533   7.451   7.669  0.3888 -1.0000  0.2352
  294MOL0     C38703   9.601   7.358   7.752 -1.1402 -0.3164 -0.5497
  294MOL0     C38704   9.742   7.345   7.763  1.3910 -0.9208  0.0714
  294MOL0     C38705   9.801   7.247   7.847 -0.7931 -0.1982  0.1523
  294MOL0     O38706   9.740   7.125   7.863  0.4542 -0.4246  0.5236
  294MOL0     C38707   9.772   7.019   7.948 -0.7644 -0.2907  0.3628
  294MOL0     C38708   9.841   7.042   8.067 -0.0353 -0.6020  0.7697
  294MOL0     C38709   9.873   6.932   8.141 -0.3140  1.4451 -0.7235
  294MOL0     C38710   9.843   6.799   8.100  0.5543 -0.7786 -0.3624
  294MOL0     O38711   9.896   6.685   8.150 -0.1723 -0.0245 -0.2886
  294MOL0     C38712   9.991   6.687   8.260 -0.2467 -0.5502 -0.0311
  294MOL0     C38713   9.907   6.703   8.392 -0.0911 -0.0289 -1.1096
  294MOL0     C38714  10.010   6.707   8.507  0.7500 -0.0261 -0.8354
  294MOL0     C38715  10.038   6.847   8.558 -1.9379 -0.5026  0.3881
  294MOL0     C38716  10.101   6.843   8.702 -0.4199  0.2618 -0.3437
  294MOL0     C38717  10.250   6.807   8.692  0.4209  0.2992 -0.4158
  294MOL0     C38718  10.280   6.671   8.768 -0.1238 -0.5061 -0.5228
  294MOL0     C38719  10.423   6.635   8.742 -0.1107  0.8246  0.3530
  294MOL0    Cl38720  10.516   6.718   8.865 -0.2830 -0.4394 -0.3150
  294MOL0     C38721   9.757   6.775   7.985 -0.2540  0.6215  0.2300
  294MOL0     C38722   9.723   6.887   7.911  0.4793  0.3003  0.1618
  294MOL0     O38723   9.906   7.283   7.892 -0.2230 -0.3373  0.2522
  294MOL0     C38724   9.812   7.447   7.698 -0.0472 -0.4794  0.0291
  294MOL0     C38725   9.747   7.554   7.634 -0.7209 -0.1783  0.6097
  294MOL0     N38726   9.547   7.306   7.068 -0.1336  0.7435  0.3063
  294MOL0     N38727   9.641   7.230   7.100 -1.0567  1.0302 -0.5954
  294MOL0     C38728  10.491   7.904   7.340 -0.2245 -0.9923  0.1532
  294MOL0     C38729  10.539   7.941   7.211  0.1352 -0.1844 -0.7943
  294MOL0     C38730  10.512   8.247   6.819  0.5926  0.1681 -0.3563
  294MOL0     C38731  10.433   8.331   6.728 -0.7081  0.3019 -0.7937
  294MOL0     C38732  10.490   8.395   6.613  0.8854 -0.8469  0.3373
  294MOL0     C38733  10.620   8.357   6.572 -0.4602  0.2578 -0.6428
  294MOL0     O38734  10.690   8.407   6.458 -0.0317  0.4291 -0.9194
  294MOL0     C38735  10.648   8.537   6.408  0.6687 -0.6225  1.0444
  294MOL0     C38736  10.599   8.519   6.265 -0.6515 -0.6578 -0.0228
  294MOL0     C38737  10.464   8.448   6.265 -0.5649 -0.1383  0.0694
  294MOL0     C38738  10.404   8.465   6.130 -0.5423  0.3569 -0.3307
  294MOL0     C38739  10.314   8.362   6.083 -0.4368 -0.1635  0.4626
  294MOL0     C38740  10.236   8.277   6.042 -0.1546  0.3880 -0.1898
  294MOL0     C38741  10.691   8.264   6.646 -0.7989  0.5129  0.1320
  294MOL0     C38742  10.630   8.210   6.767 -0.1317  0.9296 -0.5976
  294MOL0     H38743  10.228   8.055   7.103 -1.9121  0.5192  2.7558
  294MOL0     H38744  10.164   7.952   7.309  0.7977 -2.5265  0.4395
  294MOL0     H38745  10.392   7.747   7.643 -1.6048 -0.7915  0.6958
  294MOL0     H38746  10.448   7.682   7.489  1.3610 -0.0944  1.4716
  294MOL0     H38747  10.170   7.666   7.618  1.2531  2.0182  0.7508
  294MOL0     H38748  10.269   7.526   7.553  0.8847  0.4051  0.6460
  294MOL0     H38749  10.224   7.671   7.328  0.1871 -1.2884 -0.2410
  294MOL0     H38750  10.094   7.725   7.429  1.8846  0.8944 -3.2784
  294MOL0     H38751  10.164   7.436   7.348  1.3935 -0.2840  3.2027
  294MOL0     H38752  10.055   7.476   7.489 -1.7240  0.8676  0.4068
  294MOL0     H38753   9.984   7.616   7.239  1.6781 -0.4248 -0.3307
  294MOL0     H38754   9.886   7.570   7.375  0.2307  1.3028 -0.3820
  294MOL0     H38755   9.981   7.374   7.164 -3.4243 -1.3474 -2.1086
  294MOL0     H38756   9.822   7.432   7.199  0.5942 -2.0049 -3.3798
  294MOL0     H38757   9.964   7.254   7.409 -0.3698 -1.0247  0.0971
  294MOL0     H38758   9.828   7.345   7.436 -0.4940 -2.9206  0.2685
  294MOL0     H38759   9.779   7.100   7.364  2.5018  1.6537  3.6344
  294MOL0     H38760   9.837   7.153   7.208  1.9993  1.5268  0.7560
  294MOL0     H38761   9.527   7.325   7.400 -2.9937  2.1551 -0.8151
  294MOL0     H38762   9.281   7.381   7.244 -0.9632  3.7365  2.2035
  294MOL0     H38763   9.326   7.455   7.086  2.4490  1.3380 -1.7144
  294MOL0     H38764   9.326   7.641   7.232  0.4530  2.2349  1.2002
  294MOL0     H38765   9.490   7.600   7.286  0.0208  1.7897  1.3140
  294MOL0     H38766   9.226   7.585   7.431  0.5938  0.2499 -1.1436
  294MOL0     H38767   9.364   7.480   7.480 -1.8827 -0.6100  0.1781
  294MOL0     H38768   9.355   7.693   7.603 -1.1690  0.3566 -0.8435
  294MOL0     H38769   9.413   7.768   7.455  0.0847 -0.1381  1.0736
  294MOL0     H38770   9.425   7.441   7.665  0.3197 -0.5949  1.0516
  294MOL0     H38771   9.540   7.295   7.816 -4.1142 -0.4446 -3.2616
  294MOL0     H38772   9.869   7.141   8.102  1.0731 -1.4740  2.4453
  294MOL0     H38773   9.930   6.958   8.230 -0.7143  0.8952 -0.3006
  294MOL0     H38774  10.058   6.774   8.254 -2.0658  0.9830  0.8786
  294MOL0     H38775  10.058   6.601   8.259  2.9491  1.7216  1.2957
  294MOL0     H38776   9.830   6.626   8.392 -0.8388  0.6379  1.5032
  294MOL0     H38777   9.850   6.795   8.384 -2.2343 -1.2821 -1.0339
  294MOL0     H38778  10.105   6.665   8.473  0.6516 -1.7131  0.8080
  294MOL0     H38779   9.969   6.664   8.599  1.3789  3.6182  1.3724
  294MOL0     H38780  10.113   6.890   8.491 -0.7305 -2.3865  0.4440
  294MOL0     H38781   9.946   6.906   8.553  0.6309  3.7783 -1.6655
  294MOL0     H38782  10.038   6.780   8.766 -4.8960  3.7422 -0.7653
  294MOL0     H38783  10.089   6.940   8.751 -1.2851  0.1633 -0.3367
  294MOL0     H38784  10.321   6.885   8.723  0.4232  0.4185 -0.7149
  294MOL0     H38785  10.278   6.793   8.587 -0.2539  0.0434 -0.5642
  294MOL0     H38786  10.257   6.662   8.875  1.1435 -0.8516 -0.2686
  294MOL0     H38787  10.225   6.591   8.718  1.7944 -0.3840 -3.0500
  294MOL0     H38788  10.455   6.651   8.638 -2.1143  2.7450 -0.0371
  294MOL0     H38789  10.420   6.527   8.757  1.8406  0.5608 -0.8777
  294MOL0     H38790   9.739   6.671   7.957  1.1155 -0.4805  3.0640
  294MOL0     H38791   9.666   6.864   7.822  0.9033 -2.5846  0.5668
  294MOL0     H38792   9.920   7.448   7.706 -0.0157  1.4350 -0.2193
  294MOL0     H38793   9.819   7.634   7.618 -1.0323  0.0944  0.5510
  294MOL0     H38794  10.557   7.887   7.425 -0.1582  0.1892  0.3497
  294MOL0     H38795  10.645   7.928   7.192  0.8773  1.5465  1.6735
  294MOL0     H38796  10.335   8.349   6.769 -0.3538 -1.1170  0.7496
  294MOL0     H38797  10.432   8.470   6.561  1.5630 -0.6885 -0.1900
  294MOL0     H38798  10.737   8.599   6.410 -0.6294  1.4759 -1.4903
  294MOL0     H38799  10.575   8.593   6.468  1.4886 -0.1387  1.6107
  294MOL0     H38800  10.592   8.622   6.228  1.2090 -0.8240 -0.9601
  294MOL0     H38801  10.672   8.464   6.205  0.4762 -2.3967  2.7564
  294MOL0     H38802  10.404   8.512   6.330  1.7019  2.8576 -0.5449
  294MOL0     H38803  10.473   8.342   6.293 -0.0002  0.1553  1.0741
  294MOL0     H38804  10.344   8.557   6.142  3.1679  3.0501 -0.7184
  294MOL0     H38805  10.470   8.476   6.044 -3.0879 -0.5051 -2.5344
  294MOL0     H38806  10.169   8.203   6.004  0.8812 -0.7190  0.0934
  294MOL0     H38807  10.794   8.241   6.620 -2.0996 -0.7346 -4.8349
  294MOL0     H38808  10.682   8.131   6.821 -1.1100 -0.0869 -1.1046
  295MOL0     O38809   1.026   2.104   4.721 -0.0475 -0.6458  0.6556
  295MOL0     C38810   1.067   2.077   4.838 -0.1381  0.3509 -0.2274
  295MOL0     O38811   1.010   1.982   4.921  0.1187 -1.0690  0.0208
  295MOL0     C38812   0.922   1.901   4.868  0.4205  0.0360  0.6457
  295MOL0     C38813   0.790   1.916   4.908 -0.2040 -0.2087 -0.2645
  295MOL0     C38814   0.699   1.826   4.873  0.7373  0.0744  0.3047
  295MOL0     C38815   0.726   1.719   4.795 -0.0846 -0.6835  0.6283
  295MOL0     O38816   0.631   1.623   4.750  0.0243  0.1681  0.4358
  295MOL0     C38817   0.494   1.626   4.797  0.1353  0.8046  1.3526
  295MOL0     C38818   0.415   1.508   4.736 -0.5606  0.1834  0.5207
  295MOL0     C38819   0.286   1.550   4.651 -0.7841  1.2175 -0.2055
  295MOL0     C38820   0.182   1.445   4.625 -0.5097  0.3805 -0.0032
  295MOL0     C38821   0.241   1.305   4.587  0.1888 -0.3361  0.0254
  295MOL0     C38822   0.123   1.219   4.547  0.4721  0.0310  0.2585
  295MOL0     C38823   0.163   1.070   4.560 -0.8654 -0.8255  0.0995
  295MOL0     C38824   0.058   0.995   4.489 -0.2216  0.0739  0.0312
  295MOL0     N38825  -0.084   1.019   4.530  0.5413  0.0281 -0.1031
  295MOL0     C38826  -0.167   1.128   4.479 -0.0031 -0.9670  0.4563
  295MOL0     C38827  -0.262   1.153   4.569 -0.6810 -0.7385 -0.2501
  295MOL0     C38828  -0.374   1.246   4.557  0.2991 -0.3793  0.4206
  295MOL0     C38829  -0.332   1.375   4.493  0.5236  0.4567  0.5496
  295MOL0     C38830  -0.225   1.442   4.572 -0.2276  0.4006 -0.7950
  295MOL0     C38831  -0.263   1.475   4.716  0.7696 -0.4215  0.4800
  295MOL0     O38832  -0.164   1.543   4.806  0.1085  0.2224  0.2282
  295MOL0     C38833  -0.088   1.464   4.885 -0.6240 -0.7624 -0.8907
  295MOL0     C38834  -0.067   1.325   4.875 -0.4347  0.1146 -0.8359
  295MOL0     C38835   0.043   1.261   4.941  0.7279 -1.0363  1.1021
  295MOL0     C38836   0.141   1.341   5.001 -0.8159 -0.0904  1.4374
  295MOL0     C38837   0.265   1.278   5.054 -1.1556  0.7460  0.3107
  295MOL0     O38838   0.366   1.367   5.104  0.1999  0.9993  0.0977
  295MOL0     C38839   0.483   1.304   5.140  0.3216 -0.6064  0.1549
  295MOL0     C38840   0.507   1.246   5.263  0.5813  0.2735 -0.0867
  295MOL0     C38841   0.624   1.170   5.288 -0.5381  0.5135 -0.6140
  295MOL0     C38842   0.733   1.169   5.196  0.0450  0.3796  0.1162
  295MOL0     O38843   0.840   1.091   5.228  0.3922  0.3266 -0.1243
  295MOL0     C38844   0.964   1.167   5.214  0.2804  0.1084 -0.6164
  295MOL0     C38845   1.055   1.119   5.108  0.3853 -0.8648 -0.2614
  295MOL0     C38846   1.182   1.200   5.088  0.2237  0.2730 -0.1409
  295MOL0     C38847   1.144   1.344   5.031  0.8085  0.2992 -0.0335
  295MOL0     C38848   1.265   1.441   5.013 -0.8028  0.8095 -1.3077
  295MOL0     C38849   1.228   1.588   4.985  0.0129 -0.2403 -0.2102
  295MOL0     C38850   1.339   1.678   4.951  0.2952 -0.5353  0.6285
  295MOL0     C38851   1.421   1.620   4.842 -0.6050 -0.2169  0.1954
  295MOL0    Cl38852   1.318   1.581   4.695 -0.3596  0.3759  0.1843
  295MOL0     C38853   0.715   1.249   5.085 -0.1865 -0.0699  0.0016
  295MOL0     C38854   0.592   1.314   5.055  0.0938  0.6124  0.8893
  295MOL0     O38855   0.278   1.160   5.029 -0.0010 -0.3623  0.5789
  295MOL0     C38856   0.124   1.482   5.011 -0.2381  0.7340 -0.2474
  295MOL0     C38857   0.010   1.541   4.954 -0.1400 -0.2865  0.9959
  295MOL0     N38858  -0.243   1.061   4.678 -0.7567 -0.6185  0.4255
  295MOL0     N38859  -0.133   0.998   4.656 -0.2821 -1.0587  0.2922
  295MOL0     C38860   0.854   1.705   4.744  0.0523  0.4208 -0.3739
  295MOL0     C38861   0.955   1.794   4.775  0.6047 -0.2199 -0.5529
  295MOL0     C38862   1.172   2.168   4.901  0.4357 -0.1939 -0.4210
  295MOL0     C38863   1.223   2.274   4.820 -0.4322  0.5857 -0.1050
  295MOL0     C38864   1.313   2.366   4.873 -0.3389  0.3809 -0.9654
  295MOL0     C38865   1.352   2.356   5.013 -0.5033 -0.2556 -0.1843
  295MOL0     O38866   1.451   2.449   5.060  0.3357  0.6829  1.0324
  295MOL0     C38867   1.514   2.436   5.183  0.1864 -1.5012 -0.9919
  295MOL0     C38868   1.573   2.579   5.200 -0.8257  0.7257  0.0957
  295MOL0     C38869   1.472   2.691   5.243  0.5441  0.6710  0.9656
  295MOL0     C38870   1.536   2.817   5.295 -0.3986  0.7166 -1.0358
  295MOL0     C38871   1.609   2.796   5.420  0.4984  0.1826 -0.8593
  295MOL0     C38872   1.675   2.794   5.524  0.2566 -1.1262  0.4556
  295MOL0     C38873   1.303   2.252   5.084 -1.0365 -0.0808 -0.4798
  295MOL0     C38874   1.214   2.151   5.029  0.5972 -0.1015  0.7048
  295MOL0     H38875   0.768   2.003   4.968  2.4156  1.1459 -1.1176
  295MOL0     H38876   0.599   1.826   4.915  0.9372  1.1655  0.8019
  295MOL0     H38877   0.442   1.721   4.785 -2.0496  0.1246  4.3365
  295MOL0     H38878   0.504   1.610   4.905  1.2641 -0.7163  1.0690
  295MOL0     H38879   0.385   1.440   4.816  0.1639  2.2802  2.6814
  295MOL0     H38880   0.480   1.460   4.662 -0.7157  0.0585  0.4652
  295MOL0     H38881   0.337   1.570   4.556  2.2789 -1.0973  0.8016
  295MOL0     H38882   0.234   1.637   4.692 -2.7053  1.0495 -2.0604
  295MOL0     H38883   0.122   1.438   4.716 -4.5069 -1.0265 -2.4869
  295MOL0     H38884   0.124   1.472   4.536  3.1713  2.1471 -2.1164
  295MOL0     H38885   0.275   1.260   4.681  2.0032 -0.7300 -0.7602
  295MOL0     H38886   0.326   1.302   4.517 -0.9277 -0.1691 -1.3808
  295MOL0     H38887   0.075   1.244   4.452  0.6741  3.1032  0.8580
  295MOL0     H38888   0.050   1.236   4.627  0.2340 -0.8447  0.2366
  295MOL0     H38889   0.260   1.054   4.510 -0.1591  0.1871  1.0921
  295MOL0     H38890   0.184   1.032   4.660  4.9487  0.1765 -0.3850
  295MOL0     H38891   0.094   0.892   4.498  0.8883  0.4415  0.0180
  295MOL0     H38892   0.073   1.020   4.384  3.4792  1.9311  0.8173
  295MOL0     H38893  -0.152   1.177   4.384  2.5225 -0.3605  1.1109
  295MOL0     H38894  -0.405   1.254   4.661  0.4546 -3.6316  0.8136
  295MOL0     H38895  -0.457   1.208   4.496 -1.7444  1.3964  1.9155
  295MOL0     H38896  -0.408   1.452   4.480  0.8681  0.8579  0.8955
  295MOL0     H38897  -0.288   1.342   4.398  0.2736  0.4783  0.4261
  295MOL0     H38898  -0.133   1.382   4.575  0.0583  0.8002 -1.4307
  295MOL0     H38899  -0.199   1.533   4.517 -2.0115  0.5064 -1.5339
  295MOL0     H38900  -0.310   1.394   4.773 -1.2529  1.0139  0.9520
  295MOL0     H38901  -0.343   1.549   4.709 -0.2728 -1.2586  2.5838
  295MOL0     H38902  -0.130   1.262   4.813  0.3081 -0.1996 -1.2757
  295MOL0     H38903   0.050   1.153   4.932  1.2045 -1.0219  1.2691
  295MOL0     H38904   0.428   1.235   5.335  2.5737 -0.1685  2.1491
  295MOL0     H38905   0.621   1.122   5.385  1.0547  3.4063  1.0438
  295MOL0     H38906   1.020   1.154   5.307  0.6899 -1.3487 -1.0513
  295MOL0     H38907   0.943   1.274   5.198  0.2727  0.2593  0.3166
  295MOL0     H38908   0.989   1.110   5.021  0.0867  3.7731 -0.7929
  295MOL0     H38909   1.094   1.022   5.139  0.0622 -1.2160 -0.9520
  295MOL0     H38910   1.245   1.149   5.014 -2.3938 -2.0217 -0.9569
  295MOL0     H38911   1.231   1.212   5.185  2.8156 -1.5539 -1.1069
  295MOL0     H38912   1.090   1.334   4.936  0.1061 -0.3529  0.4178
  295MOL0     H38913   1.077   1.385   5.107  2.3454 -0.4767  1.8349
  295MOL0     H38914   1.320   1.394   4.932  0.7950 -1.5360  0.9752
  295MOL0     H38915   1.342   1.437   5.090  1.0991 -3.7993 -3.1073
  295MOL0     H38916   1.201   1.633   5.082  1.6266  0.2110  0.0617
  295MOL0     H38917   1.145   1.602   4.915 -1.3935  1.1098  1.6155
  295MOL0     H38918   1.296   1.776   4.932 -1.0831 -1.0785  0.7688
  295MOL0     H38919   1.409   1.705   5.030 -0.3871 -0.6878  1.3092
  295MOL0     H38920   1.460   1.519   4.861  1.2489  0.0420 -1.9111
  295MOL0     H38921   1.509   1.685   4.833  0.9916 -1.6707  3.5084
  295MOL0     H38922   0.781   1.228   5.001  0.8754 -3.3988  1.5056
  295MOL0     H38923   0.582   1.379   4.968 -1.1252 -2.5606 -1.5434
  295MOL0     H38924   0.204   1.540   5.057 -0.6563  0.7907  0.4118
  295MOL0     H38925   0.028   1.648   4.959  0.5458 -0.1801 -1.9298
  295MOL0     H38926   0.883   1.624   4.678 -1.7027  2.1833 -3.5782
  295MOL0     H38927   1.056   1.782   4.737 -0.0725 -1.0956 -2.2005
  295MOL0     H38928   1.213   2.270   4.712  0.6593  2.3322 -0.3020
  295MOL0     H38929   1.353   2.444   4.808 -3.8692  1.2617 -2.3442
  295MOL0     H38930   1.595   2.363   5.195  1.5242  0.1707  0.8196
  295MOL0     H38931   1.447   2.406   5.263 -0.3054 -0.9497 -1.1891
  295MOL0     H38932   1.656   2.571   5.271  2.8990 -2.0740 -3.9378
  295MOL0     H38933   1.621   2.607   5.105  0.9311 -2.5687 -0.1652
  295MOL0     H38934   1.421   2.643   5.327 -0.4510  1.1169  0.6308
  295MOL0     H38935   1.393   2.715   5.171  0.3612  0.9037  1.2412
  295MOL0     H38936   1.610   2.845   5.219  1.6642  4.4090  1.9851
  295MOL0     H38937   1.467   2.901   5.307 -1.9299 -0.7632  1.1670
  295MOL0     H38938   1.733   2.801   5.613  0.8432  2.0245 -0.0333
  295MOL0     H38939   1.343   2.226   5.182 -0.4454  0.0671 -0.6803
  295MOL0     H38940   1.184   2.069   5.094  4.6120 -2.7501 -0.3730
  296MOL0     O38941   3.658  10.427   4.681  0.4574  0.2724  0.3197
  296MOL0     C38942   3.575  10.512   4.643 -0.3172  0.6632 -0.5029
  296MOL0     O38943   3.512  10.601   4.719  0.9686  0.0252 -0.1480
  296MOL0     C38944   3.542  10.607   4.852 -0.0432  0.0564  1.2278
  296MOL0     C38945   3.672  10.636   4.904 -0.0595  0.3681 -0.1165
  296MOL0     C38946   3.692  10.648   5.043  0.3482 -0.8444 -0.0123
  296MOL0     C38947   3.583  10.652   5.128 -0.1048 -0.4447 -0.2930
  296MOL0     O38948   3.590  10.661   5.264  0.3136  0.5384 -0.3605
  296MOL0     C38949   3.654  10.542   5.319 -0.2877 -0.3843 -0.0044
  296MOL0     C38950   3.584  10.408   5.278 -0.1773  0.4315  0.5697
  296MOL0     C38951   3.644  10.272   5.321  0.3909  0.1335  0.0176
  296MOL0     C38952   3.782  10.242   5.261  0.1482 -0.1404 -0.3390
  296MOL0     C38953   3.824  10.118   5.320  0.6711  0.4596  0.4168
  296MOL0     C38954   3.942  10.070   5.233 -0.5520  0.5461  0.6903
  296MOL0     C38955   4.049   9.999   5.318  0.2247 -0.0290 -0.5355
  296MOL0     C38956   4.172   9.966   5.229 -0.3961  0.1325 -0.5629
  296MOL0     N38957   4.142   9.883   5.115 -0.4915  0.4909  0.0269
  296MOL0     C38958   4.149   9.924   4.984  0.7203 -0.6658  0.0357
  296MOL0     C38959   4.103   9.829   4.898 -1.2529  0.0264 -0.2174
  296MOL0     C38960   4.048   9.854   4.766  0.9538  0.0476  0.2839
  296MOL0     C38961   3.892   9.836   4.774 -0.9995 -0.0132  0.6252
  296MOL0     C38962   3.836   9.851   4.638 -0.2126  0.1344  0.1630
  296MOL0     C38963   3.691   9.808   4.645 -0.6025  0.4467 -0.2585
  296MOL0     O38964   3.641   9.825   4.506  0.5711  0.2884  0.0930
  296MOL0     C38965   3.508   9.840   4.509  1.0785 -0.0991  0.1674
  296MOL0     C38966   3.425   9.733   4.553  0.1775  0.8938  0.2719
  296MOL0     C38967   3.285   9.746   4.540 -0.6504  0.6386  0.0878
  296MOL0     C38968   3.229   9.849   4.470 -0.6080  0.1661  0.5812
  296MOL0     C38969   3.085   9.854   4.456 -0.3448  0.9933  0.2306
  296MOL0     O38970   3.037   9.947   4.367 -0.2272  0.3741  0.6696
  296MOL0     C38971   2.902   9.954   4.338  0.9124 -0.1169  1.2565
  296MOL0     C38972   2.843  10.082   4.344 -0.1983  0.9466 -0.3000
  296MOL0     C38973   2.711  10.089   4.306 -0.3738  0.0966 -0.1424
  296MOL0     C38974   2.643   9.979   4.249  0.1905 -0.4048  0.2400
  296MOL0     O38975   2.504   9.995   4.222 -0.3124 -0.3740  0.2953
  296MOL0     C38976   2.426   9.875   4.210  0.2596  0.1325  0.6272
  296MOL0     C38977   2.409   9.807   4.347 -0.2793 -0.9905 -0.2159
  296MOL0     C38978   2.289   9.700   4.333 -0.1008  0.0816  0.3126
  296MOL0     C38979   2.165   9.782   4.356 -0.3808  0.4517  0.8672
  296MOL0     C38980   2.055   9.693   4.294 -0.1926  0.7767  0.0044
  296MOL0     C38981   1.914   9.743   4.322  0.3863  0.3650  0.9701
  296MOL0     C38982   1.818   9.679   4.218 -0.1026 -0.6661 -0.9022
  296MOL0     C38983   1.781   9.535   4.270  0.6345  0.3285  0.9115
  296MOL0    Cl38984   1.639   9.571   4.369 -0.1884  0.1846  0.0457
  296MOL0     C38985   2.709   9.856   4.244  1.1226  0.1181  0.3452
  296MOL0     C38986   2.829   9.838   4.299 -0.1773 -0.2626  0.2574
  296MOL0     O38987   3.020   9.768   4.518 -0.1397  0.3854 -0.1278
  296MOL0     C38988   3.310   9.956   4.428 -0.8722  0.3906 -0.3609
  296MOL0     C38989   3.450   9.954   4.446  0.0228 -0.2614 -0.7921
  296MOL0     N38990   4.067   9.724   4.984  0.2816 -0.3676 -0.9508
  296MOL0     N38991   4.077   9.763   5.112  0.5354 -0.0531 -0.1053
  296MOL0     C38992   3.453  10.645   5.075  0.4297 -0.4887  0.9124
  296MOL0     C38993   3.436  10.606   4.936 -0.6153 -0.4536 -0.1121
  296MOL0     C38994   3.516  10.490   4.507 -0.3048 -0.1700  0.4773
  296MOL0     C38995   3.454  10.597   4.448  0.8580  0.3269  0.1006
  296MOL0     C38996   3.376  10.569   4.327  0.5202 -0.2979  0.3348
  296MOL0     C38997   3.382  10.448   4.258 -0.7622  0.2060 -0.2498
  296MOL0     O38998   3.298  10.417   4.157  0.0156 -0.1555  0.2722
  296MOL0     C38999   3.347  10.329   4.052  0.5876  0.1929  0.5982
  296MOL0     C39000   3.213  10.274   3.990  0.0167 -0.2019  0.0526
  296MOL0     C39001   3.134  10.189   4.082 -0.4368  0.5821  0.2389
  296MOL0     C39002   3.021  10.113   4.012  1.5251 -0.0564  0.2052
  296MOL0     C39003   2.933  10.205   3.947 -0.3621 -0.0600  0.3033
  296MOL0     C39004   2.860  10.289   3.905 -0.1679  0.2309  0.7140
  296MOL0     C39005   3.455  10.348   4.326 -0.2802 -0.1346  0.2854
  296MOL0     C39006   3.518  10.368   4.442 -0.6604 -0.0491  0.4655
  296MOL0     H39007   3.756  10.619   4.838  0.0680  0.4505  0.0241
  296MOL0     H39008   3.790  10.667   5.087 -0.7638  2.7709  1.2788
  296MOL0     H39009   3.647  10.550   5.428 -2.9140  0.7968 -0.1898
  296MOL0     H39010   3.760  10.546   5.291  0.0404  0.9299  1.3214
  296MOL0     H39011   3.572  10.394   5.170  0.8871 -1.3369  0.6467
  296MOL0     H39012   3.485  10.409   5.324  0.8444  0.8392  2.8965
  296MOL0     H39013   3.579  10.191   5.287 -0.0512  0.0304  1.0756
  296MOL0     H39014   3.655  10.276   5.430  0.0176  2.6360  0.0151
  296MOL0     H39015   3.778  10.234   5.152  0.1922 -0.3794 -0.3229
  296MOL0     H39016   3.852  10.319   5.292 -0.0040  1.4581 -3.5286
  296MOL0     H39017   3.739  10.051   5.334 -0.4655  1.2287 -2.2921
  296MOL0     H39018   3.865  10.124   5.422  0.3495  2.0517  0.4892
  296MOL0     H39019   3.984  10.158   5.184 -1.3933  0.0428 -0.9986
  296MOL0     H39020   3.906  10.008   5.150  1.1195 -3.9915  2.9971
  296MOL0     H39021   4.071  10.065   5.402 -2.3873 -1.1833  1.1876
  296MOL0     H39022   4.009   9.904   5.354 -3.9640  0.0058 -4.1625
  296MOL0     H39023   4.257   9.921   5.281 -1.1509 -0.0031  0.5848
  296MOL0     H39024   4.212  10.062   5.193  4.1687 -1.2277  0.1654
  296MOL0     H39025   4.171  10.023   4.946 -3.5080 -0.8137 -3.6075
  296MOL0     H39026   4.085   9.779   4.695 -1.3797 -1.5179  0.5896
  296MOL0     H39027   4.065   9.956   4.731  1.2444 -0.5390 -1.3541
  296MOL0     H39028   3.857   9.909   4.848  0.5293  1.2482  0.1504
  296MOL0     H39029   3.889   9.734   4.814  1.1931  0.5402  2.3947
  296MOL0     H39030   3.848   9.947   4.586  0.3177 -1.8777 -3.8011
  296MOL0     H39031   3.884   9.775   4.577 -1.1802 -2.8874  2.8912
  296MOL0     H39032   3.641   9.879   4.711 -2.7017  1.1099 -2.4158
  296MOL0     H39033   3.686   9.705   4.682 -0.4585  1.2446  2.2149
  296MOL0     H39034   3.467   9.647   4.602  0.0066 -0.3804 -1.7022
  296MOL0     H39035   3.233   9.662   4.585 -1.0284 -0.1210 -1.6661
  296MOL0     H39036   2.889  10.172   4.384 -3.1546  2.2040  0.5684
  296MOL0     H39037   2.648  10.177   4.309  0.1656  0.8430 -4.2937
  296MOL0     H39038   2.472   9.806   4.138  1.9477  0.2012  1.5923
  296MOL0     H39039   2.325   9.899   4.177  0.4418 -0.3441 -0.3170
  296MOL0     H39040   2.386   9.879   4.426  1.7959  0.7494 -1.0761
  296MOL0     H39041   2.499   9.750   4.373  1.6699  0.9746 -2.2251
  296MOL0     H39042   2.279   9.627   4.414 -2.4864  2.6938  2.6101
  296MOL0     H39043   2.294   9.654   4.234 -1.5189 -1.4305  0.8875
  296MOL0     H39044   2.167   9.800   4.464 -1.2928 -4.0955  1.8594
  296MOL0     H39045   2.164   9.874   4.297 -0.0441  0.3877  0.7566
  296MOL0     H39046   2.048   9.592   4.334 -3.9945  0.2436 -1.5634
  296MOL0     H39047   2.072   9.683   4.186  1.7301  1.9433  0.1531
  296MOL0     H39048   1.906   9.851   4.310 -1.3231  0.0465 -1.3479
  296MOL0     H39049   1.882   9.711   4.422  3.1954  2.5697  2.7328
  296MOL0     H39050   1.731   9.744   4.212 -1.4611 -2.2143  0.7327
  296MOL0     H39051   1.873   9.665   4.125 -0.6656 -3.2782 -0.9403
  296MOL0     H39052   1.862   9.494   4.331  3.2665  1.3655 -1.6656
  296MOL0     H39053   1.773   9.474   4.179  0.4285  0.4242  0.8632
  296MOL0     H39054   2.665   9.772   4.191 -0.0361  0.5040  0.6780
  296MOL0     H39055   2.877   9.740   4.300  0.2434 -0.0554  1.3295
  296MOL0     H39056   3.270  10.044   4.380 -0.7238  0.1483 -0.9429
  296MOL0     H39057   3.513  10.038   4.420  0.6770 -0.2342  0.7810
  296MOL0     H39058   3.362  10.645   5.134 -0.4169 -0.3834 -0.3556
  296MOL0     H39059   3.337  10.610   4.890 -0.4056  2.6709 -0.5145
  296MOL0     H39060   3.455  10.701   4.480  0.9853  0.8749 -1.5947
  296MOL0     H39061   3.310  10.643   4.283  0.7732 -0.6524 -0.6774
  296MOL0     H39062   3.409  10.244   4.082 -0.4793  0.0910  2.6857
  296MOL0     H39063   3.402  10.392   3.980  1.9227 -2.1453 -0.5554
  296MOL0     H39064   3.148  10.354   3.953  2.5415  1.4276 -1.1618
  296MOL0     H39065   3.246  10.218   3.902 -2.8739  1.2533 -2.1306
  296MOL0     H39066   3.073  10.255   4.145 -4.2725 -4.2797  2.3376
  296MOL0     H39067   3.189  10.117   4.143 -2.7838 -1.4593  0.1062
  296MOL0     H39068   3.059  10.045   3.935 -2.2286  0.0877 -1.9893
  296MOL0     H39069   2.964  10.060   4.090 -1.3186  0.8800 -1.1289
  296MOL0     H39070   2.794  10.363   3.864  1.4290  1.0305 -0.5197
  296MOL0     H39071   3.466  10.248   4.287 -1.0156 -0.3862  0.7093
  296MOL0     H39072   3.550  10.282   4.500 -4.7311 -0.1044  3.0421
  297MOL0     O39073   2.169   1.284   7.415  0.1476 -0.6850 -1.0562
  297MOL0     C39074   2.120   1.401   7.436 -0.2495  0.4947  0.0356
  297MOL0     O39075   2.062   1.437   7.547  0.4770  0.2365 -0.6322
  297MOL0     C39076   2.088   1.356   7.659 -0.4353 -0.1116 -0.0365
  297MOL0     C39077   1.987   1.355   7.751 -0.3493  0.7044  0.8291
  297MOL0     C39078   2.006   1.291   7.872  0.4901 -0.2104  0.6185
  297MOL0     C39079   2.125   1.234   7.907 -0.9020  0.9097 -0.2664
  297MOL0     O39080   2.111   1.190   8.037 -0.6777  0.4469  0.0942
  297MOL0     C39081   2.230   1.180   8.113  0.3162 -0.5945 -0.2842
  297MOL0     C39082   2.293   1.042   8.092  0.3702 -0.9473  0.1766
  297MOL0     C39083   2.219   0.929   8.160  0.0837 -0.7150  0.4129
  297MOL0     C39084   2.294   0.801   8.154 -0.1936  0.7067 -0.3459
  297MOL0     C39085   2.413   0.802   8.257  0.5009 -0.2513  0.4882
  297MOL0     C39086   2.475   0.663   8.274 -0.2779  0.3627  0.4706
  297MOL0     C39087   2.594   0.650   8.375 -0.5108 -0.0751 -0.9456
  297MOL0     C39088   2.605   0.526   8.460  0.0227  0.4076 -0.4292
  297MOL0     N39089   2.725   0.533   8.550 -0.2039 -0.1791  0.6022
  297MOL0     C39090   2.734   0.611   8.660 -0.1311 -0.5736 -0.0265
  297MOL0     C39091   2.837   0.567   8.730  0.2592  1.2074 -0.8528
  297MOL0     C39092   2.867   0.599   8.873 -0.0245  0.0885 -0.0947
  297MOL0     C39093   2.855   0.750   8.894 -0.7230  0.3501  0.3883
  297MOL0     C39094   2.907   0.785   9.032 -0.1166 -0.6795  0.8725
  297MOL0     C39095   2.907   0.940   9.054 -0.2181  0.9012 -0.1377
  297MOL0     O39096   2.992   0.955   9.174  0.2933 -0.4265  0.0538
  297MOL0     C39097   3.125   0.990   9.145  1.5419  0.1773 -0.7085
  297MOL0     C39098   3.139   1.105   9.086 -0.4748 -0.0798  0.2465
  297MOL0     C39099   3.271   1.149   9.060  0.0950  0.3958 -0.1510
  297MOL0     C39100   3.382   1.082   9.119 -1.4667 -0.0375  0.1804
  297MOL0     C39101   3.525   1.122   9.098 -0.2564 -0.0451  0.1068
  297MOL0     O39102   3.553   1.263   9.082 -0.5724  0.7213  0.0830
  297MOL0     C39103   3.687   1.307   9.079  0.1789 -0.2088 -0.2995
  297MOL0     C39104   3.711   1.401   8.985 -0.5150 -0.7887  0.0148
  297MOL0     C39105   3.831   1.475   8.974  0.2276  1.0162 -0.3081
  297MOL0     C39106   3.929   1.459   9.071  0.9667  0.0781  0.1288
  297MOL0     O39107   4.038   1.536   9.061  0.7182 -0.0066 -0.6166
  297MOL0     C39108   4.076   1.641   9.149 -0.6779  0.4798 -0.0248
  297MOL0     C39109   4.047   1.778   9.095  0.3859 -1.0293  0.0862
  297MOL0     C39110   3.935   1.850   9.166  0.2313 -0.3733 -0.8202
  297MOL0     C39111   3.903   1.992   9.114  0.5560  0.0958  0.7847
  297MOL0     C39112   3.856   2.087   9.230  0.5489  0.6143  0.3318
  297MOL0     C39113   3.839   2.232   9.194 -0.3391 -0.5028 -0.8213
  297MOL0     C39114   3.832   2.333   9.322  0.2711 -0.1069  0.1098
  297MOL0     C39115   3.838   2.485   9.285  0.9609  0.9085 -0.5677
  297MOL0    Cl39116   3.677   2.525   9.217 -0.2131 -0.3555 -0.2090
  297MOL0     C39117   3.902   1.358   9.167 -0.1741  0.2264 -0.8137
  297MOL0     C39118   3.781   1.283   9.174  0.7420 -0.3074 -0.9173
  297MOL0     O39119   3.596   1.032   9.083 -0.3398 -0.2595 -0.2689
  297MOL0     C39120   3.356   0.963   9.188 -0.0811 -0.1519 -0.6191
  297MOL0     C39121   3.227   0.914   9.198 -0.2961  0.6914  0.7680
  297MOL0     N39122   2.913   0.488   8.651 -0.5475  0.0890  0.4042
  297MOL0     N39123   2.842   0.465   8.541 -0.8301 -0.8559  0.1663
  297MOL0     C39124   2.232   1.238   7.815  1.1390 -0.5910  0.8339
  297MOL0     C39125   2.217   1.319   7.702 -0.0512  0.1053  0.2017
  297MOL0     C39126   2.103   1.482   7.313  0.0004  0.2364 -0.1294
  297MOL0     C39127   2.030   1.600   7.318 -0.2092 -0.2989  0.3358
  297MOL0     C39128   2.020   1.683   7.204 -0.5966  0.2398  0.1211
  297MOL0     C39129   2.067   1.645   7.079 -0.1180  0.7044  0.7001
  297MOL0     O39130   2.063   1.713   6.956  0.2018  0.7677  0.0702
  297MOL0     C39131   2.029   1.854   6.951  0.2182 -0.6982 -0.7773
  297MOL0     C39132   1.876   1.886   6.985 -0.0371 -1.1402  0.4516
  297MOL0     C39133   1.779   1.868   6.879  0.5774  0.5990 -0.1317
  297MOL0     C39134   1.638   1.826   6.927 -0.3019 -0.1065  0.0994
  297MOL0     C39135   1.552   1.798   6.812 -0.4361  0.0201 -0.1004
  297MOL0     C39136   1.482   1.769   6.712  0.0135 -0.9465 -0.5154
  297MOL0     C39137   2.138   1.526   7.078 -0.4887  0.5900 -0.2067
  297MOL0     C39138   2.152   1.444   7.188 -0.5461 -0.3862  0.4559
  297MOL0     H39139   1.894   1.401   7.720 -0.4964 -0.7698 -1.1104
  297MOL0     H39140   1.919   1.303   7.935 -0.1341 -1.2861  0.0119
  297MOL0     H39141   2.206   1.169   8.219 -0.0344  0.3607 -0.2542
  297MOL0     H39142   2.303   1.261   8.113 -2.9504  2.6183  1.5023
  297MOL0     H39143   2.401   1.047   8.111  1.0825  2.6597 -3.2790
  297MOL0     H39144   2.284   1.018   7.985  1.1521 -0.0963 -0.1039
  297MOL0     H39145   2.122   0.926   8.111 -0.1980  2.4037  0.5686
  297MOL0     H39146   2.196   0.951   8.264 -2.3194  1.4226 -0.4581
  297MOL0     H39147   2.230   0.714   8.175  1.0971 -0.9183 -2.7465
  297MOL0     H39148   2.334   0.780   8.055 -0.3127  0.8008 -0.4142
  297MOL0     H39149   2.381   0.838   8.355  3.2316  3.2107  0.2701
  297MOL0     H39150   2.489   0.875   8.230  0.2349  0.5933  1.8785
  297MOL0     H39151   2.496   0.613   8.179  2.6015 -2.0443  2.1928
  297MOL0     H39152   2.398   0.601   8.320 -0.2375  0.2863  0.4339
  297MOL0     H39153   2.694   0.673   8.337  0.3140 -0.1603  1.0459
  297MOL0     H39154   2.574   0.725   8.453  0.0022 -2.4749  1.6402
  297MOL0     H39155   2.607   0.437   8.396  1.7636  3.0679 -4.4951
  297MOL0     H39156   2.517   0.521   8.525  0.4339 -1.8135  0.0516
  297MOL0     H39157   2.655   0.673   8.700 -0.4553 -1.6447  1.0868
  297MOL0     H39158   2.967   0.565   8.901  1.2243  0.9233 -3.1240
  297MOL0     H39159   2.799   0.553   8.945 -0.9416  1.8883  0.2424
  297MOL0     H39160   2.749   0.776   8.908 -2.1077 -3.8821 -0.9547
  297MOL0     H39161   2.907   0.803   8.814  2.0495 -0.8122  1.3256
  297MOL0     H39162   2.858   0.740   9.119 -2.5123  0.0597 -0.0063
  297MOL0     H39163   3.010   0.747   9.033 -0.2122 -1.0094 -0.1829
  297MOL0     H39164   2.803   0.973   9.067 -0.3786 -0.3536  2.2697
  297MOL0     H39165   2.943   1.000   8.969  1.0414  1.0319  0.4628
  297MOL0     H39166   3.057   1.172   9.061  0.3002  0.0905 -2.0225
  297MOL0     H39167   3.288   1.247   9.017 -0.0248  0.2181 -0.6070
  297MOL0     H39168   3.637   1.412   8.906 -0.5060 -2.2871 -0.2299
  297MOL0     H39169   3.836   1.538   8.886 -2.2965  0.1225 -1.1687
  297MOL0     H39170   4.178   1.635   9.186 -1.5497  2.0005  2.9463
  297MOL0     H39171   4.018   1.638   9.241 -2.3516 -3.7140 -0.9771
  297MOL0     H39172   4.014   1.777   8.990 -0.7172  0.6067  0.3828
  297MOL0     H39173   4.138   1.838   9.098 -1.8468  2.8335 -1.7796
  297MOL0     H39174   3.960   1.843   9.273 -1.1929  0.6970 -0.3821
  297MOL0     H39175   3.845   1.790   9.149 -0.7455  1.4271 -2.4569
  297MOL0     H39176   3.993   2.039   9.074  0.1283 -0.2067 -0.5650
  297MOL0     H39177   3.821   1.988   9.042  0.3139  1.3119  0.9740
  297MOL0     H39178   3.921   2.081   9.317  2.8674 -1.1502 -1.3943
  297MOL0     H39179   3.757   2.060   9.269  0.6150  4.3907  3.7709
  297MOL0     H39180   3.754   2.245   9.127 -0.6665 -2.0153 -0.7474
  297MOL0     H39181   3.928   2.263   9.139  0.0802  1.7857  0.9912
  297MOL0     H39182   3.747   2.315   9.387  1.2877  0.4577  1.6586
  297MOL0     H39183   3.928   2.329   9.375  0.1378  1.5409  0.5365
  297MOL0     H39184   3.909   2.503   9.204  3.4579 -1.4426  0.9343
  297MOL0     H39185   3.862   2.543   9.374  0.5157 -0.9529  0.8272
  297MOL0     H39186   3.992   1.334   9.223 -0.9473  3.7933  2.3939
  297MOL0     H39187   3.757   1.209   9.250 -1.8138  0.8595 -0.4837
  297MOL0     H39188   3.435   0.910   9.241 -1.8607 -0.7328  1.6116
  297MOL0     H39189   3.197   0.828   9.257  2.4803  1.8884  4.3468
  297MOL0     H39190   2.331   1.199   7.835 -0.8499 -5.9788  1.7863
  297MOL0     H39191   2.306   1.318   7.639 -1.3787 -2.7814 -1.8761
  297MOL0     H39192   1.981   1.632   7.410  4.1321 -0.9571  3.2019
  297MOL0     H39193   1.962   1.773   7.226  0.4890  1.1979 -0.7751
  297MOL0     H39194   2.048   1.896   6.852  1.7113  0.2835 -0.1134
  297MOL0     H39195   2.094   1.909   7.020 -2.5003  3.8219 -1.4493
  297MOL0     H39196   1.844   1.819   7.066  0.8094 -1.3323  0.6323
  297MOL0     H39197   1.880   1.987   7.027  0.4012 -1.2439  0.6691
  297MOL0     H39198   1.816   1.795   6.805 -2.1567  0.0595 -1.0756
  297MOL0     H39199   1.763   1.963   6.828 -1.7867 -0.4889 -1.6164
  297MOL0     H39200   1.642   1.740   6.994 -0.2145  0.2089  0.5109
  297MOL0     H39201   1.607   1.911   6.990  0.2780  0.2785 -0.1246
  297MOL0     H39202   1.432   1.742   6.621  1.4327 -3.9661 -0.5192
  297MOL0     H39203   2.188   1.500   6.984  1.5345  1.7474  0.4902
  297MOL0     H39204   2.222   1.361   7.183  2.0641  1.7527 -1.3785
  298MOL0     O39205   4.249   4.677  10.304 -0.2866 -0.5072 -0.2021
  298MOL0     C39206   4.345   4.740  10.341  0.3903  0.2985  0.5106
  298MOL0     O39207   4.368   4.868  10.313  0.4026 -0.0546 -0.5424
  298MOL0     C39208   4.335   4.941  10.200 -0.4562  0.0620  0.1731
  298MOL0     C39209   4.268   4.883  10.087  1.6435 -0.6382  0.2276
  298MOL0     C39210   4.232   4.963   9.980 -0.4417  0.2009  0.5093
  298MOL0     C39211   4.258   5.102   9.982  0.7516  0.2062 -1.0043
  298MOL0     O39212   4.206   5.190   9.888 -0.7163  0.5257  0.0042
  298MOL0     C39213   4.114   5.287   9.941  0.4698 -0.7745  0.1718
  298MOL0     C39214   4.112   5.403   9.858 -0.9403 -0.1949  0.1449
  298MOL0     C39215   4.213   5.513   9.920  0.7368  0.6951  0.6518
  298MOL0     C39216   4.195   5.638   9.828  0.5915  0.1199 -0.4664
  298MOL0     C39217   4.075   5.724   9.864  1.7202  0.1421 -0.2115
  298MOL0     C39218   4.043   5.853   9.800  0.0304  0.6666  0.5138
  298MOL0     C39219   4.132   5.971   9.837 -0.3943  0.1104 -0.9514
  298MOL0     C39220   4.080   6.022   9.979  0.2994  0.1867 -0.2421
  298MOL0     N39221   4.154   6.150  10.014 -0.7118  0.1462  0.9032
  298MOL0     C39222   4.139   6.268   9.952 -0.3751 -0.3264 -0.8817
  298MOL0     C39223   4.223   6.360  10.010  0.1975 -0.2473  1.0569
  298MOL0     C39224   4.232   6.507   9.986 -0.1408  1.1063 -0.5804
  298MOL0     C39225   4.143   6.574  10.090 -0.4706  0.1732  0.3615
  298MOL0     C39226   4.188   6.558  10.244 -0.5324  0.9343  0.6415
  298MOL0     C39227   4.116   6.645  10.342  0.7866  0.5039  0.3267
  298MOL0     O39228   3.988   6.584  10.351 -0.5222  0.8182 -0.5929
  298MOL0     C39229   3.921   6.598  10.470  0.7403 -0.2126 -0.1884
  298MOL0     C39230   3.921   6.713  10.543  0.3202 -0.0646  0.6032
  298MOL0     C39231   3.866   6.720  10.665  0.5225  0.3821 -0.2519
  298MOL0     C39232   3.803   6.599  10.724 -0.3584 -0.2287  0.8237
  298MOL0     C39233   3.764   6.590  10.857  0.4806 -0.7073 -0.5994
  298MOL0     O39234   3.744   6.707  10.928  0.4482  0.3050  0.1826
  298MOL0     C39235   3.731   6.689  11.062 -0.0619 -0.4758 -0.2785
  298MOL0     C39236   3.847   6.676  11.135  0.1092 -0.3564  0.1127
  298MOL0     C39237   3.844   6.637  11.271 -0.1039 -0.2039  0.2051
  298MOL0     C39238   3.721   6.630  11.337  0.7476 -0.4392  0.6190
  298MOL0     O39239   3.694   6.586  11.464 -0.3468 -0.0991  0.2578
  298MOL0     C39240   3.808   6.593  11.545 -0.0012 -1.0272  0.6103
  298MOL0     C39241   3.783   6.568  11.688  0.7305 -0.2656  1.6162
  298MOL0     C39242   3.900   6.598  11.779 -0.0578  0.1288 -0.0942
  298MOL0     C39243   4.006   6.486  11.777 -0.2264 -0.2652 -0.1970
  298MOL0     C39244   4.111   6.502  11.877  0.2128  0.0067  0.1821
  298MOL0     C39245   4.196   6.379  11.863 -0.9180 -0.7260  0.5240
  298MOL0     C39246   4.338   6.402  11.928  0.0913  0.1428  0.9482
  298MOL0     C39247   4.415   6.521  11.885 -0.1204 -0.7042  0.3031
  298MOL0    Cl39248   4.393   6.542  11.713 -0.1093  0.0672 -0.1289
  298MOL0     C39249   3.602   6.659  11.268  0.2790 -0.2595  0.6804
  298MOL0     C39250   3.606   6.684  11.135  0.5061 -0.9193  0.2000
  298MOL0     O39251   3.765   6.472  10.898 -0.2116 -0.5582 -0.5947
  298MOL0     C39252   3.791   6.482  10.639 -0.0455  0.6918 -0.0328
  298MOL0     C39253   3.848   6.486  10.513 -0.7528  0.2266 -0.1871
  298MOL0     N39254   4.286   6.287  10.108  0.4042  0.3213 -0.0256
  298MOL0     N39255   4.253   6.162  10.108  0.1860 -0.2276 -0.4198
  298MOL0     C39256   4.334   5.153  10.087 -0.1002  0.1489  0.0221
  298MOL0     C39257   4.355   5.074  10.205 -0.8088  0.3027  0.8100
  298MOL0     C39258   4.421   4.671  10.445  0.1036  0.6214  0.7704
  298MOL0     C39259   4.552   4.693  10.459 -1.1104 -0.4094  0.1688
  298MOL0     C39260   4.628   4.642  10.559  0.8197  0.4020  0.7850
  298MOL0     C39261   4.569   4.559  10.659 -0.1710 -0.0501  0.6356
  298MOL0     O39262   4.641   4.521  10.768  0.1294  0.3337  0.1294
  298MOL0     C39263   4.700   4.387  10.770 -0.3402  0.0385 -0.5376
  298MOL0     C39264   4.785   4.374  10.906 -0.2729 -0.7330  0.7252
  298MOL0     C39265   4.837   4.226  10.901 -0.0168 -0.9637  0.1618
  298MOL0     C39266   4.944   4.184  11.002 -0.2581 -0.9568 -0.0198
  298MOL0     C39267   5.051   4.282  11.005 -0.3453  0.3407  0.7250
  298MOL0     C39268   5.152   4.345  10.993  0.1883 -0.1252  0.8550
  298MOL0     C39269   4.446   4.506  10.629 -0.2909 -0.3059  0.5108
  298MOL0     C39270   4.365   4.565  10.526  0.7461 -0.1603  0.2501
  298MOL0     H39271   4.239   4.784  10.054  1.9180 -0.3456 -0.9277
  298MOL0     H39272   4.193   4.927   9.886  1.1264 -0.8599  0.2171
  298MOL0     H39273   4.130   5.313  10.046 -1.6924  4.7438 -0.5382
  298MOL0     H39274   4.015   5.240   9.941 -0.4050  0.8490 -2.9438
  298MOL0     H39275   4.011   5.445   9.856 -0.0013  2.2524 -2.7823
  298MOL0     H39276   4.139   5.387   9.753  0.0458 -1.1158  0.5167
  298MOL0     H39277   4.317   5.480   9.924 -0.4018 -3.9701 -1.6356
  298MOL0     H39278   4.170   5.536  10.017  0.9730  1.9474  0.4815
  298MOL0     H39279   4.279   5.708   9.841 -0.3611  1.8045 -2.6278
  298MOL0     H39280   4.191   5.609   9.722 -1.2459  1.5009 -0.8206
  298MOL0     H39281   4.063   5.729   9.973 -0.4639 -0.5120 -0.3802
  298MOL0     H39282   3.993   5.663   9.825 -1.5269  2.5382  2.2512
  298MOL0     H39283   3.941   5.880   9.827  0.2521 -1.2017  3.8271
  298MOL0     H39284   4.064   5.841   9.693 -1.4430  0.4361  0.2343
  298MOL0     H39285   4.229   5.927   9.864 -1.1874 -0.4613  1.1911
  298MOL0     H39286   4.128   6.057   9.771 -1.3085 -0.0547 -1.1191
  298MOL0     H39287   4.091   5.939  10.050 -0.5306 -1.1214 -1.5757
  298MOL0     H39288   3.975   6.051   9.995  0.5672 -0.6179  4.8609
  298MOL0     H39289   4.067   6.282   9.873  0.1696 -1.9416 -1.6924
  298MOL0     H39290   4.197   6.542   9.889 -2.6022 -1.4117 -0.6953
  298MOL0     H39291   4.339   6.529  10.000  0.2844 -0.3728 -1.3719
  298MOL0     H39292   4.040   6.546  10.066  0.5343 -1.7097 -2.1350
  298MOL0     H39293   4.156   6.682  10.075  0.8161  0.9121  5.1118
  298MOL0     H39294   4.180   6.451  10.263  0.9933  0.0318 -2.9402
  298MOL0     H39295   4.296   6.568  10.261 -0.9627  2.9121  2.6236
  298MOL0     H39296   4.092   6.749  10.319 -0.1753 -0.2269 -2.4068
  298MOL0     H39297   4.175   6.653  10.434 -0.5998 -0.3521  1.3192
  298MOL0     H39298   3.958   6.803  10.496  1.8144  0.3849  2.5428
  298MOL0     H39299   3.874   6.815  10.718  0.5824  0.0962  0.2628
  298MOL0     H39300   3.943   6.688  11.085  0.6805 -0.5664  1.1379
  298MOL0     H39301   3.939   6.620  11.321 -0.2079 -0.2319  0.3953
  298MOL0     H39302   3.839   6.698  11.536  1.1307 -1.5446 -4.4285
  298MOL0     H39303   3.875   6.513  11.513 -0.9851 -2.7398  2.6019
  298MOL0     H39304   3.745   6.466  11.700 -0.3923  0.0794  1.1316
  298MOL0     H39305   3.696   6.626  11.722 -0.0694 -1.8629  2.4373
  298MOL0     H39306   3.859   6.618  11.878 -1.9959  1.6515 -1.1493
  298MOL0     H39307   3.946   6.695  11.761 -0.1777  0.0221 -0.9949
  298MOL0     H39308   3.952   6.397  11.814  0.7363  0.0442  2.1477
  298MOL0     H39309   4.046   6.458  11.679  2.5601 -0.5724  0.9497
  298MOL0     H39310   4.078   6.515  11.981  0.3575  0.9376  0.1152
  298MOL0     H39311   4.172   6.588  11.848  1.3081 -0.4682  1.0170
  298MOL0     H39312   4.202   6.349  11.758 -0.5539  3.4475 -0.8351
  298MOL0     H39313   4.149   6.296  11.916  0.9856 -0.7179  2.3410
  298MOL0     H39314   4.324   6.418  12.036 -1.2194  0.9161  0.6840
  298MOL0     H39315   4.394   6.310  11.908  0.7857  0.8410 -0.4631
  298MOL0     H39316   4.521   6.506  11.911  0.6144  1.5574 -1.0321
  298MOL0     H39317   4.388   6.619  11.926  3.8008  1.4787 -1.7010
  298MOL0     H39318   3.511   6.635  11.322 -2.3609  1.2352 -2.7136
  298MOL0     H39319   3.509   6.693  11.088  0.9878 -1.3874 -0.9169
  298MOL0     H39320   3.746   6.391  10.676 -0.1149  0.3620 -0.9190
  298MOL0     H39321   3.839   6.390  10.462 -1.7864 -0.7790  1.7318
  298MOL0     H39322   4.346   5.261  10.091  0.0789  0.1432 -0.3060
  298MOL0     H39323   4.398   5.120  10.293 -1.0626  1.0380  0.5536
  298MOL0     H39324   4.601   4.771  10.402  1.0263 -1.8478 -0.0722
  298MOL0     H39325   4.734   4.667  10.562  1.1845 -0.6255 -1.2925
  298MOL0     H39326   4.773   4.385  10.688 -0.9832  1.1878 -1.1603
  298MOL0     H39327   4.629   4.304  10.758  0.9411 -1.5419  1.9867
  298MOL0     H39328   4.872   4.439  10.919  1.1032 -1.6026 -2.8442
  298MOL0     H39329   4.709   4.382  10.984  1.8964 -1.2249  3.0378
  298MOL0     H39330   4.872   4.212  10.799 -3.0875 -0.7143 -1.0152
  298MOL0     H39331   4.743   4.171  10.905  0.6106 -2.3541 -2.3036
  298MOL0     H39332   4.901   4.176  11.103  0.4169  1.6101  0.5506
  298MOL0     H39333   4.992   4.088  10.980 -0.4419 -0.4769 -2.8536
  298MOL0     H39334   5.237   4.410  10.982  2.4682 -3.2927 -4.1289
  298MOL0     H39335   4.397   4.430  10.689  1.4555 -1.2309  0.8293
  298MOL0     H39336   4.260   4.541  10.513 -0.0104  0.2722  4.1520
  299MOL0     O39337   6.868   3.321   2.956 -1.1761 -0.5092 -0.6911
  299MOL0     C39338   6.820   3.372   3.060 -0.5723  0.3068  1.0828
  299MOL0     O39339   6.695   3.415   3.074 -0.3366 -0.6070 -0.4789
  299MOL0     C39340   6.606   3.409   2.975 -0.1940  1.2105  0.0434
  299MOL0     C39341   6.545   3.286   2.935  0.2288 -0.8423  0.2078
  299MOL0     C39342   6.449   3.292   2.835  0.4744  0.0247 -0.5515
  299MOL0     C39343   6.416   3.411   2.768 -0.9523 -0.0870 -0.2858
  299MOL0     O39344   6.341   3.413   2.651  0.5055 -0.2360 -0.5713
  299MOL0     C39345   6.363   3.305   2.560 -1.0020 -0.0754 -0.6638
  299MOL0     C39346   6.253   3.200   2.558 -0.5188  0.3539 -0.9066
  299MOL0     C39347   6.263   3.105   2.436  0.6124 -0.6896 -1.0123
  299MOL0     C39348   6.392   3.021   2.425  0.5895 -0.2765  0.3558
  299MOL0     C39349   6.363   2.899   2.334  0.9944  0.2528  0.3301
  299MOL0     C39350   6.340   2.765   2.409  0.3808  0.3088  0.9879
  299MOL0     C39351   6.206   2.747   2.481 -0.2357 -0.2884  0.2906
  299MOL0     C39352   6.198   2.621   2.571  0.5851  0.2055 -0.2489
  299MOL0     N39353   6.103   2.526   2.504 -0.1429  0.1149 -0.1278
  299MOL0     C39354   6.079   2.521   2.363 -0.6751 -0.1901 -0.3879
  299MOL0     C39355   5.968   2.452   2.352  0.6620 -0.4330 -0.7995
  299MOL0     C39356   5.933   2.416   2.219 -0.6979 -0.2554  0.0233
  299MOL0     C39357   5.851   2.532   2.159  0.0951  0.5500  0.7909
  299MOL0     C39358   5.797   2.523   2.014 -0.4805 -0.5784  0.8475
  299MOL0     C39359   5.740   2.391   1.973  0.2166  0.2720  0.9811
  299MOL0     O39360   5.824   2.281   1.963 -0.3980  0.7951  0.4657
  299MOL0     C39361   5.798   2.179   1.874 -0.2095  0.9695  0.1336
  299MOL0     C39362   5.678   2.152   1.806  0.8780 -0.4897 -0.7069
  299MOL0     C39363   5.658   2.036   1.724 -0.2860 -0.4781 -0.1908
  299MOL0     C39364   5.760   1.945   1.715 -1.1211  0.9989 -0.0463
  299MOL0     C39365   5.745   1.816   1.638 -0.4796  0.0937  0.0753
  299MOL0     O39366   5.841   1.718   1.624  0.4082  0.2579 -0.4129
  299MOL0     C39367   5.820   1.601   1.552 -0.1352  0.2681 -0.1772
  299MOL0     C39368   5.798   1.614   1.415 -0.7039  0.9509 -0.6221
  299MOL0     C39369   5.796   1.497   1.335  0.0003  0.3071  1.1186
  299MOL0     C39370   5.800   1.373   1.392 -0.5203 -0.1251  0.8861
  299MOL0     O39371   5.787   1.266   1.303  0.5062 -0.5683  0.1359
  299MOL0     C39372   5.747   1.134   1.346 -0.7734  0.8036 -0.7003
  299MOL0     C39373   5.699   1.054   1.220  0.4728  0.3871 -0.3491
  299MOL0     C39374   5.728   0.900   1.244 -0.2571 -1.3572 -0.7118
  299MOL0     C39375   5.607   0.838   1.309 -0.6994 -0.7804  0.1633
  299MOL0     C39376   5.609   0.685   1.311 -0.8384 -0.1625  0.2777
  299MOL0     C39377   5.672   0.637   1.436 -0.0425 -0.0124 -0.1080
  299MOL0     C39378   5.661   0.491   1.449  0.2057  0.0758  0.1416
  299MOL0     C39379   5.702   0.431   1.587 -0.1234 -0.7660 -0.5445
  299MOL0    Cl39380   5.669   0.259   1.581  0.3705 -0.2482  0.1297
  299MOL0     C39381   5.839   1.360   1.532 -0.3943  0.5903  0.7987
  299MOL0     C39382   5.852   1.478   1.608 -0.9072  0.9290  0.5336
  299MOL0     O39383   5.635   1.820   1.580  0.1371  0.0750  0.7356
  299MOL0     C39384   5.878   1.970   1.780 -0.4218  0.5752  0.3887
  299MOL0     C39385   5.900   2.081   1.855  0.8309  0.3110  0.2715
  299MOL0     N39386   5.908   2.426   2.475  0.5393  0.6191  0.4453
  299MOL0     N39387   5.995   2.470   2.562 -0.3088 -0.4054  0.2765
  299MOL0     C39388   6.468   3.528   2.817  0.6194  0.3411  0.9652
  299MOL0     C39389   6.561   3.525   2.916 -0.1806 -0.6204  0.8761
  299MOL0     C39390   6.920   3.387   3.171 -0.2022 -0.1196  0.1680
  299MOL0     C39391   7.042   3.310   3.190 -1.0895 -1.0377  0.5125
  299MOL0     C39392   7.133   3.339   3.287 -0.4835 -1.1445  1.0700
  299MOL0     C39393   7.108   3.445   3.367  0.0418  0.0048 -0.1002
  299MOL0     O39394   7.204   3.477   3.463  0.0540 -0.2136  0.2351
  299MOL0     C39395   7.348   3.468   3.411  0.5203  0.0765 -0.8697
  299MOL0     C39396   7.436   3.559   3.500  0.3603  0.0825 -0.4813
  299MOL0     C39397   7.580   3.567   3.438  0.3402  0.4900 -0.4053
  299MOL0     C39398   7.671   3.664   3.506 -0.0306 -0.7006  0.0536
  299MOL0     C39399   7.684   3.652   3.644  0.2186  0.1100  0.1846
  299MOL0     C39400   7.684   3.644   3.760  0.0809  0.1328 -0.5329
  299MOL0     C39401   6.979   3.515   3.368 -0.3773  0.2196 -0.0279
  299MOL0     C39402   6.884   3.483   3.272 -0.4010  0.7019  0.6952
  299MOL0     H39403   6.568   3.184   2.966  0.9057 -1.1695 -1.2443
  299MOL0     H39404   6.391   3.203   2.811  0.5327 -0.3383  0.6223
  299MOL0     H39405   6.457   3.255   2.585 -1.3863  0.7432  2.9386
  299MOL0     H39406   6.362   3.340   2.456 -2.5645 -0.9179 -0.9662
  299MOL0     H39407   6.156   3.250   2.562 -0.5957  0.2281 -1.1877
  299MOL0     H39408   6.276   3.137   2.645  1.2695 -0.4906 -1.9401
  299MOL0     H39409   6.251   3.145   2.335 -0.0938 -1.3375 -1.1920
  299MOL0     H39410   6.186   3.030   2.455 -0.0542  0.4306  0.9607
  299MOL0     H39411   6.467   3.088   2.382  0.5244  1.4508  2.7009
  299MOL0     H39412   6.426   2.982   2.522 -0.9353  0.9914  1.4686
  299MOL0     H39413   6.449   2.882   2.269 -1.0932 -0.5461 -2.3993
  299MOL0     H39414   6.282   2.917   2.263 -0.0977 -0.3703  1.3732
  299MOL0     H39415   6.405   2.737   2.492 -2.5146 -4.7251  2.0033
  299MOL0     H39416   6.367   2.687   2.337  0.7138 -1.5112  2.9606
  299MOL0     H39417   6.208   2.822   2.560  1.2762 -1.5612  1.5308
  299MOL0     H39418   6.120   2.761   2.415  0.1483  1.6154  0.1557
  299MOL0     H39419   6.152   2.651   2.665 -1.9360  1.5015 -1.7797
  299MOL0     H39420   6.294   2.570   2.587  0.1081 -1.4096 -2.0951
  299MOL0     H39421   6.136   2.567   2.282 -0.6653 -0.7129 -0.6803
  299MOL0     H39422   5.872   2.326   2.205  0.5563 -0.6830 -4.0759
  299MOL0     H39423   6.022   2.389   2.162 -1.4455 -2.9660 -0.0081
  299MOL0     H39424   5.901   2.629   2.168 -2.2678  2.3306 -2.7824
  299MOL0     H39425   5.760   2.540   2.220 -1.1632 -1.9739 -0.6246
  299MOL0     H39426   5.714   2.595   2.014 -1.3592 -1.5568  1.7203
  299MOL0     H39427   5.875   2.552   1.943 -0.0351  2.8195  2.5652
  299MOL0     H39428   5.689   2.402   1.877  0.2066  1.1735  1.0817
  299MOL0     H39429   5.653   2.364   2.034 -1.5772  0.7255 -1.2485
  299MOL0     H39430   5.594   2.218   1.826  1.0732 -0.8079  1.4852
  299MOL0     H39431   5.563   2.032   1.672 -0.7090 -1.9250  0.6311
  299MOL0     H39432   5.799   1.715   1.375 -1.6418  0.8661 -0.8678
  299MOL0     H39433   5.770   1.496   1.230 -2.0158 -2.6771  1.5095
  299MOL0     H39434   5.663   1.148   1.414 -2.0320  1.0472 -2.2406
  299MOL0     H39435   5.830   1.079   1.393  0.2520  1.0993 -2.0911
  299MOL0     H39436   5.758   1.086   1.133  0.3411  1.1428 -0.1651
  299MOL0     H39437   5.593   1.073   1.202  0.2283  0.1405  0.7752
  299MOL0     H39438   5.819   0.892   1.304 -1.9688  2.0608  2.8194
  299MOL0     H39439   5.748   0.843   1.153  1.9332  1.9747 -2.5456
  299MOL0     H39440   5.591   0.871   1.412  3.1172 -0.2032  0.7368
  299MOL0     H39441   5.519   0.855   1.247 -0.2934  0.1347 -0.1777
  299MOL0     H39442   5.647   0.659   1.212 -1.0689  2.8801 -0.7352
  299MOL0     H39443   5.503   0.658   1.322 -0.4828 -2.0995 -0.6507
  299MOL0     H39444   5.632   0.684   1.526 -0.6658 -2.7044  1.1339
  299MOL0     H39445   5.777   0.670   1.436 -0.9627  3.2355 -0.4260
  299MOL0     H39446   5.558   0.456   1.439  1.1824 -2.6302 -1.8062
  299MOL0     H39447   5.715   0.449   1.363 -1.8672  1.4612 -1.9376
  299MOL0     H39448   5.658   0.483   1.673 -1.1230 -0.9136 -0.9483
  299MOL0     H39449   5.810   0.443   1.584 -0.0353 -0.7125  1.5546
  299MOL0     H39450   5.884   1.271   1.574 -1.0970 -0.0830  0.1665
  299MOL0     H39451   5.893   1.473   1.709 -2.3631  4.1693  1.4117
  299MOL0     H39452   5.950   1.889   1.776 -2.3958 -1.3775  1.8838
  299MOL0     H39453   6.001   2.092   1.893  1.0649  1.2789 -0.5903
  299MOL0     H39454   6.438   3.615   2.760 -2.4561 -1.4717 -0.4557
  299MOL0     H39455   6.604   3.616   2.956  0.3534 -0.5513  0.1602
  299MOL0     H39456   7.065   3.226   3.124 -1.6224 -0.5235 -0.3466
  299MOL0     H39457   7.222   3.277   3.291  0.9198  0.7617  0.7685
  299MOL0     H39458   7.358   3.522   3.317 -0.1762  3.1522  0.6934
  299MOL0     H39459   7.394   3.369   3.399  0.2451 -0.6494  2.8697
  299MOL0     H39460   7.396   3.661   3.501  0.6919  0.2111 -0.4148
  299MOL0     H39461   7.433   3.538   3.607  2.2057  0.1335 -0.4029
  299MOL0     H39462   7.584   3.581   3.330  1.5475 -0.5271 -0.5075
  299MOL0     H39463   7.622   3.467   3.449 -0.5920 -0.0169 -1.2431
  299MOL0     H39464   7.774   3.661   3.470 -0.5084  2.4701 -1.9141
  299MOL0     H39465   7.638   3.767   3.490  4.0228  0.8818  0.7328
  299MOL0     H39466   7.669   3.633   3.865 -0.3580  1.7435 -0.3915
  299MOL0     H39467   6.952   3.588   3.443  0.6226  0.1276  0.4333
  299MOL0     H39468   6.790   3.535   3.269 -1.6023 -1.2771 -4.0673
  300MOL0     O39469   7.311   3.891   1.360 -0.5832 -0.8480 -0.8008
  300MOL0     C39470   7.389   3.796   1.371 -0.8894  0.2137 -0.1104
  300MOL0     O39471   7.435   3.712   1.281  0.0254  0.5719  0.7263
  300MOL0     C39472   7.399   3.740   1.149 -0.3750  0.9676  0.0156
  300MOL0     C39473   7.455   3.843   1.073 -0.7006 -0.8974  1.3289
  300MOL0     C39474   7.410   3.878   0.950  0.2239  0.5645  0.8395
  300MOL0     C39475   7.306   3.798   0.890 -0.2675 -0.4151  0.6056
  300MOL0     O39476   7.268   3.813   0.762  0.4178  0.0571 -0.6316
  300MOL0     C39477   7.353   3.872   0.673  0.0581 -0.6594  0.7294
  300MOL0     C39478   7.371   3.803   0.530 -0.3941  0.2065 -0.2023
  300MOL0     C39479   7.394   3.652   0.560 -0.8035 -0.9057 -0.6000
  300MOL0     C39480   7.428   3.566   0.440  0.4805  1.3351 -0.2291
  300MOL0     C39481   7.464   3.429   0.481 -0.4293  1.1803 -0.3380
  300MOL0     C39482   7.443   3.337   0.370 -0.5265  0.0765 -0.2705
  300MOL0     C39483   7.460   3.190   0.429 -0.0562 -0.3393  0.3603
  300MOL0     C39484   7.448   3.096   0.320 -0.4458  0.8108  0.1639
  300MOL0     N39485   7.504   2.967   0.347 -0.2740 -0.1955  0.3936
  300MOL0     C39486   7.445   2.840   0.341 -0.2174 -0.9053 -0.3964
  300MOL0     C39487   7.549   2.759   0.363  0.0848  0.6197 -0.6462
  300MOL0     C39488   7.561   2.604   0.367 -0.0444  0.1280 -0.1399
  300MOL0     C39489   7.501   2.527   0.245  0.0182  0.4123 -0.3726
  300MOL0     C39490   7.519   2.370   0.252  0.8654 -0.3636 -0.1273
  300MOL0     C39491   7.456   2.297   0.140  0.4413  0.4361  0.0936
  300MOL0     O39492   7.496   2.167   0.170 -0.2498 -0.3467 -0.0175
  300MOL0     C39493   7.425   2.072   0.102 -0.1073  0.6679 -0.5635
  300MOL0     C39494   7.297   2.082   0.046 -0.0232  0.3693 -0.0545
  300MOL0     C39495   7.246   1.978  -0.028  0.0854  0.3516 -0.9281
  300MOL0     C39496   7.311   1.852  -0.028  0.2849 -0.5373  0.5694
  300MOL0     C39497   7.235   1.737  -0.084  0.4532  0.0298 -0.1540
  300MOL0     O39498   7.309   1.626  -0.109  0.0324  0.9875  0.1501
  300MOL0     C39499   7.248   1.510  -0.153  0.6291  0.4303 -1.5770
  300MOL0     C39500   7.120   1.465  -0.100 -0.8830  0.7627  0.4799
  300MOL0     C39501   7.069   1.339  -0.131  0.0865 -0.1462 -0.1159
  300MOL0     C39502   7.143   1.260  -0.215 -0.6691  0.1184  0.1440
  300MOL0     O39503   7.096   1.137  -0.250  0.3742  0.0945  0.3054
  300MOL0     C39504   7.027   1.051  -0.159  0.4127 -0.6755 -0.2729
  300MOL0     C39505   6.996   0.914  -0.224  0.3302  0.7143  0.0762
  300MOL0     C39506   6.956   0.813  -0.119 -0.1573  1.4541  0.1712
  300MOL0     C39507   6.934   0.685  -0.169 -0.3109 -0.0427  0.0766
  300MOL0     C39508   6.892   0.591  -0.062  1.0150 -0.3186 -0.4829
  300MOL0     C39509   6.786   0.629   0.039 -0.2443  0.5133 -0.7595
  300MOL0     C39510   6.651   0.677  -0.003 -0.7774  0.5557 -0.5545
  300MOL0     C39511   6.596   0.594  -0.117 -0.7360 -0.7493  0.4045
  300MOL0    Cl39512   6.455   0.680  -0.186 -0.1958 -0.5370 -0.1916
  300MOL0     C39513   7.264   1.294  -0.253  0.4699 -0.6589 -0.9292
  300MOL0     C39514   7.321   1.412  -0.221 -0.9236 -0.9488 -0.1435
  300MOL0     O39515   7.115   1.742  -0.095  0.0922  0.5561  0.3237
  300MOL0     C39516   7.433   1.841   0.030  0.1234  0.9109  0.2278
  300MOL0     C39517   7.487   1.949   0.098 -0.0891  0.1336 -0.5188
  300MOL0     N39518   7.669   2.832   0.391  0.3864  0.2825 -1.2867
  300MOL0     N39519   7.634   2.953   0.362  0.4680 -0.2121  0.0957
  300MOL0     C39520   7.251   3.691   0.961 -0.3541  0.5995 -0.0643
  300MOL0     C39521   7.300   3.666   1.089  0.4626 -0.1623  0.6120
  300MOL0     C39522   7.393   3.744   1.503 -0.7217  0.0955  0.1939
  300MOL0     C39523   7.382   3.824   1.619  0.5441  0.5353 -0.9196
  300MOL0     C39524   7.361   3.762   1.745  0.8550 -0.7210  0.2632
  300MOL0     C39525   7.359   3.625   1.762  0.1467  0.6404 -0.9743
  300MOL0     O39526   7.334   3.577   1.890 -1.1986 -0.4661  0.2106
  300MOL0     C39527   7.336   3.440   1.914  0.5500  0.3397 -0.8210
  300MOL0     C39528   7.289   3.400   2.054 -0.3284 -0.1067  0.7977
  300MOL0     C39529   7.381   3.453   2.169  0.0506  0.2031  0.6289
  300MOL0     C39530   7.296   3.506   2.286  0.0430 -1.0406 -0.2958
  300MOL0     C39531   7.222   3.403   2.345 -0.0581  0.1356  0.1710
  300MOL0     C39532   7.159   3.305   2.383 -0.4226  0.5449 -0.7610
  300MOL0     C39533   7.365   3.552   1.640 -1.8685  0.1371 -0.2630
  300MOL0     C39534   7.385   3.606   1.516 -0.2372  0.0959 -0.1026
  300MOL0     H39535   7.536   3.903   1.113  0.8772 -0.4987 -2.1146
  300MOL0     H39536   7.452   3.966   0.903 -2.2951  0.2295 -2.3471
  300MOL0     H39537   7.458   3.887   0.701  0.9029 -2.8457 -1.0120
  300MOL0     H39538   7.324   3.974   0.645  2.9313 -0.1296 -0.7812
  300MOL0     H39539   7.443   3.857   0.468 -1.5281  1.8802 -0.1383
  300MOL0     H39540   7.279   3.809   0.471 -1.0280 -0.9672  0.6337
  300MOL0     H39541   7.306   3.619   0.616  0.6679  2.1718  4.1393
  300MOL0     H39542   7.475   3.643   0.632 -2.1407 -0.4965  1.0014
  300MOL0     H39543   7.345   3.571   0.369  0.7415  1.3990 -0.5309
  300MOL0     H39544   7.514   3.604   0.383  1.1369 -0.8505 -0.8021
  300MOL0     H39545   7.394   3.401   0.560  1.1184 -0.4241  0.5134
  300MOL0     H39546   7.571   3.419   0.501 -0.3765 -0.0825 -1.1573
  300MOL0     H39547   7.503   3.360   0.281 -2.6784 -3.1139 -2.7921
  300MOL0     H39548   7.343   3.357   0.330 -0.3869  0.9094 -0.2255
  300MOL0     H39549   7.561   3.196   0.470  0.8194 -1.7356 -1.4616
  300MOL0     H39550   7.395   3.156   0.510  1.2416 -0.1864  1.5188
  300MOL0     H39551   7.497   3.121   0.225  0.5370  1.3865  0.8153
  300MOL0     H39552   7.343   3.089   0.289 -0.0502 -2.5872 -0.8491
  300MOL0     H39553   7.342   2.816   0.318 -1.0720  0.4701  1.6839
  300MOL0     H39554   7.507   2.582   0.459  1.7005  1.2162  1.2038
  300MOL0     H39555   7.662   2.567   0.385 -0.3121 -0.1115  0.9426
  300MOL0     H39556   7.562   2.571   0.165  1.3652  0.9730  0.9159
  300MOL0     H39557   7.394   2.540   0.227 -0.4993 -2.5222  0.0810
  300MOL0     H39558   7.625   2.346   0.254  0.9236 -0.1690  1.9226
  300MOL0     H39559   7.484   2.337   0.350 -0.6195 -1.8721 -1.1146
  300MOL0     H39560   7.498   2.348   0.053  0.5405  0.5554  0.2117
  300MOL0     H39561   7.349   2.318   0.136 -0.0810 -2.0854 -2.6945
  300MOL0     H39562   7.255   2.181   0.037  1.6886  0.9587 -2.4144
  300MOL0     H39563   7.143   1.986  -0.063 -0.6879 -1.0265  0.8201
  300MOL0     H39564   7.063   1.528  -0.033  0.0369  2.3216 -0.1644
  300MOL0     H39565   6.981   1.304  -0.078  0.7222 -2.2275 -0.3430
  300MOL0     H39566   6.933   1.091  -0.120  1.1784  0.9546 -0.0309
  300MOL0     H39567   7.100   1.033  -0.080 -1.1407 -3.3660  0.7001
  300MOL0     H39568   7.096   0.883  -0.256 -0.4110 -1.4138 -0.3706
  300MOL0     H39569   6.928   0.917  -0.309 -1.4508  2.9779  1.4639
  300MOL0     H39570   6.871   0.852  -0.061  0.0129  0.9347  0.7856
  300MOL0     H39571   7.033   0.805  -0.042  2.6846 -1.5081 -2.6720
  300MOL0     H39572   6.860   0.700  -0.248  0.9935  0.8865 -1.0192
  300MOL0     H39573   7.025   0.647  -0.217  0.3782 -0.8779  1.9647
  300MOL0     H39574   6.982   0.558  -0.010  0.9766 -1.8459 -1.3296
  300MOL0     H39575   6.841   0.510  -0.115 -2.8226  1.3421  0.3125
  300MOL0     H39576   6.831   0.696   0.112  3.5079 -0.6983 -1.7337
  300MOL0     H39577   6.768   0.535   0.092  1.7381  0.7007  0.3485
  300MOL0     H39578   6.582   0.685   0.081  2.1645  2.1909  1.9102
  300MOL0     H39579   6.658   0.782  -0.033 -0.9743  1.2050  1.5154
  300MOL0     H39580   6.583   0.493  -0.078  0.4247 -1.5499 -1.2015
  300MOL0     H39581   6.664   0.572  -0.199 -0.8929 -3.5664  0.9244
  300MOL0     H39582   7.324   1.219  -0.304  1.0153 -1.9149  1.4100
  300MOL0     H39583   7.421   1.427  -0.260 -1.7654 -0.6017 -2.2838
  300MOL0     H39584   7.472   1.740   0.024 -1.7760 -0.2414  4.1066
  300MOL0     H39585   7.580   1.944   0.155  0.7663  2.9495 -1.4909
  300MOL0     H39586   7.166   3.642   0.913 -0.7432  2.6631 -1.6399
  300MOL0     H39587   7.268   3.587   1.157  4.5694 -2.4886  0.2025
  300MOL0     H39588   7.399   3.931   1.614  0.4481  0.5113 -2.0927
  300MOL0     H39589   7.352   3.828   1.831  0.7772  1.3698 -1.2600
  300MOL0     H39590   7.430   3.394   1.883 -1.3540 -2.7039 -2.6176
  300MOL0     H39591   7.261   3.394   1.848  1.5591 -1.3402 -0.8748
  300MOL0     H39592   7.182   3.418   2.067  0.0123  1.1623  2.1057
  300MOL0     H39593   7.292   3.291   2.043 -1.6032 -0.1489  0.7316
  300MOL0     H39594   7.448   3.529   2.129 -0.5406  1.2209  1.5388
  300MOL0     H39595   7.443   3.368   2.198 -0.1436 -0.5318 -0.9489
  300MOL0     H39596   7.357   3.530   2.374  2.7852 -2.3403 -1.7150
  300MOL0     H39597   7.233   3.594   2.268  1.7841  0.6363  1.2458
  300MOL0     H39598   7.090   3.230   2.414  1.5830  0.1523  3.4151
  300MOL0     H39599   7.350   3.445   1.646  3.2327 -0.7242  2.0980
  300MOL0     H39600   7.390   3.542   1.429  0.7418  2.1975 -1.6885
  301MOL0     O39601   9.956   9.565  10.055  0.0472 -0.6914 -0.3173
  301MOL0     C39602   9.993   9.657  10.130 -0.2264  0.6643  0.6356
  301MOL0     O39603   9.918   9.746  10.191 -0.4809  0.5307 -0.8589
  301MOL0     C39604   9.782   9.759  10.169 -0.6057  0.0097  0.4911
  301MOL0     C39605   9.701   9.770  10.276 -0.6414 -1.2706  0.2986
  301MOL0     C39606   9.556   9.785  10.253  0.0101  0.0049 -0.1612
  301MOL0     C39607   9.503   9.783  10.123  0.9878 -0.4452 -0.4507
  301MOL0     O39608   9.371   9.792  10.090 -0.2104  0.4331 -0.0336
  301MOL0     C39609   9.270   9.828  10.184 -0.0565  0.3410 -0.0273
  301MOL0     C39610   9.157   9.900  10.101  0.0729  0.2120 -0.8634
  301MOL0     C39611   9.021   9.898  10.173  0.7775 -0.0100 -0.7330
  301MOL0     C39612   8.927   9.985  10.097  0.3741  0.2969  0.1078
  301MOL0     C39613   8.801  10.000  10.183 -0.1023  0.8417 -0.2789
  301MOL0     C39614   8.689  10.084  10.105  0.6072 -1.0624  0.8745
  301MOL0     C39615   8.657  10.021   9.967 -0.3907  0.5257  0.3218
  301MOL0     C39616   8.549  10.103   9.906  0.1540  0.8194  0.0918
  301MOL0     N39617   8.523  10.077   9.761 -0.2756 -0.5246 -0.2945
  301MOL0     C39618   8.452  10.154   9.672 -0.4630 -0.4162 -0.0200
  301MOL0     C39619   8.432  10.072   9.569  0.2180 -1.5078 -0.5161
  301MOL0     C39620   8.345  10.113   9.452 -0.2952 -0.4223  0.0284
  301MOL0     C39621   8.301   9.991   9.373  0.4585 -0.1660  0.2239
  301MOL0     C39622   8.230  10.013   9.246  0.3776  0.0595  1.3064
  301MOL0     C39623   8.279  10.140   9.173 -0.1171  0.2291 -0.3511
  301MOL0     O39624   8.242  10.141   9.034  0.9303  0.8223  0.4737
  301MOL0     C39625   8.113  10.176   9.012  0.3802 -0.3661  0.0833
  301MOL0     C39626   8.017  10.212   9.108 -0.6723 -0.3463 -0.7454
  301MOL0     C39627   7.885  10.245   9.064  0.1835  0.3921  1.1270
  301MOL0     C39628   7.850  10.224   8.923  0.0854 -0.2895 -0.6746
  301MOL0     C39629   7.708  10.244   8.883 -0.1467 -0.6541  0.5733
  301MOL0     O39630   7.690  10.264   8.756 -0.5401  0.4347  0.7410
  301MOL0     C39631   7.563  10.288   8.707 -1.1506 -0.4797 -0.3183
  301MOL0     C39632   7.556  10.265   8.581  0.3322  0.6955  0.5618
  301MOL0     C39633   7.446  10.299   8.505  0.9611 -0.0314 -0.2323
  301MOL0     C39634   7.337  10.355   8.570  0.3541  0.6797 -0.0122
  301MOL0     O39635   7.232  10.382   8.486 -0.6343 -0.3990  0.2944
  301MOL0     C39636   7.102  10.407   8.549 -0.2383  0.5523  0.3078
  301MOL0     C39637   7.001  10.347   8.451 -0.2956  0.0450  0.0983
  301MOL0     C39638   6.859  10.334   8.525  0.3340 -0.0530 -0.5608
  301MOL0     C39639   6.758  10.261   8.445  0.0851 -0.2793 -0.7387
  301MOL0     C39640   6.627  10.227   8.520  0.9062  0.7101  0.3254
  301MOL0     C39641   6.523  10.171   8.416  0.1028 -0.6796  0.4180
  301MOL0     C39642   6.397  10.128   8.482  0.6199  0.0286  0.7963
  301MOL0     C39643   6.292  10.069   8.389 -0.7659 -0.2533  1.0078
  301MOL0    Cl39644   6.239  10.186   8.254 -0.0863  0.1747 -0.1089
  301MOL0     C39645   7.344  10.390   8.705 -0.5448  0.0536  0.8706
  301MOL0     C39646   7.454  10.341   8.779  0.5265  0.2633 -0.5978
  301MOL0     O39647   7.625  10.247   8.974 -1.0651  0.1918 -0.4678
  301MOL0     C39648   7.955  10.189   8.838 -0.1299  0.8222  0.4624
  301MOL0     C39649   8.083  10.169   8.874  0.3828  0.9299 -0.9537
  301MOL0     N39650   8.498   9.952   9.599 -0.0130  0.5392  0.4989
  301MOL0     N39651   8.556   9.956   9.713  0.6556 -1.0249 -0.4816
  301MOL0     C39652   9.592   9.777  10.021 -0.3289 -0.3968 -0.3100
  301MOL0     C39653   9.733   9.770  10.034 -0.2725 -0.3395 -0.4539
  301MOL0     C39654  10.135   9.663  10.159  0.6349 -0.8789  0.9983
  301MOL0     C39655  10.200   9.782  10.187  0.4381  0.3473 -0.2372
  301MOL0     C39656  10.336   9.782  10.199  0.0344  0.2771  0.0312
  301MOL0     C39657  10.424   9.665  10.202  0.7074  0.0366 -0.8247
  301MOL0     O39658  10.556   9.667  10.225 -0.0823  0.2446  0.6137
  301MOL0     C39659  10.641   9.658  10.104  0.6537  0.1931  0.3403
  301MOL0     C39660  10.787   9.698  10.130 -0.2232 -0.2560 -0.3811
  301MOL0     C39661  10.891   9.649  10.033 -0.4546 -0.8904 -0.0043
  301MOL0     C39662  11.029   9.715  10.055  0.5677  0.1893 -0.0129
  301MOL0     C39663  11.086   9.768   9.937  0.6570  0.7271  1.4352
  301MOL0     C39664  11.116   9.813   9.827  0.1482 -0.4320 -0.3585
  301MOL0     C39665  10.354   9.546  10.186  0.8068 -0.5301 -0.6423
  301MOL0     C39666  10.208   9.542  10.166 -0.2550  0.4402  0.5118
  301MOL0     H39667   9.736   9.769  10.379 -2.1187 -1.7124  0.8327
  301MOL0     H39668   9.495   9.778  10.343  0.7689 -2.9517  0.2357
  301MOL0     H39669   9.317   9.893  10.258 -0.2121 -1.3624  1.6545
  301MOL0     H39670   9.236   9.740  10.241  1.9977 -2.2083 -2.4152
  301MOL0     H39671   9.150   9.861   9.999  1.2077 -2.0402 -0.1430
  301MOL0     H39672   9.184  10.003  10.076  1.3907 -0.0969 -0.8061
  301MOL0     H39673   9.018   9.924  10.280 -2.4628 -2.4635 -0.0632
  301MOL0     H39674   8.976   9.800  10.161  1.5486 -0.3703 -0.7266
  301MOL0     H39675   8.966  10.087  10.088 -3.9226  2.0560 -1.1850
  301MOL0     H39676   8.907   9.956   9.994  0.2303  0.6299  0.0389
  301MOL0     H39677   8.825  10.048  10.278  0.3071  0.1719 -0.0295
  301MOL0     H39678   8.747   9.907  10.206 -1.0692  0.9402 -1.9954
  301MOL0     H39679   8.733  10.183  10.095  1.8467 -1.2071  3.8069
  301MOL0     H39680   8.599  10.106  10.163  0.0292  0.0786 -0.4105
  301MOL0     H39681   8.740  10.020   9.897 -0.8363 -3.0564 -0.3767
  301MOL0     H39682   8.615   9.920   9.974 -3.7514  1.5865 -1.7931
  301MOL0     H39683   8.570  10.208   9.927 -0.5177  0.9511  0.1228
  301MOL0     H39684   8.458  10.078   9.961 -0.6800  0.6862 -1.2825
  301MOL0     H39685   8.418  10.257   9.680  1.9161  0.6947 -2.8619
  301MOL0     H39686   8.409  10.179   9.391  0.4114 -1.0132  0.1172
  301MOL0     H39687   8.262  10.173   9.490  0.1527  0.5754 -0.4994
  301MOL0     H39688   8.247   9.921   9.436 -2.4910  2.8939  1.3749
  301MOL0     H39689   8.397   9.947   9.343  1.0003  1.2545 -0.1949
  301MOL0     H39690   8.256   9.929   9.180  3.4850  0.3698  1.9713
  301MOL0     H39691   8.122  10.014   9.258  0.3558  0.5367  1.0907
  301MOL0     H39692   8.388  10.132   9.168 -0.1114  0.8081 -1.8613
  301MOL0     H39693   8.244  10.236   9.212 -0.9458 -0.1542 -0.1364
  301MOL0     H39694   8.035  10.221   9.215 -1.7769  1.8896 -0.6915
  301MOL0     H39695   7.802  10.279   9.126  1.8874  2.9008  2.1622
  301MOL0     H39696   7.640  10.221   8.528  0.9192  0.0186  1.9984
  301MOL0     H39697   7.430  10.279   8.399 -0.2759  2.9093 -0.6826
  301MOL0     H39698   7.080  10.513   8.565 -2.6793 -0.2285  2.9894
  301MOL0     H39699   7.092  10.357   8.646 -0.1326  1.6960  0.9161
  301MOL0     H39700   7.036  10.246   8.427  0.0628  0.2200 -0.1169
  301MOL0     H39701   7.004  10.405   8.359  1.6729  3.0833  1.9105
  301MOL0     H39702   6.817  10.434   8.544 -1.7820 -1.1397  0.9242
  301MOL0     H39703   6.867  10.283   8.622 -2.2999  1.1131  0.3697
  301MOL0     H39704   6.742  10.316   8.351 -1.0046  0.1014 -0.3468
  301MOL0     H39705   6.803  10.164   8.423 -2.3810 -2.3057  2.3554
  301MOL0     H39706   6.585  10.323   8.553  2.8034  1.4358  0.7548
  301MOL0     H39707   6.645  10.169   8.611 -1.4005  1.1647  1.1439
  301MOL0     H39708   6.570  10.096   8.352  2.8343  1.2459 -0.0092
  301MOL0     H39709   6.494  10.257   8.355 -0.4547  0.7383  2.5344
  301MOL0     H39710   6.417  10.055   8.560  3.3748  1.1275  1.2514
  301MOL0     H39711   6.344  10.214   8.525 -1.1275 -1.0308  0.8536
  301MOL0     H39712   6.204  10.049   8.451 -0.7192 -0.6845  0.9370
  301MOL0     H39713   6.334   9.984   8.336  2.8409  2.3457 -0.7130
  301MOL0     H39714   7.274  10.465   8.739 -0.7237 -0.2496  1.1763
  301MOL0     H39715   7.439  10.358   8.886  0.6977 -1.3973 -0.2732
  301MOL0     H39716   7.934  10.172   8.733 -3.7253  1.7601  0.8889
  301MOL0     H39717   8.154  10.143   8.797 -0.7607 -0.3334 -1.6321
  301MOL0     H39718   9.544   9.779   9.924  1.3671 -2.8979 -1.2984
  301MOL0     H39719   9.786   9.773   9.940 -2.0619  0.5273 -1.4798
  301MOL0     H39720  10.147   9.874  10.208 -0.6156  0.0387 -1.4365
  301MOL0     H39721  10.382   9.875  10.230  1.3795  0.4330 -2.2209
  301MOL0     H39722  10.600   9.730  10.033 -0.5744  0.9939  1.8046
  301MOL0     H39723  10.640   9.555  10.066 -0.1153  2.2938 -6.4967
  301MOL0     H39724  10.798   9.806  10.141 -2.7687 -0.0647  0.8439
  301MOL0     H39725  10.814   9.656  10.227  3.8410 -1.0220 -1.6625
  301MOL0     H39726  10.848   9.687   9.940 -1.6003 -1.2625  0.3570
  301MOL0     H39727  10.889   9.540  10.031 -1.1448 -0.8748 -0.6810
  301MOL0     H39728  11.027   9.798  10.125  2.3375  1.1176 -0.9926
  301MOL0     H39729  11.095   9.637  10.093 -2.4924 -1.9371  1.3751
  301MOL0     H39730  11.150   9.862   9.739  0.2703  0.8493  0.3809
  301MOL0     H39731  10.412   9.454  10.185  0.3070 -0.8902 -2.8010
  301MOL0     H39732  10.160   9.448  10.142 -1.4269  1.4894 -1.4823
  302MOL0     O39733   8.294   1.848  11.110  0.6671 -0.0052  0.1850
  302MOL0     C39734   8.234   1.857  11.003  0.6855 -0.3214  0.5991
  302MOL0     O39735   8.184   1.757  10.933 -0.0886  0.0226 -0.9509
  302MOL0     C39736   8.165   1.633  10.998  0.3171 -0.3316  0.3892
  302MOL0     C39737   8.090   1.629  11.112 -0.4318 -0.0522 -0.3055
  302MOL0     C39738   8.055   1.518  11.181  0.0796 -0.6096  1.9992
  302MOL0     C39739   8.084   1.400  11.118 -0.7699  0.1466 -0.8231
  302MOL0     O39740   8.046   1.278  11.173 -0.2360 -0.4072  0.1060
  302MOL0     C39741   7.935   1.268  11.264  1.3633  0.0927 -0.3075
  302MOL0     C39742   7.890   1.124  11.286 -0.0863 -0.7335 -0.3855
  302MOL0     C39743   7.796   1.106  11.414 -0.3470 -0.3620  0.3030
  302MOL0     C39744   7.817   0.967  11.466 -0.1763 -1.1690  0.0364
  302MOL0     C39745   7.699   0.902  11.536  0.4423 -0.1438 -0.4319
  302MOL0     C39746   7.766   0.805  11.635  0.7000  0.8684 -0.3785
  302MOL0     C39747   7.669   0.725  11.722 -0.1181  0.4085  0.7640
  302MOL0     C39748   7.758   0.611  11.787  0.6805 -0.6699 -0.1096
  302MOL0     N39749   7.849   0.654  11.892 -0.1631  0.4558  0.2720
  302MOL0     C39750   7.941   0.580  11.955  0.9623  0.6386 -0.8872
  302MOL0     C39751   8.005   0.655  12.039  0.5456  0.9375 -1.1400
  302MOL0     C39752   8.119   0.594  12.120 -0.5789 -0.0619 -0.2608
  302MOL0     C39753   8.225   0.681  12.175 -0.4306  0.4442 -0.6457
  302MOL0     C39754   8.279   0.782  12.068  0.4032 -0.5549 -0.1371
  302MOL0     C39755   8.376   0.719  11.983 -0.0636 -0.1846 -0.5090
  302MOL0     O39756   8.504   0.685  12.052 -0.2802 -0.1584 -0.7737
  302MOL0     C39757   8.610   0.629  11.981 -0.5318  0.7280 -0.5001
  302MOL0     C39758   8.733   0.616  12.042 -0.1731  0.6115  0.1723
  302MOL0     C39759   8.850   0.570  11.973  0.0713 -0.2775  0.2754
  302MOL0     C39760   8.826   0.526  11.832 -0.4370 -0.9073 -0.8977
  302MOL0     C39761   8.939   0.485  11.746  0.6723  0.7275 -0.5695
  302MOL0     O39762   8.905   0.430  11.630 -0.0403 -0.0752 -0.0851
  302MOL0     C39763   8.994   0.374  11.555 -0.2843 -0.5500 -0.0078
  302MOL0     C39764   9.013   0.236  11.570 -1.2876 -1.2145 -0.3086
  302MOL0     C39765   9.100   0.171  11.478 -0.5315  0.4488 -0.2919
  302MOL0     C39766   9.171   0.236  11.371 -0.4246 -0.7351 -0.8672
  302MOL0     O39767   9.269   0.171  11.296  0.1995  0.7802 -0.1511
  302MOL0     C39768   9.209   0.060  11.219  0.6820 -0.7462 -0.7246
  302MOL0     C39769   9.305   0.023  11.103  0.1814 -0.2114  0.0427
  302MOL0     C39770   9.363  -0.120  11.131 -1.3614 -0.2395 -0.1608
  302MOL0     C39771   9.483  -0.140  11.025 -0.7796  0.8175 -0.5231
  302MOL0     C39772   9.528  -0.287  11.028 -0.4638 -1.1049  1.1041
  302MOL0     C39773   9.426  -0.388  10.966  0.0123  0.2838 -0.9821
  302MOL0     C39774   9.500  -0.517  10.955  0.4403  0.5068 -0.5884
  302MOL0     C39775   9.532  -0.584  11.094  0.2139 -0.2151  0.0380
  302MOL0    Cl39776   9.397  -0.698  11.164 -0.2313  0.5308 -0.9053
  302MOL0     C39777   9.161   0.373  11.369  0.3564 -0.2837  0.2256
  302MOL0     C39778   9.071   0.446  11.461 -0.6559  0.8939 -0.4170
  302MOL0     O39779   9.051   0.489  11.789  0.0985 -0.5391 -0.0175
  302MOL0     C39780   8.694   0.535  11.777 -0.8784  0.3670  0.4197
  302MOL0     C39781   8.592   0.591  11.845 -0.2061  0.2592 -0.0771
  302MOL0     N39782   7.936   0.778  12.035 -0.2717 -0.6397 -0.1161
  302MOL0     N39783   7.852   0.779  11.943 -0.6853 -0.4905  0.0585
  302MOL0     C39784   8.167   1.394  11.006  0.2702  0.4275  0.1976
  302MOL0     C39785   8.213   1.514  10.941  0.4158  1.2772 -0.3129
  302MOL0     C39786   8.218   1.993  10.946 -0.1976 -0.0308 -0.7594
  302MOL0     C39787   8.195   2.031  10.810 -1.1977 -0.5991 -0.5600
  302MOL0     C39788   8.212   2.158  10.774 -0.5668  0.3671 -0.3364
  302MOL0     C39789   8.232   2.263  10.865 -0.3618 -0.4520  0.1711
  302MOL0     O39790   8.243   2.394  10.812  0.0008  0.4414  0.4762
  302MOL0     C39791   8.331   2.494  10.868  0.3107 -1.2353  0.2501
  302MOL0     C39792   8.256   2.609  10.933 -0.3653 -0.4711 -0.7222
  302MOL0     C39793   8.159   2.680  10.840  0.5447  0.0081  0.3946
  302MOL0     C39794   8.221   2.797  10.756  0.3740  0.9084 -0.2405
  302MOL0     C39795   8.110   2.857  10.678  0.2843 -0.7227 -0.0538
  302MOL0     C39796   8.015   2.900  10.619  0.2986  0.7397 -0.7128
  302MOL0     C39797   8.262   2.234  11.003  1.1051  0.8196  0.4751
  302MOL0     C39798   8.235   2.103  11.041 -0.5106  0.3365  0.8860
  302MOL0     H39799   8.059   1.718  11.166 -2.3379 -2.3105  2.6325
  302MOL0     H39800   8.003   1.511  11.276  2.1319  2.0104  3.4418
  302MOL0     H39801   7.847   1.315  11.219  0.1216 -3.0469 -1.4290
  302MOL0     H39802   7.959   1.318  11.359  1.3502  0.5440 -0.5392
  302MOL0     H39803   7.979   1.060  11.292  1.7258  1.6941 -0.1185
  302MOL0     H39804   7.832   1.082  11.203 -0.6505 -1.8864  0.5535
  302MOL0     H39805   7.693   1.114  11.380 -0.4776  1.4990  1.0365
  302MOL0     H39806   7.817   1.192  11.478 -1.5819  1.3142 -1.4327
  302MOL0     H39807   7.847   0.891  11.393 -1.5829 -1.5571 -0.1844
  302MOL0     H39808   7.899   0.985  11.536 -2.2713 -0.5800  2.5054
  302MOL0     H39809   7.647   0.843  11.460  3.4540 -1.4302 -1.6613
  302MOL0     H39810   7.649   0.974  11.602  2.2009  1.4522 -0.7232
  302MOL0     H39811   7.835   0.863  11.697  0.5425  3.8397 -2.7351
  302MOL0     H39812   7.840   0.738  11.591  1.9562  2.6521 -1.1287
  302MOL0     H39813   7.625   0.787  11.801 -0.1063 -0.4805  1.4856
  302MOL0     H39814   7.593   0.678  11.661 -0.5090  3.0038 -0.9058
  302MOL0     H39815   7.822   0.566  11.711  0.0673 -2.1536  0.2150
  302MOL0     H39816   7.688   0.539  11.833 -0.5716  2.0624  2.6734
  302MOL0     H39817   7.950   0.471  11.954 -1.7893  0.3365 -1.6077
  302MOL0     H39818   8.172   0.517  12.063  1.0429 -0.4512  1.6724
  302MOL0     H39819   8.081   0.545  12.209  0.6618 -2.2795 -0.8806
  302MOL0     H39820   8.302   0.626  12.230  0.3482  0.7040 -1.4437
  302MOL0     H39821   8.176   0.744  12.249 -1.8029 -0.5789 -0.6507
  302MOL0     H39822   8.193   0.818  12.012  0.2132 -2.5589 -1.2490
  302MOL0     H39823   8.316   0.875  12.112  3.9799 -0.7805 -2.3100
  302MOL0     H39824   8.410   0.792  11.910  0.2895  0.4752  0.2957
  302MOL0     H39825   8.332   0.632  11.934  3.9005 -0.1424 -4.8547
  302MOL0     H39826   8.740   0.634  12.149 -1.2586  2.5541 -0.0317
  302MOL0     H39827   8.953   0.566  12.009 -0.7124 -1.3087  2.6371
  302MOL0     H39828   8.953   0.187  11.646 -2.0618  0.2270  0.0571
  302MOL0     H39829   9.126   0.066  11.479 -0.5588  0.4413  0.9373
  302MOL0     H39830   9.114   0.090  11.174  1.1002 -0.8717 -1.7248
  302MOL0     H39831   9.189  -0.030  11.277 -0.3770 -1.8227 -2.6823
  302MOL0     H39832   9.379   0.103  11.093  0.8255 -1.0328 -2.6091
  302MOL0     H39833   9.239   0.007  11.017  0.7266  1.1863 -0.6749
  302MOL0     H39834   9.290  -0.201  11.131  2.3262 -3.9167 -1.2058
  302MOL0     H39835   9.412  -0.117  11.229 -3.0694 -0.6324  0.7472
  302MOL0     H39836   9.444  -0.124  10.924  2.8781 -0.9628 -2.4180
  302MOL0     H39837   9.569  -0.075  11.047  1.5913 -2.9906  2.9043
  302MOL0     H39838   9.583  -0.310  11.119  2.6920  2.8160  0.4611
  302MOL0     H39839   9.606  -0.290  10.951 -1.5102  1.8878 -0.2235
  302MOL0     H39840   9.406  -0.366  10.861 -0.5593 -0.7928 -1.1133
  302MOL0     H39841   9.331  -0.396  11.019 -0.2177  4.6461 -0.3913
  302MOL0     H39842   9.444  -0.590  10.896  2.5299 -1.3387 -0.4105
  302MOL0     H39843   9.589  -0.499  10.894  1.8876  0.5563  1.4241
  302MOL0     H39844   9.578  -0.526  11.174 -0.2891  0.8750 -0.4308
  302MOL0     H39845   9.609  -0.660  11.081 -1.5973 -2.2181  0.3825
  302MOL0     H39846   9.217   0.435  11.299  0.4512 -0.3736  0.2214
  302MOL0     H39847   9.070   0.554  11.452  1.5312  1.3548  2.8583
  302MOL0     H39848   8.677   0.508  11.673  2.1462  1.0901 -0.3329
  302MOL0     H39849   8.500   0.590  11.789 -0.2908 -1.9190 -0.0191
  302MOL0     H39850   8.172   1.289  10.979 -0.0397  0.3063  0.6050
  302MOL0     H39851   8.270   1.496  10.851 -1.8056 -1.4308 -1.3351
  302MOL0     H39852   8.169   1.949  10.743  0.5021 -1.7685  0.1599
  302MOL0     H39853   8.208   2.185  10.669  2.5034 -0.0552 -0.6583
  302MOL0     H39854   8.393   2.531  10.786  1.8781 -2.6710  0.7265
  302MOL0     H39855   8.400   2.437  10.931  1.4624  0.0069  0.1474
  302MOL0     H39856   8.188   2.554  10.998 -1.0064 -0.7462 -1.6090
  302MOL0     H39857   8.335   2.675  10.972  0.4691 -1.6671 -0.3333
  302MOL0     H39858   8.086   2.734  10.901  0.0239  1.7707 -1.6762
  302MOL0     H39859   8.102   2.619  10.770 -0.2077  1.8381 -0.6559
  302MOL0     H39860   8.255   2.873  10.827 -0.5724 -0.7566  2.1160
  302MOL0     H39861   8.304   2.747  10.705 -1.4671 -2.4347 -0.2696
  302MOL0     H39862   7.928   2.939  10.570 -0.3598 -0.3155 -0.4287
  302MOL0     H39863   8.280   2.309  11.079  0.6228  0.6455  0.7649
  302MOL0     H39864   8.260   2.070  11.142  1.1782 -0.4259  0.2486
  303MOL0     O39865  10.024  11.455   6.400 -0.1023  0.9792  0.2305
  303MOL0     C39866  10.054  11.549   6.464 -1.1329  0.7231 -0.4093
  303MOL0     O39867  10.033  11.568   6.597  0.2821  0.3808 -0.4151
  303MOL0     C39868   9.977  11.459   6.652 -0.2753  0.2770  0.8026
  303MOL0     C39869   9.840  11.468   6.694  0.2349  0.6718  0.9330
  303MOL0     C39870   9.774  11.349   6.730 -0.3344 -0.0338  0.0174
  303MOL0     C39871   9.839  11.227   6.733 -0.4081 -0.0906 -0.4273
  303MOL0     O39872   9.788  11.113   6.782 -0.0812  0.5310 -0.4777
  303MOL0     C39873   9.645  11.101   6.825 -0.3381  0.0022 -0.6851
  303MOL0     C39874   9.611  10.956   6.835  0.6512  0.6920 -1.0357
  303MOL0     C39875   9.699  10.882   6.935  0.7156  0.5311  0.2312
  303MOL0     C39876   9.701  10.725   6.942  0.3888 -0.2688 -0.4804
  303MOL0     C39877   9.823  10.662   6.883 -0.3586 -0.2272 -0.0158
  303MOL0     C39878   9.849  10.651   6.731  0.8277  0.2435 -0.3678
  303MOL0     C39879   9.885  10.777   6.653  0.4077 -0.3910 -0.0195
  303MOL0     C39880  10.023  10.844   6.688 -0.0909  0.1186 -0.1162
  303MOL0     N39881  10.135  10.763   6.650 -0.2311 -0.2718 -0.2543
  303MOL0     C39882  10.220  10.778   6.542  0.0067 -0.1607  0.0730
  303MOL0     C39883  10.314  10.680   6.544  1.0303 -0.1579 -0.4636
  303MOL0     C39884  10.393  10.657   6.420  0.6394 -0.5084 -0.4667
  303MOL0     C39885  10.481  10.526   6.420  0.2145  0.4264 -0.4109
  303MOL0     C39886  10.532  10.512   6.280 -0.0753  0.7444  0.0130
  303MOL0     C39887  10.645  10.613   6.247 -0.0532 -0.1738  0.2358
  303MOL0     O39888  10.773  10.564   6.282  0.6851  0.5621  0.2355
  303MOL0     C39889  10.885  10.644   6.248  1.0812  0.2678 -0.2032
  303MOL0     C39890  10.892  10.781   6.288  0.9907  0.3721  0.7247
  303MOL0     C39891  10.993  10.859   6.234 -0.0882 -0.5020  0.0905
  303MOL0     C39892  11.097  10.806   6.168  1.7103  0.9647 -0.8580
  303MOL0     C39893  11.208  10.894   6.118 -0.5842  0.5338  0.2132
  303MOL0     O39894  11.318  10.823   6.080 -0.5386 -0.6242  0.0856
  303MOL0     C39895  11.416  10.900   6.014  0.2704 -0.8203 -0.4899
  303MOL0     C39896  11.548  10.912   6.071 -0.7156  0.1453 -0.1250
  303MOL0     C39897  11.645  10.961   5.992 -0.5073  0.5312 -0.1130
  303MOL0     C39898  11.623  11.021   5.863 -0.5248 -0.0994 -0.7764
  303MOL0     O39899  11.737  11.061   5.799 -0.0788  0.0497  0.8196
  303MOL0     C39900  11.730  11.095   5.661  0.9038 -0.6521  0.5850
  303MOL0     C39901  11.873  11.097   5.610 -0.1724  0.5984 -0.0949
  303MOL0     C39902  11.945  11.218   5.679 -0.1016 -0.3031  0.1262
  303MOL0     C39903  12.074  11.252   5.608 -1.1224 -0.0543 -0.4239
  303MOL0     C39904  12.167  11.343   5.681  0.6876  1.0443  0.2580
  303MOL0     C39905  12.097  11.478   5.678 -0.5251  0.3408 -0.0492
  303MOL0     C39906  12.181  11.570   5.593  0.0923 -0.2769  0.0524
  303MOL0     C39907  12.128  11.720   5.593 -0.0100  0.1032 -0.1471
  303MOL0    Cl39908  11.972  11.727   5.505  0.0710  0.4705  0.3147
  303MOL0     C39909  11.485  11.020   5.817  0.0327  1.6386  0.3476
  303MOL0     C39910  11.391  10.956   5.883  0.5460  0.4667 -0.2575
  303MOL0     O39911  11.187  11.010   6.099  0.6355  0.8560  0.6221
  303MOL0     C39912  11.092  10.662   6.151 -0.5379  0.3097 -0.7522
  303MOL0     C39913  10.987  10.587   6.195 -0.9224  0.5652 -0.7629
  303MOL0     N39914  10.298  10.622   6.666  0.3391  0.2296 -0.2686
  303MOL0     N39915  10.196  10.672   6.727  1.0723  0.8559  0.1194
  303MOL0     C39916   9.975  11.228   6.708  0.4381 -0.3341 -0.3430
  303MOL0     C39917  10.039  11.343   6.677 -1.3561  0.8765  0.9283
  303MOL0     C39918  10.143  11.637   6.396 -0.8474 -0.3965 -0.2860
  303MOL0     C39919  10.199  11.758   6.460  0.9428  0.2486 -0.4614
  303MOL0     C39920  10.300  11.838   6.404 -0.4398 -0.3124 -0.0342
  303MOL0     C39921  10.343  11.816   6.276 -0.3112 -0.4089 -0.5454
  303MOL0     O39922  10.431  11.915   6.229  0.5714  0.7630  0.2369
  303MOL0     C39923  10.487  11.885   6.103 -0.8173 -0.0113  0.1834
  303MOL0     C39924  10.611  11.962   6.067 -0.5229  0.6498  0.4607
  303MOL0     C39925  10.709  11.974   6.178  0.3876  0.6768  0.3214
  303MOL0     C39926  10.816  12.087   6.169 -0.1106  0.6465 -0.0522
  303MOL0     C39927  10.765  12.218   6.190 -0.6045 -0.4992  1.1471
  303MOL0     C39928  10.728  12.333   6.193 -0.0168  0.8200 -0.2522
  303MOL0     C39929  10.282  11.715   6.203  0.5299 -0.3648  0.1578
  303MOL0     C39930  10.181  11.624   6.265  0.1067 -0.9461  0.5646
  303MOL0     H39931   9.780  11.558   6.680 -0.3116 -0.0664 -2.4637
  303MOL0     H39932   9.667  11.348   6.743 -0.3747  1.0354 -0.0990
  303MOL0     H39933   9.583  11.143   6.745 -1.3291 -2.3764 -1.2794
  303MOL0     H39934   9.628  11.156   6.918  0.5069 -1.0058  0.0955
  303MOL0     H39935   9.621  10.906   6.738 -0.6335 -0.4018 -0.6305
  303MOL0     H39936   9.515  10.931   6.880  1.4245  0.4190  0.5349
  303MOL0     H39937   9.667  10.907   7.037  1.2202 -3.1343  1.4390
  303MOL0     H39938   9.802  10.917   6.925 -0.4265  3.7795 -1.3615
  303MOL0     H39939   9.683  10.686   7.042  0.0706  1.9901  0.3993
  303MOL0     H39940   9.618  10.682   6.887 -0.8047  0.8358  0.3969
  303MOL0     H39941   9.829  10.565   6.933  4.5065 -1.8895 -3.1137
  303MOL0     H39942   9.917  10.705   6.919 -1.0231  1.7843 -0.5372
  303MOL0     H39943   9.754  10.608   6.697 -1.5377  0.6792  4.7599
  303MOL0     H39944   9.925  10.575   6.711  0.6269  0.3132 -1.4561
  303MOL0     H39945   9.876  10.757   6.546  1.0535  2.4495 -0.6711
  303MOL0     H39946   9.812  10.854   6.676 -0.5781 -1.6087  1.1024
  303MOL0     H39947  10.034  10.852   6.796  3.4298 -2.8002 -0.0907
  303MOL0     H39948  10.025  10.938   6.632 -1.5766  0.1445 -0.1673
  303MOL0     H39949  10.200  10.854   6.467  0.6829  0.0522  0.0965
  303MOL0     H39950  10.455  10.742   6.391 -0.4293  0.0150 -1.2816
  303MOL0     H39951  10.314  10.650   6.345 -0.7577  2.1754  0.6123
  303MOL0     H39952  10.408  10.446   6.438 -2.3041  3.1106  2.8082
  303MOL0     H39953  10.554  10.531   6.502  1.0470  0.3608 -1.1404
  303MOL0     H39954  10.574  10.411   6.272 -2.0990 -0.3273  1.7394
  303MOL0     H39955  10.444  10.529   6.217 -0.8572  0.9137  1.1221
  303MOL0     H39956  10.621  10.706   6.300 -1.9111 -0.5583  0.1652
  303MOL0     H39957  10.642  10.638   6.140 -2.0370 -0.1958  0.2468
  303MOL0     H39958  10.814  10.822   6.351  0.0821  2.4933 -1.6001
  303MOL0     H39959  10.991  10.968   6.237 -2.9010 -0.5043  0.8896
  303MOL0     H39960  11.581  10.878   6.169  1.7244 -5.0718 -2.4356
  303MOL0     H39961  11.745  10.941   6.028 -1.6591 -0.7852  2.6348
  303MOL0     H39962  11.670  11.181   5.629 -1.0820 -2.4411 -0.7756
  303MOL0     H39963  11.681  11.017   5.602 -1.4338  1.2700 -0.1738
  303MOL0     H39964  11.864  11.105   5.502  1.0801 -0.5712 -0.3050
  303MOL0     H39965  11.925  11.004   5.634 -0.2817  0.0606 -1.8041
  303MOL0     H39966  11.960  11.207   5.787 -0.5173  2.1125  0.4909
  303MOL0     H39967  11.871  11.298   5.665  2.8791  2.8334  0.9469
  303MOL0     H39968  12.124  11.154   5.604  2.6257  1.5627  1.4728
  303MOL0     H39969  12.058  11.291   5.507 -0.4254 -0.1253 -0.5693
  303MOL0     H39970  12.259  11.356   5.623  1.2059  0.7642  0.9944
  303MOL0     H39971  12.184  11.306   5.782  0.7361  0.8420  0.1774
  303MOL0     H39972  12.104  11.522   5.778  1.0598 -0.1641  0.0911
  303MOL0     H39973  11.992  11.475   5.649 -0.5366  0.0840  0.0152
  303MOL0     H39974  12.285  11.570   5.627 -0.2473  0.1724  1.1295
  303MOL0     H39975  12.158  11.534   5.492 -0.3082 -0.7028  0.2882
  303MOL0     H39976  12.198  11.787   5.542  1.6131 -0.5558  1.1208
  303MOL0     H39977  12.101  11.758   5.692 -1.6571  1.6796 -1.1417
  303MOL0     H39978  11.458  11.063   5.722  0.3670  4.1984  1.3281
  303MOL0     H39979  11.289  10.946   5.848  0.8611 -0.8600 -0.8582
  303MOL0     H39980  11.181  10.616   6.109 -1.4876 -3.4914  0.9564
  303MOL0     H39981  10.996  10.480   6.177  0.1430  0.2897  1.0702
  303MOL0     H39982  10.040  11.142   6.723 -0.1248 -0.9297 -1.2195
  303MOL0     H39983  10.146  11.332   6.659 -1.6449 -3.0298  0.7217
  303MOL0     H39984  10.182  11.784   6.564  1.0079 -2.1409  0.1962
  303MOL0     H39985  10.320  11.924   6.468 -2.3596  0.7801 -0.8070
  303MOL0     H39986  10.413  11.892   6.023 -1.5666  0.2401  0.8841
  303MOL0     H39987  10.514  11.779   6.109  0.2884  0.1948 -0.7815
  303MOL0     H39988  10.661  11.901   5.992  0.9682 -0.2822  2.1483
  303MOL0     H39989  10.605  12.066   6.034 -0.4631  2.4296  5.2283
  303MOL0     H39990  10.763  11.879   6.179  1.3591  1.2213  0.3971
  303MOL0     H39991  10.650  11.980   6.270  1.6034 -0.5947  1.2189
  303MOL0     H39992  10.899  12.074   6.239  1.5495 -0.3155 -2.0912
  303MOL0     H39993  10.873  12.071   6.077  1.8948  0.8125  1.0960
  303MOL0     H39994  10.693  12.433   6.184  0.3159  1.2827  2.5369
  303MOL0     H39995  10.272  11.711   6.095  1.8699  0.2186 -0.0118
  303MOL0     H39996  10.145  11.547   6.197  2.7452 -2.6069  0.9109
  304MOL0     O39997   9.789   7.058   0.833  0.3406 -0.5671 -0.2340
  304MOL0     C39998   9.849   7.154   0.778 -0.3408  1.2242 -0.2000
  304MOL0     O39999   9.965   7.204   0.815  0.1491  0.4022 -0.4968
  304MOL0     C40000  10.005   7.150   0.940 -0.4677 -0.1406  0.0860
  304MOL0     C40001  10.124   7.082   0.955 -0.2385  1.1460  0.0739
  304MOL0     C40002  10.176   7.056   1.079  0.5402 -0.4092  0.8285
  304MOL0     C40003  10.098   7.070   1.196  0.6278  0.5727 -0.3429
  304MOL0     O40004  10.128   7.037   1.318  0.1048 -0.0583  0.1637
  304MOL0     C40005  10.171   6.902   1.329 -0.8185 -0.2416 -0.1733
  304MOL0     C40006  10.199   6.873   1.474  0.5326  0.0864 -0.0545
  304MOL0     C40007  10.275   6.743   1.495  0.3490  0.3195 -0.2799
  304MOL0     C40008  10.180   6.628   1.514  0.8263 -0.5859  0.0460
  304MOL0     C40009  10.257   6.495   1.493 -0.1438  0.9435 -0.7878
  304MOL0     C40010  10.394   6.477   1.571  0.8820  0.4470 -0.1302
  304MOL0     C40011  10.480   6.378   1.507 -0.0025  0.1308 -0.3687
  304MOL0     C40012  10.626   6.408   1.537 -0.0643 -0.0044  0.7426
  304MOL0     N40013  10.675   6.394   1.674 -0.0959  0.2537  0.0299
  304MOL0     C40014  10.704   6.273   1.733  0.0230 -0.8997  0.0869
  304MOL0     C40015  10.697   6.292   1.865  0.1208  0.3739  0.3359
  304MOL0     C40016  10.694   6.189   1.970  0.3133  0.0280  0.0340
  304MOL0     C40017  10.547   6.131   1.973 -0.1950  0.2822  0.3500
  304MOL0     C40018  10.521   5.982   1.993  0.0105 -0.7140  0.6683
  304MOL0     C40019  10.588   5.890   1.900  0.3120 -0.2676  0.0798
  304MOL0     O40020  10.735   5.886   1.913  0.9184  0.0520 -0.5862
  304MOL0     C40021  10.809   5.796   1.842  0.1695  0.8999 -0.2788
  304MOL0     C40022  10.750   5.683   1.779  0.4899  0.0428  0.7015
  304MOL0     C40023  10.828   5.594   1.706  0.5254 -0.2931  0.4234
  304MOL0     C40024  10.967   5.602   1.706  0.1553 -0.4614  1.1457
  304MOL0     C40025  11.056   5.515   1.633  0.4788  0.0501  0.2050
  304MOL0     O40026  10.999   5.434   1.541  0.9834 -0.5636  0.6489
  304MOL0     C40027  11.068   5.340   1.466  0.0205  0.0840  0.2802
  304MOL0     C40028  11.205   5.342   1.422 -0.5537 -0.0955  0.4800
  304MOL0     C40029  11.259   5.238   1.342  0.3603 -0.9217  0.5651
  304MOL0     C40030  11.184   5.133   1.291  0.4389  0.0595 -0.2817
  304MOL0     O40031  11.224   5.015   1.229  0.1246  1.0884  0.4810
  304MOL0     C40032  11.364   4.999   1.226  0.0407  0.3922 -0.2225
  304MOL0     C40033  11.400   4.856   1.209 -0.4062 -0.3949 -0.0581
  304MOL0     C40034  11.344   4.770   1.320 -0.5814  0.6421  0.4895
  304MOL0     C40035  11.402   4.628   1.311  0.1564 -0.1362 -0.3368
  304MOL0     C40036  11.359   4.542   1.427  0.6593  0.7943  0.7110
  304MOL0     C40037  11.434   4.400   1.443  0.0341  0.1723  0.5052
  304MOL0     C40038  11.385   4.320   1.564  0.1088 -0.4731 -0.3633
  304MOL0     C40039  11.442   4.370   1.701 -0.5417  0.2706 -0.2418
  304MOL0    Cl40040  11.611   4.303   1.720  0.2135 -0.4292  0.5046
  304MOL0     C40041  11.048   5.138   1.332 -0.0836  0.2017  0.2716
  304MOL0     C40042  10.993   5.236   1.413  0.1755 -0.1080  0.8070
  304MOL0     O40043  11.177   5.520   1.654  0.1478 -0.3030  0.0171
  304MOL0     C40044  11.021   5.711   1.786 -0.4799  0.2157 -0.1562
  304MOL0     C40045  10.943   5.801   1.853  0.6413 -0.2601  0.3046
  304MOL0     N40046  10.679   6.436   1.887  0.4251  0.1417  0.6014
  304MOL0     N40047  10.670   6.493   1.766 -0.8669 -0.1362  0.1190
  304MOL0     C40048   9.980   7.136   1.184  1.4384 -0.0601 -0.3090
  304MOL0     C40049   9.935   7.181   1.058  0.7786 -0.7577 -0.1626
  304MOL0     C40050   9.770   7.232   0.676  0.3891 -0.3066 -0.5510
  304MOL0     C40051   9.796   7.360   0.623 -0.0538  0.0124 -0.7079
  304MOL0     C40052   9.709   7.421   0.530  1.6163 -1.7645  0.6119
  304MOL0     C40053   9.596   7.366   0.464  0.1052  0.0092 -1.0168
  304MOL0     O40054   9.553   7.429   0.355 -0.4192 -0.4719 -0.2498
  304MOL0     C40055   9.451   7.363   0.281 -0.2043 -1.0129  0.4129
  304MOL0     C40056   9.510   7.284   0.168  0.0486  0.9261  0.7216
  304MOL0     C40057   9.548   7.383   0.056  0.8179 -0.4353  0.2592
  304MOL0     C40058   9.534   7.328  -0.076  0.2634  0.1154  0.4298
  304MOL0     C40059   9.609   7.405  -0.175  0.2318  0.7342  0.4167
  304MOL0     C40060   9.689   7.446  -0.259  0.0263 -0.3123 -0.6627
  304MOL0     C40061   9.572   7.234   0.517 -0.1180  0.6032 -0.4921
  304MOL0     C40062   9.654   7.170   0.615  0.5424  0.8437 -0.5670
  304MOL0     H40063  10.179   7.052   0.867  0.8435 -0.5563  1.2695
  304MOL0     H40064  10.270   7.004   1.090  0.5091 -0.5306  0.5166
  304MOL0     H40065  10.257   6.879   1.265 -0.1493  0.0695  0.5926
  304MOL0     H40066  10.086   6.842   1.297 -0.9554  0.9678 -2.2555
  304MOL0     H40067  10.102   6.869   1.525  1.4052  2.4260  2.0001
  304MOL0     H40068  10.251   6.962   1.511  0.1304  0.3247 -0.0624
  304MOL0     H40069  10.331   6.764   1.586  0.1440  2.8794 -0.6647
  304MOL0     H40070  10.343   6.725   1.411 -2.2414 -1.4290 -2.1765
  304MOL0     H40071  10.137   6.634   1.614  2.0505  0.1070  0.5396
  304MOL0     H40072  10.096   6.630   1.443 -0.2570  0.8281  1.2976
  304MOL0     H40073  10.286   6.497   1.388  0.2718 -2.9862 -0.9039
  304MOL0     H40074  10.186   6.416   1.517 -0.5567  1.8466  1.1486
  304MOL0     H40075  10.367   6.451   1.674 -0.8810  0.4526 -0.5656
  304MOL0     H40076  10.445   6.574   1.560  1.1563  0.4316  0.9185
  304MOL0     H40077  10.452   6.275   1.532 -2.6228  1.0331  0.7162
  304MOL0     H40078  10.463   6.383   1.399  0.3180  0.1338 -0.4210
  304MOL0     H40079  10.651   6.511   1.510 -2.4636  0.9830  2.0436
  304MOL0     H40080  10.682   6.341   1.471 -0.1946  0.3783  0.2370
  304MOL0     H40081  10.733   6.176   1.694  3.7862  0.7070 -1.6544
  304MOL0     H40082  10.735   6.215   2.068  1.0134  0.0065 -0.2428
  304MOL0     H40083  10.759   6.109   1.933 -0.0598 -1.4580  2.3720
  304MOL0     H40084  10.506   6.149   1.873 -2.6367  1.1191  1.4363
  304MOL0     H40085  10.484   6.181   2.047 -0.3965  0.6603 -0.0753
  304MOL0     H40086  10.573   5.957   2.086  1.9089 -1.7027 -0.5735
  304MOL0     H40087  10.415   5.957   2.002  0.0016 -0.6837  0.6527
  304MOL0     H40088  10.551   5.902   1.798  0.4673  0.0686  0.0625
  304MOL0     H40089  10.541   5.794   1.924  0.7664 -0.6911 -0.6922
  304MOL0     H40090  10.645   5.662   1.763  1.0232 -2.9440  0.5357
  304MOL0     H40091  10.787   5.512   1.648  1.5771  1.0018 -2.3086
  304MOL0     H40092  11.277   5.413   1.461  2.1747 -2.0075 -0.7590
  304MOL0     H40093  11.367   5.240   1.333  0.5974  1.4631  2.7031
  304MOL0     H40094  11.401   5.036   1.322 -2.4050  0.5003  0.7512
  304MOL0     H40095  11.412   5.057   1.146 -0.8634 -0.4695 -1.4377
  304MOL0     H40096  11.506   4.830   1.196 -0.2344 -0.0215  0.5551
  304MOL0     H40097  11.353   4.828   1.115  1.3778 -0.6268 -0.9149
  304MOL0     H40098  11.236   4.764   1.311 -0.4658  1.2803 -2.0044
  304MOL0     H40099  11.372   4.809   1.419  1.1618  1.1984 -0.1731
  304MOL0     H40100  11.365   4.583   1.219 -0.8148  0.9492 -0.4946
  304MOL0     H40101  11.511   4.620   1.319 -0.0205 -0.7293  2.8615
  304MOL0     H40102  11.256   4.517   1.401  1.8851 -1.8469 -2.2725
  304MOL0     H40103  11.356   4.595   1.523 -0.8145 -0.9141  1.6640
  304MOL0     H40104  11.542   4.406   1.455  0.1643 -1.4576  0.3628
  304MOL0     H40105  11.425   4.347   1.347 -1.9181  0.2571  0.5949
  304MOL0     H40106  11.276   4.319   1.570  0.1054  1.8894  1.6015
  304MOL0     H40107  11.421   4.218   1.548  0.9135 -0.2160 -0.2647
  304MOL0     H40108  11.395   4.317   1.785  0.7515 -1.3125 -0.4495
  304MOL0     H40109  11.437   4.476   1.727  0.8133  0.4861 -0.7939
  304MOL0     H40110  10.983   5.054   1.312 -0.7093  1.3647 -3.1866
  304MOL0     H40111  10.894   5.221   1.455  0.8128  1.5331  3.0811
  304MOL0     H40112  11.129   5.717   1.792 -0.4518  3.6845 -1.4202
  304MOL0     H40113  10.983   5.870   1.927  0.2247 -1.5359  1.7473
  304MOL0     H40114   9.928   7.175   1.271 -0.1873 -0.3868 -1.0960
  304MOL0     H40115   9.840   7.234   1.060  0.8598 -0.6424  1.6650
  304MOL0     H40116   9.890   7.411   0.643 -1.0106  3.9065 -4.5363
  304MOL0     H40117   9.743   7.514   0.485  0.1754 -0.8525  1.3086
  304MOL0     H40118   9.389   7.445   0.243  2.2234  1.1687  0.9099
  304MOL0     H40119   9.391   7.295   0.341  2.2226 -2.0159  1.8484
  304MOL0     H40120   9.602   7.236   0.204  0.6632  0.6866 -1.0934
  304MOL0     H40121   9.428   7.223   0.131  1.4583 -1.3541  1.1949
  304MOL0     H40122   9.656   7.395   0.065  0.7802 -1.0478  1.7790
  304MOL0     H40123   9.500   7.482   0.063  1.1071  0.1199 -3.5263
  304MOL0     H40124   9.562   7.223  -0.078  0.9411  0.1814 -3.9148
  304MOL0     H40125   9.429   7.327  -0.106  0.5665  0.0387 -0.6585
  304MOL0     H40126   9.763   7.491  -0.322 -2.1385  5.6972  0.4086
  304MOL0     H40127   9.484   7.174   0.495 -0.0923 -0.3084  1.6267
  304MOL0     H40128   9.630   7.070   0.651  2.9501  0.4012 -0.0122
  305MOL0     O40129   5.787   5.913  10.703 -0.2958 -0.8645  0.1320
  305MOL0     C40130   5.716   5.839  10.773  1.0820  0.1484  1.0391
  305MOL0     O40131   5.727   5.814  10.910 -0.0644  0.8894 -0.3287
  305MOL0     C40132   5.796   5.913  10.971 -0.1001 -0.1332  0.2877
  305MOL0     C40133   5.917   5.860  10.989 -1.5682  0.1717 -0.3723
  305MOL0     C40134   6.012   5.947  11.048  0.6601 -0.0847 -0.3474
  305MOL0     C40135   5.973   6.073  11.091  0.5113  0.1751  0.0053
  305MOL0     O40136   6.068   6.152  11.148  0.0966 -0.1519  0.0751
  305MOL0     C40137   6.090   6.282  11.100 -0.4244  0.4735  0.1849
  305MOL0     C40138   6.214   6.329  11.175 -0.5843 -0.4733  0.4771
  305MOL0     C40139   6.332   6.225  11.189 -0.0487  0.0864 -0.3155
  305MOL0     C40140   6.464   6.296  11.235  0.5076  1.3679  1.1349
  305MOL0     C40141   6.455   6.354  11.379  0.3612  0.3130  0.1614
  305MOL0     C40142   6.464   6.504  11.391 -0.0726  0.7346  0.9956
  305MOL0     C40143   6.583   6.560  11.304 -0.4551  0.6478 -0.6623
  305MOL0     C40144   6.645   6.682  11.368  0.8766  1.1176  0.1655
  305MOL0     N40145   6.725   6.762  11.277 -1.1451 -0.6480 -0.0893
  305MOL0     C40146   6.693   6.804  11.157  0.7522 -0.7035 -0.7434
  305MOL0     C40147   6.788   6.882  11.097 -0.3671 -0.3821  0.0032
  305MOL0     C40148   6.806   6.923  10.961 -0.4462  0.0146  0.3046
  305MOL0     C40149   6.753   7.063  10.940  0.4056  0.0170 -0.5819
  305MOL0     C40150   6.608   7.091  10.999  0.5631 -0.1959 -0.0347
  305MOL0     C40151   6.494   7.036  10.908  0.7211  0.6678 -1.0684
  305MOL0     O40152   6.512   6.891  10.921  0.2943  0.4843  0.3715
  305MOL0     C40153   6.418   6.810  10.864 -0.5798 -0.7640  0.3781
  305MOL0     C40154   6.322   6.852  10.768 -0.2637 -0.7498 -0.0867
  305MOL0     C40155   6.218   6.772  10.722  0.0449  0.3958  0.1260
  305MOL0     C40156   6.207   6.644  10.772  0.0417 -0.7555  0.5747
  305MOL0     C40157   6.080   6.568  10.737  0.2766  0.1038 -0.5818
  305MOL0     O40158   6.078   6.434  10.775 -0.0779  0.0938  0.8612
  305MOL0     C40159   5.954   6.366  10.759  0.0414  0.8283  0.4442
  305MOL0     C40160   5.847   6.384  10.840 -0.7252  0.2473  0.0816
  305MOL0     C40161   5.721   6.329  10.812 -0.7752  0.1684 -0.3544
  305MOL0     C40162   5.703   6.236  10.703  0.8335 -0.5263 -0.2978
  305MOL0     O40163   5.578   6.185  10.684  0.0237 -0.4355  0.5951
  305MOL0     C40164   5.551   6.113  10.560 -0.3795 -0.4130  0.3626
  305MOL0     C40165   5.410   6.053  10.579 -0.6333  0.4447 -0.5411
  305MOL0     C40166   5.279   6.132  10.585 -0.7143  0.7198 -0.6922
  305MOL0     C40167   5.175   6.063  10.510  0.1994 -0.2142  0.3867
  305MOL0     C40168   5.060   6.158  10.473 -0.4141 -0.3934  0.2124
  305MOL0     C40169   4.983   6.220  10.590  0.7236 -0.2891  1.0301
  305MOL0     C40170   4.942   6.137  10.710 -0.5495 -0.1914  0.1692
  305MOL0     C40171   4.882   6.221  10.822  0.0784  0.1348 -0.2981
  305MOL0    Cl40172   4.713   6.276  10.778 -0.0319 -0.0482  0.6015
  305MOL0     C40173   5.815   6.207  10.628 -0.2938  0.6142  0.8716
  305MOL0     C40174   5.938   6.273  10.652 -0.0466  0.4153 -0.4134
  305MOL0     O40175   5.991   6.629  10.675  0.7334 -0.0908 -0.4495
  305MOL0     C40176   6.309   6.598  10.853  0.9657 -0.5420 -0.0211
  305MOL0     C40177   6.410   6.680  10.906 -0.6523 -0.0576 -0.4337
  305MOL0     N40178   6.885   6.895  11.200 -0.3027 -0.4677  0.3245
  305MOL0     N40179   6.841   6.835  11.307 -0.8059  0.2681 -0.0003
  305MOL0     C40180   5.840   6.125  11.068  0.3865 -1.3559  0.4053
  305MOL0     C40181   5.750   6.045  11.003  0.1594  0.5364 -0.6071
  305MOL0     C40182   5.621   5.750  10.696 -0.0970 -0.0760  0.9063
  305MOL0     C40183   5.619   5.750  10.550  0.5565 -0.5144 -0.1403
  305MOL0     C40184   5.525   5.672  10.477 -0.3501 -0.2712  0.8002
  305MOL0     C40185   5.423   5.609  10.557 -0.3684  1.0472  0.2342
  305MOL0     O40186   5.327   5.541  10.484 -0.3767  1.0624 -0.0458
  305MOL0     C40187   5.215   5.482  10.545  0.5889 -0.2249  0.2862
  305MOL0     C40188   5.125   5.440  10.431  0.3705  0.7435  0.0458
  305MOL0     C40189   5.187   5.367  10.308  0.2534 -0.2148  0.2035
  305MOL0     C40190   5.291   5.265  10.344  1.1777 -0.4466 -0.0592
  305MOL0     C40191   5.234   5.150  10.408  0.9997  0.0565  0.8425
  305MOL0     C40192   5.183   5.068  10.478 -0.2882 -0.2034 -0.0624
  305MOL0     C40193   5.422   5.617  10.696 -0.0909  0.6321  0.3297
  305MOL0     C40194   5.521   5.683  10.770  0.0776 -0.0820 -1.4103
  305MOL0     H40195   5.941   5.756  10.970  0.0002  0.4258  0.1232
  305MOL0     H40196   6.112   5.906  11.058  0.7250  0.1988  0.2116
  305MOL0     H40197   5.998   6.338  11.119 -1.9464 -1.5265 -0.9773
  305MOL0     H40198   6.118   6.282  10.994 -0.5000  0.0133  0.1655
  305MOL0     H40199   6.185   6.356  11.277  2.0821  2.6264  0.5915
  305MOL0     H40200   6.244   6.424  11.129 -1.4315 -0.6913 -0.5694
  305MOL0     H40201   6.341   6.194  11.084 -1.9503  0.1056 -0.5273
  305MOL0     H40202   6.306   6.136  11.246 -1.2810  0.1132 -0.7836
  305MOL0     H40203   6.553   6.235  11.219  0.7900  2.3226 -1.2898
  305MOL0     H40204   6.481   6.374  11.160 -2.8733  1.6664  0.5131
  305MOL0     H40205   6.530   6.304  11.441 -1.1532  0.9978  2.7314
  305MOL0     H40206   6.364   6.322  11.432  0.7721  1.8904  1.9029
  305MOL0     H40207   6.471   6.517  11.500 -0.9181 -4.4147  1.9264
  305MOL0     H40208   6.375   6.558  11.359  1.7526  2.8746 -0.8539
  305MOL0     H40209   6.664   6.487  11.301 -2.5373 -1.7697 -0.8007
  305MOL0     H40210   6.549   6.585  11.203  0.4301 -0.2862 -1.1963
  305MOL0     H40211   6.693   6.650  11.461 -1.5065 -0.8233  0.8307
  305MOL0     H40212   6.556   6.742  11.386 -0.7665 -1.9172  3.2526
  305MOL0     H40213   6.606   6.772  11.101  0.7192 -2.2959  0.1595
  305MOL0     H40214   6.761   6.850  10.894  1.6215  2.1000 -3.7338
  305MOL0     H40215   6.912   6.915  10.934 -0.3831  1.4884  0.0167
  305MOL0     H40216   6.734   7.072  10.833 -3.3196  0.8434  0.0199
  305MOL0     H40217   6.821   7.138  10.983  0.5736 -0.4614  0.0081
  305MOL0     H40218   6.605   7.078  11.107  3.5512  4.7936  1.0048
  305MOL0     H40219   6.597   7.200  10.988 -1.0182 -0.4488 -1.4455
  305MOL0     H40220   6.509   7.078  10.808  1.0669 -1.0088 -1.7545
  305MOL0     H40221   6.396   7.068  10.945 -0.6637 -3.5005 -0.6893
  305MOL0     H40222   6.326   6.950  10.722 -2.3599 -0.6227 -0.0567
  305MOL0     H40223   6.154   6.815  10.645  1.0554  3.7047  0.9576
  305MOL0     H40224   5.861   6.440  10.933  0.8195 -2.2190  1.4312
  305MOL0     H40225   5.630   6.342  10.869  1.3752 -3.5626  4.7164
  305MOL0     H40226   5.618   6.028  10.545 -2.0219 -1.4766 -1.5055
  305MOL0     H40227   5.580   6.173  10.474  0.0496  0.2834  0.9830
  305MOL0     H40228   5.408   5.982  10.662  2.6035 -1.5608 -1.9979
  305MOL0     H40229   5.412   5.980  10.497  2.0422  0.5397 -0.6382
  305MOL0     H40230   5.299   6.223  10.527  3.9205 -0.5285 -1.4468
  305MOL0     H40231   5.242   6.163  10.683  1.8582 -0.2905  0.6746
  305MOL0     H40232   5.224   6.022  10.421 -1.1288  0.2464 -0.5840
  305MOL0     H40233   5.134   5.979  10.567  1.4197 -1.6701 -0.8007
  305MOL0     H40234   4.997   6.103  10.403  2.1881  0.9378 -3.4943
  305MOL0     H40235   5.098   6.248  10.423  0.4949  0.6195  2.5615
  305MOL0     H40236   4.892   6.268  10.553 -1.0270 -1.3409  3.6074
  305MOL0     H40237   5.043   6.307  10.618 -0.8250  0.6926  1.4155
  305MOL0     H40238   4.888   6.045  10.686 -2.0797 -0.2308  3.2112
  305MOL0     H40239   5.027   6.082  10.751 -3.2614 -3.3921  2.1161
  305MOL0     H40240   4.933   6.311  10.859  0.1771 -0.8837  2.2813
  305MOL0     H40241   4.881   6.154  10.908 -0.3089 -0.8562 -1.0573
  305MOL0     H40242   5.819   6.127  10.554  2.4201  2.6827 -1.4604
  305MOL0     H40243   6.030   6.252  10.598 -1.9639 -0.9380 -3.3652
  305MOL0     H40244   6.309   6.498  10.896 -1.4049  0.9495  4.1061
  305MOL0     H40245   6.486   6.647  10.975 -1.9637 -1.3600  0.4598
  305MOL0     H40246   5.818   6.224  11.107 -0.2998 -0.0394 -2.9741
  305MOL0     H40247   5.649   6.067  10.972 -0.1888  1.1157  0.8366
  305MOL0     H40248   5.684   5.820  10.498 -2.7937  3.7654  0.8454
  305MOL0     H40249   5.520   5.682  10.369 -0.0067  1.2964  0.9063
  305MOL0     H40250   5.163   5.546  10.617 -0.4158 -1.1972  0.4608
  305MOL0     H40251   5.239   5.389  10.597 -3.3882 -2.0134 -0.6879
  305MOL0     H40252   5.051   5.373  10.476 -0.0312  0.0635 -1.5597
  305MOL0     H40253   5.074   5.526  10.386 -1.0928  0.1163  0.4369
  305MOL0     H40254   5.230   5.447  10.247 -0.9132  0.1376 -0.1809
  305MOL0     H40255   5.114   5.311  10.249 -0.9837  0.8436  0.6887
  305MOL0     H40256   5.343   5.241  10.250 -0.3944 -3.9803 -0.1661
  305MOL0     H40257   5.372   5.315  10.399  0.8582 -0.2067  0.1966
  305MOL0     H40258   5.153   4.983  10.536 -0.9195 -1.2758 -1.8814
  305MOL0     H40259   5.341   5.578  10.758  0.3168 -1.6622 -0.5001
  305MOL0     H40260   5.511   5.684  10.878  0.4375 -1.5405 -1.3390
  306MOL0     O40261   0.733  10.986  11.245 -0.0795  0.3760  0.2247
  306MOL0     C40262   0.642  10.987  11.331 -0.2778  0.1926 -0.3610
  306MOL0     O40263   0.540  10.903  11.336 -0.9773  0.1471  0.6707
  306MOL0     C40264   0.473  10.864  11.220  0.4029 -0.8918 -0.0459
  306MOL0     C40265   0.493  10.923  11.096 -0.6687 -0.3882  1.0004
  306MOL0     C40266   0.411  10.888  10.982  0.1071  0.3398  0.7424
  306MOL0     C40267   0.327  10.779  10.991  0.1972  0.5194  1.2457
  306MOL0     O40268   0.259  10.727  10.876  0.5133  0.0913  0.6365
  306MOL0     C40269   0.272  10.789  10.748  0.3790  0.0858 -0.3728
  306MOL0     C40270   0.242  10.668  10.651  0.2027 -0.2387 -0.2571
  306MOL0     C40271   0.213  10.724  10.513 -0.5573 -0.1880  0.1518
  306MOL0     C40272   0.321  10.806  10.445  0.2652 -0.3837 -0.4085
  306MOL0     C40273   0.270  10.882  10.328  1.0213  0.1260 -0.2573
  306MOL0     C40274   0.398  10.935  10.267  0.4539  0.3395 -0.8607
  306MOL0     C40275   0.388  10.959  10.110  0.3542 -0.7086  0.7254
  306MOL0     C40276   0.473  11.076  10.059  1.2933  0.1139 -0.1390
  306MOL0     N40277   0.610  11.073  10.108 -0.3132 -0.0118 -0.3123
  306MOL0     C40278   0.707  10.982  10.063  0.1716 -0.9183 -0.2727
  306MOL0     C40279   0.812  11.033  10.135  0.4449 -0.4729 -0.0828
  306MOL0     C40280   0.952  10.984  10.152 -0.0860  1.2356  0.4243
  306MOL0     C40281   1.046  11.080  10.065  0.9247  1.5549 -0.1747
  306MOL0     C40282   1.162  11.013  10.010  0.3802 -0.1835  0.6152
  306MOL0     C40283   1.286  11.095   9.988  0.8356  0.5082  1.0715
  306MOL0     O40284   1.263  11.213   9.915  0.3528  0.2769 -0.0417
  306MOL0     C40285   1.363  11.290   9.871 -0.6154 -0.8723  0.7397
  306MOL0     C40286   1.335  11.409   9.791  1.1581  0.0320  0.7374
  306MOL0     C40287   1.440  11.487   9.738 -0.4325 -0.0897 -0.4726
  306MOL0     C40288   1.574  11.449   9.774  0.1243 -0.3180 -0.1089
  306MOL0     C40289   1.685  11.533   9.729 -0.4261  0.5187 -0.2460
  306MOL0     O40290   1.802  11.532   9.813 -0.2154  0.4307  0.7901
  306MOL0     C40291   1.926  11.573   9.781  0.4593  0.2778 -0.2248
  306MOL0     C40292   2.006  11.578   9.883 -0.4606 -0.4853  0.6640
  306MOL0     C40293   2.134  11.617   9.865  0.9927  0.3742 -0.7460
  306MOL0     C40294   2.194  11.650   9.744 -0.8502  0.2992 -0.1066
  306MOL0     O40295   2.323  11.680   9.730 -0.5362 -0.3240  0.1920
  306MOL0     C40296   2.403  11.649   9.613  0.2920  0.0454 -0.4336
  306MOL0     C40297   2.549  11.710   9.616 -0.6433  0.8104  0.2159
  306MOL0     C40298   2.629  11.694   9.486  0.2369 -0.1304  0.5103
  306MOL0     C40299   2.754  11.786   9.494  0.2800  0.4393 -0.3815
  306MOL0     C40300   2.848  11.716   9.398 -0.0544  0.1653  0.2251
  306MOL0     C40301   2.804  11.717   9.252 -0.3164  0.2995  1.5300
  306MOL0     C40302   2.911  11.650   9.156  1.0153  0.1521  0.7190
  306MOL0     C40303   2.888  11.496   9.145  1.0315 -0.1658 -0.3506
  306MOL0    Cl40304   2.769  11.439   9.035 -0.5566  0.0447  0.1278
  306MOL0     C40305   2.104  11.651   9.632  0.9119 -0.3016  0.4245
  306MOL0     C40306   1.973  11.611   9.651 -0.4093 -0.5127  0.3170
  306MOL0     O40307   1.678  11.600   9.626  0.3804  0.1888 -0.7232
  306MOL0     C40308   1.600  11.337   9.848  0.3835 -0.4576 -0.1025
  306MOL0     C40309   1.495  11.256   9.902 -0.9558  0.2193 -0.2830
  306MOL0     N40310   0.785  11.140  10.219 -0.6165 -0.1219 -0.6252
  306MOL0     N40311   0.662  11.170  10.200  0.7608  0.4161 -0.1445
  306MOL0     C40312   0.316  10.716  11.118  0.2938 -0.0088  0.8127
  306MOL0     C40313   0.384  10.766  11.230 -0.3870  1.1608 -0.2551
  306MOL0     C40314   0.655  11.074  11.461 -0.1249  0.4759  1.3561
  306MOL0     C40315   0.557  11.052  11.566 -0.0218 -0.2770  0.7221
  306MOL0     C40316   0.575  11.134  11.676  0.6678  0.7406  0.4545
  306MOL0     C40317   0.682  11.223  11.698 -1.0103  0.7655  0.5434
  306MOL0     O40318   0.688  11.305  11.806 -0.2010 -0.2051 -0.0112
  306MOL0     C40319   0.797  11.274  11.900 -0.1147  1.1508  0.2244
  306MOL0     C40320   0.789  11.362  12.022 -0.4297  0.6035  0.2770
  306MOL0     C40321   0.668  11.347  12.107 -0.3391  0.2972  0.2062
  306MOL0     C40322   0.648  11.448  12.217 -0.5871 -0.4086 -1.0452
  306MOL0     C40323   0.626  11.584  12.166 -0.8372 -0.5227  0.4721
  306MOL0     C40324   0.592  11.692  12.124 -0.3465 -0.3291  0.1276
  306MOL0     C40325   0.777  11.242  11.597 -0.6080  0.4543  0.0576
  306MOL0     C40326   0.762  11.168  11.479  0.2843 -0.3734 -0.2074
  306MOL0     H40327   0.560  11.007  11.083 -1.7735  0.2068 -1.4351
  306MOL0     H40328   0.431  10.938  10.888 -2.9163 -2.1091 -1.4116
  306MOL0     H40329   0.372  10.822  10.717 -0.0357  0.8843 -0.9094
  306MOL0     H40330   0.209  10.879  10.742  1.7128  1.1275  0.5414
  306MOL0     H40331   0.148  10.621  10.683  0.0801  1.2319  1.7627
  306MOL0     H40332   0.321  10.593  10.651  1.0277  0.5629 -2.2251
  306MOL0     H40333   0.119  10.776  10.530 -0.2019 -0.2112  2.4381
  306MOL0     H40334   0.192  10.628  10.464  1.7536  0.1124 -1.6206
  306MOL0     H40335   0.347  10.887  10.514  0.0137 -2.5929  2.5043
  306MOL0     H40336   0.401  10.736  10.420  0.1899 -0.1625 -1.2831
  306MOL0     H40337   0.197  10.960  10.347  2.0130  0.7434  1.2344
  306MOL0     H40338   0.224  10.802  10.269  2.8754 -0.3066 -1.2191
  306MOL0     H40339   0.479  10.864  10.287 -2.4141 -2.3887  2.0651
  306MOL0     H40340   0.415  11.028  10.323 -4.4923 -0.5570  2.7162
  306MOL0     H40341   0.434  10.867  10.073  2.6533  1.5816 -2.6633
  306MOL0     H40342   0.283  10.959  10.079  1.2729  0.0982 -2.7769
  306MOL0     H40343   0.414  11.160  10.094 -0.1080 -1.1540  0.6526
  306MOL0     H40344   0.467  11.062   9.950 -2.2131  2.1805 -0.3305
  306MOL0     H40345   0.700  10.894  10.000  1.5210 -1.0898 -0.1971
  306MOL0     H40346   0.955  10.877  10.128  0.9906  1.2474  0.4822
  306MOL0     H40347   0.985  10.992  10.256  0.2204 -3.0832  0.8590
  306MOL0     H40348   1.085  11.151  10.139  3.0860  1.5750 -1.2674
  306MOL0     H40349   0.992  11.140   9.992  2.9377  1.2514 -1.9927
  306MOL0     H40350   1.198  10.943  10.085 -0.3564 -0.6489  0.5482
  306MOL0     H40351   1.153  10.969   9.910  1.4395  1.9665 -0.4903
  306MOL0     H40352   1.356  11.029   9.936  0.6011  0.1046  1.2642
  306MOL0     H40353   1.329  11.127  10.084 -1.4471  1.6392  1.7912
  306MOL0     H40354   1.231  11.436   9.777  0.2734 -3.5970 -1.0105
  306MOL0     H40355   1.426  11.576   9.677 -0.8856 -0.7815 -1.3965
  306MOL0     H40356   1.961  11.544   9.976 -1.9668 -2.2120 -0.6154
  306MOL0     H40357   2.192  11.616   9.957 -3.4423 -1.5703  2.4171
  306MOL0     H40358   2.357  11.707   9.532  0.3457  3.6914  1.9272
  306MOL0     H40359   2.392  11.544   9.582  0.1237 -0.0615 -0.0286
  306MOL0     H40360   2.614  11.651   9.681 -2.6046 -2.9862 -0.9187
  306MOL0     H40361   2.556  11.814   9.649  0.6380  0.3460  1.4600
  306MOL0     H40362   2.569  11.727   9.400  1.2271 -0.9268 -0.5150
  306MOL0     H40363   2.641  11.588   9.462 -0.1431  0.1658 -1.0858
  306MOL0     H40364   2.721  11.885   9.461  0.1798 -0.0112 -1.6786
  306MOL0     H40365   2.801  11.792   9.592 -0.7562 -1.4679  0.2848
  306MOL0     H40366   2.871  11.615   9.432 -0.6221  0.9776  3.3436
  306MOL0     H40367   2.945  11.764   9.409 -0.5338  0.6447  3.3970
  306MOL0     H40368   2.771  11.815   9.216 -0.4090 -0.2981 -0.0669
  306MOL0     H40369   2.712  11.661   9.232  0.0304  0.1414  0.2955
  306MOL0     H40370   2.905  11.689   9.054 -0.7371  2.3741  1.5819
  306MOL0     H40371   3.005  11.684   9.200  1.3498  2.3599 -1.4782
  306MOL0     H40372   2.855  11.458   9.243  0.0395  0.2047 -0.5278
  306MOL0     H40373   2.980  11.449   9.108  0.2776 -0.4810 -1.9007
  306MOL0     H40374   2.126  11.676   9.529 -0.4093  1.1967  0.4680
  306MOL0     H40375   1.917  11.610   9.558  1.7556 -2.0475 -1.0757
  306MOL0     H40376   1.704  11.315   9.868  1.3627  2.8342 -0.9184
  306MOL0     H40377   1.529  11.171   9.960  2.0854  1.6161  0.1796
  306MOL0     H40378   0.241  10.638  11.122 -3.0735  2.6484 -2.4346
  306MOL0     H40379   0.362  10.703  11.315 -0.8695 -1.1453 -1.9850
  306MOL0     H40380   0.470  10.986  11.557  1.0691 -1.5245 -1.9283
  306MOL0     H40381   0.494  11.133  11.748 -0.8165  1.4345 -1.1185
  306MOL0     H40382   0.892  11.278  11.847  0.1840  3.0218  0.8313
  306MOL0     H40383   0.782  11.170  11.930  1.3498  1.0754  0.7630
  306MOL0     H40384   0.886  11.345  12.069  0.7981  2.1688 -1.5237
  306MOL0     H40385   0.799  11.466  11.989  1.7076  1.1202  2.3555
  306MOL0     H40386   0.663  11.243  12.142 -2.4412 -0.3693 -1.8161
  306MOL0     H40387   0.576  11.348  12.047 -0.8525  1.3904  0.9881
  306MOL0     H40388   0.562  11.411  12.274  1.8492 -4.4433  0.3944
  306MOL0     H40389   0.731  11.449  12.288  3.7764 -0.4069 -5.5394
  306MOL0     H40390   0.561  11.786  12.085  2.3032  0.3716 -0.4816
  306MOL0     H40391   0.858  11.315  11.598 -3.0792  3.4060  0.8024
  306MOL0     H40392   0.834  11.183  11.399  1.7167  3.3364  1.5589
  307MOL0     O40393   5.265   4.657   0.883 -0.6572  0.9008 -0.1798
  307MOL0     C40394   5.352   4.580   0.915 -0.3200 -0.3460 -0.1905
  307MOL0     O40395   5.385   4.464   0.857  0.0689 -0.1996  0.0663
  307MOL0     C40396   5.314   4.412   0.749  0.4047  0.4198 -0.8703
  307MOL0     C40397   5.397   4.365   0.648  0.2120  0.2737 -0.3224
  307MOL0     C40398   5.358   4.332   0.523  1.0744  0.1662 -0.1078
  307MOL0     C40399   5.218   4.345   0.495  0.9655 -0.6981  0.1334
  307MOL0     O40400   5.156   4.327   0.374 -0.6695  0.2596  0.0134
  307MOL0     C40401   5.243   4.360   0.259 -0.5291 -0.1476 -0.0717
  307MOL0     C40402   5.287   4.500   0.236 -0.1400 -0.0399 -0.7769
  307MOL0     C40403   5.170   4.593   0.279 -0.3830 -0.8463  0.4204
  307MOL0     C40404   5.218   4.737   0.276  0.2973 -0.8594  0.2663
  307MOL0     C40405   5.129   4.831   0.358 -0.9114  0.4280  0.3565
  307MOL0     C40406   5.164   4.979   0.333 -0.2631 -0.2111 -0.1474
  307MOL0     C40407   5.114   5.079   0.436 -0.2832 -0.7757 -0.8371
  307MOL0     C40408   5.105   5.225   0.369 -0.2463  0.3737  0.6830
  307MOL0     N40409   5.234   5.295   0.379 -0.2782  0.1141 -0.5009
  307MOL0     C40410   5.354   5.251   0.311 -1.0123 -0.1082 -0.0767
  307MOL0     C40411   5.451   5.339   0.345  1.1297  0.0941 -0.9041
  307MOL0     C40412   5.591   5.323   0.315 -0.0509  0.3501 -0.9134
  307MOL0     C40413   5.666   5.453   0.271  0.5352 -0.8667  0.0165
  307MOL0     C40414   5.600   5.528   0.167  0.5068  0.1470  0.3927
  307MOL0     C40415   5.579   5.449   0.039 -0.5584  0.7060 -0.0862
  307MOL0     O40416   5.535   5.537  -0.068  0.2254 -0.0948  0.4074
  307MOL0     C40417   5.474   5.475  -0.177 -0.3634  0.1378 -1.0916
  307MOL0     C40418   5.470   5.334  -0.192  0.0470  0.7429 -0.2752
  307MOL0     C40419   5.407   5.286  -0.308 -0.2144  1.9937  0.1592
  307MOL0     C40420   5.337   5.364  -0.400  0.4635  0.7666  0.0582
  307MOL0     C40421   5.277   5.306  -0.519 -0.0374 -0.3825 -1.2217
  307MOL0     O40422   5.279   5.173  -0.522  0.4148 -0.3389 -1.3766
  307MOL0     C40423   5.177   5.109  -0.582  0.0421  0.4317 -0.9095
  307MOL0     C40424   5.204   4.981  -0.632 -0.9668  0.9579 -0.2980
  307MOL0     C40425   5.105   4.896  -0.656 -0.5482  0.0707 -0.3155
  307MOL0     C40426   4.974   4.938  -0.650  0.2168 -0.3908 -0.0571
  307MOL0     O40427   4.863   4.851  -0.677  0.1697  0.2182  0.0373
  307MOL0     C40428   4.742   4.866  -0.608  1.0363  0.8041 -0.4231
  307MOL0     C40429   4.753   4.779  -0.481  0.9156  0.5362 -0.4926
  307MOL0     C40430   4.665   4.852  -0.370  0.1410  0.7828 -0.1631
  307MOL0     C40431   4.726   4.996  -0.340 -0.0365  0.6161  0.5586
  307MOL0     C40432   4.702   5.042  -0.197  0.6468 -0.1844 -0.2606
  307MOL0     C40433   4.829   5.003  -0.116  0.4017  0.3630  0.0512
  307MOL0     C40434   4.797   5.007   0.037 -0.4359  0.5457  0.7732
  307MOL0     C40435   4.759   4.864   0.091 -1.2668 -0.3200 -0.5602
  307MOL0    Cl40436   4.752   4.887   0.274  0.0614  0.2358 -0.0621
  307MOL0     C40437   4.949   5.073  -0.621  0.9355 -0.1792 -0.7956
  307MOL0     C40438   5.046   5.157  -0.576 -0.5102 -0.0972  0.7116
  307MOL0     O40439   5.218   5.380  -0.595 -0.2273  0.6822  0.2656
  307MOL0     C40440   5.342   5.497  -0.378  0.8066 -1.4150  0.3381
  307MOL0     C40441   5.415   5.555  -0.275  0.4445 -0.3384  0.4240
  307MOL0     N40442   5.393   5.431   0.427  0.3685 -0.2450 -0.6137
  307MOL0     N40443   5.263   5.404   0.453 -0.3103  0.1558 -0.8865
  307MOL0     C40444   5.129   4.377   0.599 -0.5795  0.3553  0.0926
  307MOL0     C40445   5.178   4.417   0.719  0.2832 -1.0819 -0.4159
  307MOL0     C40446   5.429   4.620   1.039  0.9640  0.1608 -0.5962
  307MOL0     C40447   5.420   4.748   1.099  0.1434  0.1809  0.1250
  307MOL0     C40448   5.486   4.774   1.222  0.2209  0.1648 -0.8738
  307MOL0     C40449   5.554   4.668   1.292  0.7065 -0.1718 -0.0389
  307MOL0     O40450   5.608   4.705   1.412  0.0163  0.3142 -0.6907
  307MOL0     C40451   5.723   4.634   1.471 -1.1098 -0.3196 -0.6416
  307MOL0     C40452   5.820   4.746   1.515 -0.5236 -0.4294 -1.1714
  307MOL0     C40453   5.967   4.717   1.542  0.5387  1.1872 -0.2449
  307MOL0     C40454   6.038   4.832   1.621  0.3157 -0.5875  0.7626
  307MOL0     C40455   6.018   4.969   1.577  0.3228  0.4459  0.4323
  307MOL0     C40456   5.994   5.082   1.551 -0.6617 -1.0929  0.2253
  307MOL0     C40457   5.550   4.540   1.238  0.5286  0.9683 -0.3507
  307MOL0     C40458   5.481   4.516   1.117  0.3169  0.3988 -0.4810
  307MOL0     H40459   5.502   4.360   0.675 -0.3185  3.0482  2.9456
  307MOL0     H40460   5.439   4.282   0.470 -1.0039 -3.1120 -0.5420
  307MOL0     H40461   5.196   4.313   0.172  1.0066 -0.6292 -0.6742
  307MOL0     H40462   5.336   4.306   0.279  0.9350  2.8063  1.8057
  307MOL0     H40463   5.310   4.517   0.130  2.7905  6.3224  0.3838
  307MOL0     H40464   5.377   4.519   0.296 -3.0314  0.3179  3.9428
  307MOL0     H40465   5.135   4.574   0.381 -0.7367  1.1557  0.7094
  307MOL0     H40466   5.091   4.573   0.206 -0.7719 -1.6692  1.0480
  307MOL0     H40467   5.318   4.747   0.319  0.5913  3.5350 -0.9449
  307MOL0     H40468   5.220   4.781   0.176 -0.6552 -0.0812  0.5774
  307MOL0     H40469   5.151   4.815   0.464 -1.6938 -0.3726  0.4115
  307MOL0     H40470   5.022   4.825   0.334 -0.1301 -1.9759 -3.5028
  307MOL0     H40471   5.136   5.010   0.232 -2.3574  0.7901  0.6919
  307MOL0     H40472   5.273   4.986   0.336 -0.3253  2.3988 -1.4533
  307MOL0     H40473   5.013   5.045   0.459 -1.0106  1.5976 -0.2513
  307MOL0     H40474   5.183   5.085   0.520  2.2379 -2.7917 -2.5959
  307MOL0     H40475   5.017   5.269   0.416  1.1745  2.9774  1.0931
  307MOL0     H40476   5.075   5.208   0.265  1.1740  0.1173  0.3031
  307MOL0     H40477   5.375   5.158   0.259 -1.3111 -2.3064  3.4201
  307MOL0     H40478   5.601   5.254   0.230  0.4247 -2.4025  1.2310
  307MOL0     H40479   5.650   5.283   0.398  0.5603  0.0331 -1.4930
  307MOL0     H40480   5.769   5.435   0.238  0.0894  0.9110 -2.6999
  307MOL0     H40481   5.664   5.518   0.358 -0.2471 -1.8734  0.7871
  307MOL0     H40482   5.501   5.554   0.206 -0.3018 -0.1452 -1.4071
  307MOL0     H40483   5.660   5.615   0.139 -0.0755 -0.3102 -2.5550
  307MOL0     H40484   5.511   5.365   0.054  1.2243 -1.0244 -1.0638
  307MOL0     H40485   5.673   5.406   0.002 -0.0602 -1.1959  2.9931
  307MOL0     H40486   5.517   5.262  -0.126 -0.1204  0.5860 -0.3275
  307MOL0     H40487   5.399   5.177  -0.305 -3.2416  2.1463  2.3517
  307MOL0     H40488   5.308   4.952  -0.627 -1.3727 -0.6668 -0.4992
  307MOL0     H40489   5.126   4.792  -0.678 -0.9680  0.0896 -0.8009
  307MOL0     H40490   4.656   4.825  -0.662  0.9854  0.1304  0.1461
  307MOL0     H40491   4.718   4.968  -0.577 -4.9318 -0.2560 -0.3661
  307MOL0     H40492   4.858   4.773  -0.449  0.0601 -1.0262  2.4223
  307MOL0     H40493   4.706   4.681  -0.489 -1.6840  1.2787  3.1005
  307MOL0     H40494   4.663   4.790  -0.280 -0.9570 -1.1148 -1.4253
  307MOL0     H40495   4.558   4.862  -0.389 -0.8949 -4.8682  0.9490
  307MOL0     H40496   4.833   5.004  -0.361  0.1352 -0.8699  0.7491
  307MOL0     H40497   4.665   5.067  -0.396 -2.9863 -2.3129 -0.2548
  307MOL0     H40498   4.609   4.990  -0.170  0.2992  0.6516  0.1831
  307MOL0     H40499   4.684   5.149  -0.183 -2.0530 -0.3099 -2.1044
  307MOL0     H40500   4.912   5.069  -0.144  0.4473 -0.1928 -1.1725
  307MOL0     H40501   4.849   4.899  -0.140  0.5034  0.5797 -0.8475
  307MOL0     H40502   4.886   5.027   0.098  1.1901 -2.5161 -0.3766
  307MOL0     H40503   4.718   5.077   0.064 -0.3116  0.7262  0.6738
  307MOL0     H40504   4.830   4.783   0.070 -2.1570 -2.1029  2.5698
  307MOL0     H40505   4.656   4.838   0.066 -2.9825  0.5533  4.3856
  307MOL0     H40506   4.846   5.107  -0.622  0.0362 -2.5584  1.4479
  307MOL0     H40507   5.016   5.253  -0.535 -2.7386 -1.4919  2.6296
  307MOL0     H40508   5.295   5.562  -0.451 -1.1084 -3.8552 -0.7440
  307MOL0     H40509   5.419   5.663  -0.276 -2.0253 -0.1623  1.6699
  307MOL0     H40510   5.023   4.373   0.576 -0.2726 -2.4695 -1.2204
  307MOL0     H40511   5.113   4.451   0.799  1.1291 -5.7184  2.6504
  307MOL0     H40512   5.376   4.835   1.052  4.8324  2.4443 -0.7257
  307MOL0     H40513   5.482   4.876   1.259  2.6308 -0.2593  0.8450
  307MOL0     H40514   5.766   4.566   1.397 -0.8659  0.3292 -1.1115
  307MOL0     H40515   5.703   4.584   1.566  0.7334  4.0503  2.4201
  307MOL0     H40516   5.809   4.823   1.438  1.2609  2.4033  1.1523
  307MOL0     H40517   5.786   4.792   1.609 -0.0604 -1.8317 -0.2905
  307MOL0     H40518   6.013   4.709   1.443  0.2148 -1.2131 -0.2481
  307MOL0     H40519   5.972   4.619   1.589  1.1636  1.3632  0.0723
  307MOL0     H40520   6.010   4.825   1.727 -1.4897 -1.8442  0.2497
  307MOL0     H40521   6.147   4.825   1.628  0.5932  1.9074 -0.0608
  307MOL0     H40522   5.984   5.188   1.535  1.1344 -0.8077  0.7139
  307MOL0     H40523   5.571   4.453   1.299 -2.6559  1.8915  2.3801
  307MOL0     H40524   5.476   4.412   1.089  0.7945  0.4426 -0.7342
  308MOL0     O40525   0.991   4.621   2.276  0.2526 -0.2672 -0.4379
  308MOL0     C40526   0.946   4.734   2.294  0.4662 -0.5393  0.2217
  308MOL0     O40527   0.986   4.843   2.236 -0.1183  0.5399  0.6322
  308MOL0     C40528   1.061   4.825   2.116 -0.4847 -0.1014 -0.8383
  308MOL0     C40529   1.001   4.823   1.985 -0.8601  0.0576 -0.2770
  308MOL0     C40530   1.086   4.815   1.866 -0.2625 -0.2905  0.2130
  308MOL0     C40531   1.225   4.792   1.881 -1.0966 -0.4252  0.6828
  308MOL0     O40532   1.306   4.781   1.765  0.0907  0.3508 -0.5307
  308MOL0     C40533   1.259   4.677   1.687 -1.0510  0.4536 -0.6581
  308MOL0     C40534   1.380   4.577   1.674  0.1262 -0.3698  1.0986
  308MOL0     C40535   1.482   4.620   1.580 -0.9235  0.7203 -0.5570
  308MOL0     C40536   1.559   4.489   1.517  0.6665  0.5961 -0.2115
  308MOL0     C40537   1.611   4.509   1.379  0.0955 -0.3218 -0.3938
  308MOL0     C40538   1.698   4.645   1.358  0.7372  1.2288 -0.1733
  308MOL0     C40539   1.783   4.622   1.221  0.5755  0.3140 -0.2498
  308MOL0     C40540   1.927   4.559   1.243  0.7376  0.9408 -0.3647
  308MOL0     N40541   1.931   4.431   1.316 -0.3135 -0.9090 -0.6869
  308MOL0     C40542   1.913   4.318   1.243 -0.1539 -0.2118 -1.2720
  308MOL0     C40543   1.919   4.221   1.346 -1.0734 -0.4626  0.2104
  308MOL0     C40544   1.898   4.074   1.324 -1.1686 -0.7519  0.8904
  308MOL0     C40545   2.008   3.995   1.260  0.1828  0.0752 -0.2269
  308MOL0     C40546   1.957   3.851   1.249 -1.3713 -0.1772  0.2636
  308MOL0     C40547   2.063   3.755   1.170  0.1414  1.0548 -0.3665
  308MOL0     O40548   2.022   3.775   1.034 -1.2561 -0.6024  0.0741
  308MOL0     C40549   2.038   3.665   0.954 -0.7324 -0.5174 -0.0578
  308MOL0     C40550   1.970   3.684   0.836 -0.1068  0.1283 -1.2488
  308MOL0     C40551   1.965   3.585   0.746  0.2411  0.0764  0.0919
  308MOL0     C40552   2.040   3.464   0.756  1.0232 -0.1192 -0.0735
  308MOL0     C40553   2.003   3.358   0.655 -0.2127  0.5247 -0.5185
  308MOL0     O40554   1.953   3.412   0.540 -0.4350  0.0003 -0.3251
  308MOL0     C40555   1.922   3.333   0.426 -0.0539 -0.1611 -0.3866
  308MOL0     C40556   1.913   3.192   0.417 -0.3956 -0.4853  0.3746
  308MOL0     C40557   1.913   3.131   0.295  0.2867  0.3584  0.9644
  308MOL0     C40558   1.917   3.205   0.175 -0.1266  0.4668 -0.7955
  308MOL0     O40559   1.916   3.127   0.063  0.1851  0.0910  0.1348
  308MOL0     C40560   1.914   3.197  -0.069  1.5211  0.3664 -0.5777
  308MOL0     C40561   1.765   3.196  -0.127 -0.6813 -0.0710  0.0516
  308MOL0     C40562   1.650   3.254  -0.044 -0.0521 -0.6637 -0.1923
  308MOL0     C40563   1.525   3.316  -0.124  0.3212  0.0617  0.6795
  308MOL0     C40564   1.430   3.368  -0.024 -0.3267 -0.9089  1.2772
  308MOL0     C40565   1.471   3.504   0.040 -0.3479  0.3355 -0.1217
  308MOL0     C40566   1.363   3.567   0.132 -0.0930 -0.9102 -0.5898
  308MOL0     C40567   1.435   3.623   0.251 -0.1220 -0.4931  0.0267
  308MOL0    Cl40568   1.313   3.673   0.379  0.0945  0.3208 -0.0707
  308MOL0     C40569   1.914   3.346   0.187 -0.0464  0.8351 -0.6803
  308MOL0     C40570   1.919   3.410   0.310 -0.1649  1.0455  0.7447
  308MOL0     O40571   2.033   3.244   0.684 -0.0338 -0.4915  0.9875
  308MOL0     C40572   2.119   3.445   0.878 -1.0075 -0.3637 -0.1758
  308MOL0     C40573   2.126   3.554   0.969 -0.1946 -0.3683  0.5321
  308MOL0     N40574   1.935   4.285   1.465 -0.3450 -0.6743  0.3809
  308MOL0     N40575   1.949   4.410   1.447 -0.4257  0.0929 -0.5712
  308MOL0     C40576   1.275   4.795   2.011 -0.7971 -0.2552 -0.4066
  308MOL0     C40577   1.194   4.813   2.127 -0.0587 -0.4754  0.5293
  308MOL0     C40578   0.858   4.755   2.415 -0.6370  0.8599  0.1252
  308MOL0     C40579   0.796   4.647   2.475 -0.0728  0.5229 -0.9345
  308MOL0     C40580   0.716   4.683   2.590 -0.3782  0.0692 -0.2065
  308MOL0     C40581   0.699   4.816   2.638 -0.2388  0.7965 -0.4026
  308MOL0     O40582   0.619   4.832   2.748 -0.6182 -0.0190 -0.3957
  308MOL0     C40583   0.643   4.948   2.827  0.0172 -0.0717 -0.4308
  308MOL0     C40584   0.543   5.061   2.794 -0.6346  0.3082 -0.7877
  308MOL0     C40585   0.403   5.049   2.862 -0.1333  0.9846 -0.4116
  308MOL0     C40586   0.325   5.178   2.848 -0.6015  0.6526  0.7232
  308MOL0     C40587   0.202   5.147   2.918  0.9978  1.3558 -0.6214
  308MOL0     C40588   0.104   5.135   2.992 -0.9972  0.2900  0.2238
  308MOL0     C40589   0.756   4.923   2.565 -0.1991  0.0117  0.3668
  308MOL0     C40590   0.825   4.890   2.449  0.0387  0.8346  0.4814
  308MOL0     H40591   0.894   4.842   1.977 -1.8038 -3.3630  1.6670
  308MOL0     H40592   1.045   4.843   1.769 -1.7777  5.4293  2.0830
  308MOL0     H40593   1.228   4.717   1.589 -0.3720  0.4383 -0.8856
  308MOL0     H40594   1.173   4.619   1.721 -0.2635 -1.5458 -1.8934
  308MOL0     H40595   1.334   4.489   1.629 -1.6111  1.3305 -0.6205
  308MOL0     H40596   1.417   4.554   1.775 -0.6501  0.6982  1.6544
  308MOL0     H40597   1.550   4.692   1.626 -1.7752  0.5027  1.1278
  308MOL0     H40598   1.428   4.669   1.499  0.4745 -1.0482 -2.6894
  308MOL0     H40599   1.637   4.453   1.585  3.0573 -0.4857 -3.3073
  308MOL0     H40600   1.486   4.409   1.506  0.9971  0.4192 -1.1391
  308MOL0     H40601   1.529   4.510   1.306  0.8938 -2.5095 -1.4092
  308MOL0     H40602   1.662   4.419   1.343 -1.2254 -2.1569  2.0310
  308MOL0     H40603   1.774   4.656   1.436  0.8286  0.5135 -0.1543
  308MOL0     H40604   1.635   4.734   1.365  1.2981  1.7405 -1.3870
  308MOL0     H40605   1.723   4.574   1.143  3.4864 -0.4147 -2.1931
  308MOL0     H40606   1.803   4.719   1.174 -0.2555  1.0425  0.8474
  308MOL0     H40607   1.980   4.630   1.308  1.0508  2.8743 -2.6000
  308MOL0     H40608   1.986   4.559   1.151 -0.9291  2.8979 -1.5224
  308MOL0     H40609   1.897   4.299   1.138 -1.3315 -1.0361 -0.9591
  308MOL0     H40610   1.805   4.055   1.269 -0.5684 -2.6823  0.4659
  308MOL0     H40611   1.880   4.022   1.419 -2.1543 -0.9522  0.6126
  308MOL0     H40612   2.097   4.006   1.321 -0.8561 -0.7814  1.5201
  308MOL0     H40613   2.026   4.018   1.155  1.7111 -1.5360 -0.3757
  308MOL0     H40614   1.965   3.809   1.350  2.1691  2.3446  1.2294
  308MOL0     H40615   1.856   3.836   1.209 -0.6317 -2.6483 -0.9122
  308MOL0     H40616   2.042   3.654   1.204  2.3558  0.8929  0.6989
  308MOL0     H40617   2.169   3.780   1.172  0.2490  0.5372  0.7404
  308MOL0     H40618   1.906   3.770   0.824 -1.5202 -0.6187  0.5755
  308MOL0     H40619   1.884   3.604   0.676 -1.1917 -4.8431  0.0817
  308MOL0     H40620   1.904   3.138   0.511 -0.0144  0.5584  1.0350
  308MOL0     H40621   1.893   3.025   0.284 -2.0148  0.8511 -0.2997
  308MOL0     H40622   1.975   3.137  -0.136 -0.0569  0.4497 -2.1664
  308MOL0     H40623   1.950   3.300  -0.066 -3.2494  2.2898 -0.3198
  308MOL0     H40624   1.734   3.092  -0.140 -3.7474  0.4594  2.2333
  308MOL0     H40625   1.771   3.244  -0.225 -1.3496  2.4927  1.1779
  308MOL0     H40626   1.697   3.329   0.020 -2.2410 -0.5172  1.3655
  308MOL0     H40627   1.622   3.174   0.025  2.9862 -1.1767  0.5943
  308MOL0     H40628   1.555   3.397  -0.191 -0.9457 -0.9456 -1.1761
  308MOL0     H40629   1.471   3.239  -0.180  1.3405  0.1193 -0.4339
  308MOL0     H40630   1.409   3.293   0.053 -3.0586 -1.8703 -0.2876
  308MOL0     H40631   1.332   3.380  -0.072  0.7575  1.2571 -0.5962
  308MOL0     H40632   1.498   3.579  -0.035  0.1867  1.2912  0.9879
  308MOL0     H40633   1.560   3.476   0.099  1.9188  1.7830 -2.6332
  308MOL0     H40634   1.320   3.646   0.069 -0.5804 -0.5315  0.2090
  308MOL0     H40635   1.289   3.492   0.161 -0.9622  0.3562  0.6048
  308MOL0     H40636   1.497   3.706   0.218  0.9603 -0.4955  1.9306
  308MOL0     H40637   1.508   3.556   0.297  1.3484 -0.3314 -1.9754
  308MOL0     H40638   1.917   3.419   0.106  1.4905 -1.0127 -2.3783
  308MOL0     H40639   1.917   3.519   0.316 -1.6740  0.9821  2.0531
  308MOL0     H40640   2.166   3.348   0.895 -1.2946 -1.0222 -2.7095
  308MOL0     H40641   2.183   3.525   1.057 -2.5420 -1.1874  1.8724
  308MOL0     H40642   1.380   4.772   2.020 -0.8405 -0.0439  0.8695
  308MOL0     H40643   1.228   4.823   2.229 -0.8093  0.4097  0.7078
  308MOL0     H40644   0.801   4.543   2.447 -2.7006  0.2862 -0.6946
  308MOL0     H40645   0.669   4.590   2.623 -0.7042  0.3367  0.0906
  308MOL0     H40646   0.745   4.985   2.812 -0.0743 -0.8271 -3.8998
  308MOL0     H40647   0.624   4.938   2.934 -0.5894  1.1962 -0.4011
  308MOL0     H40648   0.586   5.155   2.830 -0.5505 -0.6298  1.7487
  308MOL0     H40649   0.538   5.069   2.685  0.5678 -0.8497 -0.9577
  308MOL0     H40650   0.418   5.014   2.964 -0.4207 -1.2267 -1.0855
  308MOL0     H40651   0.343   4.966   2.823 -0.4808 -0.0858  2.2281
  308MOL0     H40652   0.377   5.263   2.890  1.7424  1.1424 -2.7199
  308MOL0     H40653   0.291   5.197   2.745 -2.5347  1.2214  1.4262
  308MOL0     H40654   0.013   5.137   3.048 -3.1415  0.3025 -3.0014
  308MOL0     H40655   0.733   5.027   2.584 -2.6708 -0.4139  0.1404
  308MOL0     H40656   0.861   4.979   2.397  1.5766  0.9039  1.5761
  309MOL0     O40657   5.019   7.062   7.216  0.7358 -0.8772  0.6839
  309MOL0     C40658   4.945   6.986   7.151  0.3539 -0.8010 -0.2099
  309MOL0     O40659   4.820   6.938   7.183  0.5396 -0.9278 -0.8886
  309MOL0     C40660   4.734   6.989   7.284 -0.2467  0.8750 -0.4752
  309MOL0     C40661   4.611   6.922   7.301 -0.0590  0.3022  0.1976
  309MOL0     C40662   4.525   6.957   7.405  0.1520  0.5822  0.8211
  309MOL0     C40663   4.547   7.061   7.500 -0.1636 -0.0509 -0.1119
  309MOL0     O40664   4.466   7.079   7.614  0.1328 -0.0461 -0.1423
  309MOL0     C40665   4.322   7.049   7.592  0.2824  0.0048  0.3700
  309MOL0     C40666   4.255   7.112   7.461 -0.7834  0.4642 -0.1438
  309MOL0     C40667   4.270   7.273   7.449  0.5469  0.3375 -0.8645
  309MOL0     C40668   4.193   7.342   7.561  0.4796  0.1818  0.0522
  309MOL0     C40669   4.194   7.499   7.564 -0.3761 -0.5964  0.1951
  309MOL0     C40670   4.109   7.564   7.451  0.1192  0.4189  0.6637
  309MOL0     C40671   3.964   7.564   7.481  0.3340  0.2629 -0.6886
  309MOL0     C40672   3.874   7.581   7.360  0.0535  1.0652 -0.6480
  309MOL0     N40673   3.907   7.710   7.288 -0.7040  0.4801  0.5213
  309MOL0     C40674   3.996   7.724   7.183 -0.0955 -0.0605 -0.6270
  309MOL0     C40675   3.968   7.852   7.131  0.3481 -0.1213 -0.7649
  309MOL0     C40676   4.013   7.903   7.001 -0.4480  0.0517  0.9561
  309MOL0     C40677   4.163   7.951   7.015 -0.0710 -0.5976 -0.0696
  309MOL0     C40678   4.215   8.003   6.875 -0.5366 -0.0172 -0.5951
  309MOL0     C40679   4.146   8.133   6.824 -0.3715  0.8329 -0.4100
  309MOL0     O40680   4.197   8.163   6.690  0.2454  0.1048 -1.4812
  309MOL0     C40681   4.308   8.240   6.676  0.3832  0.4311 -0.0509
  309MOL0     C40682   4.379   8.299   6.787 -0.1138 -0.6170  0.0316
  309MOL0     C40683   4.488   8.382   6.757  0.7801  0.1513  0.0554
  309MOL0     C40684   4.512   8.428   6.629 -0.2653  0.3114 -0.3161
  309MOL0     C40685   4.634   8.513   6.592 -0.0818 -0.3272 -0.6300
  309MOL0     O40686   4.688   8.585   6.698  0.6023  0.3979  0.1983
  309MOL0     C40687   4.774   8.682   6.657 -0.6760 -0.0295 -0.5180
  309MOL0     C40688   4.726   8.795   6.582 -0.6082  0.3517 -0.4103
  309MOL0     C40689   4.806   8.900   6.552  0.1772 -0.2295 -0.5701
  309MOL0     C40690   4.940   8.898   6.584 -0.2080  0.5574  0.5545
  309MOL0     O40691   5.032   8.991   6.539 -0.0450  0.1626  0.3272
  309MOL0     C40692   5.001   9.123   6.560 -0.2705  0.0049  0.7326
  309MOL0     C40693   5.123   9.187   6.622  0.4486 -0.0380  0.3407
  309MOL0     C40694   5.100   9.341   6.651  0.3005 -0.7903 -0.7962
  309MOL0     C40695   5.193   9.397   6.757  0.0078  0.4094 -0.1390
  309MOL0     C40696   5.331   9.425   6.701  0.0020 -0.6693  0.7787
  309MOL0     C40697   5.447   9.430   6.807  0.1792 -0.3512  1.0112
  309MOL0     C40698   5.486   9.288   6.853  0.1478  0.1007  0.2602
  309MOL0     C40699   5.569   9.301   6.981  0.3288  0.6836  1.2661
  309MOL0    Cl40700   5.465   9.303   7.128  0.3745  0.2017  0.3192
  309MOL0     C40701   4.989   8.792   6.664  0.6914  0.5299  0.1719
  309MOL0     C40702   4.909   8.681   6.693  0.3563  0.5586 -1.0142
  309MOL0     O40703   4.664   8.521   6.477  0.2294 -0.2146  0.1645
  309MOL0     C40704   4.433   8.380   6.528 -0.6337 -0.5447 -0.8676
  309MOL0     C40705   4.335   8.289   6.547  0.1247 -0.1333  0.4838
  309MOL0     N40706   3.868   7.902   7.202  0.4027  0.1303  0.0009
  309MOL0     N40707   3.826   7.817   7.282 -1.1283 -0.1289 -0.3243
  309MOL0     C40708   4.678   7.121   7.485  0.5784  0.2872  0.2573
  309MOL0     C40709   4.764   7.084   7.386 -0.3480  0.2317  0.7887
  309MOL0     C40710   4.985   6.921   7.025 -0.2711 -1.1620 -0.0561
  309MOL0     C40711   4.890   6.837   6.950 -0.3385 -0.3763  1.2412
  309MOL0     C40712   4.944   6.750   6.858 -0.4092  0.9538  0.2206
  309MOL0     C40713   5.088   6.753   6.829  0.2515 -0.6015  0.7899
  309MOL0     O40714   5.126   6.666   6.730 -0.3165  0.5991  0.4539
  309MOL0     C40715   5.241   6.678   6.657  0.9575 -0.1082  0.1302
  309MOL0     C40716   5.242   6.595   6.528  0.3285  0.4364  0.3969
  309MOL0     C40717   5.351   6.656   6.436 -0.4903 -0.5278  0.7908
  309MOL0     C40718   5.322   6.636   6.280 -1.2828 -0.1864 -0.7436
  309MOL0     C40719   5.431   6.705   6.206 -0.6255 -0.3942  0.7645
  309MOL0     C40720   5.514   6.746   6.127 -0.3719 -1.1264  0.0962
  309MOL0     C40721   5.175   6.845   6.892  0.0215  0.2551 -0.2919
  309MOL0     C40722   5.122   6.926   6.996 -1.0871  1.0645 -0.0117
  309MOL0     H40723   4.583   6.845   7.230 -1.0367  1.0167 -0.2123
  309MOL0     H40724   4.431   6.904   7.421 -0.5998  1.5865 -0.0841
  309MOL0     H40725   4.265   7.082   7.680  0.0564 -2.0784  1.0537
  309MOL0     H40726   4.330   6.940   7.598 -0.1318 -0.0553 -0.1381
  309MOL0     H40727   4.155   7.073   7.442 -0.0483 -1.7089  0.1182
  309MOL0     H40728   4.312   7.082   7.373 -0.0309  1.8484 -0.1551
  309MOL0     H40729   4.223   7.302   7.354 -2.2167 -0.0312  0.2947
  309MOL0     H40730   4.377   7.292   7.461  0.4853 -0.5034  1.5956
  309MOL0     H40731   4.090   7.308   7.575  0.1064  0.6763 -1.2891
  309MOL0     H40732   4.235   7.308   7.656 -2.5466  1.0464  1.8432
  309MOL0     H40733   4.295   7.537   7.553 -0.3743  0.8260  3.6688
  309MOL0     H40734   4.167   7.541   7.662  1.7075  2.1165 -0.2727
  309MOL0     H40735   4.123   7.515   7.354  1.7243  0.6759  0.7388
  309MOL0     H40736   4.155   7.663   7.445  2.7186 -0.7362 -0.2352
  309MOL0     H40737   3.946   7.471   7.535  0.2749  0.0829 -1.0170
  309MOL0     H40738   3.934   7.641   7.553  0.9139 -0.3559  0.2302
  309MOL0     H40739   3.768   7.591   7.385  0.6388 -0.8683  3.2768
  309MOL0     H40740   3.891   7.499   7.290  1.5094  2.2243 -1.7260
  309MOL0     H40741   4.064   7.650   7.142 -1.4001 -2.4932  1.3035
  309MOL0     H40742   3.940   7.981   6.977 -2.2321 -0.7843  3.3039
  309MOL0     H40743   4.002   7.829   6.921 -0.3240 -0.3921  1.3452
  309MOL0     H40744   4.230   7.871   7.047  1.3380  0.8547  0.7775
  309MOL0     H40745   4.173   8.038   7.082 -1.7320 -0.3911 -0.0495
  309MOL0     H40746   4.319   8.029   6.895 -0.0234 -3.2808  1.7402
  309MOL0     H40747   4.210   7.924   6.800  2.3220  0.2339 -1.1614
  309MOL0     H40748   4.173   8.214   6.893  3.1752 -0.1129 -0.4853
  309MOL0     H40749   4.041   8.107   6.838  0.3299 -2.7468 -0.8766
  309MOL0     H40750   4.384   8.285   6.894 -0.2353 -0.9792 -0.0065
  309MOL0     H40751   4.562   8.407   6.833  1.3982  1.1423 -0.8390
  309MOL0     H40752   4.624   8.796   6.545 -0.2006 -0.9441 -1.6592
  309MOL0     H40753   4.764   8.981   6.494  1.0969 -1.5155 -3.1903
  309MOL0     H40754   4.912   9.137   6.623 -1.3045  2.4492 -1.1093
  309MOL0     H40755   4.976   9.170   6.465 -1.3497 -1.3995  0.2781
  309MOL0     H40756   5.216   9.159   6.571 -0.3538 -4.0228  0.6949
  309MOL0     H40757   5.132   9.133   6.717  2.3157 -0.2571  0.0873
  309MOL0     H40758   4.997   9.365   6.677  0.5938 -0.1198 -0.2033
  309MOL0     H40759   5.131   9.391   6.558 -0.3576 -0.6546 -0.9482
  309MOL0     H40760   5.141   9.482   6.803 -2.4487 -1.6378  1.1428
  309MOL0     H40761   5.203   9.322   6.836 -0.4615  1.5498  1.0417
  309MOL0     H40762   5.317   9.525   6.658 -1.1282 -0.2737  1.9915
  309MOL0     H40763   5.372   9.354   6.628  1.1794 -0.2731  1.0291
  309MOL0     H40764   5.410   9.476   6.899 -0.2195 -0.8407  1.0978
  309MOL0     H40765   5.531   9.479   6.757 -3.0558 -0.2583 -5.2828
  309MOL0     H40766   5.398   9.224   6.861 -1.2181  1.9257  0.5373
  309MOL0     H40767   5.552   9.256   6.771  4.2491  3.2794  1.9658
  309MOL0     H40768   5.649   9.372   6.964 -0.8106  2.4264  2.8417
  309MOL0     H40769   5.614   9.201   6.988  0.7814  0.7315 -0.6687
  309MOL0     H40770   5.092   8.790   6.698  0.0072  0.8342  2.4071
  309MOL0     H40771   4.947   8.593   6.743 -0.6240 -0.4930 -2.0518
  309MOL0     H40772   4.445   8.414   6.426  2.9337  0.7190 -0.1474
  309MOL0     H40773   4.284   8.248   6.460  0.7523 -0.0363  0.0699
  309MOL0     H40774   4.723   7.186   7.560  1.7828  0.3745 -0.5101
  309MOL0     H40775   4.859   7.136   7.389 -0.4539  0.9681 -3.2421
  309MOL0     H40776   4.783   6.844   6.962 -0.3681  1.3371  0.2459
  309MOL0     H40777   4.887   6.671   6.810 -0.1376  0.4956  0.6328
  309MOL0     H40778   5.313   6.644   6.732 -1.7418 -1.2931  2.3355
  309MOL0     H40779   5.254   6.784   6.629 -2.5152  1.2155  2.8388
  309MOL0     H40780   5.255   6.487   6.540  1.1080  0.3379 -1.0947
  309MOL0     H40781   5.142   6.595   6.484  1.1072 -2.2622 -1.6489
  309MOL0     H40782   5.454   6.621   6.452  0.6779  2.7620  1.3889
  309MOL0     H40783   5.362   6.764   6.450 -2.8508 -0.2040  0.5423
  309MOL0     H40784   5.325   6.528   6.267  2.1960  0.0900 -3.4056
  309MOL0     H40785   5.223   6.670   6.246 -0.1001  1.1698 -3.0898
  309MOL0     H40786   5.563   6.788   6.041 -1.7212  1.1483  0.3611
  309MOL0     H40787   5.283   6.856   6.882 -0.0269  1.1498  0.1113
  309MOL0     H40788   5.191   6.983   7.058  0.1096 -3.0137  2.8811
  310MOL0     O40789  10.420   1.196   4.110 -0.4753  0.9377  0.2988
  310MOL0     C40790  10.372   1.303   4.069 -0.3282  0.6607  0.6158
  310MOL0     O40791  10.250   1.361   4.098 -0.1170  0.1134  0.0545
  310MOL0     C40792  10.153   1.296   4.171  0.4946 -0.8607  0.8854
  310MOL0     C40793  10.042   1.368   4.195 -0.2925 -0.1255  1.0171
  310MOL0     C40794   9.935   1.321   4.265 -0.5553  0.0787 -0.5000
  310MOL0     C40795   9.943   1.202   4.330 -0.2563  0.2781  0.0561
  310MOL0     O40796   9.833   1.175   4.404 -0.0921  0.7372 -0.6759
  310MOL0     C40797   9.754   1.074   4.346 -0.0780  0.0035  0.2503
  310MOL0     C40798   9.746   0.945   4.429 -0.1091  0.1307  0.9592
  310MOL0     C40799   9.646   0.951   4.553 -0.5333 -1.1881 -1.1204
  310MOL0     C40800   9.505   0.948   4.500  0.6536  0.4101  0.0883
  310MOL0     C40801   9.416   0.947   4.622  0.7552  0.2281 -0.4248
  310MOL0     C40802   9.396   0.810   4.666 -1.2069 -0.3037 -0.0389
  310MOL0     C40803   9.305   0.794   4.777  0.0326 -0.0493 -0.7394
  310MOL0     C40804   9.286   0.639   4.800  0.2870 -0.4803  0.0571
  310MOL0     N40805   9.260   0.611   4.943  0.4488  0.3430  0.5173
  310MOL0     C40806   9.134   0.589   4.992 -0.3665  0.1589 -0.1488
  310MOL0     C40807   9.146   0.562   5.118  0.1828  0.1685 -0.5555
  310MOL0     C40808   9.023   0.508   5.196 -0.2146 -0.6336 -0.4621
  310MOL0     C40809   9.041   0.542   5.349  0.2336 -0.1935  0.1582
  310MOL0     C40810   8.994   0.681   5.401  0.2132 -1.0047  0.0493
  310MOL0     C40811   9.052   0.804   5.333 -0.8367  0.6776  0.2482
  310MOL0     O40812   9.004   0.831   5.195  1.0367  0.9503 -0.0603
  310MOL0     C40813   9.054   0.916   5.111  0.1790 -0.4614 -0.4765
  310MOL0     C40814   9.187   0.960   5.104 -0.7433  0.4082 -0.3911
  310MOL0     C40815   9.232   1.041   4.995 -0.8548  0.3150 -0.2679
  310MOL0     C40816   9.149   1.095   4.906  0.1251  0.0102 -0.1230
  310MOL0     C40817   9.199   1.196   4.808 -1.1379  0.2874  0.3539
  310MOL0     O40818   9.323   1.249   4.832 -0.0943 -0.4038  0.3774
  310MOL0     C40819   9.382   1.336   4.740 -0.7705 -0.5195 -0.2737
  310MOL0     C40820   9.476   1.431   4.785  0.0741  0.5486 -1.2968
  310MOL0     C40821   9.554   1.497   4.689  0.0831  0.2655  0.1055
  310MOL0     C40822   9.544   1.469   4.554 -0.2568 -0.9827  1.2001
  310MOL0     O40823   9.626   1.541   4.463  0.4099 -0.4647 -0.1423
  310MOL0     C40824   9.582   1.575   4.333  0.2284 -0.7464 -1.3193
  310MOL0     C40825   9.463   1.676   4.331 -0.8090 -0.1791 -0.4395
  310MOL0     C40826   9.497   1.795   4.422  0.4270 -0.1297 -0.0640
  310MOL0     C40827   9.383   1.904   4.393  0.3254  0.1282 -0.8344
  310MOL0     C40828   9.348   1.980   4.521  0.6776 -0.5379  0.0965
  310MOL0     C40829   9.243   2.093   4.495 -1.5234  0.5859  1.4336
  310MOL0     C40830   9.204   2.147   4.633 -0.9879 -0.5756 -0.1793
  310MOL0     C40831   9.086   2.241   4.624  0.3387  0.0507 -0.4148
  310MOL0    Cl40832   9.131   2.379   4.521  0.6005  0.1309 -0.1797
  310MOL0     C40833   9.446   1.380   4.504 -0.5241  0.6380  0.9925
  310MOL0     C40834   9.371   1.313   4.605  0.7210 -0.8533  0.2121
  310MOL0     O40835   9.112   1.236   4.724 -0.1886 -1.1092 -0.5620
  310MOL0     C40836   9.013   1.059   4.918 -0.7673  0.3156  0.3048
  310MOL0     C40837   8.965   0.965   5.017  0.1255  0.2024 -0.3482
  310MOL0     N40838   9.278   0.581   5.157 -0.3115  0.3265 -0.2581
  310MOL0     N40839   9.345   0.610   5.049 -0.3925  0.3618  0.9051
  310MOL0     C40840  10.051   1.118   4.299 -0.9111  1.0753  0.0868
  310MOL0     C40841  10.154   1.163   4.218 -0.4283  0.5346  0.1612
  310MOL0     C40842  10.473   1.386   3.993 -0.6229  0.2067  0.5166
  310MOL0     C40843  10.455   1.526   3.981  0.4981 -0.3749  0.5040
  310MOL0     C40844  10.549   1.603   3.910  0.3300  0.1490  0.4252
  310MOL0     C40845  10.665   1.551   3.854  0.0185  0.1301  0.4987
  310MOL0     O40846  10.750   1.641   3.790 -0.1111 -0.5077 -1.0007
  310MOL0     C40847  10.846   1.714   3.864  0.3061 -0.1906 -0.4051
  310MOL0     C40848  10.959   1.623   3.917  0.2558 -0.0296  0.4226
  310MOL0     C40849  11.031   1.553   3.798  0.2534 -0.4760  0.7293
  310MOL0     C40850  11.096   1.653   3.712  0.0884 -0.0881  0.6689
  310MOL0     C40851  11.188   1.739   3.795 -0.2270  0.9176 -0.1040
  310MOL0     C40852  11.276   1.778   3.860  0.0100 -1.2317  1.1181
  310MOL0     C40853  10.671   1.409   3.850 -0.1122 -0.0521 -0.3488
  310MOL0     C40854  10.582   1.329   3.929 -0.8958 -1.2573  0.4170
  310MOL0     H40855  10.020   1.466   4.153  0.1142 -0.2423  0.5229
  310MOL0     H40856   9.844   1.380   4.275 -1.4718 -0.9956 -2.1228
  310MOL0     H40857   9.791   1.047   4.247  0.3636 -0.6688  0.5902
  310MOL0     H40858   9.650   1.104   4.328 -0.4905 -1.5133  0.0351
  310MOL0     H40859   9.851   0.924   4.452  0.1623  0.5893  0.1671
  310MOL0     H40860   9.714   0.859   4.369 -1.1092 -1.7742  3.9726
  310MOL0     H40861   9.670   1.045   4.605  0.7589 -2.7491  1.3187
  310MOL0     H40862   9.666   0.865   4.618 -3.3120  1.2420  3.4953
  310MOL0     H40863   9.475   1.029   4.433 -0.9370  2.0422  2.5709
  310MOL0     H40864   9.490   0.858   4.441 -0.6339  1.0846 -0.6595
  310MOL0     H40865   9.319   0.985   4.589 -0.6454 -0.4418  2.5705
  310MOL0     H40866   9.455   1.014   4.699  0.7022 -1.1206  0.8339
  310MOL0     H40867   9.498   0.783   4.695 -0.3184  0.5419 -2.2132
  310MOL0     H40868   9.368   0.749   4.580 -1.2989 -1.4782  0.7975
  310MOL0     H40869   9.340   0.840   4.870  1.9079  0.7016 -1.7568
  310MOL0     H40870   9.209   0.839   4.753 -0.0355 -0.7373 -1.8658
  310MOL0     H40871   9.375   0.583   4.770  0.3320  0.7265 -2.3046
  310MOL0     H40872   9.201   0.601   4.741 -1.6474 -1.3054  3.1458
  310MOL0     H40873   9.048   0.579   4.927 -1.0290  0.9321  0.5993
  310MOL0     H40874   9.022   0.399   5.194  1.0614 -0.6696  0.0220
  310MOL0     H40875   8.927   0.547   5.160 -1.6403 -1.9549  1.6491
  310MOL0     H40876   9.144   0.519   5.379  0.2990  2.9167  2.8855
  310MOL0     H40877   8.983   0.475   5.412 -0.7637  2.8951  2.8143
  310MOL0     H40878   8.886   0.686   5.387  0.5436 -0.1947 -2.9242
  310MOL0     H40879   9.007   0.681   5.509  0.3688 -1.7860  0.0366
  310MOL0     H40880   9.159   0.779   5.328 -1.3707 -2.2764  1.3646
  310MOL0     H40881   9.039   0.892   5.396  0.3582  0.0446  1.4370
  310MOL0     H40882   9.261   0.921   5.173  0.4024  1.3629 -1.0247
  310MOL0     H40883   9.333   1.080   4.995  0.1376 -1.8419  3.4506
  310MOL0     H40884   9.482   1.452   4.891  0.2309  1.8139 -1.5411
  310MOL0     H40885   9.622   1.570   4.730  0.3712  0.1486 -0.1606
  310MOL0     H40886   9.563   1.488   4.271  3.0314 -1.2886 -1.5509
  310MOL0     H40887   9.676   1.616   4.295  2.7735 -1.8034  3.0774
  310MOL0     H40888   9.367   1.637   4.366 -0.8847 -1.6740 -2.1276
  310MOL0     H40889   9.446   1.705   4.227 -0.4016  0.2844 -0.3804
  310MOL0     H40890   9.597   1.833   4.400  1.5213 -1.3028  2.4850
  310MOL0     H40891   9.491   1.760   4.525  0.6548  4.5981  1.7775
  310MOL0     H40892   9.417   1.969   4.312  0.2435  1.1705 -0.0440
  310MOL0     H40893   9.286   1.861   4.366 -1.7635  3.3960  0.8017
  310MOL0     H40894   9.450   2.015   4.543  0.4943  1.4396 -1.8619
  310MOL0     H40895   9.310   1.914   4.600 -0.7526  0.4000  0.2250
  310MOL0     H40896   9.157   2.045   4.447 -0.3673  0.0996 -0.2391
  310MOL0     H40897   9.282   2.172   4.431 -2.5165  0.5050  0.6956
  310MOL0     H40898   9.185   2.061   4.698  0.6735 -2.1691 -1.6903
  310MOL0     H40899   9.291   2.201   4.671 -0.5217 -1.1371 -0.4248
  310MOL0     H40900   9.072   2.271   4.728 -0.0519 -0.7008 -0.2404
  310MOL0     H40901   9.001   2.191   4.576  1.3935 -1.1164 -1.1190
  310MOL0     H40902   9.429   1.356   4.400 -0.3153  0.6631  0.9517
  310MOL0     H40903   9.293   1.251   4.562 -0.1299  0.6270 -0.4664
  310MOL0     H40904   8.948   1.107   4.845 -0.6012  1.0229  0.6182
  310MOL0     H40905   8.864   0.928   5.023  1.4198 -3.5055  1.9100
  310MOL0     H40906  10.059   1.023   4.351  0.9690  1.1399 -0.0497
  310MOL0     H40907  10.230   1.089   4.195 -3.0687 -2.1249 -0.4942
  310MOL0     H40908  10.378   1.588   4.025 -0.7405  0.9198 -3.1454
  310MOL0     H40909  10.541   1.711   3.913  2.5035  0.4928 -2.1419
  310MOL0     H40910  10.792   1.766   3.944 -0.1458 -1.2878  0.0418
  310MOL0     H40911  10.886   1.788   3.795 -0.8661 -0.1763 -1.0943
  310MOL0     H40912  11.030   1.670   3.985  0.9381 -0.7535  0.2240
  310MOL0     H40913  10.903   1.547   3.972  1.0122 -0.3292  0.7944
  310MOL0     H40914  10.968   1.488   3.736 -0.1625  0.6964 -0.1299
  310MOL0     H40915  11.112   1.487   3.831  0.4713 -0.4005  0.3626
  310MOL0     H40916  11.161   1.594   3.646 -0.9260 -0.0856 -0.3744
  310MOL0     H40917  11.030   1.719   3.655 -0.5057  1.5393  3.0776
  310MOL0     H40918  11.353   1.813   3.927  0.9454 -1.4713  0.1919
  310MOL0     H40919  10.753   1.365   3.794  4.5677  5.1554  1.5843
  310MOL0     H40920  10.598   1.222   3.937 -0.1285 -1.2011 -0.2854
  311MOL0     O40921   0.453   8.791  11.179 -0.5437  0.3882 -0.1376
  311MOL0     C40922   0.527   8.708  11.241  1.4320 -0.7317  0.4208
  311MOL0     O40923   0.551   8.583  11.202 -0.2865  0.6494  0.0835
  311MOL0     C40924   0.480   8.500  11.120 -0.1180  0.2895  0.1199
  311MOL0     C40925   0.515   8.365  11.134  0.0223  0.6988 -0.1874
  311MOL0     C40926   0.474   8.267  11.032  0.1429  0.7225 -0.1366
  311MOL0     C40927   0.391   8.309  10.922  0.7897  0.1864 -0.3005
  311MOL0     O40928   0.363   8.211  10.833 -0.0912 -0.3460  1.0531
  311MOL0     C40929   0.378   8.245  10.692 -0.8992 -1.1201 -0.5840
  311MOL0     C40930   0.354   8.116  10.610 -0.3405 -0.4434 -0.8294
  311MOL0     C40931   0.481   8.027  10.620  0.0090 -0.0254 -0.6513
  311MOL0     C40932   0.473   7.911  10.522  0.6006 -0.4477 -0.5649
  311MOL0     C40933   0.487   7.968  10.380  0.3847  0.4745  0.7682
  311MOL0     C40934   0.497   7.859  10.260 -0.5946  0.1239 -0.6141
  311MOL0     C40935   0.610   7.759  10.276 -0.4457 -0.1245  0.7694
  311MOL0     C40936   0.638   7.692  10.143  0.1587 -0.0056 -0.0105
  311MOL0     N40937   0.779   7.648  10.145 -0.3514  0.6588  0.1601
  311MOL0     C40938   0.873   7.744  10.157 -0.5120  0.3722  0.4499
  311MOL0     C40939   0.986   7.669  10.158 -0.9747  0.9217  0.0822
  311MOL0     C40940   1.134   7.713  10.181  0.6003 -0.0547  0.5708
  311MOL0     C40941   1.196   7.713  10.323  1.0025 -1.3603  0.5388
  311MOL0     C40942   1.087   7.774  10.421 -0.5116  0.1456 -0.8925
  311MOL0     C40943   1.139   7.780  10.563  0.5199  0.1687 -0.9587
  311MOL0     O40944   1.057   7.881  10.637 -0.8535 -0.0366 -0.1049
  311MOL0     C40945   1.112   7.998  10.686 -0.6023 -0.1249 -0.7867
  311MOL0     C40946   1.031   8.107  10.679  0.2711 -0.6527  1.0387
  311MOL0     C40947   1.076   8.228  10.747  0.1386  0.5837  0.2009
  311MOL0     C40948   1.191   8.226  10.831  0.5074  0.1329  0.4428
  311MOL0     C40949   1.247   8.344  10.902 -0.7154 -0.4943 -0.0774
  311MOL0     O40950   1.356   8.321  10.980  0.0317  0.2174 -0.0948
  311MOL0     C40951   1.420   8.427  11.043  0.2107  0.7276 -0.9040
  311MOL0     C40952   1.407   8.428  11.184  0.5188 -0.7865 -1.5647
  311MOL0     C40953   1.491   8.534  11.245 -0.1052 -0.0625 -0.2877
  311MOL0     C40954   1.556   8.633  11.176 -0.1385  0.4021  0.3165
  311MOL0     O40955   1.617   8.733  11.248  0.4095 -0.4887 -0.1031
  311MOL0     C40956   1.743   8.792  11.209 -0.8610  1.0224 -0.7813
  311MOL0     C40957   1.850   8.704  11.275 -0.1825 -0.4506 -0.1641
  311MOL0     C40958   1.821   8.681  11.430 -0.3048 -0.9945 -0.2669
  311MOL0     C40959   1.945   8.625  11.500 -0.3403 -0.4037 -0.3949
  311MOL0     C40960   1.957   8.628  11.655  0.7091 -0.0937  0.5498
  311MOL0     C40961   1.856   8.527  11.717  0.2654  0.5581 -0.3220
  311MOL0     C40962   1.902   8.492  11.867  0.6112 -0.6071 -0.7997
  311MOL0     C40963   1.804   8.401  11.941  0.1074  0.3224  0.7957
  311MOL0    Cl40964   1.803   8.220  11.897 -0.0842 -0.2054  0.4532
  311MOL0     C40965   1.558   8.620  11.037  0.9186 -0.5693  0.3027
  311MOL0     C40966   1.490   8.521  10.971  0.2442  0.4802  0.2773
  311MOL0     O40967   1.191   8.455  10.881 -0.8235  0.6678  0.3816
  311MOL0     C40968   1.254   8.103  10.840 -1.0345  0.1826 -0.1813
  311MOL0     C40969   1.227   7.997  10.765 -0.2720 -0.3335 -0.4469
  311MOL0     N40970   0.955   7.536  10.167  0.0802  0.0442  0.2399
  311MOL0     N40971   0.829   7.523  10.151 -0.0224 -1.0410  0.2786
  311MOL0     C40972   0.351   8.449  10.917 -0.6676  0.0441  0.2079
  311MOL0     C40973   0.395   8.538  11.008 -0.0298  0.2239 -0.2994
  311MOL0     C40974   0.588   8.762  11.374 -0.8428  0.1433 -0.0223
  311MOL0     C40975   0.636   8.671  11.469  0.3616 -0.1230 -0.2019
  311MOL0     C40976   0.707   8.710  11.582  0.4835 -0.0710 -0.3765
  311MOL0     C40977   0.731   8.848  11.603 -0.3412 -0.1029 -0.1625
  311MOL0     O40978   0.817   8.878  11.704  0.0167 -0.3263 -0.4219
  311MOL0     C40979   0.816   9.006  11.769 -0.1255 -0.6859  0.2348
  311MOL0     C40980   0.907   9.017  11.875  0.4247 -0.3391  1.1623
  311MOL0     C40981   0.906   9.166  11.937  0.5967  0.8023 -0.0597
  311MOL0     C40982   0.998   9.188  12.060  0.4446 -0.7862 -0.0466
  311MOL0     C40983   0.977   9.090  12.163 -0.1871 -1.4067 -0.8592
  311MOL0     C40984   0.965   9.006  12.246 -0.0745 -0.0601  0.1885
  311MOL0     C40985   0.672   8.946  11.524 -0.1609 -1.4501  0.1427
  311MOL0     C40986   0.604   8.893  11.411  2.0569  0.1106  0.2451
  311MOL0     H40987   0.588   8.342  11.211  0.3539  2.1697 -0.0422
  311MOL0     H40988   0.503   8.163  11.039 -3.0286 -0.2494  0.5566
  311MOL0     H40989   0.479   8.279  10.670 -1.4744 -0.0445 -1.6306
  311MOL0     H40990   0.307   8.322  10.660 -0.1943 -0.6907 -1.1367
  311MOL0     H40991   0.328   8.149  10.509  0.5436 -0.1690 -0.9753
  311MOL0     H40992   0.268   8.062  10.651 -0.6711 -0.1633 -1.1477
  311MOL0     H40993   0.493   7.985  10.720 -0.6417  0.5079 -0.3379
  311MOL0     H40994   0.570   8.087  10.601  1.4955 -1.8566  0.2746
  311MOL0     H40995   0.562   7.854  10.550  1.2854  0.6256 -0.4652
  311MOL0     H40996   0.377   7.860  10.536  0.6174 -0.2865  0.1867
  311MOL0     H40997   0.574   8.033  10.366 -1.5127  2.7692 -1.4794
  311MOL0     H40998   0.396   8.027  10.366  0.4666  0.1339 -1.6386
  311MOL0     H40999   0.516   7.921  10.172 -1.1909  0.6425 -0.3857
  311MOL0     H41000   0.406   7.801  10.246  0.0518 -0.8901 -0.6922
  311MOL0     H41001   0.696   7.809  10.322  1.1164 -3.1778  1.4573
  311MOL0     H41002   0.585   7.672  10.338  3.6071 -2.6574 -0.7171
  311MOL0     H41003   0.626   7.762  10.059  1.8205  0.3668  0.0185
  311MOL0     H41004   0.575   7.603  10.138 -1.2434  0.7562  2.6230
  311MOL0     H41005   0.871   7.852  10.164  3.5589  0.6319 -0.4075
  311MOL0     H41006   1.136   7.815  10.143 -1.6962 -1.4904 -4.2443
  311MOL0     H41007   1.203   7.656  10.118 -0.7048  1.1787 -2.1411
  311MOL0     H41008   1.290   7.768  10.318  0.0322  0.7682  3.0564
  311MOL0     H41009   1.223   7.611  10.348 -2.5097 -1.6447  4.2781
  311MOL0     H41010   1.052   7.874  10.394  0.8126  0.4581 -1.5722
  311MOL0     H41011   1.003   7.706  10.433  0.1596 -0.6602 -0.7082
  311MOL0     H41012   1.246   7.803  10.568  0.8198 -1.3135  2.7323
  311MOL0     H41013   1.121   7.683  10.610  1.9282  0.1202 -0.4829
  311MOL0     H41014   0.928   8.090  10.649  0.1580  0.8546  0.5133
  311MOL0     H41015   1.018   8.318  10.758  0.8754  1.7881 -4.0446
  311MOL0     H41016   1.367   8.348  11.245  0.6427  0.3396  0.0703
  311MOL0     H41017   1.498   8.528  11.353  0.5529 -0.2673 -0.3373
  311MOL0     H41018   1.759   8.900  11.211  0.7226  0.8002  0.2371
  311MOL0     H41019   1.765   8.778  11.102 -0.4519 -3.2908 -0.3283
  311MOL0     H41020   1.947   8.753  11.264 -0.0172 -1.3076 -3.3356
  311MOL0     H41021   1.860   8.603  11.236 -0.1650 -0.8911  0.9426
  311MOL0     H41022   1.733   8.617  11.426 -1.0225 -0.1793  1.2577
  311MOL0     H41023   1.774   8.774  11.464  2.3819  0.5279 -0.4303
  311MOL0     H41024   1.964   8.522  11.468 -0.7190 -0.9042  0.9362
  311MOL0     H41025   2.031   8.684  11.469 -1.5120  1.8485  0.4127
  311MOL0     H41026   1.929   8.733  11.673  0.1521 -0.3351  1.1500
  311MOL0     H41027   2.056   8.603  11.694 -0.2540 -0.9276  2.6320
  311MOL0     H41028   1.850   8.435  11.658  0.2937 -1.4047  2.5178
  311MOL0     H41029   1.759   8.576  11.726  0.3467  0.3722  2.0728
  311MOL0     H41030   1.988   8.425  11.874 -0.3189 -1.6743  2.6375
  311MOL0     H41031   1.923   8.582  11.926 -3.1346  0.3772 -0.7144
  311MOL0     H41032   1.707   8.449  11.925  0.5257  0.2743 -2.5635
  311MOL0     H41033   1.828   8.406  12.048  0.2397 -0.2827  0.7977
  311MOL0     H41034   1.603   8.697  10.975 -2.3653  0.9335 -0.4349
  311MOL0     H41035   1.486   8.527  10.863 -1.9617  1.7970  0.3764
  311MOL0     H41036   1.330   8.097  10.918 -1.7025 -0.8784  0.4043
  311MOL0     H41037   1.283   7.905  10.770  0.5487  0.0315 -2.3080
  311MOL0     H41038   0.301   8.486  10.827  0.2440  1.9456  0.4398
  311MOL0     H41039   0.363   8.641  10.992 -2.0623  0.0055  1.9060
  311MOL0     H41040   0.616   8.567  11.447  3.0262 -0.1752 -3.1404
  311MOL0     H41041   0.734   8.631  11.651 -4.3746 -1.6541  0.0904
  311MOL0     H41042   0.711   9.010  11.802 -0.6922 -2.7616 -1.1153
  311MOL0     H41043   0.832   9.093  11.704 -0.8672 -0.0262  0.9106
  311MOL0     H41044   0.871   8.949  11.953 -2.4742  2.4009  2.4201
  311MOL0     H41045   1.010   8.996  11.843 -0.2491 -2.3008  0.1184
  311MOL0     H41046   0.803   9.180  11.973 -0.5777 -1.2853 -2.2828
  311MOL0     H41047   0.927   9.237  11.857  1.3185 -0.7623 -1.3247
  311MOL0     H41048   1.101   9.186  12.023  0.5244  2.0975 -0.2087
  311MOL0     H41049   0.986   9.289  12.099 -1.8649 -1.0746  0.1596
  311MOL0     H41050   0.948   8.920  12.307  3.3032  0.4248  2.0433
  311MOL0     H41051   0.687   9.053  11.535  1.2826 -1.5304 -0.7534
  311MOL0     H41052   0.556   8.958  11.338 -2.6653 -3.7451 -0.6385
  312MOL0     O41053   3.976   7.181   3.036  1.3246 -0.0545 -0.0659
  312MOL0     C41054   3.857   7.173   3.036  1.1496 -1.0290 -0.4971
  312MOL0     O41055   3.778   7.094   2.961 -0.2867 -0.3681 -1.1040
  312MOL0     C41056   3.830   6.984   2.899  0.6770  0.5913  0.0044
  312MOL0     C41057   3.785   6.967   2.759 -0.5462 -0.2642 -0.2157
  312MOL0     C41058   3.829   6.864   2.677  0.0847  0.2321  0.1152
  312MOL0     C41059   3.932   6.776   2.726 -0.2595 -0.9284 -0.3097
  312MOL0     O41060   3.990   6.677   2.661  0.1438  0.2133  0.1725
  312MOL0     C41061   3.957   6.634   2.534  0.9879 -0.0737 -0.4935
  312MOL0     C41062   3.997   6.493   2.519  0.2064  0.9313 -0.5406
  312MOL0     C41063   3.959   6.423   2.388 -0.5721  0.7648 -0.6156
  312MOL0     C41064   4.011   6.273   2.382  1.0717 -0.4991  0.3191
  312MOL0     C41065   4.160   6.266   2.392 -0.3327  0.6560  0.8392
  312MOL0     C41066   4.211   6.319   2.250 -0.0804 -0.0868 -0.1323
  312MOL0     C41067   4.291   6.458   2.259  0.7696  0.4411  0.2088
  312MOL0     C41068   4.443   6.435   2.238  1.1696  0.2230  0.8559
  312MOL0     N41069   4.495   6.404   2.369  0.0852 -0.0124 -0.1656
  312MOL0     C41070   4.503   6.277   2.420  1.3123 -0.1795  0.5981
  312MOL0     C41071   4.558   6.300   2.544 -0.0514  0.7980 -0.4992
  312MOL0     C41072   4.598   6.199   2.648  0.0000  0.2067  0.1429
  312MOL0     C41073   4.754   6.155   2.637  0.8014 -0.2781 -0.8553
  312MOL0     C41074   4.776   6.055   2.531 -0.6460 -0.0542  0.4522
  312MOL0     C41075   4.920   5.998   2.510 -0.4691 -0.2947 -0.2646
  312MOL0     O41076   4.990   5.954   2.634  0.4304 -0.1162  0.1693
  312MOL0     C41077   5.121   5.929   2.632  0.0773 -0.3649 -0.1048
  312MOL0     C41078   5.175   5.875   2.751  0.1134 -1.4004 -0.0842
  312MOL0     C41079   5.311   5.831   2.757  1.0412  0.8626 -0.2828
  312MOL0     C41080   5.386   5.832   2.643 -0.7072 -0.5076  0.1421
  312MOL0     C41081   5.530   5.787   2.654 -0.5595 -0.5987  0.1221
  312MOL0     O41082   5.604   5.805   2.765 -0.3365  0.0002 -0.3415
  312MOL0     C41083   5.732   5.758   2.761  0.2180 -0.5084 -0.3844
  312MOL0     C41084   5.828   5.840   2.700 -0.3100 -1.3987  0.5045
  312MOL0     C41085   5.969   5.806   2.713  0.3514 -0.1252 -0.3572
  312MOL0     C41086   6.001   5.682   2.767  0.4823  0.5345  0.1472
  312MOL0     O41087   6.127   5.637   2.800  0.8127  0.2960 -0.7566
  312MOL0     C41088   6.230   5.725   2.844  0.5737  0.9989 -0.2673
  312MOL0     C41089   6.365   5.657   2.871  0.2275 -0.1221  0.4117
  312MOL0     C41090   6.392   5.597   3.006  0.5453  0.2384 -0.3076
  312MOL0     C41091   6.542   5.553   3.024 -0.0112 -0.0654  1.6282
  312MOL0     C41092   6.564   5.436   3.110 -0.7209  0.0712  0.0000
  312MOL0     C41093   6.702   5.360   3.095 -0.0108 -0.5005  0.2506
  312MOL0     C41094   6.713   5.239   3.178  0.2540 -0.7803  0.0031
  312MOL0     C41095   6.739   5.273   3.328  0.3174 -1.0663  0.6936
  312MOL0    Cl41096   6.909   5.325   3.351 -0.1936 -0.1773  0.0316
  312MOL0     C41097   5.899   5.594   2.793  0.8690  0.5554 -0.8428
  312MOL0     C41098   5.767   5.629   2.805 -0.0231 -0.6028  0.8625
  312MOL0     O41099   5.565   5.734   2.551 -0.4886 -0.5832  0.2155
  312MOL0     C41100   5.331   5.890   2.522  0.3119  0.7695  0.2752
  312MOL0     C41101   5.197   5.934   2.516  0.7902  0.9444  0.8016
  312MOL0     N41102   4.581   6.431   2.556  0.4294 -0.5003  0.6476
  312MOL0     N41103   4.554   6.497   2.445 -0.9879 -0.2481 -0.1715
  312MOL0     C41104   3.984   6.798   2.863 -0.4044  0.8584  0.2276
  312MOL0     C41105   3.925   6.899   2.947 -0.1863  0.4560  0.3593
  312MOL0     C41106   3.799   7.291   3.099  0.4886  0.2779 -0.9229
  312MOL0     C41107   3.865   7.385   3.185 -1.1823  0.2020  0.1028
  312MOL0     C41108   3.810   7.487   3.258 -0.3610 -0.2734  0.2952
  312MOL0     C41109   3.670   7.503   3.245  0.3152  0.1289 -1.0766
  312MOL0     O41110   3.617   7.608   3.315  0.8535 -0.0859  0.5487
  312MOL0     C41111   3.539   7.562   3.430  0.0463 -0.7381 -0.4054
  312MOL0     C41112   3.443   7.662   3.496  0.4950 -0.4839  1.1770
  312MOL0     C41113   3.387   7.621   3.620 -0.8506  1.1699 -0.1994
  312MOL0     C41114   3.311   7.745   3.674  0.8642  0.0509 -0.4658
  312MOL0     C41115   3.200   7.716   3.771 -0.2952 -1.5840 -0.0725
  312MOL0     C41116   3.109   7.682   3.836  0.1953  0.2148  0.0985
  312MOL0     C41117   3.593   7.415   3.163  0.0743 -0.3859  0.1838
  312MOL0     C41118   3.659   7.316   3.098 -0.0880  0.7378 -0.7631
  312MOL0     H41119   3.704   7.027   2.720  0.7425  0.2145 -2.3110
  312MOL0     H41120   3.788   6.861   2.576  0.5575  1.4540 -0.1332
  312MOL0     H41121   4.001   6.696   2.455  1.6797  1.4962  1.0263
  312MOL0     H41122   3.849   6.638   2.515  1.0038 -0.1608 -0.6025
  312MOL0     H41123   3.947   6.433   2.595 -0.6068 -0.2818 -1.9738
  312MOL0     H41124   4.102   6.508   2.545 -0.5165  2.4948  1.8001
  312MOL0     H41125   4.006   6.487   2.312  0.7766  0.7897  0.1946
  312MOL0     H41126   3.851   6.420   2.378 -0.5290 -1.5585 -0.8895
  312MOL0     H41127   3.968   6.219   2.467  2.9576 -0.9383  1.0325
  312MOL0     H41128   3.967   6.210   2.303  0.4497  0.5421 -0.1920
  312MOL0     H41129   4.196   6.163   2.396  0.5285  0.9682  1.4628
  312MOL0     H41130   4.206   6.322   2.474 -0.3440  2.9217 -0.5912
  312MOL0     H41131   4.121   6.330   2.188 -2.6279 -2.3130  2.8329
  312MOL0     H41132   4.276   6.255   2.191  0.3290  0.1256  0.0813
  312MOL0     H41133   4.246   6.518   2.180  0.5491  0.6169  0.4644
  312MOL0     H41134   4.273   6.510   2.354 -1.0375  1.8713 -0.8611
  312MOL0     H41135   4.480   6.528   2.193  0.4123 -0.5916 -1.6204
  312MOL0     H41136   4.461   6.363   2.159 -1.0663  1.3314 -0.7824
  312MOL0     H41137   4.468   6.183   2.378  1.8667  0.1922 -0.7639
  312MOL0     H41138   4.524   6.119   2.657 -3.2961  2.8250 -1.6911
  312MOL0     H41139   4.598   6.246   2.747 -0.7693  3.5690 -1.3293
  312MOL0     H41140   4.783   6.111   2.732  1.0844  2.1170  0.2499
  312MOL0     H41141   4.823   6.240   2.626  2.0338 -0.6463  2.7527
  312MOL0     H41142   4.706   5.971   2.538 -1.0403  0.1580 -0.6775
  312MOL0     H41143   4.758   6.104   2.435 -1.6637 -2.2273 -0.5448
  312MOL0     H41144   4.985   6.072   2.464  0.2347 -1.0254 -0.4673
  312MOL0     H41145   4.911   5.907   2.449  0.0594  0.7277 -1.9059
  312MOL0     H41146   5.116   5.880   2.841  0.7960 -0.7272  0.3346
  312MOL0     H41147   5.334   5.787   2.854 -1.2383  0.1368 -0.0096
  312MOL0     H41148   5.813   5.925   2.634  1.8024 -0.2276  1.4247
  312MOL0     H41149   6.043   5.877   2.678 -1.8914  1.7354 -1.5951
  312MOL0     H41150   6.204   5.776   2.937  1.2272  0.2780  0.3199
  312MOL0     H41151   6.252   5.810   2.779  3.9068  0.9353  0.6064
  312MOL0     H41152   6.441   5.735   2.864  0.4953 -0.2956  1.2718
  312MOL0     H41153   6.387   5.587   2.790  3.4532  1.0525  0.1181
  312MOL0     H41154   6.330   5.508   3.019  1.5899 -0.3529  1.0012
  312MOL0     H41155   6.364   5.676   3.076  0.4029  1.8247 -2.0845
  312MOL0     H41156   6.585   5.532   2.926 -1.8993  0.7777  0.5687
  312MOL0     H41157   6.591   5.643   3.062 -1.1670  1.3782 -0.2045
  312MOL0     H41158   6.487   5.358   3.111  0.6067 -1.2732  0.5770
  312MOL0     H41159   6.576   5.469   3.214 -2.5186 -3.7167  1.5877
  312MOL0     H41160   6.769   5.433   3.142 -2.1895  2.3140 -0.7223
  312MOL0     H41161   6.724   5.350   2.988  2.0035  1.3488  0.4289
  312MOL0     H41162   6.619   5.182   3.173 -1.3925  1.2278  3.4894
  312MOL0     H41163   6.800   5.177   3.156 -0.4165 -1.6525 -0.2698
  312MOL0     H41164   6.723   5.184   3.390 -2.2522 -1.1511  0.0119
  312MOL0     H41165   6.672   5.349   3.369 -0.2296 -1.5780  0.7601
  312MOL0     H41166   5.912   5.495   2.836 -2.3870  0.1825 -0.4463
  312MOL0     H41167   5.682   5.566   2.832  0.0605 -1.0870  0.0379
  312MOL0     H41168   5.393   5.886   2.434  2.7347  0.4022  1.8922
  312MOL0     H41169   5.151   5.958   2.421  2.6033 -0.9483 -0.6442
  312MOL0     H41170   4.061   6.726   2.888  1.6085  0.9248 -4.7274
  312MOL0     H41171   3.966   6.926   3.043  0.7043 -0.0235  0.1246
  312MOL0     H41172   3.970   7.365   3.201 -1.5651 -1.1708  1.0093
  312MOL0     H41173   3.866   7.561   3.314 -0.5531 -2.2537  3.2829
  312MOL0     H41174   3.612   7.533   3.506 -1.9323 -0.9109  1.5110
  312MOL0     H41175   3.491   7.468   3.402 -1.2054 -0.1172 -0.4101
  312MOL0     H41176   3.491   7.759   3.515  0.6618 -0.1637 -0.6961
  312MOL0     H41177   3.365   7.696   3.428  1.5999  1.5807  0.8366
  312MOL0     H41178   3.465   7.579   3.685  0.9836  3.3884 -0.8094
  312MOL0     H41179   3.311   7.546   3.598  0.1403  0.1337 -0.1601
  312MOL0     H41180   3.378   7.825   3.706 -0.5205  1.6092 -1.2953
  312MOL0     H41181   3.249   7.781   3.591  0.5086  0.8694  0.1400
  312MOL0     H41182   3.031   7.654   3.904  3.0786 -0.0989  3.5475
  312MOL0     H41183   3.487   7.429   3.145  0.4469  0.5603 -1.4635
  312MOL0     H41184   3.611   7.243   3.034 -0.8253  2.1226 -1.8265
  313MOL0     O41185   8.196   1.171   5.710  0.4992 -0.4823  0.3693
  313MOL0     C41186   8.198   1.264   5.794 -0.4053  0.9480 -0.4861
  313MOL0     O41187   8.124   1.275   5.911  0.2351 -0.3559 -0.5879
  313MOL0     C41188   8.015   1.189   5.937 -0.1027 -0.9145 -0.3742
  313MOL0     C41189   7.903   1.239   6.000  0.2122 -0.4464  0.9522
  313MOL0     C41190   7.799   1.160   6.034 -1.0151 -0.1223  0.6363
  313MOL0     C41191   7.799   1.022   6.002  1.1993  0.1023  0.1888
  313MOL0     O41192   7.688   0.948   6.025  0.7856  0.1282  0.1329
  313MOL0     C41193   7.612   0.906   5.905 -0.5527  0.1545  0.1755
  313MOL0     C41194   7.642   0.759   5.875 -0.0496 -0.1637  1.3072
  313MOL0     C41195   7.524   0.698   5.789 -0.1673  0.1862  0.7140
  313MOL0     C41196   7.526   0.552   5.770 -0.1306  0.4586  0.2958
  313MOL0     C41197   7.470   0.492   5.649  0.0108  0.4211  0.9322
  313MOL0     C41198   7.321   0.526   5.623 -0.9567 -0.0591  1.1774
  313MOL0     C41199   7.251   0.424   5.533 -0.4624 -0.2792 -0.3831
  313MOL0     C41200   7.126   0.480   5.463  0.1414 -0.4560  0.0673
  313MOL0     N41201   7.041   0.380   5.398  0.1941 -1.1815 -0.6992
  313MOL0     C41202   7.070   0.308   5.287 -0.1374 -0.4461  0.2945
  313MOL0     C41203   6.961   0.231   5.260 -0.6739 -0.0118  0.3827
  313MOL0     C41204   6.938   0.129   5.140 -0.5952  0.0993 -1.1735
  313MOL0     C41205   6.956  -0.015   5.185 -1.0466  0.3703  0.2106
  313MOL0     C41206   6.960  -0.100   5.067  0.2895  0.8749  0.6052
  313MOL0     C41207   6.983  -0.255   5.107 -0.6208  0.1058 -0.9117
  313MOL0     O41208   7.020  -0.324   4.993  0.0756 -0.0512 -0.7976
  313MOL0     C41209   7.045  -0.454   4.994  0.0534  0.1563  0.7084
  313MOL0     C41210   7.098  -0.511   4.871 -1.3129 -0.2188 -0.7440
  313MOL0     C41211   7.121  -0.653   4.862  0.4677 -0.6767  0.0983
  313MOL0     C41212   7.091  -0.734   4.974  0.3521  0.0593 -0.6312
  313MOL0     C41213   7.091  -0.881   4.959  0.0521  0.5709  0.1285
  313MOL0     O41214   7.079  -0.952   5.067 -1.0771  0.1799 -0.6202
  313MOL0     C41215   7.131  -1.083   5.073  0.3791 -0.2524 -1.0485
  313MOL0     C41216   7.077  -1.187   4.998 -0.0200 -0.2889 -0.0662
  313MOL0     C41217   7.140  -1.312   5.000 -0.1211 -0.1275  0.4005
  313MOL0     C41218   7.248  -1.328   5.084 -1.0987  0.8282 -0.8031
  313MOL0     O41219   7.316  -1.446   5.094  0.5959 -0.0065 -0.1540
  313MOL0     C41220   7.257  -1.564   5.043 -0.0335 -0.3906 -0.8492
  313MOL0     C41221   7.342  -1.682   5.096  0.6355  0.0093  0.6919
  313MOL0     C41222   7.270  -1.811   5.074  0.5083  0.4482  0.2403
  313MOL0     C41223   7.333  -1.932   5.152  0.3070 -0.3352 -0.0721
  313MOL0     C41224   7.284  -2.072   5.096  0.0558  0.2874  0.3318
  313MOL0     C41225   7.144  -2.093   5.135  1.3305  0.3422 -0.3468
  313MOL0     C41226   7.105  -2.208   5.233  0.4803 -0.3171 -0.3294
  313MOL0     C41227   7.007  -2.166   5.335  0.0529  0.1046  0.1783
  313MOL0    Cl41228   7.022  -2.015   5.433 -0.0555 -0.1725  0.2360
  313MOL0     C41229   7.303  -1.226   5.165  0.1986 -0.1012 -0.5781
  313MOL0     C41230   7.246  -1.103   5.151 -0.1616  0.4378 -0.8576
  313MOL0     O41231   7.131  -0.930   4.847  0.0047  0.7421  1.3488
  313MOL0     C41232   7.048  -0.673   5.091  1.7212 -1.2798 -0.1763
  313MOL0     C41233   7.027  -0.540   5.100 -0.0753  0.1446 -0.3665
  313MOL0     N41234   6.877   0.232   5.368  0.8917  0.2707 -0.4821
  313MOL0     N41235   6.916   0.333   5.439 -0.5258  0.2195 -0.0651
  313MOL0     C41236   7.914   0.973   5.940  0.6691 -0.3010  0.0820
  313MOL0     C41237   8.019   1.052   5.902 -0.4081 -0.4096 -0.7435
  313MOL0     C41238   8.302   1.366   5.780 -0.0278 -0.7360  0.0358
  313MOL0     C41239   8.343   1.450   5.886 -0.5508  0.1519 -0.3416
  313MOL0     C41240   8.405   1.570   5.848 -0.0570  0.5224  0.3239
  313MOL0     C41241   8.425   1.611   5.723 -0.3110 -0.9415  0.6151
  313MOL0     O41242   8.502   1.728   5.707  0.2353  0.2374 -0.1247
  313MOL0     C41243   8.453   1.806   5.592  0.3280  0.2204  0.0554
  313MOL0     C41244   8.536   1.936   5.582 -0.1598  0.1544  0.1856
  313MOL0     C41245   8.685   1.895   5.533  0.7556 -0.1240  1.0527
  313MOL0     C41246   8.711   1.883   5.384  0.6776 -0.4729 -1.0711
  313MOL0     C41247   8.665   1.765   5.306 -0.2377  0.4607  0.2204
  313MOL0     C41248   8.656   1.658   5.253 -0.7046 -0.3839  0.1211
  313MOL0     C41249   8.384   1.528   5.621  0.6908 -1.1532  1.1084
  313MOL0     C41250   8.320   1.411   5.644 -0.2168 -0.2853 -0.2685
  313MOL0     H41251   7.905   1.344   6.028 -0.2497 -1.4350  5.5570
  313MOL0     H41252   7.713   1.206   6.081  0.1810  2.3706  0.5930
  313MOL0     H41253   7.620   0.972   5.818 -3.2904 -0.4664 -0.6554
  313MOL0     H41254   7.504   0.912   5.920 -0.2602  0.8201  2.3697
  313MOL0     H41255   7.654   0.706   5.970  1.4812 -1.9834  0.1723
  313MOL0     H41256   7.735   0.765   5.818 -0.6485  0.6405  0.3883
  313MOL0     H41257   7.524   0.748   5.692  0.3317  2.1244  1.6749
  313MOL0     H41258   7.431   0.721   5.842  0.2567  0.9723  1.1261
  313MOL0     H41259   7.631   0.520   5.768  0.0819  1.1614 -0.9946
  313MOL0     H41260   7.479   0.506   5.858  0.3877 -1.6636 -0.4752
  313MOL0     H41261   7.479   0.383   5.652  1.3687  0.4608 -0.5189
  313MOL0     H41262   7.525   0.529   5.562  1.9743 -0.1930  1.8514
  313MOL0     H41263   7.316   0.622   5.569 -1.2354 -1.2344 -1.0146
  313MOL0     H41264   7.260   0.540   5.712  1.3402  1.9800  2.5516
  313MOL0     H41265   7.314   0.389   5.450 -1.0079  1.1915 -1.4627
  313MOL0     H41266   7.218   0.341   5.596 -1.9453 -0.4608 -1.3476
  313MOL0     H41267   7.138   0.571   5.403  2.0128 -0.2767  0.6728
  313MOL0     H41268   7.073   0.528   5.546  1.2332  1.5527 -0.3418
  313MOL0     H41269   7.157   0.320   5.224  0.6755 -0.8284  1.3157
  313MOL0     H41270   7.003   0.163   5.059 -0.5198  2.1101 -0.3197
  313MOL0     H41271   6.840   0.147   5.096 -0.7688  0.6765 -0.5707
  313MOL0     H41272   6.877  -0.060   5.245 -1.6877 -2.2444 -2.3491
  313MOL0     H41273   7.051  -0.032   5.237  1.0081  0.6451 -3.1168
  313MOL0     H41274   6.862  -0.083   5.020 -0.0736  0.2542  1.1152
  313MOL0     H41275   7.039  -0.059   5.003 -0.3685  1.9465  0.4551
  313MOL0     H41276   6.895  -0.298   5.156  1.6416 -1.2615  2.3584
  313MOL0     H41277   7.070  -0.264   5.173  0.0570  0.6162 -1.7062
  313MOL0     H41278   7.139  -0.445   4.795  1.3607 -2.2584 -1.2283
  313MOL0     H41279   7.163  -0.700   4.774  0.4183  0.0189 -0.3083
  313MOL0     H41280   6.987  -1.187   4.938  1.0007 -1.9557 -1.6763
  313MOL0     H41281   7.094  -1.380   4.928 -1.5961 -0.0017  1.1936
  313MOL0     H41282   7.256  -1.575   4.934  3.7828 -3.8050 -0.7343
  313MOL0     H41283   7.161  -1.577   5.093 -0.0093 -1.1990 -1.0074
  313MOL0     H41284   7.373  -1.654   5.198  0.2079  2.1404  0.2766
  313MOL0     H41285   7.426  -1.688   5.027 -0.1663 -2.0186 -0.1838
  313MOL0     H41286   7.268  -1.830   4.967 -3.8051 -0.2663  0.2660
  313MOL0     H41287   7.167  -1.801   5.111  0.1682 -3.3797  0.7229
  313MOL0     H41288   7.443  -1.932   5.147  0.2578 -1.3307 -3.5240
  313MOL0     H41289   7.298  -1.920   5.255  4.5013 -1.6089  1.7536
  313MOL0     H41290   7.350  -2.149   5.136  0.2543  1.4519  2.3709
  313MOL0     H41291   7.286  -2.071   4.986  0.2293  1.1124  0.3357
  313MOL0     H41292   7.090  -2.102   5.040 -3.0060  2.6010  1.6288
  313MOL0     H41293   7.112  -1.998   5.179  2.5383  0.8352 -0.4752
  313MOL0     H41294   7.061  -2.296   5.185 -1.4318 -0.8167  2.0956
  313MOL0     H41295   7.201  -2.243   5.273  1.3645  2.4586  0.1360
  313MOL0     H41296   7.017  -2.249   5.405 -0.7096 -1.1893 -1.1862
  313MOL0     H41297   6.907  -2.165   5.290 -0.1333  1.8616  0.5408
  313MOL0     H41298   7.386  -1.250   5.231 -0.3760 -0.7919 -0.0918
  313MOL0     H41299   7.273  -1.025   5.222 -5.3139 -0.4145  2.6332
  313MOL0     H41300   7.012  -0.711   5.186  3.1539  1.7205  1.7199
  313MOL0     H41301   6.979  -0.505   5.191 -1.4038 -1.2757 -0.4929
  313MOL0     H41302   7.920   0.870   5.907  2.8025  0.2296 -1.4540
  313MOL0     H41303   8.100   1.000   5.852  1.1460 -1.5246  2.6325
  313MOL0     H41304   8.345   1.429   5.992 -0.7090  1.1998 -0.1240
  313MOL0     H41305   8.443   1.626   5.933 -0.5329 -0.5333  1.2560
  313MOL0     H41306   8.348   1.833   5.605  0.6241  0.9591  1.0330
  313MOL0     H41307   8.475   1.755   5.497 -1.8427 -0.0533 -0.3541
  313MOL0     H41308   8.484   2.004   5.514 -2.0302  2.0890  3.2933
  313MOL0     H41309   8.542   1.993   5.675 -0.9623  2.6313 -1.1938
  313MOL0     H41310   8.716   1.799   5.574  2.0348  0.7161  2.1352
  313MOL0     H41311   8.747   1.981   5.560 -2.0544  2.0121  1.1888
  313MOL0     H41312   8.693   1.979   5.334 -1.3640  0.1730  0.7238
  313MOL0     H41313   8.820   1.874   5.390  0.8795  0.3774 -2.8682
  313MOL0     H41314   8.654   1.561   5.209  2.3983 -0.6403  0.2990
  313MOL0     H41315   8.407   1.551   5.518 -2.8635 -1.0359  0.2128
  313MOL0     H41316   8.263   1.363   5.565  1.3768  1.2510 -2.4865
  314MOL0     O41317   1.268   5.475   6.975 -0.5781  0.1637  0.7707
  314MOL0     C41318   1.362   5.405   6.945  0.0919  0.1962  0.0272
  314MOL0     O41319   1.476   5.384   7.025 -0.1164 -0.0835  0.3329
  314MOL0     C41320   1.479   5.439   7.150 -0.5677 -0.0807 -0.2150
  314MOL0     C41321   1.505   5.573   7.177  0.2043 -0.2369  0.3179
  314MOL0     C41322   1.520   5.626   7.307  0.5423 -0.2226 -0.4633
  314MOL0     C41323   1.486   5.546   7.418 -0.3480  0.1829 -0.1676
  314MOL0     O41324   1.512   5.584   7.544  0.4561  0.8179  0.8535
  314MOL0     C41325   1.420   5.562   7.659  0.3741 -1.1785  1.0943
  314MOL0     C41326   1.286   5.624   7.628 -0.9132  0.7956  0.5325
  314MOL0     C41327   1.188   5.581   7.739  0.6301 -0.1127 -0.4577
  314MOL0     C41328   1.050   5.633   7.700 -0.5721  1.1455  0.1679
  314MOL0     C41329   0.989   5.546   7.589  0.4011  0.4371 -0.6494
  314MOL0     C41330   0.852   5.598   7.537  0.7515  0.9299  0.4473
  314MOL0     C41331   0.744   5.528   7.620 -0.4798  1.4227  0.7804
  314MOL0     C41332   0.608   5.548   7.550  0.1859  0.4535 -0.3558
  314MOL0     N41333   0.576   5.520   7.410 -0.0363  0.0281 -0.3593
  314MOL0     C41334   0.520   5.593   7.319  0.6754 -0.5050 -0.4944
  314MOL0     C41335   0.517   5.521   7.206 -0.1279  1.2685 -0.8016
  314MOL0     C41336   0.460   5.576   7.076 -0.1671 -0.1083  0.6569
  314MOL0     C41337   0.409   5.467   6.981  0.8761  0.5077 -0.2621
  314MOL0     C41338   0.286   5.401   7.041  1.0674  0.0188 -1.2239
  314MOL0     C41339   0.218   5.305   6.947 -0.1367 -0.3204  0.4518
  314MOL0     O41340   0.116   5.375   6.874 -0.1064  0.2435 -0.0099
  314MOL0     C41341   0.030   5.303   6.789  0.3802  0.2426  0.7539
  314MOL0     C41342  -0.045   5.384   6.702 -1.2587 -0.3007 -0.6671
  314MOL0     C41343  -0.128   5.327   6.603  0.0884  0.8929  0.0654
  314MOL0     C41344  -0.128   5.186   6.596 -0.2515 -0.4549  0.1589
  314MOL0     C41345  -0.227   5.121   6.519  0.1932 -0.2408 -0.2636
  314MOL0     O41346  -0.205   4.980   6.505  0.4779 -0.8422 -0.1851
  314MOL0     C41347  -0.282   4.902   6.425 -0.2770 -0.2857 -0.1929
  314MOL0     C41348  -0.404   4.924   6.359  0.3165 -0.2297 -0.1829
  314MOL0     C41349  -0.454   4.818   6.278 -0.0891  0.2612 -0.8100
  314MOL0     C41350  -0.405   4.694   6.267 -0.2244 -0.0079  0.3469
  314MOL0     O41351  -0.469   4.591   6.204  0.4506  0.2476 -0.3524
  314MOL0     C41352  -0.391   4.504   6.124 -0.9763  0.7210 -0.7863
  314MOL0     C41353  -0.470   4.392   6.064 -0.0699 -0.7895  0.3878
  314MOL0     C41354  -0.566   4.430   5.955 -0.0252  0.0700 -0.9382
  314MOL0     C41355  -0.519   4.401   5.816  0.1678  0.1663  0.4153
  314MOL0     C41356  -0.635   4.440   5.723 -0.3622 -0.7079  0.4997
  314MOL0     C41357  -0.594   4.413   5.581 -0.7419 -0.3517  0.4835
  314MOL0     C41358  -0.659   4.487   5.464  0.6575 -0.3035  0.0453
  314MOL0     C41359  -0.809   4.459   5.481  0.4957  0.2018  0.1695
  314MOL0    Cl41360  -0.901   4.497   5.331  0.2420 -0.3386 -0.0468
  314MOL0     C41361  -0.283   4.678   6.339  0.1888  0.8997  0.3710
  314MOL0     C41362  -0.217   4.777   6.411 -0.7147 -0.0255 -1.2047
  314MOL0     O41363  -0.315   5.177   6.463  0.5405  0.1701 -1.0867
  314MOL0     C41364  -0.050   5.114   6.679  1.2116 -0.9137  0.9460
  314MOL0     C41365   0.027   5.168   6.778  0.9008 -0.1057 -0.0776
  314MOL0     N41366   0.598   5.412   7.229  0.4892 -0.2018  0.2750
  314MOL0     N41367   0.617   5.400   7.353  0.5427 -0.5592  0.5482
  314MOL0     C41368   1.450   5.416   7.392 -0.1445 -0.6717 -0.3735
  314MOL0     C41369   1.452   5.361   7.259  0.2327 -0.5735 -0.2024
  314MOL0     C41370   1.357   5.334   6.819 -0.3689  0.1638 -0.4014
  314MOL0     C41371   1.257   5.351   6.726  0.1022  0.0043 -0.4122
  314MOL0     C41372   1.264   5.287   6.603  0.1796 -0.4073  1.1632
  314MOL0     C41373   1.368   5.205   6.563  0.8071 -0.6528  0.6312
  314MOL0     O41374   1.370   5.123   6.456  0.3945 -1.0984 -0.1263
  314MOL0     C41375   1.311   5.185   6.340  0.9092 -0.8730 -0.6558
  314MOL0     C41376   1.316   5.110   6.215 -0.1540 -0.5837  0.5470
  314MOL0     C41377   1.451   5.039   6.203 -0.1867  0.3807 -0.0165
  314MOL0     C41378   1.469   4.982   6.061 -0.2050  0.4728  0.1640
  314MOL0     C41379   1.503   4.845   6.083  0.2610 -0.4103  0.2354
  314MOL0     C41380   1.523   4.727   6.091 -0.1139  0.2703  0.1906
  314MOL0     C41381   1.458   5.178   6.664 -0.7626 -0.0943  0.0970
  314MOL0     C41382   1.461   5.243   6.788  0.5681  0.7401  0.1928
  314MOL0     H41383   1.522   5.642   7.095 -0.4179 -1.0246 -0.4968
  314MOL0     H41384   1.556   5.728   7.314 -0.5328  0.1335  0.0052
  314MOL0     H41385   1.459   5.612   7.748 -1.0975 -0.1599  1.1927
  314MOL0     H41386   1.407   5.459   7.693  0.0692 -1.6062 -0.2568
  314MOL0     H41387   1.255   5.578   7.534 -0.4580  1.4363  0.0635
  314MOL0     H41388   1.287   5.730   7.603  3.0320  0.4645 -1.4622
  314MOL0     H41389   1.215   5.627   7.835  0.3006 -0.1801 -0.3333
  314MOL0     H41390   1.193   5.473   7.755  1.5456  0.1860  1.6022
  314MOL0     H41391   0.991   5.644   7.792 -0.4045 -2.5672  0.8852
  314MOL0     H41392   1.064   5.728   7.648  2.3436  0.3692 -0.6637
  314MOL0     H41393   0.984   5.446   7.633 -0.1243  1.7909  2.6454
  314MOL0     H41394   1.056   5.541   7.502  1.8658 -2.9135  0.4788
  314MOL0     H41395   0.837   5.576   7.431 -0.1423  0.0029  0.7433
  314MOL0     H41396   0.834   5.706   7.547 -0.9911  0.6651  0.3831
  314MOL0     H41397   0.764   5.421   7.608  1.5801  1.8378  0.0635
  314MOL0     H41398   0.743   5.553   7.726  0.8301  1.8270  0.7103
  314MOL0     H41399   0.576   5.650   7.570 -2.8719 -0.6252  0.8632
  314MOL0     H41400   0.548   5.470   7.598  0.4417  0.2203 -0.4099
  314MOL0     H41401   0.477   5.691   7.335  0.6618 -0.5815 -0.0561
  314MOL0     H41402   0.527   5.639   7.017  0.0503 -2.4916 -1.8552
  314MOL0     H41403   0.377   5.640   7.108 -0.4075 -0.0496 -0.0678
  314MOL0     H41404   0.482   5.386   6.971 -1.4642 -1.8388  0.2910
  314MOL0     H41405   0.370   5.497   6.883  2.8652  2.3708 -0.5410
  314MOL0     H41406   0.312   5.348   7.133 -1.4746 -0.3691 -0.6539
  314MOL0     H41407   0.223   5.481   7.083  1.1090  0.2179 -1.5351
  314MOL0     H41408   0.179   5.224   7.010 -1.6240 -0.3351 -0.4245
  314MOL0     H41409   0.290   5.253   6.882 -0.3450  0.0482 -0.0849
  314MOL0     H41410  -0.028   5.490   6.691  4.3745 -0.8758 -0.4777
  314MOL0     H41411  -0.182   5.388   6.531 -1.8495 -1.6915 -0.8417
  314MOL0     H41412  -0.470   5.010   6.359 -3.5925 -2.9474  1.3411
  314MOL0     H41413  -0.540   4.839   6.214  0.4064  2.8462 -0.7286
  314MOL0     H41414  -0.325   4.451   6.193  0.5651  0.9222 -2.0651
  314MOL0     H41415  -0.319   4.553   6.058  1.9278 -2.7521 -0.5351
  314MOL0     H41416  -0.530   4.353   6.146 -0.6175 -0.1125  0.3167
  314MOL0     H41417  -0.410   4.307   6.029 -1.1177 -0.8140 -1.4856
  314MOL0     H41418  -0.579   4.536   5.979  0.8419  0.0546 -0.3492
  314MOL0     H41419  -0.662   4.378   5.962  0.7848 -1.2552  1.5556
  314MOL0     H41420  -0.431   4.463   5.795 -1.8628  2.4234 -2.2286
  314MOL0     H41421  -0.496   4.295   5.805 -0.2062  0.3110 -2.7272
  314MOL0     H41422  -0.649   4.547   5.743 -1.0190 -0.1659 -2.3904
  314MOL0     H41423  -0.730   4.391   5.748 -0.5276 -1.3397 -1.2448
  314MOL0     H41424  -0.614   4.307   5.566 -1.8094 -0.0006 -0.8314
  314MOL0     H41425  -0.491   4.445   5.563  0.0916 -1.9824  2.0712
  314MOL0     H41426  -0.628   4.592   5.463  1.3240 -0.4906 -1.2602
  314MOL0     H41427  -0.619   4.430   5.379 -0.7603 -3.3176  1.2665
  314MOL0     H41428  -0.851   4.519   5.562  0.4945  0.4695 -0.0286
  314MOL0     H41429  -0.818   4.351   5.495  0.7202  0.1367 -0.1707
  314MOL0     H41430  -0.235   4.581   6.345 -2.7928 -0.6064  2.5149
  314MOL0     H41431  -0.132   4.746   6.470 -1.3059  2.1382  0.9736
  314MOL0     H41432  -0.049   5.006   6.680  0.1310 -0.9755 -0.7941
  314MOL0     H41433   0.082   5.102   6.845  0.2477 -2.5670 -1.8443
  314MOL0     H41434   1.425   5.350   7.474  0.4218  0.3904  0.6862
  314MOL0     H41435   1.409   5.262   7.254 -1.0191 -0.0108 -1.5905
  314MOL0     H41436   1.175   5.414   6.759  0.7164 -0.7519  2.8536
  314MOL0     H41437   1.189   5.317   6.531  0.5608  0.2136  1.0232
  314MOL0     H41438   1.354   5.280   6.308  1.0430 -1.8016 -3.4974
  314MOL0     H41439   1.204   5.203   6.358  1.1562  1.1221 -0.9721
  314MOL0     H41440   1.237   5.035   6.214 -0.6655 -0.1533 -3.2072
  314MOL0     H41441   1.301   5.160   6.119 -2.8023  1.0949  1.7459
  314MOL0     H41442   1.458   4.960   6.277 -1.2863 -2.5914 -2.8135
  314MOL0     H41443   1.533   5.109   6.219  0.8776 -0.4764 -1.4556
  314MOL0     H41444   1.371   4.982   6.013 -0.4791  3.0086  0.5559
  314MOL0     H41445   1.541   5.044   6.005 -1.9834  1.2112 -1.4058
  314MOL0     H41446   1.528   4.621   6.098 -1.9829 -0.2931 -3.9437
  314MOL0     H41447   1.533   5.102   6.646 -0.2935 -0.4074  2.9041
  314MOL0     H41448   1.527   5.214   6.869  0.5754 -0.0836 -0.0954
  315MOL0     O41449   4.669   3.301   5.541  0.6191  0.4620  0.8155
  315MOL0     C41450   4.561   3.272   5.472  0.0565 -0.9130 -0.2203
  315MOL0     O41451   4.480   3.168   5.501 -0.0744 -0.2226 -0.0224
  315MOL0     C41452   4.512   3.069   5.597  0.0328 -1.5287  1.0279
  315MOL0     C41453   4.410   3.022   5.684 -0.2291  0.4672  0.6632
  315MOL0     C41454   4.430   2.909   5.763  0.9715 -0.6603 -0.4113
  315MOL0     C41455   4.547   2.847   5.760 -0.1106  0.1739  0.1862
  315MOL0     O41456   4.590   2.731   5.827 -0.6998 -1.0399 -1.0565
  315MOL0     C41457   4.495   2.658   5.897  0.1529  0.2295  0.7681
  315MOL0     C41458   4.575   2.558   5.978  0.8801  0.5191 -0.0951
  315MOL0     C41459   4.469   2.472   6.078 -0.0536 -0.9159  0.4428
  315MOL0     C41460   4.533   2.346   6.127  0.1491 -0.1741  0.3199
  315MOL0     C41461   4.465   2.256   6.224 -0.7200  0.8647 -0.0643
  315MOL0     C41462   4.354   2.176   6.153 -0.5674  0.3279 -0.4046
  315MOL0     C41463   4.267   2.087   6.235  0.9702  0.3369  0.0820
  315MOL0     C41464   4.358   2.030   6.343  0.7968  0.1008 -0.1580
  315MOL0     N41465   4.289   1.926   6.421 -1.1209 -0.7889  0.2490
  315MOL0     C41466   4.173   1.928   6.494 -0.6140 -0.5944  0.7481
  315MOL0     C41467   4.179   1.816   6.570 -0.0939 -0.1360  0.7467
  315MOL0     C41468   4.074   1.773   6.666 -1.3901 -0.7726 -0.1287
  315MOL0     C41469   4.092   1.866   6.789 -0.8329 -0.1138  0.7497
  315MOL0     C41470   4.030   1.788   6.911  0.6997  1.0140  0.4064
  315MOL0     C41471   4.031   1.881   7.027  0.4655 -0.0269  0.3434
  315MOL0     O41472   4.032   1.805   7.142 -0.3288  0.1040  0.6155
  315MOL0     C41473   3.929   1.826   7.234 -0.0058 -0.2436 -0.3645
  315MOL0     C41474   3.953   1.906   7.337 -0.4011 -0.0714  0.1852
  315MOL0     C41475   3.857   1.906   7.435 -0.4193 -0.0407 -0.5678
  315MOL0     C41476   3.744   1.818   7.442  0.2013 -0.8128 -0.2388
  315MOL0     C41477   3.633   1.829   7.544 -0.1323  0.1075 -0.9744
  315MOL0     O41478   3.644   1.948   7.620  0.3563 -0.4265 -0.4750
  315MOL0     C41479   3.549   1.955   7.717 -0.3811  0.4388 -0.2589
  315MOL0     C41480   3.434   2.019   7.680 -0.2332 -0.3687  1.0235
  315MOL0     C41481   3.331   2.046   7.767  0.4725 -0.0735  0.0608
  315MOL0     C41482   3.345   1.998   7.896 -0.0860  0.4396 -0.2405
  315MOL0     O41483   3.232   2.028   7.971 -1.1571  0.3927 -0.0644
  315MOL0     C41484   3.195   1.942   8.089  0.2443 -0.1011 -0.8793
  315MOL0     C41485   3.056   1.973   8.143 -0.1439  0.0206 -0.1870
  315MOL0     C41486   3.013   1.871   8.243 -0.4066  0.2215 -0.3369
  315MOL0     C41487   2.885   1.927   8.313 -0.1799  0.0888 -1.0105
  315MOL0     C41488   2.826   1.830   8.419  0.1288 -0.0013  0.3866
  315MOL0     C41489   2.700   1.885   8.481 -0.0952  0.1185  0.6278
  315MOL0     C41490   2.599   1.905   8.371  0.4728  0.3084 -0.0867
  315MOL0     C41491   2.453   1.896   8.436 -0.4411  0.2815 -0.6626
  315MOL0    Cl41492   2.338   1.931   8.301 -0.2565  0.6178  0.1674
  315MOL0     C41493   3.461   1.931   7.942 -0.2053 -0.4497  0.2722
  315MOL0     C41494   3.559   1.919   7.846 -0.8712 -0.3388 -0.2712
  315MOL0     O41495   3.541   1.749   7.550 -0.4987  0.5818  0.1744
  315MOL0     C41496   3.722   1.735   7.334 -0.8528  0.0180 -0.8823
  315MOL0     C41497   3.819   1.737   7.227  0.1992  0.6510 -0.2894
  315MOL0     N41498   4.293   1.747   6.549  0.1413 -0.1911 -0.4666
  315MOL0     N41499   4.358   1.814   6.461 -0.0645  0.0389 -0.8030
  315MOL0     C41500   4.644   2.882   5.670 -1.0869 -0.6903 -1.3089
  315MOL0     C41501   4.623   2.988   5.579  1.0016 -1.6902 -0.0605
  315MOL0     C41502   4.538   3.365   5.361  0.8451 -0.2516  0.6982
  315MOL0     C41503   4.599   3.490   5.356  0.1989 -0.4847  0.2338
  315MOL0     C41504   4.576   3.578   5.255  1.0079 -0.4223  1.3296
  315MOL0     C41505   4.503   3.541   5.142  1.1010  0.2924 -0.0620
  315MOL0     O41506   4.496   3.637   5.039 -0.4550  0.0685 -1.4367
  315MOL0     C41507   4.436   3.598   4.913 -0.0891 -0.8586 -0.3482
  315MOL0     C41508   4.464   3.689   4.789 -0.1197  0.3647  0.2661
  315MOL0     C41509   4.612   3.701   4.760 -0.2180 -0.8160 -0.6005
  315MOL0     C41510   4.697   3.754   4.878  0.5152 -0.7131 -0.5610
  315MOL0     C41511   4.826   3.779   4.820  0.4840 -0.0837 -0.1389
  315MOL0     C41512   4.935   3.812   4.775  0.1473 -0.4143  0.4638
  315MOL0     C41513   4.439   3.412   5.135 -0.6186 -0.3225  0.6473
  315MOL0     C41514   4.451   3.332   5.249 -1.1220  0.0772  0.0730
  315MOL0     H41515   4.312   3.067   5.673 -1.0943 -1.5578 -0.4510
  315MOL0     H41516   4.351   2.887   5.834 -0.1646  2.9231 -0.3595
  315MOL0     H41517   4.423   2.608   5.832  0.6019 -1.6761  1.6639
  315MOL0     H41518   4.443   2.717   5.972 -0.6915  0.2149  0.2016
  315MOL0     H41519   4.639   2.611   6.049  1.1072 -1.4628  1.2668
  315MOL0     H41520   4.642   2.495   5.918  2.4682  3.6782 -1.8729
  315MOL0     H41521   4.380   2.453   6.017  0.3753  2.2247 -1.4104
  315MOL0     H41522   4.446   2.537   6.163 -0.5514 -1.6567  0.8893
  315MOL0     H41523   4.559   2.295   6.034 -0.3038  1.7893 -0.9398
  315MOL0     H41524   4.628   2.378   6.170 -0.5859  2.1430  0.3410
  315MOL0     H41525   4.432   2.320   6.307  0.7756  1.2209  0.2940
  315MOL0     H41526   4.539   2.188   6.267  0.1186  1.9800  0.3021
  315MOL0     H41527   4.413   2.106   6.095  0.9650 -1.7496  3.3048
  315MOL0     H41528   4.292   2.245   6.095 -0.3282  0.9016  0.0127
  315MOL0     H41529   4.191   2.147   6.284  1.7002 -0.2724  2.0521
  315MOL0     H41530   4.218   2.015   6.168  1.9361 -0.8680  0.6213
  315MOL0     H41531   4.384   2.112   6.410 -2.1038  2.2725 -1.4816
  315MOL0     H41532   4.453   1.989   6.306 -0.9630 -2.8152 -1.8895
  315MOL0     H41533   4.097   2.005   6.491 -1.4166 -1.3669  0.8136
  315MOL0     H41534   4.079   1.667   6.690  0.3968 -0.8489 -0.6339
  315MOL0     H41535   3.975   1.793   6.626 -2.5916  0.4857  3.1495
  315MOL0     H41536   4.072   1.970   6.761  0.1717 -0.2950 -0.7746
  315MOL0     H41537   4.199   1.868   6.814 -0.3563  0.9963 -1.1696
  315MOL0     H41538   3.930   1.752   6.884  1.1107  1.2171 -1.5121
  315MOL0     H41539   4.087   1.696   6.925 -2.2413 -1.3304 -1.5202
  315MOL0     H41540   3.943   1.944   7.016 -0.4864 -1.0053  1.8937
  315MOL0     H41541   4.121   1.944   7.030  0.0182  0.6260  0.1815
  315MOL0     H41542   4.039   1.972   7.330 -2.2728  2.2913 -2.6719
  315MOL0     H41543   3.865   1.972   7.521  0.1691  0.0594 -0.6918
  315MOL0     H41544   3.422   2.061   7.580 -1.5080  1.1216  1.7490
  315MOL0     H41545   3.245   2.098   7.725  0.7506 -1.1589 -1.9672
  315MOL0     H41546   3.272   1.959   8.166  0.5327 -0.7258 -1.0171
  315MOL0     H41547   3.189   1.836   8.062  1.4461 -0.3188 -0.3857
  315MOL0     H41548   2.980   1.966   8.065 -0.3359 -0.8581  0.0805
  315MOL0     H41549   3.047   2.076   8.180 -1.7129 -0.1764  0.0288
  315MOL0     H41550   3.088   1.862   8.322 -4.8527 -1.4004  4.2510
  315MOL0     H41551   2.990   1.773   8.200 -2.5276  1.4460 -2.2543
  315MOL0     H41552   2.901   2.022   8.365 -1.1075 -0.5309  0.4545
  315MOL0     H41553   2.815   1.945   8.232 -2.1719  0.5025  0.7186
  315MOL0     H41554   2.898   1.819   8.501  1.8992 -2.1513 -1.3419
  315MOL0     H41555   2.823   1.731   8.373  0.2017 -0.1777  0.7527
  315MOL0     H41556   2.725   1.972   8.542  0.0128 -0.5493  1.5773
  315MOL0     H41557   2.661   1.816   8.558  1.8386 -3.5986 -1.4299
  315MOL0     H41558   2.614   2.002   8.324  1.6102  0.3534  0.3349
  315MOL0     H41559   2.616   1.824   8.299 -1.5258 -2.3214  2.1581
  315MOL0     H41560   2.443   1.971   8.515  1.4727  0.2044 -0.2960
  315MOL0     H41561   2.432   1.794   8.471  2.6429  0.3219  1.7541
  315MOL0     H41562   3.480   1.899   8.044 -1.4413  3.8475  2.0895
  315MOL0     H41563   3.649   1.863   7.868 -2.2341 -1.7583  2.1281
  315MOL0     H41564   3.642   1.661   7.335  1.4551 -2.6497 -1.9983
  315MOL0     H41565   3.813   1.658   7.152 -0.7205 -1.3229  1.7621
  315MOL0     H41566   4.736   2.826   5.685 -0.2751  1.3306  2.3943
  315MOL0     H41567   4.687   3.019   5.497 -4.5130 -0.2225 -4.3795
  315MOL0     H41568   4.656   3.513   5.445  1.2718  0.1413 -0.5925
  315MOL0     H41569   4.622   3.676   5.262  0.5482 -0.1408  0.5421
  315MOL0     H41570   4.330   3.572   4.919 -0.3689  0.0248 -1.1059
  315MOL0     H41571   4.483   3.501   4.893 -0.8704 -1.6381  1.4857
  315MOL0     H41572   4.416   3.655   4.697 -0.1053  0.8535  0.0714
  315MOL0     H41573   4.423   3.790   4.800  0.7232  0.9919 -1.7453
  315MOL0     H41574   4.632   3.763   4.672 -2.2041  2.3380  0.9869
  315MOL0     H41575   4.643   3.599   4.736 -0.7493 -1.5408  1.5690
  315MOL0     H41576   4.647   3.842   4.918  2.6969  1.3881 -2.1915
  315MOL0     H41577   4.716   3.690   4.965  0.4402  3.0386  2.4416
  315MOL0     H41578   5.036   3.832   4.746  0.3935  1.4348  2.3589
  315MOL0     H41579   4.384   3.380   5.047 -0.1462  0.7213 -0.0472
  315MOL0     H41580   4.389   3.245   5.261 -0.3551 -0.3871  0.7990
  316MOL0     O41581  10.939   7.774   3.303 -0.7778  0.2287 -0.9671
  316MOL0     C41582  10.919   7.667   3.360  0.6625  0.7565 -0.5608
  316MOL0     O41583  10.928   7.631   3.489  0.4147 -0.1368  0.4412
  316MOL0     C41584  10.961   7.740   3.572 -0.2239  1.1998  0.0666
  316MOL0     C41585  11.086   7.753   3.631  0.3862 -0.3498 -0.5161
  316MOL0     C41586  11.127   7.859   3.710  0.8239  0.4822  0.5054
  316MOL0     C41587  11.026   7.954   3.742  0.7683  0.8140  0.1538
  316MOL0     O41588  11.040   8.061   3.828 -0.6840 -0.2433 -0.0052
  316MOL0     C41589  11.173   8.117   3.843  1.5373 -0.4729  0.6736
  316MOL0     C41590  11.164   8.219   3.948  0.9294 -0.3781 -0.4376
  316MOL0     C41591  11.142   8.170   4.091  0.4116  1.0827 -0.1618
  316MOL0     C41592  11.157   8.298   4.186  0.5037 -0.4689 -0.9909
  316MOL0     C41593  11.123   8.263   4.331 -0.9058 -0.1375 -1.0237
  316MOL0     C41594  11.141   8.394   4.410 -0.1751 -0.4918 -0.3545
  316MOL0     C41595  11.142   8.384   4.566  0.0098  0.6590 -0.1401
  316MOL0     C41596  11.192   8.507   4.651 -0.9556 -0.4839  0.6211
  316MOL0     N41597  11.183   8.484   4.799  0.3869  0.7182  0.2092
  316MOL0     C41598  11.273   8.489   4.900 -0.0777 -0.3208  0.6306
  316MOL0     C41599  11.202   8.449   5.011 -0.4234 -0.4173  0.3903
  316MOL0     C41600  11.247   8.428   5.149  0.4162  0.0828  0.4236
  316MOL0     C41601  11.247   8.551   5.232 -0.1861  0.3328 -0.6965
  316MOL0     C41602  11.117   8.613   5.290 -0.3168  0.7890 -0.1988
  316MOL0     C41603  11.016   8.531   5.365 -0.1465  0.5541 -0.4543
  316MOL0     O41604  11.063   8.502   5.495  0.0546  0.0543  0.2107
  316MOL0     C41605  11.056   8.608   5.586  0.4030 -0.3395 -0.0467
  316MOL0     C41606  11.138   8.590   5.697  1.4683  0.0453 -1.0354
  316MOL0     C41607  11.150   8.697   5.790  1.0249  0.2712  0.3913
  316MOL0     C41608  11.099   8.824   5.759  0.1088 -0.0279  0.2400
  316MOL0     C41609  11.131   8.944   5.840  0.4087  0.4737  0.1576
  316MOL0     O41610  11.225   8.923   5.935 -0.2322 -0.2075 -0.3080
  316MOL0     C41611  11.273   9.017   6.019 -0.0504  0.6826  0.3518
  316MOL0     C41612  11.205   9.112   6.079 -0.7250 -1.5568 -0.0448
  316MOL0     C41613  11.274   9.212   6.156  0.0052  0.8224 -0.5171
  316MOL0     C41614  11.408   9.213   6.179 -0.0383  0.3122  0.4949
  316MOL0     O41615  11.462   9.309   6.267  0.0859 -0.2808 -0.4681
  316MOL0     C41616  11.397   9.429   6.295  0.9552 -0.2123 -0.4689
  316MOL0     C41617  11.440   9.455   6.438 -0.6692 -0.2900  0.2956
  316MOL0     C41618  11.356   9.361   6.522  0.5786 -0.4367 -1.4033
  316MOL0     C41619  11.375   9.411   6.678  0.1022 -0.6577  0.2300
  316MOL0     C41620  11.311   9.317   6.783  0.1991  0.7185  0.1829
  316MOL0     C41621  11.385   9.342   6.914  0.1259 -0.7792 -0.0318
  316MOL0     C41622  11.322   9.265   7.023 -0.1349  0.6630 -0.3220
  316MOL0     C41623  11.372   9.311   7.166 -0.0913  0.1619 -0.4797
  316MOL0    Cl41624  11.546   9.270   7.161 -0.0953 -0.2815  0.2486
  316MOL0     C41625  11.479   9.108   6.122  0.5151 -0.2942 -0.2446
  316MOL0     C41626  11.412   9.016   6.038  0.4773  0.4232 -0.1035
  316MOL0     O41627  11.065   9.051   5.823  0.6701  0.6948 -0.3828
  316MOL0     C41628  11.027   8.841   5.638  0.2690  0.3036  0.6987
  316MOL0     C41629  11.003   8.728   5.558 -0.4329  0.2157 -0.9106
  316MOL0     N41630  11.074   8.415   4.973 -0.1274 -0.1390 -0.7060
  316MOL0     N41631  11.058   8.457   4.847  0.7198  0.3118  0.5710
  316MOL0     C41632  10.891   7.944   3.696  0.2349  0.5441  0.1333
  316MOL0     C41633  10.863   7.838   3.608 -0.3391 -0.3845 -1.1202
  316MOL0     C41634  10.889   7.547   3.264  0.2565  0.9672  1.0559
  316MOL0     C41635  10.892   7.411   3.306 -0.3707  0.7910  0.3818
  316MOL0     C41636  10.858   7.306   3.218 -0.9153  0.0666 -0.2193
  316MOL0     C41637  10.835   7.333   3.083  0.1762  1.2275  0.3475
  316MOL0     O41638  10.782   7.223   3.002 -0.3607 -0.0240  0.0847
  316MOL0     C41639  10.820   7.217   2.862 -0.4877 -0.3902 -0.3671
  316MOL0     C41640  10.721   7.132   2.789 -0.8296 -0.3426  0.6786
  316MOL0     C41641  10.785   7.043   2.683 -1.0138 -0.1257 -0.9797
  316MOL0     C41642  10.687   6.980   2.588 -0.4520  0.4092 -0.1196
  316MOL0     C41643  10.581   6.915   2.665  0.1440 -0.2352 -0.9828
  316MOL0     C41644  10.504   6.851   2.738 -1.2350 -0.3403 -0.1347
  316MOL0     C41645  10.830   7.465   3.039  0.1795 -0.5529 -0.6346
  316MOL0     C41646  10.856   7.571   3.128  0.7492  0.2489  0.1950
  316MOL0     H41647  11.162   7.677   3.615  0.0589 -0.8173  0.1232
  316MOL0     H41648  11.234   7.858   3.730  1.2514 -1.1025 -1.5063
  316MOL0     H41649  11.197   8.162   3.747  0.7576 -0.5437  0.4415
  316MOL0     H41650  11.248   8.046   3.880  0.8216 -0.3742  2.4622
  316MOL0     H41651  11.079   8.284   3.927  0.8375  0.3816  1.9909
  316MOL0     H41652  11.241   8.296   3.944  0.1370  0.4397 -0.2062
  316MOL0     H41653  11.218   8.099   4.123  2.2578  2.0941 -2.0933
  316MOL0     H41654  11.041   8.134   4.114  0.2359  1.5826 -0.1366
  316MOL0     H41655  11.254   8.348   4.178 -0.4406  1.1634 -3.4222
  316MOL0     H41656  11.072   8.364   4.163 -1.4251 -1.7994  1.7305
  316MOL0     H41657  11.201   8.194   4.364 -2.0179 -0.6536  0.6989
  316MOL0     H41658  11.024   8.216   4.335 -0.3812 -1.2980 -1.0954
  316MOL0     H41659  11.056   8.458   4.387 -0.5828 -0.3981  1.3002
  316MOL0     H41660  11.234   8.445   4.381 -1.1387  1.5555 -0.0058
  316MOL0     H41661  11.039   8.358   4.591  0.8094 -3.5498 -0.3626
  316MOL0     H41662  11.202   8.294   4.586  3.0584  2.1758 -1.8672
  316MOL0     H41663  11.128   8.592   4.627 -1.6590 -2.0172 -3.7491
  316MOL0     H41664  11.294   8.529   4.618  1.2386 -4.3898  3.8699
  316MOL0     H41665  11.377   8.521   4.900 -1.2058  3.9260  1.5300
  316MOL0     H41666  11.351   8.395   5.158  1.0511  1.9820  0.6029
  316MOL0     H41667  11.201   8.346   5.204  3.9248 -2.2053  0.2495
  316MOL0     H41668  11.300   8.630   5.179 -1.3224  2.2637  0.9137
  316MOL0     H41669  11.314   8.519   5.313  1.4908 -0.6670 -2.3925
  316MOL0     H41670  11.151   8.699   5.349  0.3643  1.3423 -1.3411
  316MOL0     H41671  11.065   8.658   5.205 -0.2666  1.1502 -0.0425
  316MOL0     H41672  10.999   8.438   5.309 -0.0019  0.1222  0.2056
  316MOL0     H41673  10.918   8.575   5.343  0.0952  1.3608  0.0576
  316MOL0     H41674  11.201   8.501   5.696 -0.4541 -1.3932 -0.4332
  316MOL0     H41675  11.217   8.684   5.874 -1.1912  1.0560  2.3971
  316MOL0     H41676  11.098   9.115   6.062 -0.4764 -2.0788 -2.0348
  316MOL0     H41677  11.204   9.268   6.216 -1.2508  0.0709 -1.2382
  316MOL0     H41678  11.290   9.406   6.295  0.4285  1.9980 -0.6794
  316MOL0     H41679  11.433   9.509   6.230 -1.9942  0.9325 -0.8457
  316MOL0     H41680  11.423   9.561   6.460  2.0877 -0.3728  3.5816
  316MOL0     H41681  11.545   9.435   6.461 -1.4011 -2.0718  2.4341
  316MOL0     H41682  11.384   9.256   6.508 -2.9391 -2.0260  1.6818
  316MOL0     H41683  11.250   9.358   6.498  0.6321 -1.4607 -1.5959
  316MOL0     H41684  11.480   9.438   6.691  0.1267 -0.8297  0.3723
  316MOL0     H41685  11.317   9.503   6.692  1.5872  0.0335  2.4348
  316MOL0     H41686  11.321   9.216   6.741 -2.7727  0.5473 -0.3343
  316MOL0     H41687  11.204   9.336   6.796 -0.0428  0.0426 -0.7388
  316MOL0     H41688  11.364   9.446   6.942 -0.2490 -1.4252  2.2267
  316MOL0     H41689  11.494   9.330   6.907  0.2034 -1.1936  1.6337
  316MOL0     H41690  11.213   9.269   7.024 -0.1343  0.6942 -0.3734
  316MOL0     H41691  11.335   9.158   7.005 -0.0120  0.8258 -1.2469
  316MOL0     H41692  11.313   9.249   7.235  1.1641 -0.6036 -0.0614
  316MOL0     H41693  11.355   9.417   7.188  0.3272  0.1149  0.0777
  316MOL0     H41694  11.587   9.111   6.114  0.6680 -2.2619  0.5154
  316MOL0     H41695  11.472   8.946   5.981  0.3968  0.0428  0.2715
  316MOL0     H41696  10.985   8.934   5.601  0.5525  0.4691  0.7879
  316MOL0     H41697  10.959   8.744   5.460  0.0383  0.4391 -1.0937
  316MOL0     H41698  10.808   8.013   3.713  1.1588  2.2875 -1.8116
  316MOL0     H41699  10.765   7.818   3.568  0.6136  0.9509 -4.4537
  316MOL0     H41700  10.914   7.391   3.410  0.7088 -1.3378 -0.1998
  316MOL0     H41701  10.847   7.201   3.245 -0.2760 -0.8803 -3.2464
  316MOL0     H41702  10.919   7.170   2.865  0.1226  0.9085  1.0777
  316MOL0     H41703  10.823   7.309   2.803 -2.3020  0.8591  1.3758
  316MOL0     H41704  10.664   7.068   2.857 -0.1419 -1.4869  0.2156
  316MOL0     H41705  10.652   7.197   2.736 -1.1358  0.2708  1.7911
  316MOL0     H41706  10.855   6.974   2.731  2.8548  3.0597 -1.4738
  316MOL0     H41707  10.849   7.112   2.627  2.3309 -2.0922  0.0890
  316MOL0     H41708  10.644   7.050   2.515 -0.6265  0.3592 -0.0669
  316MOL0     H41709  10.732   6.903   2.525  0.8915 -0.6020  1.9835
  316MOL0     H41710  10.442   6.805   2.813 -0.6618 -0.2307  0.4202
  316MOL0     H41711  10.798   7.483   2.937 -1.9849  0.6318  0.1843
  316MOL0     H41712  10.872   7.668   3.080 -0.1568 -0.1328 -0.9186
  317MOL0     O41713   0.171   8.811   9.239 -0.5780 -0.6102 -0.2216
  317MOL0     C41714   0.056   8.824   9.204  0.1002  0.6002 -0.7797
  317MOL0     O41715   0.013   8.800   9.083 -0.4099  0.3670 -0.8449
  317MOL0     C41716   0.094   8.793   8.970 -1.3400 -0.5104 -0.4317
  317MOL0     C41717   0.148   8.907   8.912 -0.8049  0.0045 -0.0171
  317MOL0     C41718   0.204   8.891   8.785  0.4227 -0.0724  0.6742
  317MOL0     C41719   0.220   8.765   8.724  0.8352 -0.8038 -0.3404
  317MOL0     O41720   0.280   8.733   8.607 -0.3481  0.8560  0.4060
  317MOL0     C41721   0.376   8.825   8.542 -0.9684  0.7540 -0.4361
  317MOL0     C41722   0.516   8.769   8.565  0.8500  0.0217  0.8881
  317MOL0     C41723   0.572   8.770   8.698  1.1092 -0.3288  0.1430
  317MOL0     C41724   0.690   8.670   8.696  0.0904  0.0098 -0.3356
  317MOL0     C41725   0.826   8.737   8.729  0.3406 -0.6634 -0.9633
  317MOL0     C41726   0.939   8.669   8.668 -0.6979 -0.6898  0.5217
  317MOL0     C41727   0.950   8.514   8.702 -0.1158  0.5399  0.0672
  317MOL0     C41728   0.978   8.429   8.572 -0.0032 -0.3687 -0.5452
  317MOL0     N41729   1.118   8.449   8.535  0.0248 -0.5372  0.2531
  317MOL0     C41730   1.218   8.359   8.570  0.0372  0.5362  0.4135
  317MOL0     C41731   1.336   8.407   8.519  0.1088  0.2904 -0.6003
  317MOL0     C41732   1.476   8.346   8.537  0.4895 -1.4965 -1.4598
  317MOL0     C41733   1.551   8.418   8.654 -0.6348 -0.0571 -0.4359
  317MOL0     C41734   1.675   8.334   8.689 -1.1630 -0.8433  0.5266
  317MOL0     C41735   1.776   8.389   8.794  0.6217  0.5020  0.5190
  317MOL0     O41736   1.702   8.383   8.920 -0.4614 -0.3965 -0.3210
  317MOL0     C41737   1.783   8.394   9.023 -0.9593  0.2644 -0.0728
  317MOL0     C41738   1.748   8.325   9.138  0.6449  0.5193  0.2439
  317MOL0     C41739   1.819   8.324   9.257  0.1892 -0.8561  0.1802
  317MOL0     C41740   1.938   8.400   9.269 -0.9802 -0.2687 -0.3259
  317MOL0     C41741   2.014   8.398   9.392 -0.1886 -0.5413  0.7116
  317MOL0     O41742   1.966   8.336   9.501  0.5203  0.2012  0.9814
  317MOL0     C41743   2.043   8.332   9.614  0.1631  0.9686  0.7632
  317MOL0     C41744   2.086   8.443   9.686 -1.2372 -0.3813  0.8852
  317MOL0     C41745   2.168   8.421   9.807 -0.3250 -0.2803 -1.1421
  317MOL0     C41746   2.191   8.299   9.860 -0.9652 -0.1541 -0.0804
  317MOL0     O41747   2.279   8.293   9.969 -0.4228  0.8136 -0.2742
  317MOL0     C41748   2.395   8.205   9.946 -0.2952  0.2597  0.0434
  317MOL0     C41749   2.380   8.071  10.014 -0.7574 -0.0497  0.0795
  317MOL0     C41750   2.481   7.961   9.970 -1.4029 -0.0753  0.3425
  317MOL0     C41751   2.627   7.987  10.039  1.1618 -0.9063 -0.0957
  317MOL0     C41752   2.712   7.868  10.008 -1.0597  0.9155  0.1213
  317MOL0     C41753   2.816   7.831  10.123 -1.3671  0.4065  0.5649
  317MOL0     C41754   2.904   7.946  10.144  0.1486 -0.0297 -0.4422
  317MOL0     C41755   3.025   7.921  10.231  0.7766 -0.5991  0.3955
  317MOL0    Cl41756   2.984   7.839  10.379 -0.4554 -0.2867  0.3881
  317MOL0     C41757   2.129   8.189   9.801  0.6286  0.0131 -0.4428
  317MOL0     C41758   2.066   8.201   9.676  1.2280 -0.4702 -0.1350
  317MOL0     O41759   2.124   8.456   9.379 -0.5896  0.0530 -0.0522
  317MOL0     C41760   1.990   8.454   9.151  0.2780  0.5755  0.1685
  317MOL0     C41761   1.912   8.454   9.028  0.7468 -0.2640 -1.3868
  317MOL0     N41762   1.294   8.523   8.456 -0.4581  0.8299 -0.0874
  317MOL0     N41763   1.169   8.540   8.450 -0.5957 -0.6382 -0.4797
  317MOL0     C41764   0.166   8.656   8.787 -0.4605  0.2708  0.0451
  317MOL0     C41765   0.107   8.669   8.911 -0.3444 -0.8374  0.1023
  317MOL0     C41766  -0.043   8.844   9.310 -0.5528 -1.0875 -0.6397
  317MOL0     C41767  -0.172   8.890   9.282 -0.3327  0.1724  0.2367
  317MOL0     C41768  -0.252   8.937   9.382  1.3824 -0.6144 -0.3598
  317MOL0     C41769  -0.217   8.932   9.519  0.5578  0.6117  0.0187
  317MOL0     O41770  -0.300   8.966   9.624 -0.6979 -0.1509  0.4688
  317MOL0     C41771  -0.391   9.079   9.607  1.1050  0.4375  0.1805
  317MOL0     C41772  -0.448   9.126   9.736 -0.2056 -0.6836 -0.1221
  317MOL0     C41773  -0.524   9.028   9.812  1.1769 -0.0347 -0.0885
  317MOL0     C41774  -0.666   9.017   9.754 -0.2668 -0.2237  0.0417
  317MOL0     C41775  -0.752   9.107   9.830  0.6398  0.5002 -0.7160
  317MOL0     C41776  -0.846   9.177   9.869  0.3489  0.7513  1.2444
  317MOL0     C41777  -0.091   8.895   9.543 -0.3787  0.7507 -0.0622
  317MOL0     C41778   0.004   8.855   9.445  0.2537 -0.2743  0.5847
  317MOL0     H41779   0.129   8.999   8.965  0.0220  1.0230 -1.4156
  317MOL0     H41780   0.253   8.978   8.742  3.1034 -1.5493  0.5239
  317MOL0     H41781   0.382   8.923   8.591 -2.4958 -0.1025  1.6020
  317MOL0     H41782   0.366   8.841   8.434 -0.0153  2.6472 -0.2841
  317MOL0     H41783   0.575   8.828   8.494 -1.2452  3.3257  1.6891
  317MOL0     H41784   0.522   8.666   8.528 -0.4015 -0.5349  2.1581
  317MOL0     H41785   0.504   8.731   8.775  4.2833 -3.4009  1.6471
  317MOL0     H41786   0.598   8.874   8.718  3.5067 -1.4742  4.1909
  317MOL0     H41787   0.670   8.605   8.782  0.7591  2.4067  1.7762
  317MOL0     H41788   0.701   8.616   8.602  0.5154  0.3208 -0.4687
  317MOL0     H41789   0.842   8.733   8.838 -2.7271  4.2351 -0.0087
  317MOL0     H41790   0.829   8.840   8.692  0.1020  0.0426  0.8721
  317MOL0     H41791   1.037   8.701   8.705 -0.4660  0.1509 -0.7677
  317MOL0     H41792   0.929   8.684   8.560 -2.3356 -0.2173  0.7142
  317MOL0     H41793   1.032   8.493   8.772  0.7891  4.1746  0.2802
  317MOL0     H41794   0.853   8.490   8.745 -2.1879 -1.7004 -5.0690
  317MOL0     H41795   0.902   8.447   8.495 -3.5907 -0.7379  2.6098
  317MOL0     H41796   0.963   8.329   8.613 -0.6609  1.1954  3.4804
  317MOL0     H41797   1.198   8.264   8.618  1.2975 -1.2627 -2.2887
  317MOL0     H41798   1.541   8.363   8.450 -1.8075  2.3178 -2.6749
  317MOL0     H41799   1.465   8.239   8.557 -1.4638 -0.7644  2.2262
  317MOL0     H41800   1.493   8.432   8.745  2.6046 -0.7885  1.9053
  317MOL0     H41801   1.573   8.522   8.628 -1.3571 -0.2144 -1.7638
  317MOL0     H41802   1.665   8.228   8.715  0.4115 -1.1131  0.1172
  317MOL0     H41803   1.737   8.345   8.599 -0.7274  5.5540  1.1655
  317MOL0     H41804   1.803   8.491   8.764  2.1827 -0.3559 -1.2121
  317MOL0     H41805   1.860   8.319   8.783  0.1697  0.2712 -2.4817
  317MOL0     H41806   1.650   8.278   9.131  1.3187 -0.9290  0.1318
  317MOL0     H41807   1.781   8.258   9.333  1.7858 -0.3458  1.4895
  317MOL0     H41808   2.087   8.545   9.649  0.1621 -1.1661 -1.4646
  317MOL0     H41809   2.221   8.498   9.861 -2.3928 -0.1699  0.8787
  317MOL0     H41810   2.491   8.246   9.976 -0.8074 -0.6322  3.2383
  317MOL0     H41811   2.396   8.182   9.839 -1.7434 -0.4165  0.1498
  317MOL0     H41812   2.285   8.022   9.993 -1.3380  0.6837  0.9076
  317MOL0     H41813   2.378   8.092  10.122 -1.3922  1.2296 -0.1631
  317MOL0     H41814   2.495   7.957   9.861 -0.3642  2.0288  0.3516
  317MOL0     H41815   2.442   7.870  10.016  1.9858 -1.7500  0.2304
  317MOL0     H41816   2.668   8.078   9.994 -1.7440 -0.7431 -2.8280
  317MOL0     H41817   2.615   7.995  10.147  2.4243 -0.2645  0.0093
  317MOL0     H41818   2.757   7.896   9.913 -0.9133  1.0361  0.2241
  317MOL0     H41819   2.659   7.773  10.002 -0.5734  0.6314  0.2604
  317MOL0     H41820   2.880   7.746  10.097  3.9055  4.2131 -0.7014
  317MOL0     H41821   2.765   7.805  10.216 -1.9128  3.0062  1.0777
  317MOL0     H41822   2.936   7.979  10.045 -0.3851 -2.0269 -1.3337
  317MOL0     H41823   2.843   8.024  10.189 -1.5697 -1.4193 -0.2451
  317MOL0     H41824   3.057   8.021  10.262 -1.6306  0.4991 -0.4452
  317MOL0     H41825   3.102   7.861  10.181 -0.9345 -0.8406 -2.1140
  317MOL0     H41826   2.143   8.086   9.832  0.3608  0.5979  1.7269
  317MOL0     H41827   2.039   8.108   9.628  0.8381 -2.1006  3.0237
  317MOL0     H41828   2.089   8.499   9.153  0.5007  0.0976  2.0139
  317MOL0     H41829   1.960   8.492   8.938  3.6848 -2.7050 -0.9912
  317MOL0     H41830   0.194   8.562   8.741 -0.1700  1.0802 -1.4935
  317MOL0     H41831   0.058   8.586   8.961  0.1146 -0.5925  0.9680
  317MOL0     H41832  -0.192   8.882   9.175 -0.7147 -1.0492  0.3791
  317MOL0     H41833  -0.352   8.971   9.356  0.6925 -3.3542 -1.6133
  317MOL0     H41834  -0.465   9.057   9.530  2.3925 -0.9579 -0.7107
  317MOL0     H41835  -0.324   9.155   9.567 -1.2521  3.6546  1.8130
  317MOL0     H41836  -0.367   9.163   9.799  0.8411 -3.8666  0.5859
  317MOL0     H41837  -0.511   9.215   9.723  2.7076  1.6138  0.3646
  317MOL0     H41838  -0.528   9.059   9.917 -1.5091  1.3195 -0.5024
  317MOL0     H41839  -0.478   8.929   9.809  2.1311  0.4161 -1.1448
  317MOL0     H41840  -0.662   9.023   9.644  0.8402  4.3352  0.1125
  317MOL0     H41841  -0.704   8.920   9.787 -0.0033 -1.2491 -2.4382
  317MOL0     H41842  -0.928   9.241   9.896  0.0526  0.7703  0.3121
  317MOL0     H41843  -0.045   8.892   9.641  1.1697  2.8057 -0.6563
  317MOL0     H41844   0.106   8.827   9.468  2.2628  3.8224 -2.2014
  318MOL0     O41845   3.827   9.249   7.787 -0.0869  0.4661  0.1108
  318MOL0     C41846   3.868   9.220   7.901 -0.5766  0.2224  0.0058
  318MOL0     O41847   3.810   9.119   7.985  0.8041  0.2475 -0.3542
  318MOL0     C41848   3.684   9.077   7.950  0.2448  0.2418 -0.0980
  318MOL0     C41849   3.580   9.166   7.978 -0.2301  0.6910  0.2909
  318MOL0     C41850   3.449   9.136   7.924 -0.0207  0.0620 -0.1043
  318MOL0     C41851   3.420   9.013   7.865  0.7265  0.4228 -0.0566
  318MOL0     O41852   3.295   8.970   7.819 -0.6118  0.5599 -0.9646
  318MOL0     C41853   3.218   9.080   7.774  0.0394  0.4311  0.0905
  318MOL0     C41854   3.093   9.034   7.705 -0.2017  0.0003 -0.0283
  318MOL0     C41855   3.007   9.163   7.653 -0.1452  0.5933 -0.8936
  318MOL0     C41856   2.874   9.125   7.573  0.3156  0.1424 -0.2984
  318MOL0     C41857   2.773   9.246   7.553 -0.0188 -0.8207  0.0364
  318MOL0     C41858   2.832   9.347   7.458  0.2904  0.2303 -0.4545
  318MOL0     C41859   2.733   9.472   7.455  0.4580  0.1196 -0.5316
  318MOL0     C41860   2.778   9.571   7.356  0.4296 -0.2536 -0.0916
  318MOL0     N41861   2.694   9.687   7.344  0.1523  0.2570 -0.6345
  318MOL0     C41862   2.666   9.781   7.441  0.2983 -0.2650 -0.3364
  318MOL0     C41863   2.559   9.847   7.379  0.5334  0.5766 -0.4983
  318MOL0     C41864   2.477   9.964   7.429  0.5934 -0.6375  0.0792
  318MOL0     C41865   2.345   9.897   7.475  0.5641 -0.3445  0.2976
  318MOL0     C41866   2.352   9.904   7.637  0.8042 -0.2626 -0.8349
  318MOL0     C41867   2.315  10.039   7.685  0.2237  0.6410  0.5484
  318MOL0     O41868   2.204  10.087   7.606 -0.5105 -0.1241  0.0172
  318MOL0     C41869   2.165  10.212   7.636 -0.6110 -0.3132  0.7420
  318MOL0     C41870   2.024  10.243   7.596  0.0517  0.6815  0.1175
  318MOL0     C41871   1.963  10.355   7.646  0.9098  0.4752 -0.5596
  318MOL0     C41872   2.044  10.454   7.718  0.7987  0.0890 -0.6306
  318MOL0     C41873   1.977  10.589   7.750  0.6151 -0.0550  0.9996
  318MOL0     O41874   1.839  10.590   7.752 -0.4399  0.0197  0.5620
  318MOL0     C41875   1.775  10.695   7.802 -0.2537  0.6368 -0.5202
  318MOL0     C41876   1.812  10.770   7.918  0.5140  0.2738 -0.1582
  318MOL0     C41877   1.737  10.867   7.982 -0.1879 -0.7903  0.5934
  318MOL0     C41878   1.606  10.884   7.941  0.5466 -0.5668 -0.9925
  318MOL0     O41879   1.525  10.977   7.996  0.4079 -0.0738 -0.4792
  318MOL0     C41880   1.398  10.932   8.048  0.5342  0.0448  0.1562
  318MOL0     C41881   1.352  11.010   8.168 -0.2476  1.2422 -0.4811
  318MOL0     C41882   1.333  11.156   8.127  0.8488 -0.7300 -0.8755
  318MOL0     C41883   1.251  11.236   8.233  0.0174  0.2179  0.2657
  318MOL0     C41884   1.321  11.245   8.370  0.0645 -0.1230  0.1473
  318MOL0     C41885   1.318  11.383   8.443 -0.1632 -0.0380 -0.0532
  318MOL0     C41886   1.417  11.379   8.563  0.2170 -0.4127  0.4236
  318MOL0     C41887   1.381  11.480   8.666  0.0827 -0.5083  0.1521
  318MOL0    Cl41888   1.480  11.438   8.804 -0.1135  0.1020 -0.4744
  318MOL0     C41889   1.555  10.806   7.835 -0.2017  1.1799 -1.3579
  318MOL0     C41890   1.641  10.714   7.763  2.0819  0.3780 -0.1334
  318MOL0     O41891   2.046  10.682   7.781  0.2354 -0.0253  0.2476
  318MOL0     C41892   2.176  10.431   7.727 -1.3509 -0.3408 -0.2320
  318MOL0     C41893   2.247  10.311   7.691  1.2743 -0.4273  0.3501
  318MOL0     N41894   2.529   9.791   7.262 -0.1104  0.5891  0.8695
  318MOL0     N41895   2.600   9.684   7.245 -0.5938 -1.3822 -0.9508
  318MOL0     C41896   3.522   8.922   7.861  0.2266 -0.7173  0.6939
  318MOL0     C41897   3.656   8.953   7.897  1.4540  0.2953 -0.3950
  318MOL0     C41898   4.005   9.279   7.938  0.1529 -0.2268 -0.8489
  318MOL0     C41899   4.073   9.365   7.862 -0.5237  0.9051 -0.4326
  318MOL0     C41900   4.205   9.414   7.908 -0.1781 -0.5310 -0.3543
  318MOL0     C41901   4.254   9.380   8.038 -0.3950 -1.5547  0.8726
  318MOL0     O41902   4.368   9.424   8.093 -0.6644  0.4716  0.4617
  318MOL0     C41903   4.346   9.526   8.192 -0.2506 -0.5263 -0.8133
  318MOL0     C41904   4.477   9.576   8.237 -0.1147 -0.6584  0.0570
  318MOL0     C41905   4.467   9.717   8.302  0.7780 -0.4894  0.1175
  318MOL0     C41906   4.445   9.702   8.450 -0.5153 -0.3513  0.1649
  318MOL0     C41907   4.566   9.680   8.521  0.1982 -0.1799 -0.4213
  318MOL0     C41908   4.663   9.677   8.600 -0.0479  0.3674 -0.4459
  318MOL0     C41909   4.175   9.298   8.118  0.3275 -0.2506  0.1250
  318MOL0     C41910   4.053   9.245   8.068 -0.4118  0.0258 -0.1272
  318MOL0     H41911   3.604   9.263   8.020  1.9161  0.3324 -0.0029
  318MOL0     H41912   3.362   9.197   7.946 -0.6141  0.6475 -3.5128
  318MOL0     H41913   3.277   9.142   7.706  0.2507  0.6677  0.4821
  318MOL0     H41914   3.188   9.151   7.852  2.5673  0.2493  1.3440
  318MOL0     H41915   3.046   8.978   7.787  3.3027 -2.3695  0.5949
  318MOL0     H41916   3.126   8.982   7.614 -1.7050  1.0275 -1.2196
  318MOL0     H41917   3.078   9.225   7.597 -1.2681 -1.1875 -4.5673
  318MOL0     H41918   2.977   9.225   7.738  3.2790  0.4311  0.6024
  318MOL0     H41919   2.893   9.077   7.477 -1.6408  4.7526 -3.3411
  318MOL0     H41920   2.809   9.049   7.618  0.0719  1.0453  0.9279
  318MOL0     H41921   2.754   9.288   7.652  1.5091  1.0802 -0.4218
  318MOL0     H41922   2.681   9.219   7.500  2.4147 -1.7075 -4.2195
  318MOL0     H41923   2.825   9.313   7.354 -1.5754 -2.7742  0.5161
  318MOL0     H41924   2.933   9.369   7.491 -0.3807  0.8078  1.3557
  318MOL0     H41925   2.630   9.436   7.442 -0.1472  2.0624 -1.6195
  318MOL0     H41926   2.728   9.515   7.555 -5.7188  0.8446 -0.7283
  318MOL0     H41927   2.779   9.526   7.256 -1.9735 -1.7340  0.4576
  318MOL0     H41928   2.879   9.600   7.386 -0.2263 -2.2175  5.0518
  318MOL0     H41929   2.712   9.800   7.537 -0.4212  1.6938 -0.3425
  318MOL0     H41930   2.449  10.026   7.342 -5.1820 -0.4253  1.7013
  318MOL0     H41931   2.540  10.016   7.501  2.5701 -4.1097  1.0504
  318MOL0     H41932   2.348   9.793   7.444 -2.8152 -0.5306  0.2922
  318MOL0     H41933   2.248   9.931   7.439  0.4769 -1.4308 -0.5301
  318MOL0     H41934   2.281   9.835   7.683  1.5762  0.9527  2.4472
  318MOL0     H41935   2.453   9.870   7.661  0.4467 -0.7514 -0.0169
  318MOL0     H41936   2.407  10.098   7.698 -0.6287  1.4999  3.2355
  318MOL0     H41937   2.287  10.023   7.789  4.6841 -1.6311  1.6605
  318MOL0     H41938   1.962  10.166   7.550  3.3363 -0.8360 -2.1752
  318MOL0     H41939   1.856  10.367   7.635  0.0147 -2.2368  3.2030
  318MOL0     H41940   1.906  10.743   7.964 -0.5001 -0.6169  1.5060
  318MOL0     H41941   1.777  10.931   8.059 -0.1603 -0.8956  0.6656
  318MOL0     H41942   1.407  10.827   8.078 -0.4863 -0.8598 -2.3803
  318MOL0     H41943   1.320  10.939   7.971  2.0802  0.4579 -1.4224
  318MOL0     H41944   1.438  11.006   8.236 -2.6907  0.3333  2.8021
  318MOL0     H41945   1.267  10.954   8.208  1.4620 -0.4734  0.9496
  318MOL0     H41946   1.297  11.173   8.025 -0.4420  1.4212 -0.1451
  318MOL0     H41947   1.437  11.190   8.129  1.2132 -1.7218 -2.0831
  318MOL0     H41948   1.240  11.337   8.192 -2.8204  0.2168  0.7692
  318MOL0     H41949   1.154  11.185   8.241 -2.5755  4.1158 -2.3961
  318MOL0     H41950   1.424  11.213   8.353 -0.9504 -1.6995 -5.0841
  318MOL0     H41951   1.282  11.157   8.421  3.0195 -2.9195 -1.9900
  318MOL0     H41952   1.223  11.412   8.488 -0.2447  0.1778 -0.3717
  318MOL0     H41953   1.345  11.461   8.372 -0.4979 -0.4672 -0.6572
  318MOL0     H41954   1.404  11.282   8.612  0.9494 -1.0739 -0.6611
  318MOL0     H41955   1.516  11.399   8.523  0.0712 -1.5459 -0.5744
  318MOL0     H41956   1.280  11.482   8.709  0.4132  4.6454  1.3668
  318MOL0     H41957   1.390  11.585   8.637 -2.4164  0.5913  2.7823
  318MOL0     H41958   1.452  10.832   7.811 -1.0957 -1.3921 -0.6564
  318MOL0     H41959   1.618  10.666   7.669 -0.4142 -0.8398  1.0246
  318MOL0     H41960   2.223  10.510   7.785 -2.3686  0.2576 -0.1820
  318MOL0     H41961   2.354  10.316   7.711  1.8907  2.2592 -2.6430
  318MOL0     H41962   3.501   8.827   7.814  0.1651 -1.0441  1.3672
  318MOL0     H41963   3.736   8.887   7.865 -2.4379 -4.0809 -2.0848
  318MOL0     H41964   4.028   9.391   7.767 -1.2465 -1.4023 -0.7831
  318MOL0     H41965   4.270   9.478   7.851  2.7816 -3.6138 -0.7829
  318MOL0     H41966   4.281   9.496   8.275  0.7773  2.0742  1.0656
  318MOL0     H41967   4.292   9.614   8.156  0.6567 -0.7562 -2.8349
  318MOL0     H41968   4.530   9.511   8.308  0.4830 -1.5728 -1.1776
  318MOL0     H41969   4.545   9.585   8.151 -0.7855 -1.3979 -0.5664
  318MOL0     H41970   4.378   9.770   8.266 -0.2154  1.4990  4.7572
  318MOL0     H41971   4.563   9.766   8.288  0.5289  0.0506  0.2824
  318MOL0     H41972   4.410   9.796   8.493  1.8846  0.2622  0.9113
  318MOL0     H41973   4.385   9.615   8.479 -0.1099 -0.1082  1.7925
  318MOL0     H41974   4.751   9.677   8.662 -2.6545 -0.5840  3.6330
  318MOL0     H41975   4.192   9.283   8.224 -1.7004  4.5213  1.3623
  318MOL0     H41976   4.001   9.175   8.133 -0.3124  0.0918  0.0230
  319MOL0     O41977   5.266   9.315   9.260  0.2170 -0.0263 -0.5758
  319MOL0     C41978   5.375   9.294   9.194 -0.3512  0.0250 -0.1692
  319MOL0     O41979   5.438   9.394   9.110 -0.1867  0.1494 -0.4975
  319MOL0     C41980   5.356   9.502   9.087  0.2429 -0.2942 -0.0365
  319MOL0     C41981   5.366   9.543   8.960 -0.3885 -0.0182  0.5038
  319MOL0     C41982   5.305   9.665   8.928  1.1707  0.0506  0.4766
  319MOL0     C41983   5.217   9.734   9.016  0.0757  0.8454  0.2286
  319MOL0     O41984   5.127   9.830   8.976  0.1689 -0.0878  1.0106
  319MOL0     C41985   5.000   9.787   8.925 -0.1977  0.1675  1.2761
  319MOL0     C41986   4.884   9.899   8.932  0.2319 -0.5896 -0.5140
  319MOL0     C41987   4.860   9.951   9.082  0.4222  0.8340 -0.0690
  319MOL0     C41988   4.807  10.096   9.091 -0.3674  0.5769 -0.2214
  319MOL0     C41989   4.909  10.203   9.056 -0.0599  0.2756 -0.0200
  319MOL0     C41990   4.855  10.342   9.086  0.5590  0.0074  0.9128
  319MOL0     C41991   4.745  10.393   8.988 -0.6050 -0.9464  0.9351
  319MOL0     C41992   4.600  10.401   9.038  0.8017  0.5251 -0.3367
  319MOL0     N41993   4.575  10.488   9.149 -0.2747 -0.3659 -0.5902
  319MOL0     C41994   4.601  10.622   9.154 -0.1007  0.6368  0.1425
  319MOL0     C41995   4.557  10.660   9.273  1.5045  0.1039 -0.0597
  319MOL0     C41996   4.591  10.798   9.330 -0.1217  0.3339 -0.1577
  319MOL0     C41997   4.734  10.834   9.317 -0.8742  0.6599  0.2519
  319MOL0     C41998   4.820  10.765   9.424 -0.0859  0.0569 -0.2273
  319MOL0     C41999   4.967  10.788   9.403  0.9010  0.4494 -0.2566
  319MOL0     O42000   5.039  10.672   9.358 -0.5896 -0.1592  0.4707
  319MOL0     C42001   5.182  10.681   9.340  1.3262  0.2720  0.5445
  319MOL0     C42002   5.249  10.803   9.321 -0.5754  0.4393 -0.3550
  319MOL0     C42003   5.384  10.811   9.306  0.3977 -0.2803 -0.2233
  319MOL0     C42004   5.448  10.690   9.289 -0.1666 -1.3689 -0.2153
  319MOL0     C42005   5.600  10.697   9.265  0.3099 -0.4457  0.4307
  319MOL0     O42006   5.666  10.820   9.258  0.1196 -0.4479 -0.4176
  319MOL0     C42007   5.794  10.826   9.200  0.1572 -0.2619 -0.9221
  319MOL0     C42008   5.850  10.739   9.104 -0.1690 -0.0905  0.2724
  319MOL0     C42009   5.964  10.767   9.043  0.5520 -0.0961  0.1110
  319MOL0     C42010   6.045  10.877   9.073  0.3049  0.5175  0.5003
  319MOL0     O42011   6.155  10.892   8.988 -0.7568  0.0328 -0.6266
  319MOL0     C42012   6.275  10.941   9.053 -0.0505 -0.2188 -0.9994
  319MOL0     C42013   6.348  10.815   9.101 -0.3649  0.7157 -0.4393
  319MOL0     C42014   6.472  10.832   9.197 -0.4752  0.5112 -0.1858
  319MOL0     C42015   6.557  10.700   9.207 -0.0148  0.1658  0.4879
  319MOL0     C42016   6.639  10.700   9.333 -0.5181 -0.1990 -0.0810
  319MOL0     C42017   6.699  10.566   9.368 -0.5621 -0.3309  0.4332
  319MOL0     C42018   6.815  10.581   9.467 -0.5527  0.5940  0.4809
  319MOL0     C42019   6.889  10.451   9.485  0.6414  0.1125 -0.0268
  319MOL0    Cl42020   6.799  10.333   9.582  0.2754  0.0374  0.0249
  319MOL0     C42021   5.992  10.968   9.166  0.1316 -0.2371  0.5627
  319MOL0     C42022   5.867  10.941   9.223 -0.3886 -0.0233 -0.4945
  319MOL0     O42023   5.639  10.585   9.238  0.2409  0.7516  0.4295
  319MOL0     C42024   5.384  10.569   9.310 -0.4192  0.5090  0.3154
  319MOL0     C42025   5.249  10.563   9.322 -0.8648 -0.0008 -0.4066
  319MOL0     N42026   4.516  10.552   9.360  0.2667  0.0312  0.3645
  319MOL0     N42027   4.531  10.448   9.276  0.0324  0.1079  0.1183
  319MOL0     C42028   5.219   9.702   9.151 -1.5193 -0.2536 -0.4629
  319MOL0     C42029   5.299   9.587   9.180 -0.8845 -1.3918  0.4932
  319MOL0     C42030   5.427   9.158   9.185  0.2065 -0.8246  0.0603
  319MOL0     C42031   5.340   9.050   9.190 -0.6857  0.8392 -0.5307
  319MOL0     C42032   5.390   8.923   9.168 -0.1270  0.1889  0.0175
  319MOL0     C42033   5.520   8.892   9.131 -0.8584  0.2886  0.5574
  319MOL0     O42034   5.556   8.758   9.115  0.2082 -0.6013  0.0367
  319MOL0     C42035   5.676   8.716   9.052 -1.4298 -0.3995 -0.2857
  319MOL0     C42036   5.648   8.671   8.912 -0.0460 -0.9563  0.0143
  319MOL0     C42037   5.720   8.551   8.883 -0.1467 -0.3143  0.1737
  319MOL0     C42038   5.686   8.492   8.743 -0.4709  0.4153 -0.1139
  319MOL0     C42039   5.772   8.387   8.702 -0.1036  0.6706 -0.2262
  319MOL0     C42040   5.812   8.282   8.653  0.1729 -0.5340  0.0659
  319MOL0     C42041   5.610   9.002   9.125 -0.4683  0.4874 -0.0557
  319MOL0     C42042   5.563   9.130   9.166  0.3190  1.4413 -0.6143
  319MOL0     H42043   5.407   9.482   8.880  0.4322 -0.8820  1.5433
  319MOL0     H42044   5.296   9.697   8.825 -0.4799  0.6574  0.7778
  319MOL0     H42045   4.963   9.707   8.991  0.3079  1.6394  3.4476
  319MOL0     H42046   5.000   9.745   8.824 -0.1968 -1.3539  1.8800
  319MOL0     H42047   4.792   9.863   8.884 -1.6921 -1.8047  3.6589
  319MOL0     H42048   4.935   9.983   8.882  1.3350 -0.5097  0.7060
  319MOL0     H42049   4.961   9.945   9.125  1.9061 -1.9764 -3.4749
  319MOL0     H42050   4.787   9.889   9.134  0.2437 -1.4987 -2.8918
  319MOL0     H42051   4.723  10.099   9.021 -1.1642  1.9102  0.7434
  319MOL0     H42052   4.767  10.120   9.189 -0.7660  3.9157 -1.0831
  319MOL0     H42053   4.937  10.203   8.950  3.0414 -1.6595  0.6766
  319MOL0     H42054   5.000  10.199   9.115 -1.9024  1.4308  3.1685
  319MOL0     H42055   4.937  10.411   9.065 -1.9852  2.7367 -0.9064
  319MOL0     H42056   4.829  10.360   9.190  0.9341 -0.9544  1.1866
  319MOL0     H42057   4.784  10.492   8.962 -0.3746 -0.8321  1.6755
  319MOL0     H42058   4.752  10.351   8.887  4.9492  3.0864 -0.8439
  319MOL0     H42059   4.574  10.299   9.067 -0.0149  0.6716 -0.5094
  319MOL0     H42060   4.539  10.426   8.950 -0.3579 -0.2954  0.2123
  319MOL0     H42061   4.648  10.676   9.073  2.7886 -2.4408 -0.4852
  319MOL0     H42062   4.559  10.795   9.434  0.7961  0.6971  0.1414
  319MOL0     H42063   4.525  10.864   9.272 -1.2796 -3.0632 -3.1313
  319MOL0     H42064   4.742  10.943   9.321 -0.0973  0.5577  2.5626
  319MOL0     H42065   4.766  10.817   9.213  1.0788  4.4349  0.0632
  319MOL0     H42066   4.788  10.797   9.524  2.9832 -1.3082  1.3534
  319MOL0     H42067   4.801  10.658   9.410 -2.4524  0.2820  0.8048
  319MOL0     H42068   5.020  10.819   9.494  1.5018  1.9021 -1.0731
  319MOL0     H42069   4.982  10.870   9.333  0.3537  1.3021  0.5876
  319MOL0     H42070   5.199  10.899   9.324 -1.2225  0.1265 -0.7948
  319MOL0     H42071   5.440  10.904   9.305 -1.3855  0.8848 -2.8499
  319MOL0     H42072   5.798  10.651   9.068 -1.2907  1.3770 -1.9526
  319MOL0     H42073   5.999  10.701   8.963 -0.8545  2.2035 -2.5774
  319MOL0     H42074   6.256  11.020   9.126  1.9578 -0.0926 -0.5456
  319MOL0     H42075   6.340  10.986   8.977  1.3778  0.7357  0.7264
  319MOL0     H42076   6.383  10.754   9.017 -1.2863 -2.0124  1.0175
  319MOL0     H42077   6.278  10.744   9.146  1.3397 -1.5025 -1.0947
  319MOL0     H42078   6.431  10.849   9.297  0.4640 -2.6060  0.8688
  319MOL0     H42079   6.535  10.916   9.169 -0.0166  1.3534  2.9646
  319MOL0     H42080   6.493  10.612   9.195 -1.1235  1.1752 -1.4105
  319MOL0     H42081   6.626  10.715   9.125 -1.5496  3.2509 -0.3769
  319MOL0     H42082   6.570  10.710   9.418 -2.5893 -0.0638 -1.7060
  319MOL0     H42083   6.705  10.787   9.340 -1.3543  0.7539 -2.9326
  319MOL0     H42084   6.734  10.521   9.275  2.2184 -0.3879  1.4090
  319MOL0     H42085   6.618  10.507   9.412 -1.2957  3.2864  4.5379
  319MOL0     H42086   6.887  10.653   9.427 -0.4880 -1.0825 -2.8178
  319MOL0     H42087   6.778  10.620   9.562  1.0405  2.1397  0.5241
  319MOL0     H42088   6.976  10.476   9.547 -1.1592  2.9538  1.5775
  319MOL0     H42089   6.926  10.409   9.391 -0.2723  1.0961 -0.8501
  319MOL0     H42090   6.052  11.051   9.204  0.8885 -1.0163  1.1142
  319MOL0     H42091   5.827  11.012   9.294 -1.1568  1.5714 -2.4197
  319MOL0     H42092   5.446  10.480   9.315 -1.2149 -0.0005  4.3083
  319MOL0     H42093   5.201  10.466   9.331 -2.6160  0.6964 -1.7495
  319MOL0     H42094   5.178   9.763   9.231 -2.3090 -0.2467 -0.8666
  319MOL0     H42095   5.312   9.572   9.287  0.8400 -1.7895  0.2468
  319MOL0     H42096   5.237   9.076   9.213 -0.9937 -0.1466 -0.7505
  319MOL0     H42097   5.319   8.840   9.167 -0.2682  0.2906 -1.7778
  319MOL0     H42098   5.717   8.634   9.112  0.5797 -0.2698 -1.3767
  319MOL0     H42099   5.748   8.799   9.055 -0.2143 -1.3804 -0.9440
  319MOL0     H42100   5.543   8.642   8.903 -0.2850 -1.1723  2.7864
  319MOL0     H42101   5.662   8.751   8.839  0.7338 -2.9703 -2.2095
  319MOL0     H42102   5.690   8.476   8.957 -3.7949  1.6209  0.8780
  319MOL0     H42103   5.826   8.575   8.896  0.0312  0.0988 -1.7168
  319MOL0     H42104   5.585   8.450   8.730 -1.0984  2.3193 -1.8884
  319MOL0     H42105   5.696   8.574   8.671 -0.2764  0.8754  0.4365
  319MOL0     H42106   5.845   8.198   8.596  1.1174  0.3961 -0.8025
  319MOL0     H42107   5.716   8.994   9.105 -0.1068  4.0052 -0.2181
  319MOL0     H42108   5.645   9.199   9.181  2.4191 -0.9693 -0.3568
  320MOL0     O42109   4.199   1.400   2.653 -0.5056 -0.2350 -0.1327
  320MOL0     C42110   4.185   1.301   2.722 -0.0919 -0.3468 -0.3894
  320MOL0     O42111   4.058   1.236   2.748  0.1678 -0.3949  0.1879
  320MOL0     C42112   3.945   1.314   2.714  0.1708  0.9168  0.0057
  320MOL0     C42113   3.929   1.451   2.711  0.1482 -0.9739  0.5323
  320MOL0     C42114   3.805   1.522   2.711 -0.9951 -0.5495 -0.1757
  320MOL0     C42115   3.688   1.449   2.715 -0.0006 -0.8590  0.5766
  320MOL0     O42116   3.563   1.500   2.733 -0.1037  0.1516  0.0347
  320MOL0     C42117   3.543   1.591   2.834 -0.4198  0.1009 -0.0549
  320MOL0     C42118   3.462   1.527   2.946 -1.0015  0.2815  0.4573
  320MOL0     C42119   3.378   1.636   3.021  0.0946  0.4528 -0.4639
  320MOL0     C42120   3.462   1.755   3.069  1.0845  0.0259  0.2454
  320MOL0     C42121   3.374   1.810   3.181  0.3716  0.7403  0.6403
  320MOL0     C42122   3.424   1.932   3.240 -0.4025  0.6240 -0.6701
  320MOL0     C42123   3.383   1.956   3.383 -0.0417  0.8602 -0.5966
  320MOL0     C42124   3.464   2.077   3.435  0.9087  0.8046 -0.8167
  320MOL0     N42125   3.440   2.089   3.580  0.2045 -0.2521 -0.5612
  320MOL0     C42126   3.315   2.081   3.641  0.3995 -0.6146  0.1751
  320MOL0     C42127   3.341   2.124   3.765  0.4813 -0.1792 -0.0444
  320MOL0     C42128   3.241   2.160   3.872 -0.1422  0.1725  0.4210
  320MOL0     C42129   3.208   2.303   3.899 -0.0460  0.5697 -0.1417
  320MOL0     C42130   3.126   2.319   4.023  0.7791  0.2935 -0.3695
  320MOL0     C42131   2.983   2.276   3.996 -0.2660 -0.4411  0.0867
  320MOL0     O42132   2.889   2.322   4.085  0.3896  0.3655  0.3748
  320MOL0     C42133   2.876   2.239   4.199  0.3436  0.6588 -0.3376
  320MOL0     C42134   2.742   2.225   4.238  1.2407  0.5242  0.1767
  320MOL0     C42135   2.698   2.154   4.351  0.4659  0.1387 -1.2217
  320MOL0     C42136   2.798   2.091   4.425 -0.1383  0.8138 -0.0801
  320MOL0     C42137   2.771   2.017   4.550 -0.2742  0.4244  0.1040
  320MOL0     O42138   2.644   2.020   4.594 -0.0196  1.0009 -0.3854
  320MOL0     C42139   2.609   1.948   4.704 -0.1956 -0.1245 -0.4806
  320MOL0     C42140   2.678   1.972   4.829  0.3794 -0.2652  0.3238
  320MOL0     C42141   2.640   1.908   4.940  0.4137  1.0664 -0.2460
  320MOL0     C42142   2.533   1.816   4.935 -0.0757  0.5854  0.6880
  320MOL0     O42143   2.489   1.762   5.052 -0.0385 -0.3136 -0.0820
  320MOL0     C42144   2.377   1.672   5.059  1.1585 -0.3900  0.1099
  320MOL0     C42145   2.364   1.611   5.203 -0.5417  0.2696 -0.5350
  320MOL0     C42146   2.339   1.734   5.291  0.8722  0.1583 -0.2199
  320MOL0     C42147   2.265   1.694   5.423 -0.0879 -0.9349  1.0324
  320MOL0     C42148   2.247   1.826   5.509 -0.6586 -0.5543  0.5091
  320MOL0     C42149   2.180   1.794   5.646 -0.1324  0.1474  0.6311
  320MOL0     C42150   2.213   1.908   5.755 -0.4766  0.2292 -0.7548
  320MOL0     C42151   2.149   2.046   5.734 -0.3917  0.6059  1.1913
  320MOL0    Cl42152   2.206   2.165   5.861  0.2971  0.1251  0.0446
  320MOL0     C42153   2.480   1.773   4.811 -0.0089  0.5231  0.5763
  320MOL0     C42154   2.519   1.838   4.693  0.1548 -0.2535 -0.9292
  320MOL0     O42155   2.861   1.948   4.597 -0.3812  0.1773 -0.4443
  320MOL0     C42156   2.939   2.093   4.393 -0.4591 -0.3259  0.4131
  320MOL0     C42157   2.969   2.167   4.270  0.2060  0.4798 -0.2001
  320MOL0     N42158   3.476   2.165   3.774  0.4669  0.6909  0.8805
  320MOL0     N42159   3.529   2.151   3.663  0.8641 -0.0745 -0.6479
  320MOL0     C42160   3.689   1.310   2.709 -0.9360 -0.9279 -0.2212
  320MOL0     C42161   3.819   1.251   2.706  0.4730  0.2740 -0.3760
  320MOL0     C42162   4.303   1.232   2.765  0.1152 -0.4637 -0.6099
  320MOL0     C42163   4.429   1.288   2.786 -0.7083  0.6195 -0.6447
  320MOL0     C42164   4.534   1.217   2.848 -0.0640  0.0379  0.2201
  320MOL0     C42165   4.523   1.080   2.881  0.1667 -0.0423  0.7660
  320MOL0     O42166   4.625   1.000   2.941 -0.4239 -0.9688 -0.5176
  320MOL0     C42167   4.582   0.933   3.066  0.6163 -0.1050  0.0740
  320MOL0     C42168   4.704   0.886   3.148 -0.5332 -0.6725 -0.0802
  320MOL0     C42169   4.759   0.754   3.086  0.3677  0.7841 -0.2541
  320MOL0     C42170   4.671   0.626   3.117  0.0536 -0.1937 -0.8319
  320MOL0     C42171   4.569   0.586   3.018  0.4358 -0.2471 -0.0406
  320MOL0     C42172   4.478   0.575   2.937 -1.0121  0.9020 -0.1215
  320MOL0     C42173   4.402   1.020   2.848 -0.3693 -0.0365 -0.8360
  320MOL0     C42174   4.291   1.099   2.795 -0.1760  1.0286 -0.0230
  320MOL0     H42175   4.016   1.514   2.726  0.0900 -0.6164 -0.5562
  320MOL0     H42176   3.796   1.630   2.707  0.9458 -0.1771  2.7512
  320MOL0     H42177   3.480   1.669   2.792 -4.0958 -3.1924 -1.1482
  320MOL0     H42178   3.636   1.637   2.870 -0.4765  1.5448 -1.6533
  320MOL0     H42179   3.527   1.462   3.005 -0.3124  2.8068  2.6931
  320MOL0     H42180   3.389   1.463   2.896 -0.1675  0.7143 -1.3699
  320MOL0     H42181   3.336   1.581   3.105  3.8624 -1.2785  0.5263
  320MOL0     H42182   3.303   1.678   2.954 -0.3142 -0.3092 -0.4951
  320MOL0     H42183   3.564   1.727   3.099  0.8792 -2.2116 -0.9015
  320MOL0     H42184   3.466   1.843   3.005  1.2587  1.2730  1.8951
  320MOL0     H42185   3.363   1.732   3.257 -0.0888 -0.9492 -1.0900
  320MOL0     H42186   3.271   1.819   3.144 -0.9205 -4.7378  1.9654
  320MOL0     H42187   3.403   2.016   3.172 -1.5924 -0.0301 -1.1373
  320MOL0     H42188   3.533   1.923   3.244 -0.5800 -1.3097  0.6360
  320MOL0     H42189   3.275   1.976   3.385 -0.7409 -2.4239  0.3757
  320MOL0     H42190   3.391   1.871   3.451  0.8970  0.0629 -1.6790
  320MOL0     H42191   3.418   2.163   3.386 -3.6430  0.5709  2.3591
  320MOL0     H42192   3.572   2.067   3.420  0.9952  2.7340 -1.7567
  320MOL0     H42193   3.220   2.058   3.594  0.4158  0.8262 -0.6326
  320MOL0     H42194   3.275   2.106   3.961 -0.1313 -2.1307 -0.9037
  320MOL0     H42195   3.149   2.114   3.834 -0.0083 -0.2056  0.5495
  320MOL0     H42196   3.153   2.351   3.817  1.4646  1.4397 -0.6948
  320MOL0     H42197   3.294   2.367   3.921  1.1787 -1.0200 -0.1697
  320MOL0     H42198   3.172   2.287   4.116  1.1750  0.6125 -0.4561
  320MOL0     H42199   3.113   2.426   4.037 -1.6403 -0.2658  2.6809
  320MOL0     H42200   2.977   2.167   3.990  0.5468 -0.5129  0.3889
  320MOL0     H42201   2.962   2.315   3.896  1.0725  1.3306  0.4281
  320MOL0     H42202   2.663   2.268   4.177 -0.4418  2.1661  3.2884
  320MOL0     H42203   2.595   2.167   4.380  0.2644  0.8465 -2.1878
  320MOL0     H42204   2.766   2.035   4.828 -1.9144  3.2521 -0.3659
  320MOL0     H42205   2.677   1.929   5.040 -0.6150 -0.7445  0.5598
  320MOL0     H42206   2.383   1.589   4.987 -2.8281 -2.5906  2.0013
  320MOL0     H42207   2.297   1.734   5.018  1.9179 -0.3506 -1.3813
  320MOL0     H42208   2.460   1.571   5.236  0.2192  2.5666  0.2302
  320MOL0     H42209   2.277   1.544   5.193 -2.1888  2.0365  1.0959
  320MOL0     H42210   2.268   1.796   5.238 -1.6149  0.0982  2.7306
  320MOL0     H42211   2.433   1.787   5.308  0.8285  0.3451 -0.5570
  320MOL0     H42212   2.166   1.650   5.411  0.3578 -1.7166  0.1082
  320MOL0     H42213   2.341   1.633   5.474  1.0576 -2.1253 -1.8973
  320MOL0     H42214   2.192   1.892   5.441  1.0871 -0.1158 -0.5178
  320MOL0     H42215   2.348   1.862   5.528  0.6686 -2.0286 -2.9648
  320MOL0     H42216   2.229   1.715   5.703 -0.1284  0.0040  0.4294
  320MOL0     H42217   2.071   1.783   5.640 -0.0586  0.3273 -3.6025
  320MOL0     H42218   2.172   1.878   5.852  0.4849  1.9996  0.2553
  320MOL0     H42219   2.321   1.914   5.768 -0.5390  0.1417 -0.1941
  320MOL0     H42220   2.041   2.026   5.739 -0.1348 -0.9916  0.8532
  320MOL0     H42221   2.190   2.065   5.635 -5.0563 -1.5960 -1.5117
  320MOL0     H42222   2.404   1.697   4.795 -0.0856  1.0207 -1.7668
  320MOL0     H42223   2.466   1.818   4.601  0.1710 -0.3579 -0.9164
  320MOL0     H42224   3.019   2.042   4.447 -0.6953  0.1090  1.1791
  320MOL0     H42225   3.072   2.164   4.239  0.2704 -1.4616  0.0571
  320MOL0     H42226   3.604   1.246   2.729  0.0482 -1.2006  3.8902
  320MOL0     H42227   3.820   1.142   2.703  1.5126  0.2295  0.9679
  320MOL0     H42228   4.442   1.395   2.771 -3.9463  1.1635 -0.3655
  320MOL0     H42229   4.625   1.273   2.869  0.0315  0.1376 -0.4426
  320MOL0     H42230   4.512   0.859   3.026  1.0327  0.2184 -1.3298
  320MOL0     H42231   4.529   1.007   3.126 -0.2538 -0.5401 -0.1426
  320MOL0     H42232   4.780   0.965   3.147 -0.0500 -1.1076 -2.2190
  320MOL0     H42233   4.686   0.856   3.252 -1.3421 -1.9251 -0.5674
  320MOL0     H42234   4.856   0.738   3.133  1.6181  1.8209 -2.3260
  320MOL0     H42235   4.772   0.753   2.978 -2.3723  2.6220 -0.6978
  320MOL0     H42236   4.735   0.540   3.138  1.2133  0.6546 -0.7868
  320MOL0     H42237   4.614   0.650   3.208  2.2238  0.5507  0.3889
  320MOL0     H42238   4.414   0.562   2.852  0.1740 -0.0740 -0.9034
  320MOL0     H42239   4.364   0.921   2.871  0.2926 -0.1556 -0.2075
  320MOL0     H42240   4.211   1.038   2.756 -0.4704  1.8070 -0.6727
  321MOL0     O42241   3.981   6.863   5.487 -0.4734 -0.3514 -0.6488
  321MOL0     C42242   3.944   6.872   5.605  0.9285  0.9200  0.3951
  321MOL0     O42243   3.939   6.986   5.681  0.2744  0.0891 -0.8946
  321MOL0     C42244   3.979   7.092   5.608 -0.8177 -0.9068 -0.8092
  321MOL0     C42245   3.925   7.146   5.489 -0.7096  1.1894 -0.2013
  321MOL0     C42246   3.971   7.260   5.421 -0.3003  0.3792 -0.8004
  321MOL0     C42247   4.094   7.313   5.475  0.6096  0.3596 -0.5103
  321MOL0     O42248   4.120   7.439   5.415 -0.0157 -0.6763  0.6779
  321MOL0     C42249   4.256   7.489   5.435  0.4930 -0.2016  0.1463
  321MOL0     C42250   4.232   7.630   5.371 -0.2702  0.0340 -0.1109
  321MOL0     C42251   4.194   7.717   5.488 -0.0136 -0.9577  0.7677
  321MOL0     C42252   4.143   7.851   5.436  0.4933  0.0321 -0.0094
  321MOL0     C42253   4.065   7.925   5.553  1.1601 -0.2168 -0.2562
  321MOL0     C42254   4.033   8.077   5.539 -0.3999  0.3843 -0.4834
  321MOL0     C42255   3.926   8.087   5.429  0.8222 -0.9162  0.4492
  321MOL0     C42256   3.902   8.229   5.381  0.6287 -2.0940 -0.2537
  321MOL0     N42257   4.018   8.293   5.321 -0.1532  0.7867 -0.3285
  321MOL0     C42258   4.097   8.233   5.224  0.6423  0.0943  0.1235
  321MOL0     C42259   4.160   8.338   5.165  0.4804  0.3905 -1.0135
  321MOL0     C42260   4.266   8.304   5.071 -1.2085  0.0021 -0.3965
  321MOL0     C42261   4.209   8.284   4.929  0.3000 -0.8672 -0.1846
  321MOL0     C42262   4.280   8.181   4.848  0.3881 -0.1186  0.2106
  321MOL0     C42263   4.253   8.039   4.873 -0.4868  0.3806 -1.6754
  321MOL0     O42264   4.366   7.960   4.836  0.7514  0.6385  0.7612
  321MOL0     C42265   4.371   7.835   4.890 -0.6962  0.2042  0.5898
  321MOL0     C42266   4.264   7.755   4.926  0.5867  0.1170  0.1075
  321MOL0     C42267   4.297   7.628   4.986 -0.1525 -0.5592 -0.3553
  321MOL0     C42268   4.431   7.585   5.007 -0.4076  0.2552 -0.1441
  321MOL0     C42269   4.464   7.457   5.066 -0.0189 -0.7092 -0.1647
  321MOL0     O42270   4.361   7.360   5.074 -0.4239  0.2698  0.6600
  321MOL0     C42271   4.372   7.220   5.094  0.6440 -0.3520  0.9061
  321MOL0     C42272   4.271   7.158   5.169  0.0937 -0.6576 -0.1268
  321MOL0     C42273   4.272   7.016   5.171  0.6309  0.5125 -0.6627
  321MOL0     C42274   4.377   6.943   5.132 -0.6469 -0.3331  0.5128
  321MOL0     O42275   4.383   6.807   5.139  0.7283  0.7227 -0.2997
  321MOL0     C42276   4.299   6.738   5.235 -0.0734 -0.7529 -0.5258
  321MOL0     C42277   4.332   6.587   5.228  0.1952 -0.3422 -0.6824
  321MOL0     C42278   4.266   6.494   5.342  0.2963 -0.9722 -0.2470
  321MOL0     C42279   4.314   6.348   5.324 -0.1561 -0.2529 -0.8978
  321MOL0     C42280   4.263   6.243   5.434  0.4058 -0.1280  0.9287
  321MOL0     C42281   4.356   6.125   5.462  0.4798  0.4647 -0.3431
  321MOL0     C42282   4.295   6.055   5.581  0.2992  0.2709  0.2058
  321MOL0     C42283   4.373   5.924   5.603  0.0897 -0.3154  0.5601
  321MOL0    Cl42284   4.318   5.801   5.493 -0.3076  0.0948 -0.0592
  321MOL0     C42285   4.484   7.009   5.067 -0.0074 -0.3736 -0.3072
  321MOL0     C42286   4.472   7.143   5.045 -0.8614  0.9600  0.3894
  321MOL0     O42287   4.577   7.445   5.109 -0.1699 -1.0592  0.1648
  321MOL0     C42288   4.535   7.672   4.974  0.1541  0.3387  0.4906
  321MOL0     C42289   4.501   7.795   4.922 -0.8136  0.1198 -0.3916
  321MOL0     N42290   4.120   8.460   5.227  0.5116  0.3946  0.5491
  321MOL0     N42291   4.031   8.426   5.319 -0.2252 -0.0185 -0.7506
  321MOL0     C42292   4.161   7.256   5.582  0.6198 -0.5097 -0.2684
  321MOL0     C42293   4.105   7.152   5.645 -0.1574  0.4310  1.1035
  321MOL0     C42294   3.876   6.754   5.655 -0.1195 -1.1376 -0.0978
  321MOL0     C42295   3.787   6.745   5.768 -0.2492 -0.3793  0.6944
  321MOL0     C42296   3.723   6.628   5.802  0.4555 -0.5380  0.6324
  321MOL0     C42297   3.772   6.502   5.741  0.6252  0.9214  0.2478
  321MOL0     O42298   3.724   6.385   5.789  0.2060 -0.2662  0.3875
  321MOL0     C42299   3.611   6.335   5.709  0.1436 -0.6285 -0.3107
  321MOL0     C42300   3.565   6.218   5.796 -0.3196  0.4921 -0.5114
  321MOL0     C42301   3.483   6.139   5.702 -0.3574  0.4129  0.1318
  321MOL0     C42302   3.443   6.011   5.767 -0.1215  0.5655  0.5198
  321MOL0     C42303   3.407   5.919   5.656 -0.4966 -0.5750  0.0461
  321MOL0     C42304   3.366   5.862   5.559 -0.1161 -0.3013  0.3345
  321MOL0     C42305   3.840   6.502   5.628 -0.8688 -0.2178 -0.2590
  321MOL0     C42306   3.900   6.628   5.590 -1.0691 -0.3266 -1.0754
  321MOL0     H42307   3.836   7.103   5.445 -0.8295  0.9188  0.3058
  321MOL0     H42308   3.921   7.307   5.337  0.2046  1.0930 -0.7148
  321MOL0     H42309   4.326   7.428   5.378  0.8747  0.6858 -0.3548
  321MOL0     H42310   4.283   7.496   5.541  2.9478 -0.9803 -0.3578
  321MOL0     H42311   4.164   7.636   5.286 -2.1226  1.6382  1.3798
  321MOL0     H42312   4.329   7.659   5.330  0.3475 -0.2165  1.1070
  321MOL0     H42313   4.287   7.741   5.539  1.1681 -1.1893 -1.1851
  321MOL0     H42314   4.126   7.668   5.558 -1.9699 -1.4079 -1.3253
  321MOL0     H42315   4.224   7.905   5.385 -0.5133  1.6958  0.0742
  321MOL0     H42316   4.056   7.827   5.374 -1.0206  1.4790  1.4437
  321MOL0     H42317   4.124   7.937   5.644 -0.7059  4.2259  0.6356
  321MOL0     H42318   3.971   7.875   5.576  0.5894  0.9314 -0.0138
  321MOL0     H42319   4.121   8.138   5.514  0.2311 -0.6539 -0.8768
  321MOL0     H42320   3.985   8.110   5.631 -1.1517  0.1534 -0.7915
  321MOL0     H42321   3.956   8.023   5.346 -0.1305 -3.6719  2.0667
  321MOL0     H42322   3.836   8.033   5.461 -0.6575 -0.3281 -2.4347
  321MOL0     H42323   3.849   8.293   5.452  2.3523 -0.7058 -0.1515
  321MOL0     H42324   3.829   8.239   5.301  2.2221  3.1079 -1.4361
  321MOL0     H42325   4.106   8.125   5.216  1.5750 -0.0810  2.4902
  321MOL0     H42326   4.317   8.215   5.110  0.1237 -0.0789 -2.1955
  321MOL0     H42327   4.327   8.394   5.080  1.1209 -1.1253 -3.3192
  321MOL0     H42328   4.204   8.382   4.879 -2.8978 -1.4521 -1.2126
  321MOL0     H42329   4.104   8.258   4.942 -0.1741  1.6277  1.8925
  321MOL0     H42330   4.270   8.202   4.741  1.9714 -0.0242  0.0560
  321MOL0     H42331   4.383   8.212   4.871  0.4319  0.5794 -0.8408
  321MOL0     H42332   4.162   7.989   4.839 -0.8504 -2.3328  2.6121
  321MOL0     H42333   4.241   8.033   4.981  1.9645  1.6247 -1.2688
  321MOL0     H42334   4.157   7.762   4.909  0.2436 -3.4898 -0.0446
  321MOL0     H42335   4.217   7.567   5.028 -0.6950  1.6454  2.0355
  321MOL0     H42336   4.177   7.202   5.199  0.4370 -0.5083  0.7613
  321MOL0     H42337   4.185   6.967   5.215  0.3773  2.4447  1.1507
  321MOL0     H42338   4.194   6.746   5.207 -0.1896 -1.1095 -0.2136
  321MOL0     H42339   4.311   6.775   5.337  1.2559  0.9469 -1.2578
  321MOL0     H42340   4.440   6.588   5.249 -0.0052  1.0559  0.4647
  321MOL0     H42341   4.312   6.558   5.125  0.3722  3.2246 -1.8638
  321MOL0     H42342   4.157   6.504   5.335  0.3027 -1.9931 -3.0256
  321MOL0     H42343   4.287   6.529   5.444 -0.2131  0.5164 -0.6217
  321MOL0     H42344   4.284   6.315   5.224 -1.5828  0.0825 -0.5981
  321MOL0     H42345   4.423   6.350   5.314 -0.2976  0.7920 -2.5094
  321MOL0     H42346   4.170   6.209   5.388 -0.1071  1.7302  0.4970
  321MOL0     H42347   4.227   6.286   5.529 -0.4206  0.6563  0.2806
  321MOL0     H42348   4.459   6.161   5.473  1.2863 -0.6931 -3.0865
  321MOL0     H42349   4.364   6.077   5.364  3.2897  1.4504 -0.7041
  321MOL0     H42350   4.310   6.111   5.673  1.6768 -3.7779  2.7308
  321MOL0     H42351   4.190   6.030   5.561  0.9312  0.3225 -4.4087
  321MOL0     H42352   4.352   5.884   5.702 -1.3105 -1.4598 -0.1549
  321MOL0     H42353   4.478   5.948   5.583  0.9009 -2.0863  2.3845
  321MOL0     H42354   4.570   6.950   5.036  1.3797  1.1765  0.4529
  321MOL0     H42355   4.545   7.202   4.990 -0.7647  2.4529  2.0382
  321MOL0     H42356   4.641   7.650   4.980  0.3570  0.8947 -0.6901
  321MOL0     H42357   4.584   7.860   4.897 -0.2944  0.3631  1.7808
  321MOL0     H42358   4.250   7.284   5.636 -1.0565 -1.3673  3.2633
  321MOL0     H42359   4.164   7.118   5.730 -2.2889  0.1557  2.5701
  321MOL0     H42360   3.752   6.839   5.809  1.9087  1.0279 -0.5292
  321MOL0     H42361   3.655   6.624   5.886  0.5388 -0.9426  0.6852
  321MOL0     H42362   3.647   6.307   5.610  0.7809 -0.4258 -0.1444
  321MOL0     H42363   3.524   6.400   5.701  0.3420 -0.5369 -1.9979
  321MOL0     H42364   3.644   6.151   5.831  0.6276 -0.7618 -4.5059
  321MOL0     H42365   3.509   6.248   5.885 -4.0379 -0.1159 -2.4266
  321MOL0     H42366   3.546   6.126   5.614 -2.5529 -1.5215 -1.2481
  321MOL0     H42367   3.393   6.198   5.683 -0.8223  0.1457  1.3829
  321MOL0     H42368   3.522   5.955   5.817 -1.1060 -1.3587  0.0237
  321MOL0     H42369   3.358   6.025   5.835 -2.1798  1.6346 -2.0918
  321MOL0     H42370   3.320   5.829   5.469  2.0109  0.0687 -0.9512
  321MOL0     H42371   3.863   6.414   5.570 -2.5099 -2.5901  2.4393
  321MOL0     H42372   3.975   6.625   5.512 -2.5808  1.0739 -2.6591
  322MOL0     O42373   0.096   5.896   3.067  0.4252  0.5192 -0.4932
  322MOL0     C42374   0.016   5.977   3.106 -0.7358  0.3719  0.6135
  322MOL0     O42375  -0.108   5.955   3.147 -0.0730  1.2481  0.3822
  322MOL0     C42376  -0.150   5.819   3.133  0.6796 -0.8500  1.2729
  322MOL0     C42377  -0.205   5.763   3.240 -0.0321  0.4091 -0.3295
  322MOL0     C42378  -0.271   5.641   3.237  0.0434  0.5958  0.7121
  322MOL0     C42379  -0.270   5.563   3.120  0.4948  0.0152  0.4611
  322MOL0     O42380  -0.349   5.446   3.109  0.4155 -0.6114  0.7436
  322MOL0     C42381  -0.340   5.374   2.985  0.2745 -0.1195  0.0438
  322MOL0     C42382  -0.411   5.237   2.979  0.6065 -0.5508 -0.5321
  322MOL0     C42383  -0.563   5.236   2.944  0.0542  0.1559  0.1117
  322MOL0     C42384  -0.634   5.099   2.924  0.0015 -0.7488  0.3848
  322MOL0     C42385  -0.770   5.110   2.857 -0.5269 -0.2197  0.3811
  322MOL0     C42386  -0.825   4.974   2.862  0.3945  0.4178  0.2337
  322MOL0     C42387  -0.964   4.956   2.801 -0.3010 -0.2002 -0.9432
  322MOL0     C42388  -1.034   4.835   2.878  0.0296 -1.3035 -0.0343
  322MOL0     N42389  -1.165   4.798   2.802 -1.2012  0.2061 -0.2673
  322MOL0     C42390  -1.162   4.758   2.671  0.2621  0.0020  0.1750
  322MOL0     C42391  -1.294   4.765   2.637  0.0991  0.7360  0.0823
  322MOL0     C42392  -1.355   4.723   2.509 -0.2236 -0.2339 -0.3282
  322MOL0     C42393  -1.346   4.567   2.489 -0.4172  0.3806  1.0053
  322MOL0     C42394  -1.474   4.490   2.523  0.9044 -0.8390 -0.9109
  322MOL0     C42395  -1.468   4.477   2.678 -0.3083  0.4401 -0.0767
  322MOL0     O42396  -1.367   4.390   2.731 -0.3657  0.6659  0.3758
  322MOL0     C42397  -1.324   4.398   2.858 -0.7083  0.2851 -0.1120
  322MOL0     C42398  -1.206   4.331   2.904 -0.1995  0.3463  0.9949
  322MOL0     C42399  -1.144   4.354   3.026 -0.3375  0.0030 -0.2431
  322MOL0     C42400  -1.213   4.434   3.113 -0.0935  0.4536 -0.7370
  322MOL0     C42401  -1.152   4.468   3.244 -0.1654  0.2738 -0.6629
  322MOL0     O42402  -1.036   4.403   3.271 -0.0897 -0.4951  0.1952
  322MOL0     C42403  -0.970   4.402   3.391 -0.3348 -0.7005  0.8758
  322MOL0     C42404  -0.999   4.473   3.517 -0.7573  0.1497 -0.0633
  322MOL0     C42405  -0.915   4.459   3.626  0.6614 -0.0422 -0.1025
  322MOL0     C42406  -0.784   4.395   3.611  0.5010 -0.0069 -0.9012
  322MOL0     O42407  -0.701   4.372   3.720 -0.5915  0.2761  0.1198
  322MOL0     C42408  -0.728   4.424   3.852 -0.9593 -0.7563  0.1318
  322MOL0     C42409  -0.639   4.357   3.960  0.7449  1.1742 -0.4129
  322MOL0     C42410  -0.672   4.382   4.103 -0.2106  0.2894 -0.8068
  322MOL0     C42411  -0.577   4.313   4.190  0.1008  0.3054  0.3564
  322MOL0     C42412  -0.602   4.300   4.336  0.4771  0.5134 -0.7157
  322MOL0     C42413  -0.645   4.433   4.419  1.0243 -0.8212 -0.4842
  322MOL0     C42414  -0.639   4.415   4.575  0.2881  0.5629 -1.0569
  322MOL0     C42415  -0.635   4.273   4.631 -1.1673  0.1998 -0.8258
  322MOL0    Cl42416  -0.647   4.268   4.807 -0.1883  0.2726 -0.4857
  322MOL0     C42417  -0.743   4.351   3.487 -0.1602  0.7755 -0.2292
  322MOL0     C42418  -0.837   4.352   3.380  0.5867 -0.1012 -0.2558
  322MOL0     O42419  -1.203   4.547   3.323  0.3114  0.7293  0.6487
  322MOL0     C42420  -1.342   4.483   3.079 -0.7686  0.3271 -1.2622
  322MOL0     C42421  -1.395   4.464   2.957  0.1937  0.4220  0.4338
  322MOL0     N42422  -1.368   4.819   2.736  0.0362 -1.0623 -0.3444
  322MOL0     N42423  -1.291   4.831   2.839  0.4343  1.2268 -0.3043
  322MOL0     C42424  -0.194   5.619   3.007  0.0635 -0.2412 -0.1547
  322MOL0     C42425  -0.137   5.744   3.013 -0.1652  0.3388 -0.6345
  322MOL0     C42426   0.075   6.108   3.151 -0.3932  0.7039 -0.5489
  322MOL0     C42427   0.201   6.139   3.095  0.4500 -0.0079  0.5992
  322MOL0     C42428   0.240   6.274   3.109  0.2660  0.8622  1.3905
  322MOL0     C42429   0.172   6.372   3.182  0.7048 -0.2314  0.3841
  322MOL0     O42430   0.242   6.482   3.230  1.2944 -1.0395 -0.0256
  322MOL0     C42431   0.243   6.485   3.374  0.8534  0.0631 -1.0114
  322MOL0     C42432   0.328   6.601   3.433 -0.9018 -0.3448  0.7017
  322MOL0     C42433   0.484   6.583   3.424 -0.2340 -0.2472 -0.5207
  322MOL0     C42434   0.532   6.540   3.288 -0.1663 -0.1877  0.9476
  322MOL0     C42435   0.679   6.528   3.291  1.2114 -1.2959  0.7120
  322MOL0     C42436   0.794   6.504   3.319  0.2683  0.6550 -0.4160
  322MOL0     C42437   0.047   6.333   3.234  0.1129 -0.5265  0.1989
  322MOL0     C42438   0.003   6.204   3.221 -0.3180  0.1489  0.1049
  322MOL0     H42439  -0.215   5.813   3.336 -0.0870 -1.8355  0.9003
  322MOL0     H42440  -0.332   5.606   3.319 -0.7687  2.8624  1.1410
  322MOL0     H42441  -0.233   5.358   2.972 -0.1766 -3.5784 -0.3468
  322MOL0     H42442  -0.375   5.436   2.901 -7.0901 -1.8990  1.0527
  322MOL0     H42443  -0.397   5.193   3.078 -0.4628 -0.0889 -0.1598
  322MOL0     H42444  -0.353   5.171   2.914 -0.1165 -0.0673 -1.7049
  322MOL0     H42445  -0.587   5.296   2.855 -0.2293  0.0078  0.0871
  322MOL0     H42446  -0.615   5.289   3.025 -0.8947 -0.9748  0.2801
  322MOL0     H42447  -0.568   5.044   2.857  0.9753 -0.3829  1.0278
  322MOL0     H42448  -0.645   5.041   3.016 -0.2010  2.0127  2.2093
  322MOL0     H42449  -0.752   5.148   2.756  0.4908 -2.8792 -0.5429
  322MOL0     H42450  -0.829   5.170   2.926  2.0983 -2.1011  4.7203
  322MOL0     H42451  -0.831   4.942   2.966 -0.9221  2.4816  0.8545
  322MOL0     H42452  -0.755   4.909   2.810  0.5705  0.6534  0.1766
  322MOL0     H42453  -1.031   5.042   2.808 -0.3964  0.0879 -4.2215
  322MOL0     H42454  -0.956   4.919   2.699 -0.6882  0.9734 -1.4151
  322MOL0     H42455  -1.063   4.871   2.977  0.5804  0.0785 -0.3443
  322MOL0     H42456  -0.971   4.746   2.885 -0.7721 -1.7469  2.6352
  322MOL0     H42457  -1.075   4.713   2.627  0.3432  0.9840 -0.7059
  322MOL0     H42458  -1.324   4.785   2.425  0.4253 -0.2514 -0.1043
  322MOL0     H42459  -1.462   4.744   2.521 -0.8236 -2.5303 -1.1403
  322MOL0     H42460  -1.262   4.521   2.541  0.0585 -0.7233 -0.6795
  322MOL0     H42461  -1.333   4.552   2.382  1.7508 -1.8521  1.4920
  322MOL0     H42462  -1.562   4.536   2.476  1.3534 -1.9185 -2.9520
  322MOL0     H42463  -1.471   4.390   2.479  2.4325  0.1683 -3.3501
  322MOL0     H42464  -1.560   4.434   2.717  0.4322 -2.1493 -0.9677
  322MOL0     H42465  -1.454   4.573   2.729 -1.8506 -0.4030  2.0879
  322MOL0     H42466  -1.151   4.262   2.840  2.0666  1.4362  1.6619
  322MOL0     H42467  -1.048   4.308   3.049  0.0461  1.6633  1.7272
  322MOL0     H42468  -1.095   4.521   3.535 -1.6772 -1.5210 -0.3433
  322MOL0     H42469  -0.947   4.506   3.719  0.6513  0.6870 -0.4710
  322MOL0     H42470  -0.832   4.414   3.882 -1.3823  2.7746  0.2102
  322MOL0     H42471  -0.711   4.532   3.847  0.9258 -1.0586 -1.2515
  322MOL0     H42472  -0.534   4.385   3.944  0.6284  1.3698 -0.8425
  322MOL0     H42473  -0.642   4.249   3.940  0.0053  1.7175 -3.8039
  322MOL0     H42474  -0.775   4.351   4.124  0.0037  0.7721  1.1487
  322MOL0     H42475  -0.670   4.490   4.122  1.3516  0.8573 -3.6655
  322MOL0     H42476  -0.544   4.221   4.142  2.5510  0.3985  1.7135
  322MOL0     H42477  -0.484   4.371   4.194  0.8605 -0.9174  2.6923
  322MOL0     H42478  -0.506   4.265   4.377  1.6241  1.6592 -2.2778
  322MOL0     H42479  -0.660   4.211   4.362 -0.6027  0.8086 -2.0239
  322MOL0     H42480  -0.740   4.476   4.385  1.8071  1.8702  0.4776
  322MOL0     H42481  -0.578   4.517   4.400  1.3749 -0.8674  0.4594
  322MOL0     H42482  -0.541   4.452   4.607  0.5230 -1.5280  0.9353
  322MOL0     H42483  -0.717   4.476   4.620  3.2200  1.3770  3.6740
  322MOL0     H42484  -0.550   4.210   4.603 -0.9447 -0.5285  1.2833
  322MOL0     H42485  -0.720   4.216   4.591 -4.7871  4.0021  0.7179
  322MOL0     H42486  -0.645   4.305   3.480 -0.8621 -0.7795 -0.0855
  322MOL0     H42487  -0.811   4.302   3.288 -2.5091  1.4757 -2.1430
  322MOL0     H42488  -1.397   4.545   3.149  1.8378  1.7510 -0.3092
  322MOL0     H42489  -1.487   4.516   2.935  1.0287  0.9251 -2.1430
  322MOL0     H42490  -0.188   5.572   2.910 -0.7301 -0.0753 -0.2966
  322MOL0     H42491  -0.102   5.772   2.914  0.3446 -2.4645 -1.3347
  322MOL0     H42492   0.244   6.061   3.033 -2.5332  0.2158 -2.0298
  322MOL0     H42493   0.329   6.317   3.064  1.6468 -0.0244  3.1426
  322MOL0     H42494   0.296   6.394   3.403  2.0964  1.5819  1.9133
  322MOL0     H42495   0.143   6.475   3.417  0.0674 -2.5620 -3.1682
  322MOL0     H42496   0.304   6.695   3.383 -0.0008  0.8407  2.4010
  322MOL0     H42497   0.307   6.626   3.538  0.4462  1.3877  0.5943
  322MOL0     H42498   0.502   6.516   3.509 -0.9540  1.2448  0.8803
  322MOL0     H42499   0.540   6.674   3.448  0.0916 -1.2416  3.1911
  322MOL0     H42500   0.484   6.449   3.252  1.4283 -0.6134 -0.1786
  322MOL0     H42501   0.496   6.616   3.218 -4.3135 -4.3651 -2.1017
  322MOL0     H42502   0.894   6.467   3.320  1.0207  2.1589 -3.9984
  322MOL0     H42503  -0.016   6.406   3.284 -3.0698 -2.1477 -1.1117
  322MOL0     H42504  -0.100   6.181   3.244 -0.2136 -1.7883 -1.1035
  323MOL0     O42505   6.451   8.972  10.426  0.4525  0.1283 -1.1561
  323MOL0     C42506   6.421   9.088  10.386  0.3674 -0.2045 -0.7625
  323MOL0     O42507   6.316   9.119  10.301 -0.0383  0.0574  0.5210
  323MOL0     C42508   6.196   9.043  10.284 -0.1682 -0.1902 -0.1275
  323MOL0     C42509   6.122   9.051  10.167  0.0468 -0.4768 -0.5923
  323MOL0     C42510   6.005   8.967  10.158  0.6297  0.1042  0.9688
  323MOL0     C42511   5.959   8.896  10.266 -0.8679  0.3292  0.0101
  323MOL0     O42512   5.845   8.817  10.262  0.0946 -0.3719  0.0292
  323MOL0     C42513   5.831   8.727  10.150 -0.1298 -0.8624  0.6417
  323MOL0     C42514   5.684   8.703  10.128  0.0948 -0.7814 -1.1754
  323MOL0     C42515   5.624   8.783  10.017  0.7435 -0.2220  0.6091
  323MOL0     C42516   5.618   8.933  10.064  0.0757 -0.0877 -0.1911
  323MOL0     C42517   5.556   9.021   9.951  1.1323 -0.4022  0.6023
  323MOL0     C42518   5.544   9.169   9.992  0.1661  0.7105  0.9595
  323MOL0     C42519   5.674   9.229  10.024  0.7846 -0.3690  0.2516
  323MOL0     C42520   5.669   9.388  10.027  0.1857 -0.1124  0.1450
  323MOL0     N42521   5.808   9.450  10.026  0.1726  0.0303  0.4748
  323MOL0     C42522   5.903   9.440  10.125  0.0323  0.0207  0.2555
  323MOL0     C42523   6.021   9.475  10.079  0.1755  0.2592 -0.2088
  323MOL0     C42524   6.139   9.451  10.166 -0.6157 -0.3869 -1.2001
  323MOL0     C42525   6.203   9.592  10.198 -0.3613 -0.0148 -0.4217
  323MOL0     C42526   6.129   9.670  10.317 -0.2239 -0.5199 -0.0382
  323MOL0     C42527   6.201   9.810  10.331  0.7838  0.2548  0.2305
  323MOL0     O42528   6.333   9.793  10.370 -0.2537 -0.1191  0.3917
  323MOL0     C42529   6.376   9.781  10.504 -0.7339 -1.8501  0.2657
  323MOL0     C42530   6.289   9.790  10.620  0.3672 -0.1475 -0.7521
  323MOL0     C42531   6.335   9.806  10.752  0.1062 -0.5208 -0.1581
  323MOL0     C42532   6.474   9.814  10.772  0.0899  0.0246 -1.2831
  323MOL0     C42533   6.537   9.819  10.913 -0.7202 -0.8154  0.4828
  323MOL0     O42534   6.454   9.769  11.004  0.5556 -0.5086 -0.1552
  323MOL0     C42535   6.507   9.770  11.135  0.2666 -0.1234  0.5072
  323MOL0     C42536   6.511   9.649  11.189  1.4825  0.0993 -0.4294
  323MOL0     C42537   6.544   9.637  11.328  0.7284 -0.1722  0.4189
  323MOL0     C42538   6.587   9.753  11.406  1.1599  0.3733 -1.2568
  323MOL0     O42539   6.608   9.750  11.545 -0.0865  1.0867  0.5956
  323MOL0     C42540   6.609   9.621  11.615 -0.5857 -0.0819  0.2722
  323MOL0     C42541   6.623   9.652  11.767 -0.2095  0.6244  0.4028
  323MOL0     C42542   6.500   9.740  11.819  0.4417 -0.2088  0.4406
  323MOL0     C42543   6.492   9.755  11.970  0.1849  0.0070 -0.0457
  323MOL0     C42544   6.371   9.817  12.035  0.1444  0.3322  0.3608
  323MOL0     C42545   6.346   9.786  12.186  0.3979 -0.1073  0.4116
  323MOL0     C42546   6.419   9.883  12.278  0.3353  0.1207  0.1108
  323MOL0     C42547   6.401   9.817  12.415 -0.5398 -0.1978 -0.3287
  323MOL0    Cl42548   6.233   9.825  12.467 -0.3674  0.1545  0.1486
  323MOL0     C42549   6.572   9.881  11.347  1.0828  0.3583  1.2162
  323MOL0     C42550   6.539   9.891  11.205 -0.0197 -0.6248 -0.0166
  323MOL0     O42551   6.652   9.859  10.930  0.4190  0.0103  0.2620
  323MOL0     C42552   6.567   9.808  10.663  0.0454 -0.3776  0.8527
  323MOL0     C42553   6.515   9.795  10.528  0.9078  0.2633  0.1760
  323MOL0     N42554   6.010   9.521   9.950 -0.1563 -0.2750 -0.1792
  323MOL0     N42555   5.882   9.483   9.911 -0.0303 -0.6487  0.7058
  323MOL0     C42556   6.032   8.897  10.391  0.0996  0.8439  0.3790
  323MOL0     C42557   6.146   8.969  10.397 -0.2595  0.0239  0.9969
  323MOL0     C42558   6.508   9.199  10.416  0.4286 -0.2273  0.7379
  323MOL0     C42559   6.628   9.181  10.487  0.1191  0.9132 -0.3146
  323MOL0     C42560   6.707   9.297  10.507  0.6445 -0.2638  0.8689
  323MOL0     C42561   6.672   9.423  10.448  0.0061 -0.7672 -0.1996
  323MOL0     O42562   6.742   9.535  10.477 -0.2500 -0.3146  0.2270
  323MOL0     C42563   6.874   9.524  10.534  0.1238 -0.6624 -1.1779
  323MOL0     C42564   6.945   9.665  10.522 -0.5629 -0.4341 -0.2152
  323MOL0     C42565   6.971   9.711  10.371 -0.4514  1.4027  0.5428
  323MOL0     C42566   7.067   9.626  10.289 -1.9365 -0.3090 -0.3656
  323MOL0     C42567   7.192   9.607  10.350 -1.0046 -0.0411  0.2246
  323MOL0     C42568   7.307   9.585  10.392 -0.6600  0.5913  0.4692
  323MOL0     C42569   6.556   9.442  10.377  0.7997 -0.4892 -0.0079
  323MOL0     C42570   6.473   9.323  10.359  0.7206 -0.0594 -1.1936
  323MOL0     H42571   6.158   9.126  10.097  2.5462 -1.2594 -0.2273
  323MOL0     H42572   5.949   8.976  10.066  0.2582  0.1628  1.1963
  323MOL0     H42573   5.878   8.640  10.198 -0.0425 -1.4990 -0.5662
  323MOL0     H42574   5.897   8.750  10.066 -0.4043 -0.5106  0.5211
  323MOL0     H42575   5.631   8.731  10.219 -0.3448  1.3490 -2.0363
  323MOL0     H42576   5.668   8.596  10.108 -4.0753 -0.1888 -1.7911
  323MOL0     H42577   5.523   8.748   9.994  0.7273 -0.2731  0.7560
  323MOL0     H42578   5.677   8.775   9.921  1.5120  0.8589  0.9255
  323MOL0     H42579   5.553   8.945  10.152  2.8564 -0.7031  2.0778
  323MOL0     H42580   5.723   8.954  10.082  0.4887 -1.3212 -0.9650
  323MOL0     H42581   5.456   8.981   9.931  1.6979 -0.5680 -2.2309
  323MOL0     H42582   5.617   9.010   9.861 -1.2697 -0.2530 -1.1481
  323MOL0     H42583   5.478   9.183  10.078 -2.0320 -0.6009 -0.4105
  323MOL0     H42584   5.496   9.226   9.911 -1.5420 -0.3641  1.1629
  323MOL0     H42585   5.704   9.202  10.126 -2.0043  1.5132  1.7247
  323MOL0     H42586   5.748   9.197   9.951  0.6398  2.8040 -1.4616
  323MOL0     H42587   5.606   9.429  10.107 -0.0965 -0.3924  0.0659
  323MOL0     H42588   5.628   9.417   9.930  0.2028 -1.0316 -0.1475
  323MOL0     H42589   5.888   9.393  10.221 -0.8136 -0.7495 -0.2352
  323MOL0     H42590   6.214   9.398  10.107 -0.6014 -2.2657  0.3987
  323MOL0     H42591   6.126   9.389  10.255 -0.9011  1.7571  0.3377
  323MOL0     H42592   6.222   9.658  10.112  2.4501 -0.5790 -0.3051
  323MOL0     H42593   6.307   9.582  10.229  0.2324  4.2375 -0.4117
  323MOL0     H42594   6.021   9.677  10.299 -0.5635 -2.2295  1.0452
  323MOL0     H42595   6.128   9.608  10.407 -2.6130 -1.1429 -0.4206
  323MOL0     H42596   6.152   9.886  10.392  1.8082  0.5895  0.6569
  323MOL0     H42597   6.190   9.839  10.226  0.4903 -0.3183  0.0980
  323MOL0     H42598   6.182   9.776  10.619 -0.3570  3.9403  1.1331
  323MOL0     H42599   6.270   9.816  10.838  1.0232 -0.2680  0.5186
  323MOL0     H42600   6.475   9.565  11.131  3.1317 -0.1407 -1.1678
  323MOL0     H42601   6.529   9.540  11.375  0.7082  0.5521  1.9702
  323MOL0     H42602   6.685   9.553  11.576  0.7860 -0.1485  2.8206
  323MOL0     H42603   6.508   9.586  11.593 -0.1836  1.0927 -4.4913
  323MOL0     H42604   6.719   9.699  11.789  3.4418 -3.2119 -5.0324
  323MOL0     H42605   6.638   9.562  11.828  2.7496  1.4304  1.0008
  323MOL0     H42606   6.408   9.700  11.775  0.4676  0.2995 -0.0844
  323MOL0     H42607   6.509   9.839  11.774  0.2726 -0.9499 -1.3190
  323MOL0     H42608   6.507   9.653  12.007  1.5938 -0.1612 -0.9865
  323MOL0     H42609   6.584   9.808  11.996  0.7719  0.2736 -2.3811
  323MOL0     H42610   6.282   9.778  11.986  2.9837 -2.6261 -3.0069
  323MOL0     H42611   6.373   9.926  12.038  2.2240  0.3281  2.3850
  323MOL0     H42612   6.371   9.680  12.193 -3.6440 -1.1159  3.4546
  323MOL0     H42613   6.238   9.794  12.201  0.5428  0.3543  1.3175
  323MOL0     H42614   6.524   9.884  12.247  0.2107  2.8578 -0.5300
  323MOL0     H42615   6.371   9.981  12.289  1.8263  0.8115  0.7840
  323MOL0     H42616   6.464   9.857  12.495 -0.6166 -0.4683 -0.1350
  323MOL0     H42617   6.417   9.709  12.418  2.2343  0.1707  1.3404
  323MOL0     H42618   6.582   9.979  11.393  3.3541  2.7620 -3.6961
  323MOL0     H42619   6.531   9.982  11.146 -1.7992 -1.3841 -0.9993
  323MOL0     H42620   6.676   9.808  10.669  0.0181 -2.1368  3.3751
  323MOL0     H42621   6.590   9.777  10.452 -0.5409 -0.8698 -1.0472
  323MOL0     H42622   6.004   8.840  10.479 -1.7048  0.6338 -0.2819
  323MOL0     H42623   6.190   8.979  10.496 -2.9831  1.6237  2.1551
  323MOL0     H42624   6.667   9.092  10.536  3.3351  2.0774 -0.5441
  323MOL0     H42625   6.796   9.278  10.565  0.0930 -1.4513  1.3511
  323MOL0     H42626   6.932   9.451  10.477  0.4179 -2.6407  1.4790
  323MOL0     H42627   6.872   9.483  10.635  2.4925 -2.5142 -1.7934
  323MOL0     H42628   6.891   9.746  10.573  0.8627 -0.9649  2.3191
  323MOL0     H42629   7.038   9.667  10.579  0.3172 -0.7256 -1.6033
  323MOL0     H42630   7.009   9.814  10.374 -1.2399  1.7918 -1.1255
  323MOL0     H42631   6.882   9.700  10.309  2.4153 -1.0172 -3.6480
  323MOL0     H42632   7.036   9.528  10.253 -0.4756  0.0970 -2.9355
  323MOL0     H42633   7.086   9.684  10.199  0.3484 -0.1960  0.1356
  323MOL0     H42634   7.405   9.583  10.436  0.3471 -0.7871 -1.6724
  323MOL0     H42635   6.505   9.536  10.358 -0.0157 -1.5540 -4.0696
  323MOL0     H42636   6.384   9.344  10.301  0.9176 -1.4848 -2.0455
  324MOL0     O42637   8.102   5.672   7.948  0.0589 -0.1262  0.1535
  324MOL0     C42638   8.135   5.566   7.901 -0.5690 -0.2457  0.4265
  324MOL0     O42639   8.086   5.444   7.926  0.2851  0.5078  0.1050
  324MOL0     C42640   7.986   5.429   8.023 -0.0802 -0.2256 -0.7346
  324MOL0     C42641   7.868   5.501   8.032 -0.7389  1.0032  0.6414
  324MOL0     C42642   7.771   5.475   8.121  0.1739  0.2759 -0.1552
  324MOL0     C42643   7.793   5.380   8.217 -0.5036 -0.1997  0.5058
  324MOL0     O42644   7.710   5.382   8.324 -0.4096 -0.0297 -0.3743
  324MOL0     C42645   7.761   5.347   8.453 -1.0473 -0.1880 -0.6772
  324MOL0     C42646   7.642   5.361   8.546  0.9767  0.2940  0.4322
  324MOL0     C42647   7.516   5.271   8.520  0.4509 -0.4449 -0.4188
  324MOL0     C42648   7.399   5.324   8.616  0.4207  0.2612  0.5150
  324MOL0     C42649   7.419   5.277   8.761  0.0218  0.4752 -0.2345
  324MOL0     C42650   7.348   5.354   8.869 -0.3434  0.0302  0.6325
  324MOL0     C42651   7.207   5.323   8.896  1.3114  0.8763 -0.4200
  324MOL0     C42652   7.135   5.435   8.961 -0.7486 -0.7376 -0.3016
  324MOL0     N42653   6.989   5.409   8.958  0.4960  1.5048 -0.0364
  324MOL0     C42654   6.944   5.307   9.034 -0.8723  0.0069  0.6935
  324MOL0     C42655   6.815   5.277   8.991 -0.4123  0.1652 -0.2008
  324MOL0     C42656   6.721   5.168   9.052 -0.4794  0.5135 -0.5085
  324MOL0     C42657   6.641   5.214   9.164  0.3290 -0.2282 -1.0702
  324MOL0     C42658   6.554   5.340   9.156 -1.0512 -0.7321 -1.1870
  324MOL0     C42659   6.437   5.331   9.058 -0.0508 -0.3814  0.7097
  324MOL0     O42660   6.362   5.448   9.072 -0.1424  0.2313 -0.1186
  324MOL0     C42661   6.252   5.479   8.997 -0.7541  0.8024 -0.5548
  324MOL0     C42662   6.251   5.447   8.858 -1.4374 -0.3342 -0.3022
  324MOL0     C42663   6.131   5.474   8.790 -1.0624 -0.1075 -0.1352
  324MOL0     C42664   6.021   5.546   8.851 -0.0782 -0.1202  0.0691
  324MOL0     C42665   5.916   5.584   8.772 -0.7811 -0.0282 -0.1941
  324MOL0     O42666   5.836   5.671   8.834  0.1780  0.3982 -0.1138
  324MOL0     C42667   5.723   5.721   8.784 -0.0191  0.2788 -0.8480
  324MOL0     C42668   5.691   5.737   8.645  0.2296 -0.8857  0.3987
  324MOL0     C42669   5.584   5.809   8.597 -0.6333  0.6832 -0.1558
  324MOL0     C42670   5.482   5.851   8.684 -0.4406 -0.2829 -0.2616
  324MOL0     O42671   5.374   5.929   8.650  0.5396 -0.5123 -0.3090
  324MOL0     C42672   5.392   6.008   8.529 -0.0417 -0.5611 -0.7888
  324MOL0     C42673   5.279   6.112   8.538  0.6253 -0.3774  0.9843
  324MOL0     C42674   5.300   6.219   8.425  0.0393  0.3904 -1.2273
  324MOL0     C42675   5.191   6.330   8.412  0.0585 -0.1824 -0.2220
  324MOL0     C42676   5.055   6.276   8.357  0.1625 -0.3195 -0.8058
  324MOL0     C42677   5.051   6.282   8.206 -0.5788 -0.7140 -0.1490
  324MOL0     C42678   5.042   6.418   8.129  0.3572  0.5011  0.6467
  324MOL0     C42679   5.048   6.399   7.981  0.0601  0.3018  1.1751
  324MOL0    Cl42680   4.893   6.328   7.919  0.8301  0.4085 -0.5271
  324MOL0     C42681   5.511   5.829   8.819  0.1707 -1.3443 -0.4390
  324MOL0     C42682   5.626   5.776   8.877  0.6399  0.1460 -0.2874
  324MOL0     O42683   5.897   5.524   8.664 -0.0638 -0.7279  0.3396
  324MOL0     C42684   6.044   5.584   8.982 -0.3461 -0.3865  1.4890
  324MOL0     C42685   6.150   5.545   9.057 -0.5916  0.0426  0.5400
  324MOL0     N42686   6.798   5.362   8.887  0.1023  0.5646  0.9167
  324MOL0     N42687   6.895   5.454   8.871  0.5265  0.6537  0.0178
  324MOL0     C42688   7.905   5.296   8.210 -0.8160  0.4935 -0.1373
  324MOL0     C42689   8.006   5.324   8.109 -0.8909 -0.9452 -0.4305
  324MOL0     C42690   8.248   5.568   7.809  0.1173  0.1847  0.3131
  324MOL0     C42691   8.319   5.451   7.779  1.0525 -0.3131 -0.5870
  324MOL0     C42692   8.414   5.457   7.677 -0.2417 -0.0587  0.3461
  324MOL0     C42693   8.443   5.572   7.611  0.0607 -0.1063  0.2276
  324MOL0     O42694   8.517   5.586   7.496 -0.2913  0.6165  0.4153
  324MOL0     C42695   8.581   5.470   7.447 -0.5329  0.5970  0.5062
  324MOL0     C42696   8.693   5.520   7.360 -0.5390  0.2837 -0.6019
  324MOL0     C42697   8.830   5.495   7.429  0.1259 -0.3319  0.0952
  324MOL0     C42698   8.934   5.586   7.364 -0.0206 -0.4991  0.0910
  324MOL0     C42699   9.072   5.565   7.416 -0.2522 -0.5509  0.2792
  324MOL0     C42700   9.195   5.560   7.428  0.4448  1.4692 -0.1338
  324MOL0     C42701   8.380   5.685   7.645 -0.2687 -0.0909  0.2696
  324MOL0     C42702   8.280   5.684   7.746 -0.6804 -0.5665  0.4364
  324MOL0     H42703   7.855   5.584   7.964 -1.9640  0.1474 -0.2083
  324MOL0     H42704   7.691   5.543   8.148  0.3433  1.7661 -3.0159
  324MOL0     H42705   7.840   5.416   8.484 -0.1037  0.0939 -3.4389
  324MOL0     H42706   7.801   5.245   8.461 -4.2830 -1.4395  2.0313
  324MOL0     H42707   7.611   5.466   8.547 -0.4821 -0.1159  0.9428
  324MOL0     H42708   7.678   5.348   8.649 -2.1936  1.6687  1.8191
  324MOL0     H42709   7.551   5.170   8.542 -0.1127 -0.4981  0.2826
  324MOL0     H42710   7.487   5.291   8.417 -1.8880  3.8685  0.7950
  324MOL0     H42711   7.380   5.432   8.614  1.1405  0.4162 -2.5413
  324MOL0     H42712   7.305   5.283   8.578 -0.1671  2.0074 -0.0087
  324MOL0     H42713   7.526   5.267   8.782 -0.0186  0.9658  0.2361
  324MOL0     H42714   7.381   5.175   8.760 -1.1238  0.8084 -3.3969
  324MOL0     H42715   7.344   5.459   8.841  3.7210  0.2368  0.2136
  324MOL0     H42716   7.405   5.353   8.963 -1.1815 -0.1117  1.1570
  324MOL0     H42717   7.149   5.279   8.814 -3.9778  1.1453  2.7084
  324MOL0     H42718   7.203   5.246   8.974  1.7195  1.4025  0.1255
  324MOL0     H42719   7.158   5.525   8.904 -2.6856 -1.0481 -1.6448
  324MOL0     H42720   7.177   5.449   9.061  0.9647  0.1486 -1.1132
  324MOL0     H42721   7.004   5.268   9.115  2.8300  0.5573 -1.5637
  324MOL0     H42722   6.794   5.096   9.089  0.0801  1.0608 -0.5217
  324MOL0     H42723   6.660   5.131   8.969  3.4109 -2.8160 -2.2102
  324MOL0     H42724   6.714   5.219   9.246 -0.0093  2.4763 -0.8496
  324MOL0     H42725   6.568   5.138   9.195  1.1721 -1.2099 -1.4054
  324MOL0     H42726   6.519   5.353   9.258  0.8891 -0.8429 -0.4586
  324MOL0     H42727   6.620   5.419   9.119 -1.9297  0.0883 -1.0315
  324MOL0     H42728   6.371   5.245   9.072 -0.2533 -0.6977 -1.7302
  324MOL0     H42729   6.466   5.321   8.953  1.2910 -1.8694  1.1832
  324MOL0     H42730   6.342   5.417   8.808  0.2153  0.4264  2.0685
  324MOL0     H42731   6.125   5.442   8.686 -3.8557 -1.1503  0.2626
  324MOL0     H42732   5.772   5.714   8.576  1.1033  0.0066  1.1037
  324MOL0     H42733   5.584   5.842   8.494  0.9690  1.0769 -0.0634
  324MOL0     H42734   5.369   5.944   8.443  2.0762 -0.1165 -1.7521
  324MOL0     H42735   5.488   6.059   8.515  0.5062 -1.5078 -0.6340
  324MOL0     H42736   5.283   6.158   8.637 -0.5713 -0.0249  0.8784
  324MOL0     H42737   5.187   6.056   8.520  0.7985 -0.7274  1.1834
  324MOL0     H42738   5.308   6.166   8.330 -1.0164 -1.0876 -0.5246
  324MOL0     H42739   5.400   6.257   8.446  0.5445 -0.8732 -1.2532
  324MOL0     H42740   5.179   6.357   8.517  2.0174 -2.8729  0.7948
  324MOL0     H42741   5.221   6.421   8.360  1.9614 -0.1919  0.7827
  324MOL0     H42742   4.974   6.341   8.390  0.6216  0.4613 -1.1798
  324MOL0     H42743   5.040   6.174   8.394  0.1627 -0.3448 -0.8748
  324MOL0     H42744   4.964   6.224   8.173 -1.2229  1.0304 -1.6540
  324MOL0     H42745   5.144   6.243   8.162  0.1385  3.0758 -2.4558
  324MOL0     H42746   4.953   6.473   8.162  1.4012  2.7319 -0.0226
  324MOL0     H42747   5.133   6.464   8.167  0.7679  0.0197  0.2577
  324MOL0     H42748   5.130   6.334   7.950 -0.0894  0.5602  0.2061
  324MOL0     H42749   5.063   6.497   7.935  2.2023 -0.5475 -0.0982
  324MOL0     H42750   5.436   5.859   8.891 -0.1908  2.8810 -2.2449
  324MOL0     H42751   5.649   5.770   8.983 -0.0725  0.5762 -0.0984
  324MOL0     H42752   5.968   5.641   9.034  0.6320  0.2453  2.2645
  324MOL0     H42753   6.154   5.570   9.162 -0.8657  0.3997  0.4692
  324MOL0     H42754   7.928   5.221   8.284 -0.4122 -0.4301 -1.1730
  324MOL0     H42755   8.105   5.280   8.102  0.3529  1.8329 -1.8543
  324MOL0     H42756   8.289   5.358   7.825  3.9528 -1.2660 -0.4309
  324MOL0     H42757   8.452   5.366   7.632  1.9758  0.0457  1.9001
  324MOL0     H42758   8.516   5.409   7.384  1.2494 -2.8380  1.7676
  324MOL0     H42759   8.626   5.409   7.525 -0.4620 -1.0564 -0.7639
  324MOL0     H42760   8.691   5.474   7.261 -0.9763 -2.4914  0.6069
  324MOL0     H42761   8.680   5.628   7.347 -2.3911  0.0728 -0.7244
  324MOL0     H42762   8.852   5.389   7.411 -1.4842 -0.4823 -1.1242
  324MOL0     H42763   8.827   5.512   7.537  0.1449 -0.8679  0.1850
  324MOL0     H42764   8.937   5.565   7.257 -0.2691 -2.0512  0.3680
  324MOL0     H42765   8.906   5.691   7.377  1.5089  0.0049 -0.4126
  324MOL0     H42766   9.300   5.563   7.446  0.3562 -0.2836  0.9305
  324MOL0     H42767   8.403   5.778   7.593  1.6359  0.6872  2.3437
  324MOL0     H42768   8.243   5.778   7.787  0.8338 -0.2527  1.1579
  325MOL0     O42769   1.014   9.073   8.424 -0.0078 -0.2466  0.0312
  325MOL0     C42770   1.035   8.985   8.335 -0.3129  0.5248 -0.3249
  325MOL0     O42771   1.148   8.910   8.322 -1.0467  0.1801 -0.2125
  325MOL0     C42772   1.257   8.942   8.403  0.2349  0.2701 -0.7512
  325MOL0     C42773   1.349   9.029   8.351  0.1746 -0.7596 -1.0810
  325MOL0     C42774   1.450   9.078   8.433 -0.0902 -0.0127 -0.6316
  325MOL0     C42775   1.472   9.034   8.566  0.7811  0.3439  0.1888
  325MOL0     O42776   1.579   9.060   8.642  0.2970 -0.2677 -0.3212
  325MOL0     C42777   1.701   9.131   8.592  0.1974  0.0344 -0.2588
  325MOL0     C42778   1.808   9.144   8.707  0.4169 -0.5884 -0.4336
  325MOL0     C42779   1.892   9.013   8.719  0.3456  0.4327 -0.5659
  325MOL0     C42780   1.965   8.985   8.859  0.7430 -0.1135  0.5135
  325MOL0     C42781   1.968   8.831   8.879 -0.7772  0.4414  0.6313
  325MOL0     C42782   2.089   8.771   8.806  0.3543  0.4020  0.2893
  325MOL0     C42783   2.219   8.813   8.866 -0.4364  0.2710 -0.6225
  325MOL0     C42784   2.278   8.699   8.959 -0.5653 -0.1868  0.0388
  325MOL0     N42785   2.353   8.587   8.901 -0.0670 -0.2063 -0.3857
  325MOL0     C42786   2.435   8.588   8.794 -0.7988 -0.6942 -0.0803
  325MOL0     C42787   2.464   8.457   8.774  0.3998  0.0372 -0.4728
  325MOL0     C42788   2.553   8.394   8.671  0.7543  0.6930  0.0152
  325MOL0     C42789   2.574   8.244   8.689 -0.7795 -0.1348  0.6343
  325MOL0     C42790   2.617   8.176   8.563  1.2712  0.3111  0.0069
  325MOL0     C42791   2.485   8.129   8.480 -0.0980  0.9723 -0.3169
  325MOL0     O42792   2.411   8.241   8.413  0.2777  0.3069 -0.2632
  325MOL0     C42793   2.439   8.248   8.277  0.6722 -0.2071 -0.4943
  325MOL0     C42794   2.378   8.156   8.190  0.3466 -0.5880 -0.1382
  325MOL0     C42795   2.392   8.168   8.055 -0.0906 -0.2351  0.2868
  325MOL0     C42796   2.468   8.271   7.999 -0.3565  0.0484  1.0365
  325MOL0     C42797   2.498   8.268   7.850 -0.0952  0.5627 -0.0471
  325MOL0     O42798   2.512   8.391   7.797  0.4003 -0.1247 -0.2771
  325MOL0     C42799   2.544   8.402   7.664  0.8002  0.0540 -0.1170
  325MOL0     C42800   2.659   8.345   7.619  0.5867  0.8660  0.4279
  325MOL0     C42801   2.680   8.371   7.482 -0.6451  0.1317 -0.6375
  325MOL0     C42802   2.602   8.450   7.396  0.5184 -0.4075  0.3122
  325MOL0     O42803   2.617   8.482   7.257 -1.3043 -0.8117 -0.1755
  325MOL0     C42804   2.738   8.427   7.205  0.2817 -0.5099  0.3705
  325MOL0     C42805   2.710   8.405   7.049 -0.7176  0.4498  0.2377
  325MOL0     C42806   2.646   8.268   7.025 -0.1381  0.2377  0.4110
  325MOL0     C42807   2.605   8.270   6.866 -0.3758 -0.1129 -0.0214
  325MOL0     C42808   2.532   8.145   6.828  0.5162  0.2063 -0.1263
  325MOL0     C42809   2.569   8.107   6.684  0.6850 -0.3470 -0.5375
  325MOL0     C42810   2.473   8.012   6.611 -0.0879  0.6282 -0.9177
  325MOL0     C42811   2.481   7.865   6.652 -0.6788  0.7893 -0.2127
  325MOL0    Cl42812   2.342   7.771   6.597  0.0198  0.0886 -0.1853
  325MOL0     C42813   2.483   8.503   7.445  0.5512 -0.9503 -0.2739
  325MOL0     C42814   2.459   8.482   7.584 -0.4655  0.1154  0.1102
  325MOL0     O42815   2.502   8.158   7.789 -0.9733 -0.0092 -0.0550
  325MOL0     C42816   2.528   8.368   8.079 -0.3529  0.6655  0.6340
  325MOL0     C42817   2.508   8.361   8.218 -0.1215 -0.5133 -0.3775
  325MOL0     N42818   2.390   8.385   8.868  0.6263  0.1292 -0.8164
  325MOL0     N42819   2.324   8.466   8.942 -0.1763  0.4805 -0.8124
  325MOL0     C42820   1.379   8.940   8.621  0.4618 -0.0424  0.0249
  325MOL0     C42821   1.273   8.902   8.537 -0.8794 -0.1587  0.4803
  325MOL0     C42822   0.927   8.954   8.244  0.8325 -0.4342 -0.0219
  325MOL0     C42823   0.922   8.838   8.171 -0.3137 -0.2841  1.1990
  325MOL0     C42824   0.806   8.805   8.094 -0.5682 -0.2856  0.7002
  325MOL0     C42825   0.700   8.893   8.074 -1.8156 -0.2511  0.9197
  325MOL0     O42826   0.596   8.863   7.996 -0.0526  0.1872 -0.6087
  325MOL0     C42827   0.490   8.953   7.980 -0.5359 -1.3184  0.4356
  325MOL0     C42828   0.382   8.890   7.897  0.7422 -0.0719 -0.6345
  325MOL0     C42829   0.410   8.891   7.746 -0.2304  0.5346 -0.8252
  325MOL0     C42830   0.296   8.840   7.655  0.3916 -0.0253  0.4463
  325MOL0     C42831   0.344   8.848   7.521  0.1646  1.0395  0.4031
  325MOL0     C42832   0.387   8.872   7.411 -0.4340 -0.5984 -0.6208
  325MOL0     C42833   0.728   9.018   8.121 -0.6553 -0.3389  0.0604
  325MOL0     C42834   0.831   9.046   8.214 -0.0671 -1.2025  0.1667
  325MOL0     H42835   1.334   9.071   8.252  0.0457  0.2217 -0.6552
  325MOL0     H42836   1.518   9.151   8.392 -0.7921  0.1660 -1.5212
  325MOL0     H42837   1.670   9.230   8.556 -1.0364 -0.4718 -0.6421
  325MOL0     H42838   1.752   9.080   8.511  0.7214  0.3920 -0.1626
  325MOL0     H42839   1.754   9.167   8.799 -0.6263 -1.3371 -0.8351
  325MOL0     H42840   1.881   9.225   8.696 -0.3004  0.3120  1.2277
  325MOL0     H42841   1.977   9.009   8.650  1.0384 -2.4625  0.3096
  325MOL0     H42842   1.828   8.932   8.681  0.0805  0.6463 -0.5783
  325MOL0     H42843   2.062   9.035   8.856  0.4479  0.5397  1.4858
  325MOL0     H42844   1.920   9.028   8.949  0.4899 -0.4001  0.5289
  325MOL0     H42845   1.873   8.790   8.844  1.1288 -2.0970 -2.0959
  325MOL0     H42846   1.981   8.810   8.985 -1.8730  2.9816  1.3619
  325MOL0     H42847   2.089   8.787   8.697 -2.0938 -0.4137  0.1169
  325MOL0     H42848   2.080   8.663   8.812 -0.7609  0.4982  0.4667
  325MOL0     H42849   2.298   8.834   8.793  0.1126  0.6893  0.0866
  325MOL0     H42850   2.218   8.902   8.929  3.1640 -1.0564  1.5719
  325MOL0     H42851   2.205   8.658   9.029 -1.6449  1.3656 -0.1093
  325MOL0     H42852   2.346   8.757   9.023 -1.1406 -0.0569  0.5375
  325MOL0     H42853   2.491   8.665   8.743  0.6878 -1.9506 -0.4311
  325MOL0     H42854   2.647   8.448   8.686  1.6177 -0.7902  0.1412
  325MOL0     H42855   2.520   8.405   8.568  0.9239  0.5159 -0.0597
  325MOL0     H42856   2.472   8.209   8.707 -0.4653  0.3115  3.7784
  325MOL0     H42857   2.633   8.225   8.779  1.4984  3.5439  0.1231
  325MOL0     H42858   2.683   8.236   8.500  0.6771 -0.4718 -1.4281
  325MOL0     H42859   2.671   8.090   8.605 -1.5737  0.7195  5.3734
  325MOL0     H42860   2.413   8.078   8.544  0.6545  1.1983  0.7270
  325MOL0     H42861   2.512   8.062   8.398 -1.1920  0.0308  0.0728
  325MOL0     H42862   2.337   8.063   8.229  1.6618 -0.7545  0.9236
  325MOL0     H42863   2.350   8.089   7.992  0.8007 -2.5625  2.4412
  325MOL0     H42864   2.714   8.268   7.674 -1.1792 -2.7034 -2.3675
  325MOL0     H42865   2.772   8.332   7.438  1.0745  0.5412  2.2855
  325MOL0     H42866   2.778   8.334   7.245  0.3437 -0.5963  0.1062
  325MOL0     H42867   2.821   8.497   7.220 -1.9324  2.0904  1.4375
  325MOL0     H42868   2.801   8.416   6.989  1.6451  2.9184  3.8569
  325MOL0     H42869   2.632   8.476   7.021 -1.1036  0.1213  0.4604
  325MOL0     H42870   2.555   8.257   7.085 -0.9416  0.9692 -0.6394
  325MOL0     H42871   2.702   8.178   7.052 -2.1052 -1.4349 -0.7260
  325MOL0     H42872   2.554   8.364   6.843  2.1801  1.0476 -1.3371
  325MOL0     H42873   2.702   8.273   6.816  1.4344 -0.0192  3.1903
  325MOL0     H42874   2.426   8.165   6.847  1.2820  4.1263  0.9298
  325MOL0     H42875   2.575   8.064   6.888  0.5062 -0.2018 -0.6557
  325MOL0     H42876   2.668   8.061   6.698 -0.5495 -2.9741  0.0655
  325MOL0     H42877   2.584   8.193   6.617  1.2995 -2.0478 -2.6881
  325MOL0     H42878   2.371   8.048   6.626 -0.0159  0.5993 -0.3224
  325MOL0     H42879   2.497   8.008   6.504  0.8220 -3.7553 -0.7487
  325MOL0     H42880   2.473   7.851   6.760 -0.9506 -2.9731 -0.5739
  325MOL0     H42881   2.578   7.829   6.616 -1.4113 -0.3943 -1.1030
  325MOL0     H42882   2.423   8.582   7.404 -0.9549 -2.5971 -1.3886
  325MOL0     H42883   2.381   8.532   7.641  0.3291  1.3523  0.1383
  325MOL0     H42884   2.594   8.439   8.031 -1.2565  0.2809 -1.2465
  325MOL0     H42885   2.553   8.422   8.296  0.2687 -1.4499  0.1348
  325MOL0     H42886   1.387   8.889   8.716 -0.1101 -0.8758 -0.3650
  325MOL0     H42887   1.212   8.827   8.586  1.7452 -1.7321  1.5469
  325MOL0     H42888   0.998   8.762   8.189  0.6929  0.7948  1.5998
  325MOL0     H42889   0.791   8.710   8.043 -3.7319  0.5554 -0.1753
  325MOL0     H42890   0.525   9.044   7.931  1.9624 -1.4089  1.8915
  325MOL0     H42891   0.461   8.972   8.083  2.5131 -1.9636  1.5119
  325MOL0     H42892   0.368   8.789   7.936 -1.4176  0.8120  1.1719
  325MOL0     H42893   0.291   8.949   7.913  1.9470  1.3268  1.5485
  325MOL0     H42894   0.496   8.823   7.747 -0.0910  0.6926  0.8940
  325MOL0     H42895   0.438   8.994   7.723 -2.3157  1.3744  0.1503
  325MOL0     H42896   0.290   8.733   7.680  2.3506 -1.3580 -3.7358
  325MOL0     H42897   0.200   8.892   7.656  0.2472 -0.2114 -1.1105
  325MOL0     H42898   0.437   8.898   7.320 -1.0451  1.8225 -0.3317
  325MOL0     H42899   0.658   9.096   8.094  0.2404  0.2022 -0.7475
  325MOL0     H42900   0.841   9.143   8.263 -2.9309 -1.5185  1.5727
  326MOL0     O42901   0.763   9.983  10.783  0.5993 -0.2905 -0.0985
  326MOL0     C42902   0.769   9.973  10.907  0.1897  0.3408  0.8564
  326MOL0     O42903   0.766   9.854  10.971  0.3064  0.0362  0.4355
  326MOL0     C42904   0.724   9.740  10.909 -0.0298  0.2170 -0.4166
  326MOL0     C42905   0.734   9.691  10.772  0.9765 -0.1333  0.2449
  326MOL0     C42906   0.682   9.567  10.721 -0.2204  0.5881 -0.2835
  326MOL0     C42907   0.631   9.479  10.822  0.1430  0.5930  1.1496
  326MOL0     O42908   0.569   9.360  10.790 -0.2140  0.4712  0.0548
  326MOL0     C42909   0.523   9.318  10.659  0.1463 -0.1921  0.1804
  326MOL0     C42910   0.613   9.196  10.622 -0.6862 -0.0804 -2.1344
  326MOL0     C42911   0.543   9.069  10.660  0.7065 -0.0603 -0.3739
  326MOL0     C42912   0.597   8.946  10.614  0.8115  0.5401  0.7546
  326MOL0     C42913   0.535   8.811  10.643  0.7566  0.3752 -0.3523
  326MOL0     C42914   0.380   8.814  10.592 -0.1736 -0.6331 -0.6291
  326MOL0     C42915   0.314   8.679  10.618  0.0993  0.2320 -0.5987
  326MOL0     C42916   0.168   8.673  10.599 -0.2881 -0.7995 -1.0048
  326MOL0     N42917   0.126   8.538  10.567 -0.4563  0.0597 -0.7925
  326MOL0     C42918   0.056   8.454  10.656 -0.1028 -0.4426  0.4436
  326MOL0     C42919  -0.008   8.374  10.574  0.3689  0.3328 -0.2249
  326MOL0     C42920  -0.102   8.272  10.633  0.1711 -0.6432  0.4803
  326MOL0     C42921  -0.032   8.138  10.664  0.2535 -0.7182 -0.4605
  326MOL0     C42922  -0.058   8.081  10.803 -0.0052  0.4672 -0.0149
  326MOL0     C42923   0.023   8.144  10.924 -0.0096 -0.0388  0.6248
  326MOL0     O42924  -0.019   8.274  10.945 -0.3584  0.1963 -0.4842
  326MOL0     C42925   0.030   8.337  11.063 -0.1110  0.2162  0.0508
  326MOL0     C42926  -0.031   8.464  11.093  0.3970 -0.0783 -0.5015
  326MOL0     C42927   0.018   8.532  11.206  0.1339  1.1150 -1.0218
  326MOL0     C42928   0.134   8.496  11.272 -0.8972  0.0615 -0.3138
  326MOL0     C42929   0.204   8.599  11.364 -0.5027  0.4508 -0.0175
  326MOL0     O42930   0.135   8.715  11.389  0.3060  1.1007 -0.7434
  326MOL0     C42931   0.196   8.820  11.463  1.1798 -1.0160 -0.2851
  326MOL0     C42932   0.182   8.817  11.600  0.4421 -0.1564  0.0313
  326MOL0     C42933   0.231   8.935  11.671  0.0002  1.0283  0.3276
  326MOL0     C42934   0.274   9.050  11.602 -0.1896  0.0058  0.1756
  326MOL0     O42935   0.314   9.163  11.666  0.5664 -1.3248 -0.2388
  326MOL0     C42936   0.439   9.158  11.737 -0.1364  0.3049 -0.4757
  326MOL0     C42937   0.491   9.295  11.741  0.3498 -0.0773 -0.3070
  326MOL0     C42938   0.620   9.288  11.813  0.2395 -0.8471 -0.4599
  326MOL0     C42939   0.701   9.425  11.808  0.4616  0.1050 -0.8469
  326MOL0     C42940   0.618   9.557  11.841  0.2387  0.1278 -0.8740
  326MOL0     C42941   0.703   9.673  11.793  0.7087  1.0456  0.5685
  326MOL0     C42942   0.817   9.710  11.894 -0.3094  0.1849 -0.1009
  326MOL0     C42943   0.760   9.787  12.015 -0.7426 -0.3258  0.0596
  326MOL0    Cl42944   0.648   9.914  11.968 -0.1600  0.1747  0.0761
  326MOL0     C42945   0.282   9.055  11.468  0.8976 -0.5282  0.0019
  326MOL0     C42946   0.245   8.941  11.397  0.0776 -0.0660  0.6218
  326MOL0     O42947   0.308   8.567  11.426 -0.0225  0.1377 -0.1062
  326MOL0     C42948   0.181   8.369  11.244  0.0338  0.1664 -0.1039
  326MOL0     C42949   0.127   8.287  11.147 -0.2385  0.6063 -0.5551
  326MOL0     N42950   0.027   8.394  10.434 -0.0346  0.0332  0.4243
  326MOL0     N42951   0.100   8.499  10.435 -0.3320  0.4972 -1.0053
  326MOL0     C42952   0.627   9.514  10.952  0.4970 -0.1037  0.8997
  326MOL0     C42953   0.663   9.642  10.996 -0.4259 -0.3891 -0.0731
  326MOL0     C42954   0.810  10.090  10.979 -0.1095 -0.9945  0.8506
  326MOL0     C42955   0.824  10.211  10.906  0.0669  0.8972 -0.5684
  326MOL0     C42956   0.878  10.324  10.967  0.1018  0.1302 -0.1745
  326MOL0     C42957   0.904  10.322  11.101  0.0176  0.1832  0.0477
  326MOL0     O42958   0.945  10.429  11.176 -0.1004 -0.3796  0.1512
  326MOL0     C42959   0.853  10.467  11.280 -0.1101 -0.1760  0.2398
  326MOL0     C42960   0.926  10.586  11.342 -0.2185  0.6913 -0.4794
  326MOL0     C42961   0.882  10.635  11.486 -0.1454  0.1801  0.2094
  326MOL0     C42962   0.743  10.691  11.481 -0.0018 -0.9965 -0.4224
  326MOL0     C42963   0.640  10.592  11.466 -0.5305  0.0514 -0.8880
  326MOL0     C42964   0.554  10.511  11.450  0.5040 -0.2067  0.9072
  326MOL0     C42965   0.880  10.201  11.175  0.3821 -0.4031  0.3323
  326MOL0     C42966   0.839  10.087  11.112  0.0904 -0.2727 -0.3082
  326MOL0     H42967   0.774   9.752  10.692 -1.5022  2.3775  0.7204
  326MOL0     H42968   0.666   9.539  10.617 -1.0340 -1.4100  0.3288
  326MOL0     H42969   0.531   9.401  10.589  4.1585  3.0361  3.8369
  326MOL0     H42970   0.418   9.297  10.679 -0.1704 -1.5729 -2.4978
  326MOL0     H42971   0.710   9.197  10.673 -1.5826  0.0073 -0.3191
  326MOL0     H42972   0.628   9.200  10.514 -0.8078 -0.7239 -2.1772
  326MOL0     H42973   0.441   9.082  10.624  0.8809 -0.1317 -0.9199
  326MOL0     H42974   0.545   9.067  10.769 -2.8068 -3.0233 -0.1598
  326MOL0     H42975   0.615   8.942  10.507 -1.3032  1.6018  0.3042
  326MOL0     H42976   0.701   8.949  10.649  0.7763  1.5954  0.8121
  326MOL0     H42977   0.518   8.791  10.749 -3.9314  0.0467 -0.9543
  326MOL0     H42978   0.589   8.726  10.601 -0.1227 -0.8618  0.9428
  326MOL0     H42979   0.376   8.837  10.485  1.0892 -0.2955 -0.6173
  326MOL0     H42980   0.322   8.892  10.644  2.2125 -0.6970  2.4171
  326MOL0     H42981   0.371   8.604  10.561  1.1779 -0.7694  1.6740
  326MOL0     H42982   0.339   8.662  10.723  2.6708 -0.0158 -1.1818
  326MOL0     H42983   0.143   8.744  10.521  2.0655 -0.0891 -1.1940
  326MOL0     H42984   0.119   8.704  10.692  2.9119  0.0255  0.5818
  326MOL0     H42985   0.050   8.465  10.764 -1.5051 -1.3091  0.4750
  326MOL0     H42986  -0.186   8.261  10.564  1.6874  1.9878 -2.0136
  326MOL0     H42987  -0.147   8.319  10.721 -0.2874 -0.8371  0.3538
  326MOL0     H42988   0.076   8.140  10.645  0.1096  0.0149 -1.2630
  326MOL0     H42989  -0.071   8.058  10.601 -1.9991  2.1410 -3.0597
  326MOL0     H42990  -0.164   8.085  10.830 -0.0836  1.0471 -0.3852
  326MOL0     H42991  -0.036   7.974  10.794 -3.0896 -0.0949 -4.0991
  326MOL0     H42992   0.129   8.140  10.897  0.1131  1.8890  0.6458
  326MOL0     H42993   0.009   8.086  11.015  1.5297 -1.3576  0.0824
  326MOL0     H42994  -0.114   8.494  11.030  2.0477  4.9994 -0.7207
  326MOL0     H42995  -0.037   8.621  11.235 -1.5954 -0.7273  1.9473
  326MOL0     H42996   0.143   8.727  11.646  1.2616  0.4197  1.9672
  326MOL0     H42997   0.237   8.949  11.779 -0.8265  1.5633  0.3055
  326MOL0     H42998   0.512   9.099  11.680  0.6248 -0.2426  1.0186
  326MOL0     H42999   0.430   9.111  11.835  3.1877  1.0307  0.2944
  326MOL0     H43000   0.423   9.351  11.806  1.7312 -1.7588  2.8191
  326MOL0     H43001   0.505   9.328  11.638 -0.9444  0.7981 -0.2268
  326MOL0     H43002   0.690   9.222  11.760  1.7373 -0.1096  0.5230
  326MOL0     H43003   0.605   9.252  11.915  0.3687 -2.3297 -0.9335
  326MOL0     H43004   0.782   9.415  11.880  0.4877  1.6022 -0.6405
  326MOL0     H43005   0.739   9.451  11.709  0.2412  2.5053 -0.3611
  326MOL0     H43006   0.580   9.565  11.943 -4.4867  1.3718 -2.4574
  326MOL0     H43007   0.527   9.568  11.781  0.0740  1.0528 -0.4708
  326MOL0     H43008   0.637   9.759  11.783 -1.0414 -0.0894  1.7749
  326MOL0     H43009   0.756   9.653  11.699  1.7836  1.0653  1.1431
  326MOL0     H43010   0.869   9.616  11.917  1.7357  1.0709 -0.8048
  326MOL0     H43011   0.885   9.772  11.834  0.1975 -0.1073  0.1594
  326MOL0     H43012   0.849   9.814  12.072 -1.2544 -0.1840  0.8130
  326MOL0     H43013   0.704   9.720  12.082 -2.1852  0.0124 -0.7635
  326MOL0     H43014   0.308   9.141  11.408 -1.8393 -0.3359 -1.0375
  326MOL0     H43015   0.249   8.938  11.288 -0.3165 -0.1807  0.6053
  326MOL0     H43016   0.261   8.336  11.309  0.9889 -2.3599 -2.3754
  326MOL0     H43017   0.157   8.183  11.140  1.6154  1.0509  0.3272
  326MOL0     H43018   0.583   9.445  11.024 -0.6147 -0.9365 -0.5042
  326MOL0     H43019   0.660   9.672  11.100  5.5950 -1.0084  0.6204
  326MOL0     H43020   0.806  10.209  10.799 -1.7123 -0.0602 -0.2952
  326MOL0     H43021   0.894  10.417  10.913  0.9408 -1.3172 -2.5841
  326MOL0     H43022   0.828  10.392  11.356  1.2346  1.6046  2.5683
  326MOL0     H43023   0.761  10.491  11.225  0.8193 -1.3545 -1.9625
  326MOL0     H43024   1.030  10.553  11.335 -1.6416 -4.7814 -0.9178
  326MOL0     H43025   0.910  10.665  11.268 -1.8523 -0.1461 -1.0734
  326MOL0     H43026   0.956  10.707  11.522  3.8582 -2.0321 -2.7406
  326MOL0     H43027   0.890  10.552  11.557 -1.3096 -0.2680 -0.1515
  326MOL0     H43028   0.725  10.755  11.568 -0.2171 -2.4852  0.6649
  326MOL0     H43029   0.737  10.750  11.389  1.5985  0.1552  0.1722
  326MOL0     H43030   0.461  10.464  11.425 -0.1875  1.4134  0.3072
  326MOL0     H43031   0.890  10.186  11.282 -3.6055  0.7126  1.0365
  326MOL0     H43032   0.829   9.999  11.175 -1.8880 -1.3700 -2.0524
  327MOL0     O43033   5.254   3.299   8.193 -0.3566 -0.6708 -0.3126
  327MOL0     C43034   5.260   3.422   8.201  0.1319 -0.2708 -0.6669
  327MOL0     O43035   5.318   3.513   8.112  0.2624  0.2509  0.2618
  327MOL0     C43036   5.380   3.478   7.992 -0.6435  0.2583 -0.4721
  327MOL0     C43037   5.381   3.354   7.928  0.0094  1.0112 -0.7886
  327MOL0     C43038   5.439   3.338   7.809 -0.8257  0.1744 -0.1134
  327MOL0     C43039   5.502   3.438   7.741 -0.8154 -1.0353  0.9342
  327MOL0     O43040   5.555   3.419   7.615  0.3643 -0.0484 -0.4112
  327MOL0     C43041   5.562   3.294   7.536 -0.2754  0.7564 -0.2348
  327MOL0     C43042   5.654   3.175   7.589  0.1801 -0.0329  0.0882
  327MOL0     C43043   5.683   3.069   7.487 -0.0204  0.9451  0.1605
  327MOL0     C43044   5.736   2.938   7.540  0.0022  0.0042 -0.4833
  327MOL0     C43045   5.875   2.947   7.604 -0.2012 -0.0655 -1.1968
  327MOL0     C43046   5.980   2.998   7.502 -1.4997 -0.1449  0.1693
  327MOL0     C43047   6.120   3.021   7.573  1.1159 -0.4757 -1.2378
  327MOL0     C43048   6.180   3.157   7.541 -0.4402  0.9662  0.0822
  327MOL0     N43049   6.133   3.263   7.635 -0.1008  0.0127 -0.2503
  327MOL0     C43050   6.023   3.340   7.616 -0.4538  1.3587  0.5808
  327MOL0     C43051   6.029   3.438   7.701  0.0521  0.5641  0.3017
  327MOL0     C43052   5.923   3.545   7.713  0.9777  0.3018 -1.0519
  327MOL0     C43053   5.913   3.611   7.586  0.5570  0.4409 -0.2392
  327MOL0     C43054   5.825   3.739   7.591 -0.0927 -0.9914 -0.7033
  327MOL0     C43055   5.856   3.851   7.693  0.1253  0.4187 -0.3215
  327MOL0     O43056   5.777   3.829   7.813  0.1628  0.2673 -0.0532
  327MOL0     C43057   5.781   3.914   7.914  0.4173 -0.4054 -0.3128
  327MOL0     C43058   5.748   3.871   8.043  0.4269 -0.4771  0.3635
  327MOL0     C43059   5.774   3.951   8.158  0.0344  0.9519 -0.0208
  327MOL0     C43060   5.842   4.075   8.147 -0.0530 -0.2269  0.2098
  327MOL0     C43061   5.853   4.172   8.265 -0.5237 -0.3410  0.2547
  327MOL0     O43062   5.812   4.139   8.392  0.0121  0.4534 -0.6123
  327MOL0     C43063   5.820   4.236   8.494 -1.0218  0.8755  0.7224
  327MOL0     C43064   5.945   4.294   8.527  0.7348 -0.9471 -0.3391
  327MOL0     C43065   5.945   4.405   8.618  0.0638  1.0580  0.5781
  327MOL0     C43066   5.829   4.427   8.690 -0.2455 -0.4105  0.7451
  327MOL0     O43067   5.809   4.547   8.763 -0.3416  0.1740 -0.7952
  327MOL0     C43068   5.885   4.542   8.885  0.8878  0.5926  1.6223
  327MOL0     C43069   5.792   4.599   8.998 -0.2233 -0.1829  0.7448
  327MOL0     C43070   5.814   4.753   9.044 -0.6573  0.0562  0.8268
  327MOL0     C43071   5.742   4.772   9.170 -0.0280 -0.2857  0.0452
  327MOL0     C43072   5.760   4.915   9.217 -0.4155  0.5597  0.5164
  327MOL0     C43073   5.718   4.929   9.360 -0.5538  0.6329 -0.8709
  327MOL0     C43074   5.824   4.863   9.448  0.7772  0.2382 -0.6129
  327MOL0     C43075   5.833   4.948   9.581 -0.3346 -0.3782  1.4767
  327MOL0    Cl43076   5.849   5.133   9.562 -0.0798  0.2427  0.0391
  327MOL0     C43077   5.707   4.356   8.670  0.7367 -0.5124  0.4430
  327MOL0     C43078   5.710   4.259   8.569  1.4525  0.8734 -0.5641
  327MOL0     O43079   5.893   4.285   8.234 -0.0063  0.2795 -0.1713
  327MOL0     C43080   5.884   4.109   8.015  0.1876  0.5087  1.4184
  327MOL0     C43081   5.857   4.033   7.911  0.6333 -0.2716  0.7431
  327MOL0     N43082   6.138   3.424   7.780 -0.0846  0.1129  0.4192
  327MOL0     N43083   6.201   3.320   7.735  0.2451 -0.0048 -0.1844
  327MOL0     C43084   5.511   3.559   7.810  0.2421 -0.2095 -0.9604
  327MOL0     C43085   5.452   3.579   7.929 -0.3044  0.8745 -0.7028
  327MOL0     C43086   5.201   3.480   8.328  0.2870  0.8742 -0.0783
  327MOL0     C43087   5.219   3.618   8.351 -0.5932 -0.6290  0.4349
  327MOL0     C43088   5.160   3.674   8.464 -0.6723 -0.5005 -0.2476
  327MOL0     C43089   5.101   3.601   8.565  0.0240 -0.9868  0.4891
  327MOL0     O43090   5.060   3.654   8.685 -0.6047  0.2114  0.6181
  327MOL0     C43091   5.126   3.782   8.725 -0.7839  0.5826  0.4791
  327MOL0     C43092   5.075   3.833   8.857 -0.6912 -0.2454  0.2934
  327MOL0     C43093   4.922   3.875   8.844 -0.1626  0.0129 -1.0791
  327MOL0     C43094   4.844   3.837   8.971  0.3546  0.9576  0.1749
  327MOL0     C43095   4.891   3.903   9.091 -0.2129 -0.2543 -0.0735
  327MOL0     C43096   4.925   3.950   9.195 -0.0935 -0.2572 -0.3719
  327MOL0     C43097   5.070   3.465   8.533 -1.2370  0.5653  0.8179
  327MOL0     C43098   5.135   3.406   8.421 -0.0743 -1.1934  0.3636
  327MOL0     H43099   5.335   3.266   7.972  2.0257 -0.1887 -0.9929
  327MOL0     H43100   5.450   3.239   7.767 -0.4305  1.3683 -3.0877
  327MOL0     H43101   5.593   3.325   7.436  1.1105  0.1872  0.0018
  327MOL0     H43102   5.463   3.250   7.520  0.7568 -1.9665  0.3002
  327MOL0     H43103   5.597   3.134   7.673 -0.5903  2.3551  0.7944
  327MOL0     H43104   5.751   3.215   7.617  1.0444 -2.0061  0.1096
  327MOL0     H43105   5.734   3.113   7.401 -0.6335  3.5164  0.9947
  327MOL0     H43106   5.588   3.031   7.449  1.5935 -2.7637 -0.5452
  327MOL0     H43107   5.666   2.896   7.613 -0.8605 -0.8109 -1.7390
  327MOL0     H43108   5.747   2.867   7.457  2.3337  1.0835 -1.1820
  327MOL0     H43109   5.898   2.842   7.624 -2.5843 -0.5061 -0.4855
  327MOL0     H43110   5.873   3.010   7.693  2.0902  0.6913 -1.6040
  327MOL0     H43111   5.947   3.095   7.464 -2.8297 -0.4459  0.5008
  327MOL0     H43112   5.987   2.922   7.423  2.1918  1.1504 -0.9909
  327MOL0     H43113   6.123   3.010   7.681  0.8649  0.4876 -1.1184
  327MOL0     H43114   6.186   2.943   7.533  2.0961  1.7976 -4.5010
  327MOL0     H43115   6.159   3.179   7.435 -1.2020  2.1876  0.4589
  327MOL0     H43116   6.288   3.146   7.552 -0.3206 -0.5143 -2.0392
  327MOL0     H43117   5.944   3.323   7.544 -0.0634  1.3112  0.1545
  327MOL0     H43118   5.958   3.615   7.791 -0.3023 -0.0039 -0.1631
  327MOL0     H43119   5.826   3.509   7.748 -0.0034  1.7282 -2.1849
  327MOL0     H43120   5.883   3.546   7.503  3.4835  0.3044 -1.3059
  327MOL0     H43121   6.013   3.643   7.554  0.2387 -0.0699 -1.8545
  327MOL0     H43122   5.831   3.785   7.492  0.1028 -0.4580 -0.4474
  327MOL0     H43123   5.720   3.709   7.600  0.9497 -4.5194  2.3784
  327MOL0     H43124   5.818   3.939   7.641 -0.0563 -1.2140 -3.1137
  327MOL0     H43125   5.963   3.865   7.709  0.0159 -1.5019  2.8824
  327MOL0     H43126   5.687   3.781   8.057 -0.5541  0.6365  4.9910
  327MOL0     H43127   5.738   3.920   8.255 -0.5471  4.3276  0.9542
  327MOL0     H43128   6.042   4.279   8.481  2.2880  3.1295  1.1052
  327MOL0     H43129   6.034   4.468   8.622  0.2505  0.8843 -0.6520
  327MOL0     H43130   5.978   4.599   8.876  2.6476 -2.4181 -1.3790
  327MOL0     H43131   5.908   4.437   8.902  2.3860  0.4914 -0.6886
  327MOL0     H43132   5.821   4.542   9.087  2.8265  0.5568  0.3509
  327MOL0     H43133   5.689   4.588   8.962 -0.1920  1.4314  0.0752
  327MOL0     H43134   5.776   4.828   8.974  1.0851  0.9298  0.7760
  327MOL0     H43135   5.920   4.767   9.067 -0.8070  2.1811  0.4199
  327MOL0     H43136   5.634   4.766   9.154  0.1429 -2.6196 -0.4815
  327MOL0     H43137   5.765   4.692   9.242 -1.4367 -2.8154 -2.1599
  327MOL0     H43138   5.703   4.977   9.147 -0.4815 -2.1681 -2.0259
  327MOL0     H43139   5.861   4.954   9.201 -0.6840 -0.0675 -3.7451
  327MOL0     H43140   5.620   4.879   9.361 -0.6346  0.5831 -3.6655
  327MOL0     H43141   5.694   5.032   9.387 -1.8314 -0.1238  1.2147
  327MOL0     H43142   5.790   4.761   9.464 -0.7204  0.8616  0.4289
  327MOL0     H43143   5.922   4.877   9.400  0.7524  8.8432  0.1792
  327MOL0     H43144   5.925   4.912   9.629  1.0148  2.0459  0.8714
  327MOL0     H43145   5.748   4.911   9.640  0.7187 -4.0987  0.9167
  327MOL0     H43146   5.619   4.381   8.728  0.3807  0.2174 -0.4039
  327MOL0     H43147   5.617   4.209   8.544  1.5597  0.3404  0.0646
  327MOL0     H43148   5.934   4.204   7.995  1.4861 -0.4887 -0.3556
  327MOL0     H43149   5.908   4.062   7.820 -0.0757 -1.0483  0.0844
  327MOL0     H43150   5.548   3.633   7.741 -4.1090  1.0012 -2.3227
  327MOL0     H43151   5.457   3.681   7.965 -1.4476 -0.4332  3.8659
  327MOL0     H43152   5.270   3.682   8.279 -0.7537  0.1236  0.9841
  327MOL0     H43153   5.162   3.782   8.473 -1.7674 -0.5279  0.5771
  327MOL0     H43154   5.124   3.862   8.649  3.2071 -1.9025 -2.6663
  327MOL0     H43155   5.232   3.755   8.730 -0.9371 -0.1070  0.0812
  327MOL0     H43156   5.086   3.769   8.945 -0.8707  0.0072  0.5027
  327MOL0     H43157   5.131   3.925   8.878 -1.7738 -0.0162  2.4084
  327MOL0     H43158   4.867   3.827   8.763 -3.5417  1.2527  0.2727
  327MOL0     H43159   4.921   3.984   8.834  1.3190  0.2543  0.9031
  327MOL0     H43160   4.735   3.833   8.962  0.4793  1.1954 -1.9490
  327MOL0     H43161   4.863   3.730   8.983  2.1807  1.1234 -0.7915
  327MOL0     H43162   4.974   4.018   9.262  0.4446  1.2086 -2.1700
  327MOL0     H43163   5.000   3.410   8.596  0.1386 -3.6725 -0.9588
  327MOL0     H43164   5.125   3.300   8.403 -1.3149 -0.8050 -1.5325
  328MOL0     O43165  10.657   9.012   1.803  0.1786 -0.4787  0.3831
  328MOL0     C43166  10.755   8.979   1.735  1.4053  0.4212  0.3266
  328MOL0     O43167  10.768   9.023   1.608  0.0069  0.1574  0.6994
  328MOL0     C43168  10.691   9.127   1.563 -0.5891  1.2387 -0.1726
  328MOL0     C43169  10.551   9.118   1.532 -0.2605 -0.9154  0.9427
  328MOL0     C43170  10.467   9.229   1.498 -0.5613 -0.0757 -0.2726
  328MOL0     C43171  10.523   9.353   1.495  0.3817  0.5216 -0.2485
  328MOL0     O43172  10.437   9.464   1.487  0.0112 -0.3460  0.4803
  328MOL0     C43173  10.491   9.592   1.533 -0.4236  0.3138 -0.1073
  328MOL0     C43174  10.386   9.707   1.537 -0.9145 -0.1965  0.2823
  328MOL0     C43175  10.420   9.817   1.640  0.3968 -0.0361  0.1685
  328MOL0     C43176  10.544   9.897   1.596  0.3172  0.3017  0.0745
  328MOL0     C43177  10.586  10.002   1.703 -0.3936  0.5319 -0.6113
  328MOL0     C43178  10.521  10.140   1.678 -1.1206 -0.0340  0.3948
  328MOL0     C43179  10.578  10.225   1.788 -0.7482 -1.3692  0.5007
  328MOL0     C43180  10.550  10.377   1.774 -0.3457  0.3486  0.5550
  328MOL0     N43181  10.657  10.460   1.848 -0.1119  0.0245  0.5994
  328MOL0     C43182  10.795  10.442   1.838 -0.7939 -0.6484  0.6912
  328MOL0     C43183  10.847  10.524   1.932 -0.0941 -0.2277 -0.8742
  328MOL0     C43184  10.993  10.538   1.960 -0.3504  0.2401 -0.1919
  328MOL0     C43185  11.051  10.668   2.020  0.1243  0.2810 -0.7143
  328MOL0     C43186  11.030  10.775   1.920 -0.1421  1.0204 -0.2579
  328MOL0     C43187  11.114  10.904   1.939 -0.2734 -0.3863  0.4040
  328MOL0     O43188  11.248  10.869   1.904 -0.4422 -0.0444 -0.4518
  328MOL0     C43189  11.327  10.971   1.859 -0.4300  0.7283 -0.3488
  328MOL0     C43190  11.306  11.105   1.872 -0.4795  0.3122 -0.1664
  328MOL0     C43191  11.406  11.201   1.857 -0.1533 -0.4780 -0.4519
  328MOL0     C43192  11.532  11.169   1.801  0.1840  1.2760 -0.0445
  328MOL0     C43193  11.639  11.268   1.784  1.7030 -0.5615 -0.6631
  328MOL0     O43194  11.768  11.226   1.780  1.3675  0.2606  0.0249
  328MOL0     C43195  11.884  11.303   1.756 -0.1115  1.0430  0.7202
  328MOL0     C43196  11.895  11.444   1.739  0.2986  1.8420 -1.0561
  328MOL0     C43197  12.019  11.495   1.705  1.0537  0.0477 -0.9235
  328MOL0     C43198  12.135  11.419   1.694 -0.5515  0.3853  0.4529
  328MOL0     O43199  12.263  11.469   1.665  0.3955 -0.5637  0.8494
  328MOL0     C43200  12.300  11.609   1.653 -0.7858 -0.5326 -0.1373
  328MOL0     C43201  12.446  11.615   1.601 -0.6251  1.0079 -0.4574
  328MOL0     C43202  12.532  11.569   1.719 -0.0770  0.2894  0.7481
  328MOL0     C43203  12.543  11.413   1.722  0.7340  0.7948  0.7606
  328MOL0     C43204  12.655  11.369   1.812  0.2190 -0.6393  0.1818
  328MOL0     C43205  12.710  11.222   1.778 -0.4257 -1.0160 -0.3575
  328MOL0     C43206  12.601  11.114   1.790  0.1731  0.4558 -0.1028
  328MOL0     C43207  12.649  10.973   1.804 -0.1752 -0.6613 -0.7948
  328MOL0    Cl43208  12.778  10.928   1.693  0.0478  0.2446 -0.1229
  328MOL0     C43209  12.132  11.292   1.726 -0.3536  0.8093  0.1738
  328MOL0     C43210  12.006  11.228   1.756  0.3225 -0.2698  0.5616
  328MOL0     O43211  11.602  11.379   1.774 -0.6728 -1.0860  0.0367
  328MOL0     C43212  11.551  11.034   1.769 -0.2984  0.2319 -0.3766
  328MOL0     C43213  11.448  10.929   1.800  0.3966  0.3781  0.1957
  328MOL0     N43214  10.737  10.596   1.992 -1.1499  0.3942 -0.3792
  328MOL0     N43215  10.621  10.562   1.941  0.0370  0.2042 -0.2973
  328MOL0     C43216  10.668   9.361   1.507 -1.0639  0.4039  0.1150
  328MOL0     C43217  10.753   9.251   1.536  0.1270 -0.6093  0.3896
  328MOL0     C43218  10.842   8.870   1.784 -1.1012 -0.1951 -0.0095
  328MOL0     C43219  10.869   8.870   1.923 -0.2382  0.1159 -0.3095
  328MOL0     C43220  10.934   8.755   1.968  0.1301 -0.3543  1.5394
  328MOL0     C43221  10.978   8.654   1.887  0.2230  0.1742  1.0650
  328MOL0     O43222  11.051   8.538   1.920 -0.2288  0.2023  0.2487
  328MOL0     C43223  11.088   8.540   2.060  0.7483 -0.2363  0.5297
  328MOL0     C43224  11.178   8.436   2.123  0.3378  0.8031  0.0609
  328MOL0     C43225  11.333   8.457   2.106 -0.5333  0.0221 -0.0491
  328MOL0     C43226  11.374   8.544   2.217 -0.0453 -0.7328 -0.8642
  328MOL0     C43227  11.520   8.561   2.227  0.2953 -0.2114 -0.0716
  328MOL0     C43228  11.629   8.603   2.218 -0.6312 -1.7556  0.0746
  328MOL0     C43229  10.955   8.656   1.751  0.7952  0.5955 -0.6247
  328MOL0     C43230  10.892   8.763   1.698  0.5704 -1.1592 -1.0577
  328MOL0     H43231  10.505   9.020   1.543  1.7342 -1.8909  0.9327
  328MOL0     H43232  10.359   9.223   1.490 -0.7387  1.6020  0.3672
  328MOL0     H43233  10.566   9.611   1.455 -0.8251  0.3375 -0.4935
  328MOL0     H43234  10.534   9.581   1.633  1.6267  0.1591 -0.9593
  328MOL0     H43235  10.291   9.662   1.566 -2.3037  1.7283 -0.9800
  328MOL0     H43236  10.373   9.747   1.436 -2.3032 -0.6412  0.2743
  328MOL0     H43237  10.441   9.776   1.739 -0.6548 -1.1257 -0.0300
  328MOL0     H43238  10.329   9.876   1.658 -0.6322 -1.5200  0.0535
  328MOL0     H43239  10.625   9.828   1.569 -1.1565 -0.5857 -2.4189
  328MOL0     H43240  10.530   9.948   1.500  5.5178 -1.0506 -1.7226
  328MOL0     H43241  10.695  10.011   1.710  0.2261 -4.6075  0.2791
  328MOL0     H43242  10.547   9.982   1.803 -2.3229 -2.1506 -1.7831
  328MOL0     H43243  10.414  10.154   1.695 -1.2917 -0.3659 -0.3768
  328MOL0     H43244  10.547  10.182   1.580  1.5036  1.9022  1.7855
  328MOL0     H43245  10.535  10.201   1.886 -2.8577  1.2759  0.3391
  328MOL0     H43246  10.687  10.212   1.794 -0.6953 -1.3763 -0.3076
  328MOL0     H43247  10.451  10.401   1.814 -1.0077 -0.1442 -0.7125
  328MOL0     H43248  10.555  10.403   1.668 -0.2020 -0.7762  0.2722
  328MOL0     H43249  10.851  10.385   1.766 -0.0220 -2.5697  2.6965
  328MOL0     H43250  11.052  10.516   1.870  2.0972  0.3308  1.2727
  328MOL0     H43251  11.024  10.466   2.037  0.0888 -2.0056 -2.3566
  328MOL0     H43252  11.157  10.663   2.049  0.1196  1.9053 -0.3087
  328MOL0     H43253  11.005  10.696   2.115 -1.1391  0.0206 -1.2358
  328MOL0     H43254  11.044  10.733   1.820 -3.9038 -1.6671  0.1555
  328MOL0     H43255  10.923  10.795   1.928 -0.6573 -1.0384 -1.2542
  328MOL0     H43256  11.113  10.956   2.035  4.1404  3.3362 -1.1889
  328MOL0     H43257  11.075  10.989   1.882  0.2282  2.0954  3.5173
  328MOL0     H43258  11.211  11.141   1.909 -1.3554 -1.8704 -0.1488
  328MOL0     H43259  11.388  11.305   1.882  1.3782 -0.7138  2.0222
  328MOL0     H43260  11.806  11.506   1.738 -2.0081 -1.2291  0.0294
  328MOL0     H43261  12.017  11.603   1.695  1.2674  0.0964 -0.4815
  328MOL0     H43262  12.297  11.671   1.743 -1.8239  0.8512 -1.0824
  328MOL0     H43263  12.246  11.665   1.576 -0.6082  1.2554  0.9785
  328MOL0     H43264  12.476  11.715   1.569  2.7604 -0.0018 -0.7973
  328MOL0     H43265  12.454  11.554   1.511 -3.6566 -2.5346  1.3635
  328MOL0     H43266  12.509  11.619   1.814  2.0754  1.9530  0.4596
  328MOL0     H43267  12.632  11.603   1.693  0.2492 -1.5004 -0.4515
  328MOL0     H43268  12.457  11.357   1.758  1.2443 -0.2834  0.3673
  328MOL0     H43269  12.558  11.376   1.620  0.2619 -0.5946  1.1811
  328MOL0     H43270  12.621  11.361   1.916  2.4037 -0.4841  0.9609
  328MOL0     H43271  12.738  11.438   1.800 -1.3483  1.9576  2.9280
  328MOL0     H43272  12.797  11.210   1.843  0.9918  3.2044 -1.1532
  328MOL0     H43273  12.744  11.237   1.675  1.1516 -0.5609  0.2022
  328MOL0     H43274  12.538  11.139   1.876  0.9511  0.4741  0.4637
  328MOL0     H43275  12.532  11.109   1.705 -2.8065 -2.4609  2.2114
  328MOL0     H43276  12.557  10.915   1.796 -1.6167  1.5189 -0.9968
  328MOL0     H43277  12.682  10.972   1.909  0.2078  2.2085 -0.7860
  328MOL0     H43278  12.219  11.228   1.729 -1.6952 -1.0755  1.4525
  328MOL0     H43279  12.000  11.120   1.766 -1.4961 -0.3444 -0.7571
  328MOL0     H43280  11.644  11.007   1.721 -0.6247 -0.4214 -0.6404
  328MOL0     H43281  11.472  10.830   1.765 -0.7969  1.1385 -3.1658
  328MOL0     H43282  10.721   9.454   1.484 -1.7172  0.7410 -0.0478
  328MOL0     H43283  10.861   9.261   1.541  0.5368 -3.1463 -1.6969
  328MOL0     H43284  10.830   8.952   1.982  1.0168  1.3676 -1.1557
  328MOL0     H43285  10.934   8.752   2.077  1.4792  2.5188  1.7322
  328MOL0     H43286  10.999   8.536   2.124  1.4593  3.0934  1.9384
  328MOL0     H43287  11.128   8.636   2.093  1.5138 -0.1667 -0.5583
  328MOL0     H43288  11.144   8.428   2.227 -2.7548 -1.4658 -0.9856
  328MOL0     H43289  11.159   8.340   2.073  0.5138  1.3468 -1.0742
  328MOL0     H43290  11.362   8.509   2.015  0.1162 -0.2201  0.0091
  328MOL0     H43291  11.390   8.364   2.116 -0.4346  0.0122 -0.6900
  328MOL0     H43292  11.322   8.640   2.212  1.8231  0.2834 -1.7678
  328MOL0     H43293  11.347   8.504   2.316  2.5042 -0.3905  0.0450
  328MOL0     H43294  11.717   8.656   2.249 -1.9541 -0.0189  1.0743
  328MOL0     H43295  10.995   8.588   1.676 -1.7452 -1.2047 -0.4545
  328MOL0     H43296  10.876   8.781   1.592 -0.6187 -4.7569 -1.6151
  329MOL0     O43297   8.586   0.645   4.750 -0.5850  1.1224 -1.1054
  329MOL0     C43298   8.590   0.715   4.851  0.7031  0.2479  0.5139
  329MOL0     O43299   8.581   0.848   4.857  0.0938  0.0113  0.6362
  329MOL0     C43300   8.564   0.929   4.744  0.1052 -0.1063  0.2715
  329MOL0     C43301   8.434   0.932   4.680 -0.6832  0.1872 -0.2165
  329MOL0     C43302   8.397   1.019   4.575 -0.3102  1.4281 -0.5770
  329MOL0     C43303   8.494   1.098   4.523  0.2195 -0.3441 -1.0156
  329MOL0     O43304   8.468   1.180   4.416  0.1246  0.2719 -0.0755
  329MOL0     C43305   8.354   1.150   4.330  0.1823  0.0465 -0.3884
  329MOL0     C43306   8.357   1.264   4.230  0.1598  0.1257  0.3715
  329MOL0     C43307   8.471   1.261   4.126  0.6360  0.0430 -0.2033
  329MOL0     C43308   8.448   1.357   4.011 -0.5328 -0.3800 -0.6191
  329MOL0     C43309   8.332   1.325   3.928  0.3743 -0.2517  0.2028
  329MOL0     C43310   8.314   1.174   3.872 -0.6804 -0.4381 -0.1098
  329MOL0     C43311   8.433   1.117   3.790  1.0024 -0.3350  0.9764
  329MOL0     C43312   8.424   1.147   3.642  0.1710 -0.1818 -0.3202
  329MOL0     N43313   8.550   1.110   3.557  0.8400 -0.2014 -0.0978
  329MOL0     C43314   8.618   0.989   3.570  0.2536  0.4644  0.0102
  329MOL0     C43315   8.716   0.997   3.477 -0.4658 -0.0053  0.4934
  329MOL0     C43316   8.807   0.888   3.431 -0.0754 -0.0512  0.0410
  329MOL0     C43317   8.799   0.759   3.511 -0.2916  0.3361  0.8800
  329MOL0     C43318   8.690   0.682   3.450 -0.5783  0.2457  0.3482
  329MOL0     C43319   8.667   0.542   3.512 -0.2922 -0.0009  0.2295
  329MOL0     O43320   8.627   0.548   3.646  0.1211 -0.1485  1.0042
  329MOL0     C43321   8.630   0.434   3.718 -0.8516 -0.6821  0.0318
  329MOL0     C43322   8.535   0.412   3.817  0.5535  0.7037  0.7707
  329MOL0     C43323   8.510   0.287   3.861 -0.3272  0.3956 -0.6532
  329MOL0     C43324   8.601   0.178   3.831  0.2674  0.8263 -0.7148
  329MOL0     C43325   8.577   0.043   3.894  0.9860 -0.5148  0.1019
  329MOL0     O43326   8.633  -0.069   3.834  0.1589  0.1689  0.4469
  329MOL0     C43327   8.612  -0.196   3.903 -0.0869 -0.3247  0.0484
  329MOL0     C43328   8.475  -0.223   3.922  0.1341  0.0935  0.0799
  329MOL0     C43329   8.436  -0.336   3.999  0.8530 -0.5743 -1.0541
  329MOL0     C43330   8.533  -0.421   4.062  1.1745  0.8021  0.2271
  329MOL0     O43331   8.501  -0.532   4.141  0.8153  0.1263  0.2316
  329MOL0     C43332   8.508  -0.648   4.067 -0.3328 -1.1792  0.7015
  329MOL0     C43333   8.407  -0.745   4.134 -0.2293 -1.0507 -0.4963
  329MOL0     C43334   8.266  -0.715   4.102 -0.6647 -0.0403 -0.4666
  329MOL0     C43335   8.181  -0.835   4.127  0.9998  0.3891 -0.3022
  329MOL0     C43336   8.030  -0.798   4.140 -2.0488 -0.2588  0.2650
  329MOL0     C43337   7.980  -0.726   4.017 -0.9061  0.0939 -0.5151
  329MOL0     C43338   7.828  -0.698   4.023 -0.4003  0.3558  0.5290
  329MOL0     C43339   7.798  -0.608   3.901  0.1690  0.6076 -0.4336
  329MOL0    Cl43340   7.631  -0.538   3.903  0.3432 -0.6563 -0.1561
  329MOL0     C43341   8.668  -0.395   4.043 -0.1433 -1.5596 -0.4953
  329MOL0     C43342   8.706  -0.288   3.954  1.1020  0.0955 -0.1687
  329MOL0     O43343   8.505   0.043   3.993 -0.9343 -0.2575 -0.2029
  329MOL0     C43344   8.702   0.201   3.744  0.1265  1.2875 -0.3045
  329MOL0     C43345   8.718   0.325   3.689 -1.1649  0.4859  0.1106
  329MOL0     N43346   8.719   1.123   3.425  0.3486  0.1466 -0.6602
  329MOL0     N43347   8.625   1.195   3.480  0.5774  0.5426  0.1758
  329MOL0     C43348   8.628   1.099   4.579  0.4471  0.1893 -0.8906
  329MOL0     C43349   8.660   1.021   4.696  0.0951  0.1232  0.4338
  329MOL0     C43350   8.605   0.644   4.983 -0.9686 -0.5104  0.5122
  329MOL0     C43351   8.642   0.710   5.106  0.5461 -0.3918 -0.5056
  329MOL0     C43352   8.637   0.642   5.227 -0.2925  1.2343  1.1471
  329MOL0     C43353   8.625   0.502   5.242 -0.4054  0.5171  0.8518
  329MOL0     O43354   8.648   0.427   5.361  0.8598  0.6081 -0.3944
  329MOL0     C43355   8.628   0.279   5.369  0.2881  0.8770  0.3437
  329MOL0     C43356   8.486   0.225   5.348 -0.3862  0.1389 -0.1742
  329MOL0     C43357   8.402   0.241   5.480 -0.3482 -0.6205 -0.9784
  329MOL0     C43358   8.260   0.217   5.455 -0.7431 -1.2249 -0.4758
  329MOL0     C43359   8.230   0.082   5.411 -0.2187  0.1234  0.1992
  329MOL0     C43360   8.218  -0.027   5.365 -0.0433 -0.1074 -0.4301
  329MOL0     C43361   8.592   0.442   5.121 -0.3064 -0.0659  0.1477
  329MOL0     C43362   8.573   0.510   4.999  0.3204  0.4939  0.1064
  329MOL0     H43363   8.367   0.847   4.689  0.2759 -0.4086  1.9624
  329MOL0     H43364   8.295   1.018   4.537 -0.1775 -2.8642 -1.3853
  329MOL0     H43365   8.259   1.146   4.384  1.2130  1.1399  1.6134
  329MOL0     H43366   8.365   1.056   4.276  1.1296 -0.8175  1.2371
  329MOL0     H43367   8.380   1.359   4.278 -0.2997 -0.1380  1.1310
  329MOL0     H43368   8.263   1.254   4.175 -0.4015  1.5626  1.0323
  329MOL0     H43369   8.469   1.161   4.083 -2.1533 -0.9173  1.8320
  329MOL0     H43370   8.569   1.281   4.170 -0.5696  2.1331  1.7339
  329MOL0     H43371   8.445   1.449   4.070  1.5144 -1.7915  1.8536
  329MOL0     H43372   8.540   1.352   3.953  2.2169 -1.5220  3.3982
  329MOL0     H43373   8.332   1.389   3.839 -2.3921  0.6545  0.7543
  329MOL0     H43374   8.232   1.331   3.971  0.4974 -3.2208  1.1763
  329MOL0     H43375   8.221   1.155   3.818 -2.1725  0.9706  1.8481
  329MOL0     H43376   8.311   1.116   3.965 -1.8171 -0.0171  0.1304
  329MOL0     H43377   8.533   1.152   3.815  1.6669 -0.5721 -1.1993
  329MOL0     H43378   8.434   1.008   3.806  1.7989 -1.0552 -2.9657
  329MOL0     H43379   8.407   1.254   3.624  0.2111  0.0481  0.9041
  329MOL0     H43380   8.333   1.097   3.608  0.4362 -0.9609  0.0967
  329MOL0     H43381   8.592   0.896   3.621  1.7611 -0.8036 -1.4528
  329MOL0     H43382   8.904   0.935   3.449 -0.0114  1.1496 -2.8357
  329MOL0     H43383   8.797   0.869   3.324  0.6665 -0.7364  0.0845
  329MOL0     H43384   8.784   0.764   3.620  0.7643 -2.5702  1.2555
  329MOL0     H43385   8.897   0.712   3.496 -0.9063 -0.7012 -0.0569
  329MOL0     H43386   8.592   0.731   3.447 -3.6243 -5.0596 -2.0600
  329MOL0     H43387   8.717   0.663   3.345 -0.9072 -2.4041  0.6704
  329MOL0     H43388   8.766   0.501   3.489 -0.5265 -0.4768  0.0667
  329MOL0     H43389   8.596   0.491   3.447 -1.6915  2.7845 -0.5634
  329MOL0     H43390   8.491   0.498   3.866  0.3819  1.0291  0.0554
  329MOL0     H43391   8.434   0.275   3.938  0.3616  1.7161  0.2648
  329MOL0     H43392   8.397  -0.161   3.879  0.8165  1.7413  1.1021
  329MOL0     H43393   8.329  -0.338   4.013  0.9801  0.4226  0.3131
  329MOL0     H43394   8.615  -0.675   4.067  0.1088  0.4440 -0.4785
  329MOL0     H43395   8.467  -0.642   3.966 -1.1119 -2.6456  0.8999
  329MOL0     H43396   8.430  -0.732   4.240 -2.6701 -0.5555  0.0406
  329MOL0     H43397   8.428  -0.845   4.093 -1.2268 -0.0862 -3.6691
  329MOL0     H43398   8.255  -0.677   4.000 -2.2945 -3.8649 -1.8779
  329MOL0     H43399   8.231  -0.637   4.171 -2.1150  0.2917 -1.5222
  329MOL0     H43400   8.202  -0.917   4.058 -1.5438  0.7099 -1.5739
  329MOL0     H43401   8.190  -0.879   4.227 -3.4841  2.1347  1.1199
  329MOL0     H43402   8.025  -0.724   4.220  3.5210 -0.1314  0.8856
  329MOL0     H43403   7.965  -0.885   4.156  0.1022 -2.0472 -0.3002
  329MOL0     H43404   8.014  -0.781   3.929 -0.2841 -0.5540  0.1230
  329MOL0     H43405   8.036  -0.632   4.023 -1.1427  0.3142 -1.4397
  329MOL0     H43406   7.776  -0.794   4.031  1.7682 -1.0950 -1.4974
  329MOL0     H43407   7.808  -0.645   4.117  1.2604 -1.3538  1.9138
  329MOL0     H43408   7.822  -0.657   3.806  3.6251 -0.2153  0.7046
  329MOL0     H43409   7.875  -0.531   3.912  1.4692 -0.6464 -0.5279
  329MOL0     H43410   8.740  -0.466   4.081  0.8670  0.4021  1.4898
  329MOL0     H43411   8.807  -0.288   3.913  1.1158 -3.5212 -0.4973
  329MOL0     H43412   8.755   0.109   3.719 -1.8156 -0.5423  1.7751
  329MOL0     H43413   8.785   0.327   3.604 -0.9999  0.1071  0.2307
  329MOL0     H43414   8.701   1.161   4.529  3.9969 -1.4440  1.7928
  329MOL0     H43415   8.759   1.038   4.736 -1.4251  4.3386  3.0400
  329MOL0     H43416   8.657   0.817   5.111 -1.8861  0.0399 -0.8118
  329MOL0     H43417   8.660   0.697   5.318 -0.3376 -2.1124  3.3250
  329MOL0     H43418   8.674   0.248   5.464 -0.3309 -0.8607  0.1100
  329MOL0     H43419   8.691   0.224   5.299 -2.6279 -0.8988 -1.0734
  329MOL0     H43420   8.433   0.259   5.259 -0.3473  2.3938  0.6074
  329MOL0     H43421   8.500   0.119   5.326  3.3061  0.5049 -0.1165
  329MOL0     H43422   8.420   0.338   5.527 -1.6647 -1.9248  2.5535
  329MOL0     H43423   8.436   0.163   5.549  0.7979  0.8121  0.1744
  329MOL0     H43424   8.211   0.228   5.552 -0.2151  1.3806 -0.4190
  329MOL0     H43425   8.220   0.288   5.382 -0.0370 -1.2922 -0.9367
  329MOL0     H43426   8.196  -0.122   5.321 -0.0152 -0.8729  1.1156
  329MOL0     H43427   8.589   0.334   5.124  2.4592 -0.2101  2.7755
  329MOL0     H43428   8.533   0.448   4.919 -1.5563  1.4113  0.2582
  330MOL0     O43429   3.110   5.628   0.468 -0.0981 -0.0591  0.0865
  330MOL0     C43430   3.210   5.651   0.532 -0.2835 -1.2015  0.7970
  330MOL0     O43431   3.307   5.750   0.495  0.0115  0.6083  0.0197
  330MOL0     C43432   3.288   5.802   0.371  0.0616 -0.0259 -0.4604
  330MOL0     C43433   3.368   5.776   0.258 -0.8783  0.7669 -0.3991
  330MOL0     C43434   3.356   5.845   0.137 -0.3024 -1.4362  1.1683
  330MOL0     C43435   3.246   5.925   0.121 -0.4577  0.4473  0.3521
  330MOL0     O43436   3.224   5.967  -0.005 -0.0559  0.3479 -0.7104
  330MOL0     C43437   3.095   5.994  -0.052  0.0992  0.6005  0.3811
  330MOL0     C43438   3.083   5.964  -0.210 -0.7759 -0.8373  0.5041
  330MOL0     C43439   3.189   6.049  -0.285  0.7575  0.8588  0.5680
  330MOL0     C43440   3.192   6.199  -0.257  0.2121  0.1666 -0.6121
  330MOL0     C43441   3.059   6.273  -0.282  0.0315 -0.1925  0.0902
  330MOL0     C43442   3.104   6.420  -0.259  0.5812  0.5237  0.3034
  330MOL0     C43443   3.000   6.528  -0.256  0.3689 -0.5996 -0.6902
  330MOL0     C43444   3.064   6.665  -0.263 -0.4318 -0.9238 -0.0839
  330MOL0     N43445   3.129   6.701  -0.393 -0.3191  0.0702 -0.1201
  330MOL0     C43446   3.057   6.758  -0.495  0.3256  0.3647  0.5691
  330MOL0     C43447   3.150   6.788  -0.586 -0.1963  0.4064  0.0467
  330MOL0     C43448   3.136   6.864  -0.719 -1.0179 -0.3342 -0.0480
  330MOL0     C43449   3.160   6.756  -0.827 -0.1419 -0.4041 -0.3371
  330MOL0     C43450   3.309   6.724  -0.858  0.7197 -0.5312 -0.3932
  330MOL0     C43451   3.336   6.591  -0.936 -0.6825  0.5886 -0.2690
  330MOL0     O43452   3.305   6.607  -1.069 -0.0646  0.6364  0.1312
  330MOL0     C43453   3.397   6.648  -1.164 -0.2154 -0.6116 -0.1054
  330MOL0     C43454   3.348   6.663  -1.300  0.7408 -0.3478 -0.1582
  330MOL0     C43455   3.413   6.709  -1.401 -1.0650  0.0956  0.2089
  330MOL0     C43456   3.550   6.748  -1.383 -0.3016  0.4045 -0.1612
  330MOL0     C43457   3.644   6.778  -1.495 -0.3427  0.6883  0.5008
  330MOL0     O43458   3.781   6.756  -1.465 -0.2619 -0.7425 -0.1573
  330MOL0     C43459   3.872   6.761  -1.561  1.4534 -0.6796 -1.0532
  330MOL0     C43460   3.893   6.655  -1.653  0.1452  0.2884  0.1544
  330MOL0     C43461   3.990   6.678  -1.750 -0.2315 -0.9820 -0.1356
  330MOL0     C43462   4.076   6.785  -1.754 -0.0394  0.0743  0.9024
  330MOL0     O43463   4.167   6.774  -1.858 -0.9658 -0.3751 -0.0645
  330MOL0     C43464   4.280   6.853  -1.863 -0.8074 -0.0389  0.2302
  330MOL0     C43465   4.309   6.874  -2.011 -0.4533 -0.5066 -0.1790
  330MOL0     C43466   4.335   6.760  -2.093 -0.1582  0.1859 -0.1972
  330MOL0     C43467   4.467   6.684  -2.060 -1.2864 -0.2638  0.2874
  330MOL0     C43468   4.601   6.731  -2.118 -0.6530  0.0380  0.0986
  330MOL0     C43469   4.649   6.870  -2.068 -0.5845  0.3452  0.6957
  330MOL0     C43470   4.790   6.894  -2.132  0.7717 -0.7409 -0.7544
  330MOL0     C43471   4.866   7.003  -2.068  0.2339  0.6876  0.6852
  330MOL0    Cl43472   5.031   7.028  -2.139  0.3093 -0.0030 -0.0515
  330MOL0     C43473   4.058   6.886  -1.658  0.9539  0.9867  0.6744
  330MOL0     C43474   3.961   6.871  -1.559  0.8297 -0.0923  0.1009
  330MOL0     O43475   3.594   6.787  -1.606 -0.1385 -0.2487 -0.4033
  330MOL0     C43476   3.611   6.716  -1.258 -0.7098  0.7154 -1.0624
  330MOL0     C43477   3.536   6.667  -1.151  0.4652  0.3414 -0.3169
  330MOL0     N43478   3.275   6.744  -0.548  0.4010  0.4709 -0.2929
  330MOL0     N43479   3.268   6.705  -0.423  0.9855 -0.0638  0.0456
  330MOL0     C43480   3.164   5.962   0.225  0.1155  0.3460  0.3298
  330MOL0     C43481   3.188   5.898   0.351  0.0553  0.1849  0.2634
  330MOL0     C43482   3.230   5.591   0.658 -0.3492  0.9026 -0.0401
  330MOL0     C43483   3.172   5.460   0.677 -0.1975  0.4196 -0.1638
  330MOL0     C43484   3.193   5.385   0.794  0.4409  0.0528  0.8681
  330MOL0     C43485   3.277   5.438   0.901 -0.2687  0.2414  0.4286
  330MOL0     O43486   3.296   5.345   0.996  0.1173 -0.1249  0.0524
  330MOL0     C43487   3.339   5.392   1.127  0.1014  0.0010 -1.5449
  330MOL0     C43488   3.219   5.466   1.213  0.3522 -1.1563  0.4170
  330MOL0     C43489   3.105   5.364   1.209 -0.1856  0.3423 -0.1710
  330MOL0     C43490   3.015   5.389   1.319 -0.2264 -0.0995 -0.5193
  330MOL0     C43491   2.912   5.478   1.280  0.1624 -0.4866  1.2008
  330MOL0     C43492   2.821   5.550   1.236  0.7618 -0.4581 -0.1846
  330MOL0     C43493   3.338   5.564   0.889  0.1312  1.1412 -0.8508
  330MOL0     C43494   3.310   5.639   0.766  0.2940 -0.7994  0.4031
  330MOL0     H43495   3.445   5.700   0.258 -1.1629  0.3400 -3.8032
  330MOL0     H43496   3.425   5.835   0.054  1.5496 -0.3386  2.5076
  330MOL0     H43497   3.067   6.095  -0.021 -2.0469  0.7490 -1.7638
  330MOL0     H43498   3.011   5.953   0.004 -1.8953  0.5404 -2.4360
  330MOL0     H43499   2.981   5.992  -0.241 -0.8469 -1.0474  0.5460
  330MOL0     H43500   3.094   5.861  -0.246 -1.8555 -1.1093  0.9015
  330MOL0     H43501   3.165   6.034  -0.390  0.7930 -0.4375  0.7364
  330MOL0     H43502   3.289   6.007  -0.269  0.1399 -0.6561  0.6502
  330MOL0     H43503   3.227   6.226  -0.157 -0.8748 -0.2154 -0.1065
  330MOL0     H43504   3.266   6.238  -0.327  1.1675  1.6313  1.1283
  330MOL0     H43505   2.999   6.234  -0.199  2.3357 -0.5879  1.6585
  330MOL0     H43506   3.011   6.247  -0.376  3.9673 -4.2274 -1.1464
  330MOL0     H43507   3.179   6.441  -0.337 -0.3409  0.9931 -0.4741
  330MOL0     H43508   3.155   6.435  -0.164 -0.8526  0.1431  1.1614
  330MOL0     H43509   2.939   6.502  -0.343 -0.3275 -0.3132 -0.2912
  330MOL0     H43510   2.950   6.505  -0.162  1.7440 -2.2952 -0.3230
  330MOL0     H43511   3.145   6.667  -0.190  1.6073 -3.0344 -2.1335
  330MOL0     H43512   2.995   6.746  -0.235 -1.3246 -1.4941 -0.5948
  330MOL0     H43513   2.953   6.787  -0.506 -0.1599 -1.0772  1.0245
  330MOL0     H43514   3.205   6.949  -0.724 -1.2189 -0.1481  0.3678
  330MOL0     H43515   3.032   6.893  -0.733 -1.2536 -2.3595 -4.5698
  330MOL0     H43516   3.115   6.791  -0.921 -0.7719  1.2365  0.5273
  330MOL0     H43517   3.117   6.667  -0.780  0.7167  1.3182  4.1922
  330MOL0     H43518   3.357   6.801  -0.919  1.7773  0.0284  1.0779
  330MOL0     H43519   3.373   6.722  -0.769 -0.1882 -0.7870  0.2598
  330MOL0     H43520   3.266   6.512  -0.907 -0.2757  0.0509 -0.7367
  330MOL0     H43521   3.439   6.558  -0.921 -1.0350 -0.3007  0.2947
  330MOL0     H43522   3.249   6.634  -1.334  0.9570  0.9410 -2.0285
  330MOL0     H43523   3.379   6.717  -1.504  0.2079  1.0796 -0.1592
  330MOL0     H43524   3.844   6.558  -1.654 -1.0010  0.8247  1.3270
  330MOL0     H43525   4.003   6.594  -1.818 -2.6874 -1.7407  0.2662
  330MOL0     H43526   4.370   6.812  -1.815 -0.5352 -0.6565 -0.7794
  330MOL0     H43527   4.266   6.953  -1.821 -1.6693 -1.1590  2.8535
  330MOL0     H43528   4.397   6.936  -2.030  0.0001 -1.3536 -0.8821
  330MOL0     H43529   4.224   6.927  -2.054  1.0681  3.2296  0.9906
  330MOL0     H43530   4.340   6.800  -2.195 -1.5595 -0.7459 -0.6628
  330MOL0     H43531   4.247   6.695  -2.092 -1.0466  1.3729  0.2063
  330MOL0     H43532   4.468   6.677  -1.951 -2.3760  0.4685  0.3633
  330MOL0     H43533   4.460   6.582  -2.100 -4.3886 -0.2133  0.4633
  330MOL0     H43534   4.602   6.732  -2.228  1.2079 -3.2078 -0.0614
  330MOL0     H43535   4.685   6.662  -2.105  0.7265  0.9662 -2.8339
  330MOL0     H43536   4.659   6.884  -1.959  1.6338  2.3632  0.3333
  330MOL0     H43537   4.585   6.948  -2.108  1.9434  3.9321  2.9600
  330MOL0     H43538   4.843   6.799  -2.124 -0.0719 -1.1470  0.2363
  330MOL0     H43539   4.782   6.921  -2.238  2.1049 -0.5655 -0.8228
  330MOL0     H43540   4.871   6.975  -1.963 -1.3265 -4.7539 -0.4206
  330MOL0     H43541   4.802   7.091  -2.081 -1.2339 -0.2823  1.1404
  330MOL0     H43542   4.117   6.975  -1.642  3.1766 -0.5403  1.5461
  330MOL0     H43543   3.961   6.948  -1.482 -6.2362  1.0374 -0.3951
  330MOL0     H43544   3.718   6.725  -1.238 -0.4368 -3.0183 -0.0024
  330MOL0     H43545   3.585   6.650  -1.056  0.5901 -2.0285 -0.7470
  330MOL0     H43546   3.074   6.023   0.214 -1.4792 -1.8188  0.7736
  330MOL0     H43547   3.124   5.916   0.437 -0.3516 -0.3445  0.0721
  330MOL0     H43548   3.111   5.412   0.601 -1.6336 -0.9092  1.7333
  330MOL0     H43549   3.133   5.296   0.809  2.1302 -1.2783  0.0173
  330MOL0     H43550   3.424   5.460   1.119  1.8290 -1.9051 -0.3902
  330MOL0     H43551   3.362   5.305   1.189  0.4182 -0.7566 -2.6872
  330MOL0     H43552   3.246   5.483   1.318  2.5838  0.1704 -0.3087
  330MOL0     H43553   3.205   5.553   1.149 -0.5120 -2.3310 -1.0509
  330MOL0     H43554   3.146   5.266   1.236  1.5248  1.0215 -0.2157
  330MOL0     H43555   3.047   5.352   1.116  0.0797  0.1372 -0.3135
  330MOL0     H43556   2.960   5.300   1.350  0.6961 -0.5469 -0.1363
  330MOL0     H43557   3.071   5.410   1.411 -0.4330 -1.1332 -0.1487
  330MOL0     H43558   2.726   5.595   1.220  0.8255  0.5246  1.8891
  330MOL0     H43559   3.400   5.605   0.968 -0.5888 -1.3889  1.1408
  330MOL0     H43560   3.364   5.733   0.763 -0.3691 -0.4331 -1.5199
  331MOL0     O43561   7.097   0.814   0.787 -0.3498  0.7972  0.9051
  331MOL0     C43562   6.992   0.842   0.846 -0.3449 -0.0370  0.1173
  331MOL0     O43563   6.983   0.889   0.983  0.5463  0.3986  0.1842
  331MOL0     C43564   7.095   0.892   1.063  0.3909 -0.1294 -0.2723
  331MOL0     C43565   7.093   0.849   1.196  0.1504 -0.3389 -1.0685
  331MOL0     C43566   7.210   0.861   1.281  0.0626 -0.8611 -0.2126
  331MOL0     C43567   7.324   0.916   1.224  0.1897 -0.3295 -0.6765
  331MOL0     O43568   7.447   0.946   1.295  0.8714  0.0500  0.0931
  331MOL0     C43569   7.459   0.922   1.431  0.3524  0.8040  0.6818
  331MOL0     C43570   7.612   0.935   1.468 -0.1808 -0.2928 -0.0658
  331MOL0     C43571   7.646   1.076   1.523 -0.2494 -0.3318 -1.2670
  331MOL0     C43572   7.667   1.180   1.410  0.3786 -0.4158  0.5459
  331MOL0     C43573   7.662   1.327   1.465 -0.1891 -0.3771 -0.8536
  331MOL0     C43574   7.750   1.371   1.583  0.3950  0.4271 -1.0314
  331MOL0     C43575   7.897   1.363   1.572 -0.9071  0.9427 -0.1317
  331MOL0     C43576   7.970   1.420   1.444  0.7934  0.6365  0.3529
  331MOL0     N43577   8.113   1.427   1.462 -0.0857 -0.7969  0.8708
  331MOL0     C43578   8.199   1.529   1.413 -0.0539  0.3391 -1.1024
  331MOL0     C43579   8.319   1.484   1.462  0.3591  0.0901 -0.1313
  331MOL0     C43580   8.460   1.537   1.436 -0.3263  0.2654  0.2530
  331MOL0     C43581   8.574   1.428   1.426 -0.1358 -1.0653 -0.4537
  331MOL0     C43582   8.706   1.500   1.388  0.1682  0.5291 -0.4127
  331MOL0     C43583   8.825   1.406   1.347 -0.2819 -0.0301  0.0866
  331MOL0     O43584   8.882   1.336   1.463 -0.7398  0.4265  0.3060
  331MOL0     C43585   8.998   1.266   1.441 -0.5582 -0.1046 -0.6964
  331MOL0     C43586   9.056   1.226   1.322  0.4291 -0.0644  0.3731
  331MOL0     C43587   9.167   1.146   1.330  0.8512  0.3613 -0.0152
  331MOL0     C43588   9.225   1.110   1.456 -0.6823 -0.5712  0.2171
  331MOL0     C43589   9.343   1.029   1.466 -0.6961 -0.2063 -1.0659
  331MOL0     O43590   9.422   1.062   1.575 -0.0723  0.4821  0.7099
  331MOL0     C43591   9.552   1.023   1.561 -1.1004  0.0623  0.0124
  331MOL0     C43592   9.593   0.901   1.607  0.3616  0.0427 -0.1660
  331MOL0     C43593   9.720   0.847   1.602  0.6435  0.0850 -0.1369
  331MOL0     C43594   9.808   0.930   1.523 -0.5923  0.2513  0.0819
  331MOL0     O43595   9.938   0.895   1.484 -0.0649 -0.6537  0.1289
  331MOL0     C43596   9.949   0.750   1.472 -0.1248  0.8799 -0.4597
  331MOL0     C43597  10.074   0.711   1.387 -0.2360 -0.2490  1.3399
  331MOL0     C43598  10.089   0.562   1.380 -0.5059  0.9427  0.1745
  331MOL0     C43599  10.212   0.515   1.306  0.7172 -0.0259  0.6429
  331MOL0     C43600  10.219   0.542   1.148  0.3611 -0.0656 -0.0898
  331MOL0     C43601  10.089   0.491   1.086  0.8183  0.2164  0.3728
  331MOL0     C43602  10.067   0.513   0.943  0.1324 -0.2513 -0.2248
  331MOL0     C43603  10.029   0.393   0.851  0.9251  0.4216 -0.9210
  331MOL0    Cl43604   9.893   0.289   0.915  0.0569 -0.0658 -0.0247
  331MOL0     C43605   9.775   1.057   1.472 -0.8074  0.0155  0.1940
  331MOL0     C43606   9.653   1.106   1.502  0.8301 -0.9974 -0.7773
  331MOL0     O43607   9.385   0.972   1.367 -0.0940 -0.0229 -0.0994
  331MOL0     C43608   9.162   1.151   1.571 -0.0557  0.1936 -0.4326
  331MOL0     C43609   9.052   1.236   1.565 -0.2786 -0.2752  0.6273
  331MOL0     N43610   8.302   1.367   1.530 -0.3115  0.2324 -0.5757
  331MOL0     N43611   8.181   1.329   1.526 -0.3118  0.4554  0.6693
  331MOL0     C43612   7.324   0.962   1.093 -1.6365  0.2121 -0.2785
  331MOL0     C43613   7.212   0.954   1.012 -0.3705 -0.5543 -0.3400
  331MOL0     C43614   6.875   0.845   0.753 -1.0439  0.8719 -1.0986
  331MOL0     C43615   6.746   0.866   0.821 -0.3822  0.0140  0.3677
  331MOL0     C43616   6.624   0.858   0.749  0.1428  0.9953 -0.4922
  331MOL0     C43617   6.625   0.833   0.610  0.3215 -0.6101 -0.5942
  331MOL0     O43618   6.498   0.820   0.544  0.5251 -0.3553  0.4209
  331MOL0     C43619   6.515   0.788   0.411  0.0552 -0.7096  0.6460
  331MOL0     C43620   6.369   0.756   0.364  1.0426 -0.2571 -0.1789
  331MOL0     C43621   6.268   0.885   0.358 -0.2268  0.2857  0.6838
  331MOL0     C43622   6.311   0.994   0.266 -0.5249 -0.7409 -0.3177
  331MOL0     C43623   6.326   0.967   0.122  0.3557  0.3739 -0.1338
  331MOL0     C43624   6.328   0.934   0.009  0.1173 -0.5448 -1.1464
  331MOL0     C43625   6.746   0.819   0.549 -0.6434 -0.8706 -0.1533
  331MOL0     C43626   6.868   0.807   0.619 -0.0180  0.3349  1.1827
  331MOL0     H43627   7.010   0.814   1.257 -0.5293 -0.2981 -1.9542
  331MOL0     H43628   7.193   0.845   1.387  2.1001 -3.5816 -0.1731
  331MOL0     H43629   7.445   0.814   1.434 -0.3809  0.8430 -0.4859
  331MOL0     H43630   7.389   0.985   1.488 -0.2975  0.0402  0.7446
  331MOL0     H43631   7.684   0.900   1.393  1.1841 -3.8962  2.6407
  331MOL0     H43632   7.632   0.866   1.551  1.9490  0.2988 -0.0212
  331MOL0     H43633   7.736   1.050   1.580 -0.5889 -1.4514 -1.2189
  331MOL0     H43634   7.566   1.112   1.589  0.7674  0.2637 -0.3115
  331MOL0     H43635   7.764   1.169   1.361  1.0711  0.7024  1.5869
  331MOL0     H43636   7.588   1.162   1.337 -1.2175 -4.1388  2.8564
  331MOL0     H43637   7.558   1.356   1.482 -0.6031 -0.5436 -2.7852
  331MOL0     H43638   7.689   1.380   1.373  1.7932 -0.2336 -0.2188
  331MOL0     H43639   7.721   1.297   1.658 -2.5168  0.5928 -1.8475
  331MOL0     H43640   7.724   1.472   1.618  0.1979 -0.8141  2.8457
  331MOL0     H43641   7.942   1.395   1.666  1.4137 -1.2472 -0.3963
  331MOL0     H43642   7.914   1.255   1.568 -1.9023  0.7468  0.5367
  331MOL0     H43643   7.937   1.523   1.425 -0.6108  0.1085 -0.2517
  331MOL0     H43644   7.955   1.356   1.356  3.9304  1.4613 -0.8892
  331MOL0     H43645   8.178   1.615   1.350 -2.5774 -0.6032 -1.6628
  331MOL0     H43646   8.484   1.600   1.522 -0.6260  0.9867 -0.1844
  331MOL0     H43647   8.474   1.607   1.353  4.6598  0.9508  1.3472
  331MOL0     H43648   8.549   1.360   1.344 -2.1778  5.1808 -5.9121
  331MOL0     H43649   8.592   1.384   1.525  1.1061 -0.7761 -0.5295
  331MOL0     H43650   8.692   1.573   1.308  1.4233  1.9319  0.5843
  331MOL0     H43651   8.741   1.562   1.472  0.2974  0.9361 -0.7643
  331MOL0     H43652   8.897   1.458   1.282  1.8728 -2.5124  0.3035
  331MOL0     H43653   8.785   1.330   1.279  0.7451  2.4279 -3.5331
  331MOL0     H43654   9.010   1.257   1.229 -3.6592 -1.0820  1.8389
  331MOL0     H43655   9.224   1.103   1.248  1.3526 -0.5263  0.7787
  331MOL0     H43656   9.514   0.851   1.661  0.5950 -1.7262 -1.4052
  331MOL0     H43657   9.748   0.750   1.641  1.5984 -0.0921 -1.1985
  331MOL0     H43658   9.865   0.699   1.423  1.6077 -0.3166 -2.3799
  331MOL0     H43659   9.953   0.702   1.570 -1.7463  1.4391 -0.0756
  331MOL0     H43660  10.171   0.749   1.422  0.3755 -2.2639  1.9613
  331MOL0     H43661  10.061   0.757   1.289  3.1708  2.0220  1.7542
  331MOL0     H43662   9.996   0.509   1.359 -0.1024  0.5859 -0.7934
  331MOL0     H43663  10.109   0.532   1.483  0.0986 -1.1383 -0.5109
  331MOL0     H43664  10.299   0.571   1.341  2.0994 -0.7477 -1.4083
  331MOL0     H43665  10.220   0.406   1.311 -1.5707 -0.7606 -4.4662
  331MOL0     H43666  10.309   0.501   1.100 -0.3213 -1.3644 -0.2941
  331MOL0     H43667  10.215   0.647   1.117 -1.6618 -1.0658 -3.7068
  331MOL0     H43668  10.006   0.548   1.128 -0.5337 -1.3845 -0.0178
  331MOL0     H43669  10.067   0.386   1.110 -2.3517  0.6763 -0.0973
  331MOL0     H43670   9.996   0.595   0.932 -0.4614 -0.7811 -0.4318
  331MOL0     H43671  10.161   0.562   0.913  0.4864  1.4776  3.2543
  331MOL0     H43672  10.112   0.321   0.853 -0.8451 -1.7041  0.6932
  331MOL0     H43673  10.010   0.431   0.750 -1.8379 -2.2971 -1.5551
  331MOL0     H43674   9.841   1.108   1.404 -1.0049  1.2123  0.8747
  331MOL0     H43675   9.613   1.197   1.459  2.6888  0.9870  1.4700
  331MOL0     H43676   9.201   1.125   1.669  1.4803  0.1844 -1.0345
  331MOL0     H43677   9.003   1.279   1.652  0.1087 -0.0253  0.7195
  331MOL0     H43678   7.418   1.002   1.055 -1.6887  0.4126 -0.1944
  331MOL0     H43679   7.221   0.990   0.910  1.3385 -3.9775 -1.5542
  331MOL0     H43680   6.726   0.867   0.928  1.6330 -0.9301  0.7949
  331MOL0     H43681   6.527   0.851   0.797  0.0916 -0.6734 -0.7776
  331MOL0     H43682   6.579   0.701   0.395  0.8358  0.3282 -2.4877
  331MOL0     H43683   6.566   0.866   0.354  2.8240 -4.0839 -1.9638
  331MOL0     H43684   6.359   0.722   0.260  0.2400 -0.0047 -0.1897
  331MOL0     H43685   6.327   0.683   0.434  0.5540  0.2878  0.1036
  331MOL0     H43686   6.263   0.915   0.463  2.7066 -2.7125  1.8775
  331MOL0     H43687   6.173   0.844   0.325 -0.8661  0.4388  2.2440
  331MOL0     H43688   6.250   1.084   0.276  1.8077  0.9754 -0.6060
  331MOL0     H43689   6.415   1.011   0.295 -0.4833 -1.8686  0.2326
  331MOL0     H43690   6.323   0.914  -0.096  1.5883  0.0022 -1.3423
  331MOL0     H43691   6.760   0.782   0.448  2.6010 -0.1021 -0.0942
  331MOL0     H43692   6.959   0.817   0.561 -2.3887  2.2086 -2.6206
  332MOL0     O43693  11.031   1.534   9.776 -0.0222  0.7108  0.8214
  332MOL0     C43694  10.921   1.561   9.801  0.4973 -0.5479 -0.0964
  332MOL0     O43695  10.870   1.689   9.841 -1.2996 -0.0622  0.5216
  332MOL0     C43696  10.973   1.783   9.845  0.2603 -0.3876  1.1917
  332MOL0     C43697  10.950   1.892   9.756 -0.6393  1.3998  0.7559
  332MOL0     C43698  11.059   1.979   9.723 -1.2319 -0.1752 -0.7492
  332MOL0     C43699  11.187   1.965   9.786 -0.2874 -0.4067  0.1410
  332MOL0     O43700  11.285   2.053   9.755 -0.0024  0.4020 -0.2288
  332MOL0     C43701  11.417   2.023   9.806 -0.9299 -0.1658  0.7133
  332MOL0     C43702  11.522   2.088   9.706  0.6537 -0.4542  0.3383
  332MOL0     C43703  11.669   2.030   9.738 -0.1112  1.4457  0.0399
  332MOL0     C43704  11.776   2.087   9.646 -0.4250  0.4992  0.0402
  332MOL0     C43705  11.905   2.020   9.668 -0.2170 -0.0320  0.2671
  332MOL0     C43706  12.012   2.060   9.559  0.4891  0.0637  0.5301
  332MOL0     C43707  12.140   1.990   9.548  0.2342 -0.3916 -0.5315
  332MOL0     C43708  12.224   2.002   9.416  0.0282  0.6081 -1.1085
  332MOL0     N43709  12.360   1.938   9.426 -0.5502 -0.1356 -0.1182
  332MOL0     C43710  12.390   1.809   9.445 -0.0091  0.2372  0.2671
  332MOL0     C43711  12.520   1.813   9.478 -0.4635  0.0503  0.3338
  332MOL0     C43712  12.619   1.706   9.514 -0.0809 -0.3897  0.5518
  332MOL0     C43713  12.608   1.642   9.654 -0.4308  0.8089 -0.2843
  332MOL0     C43714  12.557   1.729   9.766  0.5342  0.6631  0.0731
  332MOL0     C43715  12.611   1.686   9.903  0.5090  0.0966  0.4028
  332MOL0     O43716  12.540   1.758  10.006  0.4377  0.0934  0.1207
  332MOL0     C43717  12.567   1.728  10.137 -0.2904 -0.1383  0.4156
  332MOL0     C43718  12.682   1.673  10.173 -0.0403  0.5234 -0.8635
  332MOL0     C43719  12.701   1.632  10.307 -0.7169 -0.5087 -0.5988
  332MOL0     C43720  12.623   1.681  10.404 -1.0089  0.3962  0.9356
  332MOL0     C43721  12.678   1.661  10.542  0.3126  0.6956 -0.3566
  332MOL0     O43722  12.745   1.546  10.568 -0.1478  1.1293 -0.4265
  332MOL0     C43723  12.780   1.502  10.694  0.8666  0.0455  0.3045
  332MOL0     C43724  12.733   1.557  10.816  0.0170  0.5806  0.9823
  332MOL0     C43725  12.768   1.498  10.941 -0.0339  0.1958  0.5919
  332MOL0     C43726  12.855   1.382  10.945 -0.2750  0.1010 -0.9815
  332MOL0     O43727  12.906   1.346  11.069 -0.9468 -0.1589 -0.6627
  332MOL0     C43728  12.819   1.265  11.140  0.3375  0.9028  0.8955
  332MOL0     C43729  12.848   1.256  11.294 -0.5254  0.5582 -0.3585
  332MOL0     C43730  12.732   1.170  11.354 -0.9138  0.4141  0.1053
  332MOL0     C43731  12.732   1.173  11.509 -0.3561  0.3602  0.3709
  332MOL0     C43732  12.619   1.079  11.560 -0.3901  0.2739 -0.5917
  332MOL0     C43733  12.634   1.071  11.718 -0.3243 -0.4150  0.1972
  332MOL0     C43734  12.728   0.960  11.770  0.3174  0.0018  0.7371
  332MOL0     C43735  12.751   0.971  11.915 -0.1900 -0.9671 -0.6517
  332MOL0    Cl43736  12.907   1.071  11.914  0.6942  0.0417  0.0772
  332MOL0     C43737  12.908   1.328  10.832 -0.5888 -0.4811 -0.3521
  332MOL0     C43738  12.871   1.388  10.705 -0.0079 -0.2781  0.2654
  332MOL0     O43739  12.669   1.757  10.616  0.1159 -0.5576 -0.4907
  332MOL0     C43740  12.499   1.746  10.374  0.4587  0.2509  0.1677
  332MOL0     C43741  12.472   1.779  10.236  0.1947  0.1641  0.5510
  332MOL0     N43742  12.565   1.941   9.481  0.5645  0.1208 -0.1264
  332MOL0     N43743  12.467   2.017   9.450 -0.4905  0.8402  0.3156
  332MOL0     C43744  11.198   1.863   9.880  0.3587 -0.8397 -0.6889
  332MOL0     C43745  11.098   1.771   9.908  1.1917 -1.1082  0.0403
  332MOL0     C43746  10.819   1.454   9.806 -0.9734 -0.9528 -1.1083
  332MOL0     C43747  10.689   1.479   9.850 -0.0615  0.0222 -0.3178
  332MOL0     C43748  10.599   1.368   9.850  0.1655 -0.8599  0.2326
  332MOL0     C43749  10.633   1.237   9.821  0.3752 -0.0250 -0.0725
  332MOL0     O43750  10.549   1.137   9.821 -0.1035 -0.1488 -0.2991
  332MOL0     C43751  10.582   1.035   9.913  0.3825  0.2946 -0.2193
  332MOL0     C43752  10.490   1.071  10.035  0.2072  0.4304 -0.1994
  332MOL0     C43753  10.342   1.048  10.005  0.7955 -0.0229  0.6724
  332MOL0     C43754  10.261   1.064  10.133  0.0226 -0.6568 -0.5795
  332MOL0     C43755  10.250   1.197  10.173  0.7372 -0.1074 -0.4582
  332MOL0     C43756  10.237   1.316  10.209 -0.4785  0.5453 -0.1174
  332MOL0     C43757  10.760   1.215   9.775 -0.5600  0.8224  0.0243
  332MOL0     C43758  10.856   1.323   9.772  0.0873  0.1046 -0.9373
  332MOL0     H43759  10.856   1.894   9.703 -0.1791  1.8742 -0.0738
  332MOL0     H43760  11.045   2.052   9.644  0.3388 -0.1169 -0.9990
  332MOL0     H43761  11.436   1.915   9.806  0.6313 -0.0274 -2.8684
  332MOL0     H43762  11.432   2.071   9.903 -0.8771  0.2119  0.5176
  332MOL0     H43763  11.526   2.196   9.716  0.4452 -0.1243 -2.3319
  332MOL0     H43764  11.483   2.064   9.606  0.9541 -1.5045  0.4573
  332MOL0     H43765  11.668   1.921   9.729 -2.0332  1.3775  0.5955
  332MOL0     H43766  11.699   2.063   9.838 -0.1053  1.0698  0.1621
  332MOL0     H43767  11.735   2.064   9.547 -3.2534 -0.0103  1.2142
  332MOL0     H43768  11.785   2.195   9.661  1.3881  0.4430 -0.4600
  332MOL0     H43769  11.906   1.912   9.651  0.0344  0.3240 -2.4052
  332MOL0     H43770  11.939   2.047   9.768 -4.2117  0.7352  1.5746
  332MOL0     H43771  12.042   2.164   9.571 -1.2884  0.8253 -1.0463
  332MOL0     H43772  11.960   2.049   9.463  0.1739  0.5610  0.6418
  332MOL0     H43773  12.214   2.018   9.623  0.0312 -3.9030  1.1979
  332MOL0     H43774  12.117   1.886   9.574 -1.4969 -0.0516 -0.5703
  332MOL0     H43775  12.245   2.104   9.383 -1.2197  0.5242 -2.2538
  332MOL0     H43776  12.167   1.963   9.331  1.7581 -0.5659 -1.7932
  332MOL0     H43777  12.322   1.725   9.452 -2.4908  2.2607  2.2219
  332MOL0     H43778  12.714   1.759   9.511  0.2239 -0.9673 -0.4018
  332MOL0     H43779  12.612   1.627   9.439 -1.5080 -0.5834  0.8636
  332MOL0     H43780  12.708   1.601   9.671 -1.7302 -2.1945  0.8018
  332MOL0     H43781  12.542   1.555   9.646 -1.1120  1.2562  0.2964
  332MOL0     H43782  12.589   1.833   9.771  1.7753  0.2711  3.1982
  332MOL0     H43783  12.448   1.731   9.771  0.5639  0.1458  2.1318
  332MOL0     H43784  12.717   1.713   9.904  0.7656 -0.6867 -1.5216
  332MOL0     H43785  12.607   1.577   9.917 -0.5692  0.0699  0.0193
  332MOL0     H43786  12.758   1.648  10.101  2.3554  0.2472  1.5878
  332MOL0     H43787  12.801   1.599  10.335 -1.4968 -0.1592  3.1707
  332MOL0     H43788  12.669   1.644  10.813 -0.5387  0.1757 -2.6432
  332MOL0     H43789  12.725   1.538  11.032 -0.8561 -0.9101  0.7174
  332MOL0     H43790  12.834   1.165  11.099  4.5746  1.8417 -0.3322
  332MOL0     H43791  12.716   1.298  11.124  1.6115  5.7300  1.1305
  332MOL0     H43792  12.848   1.358  11.333  1.9012  1.1395 -1.6689
  332MOL0     H43793  12.941   1.207  11.326 -0.3730  1.4797  0.6645
  332MOL0     H43794  12.759   1.071  11.317 -3.3200  0.1943 -1.2528
  332MOL0     H43795  12.633   1.201  11.320 -1.5960 -1.0517  0.6975
  332MOL0     H43796  12.828   1.138  11.548 -1.2913 -0.5316  2.0189
  332MOL0     H43797  12.716   1.270  11.557 -1.6722  2.2681 -3.5205
  332MOL0     H43798  12.610   0.986  11.503  2.2463  0.7090 -1.8377
  332MOL0     H43799  12.522   1.129  11.554 -0.8480 -0.2880  1.3893
  332MOL0     H43800  12.536   1.044  11.759  0.6081 -2.4111  1.2816
  332MOL0     H43801  12.662   1.167  11.760  1.1955 -0.4334 -0.6982
  332MOL0     H43802  12.683   0.860  11.764 -2.5446  1.2034  0.5145
  332MOL0     H43803  12.826   0.961  11.721  0.7138  3.2373  1.4206
  332MOL0     H43804  12.771   0.880  11.972 -1.9053 -0.4412  0.8979
  332MOL0     H43805  12.681   1.029  11.976  1.6877 -1.1825  1.8704
  332MOL0     H43806  12.978   1.245  10.837 -1.6311 -1.2827  2.6615
  332MOL0     H43807  12.909   1.351  10.611 -0.6018 -0.0618 -0.0661
  332MOL0     H43808  12.416   1.774  10.438  0.0624 -2.1967  0.8217
  332MOL0     H43809  12.383   1.829  10.200  0.1092 -0.0915  0.3956
  332MOL0     H43810  11.288   1.846   9.940  0.1743 -2.1437 -0.7652
  332MOL0     H43811  11.119   1.702   9.989  4.9790 -0.5653 -0.3282
  332MOL0     H43812  10.652   1.581   9.862  1.5686  0.5434  0.6747
  332MOL0     H43813  10.494   1.381   9.874  0.0805 -1.5142  0.2524
  332MOL0     H43814  10.680   1.042   9.962 -1.0376  2.5895  2.6004
  332MOL0     H43815  10.564   0.937   9.869 -1.7034 -0.1421  1.4594
  332MOL0     H43816  10.524   1.009  10.118  0.9692  3.1400  1.6220
  332MOL0     H43817  10.505   1.169  10.080  0.6592  0.9038 -1.3597
  332MOL0     H43818  10.299   0.952   9.974  0.5539  1.0866 -2.9033
  332MOL0     H43819  10.304   1.108   9.922  0.2333 -0.1059  0.8610
  332MOL0     H43820  10.157   1.033  10.121 -1.3411  2.6271  1.4453
  332MOL0     H43821  10.300   1.000  10.213  0.6495  2.6475  1.9791
  332MOL0     H43822  10.227   1.414  10.250 -5.7465 -0.7734  2.6267
  332MOL0     H43823  10.790   1.114   9.745 -3.9931  0.4430 -2.8063
  332MOL0     H43824  10.955   1.314   9.727  0.5336  2.4930 -0.5666
  333MOL0     O43825  10.999   9.946   3.096 -0.5748  0.1217 -0.4189
  333MOL0     C43826  10.960  10.026   3.182  0.1132  0.8304 -1.4056
  333MOL0     O43827  10.893  10.151   3.159 -1.0458 -0.5221  0.0421
  333MOL0     C43828  10.874  10.196   3.029  0.6475  0.7645 -0.4283
  333MOL0     C43829  10.857  10.126   2.912 -0.1328  0.5086 -0.1085
  333MOL0     C43830  10.821  10.193   2.792  0.8411 -0.0582  0.6725
  333MOL0     C43831  10.792  10.332   2.786 -0.3452  0.0785  1.3793
  333MOL0     O43832  10.735  10.396   2.680  0.1267  0.5466 -0.8683
  333MOL0     C43833  10.698  10.317   2.563  0.1720  0.6060  0.9146
  333MOL0     C43834  10.610  10.394   2.464 -0.1474 -0.1422 -0.1249
  333MOL0     C43835  10.520  10.495   2.537 -0.6408  0.3396 -0.4093
  333MOL0     C43836  10.407  10.551   2.445  0.9929 -0.2538 -0.0641
  333MOL0     C43837  10.304  10.602   2.540  0.8052 -0.5137  0.3275
  333MOL0     C43838  10.217  10.719   2.489  0.4872  0.0290 -0.0115
  333MOL0     C43839  10.168  10.685   2.353  0.4504  0.3528 -0.3482
  333MOL0     C43840  10.077  10.788   2.288  1.2619 -0.0689 -0.4901
  333MOL0     N43841  10.109  10.927   2.290  0.3019 -1.2595  0.1312
  333MOL0     C43842  10.086  11.014   2.397 -0.0798  0.4728 -0.7584
  333MOL0     C43843  10.117  11.139   2.354  0.0189 -1.0618 -0.1318
  333MOL0     C43844  10.089  11.270   2.427  0.0912 -0.3804  0.9925
  333MOL0     C43845   9.955  11.340   2.392 -1.3448 -0.0689  0.2948
  333MOL0     C43846   9.914  11.343   2.244 -0.1594  0.0306  0.5441
  333MOL0     C43847   9.779  11.403   2.220 -0.2694 -0.1054 -0.1120
  333MOL0     O43848   9.679  11.319   2.263 -0.3651  0.2616  0.0244
  333MOL0     C43849   9.629  11.243   2.166  0.4901  0.4169  0.5213
  333MOL0     C43850   9.694  11.197   2.047  0.0817 -0.0259  0.1202
  333MOL0     C43851   9.633  11.108   1.955  0.2542  0.9386  0.2357
  333MOL0     C43852   9.500  11.067   1.977  0.4024 -0.3666  0.1239
  333MOL0     C43853   9.410  10.998   1.878  0.3528 -0.9201  0.2559
  333MOL0     O43854   9.275  11.002   1.895 -0.4673 -0.1494  0.6436
  333MOL0     C43855   9.194  10.915   1.822  0.0669  0.1283  0.4037
  333MOL0     C43856   9.186  10.777   1.847  0.0636  0.1373 -0.2825
  333MOL0     C43857   9.107  10.691   1.775 -0.7377  0.0920  0.8430
  333MOL0     C43858   9.017  10.734   1.683  0.2453 -0.9475  0.5665
  333MOL0     O43859   8.934  10.645   1.630  0.0408  0.4099  0.0649
  333MOL0     C43860   8.821  10.681   1.548 -0.3604  0.0675 -0.2790
  333MOL0     C43861   8.717  10.582   1.533 -0.1211  1.3018 -0.3723
  333MOL0     C43862   8.639  10.554   1.666 -1.3731  0.5133  0.0357
  333MOL0     C43863   8.509  10.480   1.638  0.8120 -0.0757 -0.9618
  333MOL0     C43864   8.405  10.505   1.754 -1.2317 -0.6981 -0.1187
  333MOL0     C43865   8.311  10.393   1.759  0.0668  0.2582  0.3598
  333MOL0     C43866   8.239  10.393   1.893 -0.2926 -0.5212 -1.2744
  333MOL0     C43867   8.105  10.334   1.873  0.7984  0.1816 -0.0804
  333MOL0    Cl43868   8.126  10.151   1.833 -0.3644 -0.7612  0.4387
  333MOL0     C43869   9.021  10.873   1.652  0.3219  0.6262  0.0640
  333MOL0     C43870   9.105  10.961   1.725 -0.6721  0.1787 -0.0120
  333MOL0     O43871   9.463  10.946   1.784 -0.3196 -0.1578 -0.3134
  333MOL0     C43872   9.444  11.108   2.103  0.2508 -0.3268  0.6312
  333MOL0     C43873   9.508  11.185   2.197  0.6656 -0.6467 -0.5429
  333MOL0     N43874  10.141  11.127   2.213 -0.1753  0.7305  0.0411
  333MOL0     N43875  10.138  11.006   2.182  0.3147 -0.4036 -0.8844
  333MOL0     C43876  10.822  10.398   2.907 -1.1562  0.9428  0.4051
  333MOL0     C43877  10.875  10.334   3.018 -0.6669 -0.8398 -0.3181
  333MOL0     C43878  10.960   9.978   3.319 -0.4811  0.7411  0.0707
  333MOL0     C43879  10.950  10.061   3.431 -0.6392 -0.0046  0.6036
  333MOL0     C43880  10.973  10.010   3.565  0.1448 -0.1304 -0.4313
  333MOL0     C43881  11.006   9.872   3.584  0.6494  0.5288 -0.6568
  333MOL0     O43882  11.038   9.822   3.707  0.0048 -0.2901  0.1452
  333MOL0     C43883  11.181   9.792   3.715 -0.2146 -0.7419 -0.3516
  333MOL0     C43884  11.238   9.934   3.749 -0.3637 -0.3933 -0.3584
  333MOL0     C43885  11.371   9.924   3.824 -0.7893 -0.2620 -0.4485
  333MOL0     C43886  11.492   9.871   3.742 -0.3988 -0.0810  0.2566
  333MOL0     C43887  11.489   9.730   3.757  0.1514  0.5110 -0.0555
  333MOL0     C43888  11.478   9.610   3.774 -0.0347 -0.4518 -1.2181
  333MOL0     C43889  10.997   9.791   3.469  0.2997  0.0196 -0.3757
  333MOL0     C43890  10.974   9.838   3.338 -0.3548  0.4281  0.4470
  333MOL0     H43891  10.876  10.019   2.912  1.0010  0.5503 -4.4119
  333MOL0     H43892  10.801  10.123   2.711  2.3254  0.2883 -0.0183
  333MOL0     H43893  10.631  10.239   2.602 -1.0252  2.8329  3.6446
  333MOL0     H43894  10.783  10.263   2.519 -3.1154 -3.9517 -0.6345
  333MOL0     H43895  10.558  10.317   2.406  2.3681 -1.1744 -1.1529
  333MOL0     H43896  10.678  10.444   2.396  3.4330 -1.1358  2.4380
  333MOL0     H43897  10.596  10.564   2.574  1.4892 -1.6469 -0.8414
  333MOL0     H43898  10.478  10.455   2.630  0.5566  0.8816  0.3916
  333MOL0     H43899  10.443  10.635   2.384  0.9987  0.7120  1.2193
  333MOL0     H43900  10.370  10.479   2.372 -1.6906  0.4407  0.4715
  333MOL0     H43901  10.350  10.653   2.626  0.0506  1.6666 -0.4886
  333MOL0     H43902  10.242  10.519   2.576  1.7686 -0.5315  2.0374
  333MOL0     H43903  10.273  10.812   2.477  0.1711 -0.0473 -2.9586
  333MOL0     H43904  10.134  10.752   2.552 -1.1765 -2.8208 -0.5223
  333MOL0     H43905  10.251  10.669   2.283  0.2198 -0.7519 -0.3878
  333MOL0     H43906  10.108  10.594   2.368 -0.1909  0.5961 -1.3290
  333MOL0     H43907   9.983  10.767   2.339  2.3543 -0.4432  1.4745
  333MOL0     H43908  10.074  10.753   2.184 -2.4070 -0.7702 -0.2652
  333MOL0     H43909  10.045  10.996   2.496 -1.4848  3.4254 -0.6817
  333MOL0     H43910  10.171  11.329   2.386 -1.4856  1.0883 -0.1801
  333MOL0     H43911  10.110  11.256   2.533 -0.2227  0.2838  1.1476
  333MOL0     H43912   9.968  11.442   2.430 -0.3376  0.5152 -1.5126
  333MOL0     H43913   9.886  11.280   2.452  1.0290 -4.7905 -1.1986
  333MOL0     H43914   9.983  11.410   2.191 -0.2960 -1.4210 -1.6343
  333MOL0     H43915   9.920  11.245   2.195 -0.1621  0.2379  0.1204
  333MOL0     H43916   9.764  11.438   2.118 -0.5350 -0.1551 -0.0897
  333MOL0     H43917   9.763  11.489   2.287  1.9728  0.8832 -0.7432
  333MOL0     H43918   9.795  11.230   2.023  0.1324  0.1884  0.6273
  333MOL0     H43919   9.685  11.051   1.879  1.2382  1.1241  0.7583
  333MOL0     H43920   9.243  10.741   1.932  0.2273  0.4851 -0.2444
  333MOL0     H43921   9.102  10.586   1.801  0.6368 -0.0332  0.6756
  333MOL0     H43922   8.854  10.687   1.444  0.2714 -0.6281 -0.1318
  333MOL0     H43923   8.774  10.767   1.596 -0.7211 -0.7691  0.9032
  333MOL0     H43924   8.767  10.492   1.498  2.7812  2.6014  0.1783
  333MOL0     H43925   8.636  10.611   1.465 -0.4686  0.9718 -0.1047
  333MOL0     H43926   8.611  10.653   1.702  0.4353  1.8414 -1.9352
  333MOL0     H43927   8.704  10.496   1.732  0.8448 -0.1438 -2.5190
  333MOL0     H43928   8.463  10.518   1.546  3.7990  3.1266 -1.3415
  333MOL0     H43929   8.524  10.372   1.629  2.8452  0.0121  0.6491
  333MOL0     H43930   8.353  10.595   1.722 -0.0343  0.1524  0.2662
  333MOL0     H43931   8.467  10.526   1.841  0.8095 -1.5270 -1.2999
  333MOL0     H43932   8.364  10.298   1.743  1.1747  1.1793 -1.9169
  333MOL0     H43933   8.243  10.400   1.674 -3.5873 -0.0739  2.9845
  333MOL0     H43934   8.293  10.335   1.969  1.2596  0.0558 -1.8828
  333MOL0     H43935   8.232  10.499   1.919 -1.0638 -0.9325  0.3305
  333MOL0     H43936   8.051  10.376   1.787 -2.0635 -0.2273  1.4098
  333MOL0     H43937   8.036  10.349   1.956 -5.8948  1.1856 -4.9650
  333MOL0     H43938   8.948  10.916   1.584 -1.8682 -3.0611 -0.2084
  333MOL0     H43939   9.104  11.067   1.700  3.3506  0.8893  2.0599
  333MOL0     H43940   9.347  11.067   2.128  0.1247 -1.2552 -1.1586
  333MOL0     H43941   9.466  11.200   2.296 -0.8722 -1.3090 -1.0701
  333MOL0     H43942  10.793  10.500   2.927  2.1133  1.6776  2.0251
  333MOL0     H43943  10.919  10.380   3.107  0.1740 -0.4863 -0.9044
  333MOL0     H43944  10.925  10.165   3.410  1.0300  0.2522 -0.2760
  333MOL0     H43945  10.977  10.075   3.652 -1.7850 -0.7851  0.2068
  333MOL0     H43946  11.230   9.750   3.626  0.3027  0.4620 -0.6580
  333MOL0     H43947  11.187   9.717   3.794 -3.2099 -1.1961 -0.4621
  333MOL0     H43948  11.246   9.986   3.653  5.6599 -0.4488 -0.2650
  333MOL0     H43949  11.174   9.986   3.820  0.2674  1.3016 -0.9860
  333MOL0     H43950  11.365   9.868   3.918  4.6359 -2.3607 -0.9626
  333MOL0     H43951  11.400  10.024   3.859 -1.2131 -0.3657  0.2077
  333MOL0     H43952  11.470   9.889   3.637 -1.7525 -1.1270  0.3281
  333MOL0     H43953  11.580   9.919   3.785 -0.0639 -0.4540 -0.0102
  333MOL0     H43954  11.471   9.507   3.803  2.0249 -0.5734 -0.9988
  333MOL0     H43955  11.015   9.687   3.494 -0.7737  0.1845  1.2403
  333MOL0     H43956  10.972   9.774   3.251 -1.0090  0.7947  0.1826
  334MOL0     O43957   5.800   6.938   4.781  0.7260 -0.1345  0.5836
  334MOL0     C43958   5.735   7.045   4.798  0.3305  0.1409  1.8997
  334MOL0     O43959   5.753   7.166   4.730 -0.3369 -0.8847 -0.4263
  334MOL0     C43960   5.852   7.199   4.640  0.5925 -0.0606 -0.9748
  334MOL0     C43961   5.980   7.158   4.637  0.3533 -1.3513 -0.3491
  334MOL0     C43962   6.077   7.185   4.539  0.2234  0.8141 -0.0840
  334MOL0     C43963   6.041   7.259   4.428  0.2537 -0.0354 -1.0846
  334MOL0     O43964   6.139   7.289   4.340  0.2760  0.1151  1.0168
  334MOL0     C43965   6.176   7.200   4.241 -0.2450 -0.8001  0.1943
  334MOL0     C43966   6.332   7.184   4.228  0.2313  0.3824 -0.4510
  334MOL0     C43967   6.408   7.302   4.180 -0.5444 -0.4660 -0.4449
  334MOL0     C43968   6.424   7.421   4.283  1.2337  0.7164  0.6975
  334MOL0     C43969   6.497   7.535   4.218 -0.5330 -0.1348 -0.4641
  334MOL0     C43970   6.573   7.626   4.315  0.6160  0.6585  0.0340
  334MOL0     C43971   6.587   7.770   4.269  1.2691  0.5406  0.8386
  334MOL0     C43972   6.442   7.829   4.264 -1.2112 -0.9173 -0.0356
  334MOL0     N43973   6.476   7.967   4.269  0.2657  0.2848 -0.2741
  334MOL0     C43974   6.542   8.040   4.172 -0.1975  0.8557  0.5707
  334MOL0     C43975   6.577   8.155   4.229 -0.0357 -0.2240  0.0034
  334MOL0     C43976   6.660   8.273   4.193  0.0289  1.3276 -0.3797
  334MOL0     C43977   6.800   8.254   4.254  0.9990  0.5468 -0.0306
  334MOL0     C43978   6.796   8.286   4.406  1.3574  0.3850 -0.1324
  334MOL0     C43979   6.728   8.422   4.429  0.4390 -0.8754 -0.4763
  334MOL0     O43980   6.752   8.463   4.567  0.7355  0.3948  0.1359
  334MOL0     C43981   6.710   8.399   4.677 -0.1591  0.4764 -0.8091
  334MOL0     C43982   6.761   8.450   4.797  0.0164  0.2845 -0.4957
  334MOL0     C43983   6.730   8.405   4.928 -1.1756  0.6572  0.8895
  334MOL0     C43984   6.623   8.314   4.945  0.1476  0.5895  0.3309
  334MOL0     C43985   6.580   8.286   5.087  1.2882  0.1093 -0.0537
  334MOL0     O43986   6.507   8.181   5.107  0.5091 -0.1693 -0.2243
  334MOL0     C43987   6.452   8.156   5.231 -0.1669 -1.2121 -0.9659
  334MOL0     C43988   6.341   8.236   5.285 -0.8313  0.3242  0.9296
  334MOL0     C43989   6.268   8.201   5.402 -0.1611 -0.8506  0.0906
  334MOL0     C43990   6.311   8.089   5.482  0.0011  0.1084 -0.0287
  334MOL0     O43991   6.252   8.033   5.590  0.2117 -0.1807 -0.6970
  334MOL0     C43992   6.147   8.115   5.653 -0.9423 -0.7302  0.1804
  334MOL0     C43993   6.110   8.053   5.784 -0.4640 -0.8027  0.2767
  334MOL0     C43994   6.037   8.149   5.869  0.5467 -0.4070 -0.4419
  334MOL0     C43995   5.972   8.074   5.995  0.5995  0.2777  0.3985
  334MOL0     C43996   5.871   8.157   6.087 -0.2372  0.7631 -0.2588
  334MOL0     C43997   5.733   8.177   6.024  0.1858 -0.1373 -0.8197
  334MOL0     C43998   5.663   8.299   6.088 -0.1896  0.3009 -0.1782
  334MOL0     C43999   5.709   8.432   6.046  0.1544  0.1529 -0.6901
  334MOL0    Cl44000   5.577   8.552   6.105  0.1009 -0.3211  0.2799
  334MOL0     C44001   6.423   8.019   5.431  1.2838 -0.0227  0.3294
  334MOL0     C44002   6.492   8.057   5.318 -0.1173 -0.2853 -0.5955
  334MOL0     O44003   6.598   8.368   5.177  0.3358 -0.7025 -0.5415
  334MOL0     C44004   6.551   8.265   4.831 -0.2261 -0.7593 -0.3353
  334MOL0     C44005   6.596   8.304   4.703  0.9852  0.5792  0.6890
  334MOL0     N44006   6.520   8.160   4.353  0.7507  0.5923 -0.0137
  334MOL0     N44007   6.469   8.043   4.382  0.4692 -0.4143  0.1237
  334MOL0     C44008   5.911   7.297   4.421  0.4445  0.6767 -0.5753
  334MOL0     C44009   5.818   7.271   4.525 -0.0961 -0.3064 -0.2971
  334MOL0     C44010   5.621   7.041   4.887  1.2629 -0.8424 -0.5517
  334MOL0     C44011   5.523   7.148   4.886  0.0668 -0.4660  0.5457
  334MOL0     C44012   5.400   7.133   4.959 -0.7030  0.4589  0.2014
  334MOL0     C44013   5.371   7.028   5.039 -0.9350 -0.0271 -0.7790
  334MOL0     O44014   5.263   7.034   5.124 -0.0169  0.7149  0.8972
  334MOL0     C44015   5.228   6.912   5.197  1.1194  0.0441  0.1729
  334MOL0     C44016   5.085   6.914   5.254 -0.2743 -0.9092  1.0392
  334MOL0     C44017   5.043   6.798   5.337 -0.0395 -0.6155  0.3425
  334MOL0     C44018   4.905   6.803   5.387 -0.2921 -0.0976 -0.3482
  334MOL0     C44019   4.810   6.738   5.295 -0.6203 -0.8391  0.1617
  334MOL0     C44020   4.723   6.671   5.235 -0.2206 -0.1807  0.6059
  334MOL0     C44021   5.471   6.923   5.048 -0.3739 -0.4279  1.1062
  334MOL0     C44022   5.584   6.927   4.958 -0.5755 -0.8449 -0.0733
  334MOL0     H44023   6.008   7.080   4.707  1.3468  0.7209  1.6723
  334MOL0     H44024   6.172   7.132   4.551  0.7380  0.8119 -3.2759
  334MOL0     H44025   6.155   7.241   4.142 -1.1800 -0.4842  0.5111
  334MOL0     H44026   6.135   7.098   4.247  0.8194 -1.3158 -0.7962
  334MOL0     H44027   6.360   7.111   4.152 -4.5611 -3.2853  0.8313
  334MOL0     H44028   6.376   7.159   4.325  0.5225  0.8132 -0.4711
  334MOL0     H44029   6.354   7.340   4.092  0.1384 -3.2517 -2.1884
  334MOL0     H44030   6.505   7.263   4.145 -2.2113 -2.9299 -2.7356
  334MOL0     H44031   6.322   7.454   4.304  0.9988 -1.0969  2.7774
  334MOL0     H44032   6.472   7.377   4.371  1.7762  1.5457  0.8317
  334MOL0     H44033   6.428   7.591   4.155 -0.2115  1.6551  0.7211
  334MOL0     H44034   6.581   7.493   4.162  0.5542 -1.1049  1.7853
  334MOL0     H44035   6.674   7.586   4.328  0.1590 -0.6698 -0.2964
  334MOL0     H44036   6.517   7.615   4.409  0.3517  0.0818 -0.1891
  334MOL0     H44037   6.639   7.828   4.346  0.7675 -0.7081  2.1712
  334MOL0     H44038   6.651   7.789   4.183  2.4051 -0.8567  1.3360
  334MOL0     H44039   6.380   7.805   4.350 -3.2301  0.2731 -1.0924
  334MOL0     H44040   6.387   7.792   4.177  1.3093 -1.9038 -1.2987
  334MOL0     H44041   6.575   8.004   4.075 -0.7600  1.4867  0.1338
  334MOL0     H44042   6.603   8.361   4.224 -4.2747 -2.1485  3.0016
  334MOL0     H44043   6.680   8.271   4.086  1.2313  1.9766 -0.1803
  334MOL0     H44044   6.876   8.321   4.213 -0.2713  0.9252 -1.9404
  334MOL0     H44045   6.839   8.153   4.237  0.3462  0.1775  0.6130
  334MOL0     H44046   6.747   8.203   4.459  1.3968  0.9507  0.8127
  334MOL0     H44047   6.899   8.289   4.441  1.0940 -2.2589  1.1141
  334MOL0     H44048   6.622   8.439   4.412 -0.0315  0.5073  3.0307
  334MOL0     H44049   6.774   8.500   4.368  0.2500  0.5315  1.1174
  334MOL0     H44050   6.837   8.528   4.788 -1.2032  1.9231  2.0824
  334MOL0     H44051   6.791   8.424   5.015  0.6065 -1.3625  0.1543
  334MOL0     H44052   6.322   8.325   5.225 -0.9430 -0.2625  0.0795
  334MOL0     H44053   6.183   8.258   5.437  0.9512  1.1527 -0.2673
  334MOL0     H44054   6.065   8.124   5.581  0.0426 -1.2210 -1.0436
  334MOL0     H44055   6.192   8.210   5.686  1.4319 -2.0893  1.1035
  334MOL0     H44056   6.198   8.012   5.835 -0.4150 -1.2044 -0.1216
  334MOL0     H44057   6.050   7.965   5.760  1.2487 -2.2476  1.0295
  334MOL0     H44058   5.963   8.199   5.806 -0.3446 -2.3657 -1.0347
  334MOL0     H44059   6.105   8.227   5.903 -1.8823  1.4468  0.4879
  334MOL0     H44060   5.916   7.983   5.969 -0.1420 -0.7406  4.7508
  334MOL0     H44061   6.051   8.030   6.057  0.5845 -2.2966 -1.2723
  334MOL0     H44062   5.916   8.253   6.117 -0.3396  0.2497  1.6828
  334MOL0     H44063   5.861   8.103   6.182 -0.5520  1.1162 -0.0866
  334MOL0     H44064   5.676   8.087   6.049  1.5820 -1.2053 -1.3697
  334MOL0     H44065   5.741   8.189   5.916 -0.7791  0.1167 -0.8715
  334MOL0     H44066   5.558   8.284   6.061 -0.4390  2.1428 -0.3547
  334MOL0     H44067   5.672   8.289   6.196 -2.3285 -1.5228 -0.0961
  334MOL0     H44068   5.715   8.435   5.937 -3.1930  0.5064 -0.9581
  334MOL0     H44069   5.807   8.449   6.092 -0.8092  1.9560  0.8411
  334MOL0     H44070   6.472   7.934   5.477  0.2763 -1.8556 -1.7633
  334MOL0     H44071   6.578   7.998   5.287 -0.0110  0.2305 -1.3207
  334MOL0     H44072   6.475   8.187   4.827 -0.3470 -0.6129 -1.5309
  334MOL0     H44073   6.544   8.264   4.617 -1.0544  3.6609  0.3419
  334MOL0     H44074   5.895   7.345   4.325 -0.1396  1.4196 -0.1247
  334MOL0     H44075   5.717   7.310   4.518 -0.4269 -0.8254  1.1972
  334MOL0     H44076   5.534   7.228   4.815  3.8351  0.1247  1.5644
  334MOL0     H44077   5.311   7.194   4.948  0.2070  1.4828 -1.9238
  334MOL0     H44078   5.303   6.911   5.277  1.2888 -0.7033  0.0192
  334MOL0     H44079   5.235   6.827   5.128 -2.3707 -0.8840  0.7857
  334MOL0     H44080   5.071   7.010   5.303  1.9656  0.0713 -0.1021
  334MOL0     H44081   5.018   6.912   5.168  1.4290  1.5514 -0.4561
  334MOL0     H44082   5.122   6.795   5.412  0.9081  1.1428 -0.5234
  334MOL0     H44083   5.049   6.703   5.281 -2.2664 -0.0856 -0.9352
  334MOL0     H44084   4.896   6.747   5.480 -1.4433 -3.8533 -2.4987
  334MOL0     H44085   4.878   6.906   5.411  0.8993 -0.0047  0.7516
  334MOL0     H44086   4.663   6.610   5.170  0.6730  2.5836 -3.1733
  334MOL0     H44087   5.466   6.838   5.115  1.3163  0.3675  2.3106
  334MOL0     H44088   5.665   6.855   4.959  2.5369  2.4107 -0.6624
  335MOL0     O44089   6.050  11.227   8.109 -0.6671 -0.0380  0.3380
  335MOL0     C44090   6.108  11.194   7.999  0.8929 -0.9218 -0.1219
  335MOL0     O44091   6.061  11.099   7.908 -0.3659 -0.2725  0.7995
  335MOL0     C44092   5.930  11.059   7.909 -0.0770 -0.5260  0.8526
  335MOL0     C44093   5.880  10.972   8.000  0.0055  0.0392  0.6010
  335MOL0     C44094   5.752  10.929   7.982  0.8278 -0.8079 -0.7414
  335MOL0     C44095   5.669  10.981   7.871 -0.8029 -1.3986  0.0306
  335MOL0     O44096   5.538  10.943   7.858 -0.7126 -0.4766  0.5655
  335MOL0     C44097   5.448  10.988   7.956 -2.1580  0.3784 -0.3639
  335MOL0     C44098   5.307  10.966   7.908 -0.0147  0.9791 -0.8612
  335MOL0     C44099   5.265  11.017   7.765 -0.6501 -0.0112 -0.3650
  335MOL0     C44100   5.121  10.957   7.723  0.0381  0.2052 -0.3221
  335MOL0     C44101   4.998  11.051   7.695 -1.2448  0.8392  0.1426
  335MOL0     C44102   4.876  10.963   7.646 -0.0412  0.2918  0.1388
  335MOL0     C44103   4.755  11.062   7.618 -0.6638  0.0200 -1.4606
  335MOL0     C44104   4.774  11.126   7.479 -0.8484  0.2988 -0.1617
  335MOL0     N44105   4.699  11.252   7.445 -0.6257  0.7191 -0.1575
  335MOL0     C44106   4.696  11.365   7.521 -0.6680 -0.1211 -0.4356
  335MOL0     C44107   4.652  11.471   7.444 -0.1743  0.4575 -0.2336
  335MOL0     C44108   4.630  11.612   7.486 -0.8527  1.1711  0.3518
  335MOL0     C44109   4.684  11.723   7.394  0.7656 -0.1847 -0.1911
  335MOL0     C44110   4.837  11.728   7.387  0.8475 -0.3782  0.6064
  335MOL0     C44111   4.889  11.835   7.299  0.2993  0.2514  0.9132
  335MOL0     O44112   4.863  11.972   7.325  0.7219  0.4601 -0.2857
  335MOL0     C44113   4.929  12.043   7.424  0.2207  1.0817 -0.3410
  335MOL0     C44114   4.878  12.169   7.438 -0.1735  0.4848  0.4141
  335MOL0     C44115   4.927  12.268   7.527  0.0306  1.6090  0.1651
  335MOL0     C44116   5.048  12.233   7.601  0.2542  0.8925  0.4304
  335MOL0     C44117   5.103  12.325   7.704  0.6898  0.2551 -0.1878
  335MOL0     O44118   5.223  12.287   7.753  0.3107  0.9016  0.1357
  335MOL0     C44119   5.258  12.332   7.878 -0.4810 -0.0813  0.6895
  335MOL0     C44120   5.392  12.337   7.904  0.3385 -0.4939 -0.1560
  335MOL0     C44121   5.431  12.352   8.033 -0.3016 -0.8046 -0.1128
  335MOL0     C44122   5.345  12.367   8.146  0.0653 -0.5166  0.3244
  335MOL0     O44123   5.410  12.386   8.263 -0.8103 -0.6805 -0.3504
  335MOL0     C44124   5.339  12.402   8.379  0.2226  0.1129 -1.1856
  335MOL0     C44125   5.430  12.361   8.496  0.7493 -0.0873  0.3638
  335MOL0     C44126   5.377  12.391   8.643  0.3353  0.3962  0.5989
  335MOL0     C44127   5.322  12.532   8.659 -0.8952  0.2071 -0.1743
  335MOL0     C44128   5.282  12.593   8.802  0.1914  1.0777  0.6447
  335MOL0     C44129   5.381  12.565   8.916  1.1253 -0.4361  0.0715
  335MOL0     C44130   5.354  12.436   8.991  0.4227 -0.1205  0.4313
  335MOL0     C44131   5.476  12.390   9.068 -0.4476  0.6360  0.2218
  335MOL0    Cl44132   5.452  12.232   9.157 -0.3180 -0.3218  0.1674
  335MOL0     C44133   5.210  12.345   8.122  0.1816  0.4017 -0.0712
  335MOL0     C44134   5.169  12.329   7.986  0.5309 -0.0866  0.4290
  335MOL0     O44135   5.051  12.434   7.724 -0.6917 -0.3649 -0.9680
  335MOL0     C44136   5.106  12.105   7.584 -0.5262  0.2197  0.1610
  335MOL0     C44137   5.049  12.012   7.496 -0.3592 -0.6967  0.9316
  335MOL0     N44138   4.637  11.412   7.320 -0.1444  0.2461 -0.5032
  335MOL0     N44139   4.662  11.290   7.318  0.4875  0.9951 -0.3695
  335MOL0     C44140   5.732  11.063   7.778  0.8721 -0.0246  0.1540
  335MOL0     C44141   5.854  11.105   7.791  0.3579  0.0395 -0.2306
  335MOL0     C44142   6.242  11.244   7.978 -0.2347  0.5797  0.2236
  335MOL0     C44143   6.271  11.371   8.034 -1.2321  0.5989 -0.1764
  335MOL0     C44144   6.408  11.407   8.028 -0.6557  0.6890  0.7605
  335MOL0     C44145   6.503  11.322   7.962  0.3121 -0.5325  0.2050
  335MOL0     O44146   6.633  11.368   7.961 -0.0872 -0.5461 -0.7341
  335MOL0     C44147   6.733  11.285   7.897  1.3841  0.2753  0.5403
  335MOL0     C44148   6.758  11.159   7.973  0.3662  0.0942 -0.3071
  335MOL0     C44149   6.849  11.175   8.104 -0.3878  0.3485  0.5148
  335MOL0     C44150   6.992  11.193   8.070 -0.0987 -0.6711  0.5411
  335MOL0     C44151   7.073  11.264   8.177  0.2796  0.4791  0.7338
  335MOL0     C44152   7.127  11.332   8.261  0.1165 -1.0173  0.1202
  335MOL0     C44153   6.461  11.213   7.892  0.3519 -0.3223  0.4702
  335MOL0     C44154   6.335  11.171   7.910 -0.0796 -0.4198  1.1521
  335MOL0     H44155   5.934  10.951   8.092 -0.8469  1.4062  1.4384
  335MOL0     H44156   5.690  10.865   8.044  0.5164 -1.3243 -1.5755
  335MOL0     H44157   5.468  11.092   7.984  0.0852 -0.4811  1.5659
  335MOL0     H44158   5.484  10.931   8.042 -2.4038  0.2668 -0.3346
  335MOL0     H44159   5.226  10.990   7.978 -1.6808 -0.2937 -2.2654
  335MOL0     H44160   5.291  10.857   7.906  0.0889  0.7599  2.8354
  335MOL0     H44161   5.333  11.000   7.681  0.8443 -0.0927  0.8228
  335MOL0     H44162   5.244  11.124   7.752 -2.5543 -0.7127 -4.7178
  335MOL0     H44163   5.132  10.904   7.628 -0.4414  2.0120 -1.4368
  335MOL0     H44164   5.085  10.872   7.780 -1.4323  0.2087 -1.1885
  335MOL0     H44165   5.032  11.120   7.618  1.2603 -2.6997 -2.2790
  335MOL0     H44166   4.992  11.110   7.786  3.5362  2.0020 -0.0384
  335MOL0     H44167   4.847  10.886   7.717  1.3556 -1.8139 -1.4606
  335MOL0     H44168   4.906  10.908   7.556 -0.9141  0.1879 -0.0986
  335MOL0     H44169   4.659  11.012   7.627  0.1125 -1.2661  0.5455
  335MOL0     H44170   4.756  11.135   7.700  1.3950 -0.8900 -0.5905
  335MOL0     H44171   4.743  11.055   7.402  0.1075  0.2216 -0.4943
  335MOL0     H44172   4.881  11.142   7.462 -0.0980 -3.5366  0.1425
  335MOL0     H44173   4.723  11.379   7.625 -1.1109 -1.5561 -0.1083
  335MOL0     H44174   4.670  11.623   7.587  0.7419  0.3412 -0.1554
  335MOL0     H44175   4.522  11.623   7.498 -0.9292 -2.0090  5.2670
  335MOL0     H44176   4.638  11.814   7.433 -0.7513 -1.4811  1.2012
  335MOL0     H44177   4.640  11.705   7.295  1.1672 -2.4582  0.0002
  335MOL0     H44178   4.867  11.741   7.491  0.0992 -2.2414  1.1016
  335MOL0     H44179   4.869  11.626   7.365  0.1857 -0.1696 -1.5650
  335MOL0     H44180   4.831  11.822   7.208 -0.0857  0.5439  1.1129
  335MOL0     H44181   4.996  11.813   7.295  0.3588  0.4595  1.2634
  335MOL0     H44182   4.791  12.192   7.377 -0.9075  0.0763  1.2794
  335MOL0     H44183   4.869  12.358   7.543 -0.6200  1.7197 -2.3957
  335MOL0     H44184   5.454  12.336   7.815 -2.0419 -0.4373 -1.8870
  335MOL0     H44185   5.537  12.362   8.054 -0.1146 -1.5260 -0.6718
  335MOL0     H44186   5.252  12.336   8.386  1.1581 -0.9736  1.4755
  335MOL0     H44187   5.297  12.502   8.388  0.8639  0.3149 -0.2584
  335MOL0     H44188   5.522  12.417   8.478 -0.3518  1.1695 -1.8155
  335MOL0     H44189   5.459  12.256   8.483 -1.8735 -0.6937 -1.7018
  335MOL0     H44190   5.455  12.375   8.718  0.7975  5.5955  1.5865
  335MOL0     H44191   5.292  12.329   8.674  0.6759 -1.2858 -1.5518
  335MOL0     H44192   5.398  12.602   8.621  1.2283 -0.7521  2.0247
  335MOL0     H44193   5.229  12.544   8.603 -0.2104 -0.0284 -1.3988
  335MOL0     H44194   5.188  12.551   8.838  0.9947 -1.7901 -0.3947
  335MOL0     H44195   5.264  12.699   8.778  2.5674  0.6377 -4.2191
  335MOL0     H44196   5.370  12.647   8.988 -1.5478  0.5316 -1.3253
  335MOL0     H44197   5.480  12.570   8.870  1.3471  3.4282  0.6393
  335MOL0     H44198   5.273  12.452   9.063  1.2309 -2.0802  1.8500
  335MOL0     H44199   5.327  12.354   8.923 -3.0013 -0.2853  1.7499
  335MOL0     H44200   5.495  12.465   9.146  2.9276 -1.4137  1.6072
  335MOL0     H44201   5.569  12.381   9.011 -0.0389 -3.2433  1.2059
  335MOL0     H44202   5.140  12.322   8.201 -0.9114 -1.3798 -1.4806
  335MOL0     H44203   5.066  12.296   7.976  0.5670 -0.5371  1.4210
  335MOL0     H44204   5.194  12.080   7.642 -1.6102  2.3066  2.9725
  335MOL0     H44205   5.087  11.912   7.474 -0.5661 -1.4344  3.5516
  335MOL0     H44206   5.674  11.100   7.695 -0.9346  1.0492  1.8145
  335MOL0     H44207   5.897  11.179   7.725 -0.9632  0.0888 -1.0564
  335MOL0     H44208   6.206  11.436   8.091  3.1718  3.0720  2.6320
  335MOL0     H44209   6.442  11.497   8.080 -0.2218  1.2126 -0.3847
  335MOL0     H44210   6.826  11.342   7.887  1.6756  0.3274  2.9287
  335MOL0     H44211   6.702  11.259   7.796  0.4760  2.2690  0.2595
  335MOL0     H44212   6.663  11.113   8.003 -1.1097  1.8659 -1.9616
  335MOL0     H44213   6.818  11.100   7.904  0.6982 -1.4309  1.2307
  335MOL0     H44214   6.857  11.081   8.160  1.6487  0.2184  0.0620
  335MOL0     H44215   6.816  11.260   8.163 -2.7801 -0.2458  0.1773
  335MOL0     H44216   7.032  11.092   8.065 -1.1853 -1.0773 -2.4367
  335MOL0     H44217   7.009  11.244   7.974  1.6502 -3.5581 -0.8272
  335MOL0     H44218   7.166  11.382   8.348 -1.7791  2.4783 -0.8624
  335MOL0     H44219   6.530  11.151   7.836 -0.7014 -1.3649  0.2854
  335MOL0     H44220   6.293  11.080   7.868  0.7679 -0.8508  1.2300
  336MOL0     O44221   2.732   8.748   8.042 -0.0525  0.2134  0.2147
  336MOL0     C44222   2.690   8.857   8.079  0.2514 -0.5855 -0.6389
  336MOL0     O44223   2.587   8.929   8.013  0.1255  0.7336  0.0467
  336MOL0     C44224   2.553   8.900   7.882 -0.3192  0.5752 -0.6193
  336MOL0     C44225   2.644   8.872   7.771  1.2139  1.1467  0.0053
  336MOL0     C44226   2.608   8.867   7.635  0.2586 -0.2220 -0.9796
  336MOL0     C44227   2.470   8.869   7.603  0.2415 -0.6624  0.4125
  336MOL0     O44228   2.420   8.884   7.477 -0.3627  0.0283  0.1954
  336MOL0     C44229   2.504   8.847   7.368 -0.3369 -0.8295 -1.5244
  336MOL0     C44230   2.614   8.950   7.311 -0.2490 -1.1256  0.7190
  336MOL0     C44231   2.557   9.071   7.231  1.0074  0.5449 -0.3365
  336MOL0     C44232   2.659   9.142   7.138 -0.9005 -0.1003 -0.1757
  336MOL0     C44233   2.585   9.252   7.068  0.4467 -0.9853 -0.3492
  336MOL0     C44234   2.666   9.341   6.983 -0.0447 -0.3918  0.1982
  336MOL0     C44235   2.582   9.465   6.944  0.5678 -0.5001 -0.2299
  336MOL0     C44236   2.651   9.552   6.835  0.1552 -0.4965  0.0607
  336MOL0     N44237   2.751   9.647   6.881  0.6077 -0.4869  0.8939
  336MOL0     C44238   2.725   9.784   6.909  0.2954 -0.0549 -0.2038
  336MOL0     C44239   2.827   9.828   6.971 -0.1079  0.1471 -0.4716
  336MOL0     C44240   2.851   9.964   7.026 -0.3387 -0.3514  0.3511
  336MOL0     C44241   2.739  10.065   6.986 -0.3691  0.4395 -0.0161
  336MOL0     C44242   2.750  10.206   7.034 -0.1762  0.0192  0.3222
  336MOL0     C44243   2.766  10.238   7.184 -0.6822 -0.2047  0.1563
  336MOL0     O44244   2.796  10.378   7.199  0.9954 -0.4950 -0.7797
  336MOL0     C44245   2.687  10.450   7.221 -1.1172 -0.0061 -0.3079
  336MOL0     C44246   2.726  10.577   7.269 -0.6759  0.4928  0.5553
  336MOL0     C44247   2.634  10.680   7.284  0.7807 -0.0400  0.2782
  336MOL0     C44248   2.491  10.640   7.279 -0.1130  0.7786 -0.2578
  336MOL0     C44249   2.401  10.758   7.285 -0.2347  0.6903  0.0084
  336MOL0     O44250   2.278  10.732   7.264 -0.2880 -0.5491  0.1280
  336MOL0     C44251   2.192  10.836   7.285  0.6393 -0.1893  0.1164
  336MOL0     C44252   2.135  10.896   7.177  0.0713  1.3627  1.1720
  336MOL0     C44253   2.055  11.014   7.194 -0.1662  0.8682  0.7538
  336MOL0     C44254   2.050  11.070   7.323 -0.7367 -0.4969  0.8365
  336MOL0     O44255   1.978  11.183   7.349  0.2625 -0.0340 -0.4334
  336MOL0     C44256   1.972  11.287   7.255 -0.1186 -0.3780 -0.1239
  336MOL0     C44257   2.109  11.347   7.246 -0.1925 -1.1119 -0.1051
  336MOL0     C44258   2.122  11.497   7.211  0.4710  0.3750 -0.4734
  336MOL0     C44259   2.266  11.530   7.196 -0.9876 -0.0654  0.7232
  336MOL0     C44260   2.294  11.681   7.165  0.1271  1.3670  0.0924
  336MOL0     C44261   2.224  11.774   7.250 -0.2320  0.1632  0.3484
  336MOL0     C44262   2.239  11.915   7.206 -0.7169 -1.0995 -0.3977
  336MOL0     C44263   2.253  12.014   7.327  0.3527  1.0621  0.6809
  336MOL0    Cl44264   2.094  12.038   7.408 -0.0784 -0.6986 -0.1688
  336MOL0     C44265   2.126  11.022   7.424 -0.2848 -0.2233  0.0121
  336MOL0     C44266   2.181  10.900   7.409  0.2942  0.6709  0.1272
  336MOL0     O44267   2.451  10.866   7.315  0.3149 -0.4737  0.2501
  336MOL0     C44268   2.457  10.504   7.249  0.2540  0.3040  0.1904
  336MOL0     C44269   2.556  10.406   7.225  0.7553 -0.1453 -0.9146
  336MOL0     N44270   2.924   9.725   6.973  0.0223  0.5722 -0.0267
  336MOL0     N44271   2.876   9.615   6.930  0.0287 -1.2693  0.2522
  336MOL0     C44272   2.383   8.897   7.717 -0.8421 -0.8763  0.9525
  336MOL0     C44273   2.421   8.914   7.851 -0.6615  0.6361  0.1804
  336MOL0     C44274   2.728   8.910   8.209  0.2152  0.1915  0.0373
  336MOL0     C44275   2.661   9.004   8.278 -0.4597 -0.8560  0.0535
  336MOL0     C44276   2.714   9.072   8.383  0.0452  0.8827 -0.1983
  336MOL0     C44277   2.842   9.047   8.428  0.1727 -0.3418  0.3058
  336MOL0     O44278   2.917   9.110   8.522 -0.5580  0.3104  0.4660
  336MOL0     C44279   2.857   9.219   8.590  0.1227 -0.0583 -0.5946
  336MOL0     C44280   2.954   9.301   8.684 -0.6823 -0.3462  0.0561
  336MOL0     C44281   3.090   9.340   8.610  0.3841  0.3287 -0.3642
  336MOL0     C44282   3.163   9.440   8.699  0.0819  0.1567 -0.1357
  336MOL0     C44283   3.079   9.562   8.719 -0.0830  0.3221 -0.0927
  336MOL0     C44284   2.994   9.654   8.721 -0.5628 -0.4085  0.3541
  336MOL0     C44285   2.912   8.948   8.363  0.2557  0.4673 -0.7433
  336MOL0     C44286   2.856   8.885   8.256 -0.7405 -0.0158  1.4529
  336MOL0     H44287   2.750   8.863   7.791  1.7455  0.0071 -2.8772
  336MOL0     H44288   2.677   8.858   7.552 -0.4749  0.1025 -1.6397
  336MOL0     H44289   2.432   8.819   7.291  0.0080 -2.7328 -1.2059
  336MOL0     H44290   2.559   8.759   7.402  0.8563  0.8619  1.3051
  336MOL0     H44291   2.679   8.890   7.247 -0.8798  0.0290 -1.0901
  336MOL0     H44292   2.679   8.994   7.388  2.2766  0.3146 -2.0324
  336MOL0     H44293   2.509   9.141   7.300 -0.7668 -0.4708 -0.4993
  336MOL0     H44294   2.480   9.034   7.164 -2.4870  1.3697  2.8976
  336MOL0     H44295   2.743   9.189   7.189 -0.1208 -2.2963  0.6754
  336MOL0     H44296   2.714   9.079   7.067 -0.9639  0.7865 -1.0291
  336MOL0     H44297   2.526   9.306   7.141 -0.9035  0.9295 -2.6963
  336MOL0     H44298   2.503   9.206   7.013 -0.4287  0.2400 -0.1072
  336MOL0     H44299   2.693   9.294   6.887  0.5641  3.4532 -1.7244
  336MOL0     H44300   2.757   9.383   7.027 -0.6793 -1.1990  2.3597
  336MOL0     H44301   2.480   9.445   6.910 -0.2773  2.9876 -0.1518
  336MOL0     H44302   2.584   9.522   7.037  2.4624 -2.4173  1.0167
  336MOL0     H44303   2.573   9.614   6.791  2.0438  0.8017 -1.6419
  336MOL0     H44304   2.691   9.478   6.763  1.9225  1.6271 -1.2745
  336MOL0     H44305   2.634   9.837   6.882 -0.1555 -1.2793 -1.1481
  336MOL0     H44306   2.943  10.006   6.984  0.7235  1.1917  3.7861
  336MOL0     H44307   2.871   9.953   7.133  1.6340  1.3221  0.2152
  336MOL0     H44308   2.641  10.035   7.026 -1.0176  0.9274 -1.1700
  336MOL0     H44309   2.737  10.066   6.877 -1.2030 -0.7187 -0.0300
  336MOL0     H44310   2.834  10.248   6.979  0.7210 -0.7835  1.0285
  336MOL0     H44311   2.661  10.260   7.003 -0.6082 -0.9371 -0.1552
  336MOL0     H44312   2.864  10.194   7.205  0.4458  2.2088  0.2026
  336MOL0     H44313   2.691  10.195   7.251 -1.8280 -0.1716 -1.0819
  336MOL0     H44314   2.830  10.609   7.272  0.4264 -2.6759 -0.0956
  336MOL0     H44315   2.669  10.776   7.319  1.4579 -1.0553  2.6753
  336MOL0     H44316   2.153  10.835   7.089 -0.4974 -3.2943  3.9384
  336MOL0     H44317   2.006  11.064   7.111  1.1082  0.7067 -0.1183
  336MOL0     H44318   1.908  11.374   7.274  0.4494  0.5713 -2.2463
  336MOL0     H44319   1.948  11.264   7.151  4.3177  1.5976 -1.8942
  336MOL0     H44320   2.160  11.279   7.177 -0.4930  0.5272 -2.0517
  336MOL0     H44321   2.160  11.348   7.343 -2.0710  1.3010  0.9760
  336MOL0     H44322   2.069  11.557   7.285 -2.5590 -1.2950 -1.1340
  336MOL0     H44323   2.066  11.496   7.117 -0.0883 -2.8372 -0.2393
  336MOL0     H44324   2.314  11.518   7.294 -0.8667  2.6539  1.0681
  336MOL0     H44325   2.300  11.467   7.113 -1.5665  0.0955  0.3575
  336MOL0     H44326   2.274  11.703   7.059 -1.3700  0.9722  0.2606
  336MOL0     H44327   2.403  11.686   7.171  0.7068 -1.4300 -3.8409
  336MOL0     H44328   2.243  11.754   7.356 -0.5632  0.7421  0.5250
  336MOL0     H44329   2.115  11.766   7.240 -0.1426 -2.6145  0.8587
  336MOL0     H44330   2.333  11.928   7.152 -0.3120 -0.2210  0.4790
  336MOL0     H44331   2.155  11.955   7.149  0.8974 -0.1349 -2.2182
  336MOL0     H44332   2.288  12.104   7.277  1.0256 -0.6557 -2.1670
  336MOL0     H44333   2.331  11.991   7.400  2.2209  3.9431 -0.2536
  336MOL0     H44334   2.125  11.079   7.517 -1.6619  0.7857 -0.5825
  336MOL0     H44335   2.213  10.835   7.489 -1.3500  0.6967  0.8556
  336MOL0     H44336   2.355  10.474   7.228  0.5560 -0.3570 -0.3685
  336MOL0     H44337   2.514  10.309   7.198  0.9394 -1.3580  2.6062
  336MOL0     H44338   2.281   8.911   7.681  0.2029  0.3622 -1.7649
  336MOL0     H44339   2.352   8.936   7.932  2.6271  0.8619  3.1765
  336MOL0     H44340   2.562   9.030   8.242  0.7144  1.3879 -1.8569
  336MOL0     H44341   2.663   9.150   8.439 -0.9193 -0.0881  0.3195
  336MOL0     H44342   2.777   9.173   8.649  0.7972 -1.3574 -0.6532
  336MOL0     H44343   2.820   9.294   8.521 -0.8921  1.2070  1.2367
  336MOL0     H44344   2.898   9.389   8.719  0.0998  0.5910 -0.9828
  336MOL0     H44345   2.977   9.244   8.775  1.0516 -2.2534 -1.4841
  336MOL0     H44346   3.076   9.388   8.513  1.5908  2.3841  0.4129
  336MOL0     H44347   3.155   9.253   8.596  1.1857  0.6810  0.9887
  336MOL0     H44348   3.171   9.407   8.803 -6.6612 -3.8545 -0.2811
  336MOL0     H44349   3.261   9.466   8.657 -0.2533 -1.9051 -2.4085
  336MOL0     H44350   2.914   9.724   8.729 -1.9009 -1.8266 -0.2595
  336MOL0     H44351   3.016   8.920   8.378 -1.0842 -4.4030  1.4877
  336MOL0     H44352   2.928   8.826   8.200 -1.0013 -0.4829  1.6042
  337MOL0     O44353   3.316   4.638   1.258  0.0983 -0.1301  0.1098
  337MOL0     C44354   3.252   4.683   1.356 -0.7058 -0.1100  0.5989
  337MOL0     O44355   3.254   4.627   1.482  0.2138  0.7454  0.0429
  337MOL0     C44356   3.353   4.542   1.511  0.4632  0.8427  0.1863
  337MOL0     C44357   3.475   4.600   1.529  0.0135 -0.2557  0.1338
  337MOL0     C44358   3.584   4.513   1.536  0.2678  0.7515  0.6937
  337MOL0     C44359   3.564   4.377   1.562 -0.0831 -0.4265 -0.1008
  337MOL0     O44360   3.670   4.313   1.607  0.2543  0.4145 -0.0317
  337MOL0     C44361   3.683   4.176   1.578  0.6844  0.3235 -0.8204
  337MOL0     C44362   3.806   4.131   1.646 -0.1501  0.0005 -0.6707
  337MOL0     C44363   3.802   4.149   1.794 -0.2064  0.7130  0.2050
  337MOL0     C44364   3.657   4.120   1.864  0.1405  0.9935  0.4362
  337MOL0     C44365   3.677   4.128   2.014 -0.3564  0.2563  1.2912
  337MOL0     C44366   3.541   4.157   2.079  0.6827  0.6459 -0.1526
  337MOL0     C44367   3.536   4.164   2.235 -0.7756 -0.2383  0.2836
  337MOL0     C44368   3.594   4.037   2.305  0.0428  0.2288 -0.1969
  337MOL0     N44369   3.558   4.028   2.447  0.0643 -0.4069  0.0931
  337MOL0     C44370   3.449   3.958   2.503 -1.1841  0.4052 -0.0385
  337MOL0     C44371   3.441   3.985   2.635 -0.8076 -1.0495 -0.4685
  337MOL0     C44372   3.351   3.924   2.742  0.0982  0.2015 -0.0966
  337MOL0     C44373   3.376   3.774   2.762 -0.0161 -0.3780  0.3243
  337MOL0     C44374   3.273   3.692   2.845  0.3613 -0.4392 -0.4039
  337MOL0     C44375   3.137   3.702   2.797  1.0885  0.0145 -0.3251
  337MOL0     O44376   3.132   3.684   2.656 -0.2119 -1.1891  0.9005
  337MOL0     C44377   3.072   3.576   2.612  0.0254 -0.3221 -0.4909
  337MOL0     C44378   3.166   3.476   2.581  0.0167 -0.0158 -0.4341
  337MOL0     C44379   3.117   3.354   2.538 -1.2875  1.3284  0.2438
  337MOL0     C44380   2.974   3.330   2.524  0.1835  1.0255 -0.2122
  337MOL0     C44381   2.928   3.185   2.480 -0.1580  0.0611 -0.0740
  337MOL0     O44382   2.804   3.179   2.430  0.2890 -0.4202 -0.9040
  337MOL0     C44383   2.773   3.083   2.339 -0.1144 -0.4184  0.0876
  337MOL0     C44384   2.775   3.108   2.206 -0.6752 -0.3044  1.0251
  337MOL0     C44385   2.731   3.020   2.111  0.5698 -0.0559  0.4008
  337MOL0     C44386   2.688   2.896   2.154 -0.7666 -0.4027 -1.1712
  337MOL0     O44387   2.663   2.795   2.062 -0.4732  0.1484  0.2855
  337MOL0     C44388   2.748   2.780   1.953 -0.4492  0.3346  1.0392
  337MOL0     C44389   2.712   2.649   1.884 -0.0150 -0.4945  0.1555
  337MOL0     C44390   2.805   2.609   1.772 -0.4288 -0.5848 -0.1092
  337MOL0     C44391   2.766   2.470   1.715 -0.4503 -0.2310  0.3347
  337MOL0     C44392   2.851   2.424   1.590 -0.6807 -0.9415  0.4646
  337MOL0     C44393   2.753   2.327   1.516  0.8155 -0.3450  0.1221
  337MOL0     C44394   2.836   2.234   1.414 -0.4397  0.1231  0.1137
  337MOL0     C44395   2.844   2.295   1.286 -0.5246 -0.5130  0.4862
  337MOL0    Cl44396   2.675   2.318   1.207 -0.0207 -0.0714 -0.1666
  337MOL0     C44397   2.677   2.874   2.293 -0.2416 -0.0807  0.4291
  337MOL0     C44398   2.709   2.969   2.386 -0.3224 -0.0829 -0.7792
  337MOL0     O44399   3.014   3.099   2.458 -0.3727  0.1177 -0.3302
  337MOL0     C44400   2.890   3.440   2.554  0.6676  0.2351  0.1573
  337MOL0     C44401   2.938   3.555   2.600  0.0398 -0.6366  0.7035
  337MOL0     N44402   3.549   4.072   2.659 -0.5588  0.6950  0.7455
  337MOL0     N44403   3.608   4.107   2.545 -0.3572 -0.4319 -0.2600
  337MOL0     C44404   3.434   4.324   1.552  0.5195 -0.1757 -0.9244
  337MOL0     C44405   3.326   4.409   1.521 -0.6657 -0.6749  0.0616
  337MOL0     C44406   3.150   4.784   1.326  0.1807 -1.7453 -1.2227
  337MOL0     C44407   3.151   4.871   1.214  0.4286  0.5017  0.2341
  337MOL0     C44408   3.036   4.955   1.188 -0.4251 -0.1293 -0.3292
  337MOL0     C44409   2.936   4.974   1.282  0.5767 -0.1800 -0.7112
  337MOL0     O44410   2.846   5.076   1.280 -0.7541  0.0530  0.3994
  337MOL0     C44411   2.735   5.066   1.363 -1.0964 -0.2540  0.4996
  337MOL0     C44412   2.645   5.187   1.325 -0.4868 -0.4717 -0.1926
  337MOL0     C44413   2.527   5.178   1.423  0.0625 -0.1904 -0.8523
  337MOL0     C44414   2.429   5.299   1.418  0.4212  0.7779 -0.0834
  337MOL0     C44415   2.323   5.296   1.531 -0.1163 -0.2017 -0.8165
  337MOL0     C44416   2.231   5.289   1.615  0.4691  0.6746 -0.1554
  337MOL0     C44417   2.943   4.896   1.397 -0.8110 -0.6941  0.4169
  337MOL0     C44418   3.044   4.813   1.417 -0.1176  0.2796 -0.5862
  337MOL0     H44419   3.486   4.706   1.546 -0.5169 -0.3331  1.0133
  337MOL0     H44420   3.689   4.541   1.531  0.4354 -0.0380 -1.5085
  337MOL0     H44421   3.703   4.170   1.470 -3.3451  2.4306 -1.8918
  337MOL0     H44422   3.590   4.122   1.598 -0.1954  1.7300 -0.9858
  337MOL0     H44423   3.892   4.191   1.614  1.7056  0.2693  4.0781
  337MOL0     H44424   3.822   4.025   1.622 -0.0879  0.2768 -1.9144
  337MOL0     H44425   3.825   4.256   1.806  2.3821  0.2612 -0.2349
  337MOL0     H44426   3.876   4.095   1.854 -1.2035 -1.6633 -0.5888
  337MOL0     H44427   3.576   4.183   1.826  0.9449 -0.1571 -3.5696
  337MOL0     H44428   3.621   4.018   1.845 -1.2467  1.7604 -1.3602
  337MOL0     H44429   3.749   4.207   2.038  2.3794 -1.5547 -0.4384
  337MOL0     H44430   3.721   4.035   2.051  4.3226  1.8405  0.4039
  337MOL0     H44431   3.467   4.083   2.046  1.5407  0.7832 -2.5414
  337MOL0     H44432   3.494   4.249   2.044  1.2239  0.7669 -0.5681
  337MOL0     H44433   3.591   4.251   2.271  0.8444 -1.0201 -0.2119
  337MOL0     H44434   3.430   4.167   2.265 -0.6208 -1.5851  1.0666
  337MOL0     H44435   3.702   4.025   2.289  0.1157 -0.7576  0.9132
  337MOL0     H44436   3.541   3.949   2.266  0.4320 -0.0019 -0.2162
  337MOL0     H44437   3.371   3.904   2.450 -0.1171 -1.4345  0.1500
  337MOL0     H44438   3.246   3.935   2.714 -1.1732 -0.0224  3.9280
  337MOL0     H44439   3.351   3.960   2.846 -0.9330 -0.2226  0.0591
  337MOL0     H44440   3.474   3.755   2.806  1.0796  0.5850 -1.5488
  337MOL0     H44441   3.373   3.738   2.659 -3.4483  2.1616 -0.6686
  337MOL0     H44442   3.305   3.588   2.851 -0.7790 -0.7195  1.6913
  337MOL0     H44443   3.259   3.723   2.949 -2.3695 -0.2776 -0.7526
  337MOL0     H44444   3.094   3.793   2.839  3.9880  1.6256 -0.5942
  337MOL0     H44445   3.084   3.617   2.840  3.0193 -0.9546  0.2217
  337MOL0     H44446   3.271   3.482   2.608 -0.0733  3.1284 -0.3491
  337MOL0     H44447   3.188   3.273   2.527 -0.7523  1.5012  2.0180
  337MOL0     H44448   2.814   3.204   2.173 -0.2462 -1.0391 -0.7555
  337MOL0     H44449   2.746   3.058   2.010  0.7083 -0.9532  0.0816
  337MOL0     H44450   2.851   2.786   1.989  0.3270  2.8096 -1.2642
  337MOL0     H44451   2.736   2.855   1.874  0.2279 -0.7630 -0.1411
  337MOL0     H44452   2.609   2.644   1.846 -0.0352 -3.5460  0.4223
  337MOL0     H44453   2.726   2.575   1.963  1.9096  0.2566  0.5822
  337MOL0     H44454   2.908   2.601   1.806 -0.4287 -1.6780 -0.3354
  337MOL0     H44455   2.809   2.685   1.693 -0.2302 -1.4111 -0.9222
  337MOL0     H44456   2.767   2.384   1.783 -0.8438 -0.2484  0.3220
  337MOL0     H44457   2.661   2.487   1.690 -0.4389  1.0750  1.1093
  337MOL0     H44458   2.945   2.381   1.626 -1.1941 -1.3943  1.3122
  337MOL0     H44459   2.870   2.511   1.527 -4.2210 -2.4018 -3.0063
  337MOL0     H44460   2.677   2.380   1.459  0.7133  0.4374  0.9749
  337MOL0     H44461   2.709   2.255   1.586  1.8695 -0.1810  0.9878
  337MOL0     H44462   2.938   2.226   1.452 -0.2291  1.3619 -0.1379
  337MOL0     H44463   2.797   2.132   1.410 -0.3812  0.0057  1.7348
  337MOL0     H44464   2.901   2.231   1.217 -1.9475 -1.4537  0.1483
  337MOL0     H44465   2.894   2.392   1.297 -0.4578 -0.6937  1.9351
  337MOL0     H44466   2.647   2.773   2.318  0.5805 -0.5388 -0.3844
  337MOL0     H44467   2.699   2.959   2.493  2.0614 -0.4087 -0.5344
  337MOL0     H44468   2.783   3.422   2.548  0.5625  0.1950  1.6915
  337MOL0     H44469   2.866   3.633   2.621 -0.2383 -1.6579  4.1911
  337MOL0     H44470   3.407   4.220   1.569  2.3422 -0.3708  1.1659
  337MOL0     H44471   3.228   4.368   1.495 -2.7076  3.5331  0.2850
  337MOL0     H44472   3.228   4.863   1.137 -2.1956  0.2543 -2.5666
  337MOL0     H44473   3.029   5.011   1.096  3.1715  2.8944  0.9885
  337MOL0     H44474   2.755   5.069   1.471 -1.5784 -0.3084  0.5940
  337MOL0     H44475   2.682   4.976   1.331 -2.4751  1.0399 -0.9667
  337MOL0     H44476   2.705   5.278   1.337  2.5436 -2.2368 -0.9387
  337MOL0     H44477   2.623   5.181   1.218 -0.2279  1.1194 -0.3588
  337MOL0     H44478   2.562   5.178   1.526 -0.2203  0.5931 -0.7539
  337MOL0     H44479   2.476   5.081   1.420  1.7679 -1.2631  1.4106
  337MOL0     H44480   2.488   5.390   1.431 -1.0934  1.4681  3.0336
  337MOL0     H44481   2.372   5.297   1.325 -1.5320 -2.1449  1.0182
  337MOL0     H44482   2.160   5.283   1.695  1.9519  0.1858  1.1938
  337MOL0     H44483   2.877   4.914   1.482 -1.2015 -0.2262  0.0195
  337MOL0     H44484   3.050   4.761   1.512  0.6833 -0.3859 -0.9881
  338MOL0     O44485   4.279   9.729   6.820  0.2653 -0.1642  0.2355
  338MOL0     C44486   4.211   9.626   6.793 -0.3648 -0.5572  0.3091
  338MOL0     O44487   4.192   9.582   6.669 -0.6291  0.8331 -0.6719
  338MOL0     C44488   4.262   9.635   6.564 -0.1199  0.8979  0.0568
  338MOL0     C44489   4.402   9.632   6.572  0.2075 -0.0603  0.4120
  338MOL0     C44490   4.478   9.681   6.474 -0.2143 -0.3844  0.0370
  338MOL0     C44491   4.423   9.734   6.358 -0.0267 -0.6606 -0.9790
  338MOL0     O44492   4.498   9.772   6.254  0.4118 -0.1257 -0.2017
  338MOL0     C44493   4.608   9.854   6.272  1.2193  0.1233  0.4855
  338MOL0     C44494   4.699   9.875   6.142 -0.3426  0.3243 -0.8942
  338MOL0     C44495   4.626   9.861   6.007 -0.4169  0.1596 -0.5888
  338MOL0     C44496   4.519   9.961   5.977 -0.1501  0.3909  0.3573
  338MOL0     C44497   4.590  10.101   5.975  0.2418  0.1799 -0.0041
  338MOL0     C44498   4.486  10.213   5.984  0.6432  0.0414  0.3941
  338MOL0     C44499   4.395  10.225   5.858  0.5145 -0.5391  0.1451
  338MOL0     C44500   4.465  10.295   5.739 -0.4984  0.1169 -0.0204
  338MOL0     N44501   4.389  10.310   5.612  0.5110 -0.2312  0.9130
  338MOL0     C44502   4.382  10.421   5.538 -0.1645  0.6785 -0.1138
  338MOL0     C44503   4.307  10.386   5.432 -0.8348 -0.0493 -0.2599
  338MOL0     C44504   4.265  10.488   5.341 -0.2167  1.0945  1.0021
  338MOL0     C44505   4.164  10.431   5.244  0.1120  0.3156 -0.7087
  338MOL0     C44506   4.136  10.519   5.122  0.6834 -0.4166  0.8434
  338MOL0     C44507   4.029  10.444   5.032 -0.3777  0.6212  0.2561
  338MOL0     O44508   4.112  10.344   4.966  0.4227  0.0119  0.3631
  338MOL0     C44509   4.081  10.314   4.830 -0.6021  0.4671 -0.7209
  338MOL0     C44510   3.947  10.297   4.790  0.3490  0.6518 -0.0577
  338MOL0     C44511   3.915  10.251   4.657  0.1151  0.7217 -0.2775
  338MOL0     C44512   4.024  10.229   4.564  0.5682  0.0605  0.5054
  338MOL0     C44513   3.978  10.203   4.425  0.4714  0.5909  0.0335
  338MOL0     O44514   3.840  10.212   4.399 -0.6912 -0.1133  0.4529
  338MOL0     C44515   3.797  10.212   4.264 -1.1138 -0.4619  0.1133
  338MOL0     C44516   3.750  10.092   4.215 -0.5186  0.1636  0.2004
  338MOL0     C44517   3.685  10.100   4.089 -0.2149  0.5036  0.6378
  338MOL0     C44518   3.707  10.207   4.005 -0.1465 -0.4324 -0.9395
  338MOL0     O44519   3.657  10.185   3.882 -0.1091  0.0412  0.1009
  338MOL0     C44520   3.740  10.216   3.765  0.0249 -0.6199  0.3104
  338MOL0     C44521   3.666  10.201   3.626  0.2521 -0.2533  0.2971
  338MOL0     C44522   3.551  10.297   3.619  0.2394 -0.2473  0.0514
  338MOL0     C44523   3.484  10.297   3.478 -0.9401 -0.4355 -0.0614
  338MOL0     C44524   3.394  10.416   3.442  0.0681 -0.1986  0.3144
  338MOL0     C44525   3.326  10.402   3.301 -0.3133 -0.4279 -0.3598
  338MOL0     C44526   3.257  10.534   3.236  0.3562 -0.5669 -0.1034
  338MOL0     C44527   3.215  10.494   3.092  0.2023 -0.0122 -0.6603
  338MOL0    Cl44528   3.076  10.376   3.096 -0.2863  0.3404  0.2447
  338MOL0     C44529   3.768  10.328   4.050  0.1706  0.8147  0.0548
  338MOL0     C44530   3.812  10.331   4.190  0.1978 -0.1953 -0.0562
  338MOL0     O44531   4.071  10.198   4.344  0.2503 -0.6051  0.2671
  338MOL0     C44532   4.157  10.234   4.608  0.0427 -0.5334  1.0359
  338MOL0     C44533   4.177  10.286   4.735  0.1522 -0.6079 -0.3383
  338MOL0     N44534   4.266  10.253   5.443  0.6316  0.6222  0.5114
  338MOL0     N44535   4.319  10.216   5.551  0.3891 -0.0594 -0.5474
  338MOL0     C44536   4.286   9.744   6.339  0.2572  0.4847  0.2576
  338MOL0     C44537   4.210   9.695   6.449 -0.1503  0.1159 -0.7339
  338MOL0     C44538   4.142   9.570   6.907  0.1932 -0.9119  0.2068
  338MOL0     C44539   4.075   9.450   6.888 -0.6698 -0.0534  0.0126
  338MOL0     C44540   4.009   9.391   6.995 -0.0442  0.0122 -0.0100
  338MOL0     C44541   3.997   9.452   7.122 -0.0385 -0.1442  0.2069
  338MOL0     O44542   3.930   9.409   7.232  0.2949 -0.0924  0.3598
  338MOL0     C44543   3.925   9.271   7.263  0.2459  0.0117 -0.2014
  338MOL0     C44544   4.066   9.222   7.301  0.0349 -0.0659  0.1521
  338MOL0     C44545   4.092   9.289   7.444 -0.5220 -0.5558  0.3589
  338MOL0     C44546   4.245   9.318   7.469  0.3978  0.1020  0.2995
  338MOL0     C44547   4.286   9.440   7.397 -0.5042 -0.1449 -0.0327
  338MOL0     C44548   4.325   9.537   7.331 -0.8883  0.2043 -0.6457
  338MOL0     C44549   4.077   9.569   7.137 -0.0940  0.8512 -0.6206
  338MOL0     C44550   4.147   9.632   7.035  0.7494  0.4203  0.0413
  338MOL0     H44551   4.456   9.596   6.659  0.4453  0.2986  0.4146
  338MOL0     H44552   4.577   9.703   6.512 -0.8732  1.0425  1.0365
  338MOL0     H44553   4.665   9.824   6.360  0.5507  0.5704  1.0793
  338MOL0     H44554   4.571   9.957   6.280 -2.1553 -0.7393 -1.6440
  338MOL0     H44555   4.776   9.798   6.141  1.6969  2.2358 -0.0804
  338MOL0     H44556   4.767   9.959   6.161 -0.6001  0.3706 -0.1738
  338MOL0     H44557   4.573   9.766   5.996 -1.9972  1.1696 -2.3213
  338MOL0     H44558   4.702   9.849   5.929  1.0880 -0.5769  0.9193
  338MOL0     H44559   4.459   9.934   5.890  2.0827 -0.5086 -0.9858
  338MOL0     H44560   4.458   9.952   6.068  0.8984 -3.6405  0.8710
  338MOL0     H44561   4.644  10.110   5.881  3.0125  1.6560  1.5926
  338MOL0     H44562   4.661  10.117   6.057 -0.7067  0.0183  0.8853
  338MOL0     H44563   4.544  10.305   5.994  0.7108  0.1384 -0.7200
  338MOL0     H44564   4.423  10.205   6.073  0.4946 -1.3404  0.1886
  338MOL0     H44565   4.348  10.130   5.832 -1.8306  0.6170 -0.1657
  338MOL0     H44566   4.312  10.294   5.879  1.5567  0.6167  0.6194
  338MOL0     H44567   4.551  10.230   5.717  0.4067  0.4417  2.3275
  338MOL0     H44568   4.485  10.397   5.772 -1.2523  0.3429 -0.2408
  338MOL0     H44569   4.421  10.521   5.557  2.0355  0.2201 -1.7742
  338MOL0     H44570   4.353  10.526   5.287 -0.4892 -1.6549 -1.6798
  338MOL0     H44571   4.216  10.571   5.393 -1.2062 -0.1749  2.1586
  338MOL0     H44572   4.076  10.400   5.301  0.9791  3.8253  2.9953
  338MOL0     H44573   4.197  10.333   5.210 -0.5389  0.3143 -1.3670
  338MOL0     H44574   4.094  10.615   5.153  1.6518 -0.4840  2.5027
  338MOL0     H44575   4.227  10.536   5.063 -0.0741 -1.3573 -0.6462
  338MOL0     H44576   3.992  10.512   4.955 -0.7966 -1.4606 -1.4856
  338MOL0     H44577   3.948  10.394   5.086 -1.7531  1.6180 -0.8315
  338MOL0     H44578   3.871  10.303   4.867 -1.2976 -0.4169 -1.5457
  338MOL0     H44579   3.811  10.234   4.631  0.2549 -0.8453  0.0535
  338MOL0     H44580   3.719  10.011   4.279 -1.5119 -0.5087 -1.0774
  338MOL0     H44581   3.622  10.019   4.053  0.2949 -1.2876  3.4819
  338MOL0     H44582   3.827  10.150   3.765  0.6175  0.1099 -0.9609
  338MOL0     H44583   3.769  10.321   3.772 -3.0384  0.3229  0.2086
  338MOL0     H44584   3.634  10.100   3.596 -0.3526 -0.0953  0.4032
  338MOL0     H44585   3.744  10.225   3.554  2.6159  1.9374  3.3215
  338MOL0     H44586   3.584  10.394   3.656 -0.9016  0.5537 -0.9403
  338MOL0     H44587   3.478  10.264   3.694  0.8038  2.0474  1.7004
  338MOL0     H44588   3.563  10.293   3.402  0.6566  1.2107  1.4204
  338MOL0     H44589   3.419  10.209   3.474 -3.4469  1.2906  0.3245
  338MOL0     H44590   3.451  10.509   3.441  1.1416 -0.8419 -0.0550
  338MOL0     H44591   3.311  10.432   3.511  1.1695 -0.3512  1.7065
  338MOL0     H44592   3.256  10.318   3.302  2.0816 -2.5488 -1.8875
  338MOL0     H44593   3.397  10.354   3.233 -1.0688 -0.5791 -1.0616
  338MOL0     H44594   3.164  10.565   3.285  0.6318  0.4697 -0.2233
  338MOL0     H44595   3.322  10.620   3.219  0.7185 -1.0199 -1.1344
  338MOL0     H44596   3.302  10.449   3.043 -2.0827 -3.3968 -1.9557
  338MOL0     H44597   3.190  10.576   3.024  0.8202 -1.2307 -2.4339
  338MOL0     H44598   3.775  10.412   3.981  1.2555  0.4012 -0.3551
  338MOL0     H44599   3.845  10.422   4.239  0.3145  0.8767 -2.0229
  338MOL0     H44600   4.236  10.202   4.541  0.2618 -1.1071  1.5624
  338MOL0     H44601   4.278  10.295   4.774 -0.0507  1.6855 -0.1811
  338MOL0     H44602   4.241   9.781   6.248  2.3729 -1.7912 -1.8674
  338MOL0     H44603   4.101   9.702   6.451 -0.1482  2.1735 -2.9585
  338MOL0     H44604   4.072   9.413   6.786  1.5112  1.6639 -0.7740
  338MOL0     H44605   3.931   9.318   6.977  1.0406 -1.4325  0.9486
  338MOL0     H44606   3.884   9.210   7.182 -1.9982  0.4208  0.5664
  338MOL0     H44607   3.869   9.260   7.356  2.0177 -0.7893  0.8287
  338MOL0     H44608   4.065   9.116   7.326 -2.0594  0.3224  1.9712
  338MOL0     H44609   4.137   9.265   7.229 -1.8570 -0.2018 -1.9106
  338MOL0     H44610   4.030   9.239   7.519 -2.2560  1.6664  0.5139
  338MOL0     H44611   4.041   9.386   7.441  0.1384 -0.2065 -2.7802
  338MOL0     H44612   4.254   9.323   7.577 -0.5179  0.3755  0.3750
  338MOL0     H44613   4.308   9.233   7.442  1.6252  0.2018  2.6335
  338MOL0     H44614   4.369   9.619   7.280 -3.5515  2.3577  0.2654
  338MOL0     H44615   4.077   9.612   7.237 -1.0814  0.6748 -0.5391
  338MOL0     H44616   4.191   9.731   7.043  0.8654  0.4258 -0.6208
  339MOL0     O44617   6.408  10.787  10.687  0.1903 -0.3595  0.1258
  339MOL0     C44618   6.317  10.858  10.713  0.2907 -0.7453 -0.5054
  339MOL0     O44619   6.304  10.987  10.666  0.3672 -0.6190  0.3554
  339MOL0     C44620   6.418  11.053  10.605 -0.4586 -0.1153 -0.1064
  339MOL0     C44621   6.430  11.076  10.467 -0.1302 -0.4366 -0.4642
  339MOL0     C44622   6.543  11.151  10.422  0.2070 -0.6597 -0.2092
  339MOL0     C44623   6.646  11.204  10.508  0.3340  0.9102  0.8596
  339MOL0     O44624   6.763  11.272  10.474 -0.5878 -0.4960  0.3046
  339MOL0     C44625   6.817  11.258  10.341  0.0691 -0.2541  0.6323
  339MOL0     C44626   6.951  11.331  10.329 -0.0258  0.7912  1.4373
  339MOL0     C44627   7.061  11.243  10.385  0.1772 -0.5192  0.0834
  339MOL0     C44628   7.195  11.327  10.377  0.4790  0.1133  0.0094
  339MOL0     C44629   7.303  11.232  10.349  0.1868  0.6120  0.4452
  339MOL0     C44630   7.438  11.312  10.351  0.0753 -0.0211  0.8511
  339MOL0     C44631   7.568  11.228  10.347 -0.5030 -0.4067 -0.2415
  339MOL0     C44632   7.696  11.303  10.394 -0.0262  0.2566 -0.8320
  339MOL0     N44633   7.803  11.207  10.385 -0.6656 -0.0835 -0.8294
  339MOL0     C44634   7.897  11.201  10.291 -0.4686 -0.5034  0.5076
  339MOL0     C44635   7.988  11.114  10.337  0.7362 -0.2430  0.6145
  339MOL0     C44636   8.119  11.083  10.264  0.5889  0.1622 -0.4013
  339MOL0     C44637   8.088  11.070  10.114 -0.4577  0.2932  0.1930
  339MOL0     C44638   8.210  11.070  10.018 -0.0649 -0.4362  0.0209
  339MOL0     C44639   8.277  10.933  10.003 -0.2123  0.1796 -0.2370
  339MOL0     O44640   8.419  10.955   9.958  0.9302 -0.0054  0.1514
  339MOL0     C44641   8.504  10.855   9.927  0.2215 -1.1324  0.0244
  339MOL0     C44642   8.465  10.719   9.909  0.0351  0.7118 -0.0146
  339MOL0     C44643   8.563  10.622   9.869 -0.0800 -0.4270 -0.4033
  339MOL0     C44644   8.695  10.668   9.842 -0.3255  0.0853 -0.2539
  339MOL0     C44645   8.805  10.576   9.812  0.3349 -0.5113  0.3546
  339MOL0     O44646   8.765  10.443   9.772  0.4306 -0.1855  1.5200
  339MOL0     C44647   8.847  10.336   9.763  0.3556 -0.5056  0.5294
  339MOL0     C44648   8.805  10.226   9.686 -0.0012 -0.2624 -0.0694
  339MOL0     C44649   8.885  10.109   9.672  0.0219 -0.6316 -0.4569
  339MOL0     C44650   9.008  10.105   9.733  0.7321 -0.5887 -0.6144
  339MOL0     O44651   9.088   9.983   9.734 -0.0876 -0.6771 -0.1525
  339MOL0     C44652   9.037   9.860   9.672 -0.5950  0.3699 -0.2099
  339MOL0     C44653   9.152   9.766   9.637 -0.3079  0.3073  0.6572
  339MOL0     C44654   9.262   9.821   9.555  0.7699  0.1075  0.2256
  339MOL0     C44655   9.378   9.722   9.548 -0.7891  0.4146  0.5308
  339MOL0     C44656   9.481   9.771   9.657 -0.4772 -0.2330 -0.3569
  339MOL0     C44657   9.608   9.675   9.670 -0.6146 -0.3009  0.4807
  339MOL0     C44658   9.675   9.648   9.531 -0.3431 -0.2108 -0.1385
  339MOL0     C44659   9.805   9.567   9.546 -0.0900  0.1574  0.2338
  339MOL0    Cl44660   9.931   9.664   9.639 -0.5212  0.5033  0.0249
  339MOL0     C44661   9.056  10.216   9.804  1.0473 -0.8315  0.1903
  339MOL0     C44662   8.982  10.330   9.825  0.5570 -0.4576  0.3923
  339MOL0     O44663   8.917  10.615   9.832 -0.0078 -0.3533  0.0023
  339MOL0     C44664   8.729  10.809   9.865  0.4658  0.6324  0.4491
  339MOL0     C44665   8.631  10.902   9.903 -0.7154 -0.0103 -0.5697
  339MOL0     N44666   7.947  11.070  10.461 -0.0782  0.0874  0.1100
  339MOL0     N44667   7.829  11.124  10.485 -0.6211 -0.2913 -0.1533
  339MOL0     C44668   6.625  11.190  10.649  0.1167 -0.5593 -0.0911
  339MOL0     C44669   6.515  11.117  10.688  0.4141 -0.0475 -0.0428
  339MOL0     C44670   6.220  10.816  10.822  0.4146  1.2725  0.4398
  339MOL0     C44671   6.095  10.869  10.834  0.1728  0.2169 -0.9148
  339MOL0     C44672   5.995  10.807  10.902 -0.2041 -0.6629  0.7261
  339MOL0     C44673   6.006  10.694  10.977  0.6661 -0.2078 -0.3838
  339MOL0     O44674   5.886  10.648  11.028  0.2463 -0.5201 -0.7750
  339MOL0     C44675   5.878  10.520  11.094  1.3832  0.8072  1.0543
  339MOL0     C44676   5.895  10.403  10.995 -0.0033 -0.4554 -0.6304
  339MOL0     C44677   5.885  10.264  11.064 -1.3674  0.6379 -0.3379
  339MOL0     C44678   5.872  10.152  10.961  0.0308 -0.2689  0.9240
  339MOL0     C44679   5.861  10.028  11.038 -0.4950  0.5573 -0.5811
  339MOL0     C44680   5.856   9.924  11.107  0.5546  1.2168  0.6619
  339MOL0     C44681   6.133  10.631  10.978 -0.4011  0.5698  0.2473
  339MOL0     C44682   6.240  10.696  10.903 -0.1054  0.8220  0.8210
  339MOL0     H44683   6.360  11.036  10.395 -1.3729  1.0521 -0.1399
  339MOL0     H44684   6.557  11.167  10.315 -0.7391  2.1536 -0.0056
  339MOL0     H44685   6.737  11.303  10.281 -0.3956 -0.0554  1.3879
  339MOL0     H44686   6.819  11.155  10.305  2.1217  0.7373 -2.5114
  339MOL0     H44687   6.967  11.420  10.391  1.4460  1.1413  0.6037
  339MOL0     H44688   6.967  11.349  10.223  0.5354 -1.8636  0.9947
  339MOL0     H44689   7.077  11.161  10.313  3.1623  1.1658 -1.3421
  339MOL0     H44690   7.035  11.200  10.482 -2.7299 -0.3800 -0.5451
  339MOL0     H44691   7.184  11.405  10.301  1.3636 -0.0885 -0.3355
  339MOL0     H44692   7.212  11.380  10.471 -1.7361  1.3096 -0.2098
  339MOL0     H44693   7.294  11.187  10.250  0.7397 -0.4318  0.8520
  339MOL0     H44694   7.311  11.155  10.426 -1.9621  1.0243  1.1303
  339MOL0     H44695   7.452  11.366  10.446  1.9469  0.5446  0.2987
  339MOL0     H44696   7.431  11.379  10.265 -2.7433 -0.4118  0.6838
  339MOL0     H44697   7.544  11.141  10.409  0.0576 -0.3452  0.0633
  339MOL0     H44698   7.600  11.195  10.247  3.2190  0.9607  0.3337
  339MOL0     H44699   7.670  11.323  10.498 -3.3617 -3.3822 -0.7149
  339MOL0     H44700   7.727  11.393  10.340  0.1093  0.7721  0.0876
  339MOL0     H44701   7.910  11.254  10.198  2.0454  1.1752  1.7132
  339MOL0     H44702   8.173  11.002  10.313 -2.0619  0.5260  3.5089
  339MOL0     H44703   8.183  11.172  10.270  0.9325 -0.0394 -1.0033
  339MOL0     H44704   8.028  11.155  10.082  0.0520  0.4330 -0.4061
  339MOL0     H44705   8.027  10.981  10.096  0.4120 -0.3287  0.2269
  339MOL0     H44706   8.167  11.084   9.918 -3.0563 -1.9799  0.9733
  339MOL0     H44707   8.275  11.150  10.054 -0.7131  1.0172 -1.8489
  339MOL0     H44708   8.221  10.874   9.931 -1.9351  1.0170  0.3598
  339MOL0     H44709   8.257  10.874  10.093  3.8146  1.2216  1.5708
  339MOL0     H44710   8.364  10.681   9.919  0.1612 -0.7246 -3.0127
  339MOL0     H44711   8.553  10.514   9.868 -0.1981 -0.4432 -2.5416
  339MOL0     H44712   8.709  10.240   9.638  0.4274  3.6401 -0.1788
  339MOL0     H44713   8.831  10.028   9.624 -0.9650 -0.3057  0.0546
  339MOL0     H44714   8.987   9.890   9.580  0.9758  0.6387 -1.0087
  339MOL0     H44715   8.973   9.814   9.747  0.9919  3.0211  3.0615
  339MOL0     H44716   9.099   9.689   9.580 -0.2669 -0.0997  1.1656
  339MOL0     H44717   9.204   9.726   9.725  0.3851 -1.3991 -0.4755
  339MOL0     H44718   9.295   9.915   9.599 -2.1873 -0.1158  3.2898
  339MOL0     H44719   9.238   9.842   9.450 -0.0586 -0.4082  0.3048
  339MOL0     H44720   9.354   9.618   9.571  1.3469  0.0218  1.1199
  339MOL0     H44721   9.420   9.738   9.448  0.1957  2.0456  1.1751
  339MOL0     H44722   9.424   9.769   9.750 -2.5264 -0.3951 -1.5519
  339MOL0     H44723   9.525   9.869   9.638  1.0772 -0.6677  0.7770
  339MOL0     H44724   9.577   9.580   9.716 -4.6018  0.9138  0.7297
  339MOL0     H44725   9.685   9.717   9.735 -0.7411 -0.3275  0.6503
  339MOL0     H44726   9.617   9.602   9.451 -1.4078  0.8617 -0.0093
  339MOL0     H44727   9.696   9.747   9.488  0.9136 -0.9464 -1.3130
  339MOL0     H44728   9.839   9.540   9.446 -0.0458  0.4100  0.1823
  339MOL0     H44729   9.783   9.469   9.591 -0.4011 -0.4488 -1.1936
  339MOL0     H44730   9.151  10.206   9.856  0.2833  1.1695  2.1465
  339MOL0     H44731   9.019  10.411   9.886 -1.2420  1.0685 -0.4127
  339MOL0     H44732   8.830  10.849   9.862 -0.0173  2.0522  2.0464
  339MOL0     H44733   8.662  11.006   9.902 -1.8160  0.3261 -1.5525
  339MOL0     H44734   6.685  11.252  10.714  0.4304 -0.2150 -0.7040
  339MOL0     H44735   6.500  11.109  10.795 -0.6448  0.0329 -0.1756
  339MOL0     H44736   6.082  10.965  10.785  3.5468  1.6025  0.6103
  339MOL0     H44737   5.892  10.841  10.898 -0.7030 -2.0262  1.3411
  339MOL0     H44738   5.779  10.511  11.141 -1.1721  0.3495 -3.7240
  339MOL0     H44739   5.960  10.526  11.166  1.2817  1.8406  1.0953
  339MOL0     H44740   5.801  10.401  10.940 -0.1620 -1.0370 -0.3401
  339MOL0     H44741   5.984  10.413  10.932  0.0758  1.5800 -0.2816
  339MOL0     H44742   5.807  10.262  11.140  1.1449  0.6925  2.4072
  339MOL0     H44743   5.984  10.247  11.106 -1.5499 -1.3781 -0.6174
  339MOL0     H44744   5.786  10.160  10.894  0.8911  0.9281 -0.0877
  339MOL0     H44745   5.962  10.148  10.899  1.8412  1.9823  3.2085
  339MOL0     H44746   5.831   9.840  11.169  2.2228 -0.1822 -0.4527
  339MOL0     H44747   6.157  10.546  11.041  4.4492 -0.1002 -2.0547
  339MOL0     H44748   6.346  10.674  10.897  0.7557  4.6716 -3.2998
  340MOL0     O44749   7.233  10.877   6.680  0.2616 -0.2908  0.4077
  340MOL0     C44750   7.348  10.842   6.647  0.5376  0.1653  0.3923
  340MOL0     O44751   7.412  10.729   6.696  0.6492 -0.6552  0.1254
  340MOL0     C44752   7.364  10.629   6.771  0.0252  0.0859 -0.4924
  340MOL0     C44753   7.227  10.584   6.773  0.0748  0.1842 -1.1560
  340MOL0     C44754   7.184  10.468   6.847 -0.2673  0.5187 -0.7709
  340MOL0     C44755   7.280  10.408   6.931 -1.7628  0.5101 -0.4293
  340MOL0     O44756   7.263  10.301   7.020 -1.0214  0.0104  0.1517
  340MOL0     C44757   7.149  10.212   7.002  0.1823  0.4364 -0.6060
  340MOL0     C44758   7.149  10.126   7.134 -0.0084 -0.0703  0.5180
  340MOL0     C44759   7.014  10.070   7.161 -0.6363  1.7070  0.4066
  340MOL0     C44760   7.014   9.956   7.262 -0.0898  1.1051 -0.7707
  340MOL0     C44761   6.871   9.892   7.282  1.1890  1.1533  0.8976
  340MOL0     C44762   6.782   9.984   7.357 -0.3874 -0.5602 -0.7308
  340MOL0     C44763   6.639   9.920   7.360 -0.3817 -0.4280 -0.0336
  340MOL0     C44764   6.537  10.013   7.432 -1.4294 -0.2197 -0.5460
  340MOL0     N44765   6.483  10.131   7.360 -0.0165  0.1458  0.0473
  340MOL0     C44766   6.382  10.121   7.274  0.2101  0.7029 -0.3560
  340MOL0     C44767   6.388  10.230   7.192 -0.2016  0.1465  0.0718
  340MOL0     C44768   6.291  10.270   7.085  1.0012 -0.0583 -0.0059
  340MOL0     C44769   6.174  10.347   7.137 -0.1068  0.5283 -0.1393
  340MOL0     C44770   6.204  10.479   7.172  0.2247  0.2929  1.1171
  340MOL0     C44771   6.249  10.573   7.050  0.4021 -0.3409  0.7655
  340MOL0     O44772   6.308  10.698   7.093 -0.2073 -0.5022  0.0822
  340MOL0     C44773   6.444  10.709   7.119 -0.6611 -0.4916  0.1272
  340MOL0     C44774   6.490  10.832   7.164 -0.1180  0.2242 -0.3500
  340MOL0     C44775   6.627  10.867   7.170  0.0487  0.4374  0.8623
  340MOL0     C44776   6.718  10.766   7.135 -0.4471  0.1010 -0.7321
  340MOL0     C44777   6.865  10.798   7.143  1.0427 -0.2501 -1.3217
  340MOL0     O44778   6.948  10.717   7.073  0.3684 -0.4832 -1.0783
  340MOL0     C44779   7.078  10.764   7.063 -0.1594 -0.5104  0.7946
  340MOL0     C44780   7.110  10.884   6.990 -0.3862  1.1341 -0.4424
  340MOL0     C44781   7.235  10.929   6.997 -0.5552 -0.4133  0.0102
  340MOL0     C44782   7.342  10.844   7.054  0.6517 -0.5162  0.0052
  340MOL0     O44783   7.473  10.879   7.047 -0.1660  0.2833  0.0847
  340MOL0     C44784   7.508  11.005   7.005 -0.9101 -0.6141  0.1943
  340MOL0     C44785   7.657  10.993   6.972 -0.5568  1.1367 -0.3781
  340MOL0     C44786   7.695  10.906   6.856 -0.8895 -0.3666  0.3774
  340MOL0     C44787   7.841  10.893   6.839  0.4987  1.2942 -0.2766
  340MOL0     C44788   7.912  10.803   6.728 -0.0893  0.2323  0.1441
  340MOL0     C44789   8.050  10.859   6.683 -0.0778  0.5452 -0.2326
  340MOL0     C44790   8.137  10.756   6.599  0.0234  0.1004  0.2664
  340MOL0     C44791   8.282  10.803   6.579 -0.1627  0.3172  1.0337
  340MOL0    Cl44792   8.384  10.671   6.518 -0.0083  0.1857  0.5102
  340MOL0     C44793   7.314  10.723   7.114  0.8949  0.4483  0.2552
  340MOL0     C44794   7.183  10.685   7.121  0.5253 -0.3047  0.6300
  340MOL0     O44795   6.892  10.908   7.200  0.5559  0.4389 -0.3511
  340MOL0     C44796   6.675  10.644   7.100  0.2046 -0.1935 -0.2403
  340MOL0     C44797   6.541  10.613   7.086 -1.1856  0.8706 -0.3701
  340MOL0     N44798   6.504  10.297   7.227  0.5829 -0.1569 -0.2162
  340MOL0     N44799   6.561  10.241   7.325  0.0755 -0.6444 -1.2337
  340MOL0     C44800   7.419  10.458   6.927  1.1898  0.2203 -0.1060
  340MOL0     C44801   7.464  10.566   6.848  0.5631  0.3233 -1.3058
  340MOL0     C44802   7.426  10.907   6.555 -0.1019  0.1199 -0.0528
  340MOL0     C44803   7.383  11.012   6.486  0.1042  0.2612  0.0804
  340MOL0     C44804   7.470  11.081   6.394  0.2633 -0.2307  0.0312
  340MOL0     C44805   7.601  11.044   6.366  0.3429 -0.3734 -0.3494
  340MOL0     O44806   7.693  11.114   6.285  0.7281 -0.7997  0.2438
  340MOL0     C44807   7.643  11.212   6.186  0.0097 -0.1392  0.2705
  340MOL0     C44808   7.624  11.350   6.246 -0.1591 -0.9446 -0.3648
  340MOL0     C44809   7.535  11.445   6.155 -0.5479  1.0637 -0.1520
  340MOL0     C44810   7.615  11.506   6.043  0.0218  0.1587 -0.4632
  340MOL0     C44811   7.530  11.610   5.977  1.3620 -1.1706  0.1375
  340MOL0     C44812   7.454  11.698   5.932 -0.4270 -0.7068 -0.1627
  340MOL0     C44813   7.646  10.934   6.438 -0.0764  0.3252 -0.5849
  340MOL0     C44814   7.559  10.862   6.527 -0.4461 -0.3899 -0.5701
  340MOL0     H44815   7.160  10.636   6.704 -0.3827  0.2534 -0.6620
  340MOL0     H44816   7.081  10.434   6.838  0.1426 -0.7183 -0.9217
  340MOL0     H44817   7.159  10.155   6.909  0.1992 -1.2263  0.3799
  340MOL0     H44818   7.055  10.267   6.996 -0.0934 -0.1995 -3.5741
  340MOL0     H44819   7.173  10.200   7.211 -0.3042 -1.2220  1.7594
  340MOL0     H44820   7.226  10.051   7.116 -0.3886 -0.0331 -1.5336
  340MOL0     H44821   6.965  10.030   7.072 -3.2182  2.4701  1.4022
  340MOL0     H44822   6.951  10.150   7.200 -1.0995  1.4795  0.1289
  340MOL0     H44823   7.077   9.876   7.221  2.7539  1.5177  2.3855
  340MOL0     H44824   7.053   9.980   7.361 -3.0294 -0.9045  1.0268
  340MOL0     H44825   6.897   9.796   7.328  3.6983  1.3445  0.0262
  340MOL0     H44826   6.830   9.866   7.184 -0.2997  0.5467  1.6452
  340MOL0     H44827   6.767  10.074   7.296 -2.9536 -2.5295 -3.3115
  340MOL0     H44828   6.818  10.013   7.456  1.8701  0.4672 -1.7703
  340MOL0     H44829   6.607   9.896   7.259 -1.6436 -0.8249  0.4400
  340MOL0     H44830   6.651   9.831   7.423  2.2855  1.2103  2.0313
  340MOL0     H44831   6.596  10.052   7.515 -1.4275 -1.8538  0.2612
  340MOL0     H44832   6.460   9.948   7.474 -1.5006 -0.9296 -1.7169
  340MOL0     H44833   6.314  10.037   7.277  1.1815 -0.3360 -3.4745
  340MOL0     H44834   6.246  10.175   7.054 -1.6097  1.8303 -2.4254
  340MOL0     H44835   6.339  10.320   7.000  0.4524  0.0396 -0.2580
  340MOL0     H44836   6.120  10.301   7.221  1.8789 -1.8123 -0.0241
  340MOL0     H44837   6.112  10.349   7.047 -0.5638 -2.5213 -0.0188
  340MOL0     H44838   6.121  10.544   7.204  0.6291  2.3089 -1.5187
  340MOL0     H44839   6.279  10.477   7.251  0.8055  1.2693  0.6191
  340MOL0     H44840   6.161  10.607   6.995 -0.0584 -1.8463  0.5229
  340MOL0     H44841   6.320  10.528   6.980 -0.6269  1.8796 -1.9074
  340MOL0     H44842   6.410  10.903   7.186 -1.8498 -1.4063 -1.0486
  340MOL0     H44843   6.658  10.961   7.214  0.7805 -0.5792  2.6174
  340MOL0     H44844   7.036  10.945   6.940  2.0612  4.5307 -0.2432
  340MOL0     H44845   7.268  11.020   6.947  2.8496 -2.2038 -1.2618
  340MOL0     H44846   7.486  11.077   7.085 -1.5428 -0.7043  0.1054
  340MOL0     H44847   7.467  11.035   6.909 -0.3799 -1.7325 -0.4000
  340MOL0     H44848   7.702  10.959   7.066 -1.7256  0.9009  0.1211
  340MOL0     H44849   7.682  11.096   6.943  0.4867 -0.3119 -5.8020
  340MOL0     H44850   7.654  10.954   6.766  1.2078 -1.7848 -1.4449
  340MOL0     H44851   7.652  10.807   6.870  0.6770 -1.4564 -1.8458
  340MOL0     H44852   7.896  10.987   6.831 -0.6514  2.1840  1.4187
  340MOL0     H44853   7.874  10.842   6.930 -0.2135  0.7874 -0.2926
  340MOL0     H44854   7.843  10.780   6.646  0.8031  2.0320 -1.1746
  340MOL0     H44855   7.935  10.710   6.781  2.1060  0.7188  0.1129
  340MOL0     H44856   8.105  10.871   6.776  0.8123  0.8556 -0.7894
  340MOL0     H44857   8.040  10.955   6.631  1.1063  0.3012 -0.9523
  340MOL0     H44858   8.133  10.658   6.647 -0.5032  1.3505  2.9732
  340MOL0     H44859   8.092  10.742   6.501 -0.2921 -0.6429  0.5082
  340MOL0     H44860   8.320  10.854   6.667  1.4451  2.9026 -1.0163
  340MOL0     H44861   8.278  10.864   6.488  0.6295 -0.1350  0.6803
  340MOL0     H44862   7.391  10.663   7.163  2.1243  1.0556 -0.8905
  340MOL0     H44863   7.156  10.595   7.176  0.2548  1.0927  2.9068
  340MOL0     H44864   6.755  10.575   7.077 -0.4507 -0.7417 -0.9496
  340MOL0     H44865   6.512  10.515   7.050 -0.3509  0.9756 -1.3980
  340MOL0     H44866   7.496  10.417   6.992 -2.3510 -2.1035  3.0802
  340MOL0     H44867   7.562  10.610   6.860  0.1523  0.4530  2.7598
  340MOL0     H44868   7.278  11.036   6.491 -0.1429 -0.8883  0.4982
  340MOL0     H44869   7.429  11.162   6.335 -0.1262 -0.4043  0.0574
  340MOL0     H44870   7.556  11.173   6.131 -0.7204  0.5152  0.9374
  340MOL0     H44871   7.719  11.215   6.107  0.6437 -5.3197  0.3115
  340MOL0     H44872   7.574  11.343   6.343 -0.9875 -2.7942 -0.8886
  340MOL0     H44873   7.728  11.383   6.261  0.1034  0.1063 -3.7302
  340MOL0     H44874   7.499  11.526   6.218  1.2409  3.3789 -1.9382
  340MOL0     H44875   7.454  11.393   6.102 -0.1945  1.0780 -0.7136
  340MOL0     H44876   7.705  11.558   6.077 -0.0149 -1.5463  2.6723
  340MOL0     H44877   7.645  11.424   5.977 -0.3483  0.3522 -0.8733
  340MOL0     H44878   7.389  11.771   5.888  0.4335  0.1346 -0.0863
  340MOL0     H44879   7.748  10.899   6.425  0.4721  2.0247 -1.0728
  340MOL0     H44880   7.592  10.770   6.574 -2.6222 -1.2248 -0.5649
  341MOL0     O44881   4.428   8.303   3.113  0.7150  0.1071 -0.3942
  341MOL0     C44882   4.504   8.282   3.019 -0.5155 -0.0441 -0.2287
  341MOL0     O44883   4.467   8.278   2.877 -0.0000 -0.8925 -0.6927
  341MOL0     C44884   4.350   8.336   2.855 -0.1675 -0.3125  1.0267
  341MOL0     C44885   4.337   8.473   2.842 -0.6338  0.0390 -0.2506
  341MOL0     C44886   4.210   8.534   2.822  0.4900  0.3641 -0.4485
  341MOL0     C44887   4.104   8.455   2.792  0.4743  0.2259  0.1939
  341MOL0     O44888   3.986   8.519   2.759  0.7619 -0.4959  0.0436
  341MOL0     C44889   3.868   8.507   2.847 -1.2940  0.1993 -0.4192
  341MOL0     C44890   3.869   8.606   2.965 -0.3020 -0.3908  1.3785
  341MOL0     C44891   3.727   8.611   3.033 -0.2667  0.2044  0.3566
  341MOL0     C44892   3.727   8.690   3.162  0.5534 -0.1461 -0.2289
  341MOL0     C44893   3.582   8.680   3.220  0.5661  0.7551 -0.7854
  341MOL0     C44894   3.585   8.742   3.358  0.1617  0.1352 -0.1631
  341MOL0     C44895   3.654   8.647   3.458  0.3962 -0.9579  0.4999
  341MOL0     C44896   3.637   8.714   3.598 -0.4728 -0.0360 -0.6712
  341MOL0     N44897   3.720   8.833   3.609 -0.0835  0.2973  0.6242
  341MOL0     C44898   3.851   8.841   3.576  0.1996  0.4762  0.8572
  341MOL0     C44899   3.877   8.979   3.584  0.4907  0.2947  0.3435
  341MOL0     C44900   4.002   9.051   3.556  0.2975  0.5364 -0.1933
  341MOL0     C44901   3.985   9.179   3.469 -0.6642 -0.0865  0.4836
  341MOL0     C44902   4.114   9.237   3.415  0.2198 -0.4033  0.1833
  341MOL0     C44903   4.085   9.370   3.346  1.1065 -0.3873  0.7440
  341MOL0     O44904   4.021   9.345   3.213 -0.0823 -0.0813 -0.3992
  341MOL0     C44905   3.954   9.437   3.140 -0.3862 -0.1267 -0.3361
  341MOL0     C44906   3.896   9.404   3.020  0.2920 -0.4145 -0.0189
  341MOL0     C44907   3.811   9.489   2.950 -0.3492 -0.1531  0.7562
  341MOL0     C44908   3.795   9.622   2.992  0.5471  0.5009  0.8898
  341MOL0     C44909   3.720   9.714   2.897  0.3800 -1.0156  0.3887
  341MOL0     O44910   3.652   9.657   2.799 -0.0469  0.1619  0.2005
  341MOL0     C44911   3.573   9.735   2.722  0.7337  0.6249  0.2684
  341MOL0     C44912   3.625   9.814   2.626  0.2547  0.7855 -1.1759
  341MOL0     C44913   3.542   9.891   2.549  0.1511  0.2461 -0.2954
  341MOL0     C44914   3.401   9.886   2.564  0.3022  0.1898 -0.0420
  341MOL0     O44915   3.308   9.942   2.482  0.1790  0.4752 -0.2727
  341MOL0     C44916   3.345  10.031   2.381 -0.7214  0.5359 -0.0917
  341MOL0     C44917   3.216  10.065   2.305  0.1791 -0.5708  0.5503
  341MOL0     C44918   3.151   9.951   2.229  0.4327 -0.4613 -0.8268
  341MOL0     C44919   2.999   9.974   2.205 -0.3672  0.4419  0.1215
  341MOL0     C44920   2.940   9.851   2.142 -0.9459  0.2642 -0.0524
  341MOL0     C44921   2.800   9.868   2.096 -0.3793  0.7847  0.4441
  341MOL0     C44922   2.776   9.966   1.980  0.0968 -0.2708  0.1576
  341MOL0     C44923   2.661   9.919   1.894  0.6323  0.4110  0.2951
  341MOL0    Cl44924   2.592  10.054   1.792  0.9180  0.0764  0.0310
  341MOL0     C44925   3.347   9.822   2.668 -0.1699 -0.7545  1.0418
  341MOL0     C44926   3.437   9.740   2.750 -0.2147 -0.3516  0.5640
  341MOL0     O44927   3.739   9.836   2.907 -0.1423 -0.2903 -0.4468
  341MOL0     C44928   3.849   9.660   3.113  0.3399 -0.7818 -1.4453
  341MOL0     C44929   3.933   9.572   3.176  0.3868 -0.1984  0.3123
  341MOL0     N44930   3.763   9.051   3.620  0.8757  0.2631  0.6587
  341MOL0     N44931   3.665   8.959   3.636 -0.2825 -0.6766  0.6842
  341MOL0     C44932   4.125   8.318   2.789  0.0948  0.3956 -0.1637
  341MOL0     C44933   4.244   8.254   2.826 -0.0389 -0.2268  0.4027
  341MOL0     C44934   4.649   8.252   3.058 -0.2133 -0.2494  0.5509
  341MOL0     C44935   4.671   8.204   3.189 -0.2043 -0.5471 -0.0586
  341MOL0     C44936   4.802   8.182   3.233  0.0279 -1.1870 -0.3335
  341MOL0     C44937   4.908   8.209   3.146 -1.3092 -0.0147  0.1157
  341MOL0     O44938   5.040   8.185   3.192 -0.3764 -0.9397 -0.2110
  341MOL0     C44939   5.127   8.112   3.106  0.2263 -0.5358 -0.2226
  341MOL0     C44940   5.109   7.956   3.117  0.3382 -0.0218  0.4354
  341MOL0     C44941   5.237   7.899   3.046 -0.3937  0.9185  0.8155
  341MOL0     C44942   5.359   7.913   3.130 -0.7526 -0.0494 -0.1537
  341MOL0     C44943   5.460   7.807   3.115  0.4419  0.0163 -0.1680
  341MOL0     C44944   5.545   7.738   3.062 -0.0665 -0.4403 -0.5177
  341MOL0     C44945   4.885   8.253   3.019 -0.6368  0.5013  1.1707
  341MOL0     C44946   4.757   8.279   2.964  1.0770  0.2791 -0.7603
  341MOL0     H44947   4.424   8.538   2.849  1.3915 -2.1755 -2.8860
  341MOL0     H44948   4.189   8.641   2.823 -0.5350  0.1732 -0.0404
  341MOL0     H44949   3.867   8.408   2.894  0.9729  0.2525 -0.1160
  341MOL0     H44950   3.776   8.528   2.792 -1.3922  0.0903 -0.2991
  341MOL0     H44951   3.889   8.708   2.932 -1.8738 -0.8176 -1.1373
  341MOL0     H44952   3.948   8.579   3.037 -2.3886 -1.3325  3.4566
  341MOL0     H44953   3.704   8.505   3.048 -1.5655  0.1089 -1.9430
  341MOL0     H44954   3.658   8.661   2.964 -1.2004  2.0466  2.4928
  341MOL0     H44955   3.798   8.649   3.235  1.3390  1.7666  0.1309
  341MOL0     H44956   3.754   8.794   3.140  4.1043 -0.7626  0.6280
  341MOL0     H44957   3.557   8.575   3.234 -3.0674  1.4801 -0.8775
  341MOL0     H44958   3.508   8.725   3.154  0.1153 -0.0337 -0.8251
  341MOL0     H44959   3.481   8.749   3.391 -0.3113 -0.9161 -1.3225
  341MOL0     H44960   3.624   8.844   3.349 -2.0475  1.0769  0.2701
  341MOL0     H44961   3.596   8.554   3.459 -1.7590  0.2546 -1.1812
  341MOL0     H44962   3.756   8.620   3.429  0.1003 -1.1836 -0.3703
  341MOL0     H44963   3.680   8.636   3.662 -0.3116 -1.8243 -2.8519
  341MOL0     H44964   3.529   8.725   3.610 -0.2138  0.8917  1.1849
  341MOL0     H44965   3.923   8.762   3.559 -1.2573 -0.1496 -3.9416
  341MOL0     H44966   4.045   8.982   3.482 -1.2932  1.2599 -1.8796
  341MOL0     H44967   4.062   9.068   3.645  0.1021  2.6137 -0.3995
  341MOL0     H44968   3.921   9.249   3.524 -1.8871 -0.4908 -0.3896
  341MOL0     H44969   3.917   9.159   3.386 -0.3202  2.0037 -0.3764
  341MOL0     H44970   4.182   9.253   3.499 -2.5392 -0.1576  2.5181
  341MOL0     H44971   4.154   9.167   3.341  0.9188 -3.1286  2.9137
  341MOL0     H44972   4.177   9.417   3.310  1.8527 -1.2980  1.4235
  341MOL0     H44973   4.025   9.439   3.406 -0.1169 -2.6416  2.2364
  341MOL0     H44974   3.901   9.299   2.991 -5.7511 -0.6881 -1.2881
  341MOL0     H44975   3.769   9.461   2.854 -2.7948 -2.5887  2.3758
  341MOL0     H44976   3.732   9.805   2.608  0.4592  1.0407 -0.1060
  341MOL0     H44977   3.592   9.956   2.477  0.6701 -1.6101 -1.6937
  341MOL0     H44978   3.420   9.986   2.314 -0.3715 -0.8304  1.1577
  341MOL0     H44979   3.386  10.124   2.422  2.6770 -1.9447  2.7508
  341MOL0     H44980   3.225  10.148   2.233  3.5091 -0.1062  1.3105
  341MOL0     H44981   3.155  10.113   2.382  1.2967  0.1788  1.0031
  341MOL0     H44982   3.152   9.866   2.297  0.4143  1.3625  1.6042
  341MOL0     H44983   3.200   9.924   2.134  1.5166  0.7896 -0.6612
  341MOL0     H44984   2.941   9.995   2.296  0.3163  2.6731  0.1038
  341MOL0     H44985   2.979  10.051   2.130 -3.3261 -2.6984 -2.6084
  341MOL0     H44986   2.929   9.775   2.220 -0.1326  0.8582  0.6567
  341MOL0     H44987   3.007   9.823   2.060  1.0623  2.7856  0.5841
  341MOL0     H44988   2.732   9.888   2.179  0.3998  4.0841  0.4523
  341MOL0     H44989   2.793   9.771   2.047  2.7117  1.1694 -1.0296
  341MOL0     H44990   2.760  10.069   2.014  0.6511  2.0136 -5.5023
  341MOL0     H44991   2.860   9.972   1.910 -3.0249  1.7522 -3.8459
  341MOL0     H44992   2.575   9.873   1.943 -1.4978 -0.3919 -3.7652
  341MOL0     H44993   2.695   9.842   1.824 -0.7472 -1.0584  1.1941
  341MOL0     H44994   3.247   9.840   2.705 -0.4800 -2.9471  1.3946
  341MOL0     H44995   3.403   9.663   2.819  4.4298 -0.6143  3.0277
  341MOL0     H44996   3.850   9.766   3.136  0.9827 -0.1244 -4.1844
  341MOL0     H44997   3.973   9.604   3.272 -2.3616  1.2714  1.0890
  341MOL0     H44998   4.039   8.252   2.787  0.8329 -0.6419  1.0059
  341MOL0     H44999   4.256   8.146   2.834 -0.0375 -0.1774  1.2286
  341MOL0     H45000   4.588   8.181   3.254 -0.4505 -1.6791 -0.7452
  341MOL0     H45001   4.819   8.155   3.337  3.1526 -2.1881 -1.0013
  341MOL0     H45002   5.223   8.159   3.128  1.7028 -2.2740 -2.4352
  341MOL0     H45003   5.107   8.148   3.005  3.2590  2.9330  0.1981
  341MOL0     H45004   5.083   7.921   3.218 -2.6519 -0.7801 -0.5043
  341MOL0     H45005   5.020   7.932   3.058 -0.5941 -0.3351  1.9192
  341MOL0     H45006   5.264   7.940   2.948 -0.2883  2.2966  1.4003
  341MOL0     H45007   5.214   7.793   3.036 -2.0887  1.2650  0.7995
  341MOL0     H45008   5.409   8.008   3.115  0.3767 -0.5447  0.3800
  341MOL0     H45009   5.332   7.924   3.236 -0.7900 -1.1957 -0.0321
  341MOL0     H45010   5.628   7.679   3.031 -0.4501 -1.5674  0.4723
  341MOL0     H45011   4.968   8.292   2.961 -2.0924 -0.5660 -1.8498
  341MOL0     H45012   4.733   8.329   2.871 -1.2279 -0.4328 -0.6010
  342MOL0     O45013   0.427   0.889  11.315  0.2465 -0.2880  0.5047
  342MOL0     C45014   0.497   0.876  11.217 -0.6769 -0.8919 -0.1863
  342MOL0     O45015   0.533   0.762  11.164  0.2420  0.4350  0.1975
  342MOL0     C45016   0.459   0.655  11.211 -0.3134  1.2306  1.6485
  342MOL0     C45017   0.362   0.610  11.121 -0.2012  0.5884  0.6502
  342MOL0     C45018   0.266   0.516  11.146 -0.7286  0.0376 -0.2249
  342MOL0     C45019   0.279   0.444  11.268  0.0237 -0.7749  0.0726
  342MOL0     O45020   0.179   0.348  11.278 -0.1314  0.1791  0.5826
  342MOL0     C45021   0.157   0.266  11.399  0.9819 -0.3046 -0.3626
  342MOL0     C45022   0.068   0.150  11.362 -0.2879 -0.2420  0.3642
  342MOL0     C45023  -0.082   0.193  11.334 -0.1404 -0.3772 -0.2977
  342MOL0     C45024  -0.174   0.072  11.325 -0.5080 -1.0198 -1.2016
  342MOL0     C45025  -0.141  -0.035  11.218  0.1254 -0.4983  0.9618
  342MOL0     C45026  -0.246  -0.144  11.212  0.1781  0.3726  0.0841
  342MOL0     C45027  -0.214  -0.224  11.088 -0.2009  0.0342  0.2812
  342MOL0     C45028  -0.296  -0.352  11.066 -0.3458  0.7662 -0.5783
  342MOL0     N45029  -0.428  -0.340  11.003 -0.1406 -0.1864 -0.2213
  342MOL0     C45030  -0.507  -0.445  10.989  1.8477 -0.6522 -0.1674
  342MOL0     C45031  -0.612  -0.393  10.932 -0.2207 -0.4767  0.8386
  342MOL0     C45032  -0.722  -0.478  10.866  0.4085 -0.0813 -0.2199
  342MOL0     C45033  -0.660  -0.574  10.751 -0.4921 -0.0312 -0.6619
  342MOL0     C45034  -0.652  -0.502  10.621  0.6386  1.0708 -0.3884
  342MOL0     C45035  -0.778  -0.436  10.551  0.2464  1.3815  0.2403
  342MOL0     O45036  -0.890  -0.529  10.548 -0.3555 -0.8253  0.1589
  342MOL0     C45037  -0.881  -0.640  10.468 -0.1493 -0.0269 -0.2646
  342MOL0     C45038  -0.811  -0.668  10.349  0.0226 -0.1479 -0.0645
  342MOL0     C45039  -0.819  -0.801  10.290 -0.8094 -0.2837  0.7573
  342MOL0     C45040  -0.881  -0.906  10.346 -0.5741  0.4988  0.3825
  342MOL0     C45041  -0.873  -1.033  10.272 -0.4333 -0.8301  0.3540
  342MOL0     O45042  -0.847  -1.031  10.140 -0.0357  0.1941 -0.6515
  342MOL0     C45043  -0.852  -1.154  10.063  0.5657  0.1303 -0.3419
  342MOL0     C45044  -0.913  -1.275  10.105  0.1540  0.3004  0.0780
  342MOL0     C45045  -0.902  -1.391  10.025 -0.2280 -0.2913 -0.6029
  342MOL0     C45046  -0.832  -1.382   9.909  0.1089  0.3853 -0.2889
  342MOL0     O45047  -0.842  -1.486   9.832  0.2811  0.1044 -0.5737
  342MOL0     C45048  -0.738  -1.533   9.746  0.1116  1.5862 -0.6222
  342MOL0     C45049  -0.761  -1.677   9.698  1.0921 -1.0359  0.8812
  342MOL0     C45050  -0.643  -1.725   9.621 -0.5893 -0.0081 -0.9402
  342MOL0     C45051  -0.654  -1.869   9.564 -0.0643 -0.3435  0.1620
  342MOL0     C45052  -0.775  -1.889   9.471  0.3333 -0.2248  0.0560
  342MOL0     C45053  -0.763  -2.010   9.393  0.7219  0.0022  0.4065
  342MOL0     C45054  -0.751  -2.133   9.476 -0.4268  0.2236 -0.4723
  342MOL0     C45055  -0.740  -2.273   9.409  0.1800 -0.5693  0.7303
  342MOL0    Cl45056  -0.573  -2.293   9.334  0.5956 -0.2328  0.0655
  342MOL0     C45057  -0.772  -1.260   9.864  0.2252 -0.0086 -0.1549
  342MOL0     C45058  -0.781  -1.147   9.942  0.6416  0.2985 -0.1872
  342MOL0     O45059  -0.880  -1.131  10.347 -0.0352  0.6473 -0.5180
  342MOL0     C45060  -0.938  -0.880  10.472  0.4082 -0.1473  0.0101
  342MOL0     C45061  -0.941  -0.748  10.519  0.0802  0.4617 -0.3991
  342MOL0     N45062  -0.590  -0.259  10.896  0.1047  0.3014 -0.4134
  342MOL0     N45063  -0.478  -0.227  10.936 -0.6247 -0.3516 -0.5052
  342MOL0     C45064   0.379   0.482  11.356  0.4037  0.9789  0.8301
  342MOL0     C45065   0.468   0.583  11.330 -0.0938 -0.2538 -0.2792
  342MOL0     C45066   0.572   0.996  11.163  0.4500  0.2463 -0.0843
  342MOL0     C45067   0.549   1.131  11.201  0.3431 -0.1925 -0.5305
  342MOL0     C45068   0.625   1.235  11.139 -0.0577 -0.1429  0.1125
  342MOL0     C45069   0.711   1.224  11.034 -1.2492 -0.0173  0.6328
  342MOL0     O45070   0.768   1.338  10.983 -0.5860  0.0053  0.1244
  342MOL0     C45071   0.880   1.327  10.900  0.0065  0.5357 -0.0206
  342MOL0     C45072   0.945   1.478  10.885  0.1903  0.8878 -0.7313
  342MOL0     C45073   0.843   1.594  10.871 -1.2900 -0.2697 -0.6139
  342MOL0     C45074   0.731   1.571  10.763  0.2285 -0.8717  0.0634
  342MOL0     C45075   0.796   1.533  10.639 -0.1356  0.4015  0.4367
  342MOL0     C45076   0.843   1.509  10.528  0.2217 -0.8609 -0.9280
  342MOL0     C45077   0.734   1.093  10.988 -0.6739 -1.1719 -0.4475
  342MOL0     C45078   0.668   0.985  11.054 -0.3978 -0.3943  0.0126
  342MOL0     H45079   0.350   0.657  11.024  1.7789 -1.5860 -0.7656
  342MOL0     H45080   0.184   0.491  11.079 -0.6335  1.0064 -0.7220
  342MOL0     H45081   0.117   0.320  11.485  2.1820  0.6568 -0.3863
  342MOL0     H45082   0.251   0.226  11.438  0.7179 -0.6445 -0.0682
  342MOL0     H45083   0.073   0.069  11.436  0.3341 -0.1290  0.4431
  342MOL0     H45084   0.106   0.116  11.265 -0.1017 -0.5105  0.5285
  342MOL0     H45085  -0.091   0.238  11.235 -1.4787 -0.3700 -0.1807
  342MOL0     H45086  -0.116   0.258  11.415  1.4095  0.5099 -0.3098
  342MOL0     H45087  -0.172   0.021  11.421 -3.1525  3.5661  1.6939
  342MOL0     H45088  -0.276   0.108  11.309 -1.2135 -3.0108 -1.4831
  342MOL0     H45089  -0.049  -0.088  11.245 -0.0128 -1.6776 -0.6978
  342MOL0     H45090  -0.119   0.014  11.123  0.6859 -3.5664 -0.6167
  342MOL0     H45091  -0.340  -0.088  11.205  0.9896  1.7942  0.2243
  342MOL0     H45092  -0.244  -0.212  11.298  2.3699  1.1193  0.6869
  342MOL0     H45093  -0.216  -0.161  10.998  2.4712 -1.8408 -1.2124
  342MOL0     H45094  -0.112  -0.261  11.095 -0.7578 -1.7049 -0.4316
  342MOL0     H45095  -0.305  -0.396  11.166 -0.4372  1.2117 -0.3880
  342MOL0     H45096  -0.231  -0.424  11.016  4.2352  2.7126  2.0069
  342MOL0     H45097  -0.486  -0.545  11.027  2.1952 -0.7786 -0.6846
  342MOL0     H45098  -0.791  -0.407  10.820  1.1092  0.4069 -0.5273
  342MOL0     H45099  -0.789  -0.528  10.937 -0.2788  0.1815 -0.6784
  342MOL0     H45100  -0.723  -0.662  10.741  0.4318 -1.3711  3.3331
  342MOL0     H45101  -0.563  -0.623  10.768  0.1466  1.5525  0.5276
  342MOL0     H45102  -0.593  -0.411  10.630  0.1299  1.6795 -2.4859
  342MOL0     H45103  -0.603  -0.567  10.547 -0.4691  0.1113 -0.3192
  342MOL0     H45104  -0.766  -0.403  10.448  0.7380 -1.0920 -0.5673
  342MOL0     H45105  -0.796  -0.345  10.609 -1.2952  2.5726 -1.9770
  342MOL0     H45106  -0.752  -0.595  10.295  0.9941 -0.0628  1.0733
  342MOL0     H45107  -0.781  -0.811  10.189  1.7795 -0.9205  1.7117
  342MOL0     H45108  -0.962  -1.282  10.202  1.7950 -0.4518  0.8985
  342MOL0     H45109  -0.956  -1.480  10.055 -0.7514  0.5185  0.9460
  342MOL0     H45110  -0.638  -1.541   9.789 -0.5826  0.9111  0.9304
  342MOL0     H45111  -0.744  -1.462   9.662 -4.5680  2.4327  0.1768
  342MOL0     H45112  -0.855  -1.690   9.643  0.5538  2.1861  0.8607
  342MOL0     H45113  -0.775  -1.741   9.786  0.2541 -1.3003  0.5639
  342MOL0     H45114  -0.552  -1.716   9.681 -0.2590  3.8137 -1.7964
  342MOL0     H45115  -0.637  -1.671   9.526 -0.5382 -0.8482 -1.4313
  342MOL0     H45116  -0.560  -1.895   9.515 -0.0109 -4.5540  2.1001
  342MOL0     H45117  -0.678  -1.934   9.648  0.7303 -0.1748  0.5190
  342MOL0     H45118  -0.784  -1.797   9.413 -3.2966  0.4624  1.4235
  342MOL0     H45119  -0.875  -1.885   9.515 -1.1044 -0.7647 -2.9538
  342MOL0     H45120  -0.677  -2.006   9.325  0.9129  0.7780  0.6808
  342MOL0     H45121  -0.847  -2.009   9.323 -0.9080 -1.4687  2.2426
  342MOL0     H45122  -0.678  -2.127   9.557 -0.2226 -0.3778 -0.6043
  342MOL0     H45123  -0.840  -2.142   9.538  1.4744 -0.6094  2.3600
  342MOL0     H45124  -0.815  -2.291   9.332  2.4037 -0.1967 -1.6734
  342MOL0     H45125  -0.753  -2.350   9.486 -4.4890  0.7194  1.4914
  342MOL0     H45126  -0.722  -1.245   9.769 -0.4580 -2.4244 -0.9912
  342MOL0     H45127  -0.729  -1.055   9.914 -2.1076  1.6386 -1.2261
  342MOL0     H45128  -1.006  -0.954  10.514 -0.6005 -0.4437 -2.0173
  342MOL0     H45129  -0.989  -0.724  10.614  0.0879 -1.0518  0.0232
  342MOL0     H45130   0.397   0.418  11.442  1.2530  1.0405  0.7069
  342MOL0     H45131   0.541   0.615  11.403  0.0397  1.9366 -1.2991
  342MOL0     H45132   0.461   1.148  11.262  0.1364 -2.1070 -0.2249
  342MOL0     H45133   0.601   1.329  11.187 -2.5718 -1.4142  1.5585
  342MOL0     H45134   0.842   1.296  10.802 -0.7178 -0.4374  0.5464
  342MOL0     H45135   0.960   1.262  10.937 -0.2845 -0.7176 -1.5076
  342MOL0     H45136   1.007   1.492  10.974 -0.3640  1.4165 -0.4278
  342MOL0     H45137   1.013   1.471  10.800 -0.4256  2.2841 -1.3585
  342MOL0     H45138   0.893   1.688  10.848  1.2684 -1.6523 -1.0544
  342MOL0     H45139   0.797   1.613  10.969  1.4381  0.6401  0.5858
  342MOL0     H45140   0.662   1.487  10.777  0.9996 -1.8513 -1.5842
  342MOL0     H45141   0.667   1.658  10.747 -0.8300 -1.7781 -0.8567
  342MOL0     H45142   0.904   1.498  10.440  0.5941  0.1879 -0.8145
  342MOL0     H45143   0.800   1.084  10.902 -5.0499 -0.4705 -4.2612
  342MOL0     H45144   0.693   0.890  11.008 -1.7765 -0.2541 -1.1078
  343MOL0     O45145   0.334   5.185   2.507 -0.0847  0.4315 -0.5384
  343MOL0     C45146   0.397   5.108   2.430  0.6351 -0.5142  0.5934
  343MOL0     O45147   0.373   4.970   2.404 -0.2360  0.3281  0.5387
  343MOL0     C45148   0.290   4.896   2.490 -0.3484 -0.3924 -0.3330
  343MOL0     C45149   0.351   4.772   2.530 -0.4219  0.7873  0.5043
  343MOL0     C45150   0.281   4.684   2.616 -0.3227  0.4550  1.1585
  343MOL0     C45151   0.152   4.710   2.663 -0.4285 -0.0115 -0.5770
  343MOL0     O45152   0.088   4.617   2.747 -0.0694 -0.0317 -0.1461
  343MOL0     C45153  -0.049   4.582   2.722  0.1746 -0.3812 -0.5389
  343MOL0     C45154  -0.082   4.569   2.580 -0.7558 -0.7590  0.0598
  343MOL0     C45155  -0.020   4.451   2.501  0.9143  0.4541  0.9640
  343MOL0     C45156   0.003   4.321   2.577  0.4991  1.6297  0.1675
  343MOL0     C45157   0.020   4.195   2.487  0.1816  1.0394 -0.3661
  343MOL0     C45158  -0.083   4.156   2.390  0.1222  0.0460 -0.4373
  343MOL0     C45159  -0.058   4.006   2.357  0.7820 -0.4765 -0.1948
  343MOL0     C45160  -0.082   3.993   2.205 -0.0700 -0.1071  0.7342
  343MOL0     N45161   0.035   4.053   2.138  0.0639 -0.6345  0.7202
  343MOL0     C45162   0.160   4.015   2.131 -0.0059 -0.0853 -0.2652
  343MOL0     C45163   0.231   4.115   2.065 -0.6246  0.0882 -0.0698
  343MOL0     C45164   0.373   4.096   2.030 -0.1092 -0.3241 -0.0142
  343MOL0     C45165   0.396   4.089   1.876 -0.3975  0.9656 -0.0802
  343MOL0     C45166   0.543   4.105   1.836  0.0917 -0.1988 -0.6626
  343MOL0     C45167   0.580   4.114   1.689  0.3002 -0.0419 -0.1356
  343MOL0     O45168   0.517   4.231   1.651  0.6665  0.1281  0.0040
  343MOL0     C45169   0.525   4.271   1.522  0.3157  0.6407  0.7911
  343MOL0     C45170   0.433   4.370   1.481 -0.8215 -0.4396 -1.4270
  343MOL0     C45171   0.414   4.407   1.349 -0.7192 -0.7496 -0.4031
  343MOL0     C45172   0.501   4.363   1.248  1.4250 -0.3166  0.6994
  343MOL0     C45173   0.501   4.408   1.103  0.6491 -0.7335  0.2006
  343MOL0     O45174   0.600   4.370   1.015 -0.5204  0.1420  0.1942
  343MOL0     C45175   0.590   4.427   0.892 -0.2668 -0.1162 -0.6272
  343MOL0     C45176   0.480   4.413   0.804 -0.8771 -0.0181  1.1030
  343MOL0     C45177   0.487   4.485   0.672  0.1445  0.3041 -0.4010
  343MOL0     C45178   0.595   4.566   0.648  0.1108 -0.4206 -0.5673
  343MOL0     O45179   0.592   4.648   0.541 -0.6409  0.3214 -0.2444
  343MOL0     C45180   0.717   4.686   0.481  0.4513 -0.5664 -0.2537
  343MOL0     C45181   0.701   4.766   0.352 -0.9621 -0.4613 -0.1771
  343MOL0     C45182   0.825   4.764   0.264 -0.3615 -0.1732  0.2078
  343MOL0     C45183   0.804   4.812   0.119  0.0315 -0.5881  0.3528
  343MOL0     C45184   0.917   4.773   0.023  0.5502 -0.5835  0.4510
  343MOL0     C45185   0.929   4.857  -0.111  0.1968  0.2210  1.4212
  343MOL0     C45186   1.019   4.790  -0.219  0.4072  0.2311  0.4481
  343MOL0     C45187   0.939   4.670  -0.274 -1.0411 -0.2279  0.4664
  343MOL0    Cl45188   0.907   4.704  -0.455  0.5551  0.4147 -0.1905
  343MOL0     C45189   0.708   4.562   0.732  0.0225 -0.3893 -1.0338
  343MOL0     C45190   0.706   4.494   0.852 -0.9928  0.5888 -0.3052
  343MOL0     O45191   0.403   4.487   1.074 -0.4212  0.4187  0.4523
  343MOL0     C45192   0.592   4.269   1.284  0.7625  0.5067 -0.0563
  343MOL0     C45193   0.607   4.224   1.418 -0.1394 -0.5608  1.1829
  343MOL0     N45194   0.138   4.206   2.034  0.6023 -0.2321  0.4389
  343MOL0     N45195   0.026   4.175   2.075  0.5563 -0.2261 -0.3364
  343MOL0     C45196   0.084   4.825   2.609 -0.1039  0.1487 -0.8916
  343MOL0     C45197   0.150   4.918   2.523 -0.3419 -0.2241  0.2172
  343MOL0     C45198   0.500   5.171   2.343  0.2719  0.3613  2.3445
  343MOL0     C45199   0.522   5.306   2.344 -0.4010 -0.2240  0.3113
  343MOL0     C45200   0.636   5.358   2.270 -0.5898 -0.3844  0.4970
  343MOL0     C45201   0.714   5.286   2.179  0.7849  0.1304  0.3515
  343MOL0     O45202   0.810   5.348   2.101  0.8479 -0.0159  0.9804
  343MOL0     C45203   0.936   5.288   2.116 -0.7417  1.1465  0.7705
  343MOL0     C45204   1.015   5.328   1.987 -0.2582  1.3825  0.3670
  343MOL0     C45205   1.137   5.240   1.962 -0.9737 -1.1013 -0.1124
  343MOL0     C45206   1.252   5.257   2.063 -0.2561  0.9135  0.0275
  343MOL0     C45207   1.355   5.156   2.027 -0.7872 -0.2059  0.6815
  343MOL0     C45208   1.440   5.078   1.994  0.3956  0.4296  0.6084
  343MOL0     C45209   0.677   5.150   2.167  0.1339  0.0703 -0.3549
  343MOL0     C45210   0.578   5.090   2.248 -0.4070  0.1442 -0.3691
  343MOL0     H45211   0.451   4.748   2.496 -0.4416 -0.7171  1.4299
  343MOL0     H45212   0.330   4.590   2.643  0.9061  1.8201  4.2399
  343MOL0     H45213  -0.117   4.647   2.778 -1.4986 -1.0202 -1.7376
  343MOL0     H45214  -0.068   4.489   2.777  1.5416 -0.2820  0.1345
  343MOL0     H45215  -0.079   4.665   2.527 -2.3016  0.3232  1.8301
  343MOL0     H45216  -0.189   4.548   2.588 -0.9747  0.8477  2.4977
  343MOL0     H45217   0.075   4.477   2.454  0.9230  0.6712  1.1010
  343MOL0     H45218  -0.096   4.443   2.423 -0.3047  1.5657  2.0023
  343MOL0     H45219   0.092   4.330   2.641  1.3979 -0.0450 -0.7874
  343MOL0     H45220  -0.087   4.305   2.637  0.4645  1.8007  0.1594
  343MOL0     H45221   0.031   4.110   2.554  3.0180  4.7621  4.6260
  343MOL0     H45222   0.118   4.201   2.438 -0.4554 -1.7052 -2.1720
  343MOL0     H45223  -0.086   4.233   2.312  1.4407  2.3746  1.6472
  343MOL0     H45224  -0.177   4.162   2.445 -0.4704  0.8496 -1.4873
  343MOL0     H45225   0.046   3.976   2.366  0.5163 -1.0401  1.2688
  343MOL0     H45226  -0.115   3.946   2.429  0.3923  0.7493  0.5533
  343MOL0     H45227  -0.171   4.052   2.185  0.7979  1.6155  1.7420
  343MOL0     H45228  -0.090   3.889   2.171  0.0145  0.2650 -0.4467
  343MOL0     H45229   0.199   3.921   2.168  0.2339  0.0601 -0.1454
  343MOL0     H45230   0.420   4.009   2.078  2.8225  0.5424 -1.0916
  343MOL0     H45231   0.429   4.183   2.067  1.8165 -0.4799 -2.3552
  343MOL0     H45232   0.338   4.167   1.824 -0.5869 -0.9394 -2.9398
  343MOL0     H45233   0.368   3.991   1.837 -1.8342  1.3603 -0.1011
  343MOL0     H45234   0.591   4.192   1.882 -1.3914 -0.2757  1.1462
  343MOL0     H45235   0.591   4.014   1.871 -3.5524 -2.0694 -0.0704
  343MOL0     H45236   0.539   4.024   1.642  2.0615  0.2313 -2.3380
  343MOL0     H45237   0.689   4.119   1.680  0.1994 -0.2415 -1.6873
  343MOL0     H45238   0.364   4.410   1.555 -1.3961  1.6714 -3.0111
  343MOL0     H45239   0.333   4.477   1.339 -1.2905 -1.0846  1.5301
  343MOL0     H45240   0.397   4.352   0.837 -0.9527  0.1991  1.3169
  343MOL0     H45241   0.404   4.475   0.603 -2.5841  0.9646  2.5211
  343MOL0     H45242   0.785   4.606   0.452 -0.4161 -1.2974 -0.3219
  343MOL0     H45243   0.762   4.761   0.547  1.6091  0.0321 -1.6705
  343MOL0     H45244   0.686   4.871   0.380 -4.0369 -0.7964 -0.2840
  343MOL0     H45245   0.611   4.733   0.300 -1.3376 -2.9860  1.9090
  343MOL0     H45246   0.863   4.662   0.252  0.8950  0.5953 -3.9345
  343MOL0     H45247   0.906   4.824   0.307  1.0598 -0.8792 -1.3581
  343MOL0     H45248   0.707   4.774   0.085  0.3680 -0.4658 -0.7521
  343MOL0     H45249   0.804   4.921   0.129 -1.9053 -0.5028 -0.1927
  343MOL0     H45250   0.906   4.667  -0.003  0.6065  0.2966 -3.7896
  343MOL0     H45251   1.012   4.785   0.075  0.8810  0.3103 -0.3418
  343MOL0     H45252   0.967   4.958  -0.092  2.1534 -0.3435  0.7745
  343MOL0     H45253   0.827   4.861  -0.150  0.2045 -2.2450  0.9888
  343MOL0     H45254   1.068   4.857  -0.290  2.6030 -1.3246  0.3773
  343MOL0     H45255   1.104   4.757  -0.159  1.1743  0.6822 -0.3751
  343MOL0     H45256   0.850   4.652  -0.213 -1.4145 -0.1461 -0.0487
  343MOL0     H45257   1.004   4.582  -0.272  1.4619  1.4977 -0.5774
  343MOL0     H45258   0.801   4.617   0.720 -0.0913 -0.2666 -1.3508
  343MOL0     H45259   0.793   4.493   0.916 -0.8434  1.1932 -0.4854
  343MOL0     H45260   0.661   4.228   1.211  0.1409 -1.2123  0.2656
  343MOL0     H45261   0.668   4.135   1.432  0.0261 -0.7860 -0.6721
  343MOL0     H45262  -0.016   4.848   2.646 -0.1690 -1.1377 -0.2022
  343MOL0     H45263   0.100   5.003   2.479  2.0616  0.5550 -1.2229
  343MOL0     H45264   0.464   5.375   2.404 -2.5952 -1.1832 -0.5650
  343MOL0     H45265   0.664   5.459   2.295 -0.0185 -1.2135  3.6355
  343MOL0     H45266   0.944   5.179   2.109  1.0996  1.2611  0.5737
  343MOL0     H45267   0.995   5.312   2.205  1.4826  3.1385 -1.1246
  343MOL0     H45268   0.946   5.331   1.903  1.5465  1.7457 -1.1811
  343MOL0     H45269   1.043   5.433   2.003  0.1336  1.4404 -0.6152
  343MOL0     H45270   1.171   5.269   1.862  3.2632  0.1491  1.4695
  343MOL0     H45271   1.102   5.136   1.955 -0.2474 -1.3346 -0.3846
  343MOL0     H45272   1.292   5.359   2.052 -1.9360  1.3268 -3.7714
  343MOL0     H45273   1.216   5.259   2.166  0.1285  0.9756  0.1633
  343MOL0     H45274   1.507   4.998   1.969  2.4209  2.2854 -0.2577
  343MOL0     H45275   0.727   5.085   2.095  0.2789 -2.8481  2.1852
  343MOL0     H45276   0.542   4.987   2.240  1.8682 -0.7615  0.3416
  344MOL0     O45277   9.334   7.525   4.781  0.0517 -0.2335 -0.1502
  344MOL0     C45278   9.436   7.587   4.774 -1.4914  0.0876 -0.3733
  344MOL0     O45279   9.511   7.631   4.666 -0.2202 -0.3538  0.0832
  344MOL0     C45280   9.479   7.570   4.545  0.7528  0.7100  0.3229
  344MOL0     C45281   9.530   7.443   4.506  0.7241  0.3269 -0.0068
  344MOL0     C45282   9.492   7.380   4.379 -0.5394  0.5482  0.3847
  344MOL0     C45283   9.420   7.453   4.284 -0.4550  0.2052 -0.9381
  344MOL0     O45284   9.393   7.386   4.167  0.5340  0.6778 -0.7630
  344MOL0     C45285   9.261   7.417   4.110 -0.3135 -1.0333  0.2791
  344MOL0     C45286   9.223   7.298   4.011 -0.2524  0.5747 -0.4529
  344MOL0     C45287   9.252   7.354   3.869 -0.3854 -0.4056  0.0702
  344MOL0     C45288   9.399   7.393   3.844  0.0974  0.0390  0.2743
  344MOL0     C45289   9.451   7.335   3.706  0.3633 -0.1963 -0.1401
  344MOL0     C45290   9.595   7.287   3.711  1.1929  0.5601  0.4233
  344MOL0     C45291   9.658   7.256   3.569  0.9021  0.4564 -0.0550
  344MOL0     C45292   9.814   7.257   3.574  0.6931 -0.8350 -0.1499
  344MOL0     N45293   9.878   7.135   3.635 -0.6853  0.5880 -1.1664
  344MOL0     C45294   9.872   7.017   3.575 -0.6204 -0.5879 -0.1657
  344MOL0     C45295   9.962   6.935   3.641  0.8002  0.2574  0.6629
  344MOL0     C45296   9.989   6.792   3.644  0.3881  0.3692 -0.4031
  344MOL0     C45297  10.088   6.755   3.537 -1.0622  0.4471 -0.0299
  344MOL0     C45298  10.131   6.607   3.523 -0.4144  0.2305 -0.1608
  344MOL0     C45299  10.193   6.558   3.647 -0.5424  0.2752  0.3131
  344MOL0     O45300  10.241   6.425   3.612  0.7268  0.1514  0.9756
  344MOL0     C45301  10.275   6.343   3.709  0.7377  1.5185  0.4527
  344MOL0     C45302  10.241   6.352   3.848 -0.7145 -0.4938  0.0436
  344MOL0     C45303  10.299   6.249   3.933  0.2586 -0.9677 -1.0179
  344MOL0     C45304  10.367   6.142   3.889 -1.2075  0.1323  0.0388
  344MOL0     C45305  10.398   6.037   3.987 -0.1271  0.4825 -0.1704
  344MOL0     O45306  10.363   6.054   4.120 -0.1053  0.4851 -1.1148
  344MOL0     C45307  10.382   5.947   4.204 -0.4594 -0.1655 -0.5711
  344MOL0     C45308  10.511   5.890   4.226 -0.2231  0.0356 -0.5698
  344MOL0     C45309  10.530   5.780   4.304  0.0473  0.3054 -0.5278
  344MOL0     C45310  10.423   5.721   4.374 -0.3359 -0.9827  0.2683
  344MOL0     O45311  10.461   5.611   4.449 -0.1580 -0.2648  0.1352
  344MOL0     C45312  10.352   5.538   4.502 -0.0841 -0.0378  0.5285
  344MOL0     C45313  10.396   5.423   4.584 -0.3588 -0.2468 -0.0501
  344MOL0     C45314  10.495   5.460   4.696  0.8677  0.4429  0.1881
  344MOL0     C45315  10.510   5.344   4.795  0.5832  0.5278  0.0202
  344MOL0     C45316  10.567   5.213   4.743 -0.2585  0.3193  0.6177
  344MOL0     C45317  10.672   5.142   4.835  0.9668  0.3027  0.6884
  344MOL0     C45318  10.815   5.177   4.814  0.0852  1.9238 -0.3322
  344MOL0     C45319  10.879   5.109   4.932 -1.0227  0.0698 -0.3380
  344MOL0    Cl45320  11.053   5.135   4.935 -0.5590 -0.5004  0.0943
  344MOL0     C45321  10.293   5.777   4.352 -0.8983  0.8461 -0.0257
  344MOL0     C45322  10.276   5.882   4.261  0.7469 -0.5555 -0.7738
  344MOL0     O45323  10.448   5.933   3.934  0.0274 -0.3742  0.2742
  344MOL0     C45324  10.395   6.134   3.755 -0.0335 -0.8235 -1.3670
  344MOL0     C45325  10.349   6.227   3.669 -0.0475 -0.6874 -0.0713
  344MOL0     N45326  10.026   7.017   3.723 -0.3219 -0.6039 -0.6337
  344MOL0     N45327   9.983   7.136   3.719  0.3615 -0.2179  0.2270
  344MOL0     C45328   9.374   7.581   4.322 -0.4834 -0.2515 -0.2388
  344MOL0     C45329   9.395   7.633   4.449 -1.0760 -0.2214  0.0936
  344MOL0     C45330   9.511   7.616   4.903 -0.5393 -0.3989 -1.1021
  344MOL0     C45331   9.651   7.631   4.916 -0.4435 -0.0579 -0.5919
  344MOL0     C45332   9.708   7.650   5.041 -0.3507 -0.3408 -0.5573
  344MOL0     C45333   9.629   7.633   5.162  1.2621 -0.4651 -0.1977
  344MOL0     O45334   9.672   7.650   5.290  0.9884 -0.5083  0.3725
  344MOL0     C45335   9.803   7.704   5.305 -0.0608  0.1261  0.3877
  344MOL0     C45336   9.837   7.708   5.447  0.6190  0.3708 -0.2579
  344MOL0     C45337   9.846   7.563   5.501 -0.3194  0.8460  0.2211
  344MOL0     C45338   9.988   7.506   5.502  1.0314 -0.0852 -0.1911
  344MOL0     C45339  10.046   7.500   5.367 -1.5415 -0.3508  0.1868
  344MOL0     C45340  10.117   7.502   5.266 -0.3862  0.6069 -0.0200
  344MOL0     C45341   9.495   7.608   5.148  1.3542  0.7830  0.2247
  344MOL0     C45342   9.432   7.594   5.026  0.2764 -0.9472  0.9338
  344MOL0     H45343   9.586   7.384   4.578 -0.7036 -0.7410  0.2932
  344MOL0     H45344   9.518   7.279   4.348 -2.4909  0.0681  0.1805
  344MOL0     H45345   9.256   7.509   4.052 -2.8576 -1.7727 -0.8039
  344MOL0     H45346   9.179   7.406   4.180  0.2574 -1.8963  0.8266
  344MOL0     H45347   9.115   7.282   4.019 -0.5598  3.0361  1.6679
  344MOL0     H45348   9.279   7.211   4.046 -1.4136  0.6016  1.6303
  344MOL0     H45349   9.196   7.447   3.857  0.2871 -0.1509 -1.2516
  344MOL0     H45350   9.205   7.293   3.792  0.0976 -1.0144  0.2526
  344MOL0     H45351   9.387   7.501   3.836  3.5144  0.3660 -3.4363
  344MOL0     H45352   9.463   7.372   3.931 -0.6420  2.9311  1.6404
  344MOL0     H45353   9.443   7.407   3.624 -0.9367  0.1580  0.2669
  344MOL0     H45354   9.394   7.251   3.664  2.7116 -1.3169 -1.2992
  344MOL0     H45355   9.579   7.202   3.778  1.6463 -0.0543 -0.2408
  344MOL0     H45356   9.655   7.364   3.760  1.9824 -0.3149  0.8708
  344MOL0     H45357   9.632   7.157   3.531 -0.4682  1.3515 -1.5822
  344MOL0     H45358   9.626   7.322   3.487  1.3444 -0.2060 -0.7708
  344MOL0     H45359   9.856   7.346   3.622  1.0510 -1.3102  0.4330
  344MOL0     H45360   9.836   7.270   3.468 -2.9467  2.1252 -0.7705
  344MOL0     H45361   9.803   6.995   3.494 -2.1296  1.8854  0.3477
  344MOL0     H45362   9.892   6.742   3.637  1.4163 -2.1920  1.9411
  344MOL0     H45363  10.025   6.771   3.745 -0.4687 -3.0465 -0.7009
  344MOL0     H45364  10.173   6.823   3.545  0.1899 -1.0606 -0.0339
  344MOL0     H45365  10.039   6.782   3.443  0.6331 -2.2073 -1.8099
  344MOL0     H45366  10.048   6.536   3.518  1.6621 -2.3527  0.1730
  344MOL0     H45367  10.197   6.593   3.438  2.6924  1.3699  1.8737
  344MOL0     H45368  10.118   6.558   3.727 -1.0913 -0.5921 -0.1994
  344MOL0     H45369  10.274   6.627   3.675 -1.5781  0.3566  3.5888
  344MOL0     H45370  10.165   6.424   3.875  0.9434  1.3588  0.0070
  344MOL0     H45371  10.251   6.253   4.030  0.0788  1.7115 -1.1480
  344MOL0     H45372  10.594   5.936   4.173  0.7513  0.6905  1.4166
  344MOL0     H45373  10.629   5.735   4.311 -0.8168 -1.5328  0.7366
  344MOL0     H45374  10.287   5.513   4.418  0.7520 -0.9372  0.1213
  344MOL0     H45375  10.296   5.611   4.560 -1.7183  0.2370 -1.3085
  344MOL0     H45376  10.437   5.350   4.514  1.0645  0.3863  0.0942
  344MOL0     H45377  10.305   5.377   4.622  0.0697 -0.1562  1.1410
  344MOL0     H45378  10.437   5.537   4.749  0.1411  1.7765 -2.4118
  344MOL0     H45379  10.587   5.502   4.653  0.9357 -0.7422 -0.8779
  344MOL0     H45380  10.574   5.369   4.880  1.9844 -0.4746 -0.7038
  344MOL0     H45381  10.409   5.319   4.829  0.5907 -2.7278 -2.0240
  344MOL0     H45382  10.621   5.236   4.650  2.0204  1.1094  2.0573
  344MOL0     H45383  10.485   5.143   4.726  1.3796 -1.3873 -0.8654
  344MOL0     H45384  10.665   5.038   4.801 -0.0378  0.1816  1.2148
  344MOL0     H45385  10.638   5.139   4.939  2.3329  0.6439  1.1704
  344MOL0     H45386  10.844   5.138   4.716 -1.0819  0.2514 -0.0473
  344MOL0     H45387  10.829   5.285   4.809 -0.6667  2.1358  1.3664
  344MOL0     H45388  10.852   5.004   4.947 -1.7893  0.3481  0.3164
  344MOL0     H45389  10.842   5.161   5.021 -1.8818 -1.6696  0.3755
  344MOL0     H45390  10.202   5.740   4.399 -0.7386  2.2033  1.3944
  344MOL0     H45391  10.174   5.917   4.258  1.3933  1.5412  0.0126
  344MOL0     H45392  10.445   6.049   3.708  1.4498  1.6442 -4.6187
  344MOL0     H45393  10.364   6.215   3.562 -2.9419 -0.3632 -0.5909
  344MOL0     H45394   9.315   7.635   4.249  0.6960  3.1482  1.0984
  344MOL0     H45395   9.365   7.733   4.481  1.6345  0.6944  0.0874
  344MOL0     H45396   9.708   7.630   4.824  2.7780 -3.0512  1.1934
  344MOL0     H45397   9.814   7.675   5.041 -0.3916 -0.1625 -1.1200
  344MOL0     H45398   9.809   7.806   5.265  0.5488 -0.3935 -0.9079
  344MOL0     H45399   9.861   7.630   5.249  0.6870  1.2931 -0.4350
  344MOL0     H45400   9.933   7.758   5.465  0.6761 -0.2168  1.2042
  344MOL0     H45401   9.758   7.761   5.502  0.8773  1.3360 -0.7906
  344MOL0     H45402   9.793   7.486   5.445  1.0398  1.0993 -1.5195
  344MOL0     H45403   9.805   7.559   5.603  1.4805 -0.3947  0.9456
  344MOL0     H45404  10.054   7.563   5.568  2.1977 -1.9401  0.3267
  344MOL0     H45405   9.976   7.400   5.527  1.8709 -0.8199 -2.6073
  344MOL0     H45406  10.174   7.501   5.176 -2.0953 -0.7989 -1.1379
  344MOL0     H45407   9.438   7.603   5.240  0.5029 -3.6693 -0.3270
  344MOL0     H45408   9.327   7.567   5.028  0.6012 -2.7253 -1.3992
  345MOL0     O45409   6.161   5.540   0.733 -0.3738 -0.1602 -0.0280
  345MOL0     C45410   6.127   5.571   0.618  0.5049  0.2101 -0.6805
  345MOL0     O45411   6.035   5.504   0.543 -0.1474  0.1920  0.6487
  345MOL0     C45412   5.948   5.415   0.597  0.0358 -0.5686 -0.6359
  345MOL0     C45413   5.982   5.312   0.672  0.3035 -0.3187 -0.3841
  345MOL0     C45414   5.883   5.229   0.728  0.1166  0.3079  0.9258
  345MOL0     C45415   5.747   5.251   0.717 -1.0183  0.6778  0.0627
  345MOL0     O45416   5.662   5.163   0.773 -1.0413 -0.5196  0.0765
  345MOL0     C45417   5.529   5.198   0.786 -0.6934 -0.2340 -0.1488
  345MOL0     C45418   5.437   5.086   0.844 -0.6953  0.3040 -0.6317
  345MOL0     C45419   5.407   4.970   0.742 -0.6471 -0.3848  0.3556
  345MOL0     C45420   5.537   4.895   0.716 -0.1865  0.6384  0.3002
  345MOL0     C45421   5.528   4.803   0.593 -0.3917  0.6918 -0.4767
  345MOL0     C45422   5.534   4.854   0.454  0.8629 -0.9982  0.7368
  345MOL0     C45423   5.652   4.950   0.435 -0.3085 -0.4425  0.2826
  345MOL0     C45424   5.726   4.924   0.290  0.2258  0.0242 -1.5619
  345MOL0     N45425   5.629   4.929   0.181  0.0338  0.1625 -0.4935
  345MOL0     C45426   5.598   4.827   0.099  0.8950 -0.3193  0.1887
  345MOL0     C45427   5.517   4.881   0.006 -0.6221  0.5890  0.1605
  345MOL0     C45428   5.459   4.799  -0.103 -0.0577  0.8041  0.0122
  345MOL0     C45429   5.387   4.882  -0.215 -0.4464 -0.2468  0.0346
  345MOL0     C45430   5.326   4.792  -0.321  0.3142  0.2145 -0.1052
  345MOL0     C45431   5.182   4.753  -0.300 -0.2870  1.3796  0.2482
  345MOL0     O45432   5.189   4.634  -0.217 -0.2447  0.1440  0.0946
  345MOL0     C45433   5.077   4.555  -0.207 -0.2159  0.0885  0.7096
  345MOL0     C45434   5.090   4.459  -0.108  1.6344 -0.5350 -1.1652
  345MOL0     C45435   4.972   4.384  -0.065  0.0611 -0.7404 -0.1454
  345MOL0     C45436   4.852   4.391  -0.142 -0.2119  0.0394  0.1104
  345MOL0     C45437   4.731   4.307  -0.127 -0.2324  0.0457 -0.2451
  345MOL0     O45438   4.653   4.281  -0.231  1.1262 -0.0493  0.2090
  345MOL0     C45439   4.531   4.210  -0.228  0.1880 -0.4448 -0.8686
  345MOL0     C45440   4.443   4.207  -0.116  0.1580 -0.0402 -1.1069
  345MOL0     C45441   4.328   4.123  -0.118 -0.6167  0.9653 -0.0451
  345MOL0     C45442   4.291   4.047  -0.230 -1.4604  0.6482 -0.1673
  345MOL0     O45443   4.195   3.953  -0.211 -0.9995  0.0990 -0.3637
  345MOL0     C45444   4.249   3.824  -0.238 -0.0247  0.3229 -0.3875
  345MOL0     C45445   4.121   3.731  -0.247  0.5665  0.0946 -0.6648
  345MOL0     C45446   4.043   3.762  -0.369  0.2122 -0.8263  0.9997
  345MOL0     C45447   3.905   3.698  -0.361 -0.6995 -0.7048 -0.5640
  345MOL0     C45448   3.920   3.550  -0.361 -0.1743  0.7055  0.4675
  345MOL0     C45449   3.788   3.476  -0.335  0.7964  0.3271  0.0860
  345MOL0     C45450   3.757   3.441  -0.194  0.0695 -0.7920 -0.4407
  345MOL0     C45451   3.603   3.457  -0.175  0.4180 -0.0072 -1.1780
  345MOL0    Cl45452   3.565   3.435   0.008  0.1737  0.1837 -0.3983
  345MOL0     C45453   4.367   4.066  -0.353 -0.4787 -0.1492 -1.0245
  345MOL0     C45454   4.491   4.138  -0.346  1.3026  0.3428  0.3864
  345MOL0     O45455   4.717   4.259  -0.012  0.3303  0.1507  0.4439
  345MOL0     C45456   4.851   4.482  -0.250  1.6531  0.9370 -0.1151
  345MOL0     C45457   4.957   4.560  -0.275 -0.7103  0.3160 -0.1978
  345MOL0     N45458   5.480   5.003   0.055  0.8541 -0.1769 -0.4698
  345MOL0     N45459   5.553   5.034   0.151 -0.8396 -1.2545 -0.1341
  345MOL0     C45460   5.713   5.358   0.640  0.3138  0.9462  0.0305
  345MOL0     C45461   5.810   5.438   0.582  0.3200 -0.7379 -0.2891
  345MOL0     C45462   6.207   5.674   0.560  0.4035 -0.3375  0.1201
  345MOL0     C45463   6.187   5.693   0.423 -0.4181 -0.1818  0.2724
  345MOL0     C45464   6.268   5.775   0.349  0.3700  0.2262  0.0723
  345MOL0     C45465   6.364   5.851   0.416 -0.4489  0.1797  0.5474
  345MOL0     O45466   6.447   5.931   0.332  0.0801 -0.7288  0.1188
  345MOL0     C45467   6.556   6.010   0.384 -0.0320 -0.3083  0.2314
  345MOL0     C45468   6.490   6.140   0.441  0.3152  0.8685  0.8968
  345MOL0     C45469   6.586   6.222   0.532 -0.4622  0.5447  0.3410
  345MOL0     C45470   6.708   6.270   0.453 -0.3494  0.6151  0.9217
  345MOL0     C45471   6.793   6.373   0.523  0.1603 -0.2237  0.8023
  345MOL0     C45472   6.851   6.444   0.605 -0.0737 -0.2260  0.0262
  345MOL0     C45473   6.379   5.840   0.550  0.6805 -0.1520  0.0414
  345MOL0     C45474   6.302   5.755   0.628  0.3041 -0.0322 -0.8217
  345MOL0     H45475   6.087   5.285   0.683 -0.1537 -1.3697  2.0735
  345MOL0     H45476   5.912   5.141   0.786  0.6750 -0.3719 -0.3391
  345MOL0     H45477   5.495   5.235   0.689 -0.7739  2.8026  0.9181
  345MOL0     H45478   5.525   5.283   0.855 -3.2593 -0.1942 -0.2442
  345MOL0     H45479   5.339   5.121   0.878 -1.5676 -0.1774 -2.4823
  345MOL0     H45480   5.493   5.057   0.933  0.6592 -0.5394 -1.7282
  345MOL0     H45481   5.387   5.019   0.646  2.0376 -1.4223 -0.8472
  345MOL0     H45482   5.319   4.909   0.764 -2.6317  1.0700 -2.7412
  345MOL0     H45483   5.625   4.958   0.701  0.1220 -0.2176 -2.0228
  345MOL0     H45484   5.548   4.833   0.805 -0.7704  2.9976  2.1074
  345MOL0     H45485   5.427   4.759   0.594 -1.2531  2.6003 -0.1775
  345MOL0     H45486   5.605   4.726   0.606  0.5114  2.0373  4.3514
  345MOL0     H45487   5.442   4.911   0.433  1.7894  0.3090  0.0952
  345MOL0     H45488   5.551   4.774   0.381  1.0849  0.5087 -0.9240
  345MOL0     H45489   5.617   5.053   0.433  2.3079  0.5227 -0.6838
  345MOL0     H45490   5.729   4.940   0.511  0.5106  1.7422 -0.1864
  345MOL0     H45491   5.777   4.827   0.286  4.1131  1.8765 -5.9271
  345MOL0     H45492   5.807   4.997   0.279 -0.9416  2.1329  2.0516
  345MOL0     H45493   5.634   4.725   0.106 -1.2454 -1.1450 -0.2524
  345MOL0     H45494   5.388   4.727  -0.061 -0.9639  0.7487 -1.5257
  345MOL0     H45495   5.545   4.751  -0.150  0.7599  2.7451 -0.5582
  345MOL0     H45496   5.463   4.939  -0.269  1.2719  0.1116  2.6214
  345MOL0     H45497   5.316   4.954  -0.174 -0.9615  1.1408 -3.0548
  345MOL0     H45498   5.319   4.862  -0.405  2.1225  3.6966  2.3924
  345MOL0     H45499   5.379   4.699  -0.345  2.2463  1.4748 -0.9942
  345MOL0     H45500   5.127   4.733  -0.393 -5.2428  1.7468  2.7633
  345MOL0     H45501   5.132   4.833  -0.245 -0.3674 -0.2431  2.6946
  345MOL0     H45502   5.176   4.447  -0.043  0.3038  0.6302  0.8827
  345MOL0     H45503   4.978   4.317   0.020  0.8622 -2.1369 -1.2376
  345MOL0     H45504   4.457   4.273  -0.031 -0.6775  0.8090 -1.6084
  345MOL0     H45505   4.264   4.122  -0.031 -0.1907 -1.1970  0.2999
  345MOL0     H45506   4.316   3.799  -0.155 -1.9922 -1.5755  0.7531
  345MOL0     H45507   4.302   3.815  -0.333  2.1229  0.8254  0.7100
  345MOL0     H45508   4.050   3.748  -0.166 -0.2755  1.2232 -1.6006
  345MOL0     H45509   4.164   3.630  -0.249 -2.3003 -1.2340 -2.4451
  345MOL0     H45510   4.096   3.746  -0.464 -1.4155 -0.3265 -0.0403
  345MOL0     H45511   4.012   3.864  -0.345 -1.7963 -0.9454 -0.8019
  345MOL0     H45512   3.868   3.740  -0.267 -0.6333 -0.3906 -0.6801
  345MOL0     H45513   3.844   3.728  -0.446 -0.0520  0.0426 -0.7737
  345MOL0     H45514   3.979   3.517  -0.275 -2.0937  0.0709  1.6028
  345MOL0     H45515   3.959   3.516  -0.457 -3.9572 -0.4256 -0.8534
  345MOL0     H45516   3.786   3.375  -0.377 -0.2685 -0.4789  1.9389
  345MOL0     H45517   3.717   3.538  -0.390  0.3061  1.3089  1.7436
  345MOL0     H45518   3.785   3.337  -0.177 -1.1936 -0.9211  1.0761
  345MOL0     H45519   3.814   3.508  -0.130 -5.6819  4.2520  0.2641
  345MOL0     H45520   3.546   3.381  -0.231 -0.3176  0.3566 -0.9361
  345MOL0     H45521   3.564   3.553  -0.210  1.0310  0.8828  0.4825
  345MOL0     H45522   4.344   4.021  -0.448 -1.4763  1.7664 -1.7541
  345MOL0     H45523   4.542   4.165  -0.438  1.1300  3.9752  1.1845
  345MOL0     H45524   4.767   4.500  -0.315 -0.5569 -1.4293  1.8652
  345MOL0     H45525   4.955   4.636  -0.353  1.5466  6.4520  4.8498
  345MOL0     H45526   5.608   5.383   0.628  0.3632  0.9351 -0.4643
  345MOL0     H45527   5.793   5.531   0.528  0.2104 -1.1528 -0.9725
  345MOL0     H45528   6.122   5.631   0.363 -0.9033 -0.1110  0.7226
  345MOL0     H45529   6.242   5.780   0.244 -3.6045 -1.4390  0.7701
  345MOL0     H45530   6.622   6.033   0.300  0.5223 -3.4657 -0.3228
  345MOL0     H45531   6.620   5.958   0.456  2.2640 -0.7965 -2.0105
  345MOL0     H45532   6.463   6.203   0.356 -0.6023 -0.9932 -0.2580
  345MOL0     H45533   6.396   6.119   0.494 -2.5674  2.2933 -3.1107
  345MOL0     H45534   6.615   6.158   0.616  1.4656 -0.3741 -0.9711
  345MOL0     H45535   6.525   6.306   0.568  0.7771  0.8408  1.8245
  345MOL0     H45536   6.770   6.182   0.437 -0.3964  0.5136  1.2755
  345MOL0     H45537   6.687   6.302   0.351  1.1891 -2.7444 -0.5907
  345MOL0     H45538   6.884   6.513   0.680 -3.4834  2.7003 -0.9005
  345MOL0     H45539   6.448   5.908   0.599 -1.4245  1.2653  1.1874
  345MOL0     H45540   6.310   5.746   0.736  1.2264  1.0128 -0.7893
  346MOL0     O45541   9.938  10.586   6.328  0.2668 -0.5664  0.6258
  346MOL0     C45542   9.906  10.469   6.297  0.4241  1.0901  0.1191
  346MOL0     O45543   9.775  10.408   6.307  0.1363  0.0194  1.0175
  346MOL0     C45544   9.679  10.500   6.351  0.7587 -0.0753  0.6152
  346MOL0     C45545   9.594  10.445   6.451 -0.2535 -0.2815  0.4562
  346MOL0     C45546   9.497  10.513   6.524  0.6479  0.8693 -0.4094
  346MOL0     C45547   9.477  10.650   6.494 -0.9052  0.6906  0.1071
  346MOL0     O45548   9.365  10.711   6.550 -0.5687 -0.2182  0.3273
  346MOL0     C45549   9.319  10.837   6.496 -0.3919 -0.2153  0.0648
  346MOL0     C45550   9.245  10.814   6.362  0.6826 -0.1517  0.4768
  346MOL0     C45551   9.109  10.759   6.397  0.3457  0.0492  0.6651
  346MOL0     C45552   9.034  10.696   6.281  0.0532 -0.3434  0.1767
  346MOL0     C45553   8.885  10.695   6.305  0.3458  0.3213 -0.3338
  346MOL0     C45554   8.854  10.568   6.376 -1.7255  0.3168  0.0193
  346MOL0     C45555   8.703  10.560   6.402 -0.7332 -0.1202 -0.3296
  346MOL0     C45556   8.672  10.442   6.494  0.6824  1.3765  1.4641
  346MOL0     N45557   8.717  10.308   6.453  0.3449  0.1038  0.0165
  346MOL0     C45558   8.849  10.260   6.445  0.3959  0.2567  0.2600
  346MOL0     C45559   8.838  10.136   6.387 -0.3166 -0.3305  0.2125
  346MOL0     C45560   8.953  10.054   6.323  0.2701 -0.8457 -0.1015
  346MOL0     C45561   9.020  10.103   6.201 -0.5519 -0.2006 -0.4927
  346MOL0     C45562   9.131  10.005   6.147  0.8007 -0.0406 -0.3771
  346MOL0     C45563   9.080   9.866   6.101 -0.2639  0.6033 -0.3706
  346MOL0     O45564   8.953   9.868   6.033  0.0051 -0.4177 -0.3813
  346MOL0     C45565   8.960   9.805   5.910  0.7145 -0.1156  0.1100
  346MOL0     C45566   8.998   9.870   5.790 -0.7064  0.5968 -0.1812
  346MOL0     C45567   9.014   9.791   5.673  0.5475 -0.8016 -0.1425
  346MOL0     C45568   8.993   9.652   5.671 -0.2684  0.6362 -0.5106
  346MOL0     C45569   9.016   9.568   5.554  0.8702 -0.7978  0.3957
  346MOL0     O45570   9.048   9.641   5.440  0.3187 -1.2998 -0.4825
  346MOL0     C45571   9.060   9.574   5.326 -0.1007 -0.4410 -0.1419
  346MOL0     C45572   8.964   9.588   5.234  0.1656  0.2760 -0.2177
  346MOL0     C45573   8.984   9.522   5.112 -0.6703  1.6530 -0.2086
  346MOL0     C45574   9.106   9.467   5.072 -1.2967 -0.1775  0.2787
  346MOL0     O45575   9.118   9.406   4.948 -0.0167  0.7468  0.4819
  346MOL0     C45576   9.149   9.264   4.971  0.1827  0.4383 -0.2215
  346MOL0     C45577   9.049   9.182   5.041 -0.0042 -0.4604 -0.3213
  346MOL0     C45578   8.908   9.178   4.967  0.3461  0.1796 -0.1796
  346MOL0     C45579   8.855   9.038   4.986  0.2567 -0.1110 -0.6250
  346MOL0     C45580   8.709   9.025   4.951  1.1865 -0.0064  1.3236
  346MOL0     C45581   8.654   8.879   4.960  0.2110 -0.6928  1.1158
  346MOL0     C45582   8.503   8.873   4.931 -0.8537  1.0330 -0.2335
  346MOL0     C45583   8.467   8.731   4.910  0.0466 -0.1936 -0.4217
  346MOL0    Cl45584   8.483   8.672   4.736 -0.2107  0.0022 -0.2434
  346MOL0     C45585   9.214   9.469   5.165  0.8471 -0.8138  0.3595
  346MOL0     C45586   9.191   9.527   5.292  0.5704 -0.5766  0.1967
  346MOL0     O45587   8.986   9.449   5.553 -0.6733  0.1230 -0.7890
  346MOL0     C45588   8.950   9.599   5.790  0.3431 -0.0476  0.6861
  346MOL0     C45589   8.941   9.669   5.903 -0.0555 -0.2338 -0.5126
  346MOL0     N45590   8.699  10.105   6.394 -0.2045 -0.1024  0.3260
  346MOL0     N45591   8.629  10.205   6.433  0.3611  0.0807  0.1587
  346MOL0     C45592   9.558  10.716   6.392 -1.2033  0.7306 -0.1776
  346MOL0     C45593   9.652  10.635   6.319  0.3653 -0.1622  1.0036
  346MOL0     C45594  10.010  10.382   6.238 -0.3389 -0.2713 -0.0314
  346MOL0     C45595  10.139  10.430   6.179  0.6334 -0.0182 -1.0853
  346MOL0     C45596  10.209  10.351   6.094 -0.6211 -0.4413  0.5417
  346MOL0     C45597  10.185  10.217   6.082  0.0626  0.6442  0.3570
  346MOL0     O45598  10.267  10.144   5.998  0.7462 -0.2435  0.3880
  346MOL0     C45599  10.243  10.002   5.981 -0.3726  0.2902  0.0468
  346MOL0     C45600  10.352   9.943   5.894 -0.2257  0.3717 -0.3855
  346MOL0     C45601  10.349   9.995   5.755  0.6188 -0.6940 -0.2332
  346MOL0     C45602  10.438   9.922   5.669  1.0800 -0.4736  0.5704
  346MOL0     C45603  10.441   9.978   5.533 -0.1187  0.0793  0.0361
  346MOL0     C45604  10.432  10.036   5.432 -0.1055 -0.7762  0.8106
  346MOL0     C45605  10.080  10.162   6.150  0.1941 -0.2108  0.3555
  346MOL0     C45606   9.992  10.244   6.221 -0.6834  0.5738  0.5374
  346MOL0     H45607   9.604  10.340   6.478 -0.6389 -0.5476 -0.4113
  346MOL0     H45608   9.426  10.454   6.580  1.8502 -3.6835 -3.2173
  346MOL0     H45609   9.398  10.912   6.490  0.1972 -0.7840  0.6045
  346MOL0     H45610   9.247  10.877   6.568 -1.4679 -2.6812  0.4623
  346MOL0     H45611   9.305  10.752   6.296  1.5787 -0.3276  1.4416
  346MOL0     H45612   9.241  10.905   6.301  1.2394 -1.8674 -2.2738
  346MOL0     H45613   9.061  10.847   6.440 -0.2692  0.4488 -0.7832
  346MOL0     H45614   9.119  10.687   6.479 -3.0069 -0.5241  0.6963
  346MOL0     H45615   9.039  10.762   6.194 -1.4894 -1.6797 -0.9672
  346MOL0     H45616   9.078  10.597   6.267 -0.5434 -0.4075 -1.3798
  346MOL0     H45617   8.830  10.691   6.211 -3.4399  0.6537  1.6936
  346MOL0     H45618   8.847  10.788   6.349  0.0348  2.7536 -5.1887
  346MOL0     H45619   8.906  10.561   6.472 -0.9842 -0.8982 -0.4403
  346MOL0     H45620   8.879  10.482   6.312 -1.0188  0.5959 -0.0956
  346MOL0     H45621   8.680  10.655   6.453 -0.8034  0.9259 -2.2070
  346MOL0     H45622   8.648  10.556   6.307 -2.4319 -2.4526  0.6435
  346MOL0     H45623   8.563  10.443   6.502  0.6028  2.7263  0.5049
  346MOL0     H45624   8.713  10.453   6.595 -2.1319  3.7836  2.4653
  346MOL0     H45625   8.941  10.317   6.444  1.3597 -1.2587  0.0004
  346MOL0     H45626   8.908   9.959   6.293 -0.9875 -0.3989  0.3466
  346MOL0     H45627   9.013  10.021   6.409 -0.9567 -2.4269  0.1964
  346MOL0     H45628   9.063  10.196   6.240  0.5493 -0.2908 -1.4450
  346MOL0     H45629   8.938  10.125   6.132 -0.8387 -0.3679 -0.2064
  346MOL0     H45630   9.174  10.054   6.059 -0.2134  1.1942 -0.2057
  346MOL0     H45631   9.218   9.992   6.212  1.7474  3.2680 -0.7788
  346MOL0     H45632   9.069   9.807   6.192 -0.0799  1.0565 -0.0553
  346MOL0     H45633   9.162   9.826   6.042  0.9335 -3.2589  3.4237
  346MOL0     H45634   9.015   9.977   5.788  0.3889  0.5104  1.8376
  346MOL0     H45635   9.026   9.839   5.577  0.6901  2.1738  1.2679
  346MOL0     H45636   8.871   9.640   5.252  0.0603 -0.2139  0.7020
  346MOL0     H45637   8.898   9.517   5.046  0.9051 -1.3196 -2.3174
  346MOL0     H45638   9.245   9.239   5.016  0.8618  0.3325 -1.6550
  346MOL0     H45639   9.150   9.223   4.869 -3.3907  1.6662 -0.8997
  346MOL0     H45640   9.040   9.227   5.140 -2.3889  1.0312 -1.1515
  346MOL0     H45641   9.101   9.086   5.049  5.1804  2.0321  0.4547
  346MOL0     H45642   8.908   9.201   4.860  1.8446 -1.7327 -0.6646
  346MOL0     H45643   8.848   9.256   5.014 -1.5186  0.7257 -3.1466
  346MOL0     H45644   8.918   8.961   4.941 -0.0686 -0.8849  0.2189
  346MOL0     H45645   8.863   9.025   5.095  0.7174  1.3758 -0.4558
  346MOL0     H45646   8.697   9.050   4.845  1.0519 -2.0220  0.8319
  346MOL0     H45647   8.649   9.089   5.016 -1.1313  0.1451 -0.8187
  346MOL0     H45648   8.676   8.840   5.060 -0.5148 -1.5054  0.9671
  346MOL0     H45649   8.707   8.824   4.882  1.0415 -1.0140  1.8754
  346MOL0     H45650   8.458   8.916   5.021 -0.5364 -0.2758  0.5650
  346MOL0     H45651   8.462   8.928   4.846 -3.1498 -1.0398 -0.5685
  346MOL0     H45652   8.362   8.714   4.936 -0.2716 -1.6356 -2.3756
  346MOL0     H45653   8.520   8.663   4.978 -0.1763 -2.4270 -2.3489
  346MOL0     H45654   9.311   9.434   5.131  1.2410  0.7428 -0.1707
  346MOL0     H45655   9.261   9.532   5.375  1.4091  1.9080 -0.5306
  346MOL0     H45656   8.916   9.498   5.812 -1.7787  0.4676  0.0464
  346MOL0     H45657   8.914   9.637   6.003 -0.0214  2.6756  0.5289
  346MOL0     H45658   9.562  10.822   6.373 -1.7943  0.5260 -1.5955
  346MOL0     H45659   9.714  10.684   6.246  1.1617 -0.6254  1.3489
  346MOL0     H45660  10.172  10.531   6.198  1.2183 -0.4904  0.6128
  346MOL0     H45661  10.283  10.402   6.033 -1.4231 -0.3753 -0.3972
  346MOL0     H45662  10.149   9.981   5.929 -0.3138 -4.4408  1.3646
  346MOL0     H45663  10.241   9.941   6.072  0.0369 -1.5462 -1.1271
  346MOL0     H45664  10.449   9.974   5.935 -0.7452  1.1507  0.2768
  346MOL0     H45665  10.347   9.834   5.893 -3.2521  0.4237 -2.0599
  346MOL0     H45666  10.366  10.103   5.746 -0.9996 -0.3233  0.8129
  346MOL0     H45667  10.249   9.977   5.715  0.4201  0.7614 -0.4338
  346MOL0     H45668  10.542   9.939   5.698  0.6088 -0.2456  2.2135
  346MOL0     H45669  10.421   9.814   5.664  1.5545 -0.5221 -3.3861
  346MOL0     H45670  10.440  10.092   5.341  4.0207 -1.5607  0.4788
  346MOL0     H45671  10.058  10.056   6.138 -4.2873  0.6328 -0.7384
  346MOL0     H45672   9.911  10.184   6.260  2.0399 -2.4976  1.8953
  347MOL0     O45673   8.672   6.176   9.266  1.0929  0.6422 -0.2709
  347MOL0     C45674   8.705   6.074   9.336 -1.1860 -0.1859  0.5006
  347MOL0     O45675   8.836   6.050   9.379  0.1043  0.2399  0.2130
  347MOL0     C45676   8.936   6.136   9.344  0.3029  1.1206 -0.0934
  347MOL0     C45677   9.006   6.131   9.224  0.2524  0.1438 -0.7707
  347MOL0     C45678   9.116   6.218   9.193 -0.8001 -0.6838 -0.5492
  347MOL0     C45679   9.146   6.312   9.289  0.8335 -0.1091 -0.8282
  347MOL0     O45680   9.241   6.419   9.265 -0.0244  0.4872  0.1080
  347MOL0     C45681   9.346   6.405   9.166  0.1837 -0.3358  0.1670
  347MOL0     C45682   9.351   6.542   9.097  0.2560 -0.1313  0.8292
  347MOL0     C45683   9.482   6.581   9.034  0.0753  0.1401  0.8969
  347MOL0     C45684   9.584   6.614   9.145  0.3718  0.1146  0.6658
  347MOL0     C45685   9.720   6.568   9.113 -0.7829  0.6018  1.5629
  347MOL0     C45686   9.797   6.547   9.242  0.3228 -0.4098 -0.1339
  347MOL0     C45687   9.933   6.480   9.237  0.1421  0.5076 -0.1704
  347MOL0     C45688  10.032   6.547   9.152  0.0669 -0.3909 -0.4712
  347MOL0     N45689  10.073   6.677   9.207 -0.6080  0.2152  0.7716
  347MOL0     C45690  10.024   6.798   9.168  0.2387 -0.5190  0.9400
  347MOL0     C45691  10.066   6.886   9.266  0.3674  0.2788  0.3752
  347MOL0     C45692  10.023   7.020   9.294  1.3949  0.4287 -0.3344
  347MOL0     C45693   9.889   7.024   9.370  0.4993 -1.1878  0.1369
  347MOL0     C45694   9.882   6.928   9.496 -0.1611 -0.0461  1.1050
  347MOL0     C45695   9.746   6.921   9.560 -0.1660  0.8523 -0.0588
  347MOL0     O45696   9.644   6.892   9.469 -0.4357  0.1579 -0.3281
  347MOL0     C45697   9.526   6.858   9.529  0.3430 -0.3447  0.4695
  347MOL0     C45698   9.492   6.866   9.669 -0.1884  0.9079  0.7923
  347MOL0     C45699   9.365   6.814   9.714 -0.3358 -0.0565  0.5081
  347MOL0     C45700   9.270   6.769   9.622 -1.4546 -0.1268 -0.0553
  347MOL0     C45701   9.144   6.720   9.666  0.0715  0.4208  0.3614
  347MOL0     O45702   9.044   6.691   9.571  0.0610  0.9691  0.0734
  347MOL0     C45703   8.936   6.605   9.588 -1.5838 -0.3260 -0.6085
  347MOL0     C45704   8.920   6.513   9.699  0.4659  1.6530 -0.2619
  347MOL0     C45705   8.805   6.434   9.707  0.6258  0.3591  0.4308
  347MOL0     C45706   8.700   6.465   9.618 -0.3034 -0.0680  0.0111
  347MOL0     O45707   8.573   6.409   9.629  0.2104 -0.5255  0.9137
  347MOL0     C45708   8.553   6.285   9.696 -0.3728 -1.1358  0.4639
  347MOL0     C45709   8.410   6.230   9.682  1.5911  0.2060  0.5653
  347MOL0     C45710   8.411   6.076   9.717 -0.0293 -0.5158 -0.6201
  347MOL0     C45711   8.274   5.997   9.735 -0.2547 -1.3675  0.1849
  347MOL0     C45712   8.280   5.877   9.822  0.4191  0.2226 -0.2450
  347MOL0     C45713   8.243   5.899   9.972  0.7951 -0.7538 -0.6076
  347MOL0     C45714   8.259   5.759  10.040 -0.1691  0.4919 -0.0919
  347MOL0     C45715   8.201   5.753  10.179  0.0724 -0.3129  0.1983
  347MOL0    Cl45716   8.313   5.848  10.278 -0.1749  0.5278  0.1013
  347MOL0     C45717   8.722   6.554   9.509 -0.1162 -0.1329 -0.8913
  347MOL0     C45718   8.841   6.613   9.487 -0.7764  0.0939 -0.1277
  347MOL0     O45719   9.131   6.706   9.788  0.2292 -0.1507 -0.6756
  347MOL0     C45720   9.303   6.779   9.490 -0.0102 -0.4672 -0.4172
  347MOL0     C45721   9.421   6.821   9.441  0.0402  0.3212 -0.1901
  347MOL0     N45722  10.155   6.816   9.341 -0.7415  0.3835 -0.7810
  347MOL0     N45723  10.154   6.688   9.312  0.3139 -0.9193 -0.5475
  347MOL0     C45724   9.072   6.325   9.412 -0.2985 -1.2018 -0.3929
  347MOL0     C45725   8.972   6.229   9.441 -0.0659 -0.0492  0.3846
  347MOL0     C45726   8.601   5.972   9.356  0.2792  0.3792  0.8401
  347MOL0     C45727   8.465   6.003   9.342  0.6428 -1.0174 -0.7488
  347MOL0     C45728   8.365   5.905   9.351 -0.0746 -0.4185  0.1485
  347MOL0     C45729   8.400   5.767   9.369 -0.2836 -0.0024  0.0098
  347MOL0     O45730   8.317   5.658   9.389 -0.3509 -0.2397  1.2684
  347MOL0     C45731   8.186   5.678   9.432 -0.2425  0.4456  0.4335
  347MOL0     C45732   8.120   5.543   9.456 -0.0820 -0.9208 -0.5393
  347MOL0     C45733   7.979   5.571   9.487  0.0568  0.2641  0.8300
  347MOL0     C45734   7.903   5.439   9.534 -0.2325  0.1085  0.1610
  347MOL0     C45735   7.896   5.335   9.429 -0.0028  0.0525  0.3509
  347MOL0     C45736   7.896   5.246   9.353  0.1483 -0.1280  0.0696
  347MOL0     C45737   8.535   5.744   9.374 -0.7912  0.0667  0.6467
  347MOL0     C45738   8.638   5.834   9.358 -0.6043 -0.4789  0.0688
  347MOL0     H45739   8.965   6.060   9.153 -0.2456 -1.5549  1.1296
  347MOL0     H45740   9.157   6.223   9.093 -0.1368 -0.7457 -0.2879
  347MOL0     H45741   9.317   6.326   9.096 -1.0051  0.1951  0.0432
  347MOL0     H45742   9.437   6.380   9.222  0.4366 -1.2668 -0.6354
  347MOL0     H45743   9.316   6.618   9.166  0.6395  3.5300 -2.6079
  347MOL0     H45744   9.285   6.541   9.010  0.0989 -0.4071  0.9513
  347MOL0     H45745   9.466   6.674   8.978 -1.5471 -0.2931  0.5696
  347MOL0     H45746   9.510   6.503   8.963 -1.0686  1.3648 -0.9837
  347MOL0     H45747   9.585   6.723   9.152  0.0656  0.6283 -4.0893
  347MOL0     H45748   9.555   6.560   9.236 -0.2059  0.7122  0.8448
  347MOL0     H45749   9.769   6.648   9.057 -0.0657  0.4570  1.9726
  347MOL0     H45750   9.717   6.473   9.058  0.1356  0.5659  1.5537
  347MOL0     H45751   9.732   6.500   9.316 -3.1148  1.7675 -1.5249
  347MOL0     H45752   9.800   6.646   9.289  3.2944 -0.6431  0.3688
  347MOL0     H45753   9.987   6.486   9.332  4.2485  4.4514 -2.3522
  347MOL0     H45754   9.910   6.381   9.197  2.0833 -0.3176  0.6284
  347MOL0     H45755   9.978   6.565   9.058  0.6241 -2.4158 -1.2249
  347MOL0     H45756  10.108   6.475   9.121 -3.3573 -3.5350 -2.4857
  347MOL0     H45757   9.943   6.811   9.096  1.5040  2.9264 -0.0646
  347MOL0     H45758   9.996   7.070   9.201 -1.2271 -2.5507 -1.3890
  347MOL0     H45759  10.101   7.075   9.347  4.1506 -1.8276 -1.7569
  347MOL0     H45760   9.817   7.000   9.291 -1.3932  1.5705  0.8717
  347MOL0     H45761   9.874   7.130   9.389 -1.4718 -0.8173 -2.7422
  347MOL0     H45762   9.917   6.829   9.467 -3.8159 -0.6352 -2.1523
  347MOL0     H45763   9.952   6.983   9.560  2.1922 -2.4462  0.7437
  347MOL0     H45764   9.720   7.014   9.611 -3.3884 -1.0792  2.1512
  347MOL0     H45765   9.744   6.845   9.638  0.1821  2.5261  1.6559
  347MOL0     H45766   9.559   6.903   9.746  2.6989 -0.8961 -0.6916
  347MOL0     H45767   9.360   6.810   9.822 -1.6022 -1.4372  0.4326
  347MOL0     H45768   8.991   6.510   9.781  0.1314  2.1666  0.0463
  347MOL0     H45769   8.788   6.363   9.787 -0.2333  0.4252  0.3157
  347MOL0     H45770   8.561   6.316   9.801 -3.3918  0.1923  0.4159
  347MOL0     H45771   8.629   6.214   9.663 -0.3826 -1.0306  0.2170
  347MOL0     H45772   8.385   6.229   9.576  2.1908 -1.7241  0.3934
  347MOL0     H45773   8.329   6.274   9.740 -3.2337 -2.6223 -3.2896
  347MOL0     H45774   8.483   6.072   9.799 -0.7294  3.4199  0.4050
  347MOL0     H45775   8.467   6.029   9.635  0.9737 -0.7588  0.1782
  347MOL0     H45776   8.211   6.069   9.788  0.5583 -2.1003  2.2523
  347MOL0     H45777   8.238   5.973   9.634 -0.5995 -4.2680  0.8977
  347MOL0     H45778   8.378   5.828   9.818 -0.1602 -1.1858  1.4915
  347MOL0     H45779   8.208   5.812   9.772  0.3831  0.2702 -0.2548
  347MOL0     H45780   8.139   5.933   9.977 -0.2538 -3.7076 -0.4861
  347MOL0     H45781   8.310   5.975  10.012 -1.5041  0.1640  1.8693
  347MOL0     H45782   8.203   5.691   9.976  0.0944  2.1398 -2.2143
  347MOL0     H45783   8.364   5.726  10.045 -0.4615 -1.1783 -2.9294
  347MOL0     H45784   8.196   5.650  10.214 -2.0537 -0.4392 -0.3593
  347MOL0     H45785   8.097   5.787  10.178  0.4079  0.7964 -1.9210
  347MOL0     H45786   8.634   6.572   9.447 -1.9093  0.5885  1.7211
  347MOL0     H45787   8.860   6.659   9.390 -0.8106 -0.1446 -0.2470
  347MOL0     H45788   9.226   6.760   9.415 -1.5975  0.0248  1.0321
  347MOL0     H45789   9.442   6.837   9.336  0.6375 -0.4879 -0.2065
  347MOL0     H45790   9.101   6.412   9.470  0.8101 -1.6479 -0.2448
  347MOL0     H45791   8.916   6.232   9.534  0.8070 -2.3201  1.0466
  347MOL0     H45792   8.430   6.097   9.301 -1.7295 -1.5246 -0.0582
  347MOL0     H45793   8.260   5.929   9.345 -0.5132 -2.2929 -0.5449
  347MOL0     H45794   8.126   5.745   9.369 -1.0640  1.2545  2.0204
  347MOL0     H45795   8.193   5.733   9.526 -2.5878  1.5464  0.0359
  347MOL0     H45796   8.136   5.472   9.374 -3.2371 -4.0064  1.2634
  347MOL0     H45797   8.164   5.489   9.540 -1.8017 -0.8413  0.4386
  347MOL0     H45798   7.926   5.584   9.392  0.8985  0.7058  0.4091
  347MOL0     H45799   7.963   5.654   9.556 -0.1540  0.8590  0.0785
  347MOL0     H45800   7.939   5.412   9.633 -0.2594  2.8046  0.9895
  347MOL0     H45801   7.803   5.476   9.560 -0.4302 -0.4933  0.2671
  347MOL0     H45802   7.903   5.160   9.289  0.2898  0.7485 -1.1251
  347MOL0     H45803   8.547   5.638   9.395  2.5817  0.2506  0.2837
  347MOL0     H45804   8.745   5.813   9.357 -0.5345 -0.2052  0.7615
  348MOL0     O45805   9.992   6.475   9.747 -0.4838  0.3687  0.4438
  348MOL0     C45806   9.889   6.538   9.737  0.1049 -0.0341  1.2786
  348MOL0     O45807   9.874   6.665   9.784  0.2473  0.0062 -0.5373
  348MOL0     C45808   9.991   6.729   9.809 -0.1458 -0.2941 -0.5832
  348MOL0     C45809  10.101   6.739   9.719  0.7301 -0.3584 -0.6852
  348MOL0     C45810  10.204   6.842   9.733  0.3044 -0.3397  0.0211
  348MOL0     C45811  10.196   6.936   9.840 -0.3395 -0.4564 -0.1296
  348MOL0     O45812  10.294   7.027   9.864  0.0700 -0.7481  0.0772
  348MOL0     C45813  10.335   7.035   9.995 -0.1337 -0.1330 -0.3823
  348MOL0     C45814  10.476   7.113   9.996  0.0447 -0.6278 -0.0192
  348MOL0     C45815  10.459   7.268   9.974 -0.2132 -0.3672 -0.2939
  348MOL0     C45816  10.609   7.333   9.955  0.5249  0.2663  0.0168
  348MOL0     C45817  10.596   7.481   9.901 -0.4432 -0.1729  0.6155
  348MOL0     C45818  10.563   7.565  10.029 -0.6362  0.9863 -0.6512
  348MOL0     C45819  10.549   7.708   9.998  0.5443 -0.0771 -0.2030
  348MOL0     C45820  10.521   7.798  10.110 -0.2493  0.3777 -0.4135
  348MOL0     N45821  10.645   7.820  10.199 -0.0999  0.6443 -0.0229
  348MOL0     C45822  10.729   7.926  10.168  0.7125  0.3275 -0.7329
  348MOL0     C45823  10.810   7.916  10.273  0.3676 -1.3752 -0.3349
  348MOL0     C45824  10.927   7.991  10.277  0.5383 -0.6133 -0.9657
  348MOL0     C45825  11.018   7.982  10.163  0.2197  0.3315  0.8467
  348MOL0     C45826  11.151   8.068  10.167 -0.1382  0.8882  0.1701
  348MOL0     C45827  11.124   8.216  10.184 -0.2144  0.6857 -0.3343
  348MOL0     O45828  11.093   8.296  10.068 -0.1790 -0.8878  0.1454
  348MOL0     C45829  11.168   8.413  10.037  0.4769  0.0622 -0.8332
  348MOL0     C45830  11.080   8.519  10.005 -0.1521 -0.1605 -0.4477
  348MOL0     C45831  11.128   8.649   9.998  0.4711 -0.3820 -0.3417
  348MOL0     C45832  11.266   8.676  10.022  0.1785 -0.0553  0.2007
  348MOL0     C45833  11.321   8.817  10.008  0.7156 -0.0584 -0.0390
  348MOL0     O45834  11.457   8.830   9.985  0.3476 -0.4070 -0.1889
  348MOL0     C45835  11.519   8.939   9.927  0.0487 -0.7954  0.9077
  348MOL0     C45836  11.650   8.927   9.898  0.5904 -0.5624  0.1731
  348MOL0     C45837  11.715   9.026   9.826  0.0199  0.6556 -0.0813
  348MOL0     C45838  11.663   9.138   9.771  0.2331 -0.5420  0.0206
  348MOL0     O45839  11.735   9.237   9.717  0.9519  0.3615 -0.0521
  348MOL0     C45840  11.781   9.333   9.809  0.8811  0.6833  0.0251
  348MOL0     C45841  11.785   9.474   9.744  0.0368  0.4886  0.2391
  348MOL0     C45842  11.859   9.560   9.833  0.2476  0.1427  0.6991
  348MOL0     C45843  11.887   9.697   9.767 -0.7605  0.1088 -0.3349
  348MOL0     C45844  11.959   9.786   9.868 -0.1682 -0.3463  0.4363
  348MOL0     C45845  11.891   9.812   9.996  0.0093  0.2703 -0.3750
  348MOL0     C45846  11.939   9.933  10.078  0.1307 -0.5452 -0.9725
  348MOL0     C45847  11.936  10.069  10.019 -0.6468 -0.0362  0.3231
  348MOL0    Cl45848  11.817  10.100   9.889  0.1540 -0.4430  0.4211
  348MOL0     C45849  11.532   9.147   9.801 -0.2307 -0.0243  0.7109
  348MOL0     C45850  11.459   9.055   9.873 -0.2568 -0.6725 -0.2858
  348MOL0     O45851  11.234   8.907  10.003 -0.9158 -0.8229 -0.5698
  348MOL0     C45852  11.353   8.565  10.038 -0.4345  0.0365  0.5371
  348MOL0     C45853  11.307   8.435  10.051 -0.2465  0.7510 -0.0499
  348MOL0     N45854  10.776   7.824  10.370 -1.1451 -0.0068  0.1893
  348MOL0     N45855  10.674   7.759  10.322  0.2346  0.7890  0.6302
  348MOL0     C45856  10.086   6.924   9.925 -1.0939  0.2334 -0.1150
  348MOL0     C45857   9.989   6.825   9.909 -0.6961  0.0022 -0.6466
  348MOL0     C45858   9.772   6.465   9.677 -0.6837 -0.5543  1.3270
  348MOL0     C45859   9.645   6.531   9.672  0.2162  0.4794 -0.5164
  348MOL0     C45860   9.524   6.468   9.631  0.8246 -0.0844 -1.2046
  348MOL0     C45861   9.534   6.328   9.611  0.7280  0.0869  0.2409
  348MOL0     O45862   9.423   6.253   9.573  0.4780 -0.4563  0.3651
  348MOL0     C45863   9.406   6.139   9.655  0.3505  0.3908 -0.3087
  348MOL0     C45864   9.261   6.089   9.619 -0.2862 -0.9771  0.2537
  348MOL0     C45865   9.244   5.935   9.627  0.4204 -0.9459  0.4679
  348MOL0     C45866   9.113   5.879   9.566 -0.2910 -0.4552 -0.1434
  348MOL0     C45867   9.002   5.926   9.655 -0.2763  0.4798  0.4918
  348MOL0     C45868   8.920   5.972   9.721  0.8311  1.3768 -0.9222
  348MOL0     C45869   9.660   6.261   9.614  0.3140 -0.5543 -0.0999
  348MOL0     C45870   9.781   6.328   9.642  0.2414 -1.2238  0.3366
  348MOL0     H45871  10.107   6.665   9.640  0.6306  0.3502 -1.3685
  348MOL0     H45872  10.284   6.839   9.659 -0.8455 -1.5268 -1.2210
  348MOL0     H45873  10.358   6.936  10.036  0.8255  0.3694  0.3198
  348MOL0     H45874  10.260   7.083  10.058  1.3628 -0.5028  1.7562
  348MOL0     H45875  10.544   7.072   9.921 -0.1312  0.3537 -0.7334
  348MOL0     H45876  10.528   7.098  10.091  2.1558  0.6504 -0.9113
  348MOL0     H45877  10.416   7.311  10.065 -0.1668  2.6973 -1.6040
  348MOL0     H45878  10.397   7.281   9.885  1.3692 -2.0187 -1.7150
  348MOL0     H45879  10.662   7.330  10.050 -1.9067 -1.2168  1.4322
  348MOL0     H45880  10.661   7.268   9.883  1.1312  2.1754 -1.3524
  348MOL0     H45881  10.534   7.483   9.811  1.2863 -3.5493 -0.8466
  348MOL0     H45882  10.694   7.514   9.865 -0.6128 -1.9673 -1.7156
  348MOL0     H45883  10.645   7.557  10.100 -0.4569 -1.1872 -1.0153
  348MOL0     H45884  10.479   7.514  10.077 -0.4332  0.1821 -1.1247
  348MOL0     H45885  10.646   7.733   9.953  0.4661  1.5793  0.4987
  348MOL0     H45886  10.473   7.721   9.920 -1.9466 -0.1951  2.0839
  348MOL0     H45887  10.434   7.761  10.165 -0.3667  4.0189  2.2095
  348MOL0     H45888  10.468   7.886  10.071  0.5753  4.0703  5.4793
  348MOL0     H45889  10.739   7.991  10.081  1.2952  2.2643  0.7215
  348MOL0     H45890  10.976   7.960  10.371 -2.2167 -3.3750 -0.2531
  348MOL0     H45891  10.897   8.096  10.279  0.8787 -0.4648 -2.6963
  348MOL0     H45892  10.968   8.000  10.067  0.3700 -1.9100  0.2971
  348MOL0     H45893  11.049   7.878  10.148  2.5516  0.6206  3.0176
  348MOL0     H45894  11.200   8.031  10.258 -2.1033 -1.6729  0.3220
  348MOL0     H45895  11.215   8.040  10.083 -1.1737  2.1954 -1.0891
  348MOL0     H45896  11.220   8.244  10.229  0.1957 -0.7907 -0.2374
  348MOL0     H45897  11.047   8.236  10.259 -2.2639 -2.3815 -1.4368
  348MOL0     H45898  10.973   8.503   9.997 -0.8143  2.3873  1.8177
  348MOL0     H45899  11.074   8.735   9.961  2.2678 -0.7331 -4.3973
  348MOL0     H45900  11.711   8.848   9.941  3.9190  0.5564 -2.1508
  348MOL0     H45901  11.822   9.018   9.808 -0.0640  0.6384 -0.6053
  348MOL0     H45902  11.887   9.315   9.827  0.7006 -1.1840 -0.5598
  348MOL0     H45903  11.732   9.325   9.906 -0.8822 -0.3626 -0.9093
  348MOL0     H45904  11.683   9.512   9.739 -0.4866 -1.0344 -2.7705
  348MOL0     H45905  11.821   9.477   9.641  1.0465 -0.4537  0.5434
  348MOL0     H45906  11.957   9.515   9.854 -0.1348 -2.5431 -2.4489
  348MOL0     H45907  11.803   9.561   9.927 -0.3855  1.0916  0.3203
  348MOL0     H45908  11.939   9.691   9.671 -2.2899 -0.6437 -1.1321
  348MOL0     H45909  11.785   9.735   9.758 -1.4032 -1.4690  0.0088
  348MOL0     H45910  11.978   9.885   9.826  0.1928  0.1071  1.6180
  348MOL0     H45911  12.058   9.746   9.892  0.3511  0.8999  0.4181
  348MOL0     H45912  11.892   9.728  10.067 -1.5441 -0.9307 -1.6941
  348MOL0     H45913  11.783   9.815   9.976 -0.1216  1.4344  0.4139
  348MOL0     H45914  11.879   9.936  10.170  2.5818 -2.7178  0.8184
  348MOL0     H45915  12.039   9.918  10.118  0.9785  1.0348 -2.3460
  348MOL0     H45916  12.027  10.078   9.959 -1.1006 -2.0238 -0.7300
  348MOL0     H45917  11.927  10.151  10.091 -2.1026 -0.4744  0.6641
  348MOL0     H45918  11.483   9.236   9.763 -2.2070 -1.0518  0.7343
  348MOL0     H45919  11.355   9.079   9.894 -1.0858 -2.7950 -1.6566
  348MOL0     H45920  11.455   8.599  10.053 -0.3327  0.1024 -0.2645
  348MOL0     H45921  11.370   8.351  10.077 -3.2464 -2.0703 -1.1790
  348MOL0     H45922  10.099   6.996  10.005  1.7866 -1.7673  1.4038
  348MOL0     H45923   9.903   6.820   9.974 -0.9315 -3.2503 -1.0499
  348MOL0     H45924   9.644   6.638   9.693  1.8179  0.8161 -1.9089
  348MOL0     H45925   9.427   6.513   9.651  0.0466 -2.6354  1.4759
  348MOL0     H45926   9.411   6.174   9.758  2.2796  3.3814 -1.2851
  348MOL0     H45927   9.477   6.057   9.642  0.2864  0.0270  1.4878
  348MOL0     H45928   9.204   6.143   9.695  3.4912  1.5188  1.5966
  348MOL0     H45929   9.242   6.116   9.514  0.1290 -0.2598  0.3599
  348MOL0     H45930   9.241   5.920   9.736 -4.5559 -0.8601  0.5581
  348MOL0     H45931   9.326   5.897   9.566  2.4930  0.4782  2.2109
  348MOL0     H45932   9.097   5.921   9.467 -0.2192  3.5667  1.3640
  348MOL0     H45933   9.113   5.772   9.546  1.3834  0.1976 -4.9039
  348MOL0     H45934   8.856   6.018   9.794 -1.6807 -0.8563 -1.5962
  348MOL0     H45935   9.663   6.153   9.601 -3.5493 -0.8885  0.6166
  348MOL0     H45936   9.873   6.271   9.641  1.3300  0.3205  2.8381
  349MOL0     O45937   1.716  11.326   1.736 -0.9956 -0.1374  0.5194
  349MOL0     C45938   1.743  11.206   1.746  0.4473 -0.2327  0.2134
  349MOL0     O45939   1.841  11.139   1.679  0.6875 -0.6388 -0.5280
  349MOL0     C45940   1.951  11.210   1.627  0.0675 -0.3951  0.3803
  349MOL0     C45941   1.937  11.256   1.493 -0.2592  1.4629  0.4947
  349MOL0     C45942   2.042  11.333   1.431  1.2988  1.1091  0.1894
  349MOL0     C45943   2.160  11.367   1.504 -0.8950 -0.0915 -0.8456
  349MOL0     O45944   2.274  11.435   1.454  0.5872  1.4152 -0.7391
  349MOL0     C45945   2.253  11.513   1.338  0.3133 -1.7436 -0.3052
  349MOL0     C45946   2.366  11.613   1.308  0.3216  0.4512  0.5319
  349MOL0     C45947   2.498  11.538   1.278 -0.2137 -0.3683 -0.0348
  349MOL0     C45948   2.593  11.543   1.396 -1.0103 -0.5806  0.5166
  349MOL0     C45949   2.734  11.498   1.363  0.1918 -0.0015  0.8686
  349MOL0     C45950   2.800  11.605   1.279 -0.7322  0.0805  0.3424
  349MOL0     C45951   2.942  11.570   1.243  0.7762 -0.5407 -0.9768
  349MOL0     C45952   3.030  11.671   1.309  1.4250  0.3431  0.7563
  349MOL0     N45953   3.024  11.678   1.459 -0.3542  0.4620 -0.0946
  349MOL0     C45954   3.008  11.788   1.531 -0.3236 -0.7924  0.1835
  349MOL0     C45955   3.039  11.735   1.656  0.5286 -0.3051  0.1611
  349MOL0     C45956   3.072  11.821   1.780 -0.3642 -0.3290  0.8375
  349MOL0     C45957   2.984  11.782   1.907 -0.7805 -0.2274 -0.0659
  349MOL0     C45958   2.835  11.776   1.893  0.5191 -0.0613  0.2008
  349MOL0     C45959   2.770  11.797   2.035  0.7265  0.2251  0.1403
  349MOL0     O45960   2.787  11.687   2.127  0.0237  0.9462  0.1455
  349MOL0     C45961   2.790  11.708   2.269  0.5023  0.6645 -0.3522
  349MOL0     C45962   2.837  11.603   2.359  0.6731  0.4501 -1.0663
  349MOL0     C45963   2.834  11.628   2.499  0.6767  0.1056  0.0252
  349MOL0     C45964   2.790  11.748   2.557 -0.9973 -0.3631 -1.3391
  349MOL0     C45965   2.814  11.760   2.706 -0.1392 -0.1828 -0.9077
  349MOL0     O45966   2.795  11.878   2.768 -0.1175 -0.1044 -0.0229
  349MOL0     C45967   2.786  11.883   2.909  0.9321  0.0841 -0.4563
  349MOL0     C45968   2.883  11.974   2.963 -0.2947  0.5314 -0.2002
  349MOL0     C45969   2.880  12.001   3.101  0.1816 -0.1182  0.1801
  349MOL0     C45970   2.795  11.931   3.189 -0.7545 -0.7543  1.2349
  349MOL0     O45971   2.818  11.948   3.320  0.0734  0.2704 -0.4055
  349MOL0     C45972   2.776  11.852   3.413  0.7879  0.7327 -0.0949
  349MOL0     C45973   2.847  11.874   3.547 -0.7886  0.8148  0.0896
  349MOL0     C45974   3.005  11.863   3.528 -0.3201  0.8678 -0.0608
  349MOL0     C45975   3.085  11.903   3.644  0.1522  0.3035  0.5410
  349MOL0     C45976   3.231  11.857   3.616 -0.2777 -0.2563 -0.7200
  349MOL0     C45977   3.254  11.702   3.629 -0.7369  0.0683 -0.3528
  349MOL0     C45978   3.387  11.658   3.585 -0.3557  0.2175 -0.5002
  349MOL0     C45979   3.380  11.581   3.452 -1.0349  0.2843 -0.0620
  349MOL0    Cl45980   3.541  11.518   3.420 -0.5990  1.0850  0.3026
  349MOL0     C45981   2.691  11.851   3.123 -0.2488  0.3261 -0.2057
  349MOL0     C45982   2.689  11.823   2.990 -0.3530  0.4547 -0.2936
  349MOL0     O45983   2.839  11.660   2.772 -0.7697 -0.0183  0.5792
  349MOL0     C45984   2.730  11.847   2.470 -0.2679 -0.4547 -0.5002
  349MOL0     C45985   2.735  11.823   2.329 -0.3558  0.4320  0.6346
  349MOL0     N45986   3.069  11.603   1.652  0.4882  0.1930 -0.3194
  349MOL0     N45987   3.064  11.564   1.526 -0.8500  0.5023 -0.5852
  349MOL0     C45988   2.169  11.320   1.633  0.6039 -0.3416  0.0235
  349MOL0     C45989   2.062  11.250   1.699  0.6698 -0.4488 -0.5213
  349MOL0     C45990   1.662  11.135   1.836 -0.7192  0.1514  0.1020
  349MOL0     C45991   1.651  11.000   1.804 -0.1485  0.3170 -0.4771
  349MOL0     C45992   1.565  10.916   1.890 -0.9332 -1.1305  1.0852
  349MOL0     C45993   1.503  10.971   1.992 -0.2567  0.0727  0.0601
  349MOL0     O45994   1.437  10.898   2.082  0.5514  0.5704 -0.1322
  349MOL0     C45995   1.417  10.754   2.065 -0.2412  0.0170  0.5908
  349MOL0     C45996   1.331  10.716   2.184  0.4731  0.7697 -0.3010
  349MOL0     C45997   1.329  10.557   2.202  0.8574 -0.9405 -0.7475
  349MOL0     C45998   1.243  10.508   2.314  0.6878 -0.2037  0.5380
  349MOL0     C45999   1.106  10.502   2.260  0.6677 -1.1679 -1.3780
  349MOL0     C46000   0.991  10.505   2.226 -0.0585 -0.4611 -0.1539
  349MOL0     C46001   1.518  11.112   2.014  0.0148  1.5080 -0.5567
  349MOL0     C46002   1.577  11.195   1.928  0.4193 -0.0052  0.3633
  349MOL0     H46003   1.849  11.230   1.435  1.7270  0.1171 -2.1359
  349MOL0     H46004   2.030  11.361   1.327  0.6534 -2.2065 -0.7598
  349MOL0     H46005   2.163  11.574   1.349  2.5889  1.6644  1.4554
  349MOL0     H46006   2.250  11.447   1.251  0.0118 -2.9457  0.5985
  349MOL0     H46007   2.376  11.676   1.397 -0.3580  0.1720  0.8055
  349MOL0     H46008   2.332  11.657   1.214 -0.9598 -4.2554 -1.5058
  349MOL0     H46009   2.546  11.577   1.189  0.8251 -1.7167 -0.1013
  349MOL0     H46010   2.491  11.429   1.271  0.3830 -0.3820 -0.4343
  349MOL0     H46011   2.606  11.645   1.433 -1.2003 -0.6265  0.7131
  349MOL0     H46012   2.551  11.483   1.477 -3.8339 -3.5932 -2.8229
  349MOL0     H46013   2.729  11.402   1.311 -1.2497  1.4113 -1.7841
  349MOL0     H46014   2.783  11.486   1.460  2.4696  1.1986 -0.0580
  349MOL0     H46015   2.792  11.708   1.317 -0.0798  0.4293 -0.4206
  349MOL0     H46016   2.757  11.595   1.179  2.5242 -1.2398 -1.0630
  349MOL0     H46017   2.972  11.474   1.287  1.7966 -0.2503 -1.0187
  349MOL0     H46018   2.946  11.572   1.134 -1.8761  1.4664 -1.1289
  349MOL0     H46019   2.999  11.766   1.264  2.2384 -0.3340 -1.3668
  349MOL0     H46020   3.134  11.643   1.295  1.5639  1.0000  0.4535
  349MOL0     H46021   3.012  11.894   1.508  3.3630 -0.9795 -0.6598
  349MOL0     H46022   3.056  11.926   1.754 -1.9018  0.2005  3.5650
  349MOL0     H46023   3.176  11.804   1.810 -1.1789 -0.4823  3.8142
  349MOL0     H46024   3.035  11.832   1.990  3.3689 -0.0889 -2.4054
  349MOL0     H46025   3.008  11.678   1.931  3.0635  0.7315  1.0224
  349MOL0     H46026   2.804  11.851   1.820 -2.2899 -1.0525  0.2573
  349MOL0     H46027   2.813  11.675   1.857 -2.0269  0.4470  0.1711
  349MOL0     H46028   2.663  11.818   2.024  0.8691  1.1323  0.3479
  349MOL0     H46029   2.818  11.884   2.082  2.6308 -0.1542 -0.9930
  349MOL0     H46030   2.867  11.510   2.312  3.2636  0.3109  0.5921
  349MOL0     H46031   2.860  11.545   2.564 -2.4738 -2.3538 -1.5551
  349MOL0     H46032   2.952  12.029   2.899  1.1713  2.3359  2.7221
  349MOL0     H46033   2.972  12.045   3.140  2.9016 -2.9723 -2.3738
  349MOL0     H46034   2.796  11.752   3.374 -0.0281  0.2444  0.6956
  349MOL0     H46035   2.668  11.867   3.426  0.9637  0.7712  1.5255
  349MOL0     H46036   2.811  11.793   3.611  2.1029 -1.3719 -0.8578
  349MOL0     H46037   2.825  11.973   3.589  0.5631 -0.3810  4.1271
  349MOL0     H46038   3.034  11.930   3.446 -1.2628 -2.1954 -3.1633
  349MOL0     H46039   3.026  11.761   3.496 -1.3283  0.7587 -0.4090
  349MOL0     H46040   3.081  12.012   3.655  0.6664  0.4751 -0.8169
  349MOL0     H46041   3.053  11.861   3.740  0.2661 -2.1113 -0.4211
  349MOL0     H46042   3.298  11.905   3.688 -0.3888 -1.3534  0.1457
  349MOL0     H46043   3.270  11.877   3.516  0.5427 -1.3660 -0.6348
  349MOL0     H46044   3.186  11.640   3.571  0.3303 -2.7496  1.2416
  349MOL0     H46045   3.241  11.675   3.734  1.0454  0.4850  0.0075
  349MOL0     H46046   3.446  11.750   3.571  1.2440 -0.6493  0.1938
  349MOL0     H46047   3.437  11.597   3.661 -1.9558 -0.1770  0.2750
  349MOL0     H46048   3.359  11.651   3.370 -0.1786 -0.6238 -1.0902
  349MOL0     H46049   3.315  11.493   3.453 -1.0468  0.2427 -1.6396
  349MOL0     H46050   2.624  11.800   3.192  0.9391  0.7914  1.3542
  349MOL0     H46051   2.625  11.758   2.932  1.8430 -2.5083  0.3944
  349MOL0     H46052   2.713  11.946   2.513  1.3335 -0.3294 -0.0933
  349MOL0     H46053   2.686  11.898   2.268 -2.2085 -2.5290 -1.8143
  349MOL0     H46054   2.258  11.333   1.694 -0.4303 -0.0951  1.5543
  349MOL0     H46055   2.060  11.210   1.800 -0.4706  1.6546  0.3525
  349MOL0     H46056   1.702  10.948   1.723  0.6174  1.0789 -0.5006
  349MOL0     H46057   1.573  10.809   1.872  5.3178 -1.0882  1.3913
  349MOL0     H46058   1.509  10.698   2.051 -0.6023  0.0723 -2.6245
  349MOL0     H46059   1.352  10.732   1.980 -1.1661 -1.7664  1.6885
  349MOL0     H46060   1.389  10.759   2.266  1.2131  2.0700 -1.4575
  349MOL0     H46061   1.230  10.754   2.170  0.0123 -0.2595  0.0883
  349MOL0     H46062   1.430  10.524   2.227  1.0537 -0.3286 -0.7061
  349MOL0     H46063   1.303  10.515   2.105  0.3176 -1.5262 -0.3556
  349MOL0     H46064   1.268  10.406   2.345 -2.3414 -1.2770 -0.2755
  349MOL0     H46065   1.247  10.579   2.397 -4.7634  2.9641 -1.4299
  349MOL0     H46066   0.885  10.508   2.211 -0.2019 -0.1654  0.8328
  349MOL0     H46067   1.462  11.152   2.098  1.2518 -0.6020  1.4033
  349MOL0     H46068   1.551  11.300   1.927 -0.3718 -0.1846  0.6490
  350MOL0     O46069   7.552   6.287   0.424  0.4536  0.4393 -0.5297
  350MOL0     C46070   7.663   6.317   0.380 -0.0672  0.4190 -0.1570
  350MOL0     O46071   7.740   6.225   0.314 -0.5038 -0.2859 -0.9969
  350MOL0     C46072   7.715   6.082   0.305 -0.8436 -0.5054 -1.0043
  350MOL0     C46073   7.788   6.009   0.208  0.9003  0.3611 -0.0128
  350MOL0     C46074   7.757   5.872   0.183  0.1800 -0.0668 -0.4654
  350MOL0     C46075   7.668   5.800   0.266  0.1116  0.2487 -0.0850
  350MOL0     O46076   7.662   5.666   0.264  0.2105 -0.2131 -0.6659
  350MOL0     C46077   7.759   5.615   0.349 -0.7058 -0.4445 -0.1033
  350MOL0     C46078   7.750   5.456   0.339  0.6277  0.1961 -0.1637
  350MOL0     C46079   7.778   5.390   0.206  0.6018 -0.4660  0.0931
  350MOL0     C46080   7.700   5.261   0.192  0.2690  0.4054  0.4197
  350MOL0     C46081   7.776   5.135   0.241  0.0701 -0.6349  0.9164
  350MOL0     C46082   7.732   5.005   0.175 -0.1728 -0.7224  0.4529
  350MOL0     C46083   7.796   4.890   0.266  1.0876 -0.3604  0.6189
  350MOL0     C46084   7.752   4.744   0.235  0.1833 -0.6152 -0.1616
  350MOL0     N46085   7.767   4.701   0.091  1.4439 -0.2353  0.3821
  350MOL0     C46086   7.851   4.749  -0.009  0.0815  0.0920 -1.0144
  350MOL0     C46087   7.832   4.681  -0.115  1.2224 -0.6521 -0.0281
  350MOL0     C46088   7.903   4.691  -0.253 -0.4998 -0.0607 -0.3215
  350MOL0     C46089   7.901   4.834  -0.301  0.4102 -0.2876  0.9292
  350MOL0     C46090   8.010   4.874  -0.406 -0.0793 -0.0274  0.3933
  350MOL0     C46091   7.954   4.975  -0.508 -0.7855  0.2434 -0.0281
  350MOL0     O46092   8.053   5.019  -0.599 -0.0728  0.4868 -0.1236
  350MOL0     C46093   8.011   5.134  -0.674 -0.3504  0.3738  0.0868
  350MOL0     C46094   8.023   5.254  -0.613 -0.0851 -0.0448 -0.1239
  350MOL0     C46095   7.988   5.375  -0.674  0.4008  0.2447 -0.8309
  350MOL0     C46096   7.931   5.382  -0.793 -0.6029  0.1855  0.7968
  350MOL0     C46097   7.900   5.503  -0.861 -0.1390  0.0270 -0.0344
  350MOL0     O46098   7.918   5.618  -0.784 -0.1003  0.2575 -0.1127
  350MOL0     C46099   7.932   5.745  -0.821 -0.5907  0.0585  0.3165
  350MOL0     C46100   7.954   5.783  -0.956  0.7113  0.0614  0.5320
  350MOL0     C46101   7.969   5.916  -0.992  0.7930  1.5103 -0.4116
  350MOL0     C46102   7.964   6.013  -0.890 -0.1321  0.1100 -0.5455
  350MOL0     O46103   7.945   6.140  -0.934  0.5942 -0.1885  0.4301
  350MOL0     C46104   8.037   6.230  -0.872 -0.9116 -0.7301  0.5954
  350MOL0     C46105   8.040   6.355  -0.961  0.4600  0.5699  0.2580
  350MOL0     C46106   8.101   6.334  -1.107 -0.5518 -0.0493  0.3285
  350MOL0     C46107   8.254   6.304  -1.114  0.0703  0.5116 -0.1844
  350MOL0     C46108   8.303   6.342  -1.254 -0.3270  0.8057  0.2205
  350MOL0     C46109   8.440   6.282  -1.280 -0.1907 -0.8666  0.2375
  350MOL0     C46110   8.543   6.366  -1.205 -0.1680  0.5835 -0.4762
  350MOL0     C46111   8.671   6.403  -1.277 -0.4774  0.1330 -0.6173
  350MOL0    Cl46112   8.621   6.469  -1.440 -0.1334  0.3164 -0.6019
  350MOL0     C46113   7.946   5.974  -0.762  0.1152 -0.6730  0.0927
  350MOL0     C46114   7.934   5.845  -0.727 -0.0153  0.1579 -0.2599
  350MOL0     O46115   7.864   5.497  -0.978 -0.4319  0.6437 -0.8600
  350MOL0     C46116   7.904   5.261  -0.855 -1.0315  1.4592  0.0191
  350MOL0     C46117   7.945   5.137  -0.795  0.3972 -0.5885 -0.1190
  350MOL0     N46118   7.747   4.586  -0.074  0.8763  0.4642  0.1734
  350MOL0     N46119   7.703   4.591   0.041  0.0593 -1.1886  0.3727
  350MOL0     C46120   7.605   5.869   0.370 -0.3695 -0.3404  0.2099
  350MOL0     C46121   7.625   6.009   0.381  0.2838 -0.2454 -0.1952
  350MOL0     C46122   7.705   6.453   0.375  0.2064  0.1521 -0.0968
  350MOL0     C46123   7.838   6.479   0.324 -0.3910  0.5835  0.2015
  350MOL0     C46124   7.882   6.608   0.314  0.2375  0.2169  0.8066
  350MOL0     C46125   7.795   6.720   0.349  0.2324  1.0817 -0.3985
  350MOL0     O46126   7.822   6.855   0.332 -0.7873 -0.1775  0.6667
  350MOL0     C46127   7.900   6.881   0.211 -0.5064 -0.9409  0.6404
  350MOL0     C46128   7.841   7.002   0.145 -1.0053 -0.4631  0.0967
  350MOL0     C46129   7.734   6.992   0.034  0.2780 -0.4799  0.3938
  350MOL0     C46130   7.597   6.942   0.091  1.3874  0.7946 -0.3207
  350MOL0     C46131   7.540   7.047   0.173  0.7353 -0.5228 -0.1760
  350MOL0     C46132   7.476   7.143   0.221  0.0893 -0.6816 -0.8611
  350MOL0     C46133   7.670   6.690   0.399  0.7296  0.5031 -0.4963
  350MOL0     C46134   7.622   6.557   0.420  0.3243  0.6729 -0.2650
  350MOL0     H46135   7.858   6.055   0.139  0.9922  1.2008  0.6140
  350MOL0     H46136   7.806   5.815   0.105  2.7138 -0.4595  1.2959
  350MOL0     H46137   7.753   5.646   0.453  1.0172  2.7728 -0.8469
  350MOL0     H46138   7.855   5.658   0.317 -0.5361  0.3122  1.3199
  350MOL0     H46139   7.648   5.433   0.370  0.8090 -2.7814 -1.4139
  350MOL0     H46140   7.820   5.408   0.408  0.2577 -0.2594 -0.1041
  350MOL0     H46141   7.886   5.374   0.211  0.6258 -0.2517  0.2593
  350MOL0     H46142   7.748   5.460   0.126  3.4327  0.9281  0.1393
  350MOL0     H46143   7.602   5.270   0.241 -0.3982  2.0306 -1.0959
  350MOL0     H46144   7.686   5.250   0.084  1.1973  1.7044  0.1391
  350MOL0     H46145   7.772   5.133   0.350  1.1855  0.4600  0.9889
  350MOL0     H46146   7.878   5.156   0.207 -0.3909  1.6809  0.8123
  350MOL0     H46147   7.765   5.013   0.072 -1.5873  1.5512  0.0875
  350MOL0     H46148   7.624   4.989   0.168  0.1136 -2.2970 -0.6296
  350MOL0     H46149   7.899   4.906   0.235  1.3702 -0.4828  1.4752
  350MOL0     H46150   7.772   4.906   0.372  0.6659 -1.3017  0.6727
  350MOL0     H46151   7.645   4.747   0.256  0.4649  1.4352  1.2024
  350MOL0     H46152   7.812   4.673   0.294  1.7205 -0.5168 -1.5375
  350MOL0     H46153   7.919   4.832   0.004 -3.3513  3.0622 -0.2092
  350MOL0     H46154   7.838   4.629  -0.315 -3.8318 -0.9045  3.6114
  350MOL0     H46155   8.009   4.666  -0.241  0.1053  2.5081  0.4935
  350MOL0     H46156   7.901   4.913  -0.227  2.3045 -1.5767  2.3899
  350MOL0     H46157   7.805   4.836  -0.354  1.0126 -1.7583 -0.3298
  350MOL0     H46158   8.094   4.916  -0.351  1.8284 -0.7452 -1.8393
  350MOL0     H46159   8.049   4.782  -0.451 -3.1662 -0.3045 -2.0678
  350MOL0     H46160   7.925   5.049  -0.433 -1.6434  0.6164 -0.7087
  350MOL0     H46161   7.867   4.948  -0.568 -1.1216  4.1389 -1.5422
  350MOL0     H46162   8.061   5.276  -0.514 -3.2833  4.1315  0.4527
  350MOL0     H46163   8.016   5.472  -0.635  1.6007  0.5419 -2.3411
  350MOL0     H46164   7.950   5.723  -1.046 -2.6079  0.5647  0.1876
  350MOL0     H46165   7.983   5.959  -1.091 -1.6107 -0.9778 -2.0059
  350MOL0     H46166   8.139   6.189  -0.865  2.2693  5.9196  1.7171
  350MOL0     H46167   8.006   6.270  -0.775 -0.0203  4.4610 -0.9028
  350MOL0     H46168   8.100   6.428  -0.906  1.1717  1.0573 -1.1116
  350MOL0     H46169   7.939   6.396  -0.965  0.4110  0.3680 -1.7346
  350MOL0     H46170   8.097   6.431  -1.157  0.7905 -0.3072 -0.3177
  350MOL0     H46171   8.048   6.259  -1.166 -1.5230 -0.1975  1.3387
  350MOL0     H46172   8.299   6.354  -1.028 -0.3711  3.2419 -1.4462
  350MOL0     H46173   8.263   6.196  -1.103  0.4983  0.7761  3.3813
  350MOL0     H46174   8.312   6.448  -1.279 -1.1248  0.5111 -1.4978
  350MOL0     H46175   8.237   6.294  -1.327 -1.1179 -1.8253  2.5060
  350MOL0     H46176   8.470   6.286  -1.385  0.0472  2.4999  0.3041
  350MOL0     H46177   8.450   6.185  -1.232  3.8492 -0.3137  0.8550
  350MOL0     H46178   8.504   6.462  -1.170  1.7449  1.7984 -1.4567
  350MOL0     H46179   8.566   6.306  -1.116  1.7414  1.4977 -0.2851
  350MOL0     H46180   8.725   6.309  -1.290 -1.5742 -0.2482 -3.0642
  350MOL0     H46181   8.738   6.462  -1.214  1.4666 -3.0034  0.4592
  350MOL0     H46182   7.925   6.047  -0.685 -0.4472  0.9604 -1.5467
  350MOL0     H46183   7.930   5.812  -0.624  0.0102 -2.2900 -0.9788
  350MOL0     H46184   7.879   5.247  -0.960  2.3751  1.7831 -0.9577
  350MOL0     H46185   7.930   5.043  -0.847  1.2635 -0.3899 -0.7585
  350MOL0     H46186   7.527   5.829   0.434 -0.7712  0.2090  0.0729
  350MOL0     H46187   7.579   6.038   0.475  0.6905 -1.9463  0.5700
  350MOL0     H46188   7.898   6.397   0.286 -2.1361  0.5441 -2.8002
  350MOL0     H46189   7.977   6.636   0.270 -0.3931  3.0028  1.0333
  350MOL0     H46190   7.903   6.796   0.143 -0.7680 -2.1125  2.0332
  350MOL0     H46191   8.000   6.900   0.251 -0.2765 -3.1574  1.3031
  350MOL0     H46192   7.799   7.077   0.212 -1.3533 -1.5368  1.1023
  350MOL0     H46193   7.923   7.048   0.089 -0.7173 -1.3514 -0.2144
  350MOL0     H46194   7.771   6.933  -0.050  4.5089 -0.6562  2.1169
  350MOL0     H46195   7.714   7.096   0.007 -0.2982  0.5873  4.2383
  350MOL0     H46196   7.524   6.913   0.015  1.9279 -1.7720  0.0430
  350MOL0     H46197   7.609   6.849   0.147  0.6064  0.4307 -0.7340
  350MOL0     H46198   7.439   7.232   0.269 -0.6843 -1.6309  0.3635
  350MOL0     H46199   7.616   6.781   0.422 -1.9747 -1.2065  0.3887
  350MOL0     H46200   7.528   6.536   0.469  0.7720 -0.0327  0.3180
  351MOL0     O46201   6.829   7.225   5.336  0.4044 -0.3091 -0.2834
  351MOL0     C46202   6.882   7.176   5.431 -0.1836 -0.9880 -0.6888
  351MOL0     O46203   7.005   7.125   5.446 -0.1329 -0.0794 -0.2605
  351MOL0     C46204   7.065   7.050   5.347 -1.1131 -0.7375 -0.4524
  351MOL0     C46205   7.049   7.071   5.214  0.5597 -0.5170  0.0708
  351MOL0     C46206   7.124   6.991   5.123  0.4440  0.2056 -0.2886
  351MOL0     C46207   7.217   6.893   5.165 -0.3539 -0.1532  0.9091
  351MOL0     O46208   7.285   6.819   5.072 -0.1413 -0.6192  0.1478
  351MOL0     C46209   7.382   6.727   5.109 -0.8713 -0.2404  0.2887
  351MOL0     C46210   7.431   6.661   4.986  0.7704  0.6181  0.1745
  351MOL0     C46211   7.506   6.750   4.883 -0.0769  0.0083 -1.1531
  351MOL0     C46212   7.539   6.669   4.756 -0.5647  0.9072  0.6802
  351MOL0     C46213   7.593   6.758   4.654  0.3521  0.2976  0.6088
  351MOL0     C46214   7.593   6.691   4.518 -0.1011 -0.1560 -0.4587
  351MOL0     C46215   7.689   6.754   4.436  0.6022 -0.8328 -0.1287
  351MOL0     C46216   7.821   6.674   4.409  0.4837 -0.5510  0.4966
  351MOL0     N46217   7.899   6.655   4.530  0.5228  0.6810 -0.2628
  351MOL0     C46218   7.898   6.551   4.624 -0.2662  0.1262  0.4416
  351MOL0     C46219   7.990   6.578   4.718 -0.3068  0.5562 -0.0734
  351MOL0     C46220   8.028   6.507   4.841 -0.4515  0.3673  0.7123
  351MOL0     C46221   7.923   6.515   4.957  0.5907 -0.3107  0.8616
  351MOL0     C46222   7.956   6.419   5.072  0.1658 -0.3764  0.0390
  351MOL0     C46223   8.090   6.450   5.147 -0.8269  0.1439  0.3971
  351MOL0     O46224   8.100   6.594   5.185 -0.6385  0.4654 -0.4175
  351MOL0     C46225   8.018   6.643   5.283 -0.2018 -0.1488  0.2364
  351MOL0     C46226   8.000   6.581   5.406  0.4831 -0.2958  0.3425
  351MOL0     C46227   7.922   6.647   5.509  0.5642 -0.1797  0.2402
  351MOL0     C46228   7.860   6.769   5.471 -0.0126 -0.2044  0.4043
  351MOL0     C46229   7.767   6.836   5.563 -0.8551 -0.0023 -0.6214
  351MOL0     O46230   7.666   6.907   5.510  0.0825 -0.2019  0.0896
  351MOL0     C46231   7.562   6.961   5.578 -0.2281  0.0609  0.8836
  351MOL0     C46232   7.487   7.056   5.513 -0.3346  0.0455  0.1112
  351MOL0     C46233   7.372   7.113   5.577 -0.0582  0.1999  0.5941
  351MOL0     C46234   7.345   7.083   5.706 -0.7903 -0.5112  0.4311
  351MOL0     O46235   7.251   7.151   5.776 -0.3175  0.7146 -0.4038
  351MOL0     C46236   7.306   7.229   5.882  0.6981 -0.9694  0.0872
  351MOL0     C46237   7.195   7.270   5.974 -0.4952 -0.5783 -0.5838
  351MOL0     C46238   7.159   7.164   6.082  0.0219  0.7176 -0.6920
  351MOL0     C46239   7.268   7.127   6.193  0.7048  0.8766 -0.4717
  351MOL0     C46240   7.265   7.219   6.311 -0.0510  0.0750 -0.5147
  351MOL0     C46241   7.316   7.147   6.438 -0.3070 -1.3904  0.6304
  351MOL0     C46242   7.307   7.232   6.573  0.0291  0.2526  0.6748
  351MOL0     C46243   7.309   7.137   6.696 -0.4921 -0.5658  1.3347
  351MOL0    Cl46244   7.455   7.024   6.662 -0.0584  0.1007  0.0600
  351MOL0     C46245   7.428   6.993   5.771  0.3055  0.3002  0.5682
  351MOL0     C46246   7.529   6.929   5.706 -0.1569  0.1427 -0.6845
  351MOL0     O46247   7.803   6.822   5.677 -0.3870  0.7463 -0.1116
  351MOL0     C46248   7.871   6.826   5.347 -1.0584  1.3269  0.2272
  351MOL0     C46249   7.945   6.761   5.251 -0.1017 -0.8439 -0.1582
  351MOL0     N46250   8.044   6.701   4.687 -0.6829  0.6886  0.2306
  351MOL0     N46251   7.979   6.746   4.582 -0.4395 -0.4079  0.9818
  351MOL0     C46252   7.233   6.877   5.302 -0.5548  0.1110 -0.5695
  351MOL0     C46253   7.157   6.957   5.394  0.0950 -0.0509 -0.4209
  351MOL0     C46254   6.798   7.211   5.551  0.0439  1.6536  0.0754
  351MOL0     C46255   6.673   7.258   5.551  1.2354 -0.3406  0.3032
  351MOL0     C46256   6.602   7.291   5.674  0.2966 -0.1180 -0.3519
  351MOL0     C46257   6.661   7.281   5.797  0.1605 -0.3927 -0.3158
  351MOL0     O46258   6.604   7.304   5.920 -1.0638 -0.5483  0.2689
  351MOL0     C46259   6.482   7.365   5.919 -0.0354  0.2983  0.2423
  351MOL0     C46260   6.434   7.419   6.049 -0.5162  0.2874 -0.2859
  351MOL0     C46261   6.408   7.307   6.146  0.3077  0.4177  0.0082
  351MOL0     C46262   6.331   7.362   6.271  0.2893  0.1729 -0.2940
  351MOL0     C46263   6.401   7.471   6.329 -0.5954 -0.2805 -0.2874
  351MOL0     C46264   6.453   7.571   6.385  0.1147 -0.3042 -0.4142
  351MOL0     C46265   6.785   7.229   5.795 -0.5093 -0.5098  0.5311
  351MOL0     C46266   6.859   7.207   5.674  0.0829 -0.3541 -0.6810
  351MOL0     H46267   6.994   7.155   5.173 -1.9654 -1.2388  1.7491
  351MOL0     H46268   7.117   6.998   5.015  2.2731 -1.2161 -0.5488
  351MOL0     H46269   7.339   6.647   5.170 -1.3965 -1.1306 -1.1755
  351MOL0     H46270   7.470   6.775   5.151  1.1241  0.3444 -3.9992
  351MOL0     H46271   7.343   6.616   4.939 -1.6342  2.2409  2.7429
  351MOL0     H46272   7.501   6.583   5.016  2.7408  2.0616 -0.4507
  351MOL0     H46273   7.591   6.801   4.929 -0.8582  1.8219 -1.5973
  351MOL0     H46274   7.441   6.836   4.862  1.9440  2.5966  2.1204
  351MOL0     H46275   7.616   6.591   4.764  0.0997  1.3811 -0.7778
  351MOL0     H46276   7.454   6.610   4.721 -0.3808  0.1622  1.4365
  351MOL0     H46277   7.688   6.803   4.684 -0.9420  1.8537  2.5946
  351MOL0     H46278   7.522   6.839   4.639  0.4383  0.1333 -0.8654
  351MOL0     H46279   7.493   6.702   4.476 -0.3620 -1.9645 -0.4216
  351MOL0     H46280   7.621   6.587   4.540  1.8685  0.4045 -0.1408
  351MOL0     H46281   7.639   6.772   4.340  0.4306  0.4279  0.1801
  351MOL0     H46282   7.712   6.853   4.475 -0.6536 -0.6769  0.2724
  351MOL0     H46283   7.885   6.732   4.343  0.5715  1.1263  1.9734
  351MOL0     H46284   7.782   6.586   4.357 -1.6722 -0.3247  1.6142
  351MOL0     H46285   7.832   6.465   4.628 -0.7658  0.5358  1.7653
  351MOL0     H46286   8.112   6.567   4.876  0.6358 -1.6237  1.6660
  351MOL0     H46287   8.057   6.404   4.820 -1.2698 -0.3023  2.6359
  351MOL0     H46288   7.827   6.474   4.923  0.5031 -1.0599  1.9726
  351MOL0     H46289   7.914   6.619   4.989  2.1146  0.4558 -0.9712
  351MOL0     H46290   7.866   6.406   5.133  0.5270 -6.0302 -0.1133
  351MOL0     H46291   7.970   6.315   5.041  1.5051  0.5912 -3.0032
  351MOL0     H46292   8.179   6.417   5.093  0.5378  0.2863  2.4404
  351MOL0     H46293   8.096   6.381   5.231 -0.5807  1.8361  1.8177
  351MOL0     H46294   8.052   6.490   5.433 -1.2152 -0.7932  2.2160
  351MOL0     H46295   7.932   6.596   5.605 -0.4252 -2.9864 -1.0375
  351MOL0     H46296   7.504   7.068   5.407 -1.5965 -3.5322 -0.6197
  351MOL0     H46297   7.311   7.183   5.520 -0.6898 -0.7913  0.0111
  351MOL0     H46298   7.355   7.313   5.832 -0.1652 -1.1710 -1.1275
  351MOL0     H46299   7.386   7.185   5.942  2.7972  2.9148  0.4732
  351MOL0     H46300   7.108   7.304   5.916  0.5611 -0.7739 -2.3257
  351MOL0     H46301   7.228   7.355   6.035 -3.3411 -0.5745  1.1774
  351MOL0     H46302   7.140   7.064   6.042 -4.3904  1.6626 -1.5539
  351MOL0     H46303   7.071   7.199   6.137 -0.2357 -0.8175 -0.1014
  351MOL0     H46304   7.241   7.023   6.216 -0.0788  1.4453  1.3156
  351MOL0     H46305   7.369   7.127   6.152  0.5159  0.8697 -0.9465
  351MOL0     H46306   7.164   7.247   6.343  0.9855  0.2739  2.9567
  351MOL0     H46307   7.311   7.314   6.283 -1.0141  0.7006 -0.0251
  351MOL0     H46308   7.425   7.143   6.441 -0.1439  1.2507  0.6797
  351MOL0     H46309   7.264   7.051   6.448 -3.3525 -0.0055 -0.6823
  351MOL0     H46310   7.385   7.308   6.566  0.3993 -0.2330 -0.8013
  351MOL0     H46311   7.209   7.280   6.562 -0.9300 -2.0887 -2.1476
  351MOL0     H46312   7.214   7.082   6.696 -1.8767  1.7182  0.5319
  351MOL0     H46313   7.327   7.186   6.792  2.9223  1.8281 -0.3322
  351MOL0     H46314   7.414   6.962   5.873  3.3537 -0.6998  0.7718
  351MOL0     H46315   7.588   6.849   5.747  1.6813  2.7304  2.1628
  351MOL0     H46316   7.816   6.914   5.315  2.2306  2.7005 -2.2476
  351MOL0     H46317   7.947   6.799   5.149 -3.7166  0.0247 -0.0405
  351MOL0     H46318   7.300   6.802   5.341  0.5623  0.9892 -0.7512
  351MOL0     H46319   7.167   6.937   5.500 -2.1290  0.4696 -0.0633
  351MOL0     H46320   6.616   7.270   5.459  0.6822  1.4846  0.8392
  351MOL0     H46321   6.499   7.325   5.673  0.0993 -0.6847  0.0670
  351MOL0     H46322   6.410   7.288   5.890 -0.9393  0.5589  1.6819
  351MOL0     H46323   6.488   7.442   5.842  0.4326 -2.1544 -2.3614
  351MOL0     H46324   6.520   7.480   6.077 -0.4086 -0.9274  2.2283
  351MOL0     H46325   6.348   7.482   6.024 -0.8322  0.6710  1.6442
  351MOL0     H46326   6.493   7.248   6.181 -0.6926 -2.8806 -2.6129
  351MOL0     H46327   6.328   7.250   6.098  0.3324 -0.6980  1.2308
  351MOL0     H46328   6.232   7.397   6.240 -0.5222  0.4164  2.3261
  351MOL0     H46329   6.313   7.283   6.344 -3.0037  0.3550 -0.7645
  351MOL0     H46330   6.500   7.652   6.437  1.6878 -1.9322  0.8859
  351MOL0     H46331   6.835   7.228   5.891 -1.4178 -2.5259  1.0247
  351MOL0     H46332   6.966   7.189   5.677  1.1311  3.9817 -2.9363
  352MOL0     O46333   1.924   7.562   4.026  0.1499 -0.0453  0.9930
  352MOL0     C46334   1.813   7.612   3.990 -0.1940 -0.2255 -0.0098
  352MOL0     O46335   1.734   7.687   4.065 -0.3413  0.3649 -0.2986
  352MOL0     C46336   1.799   7.770   4.147 -0.7889 -0.0756 -0.8099
  352MOL0     C46337   1.721   7.831   4.248  0.2479  0.4225  0.0079
  352MOL0     C46338   1.772   7.913   4.342  0.1489 -0.7379  0.1619
  352MOL0     C46339   1.910   7.917   4.364  0.5073  0.2398 -0.3194
  352MOL0     O46340   1.967   7.978   4.474 -0.0215  0.0721 -0.4467
  352MOL0     C46341   1.892   7.935   4.587  0.0131 -0.3454 -0.1844
  352MOL0     C46342   1.963   7.972   4.713 -0.1483  0.0418  0.2698
  352MOL0     C46343   1.930   7.887   4.839 -0.0867 -0.1302 -0.5286
  352MOL0     C46344   1.981   7.950   4.969  0.5298 -0.8304 -0.0375
  352MOL0     C46345   1.981   7.850   5.077  1.2061  0.7106 -0.9588
  352MOL0     C46346   1.855   7.830   5.160  0.6918 -0.3124  0.0942
  352MOL0     C46347   1.849   7.926   5.285  0.2768  0.3423  0.2306
  352MOL0     C46348   1.867   8.080   5.256 -0.4642  0.5845  0.2451
  352MOL0     N46349   1.852   8.170   5.374 -0.6573  0.6919 -0.7895
  352MOL0     C46350   1.891   8.146   5.503 -0.1480  0.1608 -0.0439
  352MOL0     C46351   1.859   8.260   5.570  0.4135 -0.1554 -0.7862
  352MOL0     C46352   1.870   8.278   5.722  0.1663 -0.5512 -0.2603
  352MOL0     C46353   1.744   8.355   5.779  0.4399 -0.2470 -0.0533
  352MOL0     C46354   1.726   8.506   5.738  0.5586  0.8788 -0.1016
  352MOL0     C46355   1.757   8.606   5.853  0.6015 -0.3126  0.8136
  352MOL0     O46356   1.875   8.594   5.910  0.4700  0.0843 -0.5313
  352MOL0     C46357   1.931   8.691   5.991  0.9643 -1.0933 -0.3247
  352MOL0     C46358   1.849   8.792   6.054 -0.5293 -0.2017 -0.1074
  352MOL0     C46359   1.909   8.900   6.128  0.2907  0.4958  0.8264
  352MOL0     C46360   2.046   8.896   6.157 -0.1512 -0.4124  1.0327
  352MOL0     C46361   2.102   9.012   6.222 -0.0793  0.0968 -0.9790
  352MOL0     O46362   2.017   9.114   6.223  0.2419  0.0115  0.5157
  352MOL0     C46363   2.050   9.242   6.256  0.4242 -0.2269 -0.3537
  352MOL0     C46364   2.172   9.299   6.292  0.2209 -0.0025  0.2188
  352MOL0     C46365   2.183   9.435   6.329 -0.2979 -0.3380 -0.5724
  352MOL0     C46366   2.072   9.522   6.333 -0.1893  0.3573  0.5823
  352MOL0     O46367   2.081   9.651   6.364 -0.6882 -0.6488  0.5482
  352MOL0     C46368   2.194   9.715   6.289  0.3607  0.0913 -1.2507
  352MOL0     C46369   2.173   9.868   6.260  0.1325  0.1248 -0.2303
  352MOL0     C46370   2.022   9.901   6.227  0.3396 -0.0960  0.5240
  352MOL0     C46371   2.019  10.021   6.137 -0.1822 -0.6537  1.3441
  352MOL0     C46372   1.880  10.071   6.105  0.0802  0.0846  0.3040
  352MOL0     C46373   1.882  10.197   6.013  0.6911 -0.4688  0.4018
  352MOL0     C46374   1.763  10.289   6.016 -0.2286  0.1303 -0.9030
  352MOL0     C46375   1.631  10.209   6.050  0.3569  0.0675  0.6161
  352MOL0    Cl46376   1.494  10.316   6.008 -0.6895  0.0540  0.4098
  352MOL0     C46377   1.949   9.465   6.299  0.4268  0.0794 -0.1286
  352MOL0     C46378   1.935   9.329   6.262 -0.6721 -0.7859 -1.3243
  352MOL0     O46379   2.202   9.011   6.290 -0.2444 -0.0097  0.4058
  352MOL0     C46380   2.122   8.800   6.098 -0.9255 -0.4388  0.2619
  352MOL0     C46381   2.073   8.698   6.022  0.3364  0.3065 -0.6109
  352MOL0     N46382   1.807   8.352   5.487 -0.4343  0.2304 -0.4920
  352MOL0     N46383   1.809   8.306   5.365 -0.1929  0.6664 -0.0295
  352MOL0     C46384   1.992   7.868   4.263  0.2738  0.1604  0.1006
  352MOL0     C46385   1.942   7.799   4.151 -0.2482 -0.9727 -1.2112
  352MOL0     C46386   1.752   7.568   3.868  0.6037 -0.0224 -0.0553
  352MOL0     C46387   1.614   7.581   3.842 -0.5198  0.2712 -0.3550
  352MOL0     C46388   1.560   7.534   3.722 -0.7928  0.0700  0.1088
  352MOL0     C46389   1.642   7.493   3.614 -0.4748 -1.2124 -0.0070
  352MOL0     O46390   1.580   7.484   3.497  0.9964 -0.0759  0.5461
  352MOL0     C46391   1.571   7.354   3.443  1.4308  0.9381  0.2450
  352MOL0     C46392   1.634   7.346   3.302  0.1358 -0.2243 -0.3943
  352MOL0     C46393   1.625   7.208   3.231  0.2527 -0.4388 -0.2661
  352MOL0     C46394   1.738   7.103   3.273 -0.1780  0.5927 -0.0984
  352MOL0     C46395   1.874   7.153   3.275  0.7668 -0.0862  0.0675
  352MOL0     C46396   1.985   7.209   3.275 -0.1491 -0.0064 -0.2978
  352MOL0     C46397   1.779   7.487   3.640 -0.1921  0.3505  0.5514
  352MOL0     C46398   1.833   7.515   3.765  0.2958  0.1319 -0.3122
  352MOL0     H46399   1.614   7.831   4.233  0.6530 -0.4542 -3.9911
  352MOL0     H46400   1.701   7.957   4.411  0.7388  4.8922 -2.2630
  352MOL0     H46401   1.873   7.828   4.600 -0.8877  0.2113  4.9364
  352MOL0     H46402   1.797   7.987   4.603  1.2412  2.2378 -0.7385
  352MOL0     H46403   1.937   8.074   4.742  0.9254  2.0538 -4.7755
  352MOL0     H46404   2.068   7.986   4.686 -1.2932  2.6954 -3.7804
  352MOL0     H46405   1.979   7.790   4.824  0.7481  0.4071 -1.3414
  352MOL0     H46406   1.824   7.859   4.850 -1.0060  2.7087 -1.3442
  352MOL0     H46407   2.088   7.962   4.948  0.5756  1.7427  1.2408
  352MOL0     H46408   1.947   8.049   5.001  2.4724  0.7509 -2.4815
  352MOL0     H46409   2.066   7.883   5.138  1.3173  1.5871 -1.5854
  352MOL0     H46410   2.013   7.750   5.044  0.0173 -0.0177  0.0144
  352MOL0     H46411   1.852   7.725   5.193 -0.4037 -1.3876 -3.0327
  352MOL0     H46412   1.767   7.829   5.094 -0.4697 -0.8499  1.5733
  352MOL0     H46413   1.753   7.904   5.332 -1.0677  3.4501 -0.8461
  352MOL0     H46414   1.931   7.893   5.350  1.1688 -0.9102 -1.4364
  352MOL0     H46415   1.790   8.123   5.191 -0.7771 -0.7574 -0.3059
  352MOL0     H46416   1.964   8.099   5.211 -0.0626 -2.4995 -0.4143
  352MOL0     H46417   1.924   8.051   5.544 -1.2682  0.0633  0.6660
  352MOL0     H46418   1.961   8.325   5.762  0.2706 -0.4410 -0.6197
  352MOL0     H46419   1.874   8.184   5.778  3.5648  1.1139  2.7069
  352MOL0     H46420   1.737   8.345   5.888  1.2869  1.4615  0.1993
  352MOL0     H46421   1.647   8.316   5.746  0.4497  0.6750 -1.2687
  352MOL0     H46422   1.803   8.519   5.661  0.2641 -1.1898 -0.8055
  352MOL0     H46423   1.627   8.521   5.694  0.0830  0.9852  0.9874
  352MOL0     H46424   1.682   8.600   5.932  0.0341 -0.4343  0.2748
  352MOL0     H46425   1.742   8.705   5.807  0.3966 -0.0868  1.3568
  352MOL0     H46426   1.741   8.795   6.037 -0.7752  1.8037  1.4875
  352MOL0     H46427   1.833   8.970   6.161  0.6066  1.2667 -0.0260
  352MOL0     H46428   2.266   9.244   6.291  1.2120  1.5943 -2.3220
  352MOL0     H46429   2.280   9.468   6.364  0.6386  2.0999 -4.7289
  352MOL0     H46430   2.211   9.663   6.194 -2.4384 -1.0377 -1.2232
  352MOL0     H46431   2.284   9.693   6.347  1.0711 -0.7316 -2.6248
  352MOL0     H46432   2.230   9.897   6.172 -2.3627  0.6685 -1.7507
  352MOL0     H46433   2.216   9.920   6.346 -0.4748 -0.5505  0.5074
  352MOL0     H46434   1.972   9.931   6.319 -1.8564  2.8033 -1.4299
  352MOL0     H46435   1.968   9.813   6.189  1.0009 -0.5065  0.5137
  352MOL0     H46436   2.082  10.101   6.175 -1.4504  0.7883  0.5146
  352MOL0     H46437   2.056   9.983   6.041  0.6720 -0.0736  1.4338
  352MOL0     H46438   1.841  10.084   6.206 -0.5896 -0.1706  0.0834
  352MOL0     H46439   1.814   9.994   6.063 -2.5247  2.3397  0.0356
  352MOL0     H46440   1.892  10.171   5.907  2.0811 -2.3178  0.9381
  352MOL0     H46441   1.969  10.255   6.047 -0.3673  0.7072  1.2458
  352MOL0     H46442   1.778  10.359   6.099 -1.2609 -0.1416 -0.4716
  352MOL0     H46443   1.756  10.341   5.920 -0.0313  1.2560 -0.3289
  352MOL0     H46444   1.622  10.187   6.157  1.4374  0.8766  0.8959
  352MOL0     H46445   1.646  10.115   5.997  0.2245 -0.1507  0.9629
  352MOL0     H46446   1.860   9.526   6.307 -1.2389 -2.1179 -0.9940
  352MOL0     H46447   1.836   9.313   6.221 -1.1191  3.3913 -2.3277
  352MOL0     H46448   2.227   8.803   6.124 -0.3315 -0.1301 -1.9399
  352MOL0     H46449   2.127   8.617   5.974 -0.8880  0.1416 -1.7676
  352MOL0     H46450   2.097   7.884   4.285  1.0197 -4.5843  1.1144
  352MOL0     H46451   2.003   7.764   4.068  0.3932  0.6689 -1.4697
  352MOL0     H46452   1.537   7.609   3.913  0.2295  0.9238  0.2203
  352MOL0     H46453   1.453   7.517   3.722 -0.6244 -1.4387  2.3394
  352MOL0     H46454   1.465   7.337   3.426  1.7907  0.9052 -2.2991
  352MOL0     H46455   1.617   7.281   3.511  1.0174  0.3313 -0.1226
  352MOL0     H46456   1.577   7.411   3.235  1.4870  2.7043  1.1292
  352MOL0     H46457   1.733   7.393   3.296 -0.0041  0.3449  1.3289
  352MOL0     H46458   1.622   7.219   3.122 -2.7783 -1.4520 -0.3910
  352MOL0     H46459   1.532   7.163   3.267  0.4458 -1.1433 -0.6243
  352MOL0     H46460   1.715   7.063   3.372 -0.9985  0.7165 -0.2264
  352MOL0     H46461   1.724   7.025   3.198  0.1648  0.0427  0.3960
  352MOL0     H46462   2.082   7.253   3.278  0.4271 -1.2800  0.6661
  352MOL0     H46463   1.834   7.460   3.550  0.1896 -0.0835  0.9103
  352MOL0     H46464   1.939   7.519   3.789 -0.6407  3.2573  5.0370
  353MOL0     O46465   3.491  10.416   7.938 -0.1717  0.0171 -0.1180
  353MOL0     C46466   3.456  10.426   7.822 -0.2610  0.6039  0.1345
  353MOL0     O46467   3.391  10.334   7.749  0.6235  0.4817 -0.8812
  353MOL0     C46468   3.335  10.235   7.824  1.1486  0.7473 -0.0812
  353MOL0     C46469   3.377  10.106   7.815  0.6992  0.7924 -0.5072
  353MOL0     C46470   3.311   9.996   7.885  0.5889 -0.6579  0.0014
  353MOL0     C46471   3.197  10.016   7.962 -0.7043  0.3935  0.0232
  353MOL0     O46472   3.156   9.911   8.036  0.3867  0.3401  0.5182
  353MOL0     C46473   3.077   9.939   8.155  0.1529  0.1571  0.7999
  353MOL0     C46474   3.175   9.967   8.268 -0.1503  0.8488  0.2724
  353MOL0     C46475   3.284   9.857   8.290 -0.4588  0.8333 -0.9097
  353MOL0     C46476   3.382   9.911   8.397  0.9899 -0.5050 -0.6546
  353MOL0     C46477   3.499   9.805   8.423 -0.0951 -0.6387  0.9612
  353MOL0     C46478   3.584   9.854   8.546  0.0778  0.7554 -0.5409
  353MOL0     C46479   3.662   9.757   8.628 -0.2728 -0.1443  0.1345
  353MOL0     C46480   3.585   9.654   8.719 -0.2614  0.8690  0.7881
  353MOL0     N46481   3.676   9.564   8.795 -0.2846 -0.1212  0.6535
  353MOL0     C46482   3.785   9.610   8.857  0.2361 -0.3427 -1.0565
  353MOL0     C46483   3.830   9.499   8.923  0.3473  0.5916 -0.0716
  353MOL0     C46484   3.953   9.502   9.018 -0.6278 -0.4232 -0.1801
  353MOL0     C46485   3.927   9.594   9.141  0.8883 -0.0991  0.5760
  353MOL0     C46486   3.828   9.550   9.252 -0.8145 -0.4060  0.4295
  353MOL0     C46487   3.827   9.648   9.370  0.0764 -0.0529  0.5407
  353MOL0     O46488   3.968   9.656   9.420  0.0639 -0.5391 -0.8930
  353MOL0     C46489   3.978   9.736   9.531  0.4076  0.3956  0.5937
  353MOL0     C46490   3.871   9.809   9.584  0.4782 -0.0916  0.6968
  353MOL0     C46491   3.888   9.893   9.690 -0.4364  0.3186 -0.8725
  353MOL0     C46492   4.017   9.902   9.751 -0.9663  0.3820 -0.0072
  353MOL0     C46493   4.041  10.000   9.863 -1.0797  1.4221  0.4342
  353MOL0     O46494   4.169  10.058   9.867  0.8387  0.2198 -0.6097
  353MOL0     C46495   4.198  10.141   9.976  0.0454  0.3741  0.8035
  353MOL0     C46496   4.244  10.274   9.964 -0.2342 -0.3307  0.0371
  353MOL0     C46497   4.251  10.368  10.072  0.9302 -0.7534 -0.1666
  353MOL0     C46498   4.235  10.326  10.212 -0.6189 -0.5320  0.7929
  353MOL0     O46499   4.240  10.404  10.325  0.4471 -0.5101  0.7553
  353MOL0     C46500   4.293  10.539  10.309  0.6774 -0.1516 -0.3756
  353MOL0     C46501   4.437  10.557  10.261  1.6132  0.3187 -0.2360
  353MOL0     C46502   4.530  10.473  10.346  1.1453  0.1588 -1.1671
  353MOL0     C46503   4.545  10.526  10.490 -0.9435 -0.5650 -0.1825
  353MOL0     C46504   4.668  10.473  10.566  0.1263 -0.3417 -0.3331
  353MOL0     C46505   4.812  10.529  10.534  0.8664 -0.7360  0.5553
  353MOL0     C46506   4.916  10.468  10.629  0.7893  0.2027  0.4645
  353MOL0     C46507   5.018  10.571  10.664 -0.1512 -0.3442 -0.1548
  353MOL0    Cl46508   5.110  10.475  10.775  0.4921  0.1930 -0.7265
  353MOL0     C46509   4.187  10.194  10.220  0.0374  0.4641  0.0865
  353MOL0     C46510   4.170  10.106  10.105  0.3463 -0.6637 -0.0547
  353MOL0     O46511   3.943  10.038   9.926 -0.4434 -0.2110  0.3643
  353MOL0     C46512   4.117   9.828   9.698 -0.6834 -0.2076  0.3622
  353MOL0     C46513   4.106   9.742   9.590 -0.0373 -0.3774  0.6873
  353MOL0     N46514   3.742   9.394   8.902 -0.5349 -1.3122  0.5161
  353MOL0     N46515   3.655   9.428   8.813 -1.8652  0.4056 -0.2606
  353MOL0     C46516   3.146  10.146   7.968  0.1351 -0.4301  0.1561
  353MOL0     C46517   3.208  10.253   7.893  0.2323  0.4760  0.2235
  353MOL0     C46518   3.499  10.549   7.749  0.1239 -0.0795 -0.2450
  353MOL0     C46519   3.598  10.640   7.784  0.5788 -0.3588 -0.1783
  353MOL0     C46520   3.628  10.736   7.690 -0.0818 -0.1513 -0.7708
  353MOL0     C46521   3.565  10.763   7.573  0.5537 -0.1679 -0.1397
  353MOL0     O46522   3.593  10.865   7.489  0.6422 -0.2560  0.4487
  353MOL0     C46523   3.695  10.967   7.502  0.4134  0.1947  0.0017
  353MOL0     C46524   3.721  11.050   7.370 -0.4415 -0.0201 -0.0166
  353MOL0     C46525   3.582  11.096   7.311 -0.2357  1.5356 -0.4871
  353MOL0     C46526   3.595  11.199   7.196  0.4719  0.5267  0.6810
  353MOL0     C46527   3.621  11.333   7.253 -0.4142  0.7563  0.6459
  353MOL0     C46528   3.651  11.442   7.306 -0.5805  0.8748  1.0353
  353MOL0     C46529   3.457  10.686   7.541  0.3371  0.1642  0.4419
  353MOL0     C46530   3.426  10.578   7.623 -0.3194 -0.1057 -0.7860
  353MOL0     H46531   3.463  10.093   7.751  1.9388  3.5138  0.4453
  353MOL0     H46532   3.362   9.901   7.894  1.7770 -0.0916 -0.4554
  353MOL0     H46533   3.009   9.857   8.176 -1.4092  1.6029  1.6234
  353MOL0     H46534   3.004  10.019   8.141 -0.8233 -1.1822 -2.9821
  353MOL0     H46535   3.119   9.997   8.357 -1.2790  2.3134 -0.8842
  353MOL0     H46536   3.231  10.057   8.240 -0.0736  1.3039  1.8227
  353MOL0     H46537   3.334   9.824   8.198 -0.3212 -2.5034  0.2435
  353MOL0     H46538   3.243   9.766   8.334 -2.4883  0.1929 -3.7759
  353MOL0     H46539   3.428  10.010   8.391  0.6115 -0.1865  1.1260
  353MOL0     H46540   3.327   9.923   8.490  0.0600  1.7229 -1.4222
  353MOL0     H46541   3.555   9.797   8.329 -1.4749 -4.0323  0.2965
  353MOL0     H46542   3.463   9.702   8.433  0.3797 -0.7936  1.1160
  353MOL0     H46543   3.514   9.888   8.623 -0.3315 -1.2476  0.0550
  353MOL0     H46544   3.638   9.939   8.504 -1.7280  0.4425 -3.7924
  353MOL0     H46545   3.729   9.706   8.559  1.5700  1.1041  0.9196
  353MOL0     H46546   3.712   9.828   8.695  1.6210 -0.8214 -0.5068
  353MOL0     H46547   3.511   9.593   8.665 -0.1477  0.8865  0.6120
  353MOL0     H46548   3.532   9.715   8.793  1.9187  1.9870  1.5148
  353MOL0     H46549   3.816   9.714   8.851  0.6965 -0.4691 -0.9332
  353MOL0     H46550   4.044   9.535   8.968 -0.2812 -0.5591  0.3572
  353MOL0     H46551   3.979   9.397   9.027  3.5826  0.4717 -0.0156
  353MOL0     H46552   3.911   9.696   9.104 -1.9286  0.5047  3.1400
  353MOL0     H46553   4.027   9.605   9.184  0.6174 -0.8157  1.4167
  353MOL0     H46554   3.729   9.556   9.207 -0.8605  3.2161  0.7454
  353MOL0     H46555   3.857   9.446   9.274  1.5640 -0.4488 -2.2432
  353MOL0     H46556   3.752   9.615   9.443  0.2107  0.0145  0.7099
  353MOL0     H46557   3.789   9.743   9.331  0.4347 -0.9686 -2.2551
  353MOL0     H46558   3.768   9.809   9.550  1.0559 -3.9492 -1.7123
  353MOL0     H46559   3.810   9.966   9.710  0.5490  1.6521 -1.6966
  353MOL0     H46560   4.272  10.315   9.867 -1.2228  1.4633  0.4616
  353MOL0     H46561   4.263  10.473  10.046  1.5064 -1.4372 -3.0682
  353MOL0     H46562   4.277  10.592  10.404 -3.1881 -0.4921 -0.6648
  353MOL0     H46563   4.231  10.590  10.235 -0.1394  0.7203  0.8580
  353MOL0     H46564   4.468  10.662  10.262 -0.8797  1.1594 -1.5763
  353MOL0     H46565   4.436  10.534  10.154 -1.5080  3.2471 -1.0372
  353MOL0     H46566   4.635  10.469  10.313  2.4934 -2.1705  2.7456
  353MOL0     H46567   4.480  10.376  10.344 -0.5176  0.7053  3.1574
  353MOL0     H46568   4.555  10.634  10.481  2.9454 -0.8390 -0.4591
  353MOL0     H46569   4.459  10.493  10.549 -1.1063  0.1412 -0.0118
  353MOL0     H46570   4.681  10.369  10.534 -0.8848 -1.3411  2.2625
  353MOL0     H46571   4.650  10.473  10.674 -0.1897 -1.2360 -0.3778
  353MOL0     H46572   4.805  10.637  10.551  0.1447 -0.1937 -2.6622
  353MOL0     H46573   4.843  10.506  10.432  0.2231 -1.3350  0.4847
  353MOL0     H46574   4.870  10.427  10.719  4.3100 -0.5480  2.0895
  353MOL0     H46575   4.970  10.387  10.579  0.5540  0.4466 -0.2055
  353MOL0     H46576   4.972  10.658  10.711 -2.4027 -0.8704 -1.2198
  353MOL0     H46577   5.082  10.599  10.580 -0.0244  2.3179  0.7294
  353MOL0     H46578   4.155  10.148  10.313  0.8095 -1.3303 -0.4980
  353MOL0     H46579   4.135  10.006  10.130 -0.3978 -0.3739  0.0986
  353MOL0     H46580   4.221   9.838   9.729 -1.9094  2.4075  4.5099
  353MOL0     H46581   4.179   9.671   9.551 -0.9597 -1.5971  1.0920
  353MOL0     H46582   3.055  10.169   8.022 -0.7545 -0.7003 -1.1645
  353MOL0     H46583   3.159  10.350   7.892  0.7046  0.7457 -1.7226
  353MOL0     H46584   3.661  10.626   7.871 -1.4223 -3.0427  0.9819
  353MOL0     H46585   3.713  10.801   7.709  1.2138 -1.4925 -1.8180
  353MOL0     H46586   3.785  10.910   7.527 -0.0801 -0.4381  0.3352
  353MOL0     H46587   3.670  11.032   7.586  0.0557  3.7388 -2.6182
  353MOL0     H46588   3.788  11.134   7.390  1.5088 -1.7239  0.9093
  353MOL0     H46589   3.773  10.994   7.292 -1.8447  0.1482 -1.1357
  353MOL0     H46590   3.516  11.135   7.389 -1.3697  0.2876 -0.7850
  353MOL0     H46591   3.534  11.004   7.276 -0.7795 -0.1671  3.9895
  353MOL0     H46592   3.671  11.178   7.120  1.0420 -0.9086  1.5947
  353MOL0     H46593   3.494  11.206   7.156 -0.1594  0.5565  2.2018
  353MOL0     H46594   3.675  11.534   7.355  1.7158 -0.3687  2.3960
  353MOL0     H46595   3.406  10.707   7.447  0.9773 -0.5577 -0.0875
  353MOL0     H46596   3.340  10.515   7.603 -1.8549  0.3318  3.4508
  354MOL0     O46597   2.044   7.853   9.889  0.1893 -0.3888 -0.2225
  354MOL0     C46598   2.084   7.752   9.952  0.0806 -0.4043  0.0467
  354MOL0     O46599   2.097   7.626   9.895  1.3169 -0.3586  0.3615
  354MOL0     C46600   2.130   7.617   9.762 -0.2063  0.0186  0.2177
  354MOL0     C46601   2.117   7.497   9.705 -0.0659 -0.4694 -1.0622
  354MOL0     C46602   2.152   7.472   9.575 -0.7433 -0.7230 -0.0144
  354MOL0     C46603   2.217   7.575   9.503  0.6745 -0.1958  0.9055
  354MOL0     O46604   2.254   7.558   9.370  0.2634  0.2446 -0.4528
  354MOL0     C46605   2.347   7.642   9.304 -0.2788  0.1889 -0.8967
  354MOL0     C46606   2.359   7.588   9.157  0.8367  0.1374 -0.7116
  354MOL0     C46607   2.296   7.691   9.064 -0.5677 -0.0980 -0.3107
  354MOL0     C46608   2.295   7.631   8.926 -0.3844  0.2121 -0.3097
  354MOL0     C46609   2.283   7.714   8.802 -0.0213  0.1562  0.0051
  354MOL0     C46610   2.394   7.809   8.801 -0.6843  0.2683  0.0174
  354MOL0     C46611   2.534   7.750   8.799  0.3393  0.5166  0.9169
  354MOL0     C46612   2.566   7.654   8.683 -0.4913 -0.9775  0.2090
  354MOL0     N46613   2.709   7.640   8.671  0.5009  0.0888  1.0294
  354MOL0     C46614   2.784   7.569   8.762 -0.3654 -1.0351 -0.5938
  354MOL0     C46615   2.907   7.610   8.738 -0.0457 -0.9205 -0.3276
  354MOL0     C46616   3.027   7.570   8.821 -0.7455  0.1457  0.0991
  354MOL0     C46617   3.021   7.629   8.965  0.3715 -1.4474 -0.3784
  354MOL0     C46618   3.153   7.614   9.034  0.2889  0.2285  0.5002
  354MOL0     C46619   3.156   7.743   9.121 -0.3842 -0.1240  0.4529
  354MOL0     O46620   3.267   7.756   9.210  1.3022  0.0640  0.7007
  354MOL0     C46621   3.270   7.850   9.301  0.1250  0.1869  0.1646
  354MOL0     C46622   3.170   7.947   9.333 -0.3729 -0.0922  0.0669
  354MOL0     C46623   3.178   8.038   9.439  0.0177 -0.2646  0.4943
  354MOL0     C46624   3.300   8.041   9.510 -0.0010  1.0391 -0.8093
  354MOL0     C46625   3.323   8.131   9.624  0.1701 -0.4725 -0.7413
  354MOL0     O46626   3.445   8.134   9.680 -0.3350 -0.5570  0.2764
  354MOL0     C46627   3.471   8.242   9.767  0.3782  0.0444 -0.2858
  354MOL0     C46628   3.412   8.235   9.896  0.5793  1.4183  0.9683
  354MOL0     C46629   3.450   8.317  10.001  1.0251  0.0136 -0.4797
  354MOL0     C46630   3.553   8.417   9.982  0.6277  0.1493  0.3705
  354MOL0     O46631   3.606   8.494  10.075 -0.5272  0.7804  0.3926
  354MOL0     C46632   3.605   8.456  10.212 -0.0677  0.5690  0.6582
  354MOL0     C46633   3.707   8.549  10.272 -0.4505 -0.2032 -0.1551
  354MOL0     C46634   3.752   8.504  10.411  0.2995  0.0372 -1.0359
  354MOL0     C46635   3.817   8.623  10.485  0.0190  0.0916 -0.6989
  354MOL0     C46636   3.877   8.580  10.619 -0.0832  0.8114  0.3183
  354MOL0     C46637   3.945   8.693  10.687  0.4602  0.1493 -0.4130
  354MOL0     C46638   4.090   8.723  10.628  1.2495  0.2375 -0.2122
  354MOL0     C46639   4.154   8.832  10.701 -1.5678 -0.4133  0.6496
  354MOL0    Cl46640   4.299   8.874  10.611 -0.4572 -0.0860 -0.0588
  354MOL0     C46641   3.601   8.428   9.855  0.1200  0.0686  0.2345
  354MOL0     C46642   3.567   8.343   9.744  0.0797  0.2040 -0.4280
  354MOL0     O46643   3.228   8.198   9.663  0.2570  0.8083  0.1887
  354MOL0     C46644   3.405   7.953   9.478 -0.5495  0.8075  1.1020
  354MOL0     C46645   3.392   7.858   9.369  0.0020  0.0080 -0.1953
  354MOL0     N46646   2.915   7.694   8.638 -0.5239 -0.2851  0.1942
  354MOL0     N46647   2.791   7.727   8.603 -0.1194  0.1528 -0.4229
  354MOL0     C46648   2.244   7.699   9.561 -0.0991 -0.1059 -0.3533
  354MOL0     C46649   2.203   7.718   9.693  0.7522  0.0364 -0.7285
  354MOL0     C46650   2.147   7.771  10.088 -0.0897  0.2593 -0.6859
  354MOL0     C46651   2.112   7.878  10.163 -0.8428 -0.3928 -0.3809
  354MOL0     C46652   2.176   7.883  10.291  0.1422  1.1291  0.6298
  354MOL0     C46653   2.255   7.784  10.344  0.3699 -0.7173 -0.3661
  354MOL0     O46654   2.305   7.806  10.473  0.7944  0.3186 -0.1309
  354MOL0     C46655   2.410   7.902  10.487  0.3586  0.6174  0.5570
  354MOL0     C46656   2.546   7.840  10.522  0.4662 -0.2509  0.4605
  354MOL0     C46657   2.662   7.941  10.489 -0.6994 -0.0313 -0.2773
  354MOL0     C46658   2.634   8.096  10.508  0.5331 -0.0095 -0.0008
  354MOL0     C46659   2.759   8.169  10.476 -0.2541 -0.6220 -0.7866
  354MOL0     C46660   2.860   8.228  10.467 -0.6176  0.2351 -1.0405
  354MOL0     C46661   2.283   7.677  10.279  1.1217  0.3484  0.5871
  354MOL0     C46662   2.223   7.660  10.147  0.3876 -0.0895  0.6925
  354MOL0     H46663   2.084   7.411   9.762 -0.1209 -1.8480 -3.1051
  354MOL0     H46664   2.125   7.382   9.520 -2.3346 -0.2479 -0.0501
  354MOL0     H46665   2.445   7.650   9.353 -0.7227  2.0290 -0.2212
  354MOL0     H46666   2.335   7.750   9.315  4.0208  0.6992  0.9644
  354MOL0     H46667   2.310   7.490   9.151 -3.0458  1.8258  0.4245
  354MOL0     H46668   2.467   7.580   9.140  1.1373  1.5697  0.3006
  354MOL0     H46669   2.353   7.784   9.073 -0.1954 -0.3448 -0.0934
  354MOL0     H46670   2.193   7.707   9.099 -0.7568 -1.6603 -0.1065
  354MOL0     H46671   2.386   7.571   8.914 -1.6444 -2.3222  1.9082
  354MOL0     H46672   2.212   7.561   8.935  0.2204 -0.3868  0.8903
  354MOL0     H46673   2.192   7.775   8.805  2.1620  3.6480  0.1374
  354MOL0     H46674   2.270   7.641   8.721 -0.3949 -2.7900  2.4999
  354MOL0     H46675   2.399   7.881   8.883 -0.6897  1.9993 -1.4281
  354MOL0     H46676   2.367   7.868   8.712  0.1663  1.2574  0.3882
  354MOL0     H46677   2.603   7.835   8.795 -0.1260  1.0807  3.2707
  354MOL0     H46678   2.549   7.708   8.899 -2.9904 -0.2071  1.2135
  354MOL0     H46679   2.531   7.701   8.590  1.0778  1.4635  0.7681
  354MOL0     H46680   2.524   7.555   8.704 -2.5759 -0.7436 -2.2538
  354MOL0     H46681   2.747   7.493   8.830 -0.9876 -0.0921  0.1430
  354MOL0     H46682   3.108   7.610   8.760 -1.0158  0.4695 -0.0532
  354MOL0     H46683   3.034   7.462   8.834  0.9403  0.4965  3.0981
  354MOL0     H46684   2.943   7.585   9.028 -1.3339 -0.2137 -1.5549
  354MOL0     H46685   2.996   7.735   8.952 -2.8996 -2.1111 -0.3643
  354MOL0     H46686   3.183   7.526   9.093 -2.0430 -2.7389 -2.3493
  354MOL0     H46687   3.235   7.620   8.961 -1.8423  4.0012 -1.8903
  354MOL0     H46688   3.065   7.744   9.181 -1.2167 -0.4178 -0.7750
  354MOL0     H46689   3.157   7.831   9.056 -0.9405  0.8562  1.7133
  354MOL0     H46690   3.082   7.949   9.269  0.6415 -1.1075 -1.4100
  354MOL0     H46691   3.085   8.089   9.461 -0.2224  1.5775 -3.7616
  354MOL0     H46692   3.334   8.162   9.912 -0.5111  2.3227 -0.0424
  354MOL0     H46693   3.407   8.303  10.100 -1.2841 -0.8943 -1.5281
  354MOL0     H46694   3.638   8.352  10.219  3.6788  1.5622 -0.2312
  354MOL0     H46695   3.512   8.467  10.269 -0.3312  3.9756 -0.2345
  354MOL0     H46696   3.682   8.655  10.282  0.7584  0.1250 -0.4579
  354MOL0     H46697   3.801   8.549  10.216 -1.8486  0.3136 -2.6799
  354MOL0     H46698   3.831   8.428  10.417  0.3820  0.2201  0.4305
  354MOL0     H46699   3.665   8.461  10.461 -0.1072 -0.9729 -2.5340
  354MOL0     H46700   3.904   8.654  10.426  1.3301 -1.0377  0.5697
  354MOL0     H46701   3.744   8.704  10.494  1.4111  1.2944  0.5237
  354MOL0     H46702   3.946   8.496  10.617  0.5045  1.2961 -0.4397
  354MOL0     H46703   3.793   8.549  10.681 -1.0589  0.8403 -0.9444
  354MOL0     H46704   3.946   8.665  10.793 -4.2372  2.1307  0.4305
  354MOL0     H46705   3.884   8.783  10.680 -0.1919  0.0277  2.4117
  354MOL0     H46706   4.152   8.634  10.617  1.0866  0.3666 -2.8969
  354MOL0     H46707   4.056   8.773  10.536  1.4920  0.7587 -0.0272
  354MOL0     H46708   4.184   8.802  10.802  0.6814 -0.0547  0.1504
  354MOL0     H46709   4.088   8.917  10.721 -2.0665 -0.9951  1.5829
  354MOL0     H46710   3.678   8.505   9.851  0.6116 -0.2571  2.4610
  354MOL0     H46711   3.612   8.343   9.646 -0.9564 -2.0457 -0.9616
  354MOL0     H46712   3.490   7.964   9.544 -1.1306  1.5543  1.7404
  354MOL0     H46713   3.465   7.779   9.350 -1.8062 -1.9801  0.6404
  354MOL0     H46714   2.283   7.781   9.502 -0.7765  0.8021  0.4143
  354MOL0     H46715   2.231   7.804   9.752 -1.1578 -0.7727  1.5409
  354MOL0     H46716   2.054   7.963  10.126  0.5262  0.5476 -0.4347
  354MOL0     H46717   2.164   7.956  10.371  1.6941  1.4989  0.5582
  354MOL0     H46718   2.372   7.972  10.563 -1.8427 -0.1651  0.2525
  354MOL0     H46719   2.416   7.946  10.387  2.4972 -1.5717 -0.3771
  354MOL0     H46720   2.539   7.821  10.629  1.1455  2.9819  1.1917
  354MOL0     H46721   2.555   7.743  10.472  0.6753 -1.3844  2.5742
  354MOL0     H46722   2.683   7.915  10.385 -4.0964  0.4919 -1.1858
  354MOL0     H46723   2.744   7.915  10.557 -2.1020  0.5941  1.7467
  354MOL0     H46724   2.556   8.116  10.434  0.8199  0.6331 -0.1347
  354MOL0     H46725   2.603   8.124  10.610 -2.2994 -0.0895 -0.7506
  354MOL0     H46726   2.947   8.290  10.455 -2.4424  3.5299  1.3455
  354MOL0     H46727   2.318   7.587  10.328 -0.4612 -1.0654 -0.7678
  354MOL0     H46728   2.236   7.567  10.092 -0.6580 -1.0305  2.0045
  355MOL0     O46729  10.447   4.456   2.612  0.4383 -0.4101 -0.0597
  355MOL0     C46730  10.475   4.418   2.497 -1.2294 -0.4391 -0.7331
  355MOL0     O46731  10.531   4.501   2.397  0.0589 -0.6998 -0.1561
  355MOL0     C46732  10.536   4.635   2.411  0.6846 -0.2558 -0.1103
  355MOL0     C46733  10.624   4.719   2.485 -0.2527 -0.9016  0.6771
  355MOL0     C46734  10.602   4.854   2.484 -0.0664  0.2402 -0.1070
  355MOL0     C46735  10.496   4.911   2.414 -1.3508 -0.9509  0.0794
  355MOL0     O46736  10.496   5.044   2.416  0.2798 -0.3738  0.4411
  355MOL0     C46737  10.598   5.113   2.346 -0.2329 -0.4995 -1.0136
  355MOL0     C46738  10.665   5.203   2.451  0.0464 -0.2554 -0.1453
  355MOL0     C46739  10.775   5.304   2.407  1.0149  0.0158 -0.2412
  355MOL0     C46740  10.833   5.362   2.536  1.0779  0.4878 -0.0516
  355MOL0     C46741  10.963   5.434   2.495 -0.3264  0.5619 -0.2185
  355MOL0     C46742  11.021   5.489   2.620  0.3600 -0.0572  0.4728
  355MOL0     C46743  11.097   5.619   2.587  0.2314 -0.0339 -0.2331
  355MOL0     C46744  11.227   5.613   2.513  0.1531 -0.5232 -0.2462
  355MOL0     N46745  11.300   5.735   2.486  0.2971  0.2814  0.6362
  355MOL0     C46746  11.263   5.869   2.522  0.0587  0.0996 -0.3351
  355MOL0     C46747  11.349   5.945   2.449  0.6411  0.6897 -0.5092
  355MOL0     C46748  11.333   6.096   2.445 -1.1354 -0.1733 -0.2240
  355MOL0     C46749  11.204   6.137   2.365 -0.0093  0.3487 -0.4589
  355MOL0     C46750  11.172   6.084   2.227 -0.2097  0.1658 -0.4214
  355MOL0     C46751  11.283   6.123   2.131 -0.2862  0.2353 -0.0113
  355MOL0     O46752  11.249   6.091   1.998 -0.2291  0.8264 -0.5170
  355MOL0     C46753  11.302   5.971   1.945  0.2714 -0.2022  0.0169
  355MOL0     C46754  11.382   5.875   2.004  0.1195 -0.1308 -0.7908
  355MOL0     C46755  11.456   5.780   1.922  0.1984  0.5750  0.2934
  355MOL0     C46756  11.434   5.775   1.787  0.8329  0.0810  0.8059
  355MOL0     C46757  11.498   5.668   1.694  1.0118 -2.0226 -0.1634
  355MOL0     O46758  11.571   5.578   1.760 -0.0213 -0.3932  0.0494
  355MOL0     C46759  11.573   5.452   1.706  0.0380  0.7649 -1.2468
  355MOL0     C46760  11.620   5.422   1.578 -0.3863 -0.3638  0.4447
  355MOL0     C46761  11.612   5.290   1.528 -0.0014  1.3440 -0.0683
  355MOL0     C46762  11.573   5.181   1.602 -0.3899  0.1233  0.5390
  355MOL0     O46763  11.568   5.049   1.558 -0.2101  0.2790 -0.5245
  355MOL0     C46764  11.671   4.997   1.467 -1.3905 -1.1129 -0.2563
  355MOL0     C46765  11.692   4.844   1.514 -0.0626  0.3072  0.8154
  355MOL0     C46766  11.782   4.763   1.424  0.4547 -0.2645 -0.2426
  355MOL0     C46767  11.899   4.838   1.354 -0.7292 -0.7914 -0.6674
  355MOL0     C46768  11.981   4.740   1.253  0.3321  0.1659  0.5561
  355MOL0     C46769  12.099   4.827   1.195  0.3874  0.3088  0.0649
  355MOL0     C46770  12.145   4.759   1.068  0.3852  0.4101  0.5657
  355MOL0     C46771  12.284   4.815   1.040  1.1533  0.0277 -0.1405
  355MOL0    Cl46772  12.275   4.971   0.965 -0.2614 -0.1895 -0.1017
  355MOL0     C46773  11.525   5.220   1.722  0.1007  0.6097  0.3838
  355MOL0     C46774  11.514   5.344   1.770 -0.4241 -0.4062 -0.0855
  355MOL0     O46775  11.468   5.671   1.572 -0.4089 -0.2551 -0.2713
  355MOL0     C46776  11.339   5.868   1.733 -0.2626  0.6662 -1.0619
  355MOL0     C46777  11.282   5.964   1.807  0.9079  0.3569  0.0937
  355MOL0     N46778  11.445   5.858   2.388 -0.7803 -1.1707 -1.0050
  355MOL0     N46779  11.414   5.740   2.411  0.8520  0.8458  0.6354
  355MOL0     C46780  10.416   4.831   2.334 -1.0786 -0.3299 -0.7502
  355MOL0     C46781  10.435   4.691   2.340 -0.2088 -0.5397 -0.1890
  355MOL0     C46782  10.453   4.270   2.477 -0.5718  0.5205 -0.4094
  355MOL0     C46783  10.513   4.220   2.364  0.0950  0.7902  0.2064
  355MOL0     C46784  10.489   4.085   2.333 -1.2840 -0.1712 -0.1242
  355MOL0     C46785  10.416   4.004   2.418  0.4285 -0.2230 -0.4646
  355MOL0     O46786  10.393   3.872   2.380 -0.8145  0.1873 -0.1058
  355MOL0     C46787  10.325   3.776   2.474 -0.2513 -0.7584  0.0165
  355MOL0     C46788  10.298   3.633   2.429 -0.7607 -0.4685 -0.0317
  355MOL0     C46789  10.229   3.562   2.548  0.4565 -0.0844 -1.1987
  355MOL0     C46790  10.151   3.438   2.498 -0.1738 -0.1200  0.3844
  355MOL0     C46791  10.240   3.340   2.436 -0.1938 -0.8733 -0.4152
  355MOL0     C46792  10.324   3.261   2.396 -0.1472 -0.1032 -0.1528
  355MOL0     C46793  10.349   4.058   2.524 -0.1522 -0.2708  0.4852
  355MOL0     C46794  10.369   4.192   2.553 -0.5795 -0.4947  0.2219
  355MOL0     H46795  10.696   4.665   2.547 -0.6461  0.1284  2.0769
  355MOL0     H46796  10.672   4.921   2.533 -1.0852  0.3664  1.2427
  355MOL0     H46797  10.550   5.170   2.265  3.6117  1.2937 -2.2795
  355MOL0     H46798  10.660   5.031   2.308 -2.7069 -2.6756 -0.7283
  355MOL0     H46799  10.697   5.133   2.528 -3.6181 -1.3661  0.5871
  355MOL0     H46800  10.589   5.260   2.505  0.9443  1.8129 -0.9257
  355MOL0     H46801  10.742   5.388   2.346  2.8204  1.5401  0.8106
  355MOL0     H46802  10.847   5.246   2.347 -0.8930 -2.0699 -0.6770
  355MOL0     H46803  10.771   5.433   2.591  2.5095 -0.8815  3.6902
  355MOL0     H46804  10.848   5.271   2.596 -1.3914  0.6430  0.9066
  355MOL0     H46805  10.954   5.499   2.408  0.5011  0.6279 -0.2633
  355MOL0     H46806  11.036   5.359   2.463 -0.2130  0.7969 -0.5087
  355MOL0     H46807  11.089   5.425   2.677 -0.9637 -1.8510  0.1249
  355MOL0     H46808  10.938   5.509   2.688  1.0508  1.0688  1.0212
  355MOL0     H46809  11.026   5.679   2.529 -1.5334 -1.9577 -0.1701
  355MOL0     H46810  11.109   5.669   2.684 -1.5558 -1.1395  0.6125
  355MOL0     H46811  11.206   5.560   2.419  2.7475  2.3195 -2.6324
  355MOL0     H46812  11.287   5.547   2.576  1.2207 -0.5949 -1.2987
  355MOL0     H46813  11.184   5.900   2.591 -1.8950  0.9059 -2.7842
  355MOL0     H46814  11.422   6.128   2.390 -1.4878 -1.4920 -1.6297
  355MOL0     H46815  11.329   6.139   2.546 -2.7843 -1.0627  0.1270
  355MOL0     H46816  11.227   6.244   2.357  2.7032 -0.0343  0.9450
  355MOL0     H46817  11.122   6.132   2.437  0.3735 -0.7734 -0.0834
  355MOL0     H46818  11.164   5.976   2.238 -3.5363  0.4641  1.3561
  355MOL0     H46819  11.081   6.128   2.184 -1.4356 -0.8954  1.0053
  355MOL0     H46820  11.381   6.090   2.166  1.4000  3.6467 -1.0201
  355MOL0     H46821  11.298   6.231   2.135 -0.9131  0.5673 -3.4704
  355MOL0     H46822  11.419   5.877   2.106  0.0181 -1.6184 -0.7031
  355MOL0     H46823  11.519   5.705   1.969 -0.5598  0.1421  0.6309
  355MOL0     H46824  11.661   5.490   1.504 -3.1581 -1.4104 -2.2629
  355MOL0     H46825  11.644   5.275   1.425 -1.1239  0.1340 -0.2692
  355MOL0     H46826  11.763   5.056   1.461 -1.9153 -0.4408 -2.2531
  355MOL0     H46827  11.623   4.997   1.369 -0.6307 -3.0183 -0.6611
  355MOL0     H46828  11.595   4.794   1.521 -0.7596  1.4443 -0.3139
  355MOL0     H46829  11.737   4.835   1.613 -0.7104 -0.8984  1.0168
  355MOL0     H46830  11.725   4.732   1.336  1.8095  1.7101 -1.9192
  355MOL0     H46831  11.827   4.683   1.484  1.6102  1.4356  1.2436
  355MOL0     H46832  11.882   4.934   1.305  1.6037  0.8681  1.5597
  355MOL0     H46833  11.964   4.855   1.439 -0.7125 -0.9263 -0.6524
  355MOL0     H46834  11.923   4.710   1.165  0.6344 -1.9409  1.0357
  355MOL0     H46835  12.013   4.645   1.298 -1.3799  0.2751  2.1520
  355MOL0     H46836  12.173   4.850   1.273  0.4534  0.7909 -0.1414
  355MOL0     H46837  12.063   4.923   1.156  1.1247 -0.1130 -1.7492
  355MOL0     H46838  12.152   4.650   1.067 -1.4377  0.2600 -1.2119
  355MOL0     H46839  12.081   4.778   0.982 -0.6705  3.2957  1.8508
  355MOL0     H46840  12.332   4.745   0.971  2.4444 -0.6902  1.3971
  355MOL0     H46841  12.348   4.818   1.129 -1.2300  0.9414  1.6677
  355MOL0     H46842  11.500   5.146   1.797 -1.8087 -0.9529 -1.6625
  355MOL0     H46843  11.458   5.370   1.859  1.5995  3.5215  0.2926
  355MOL0     H46844  11.308   5.846   1.631 -3.2817 -4.5153  0.6426
  355MOL0     H46845  11.242   6.046   1.747  1.6477  0.0139 -0.8970
  355MOL0     H46846  10.332   4.881   2.286 -2.2206  0.3018  1.7454
  355MOL0     H46847  10.363   4.634   2.283 -1.7989  2.5380 -1.4892
  355MOL0     H46848  10.587   4.273   2.305  2.4753 -3.1218 -0.6966
  355MOL0     H46849  10.538   4.027   2.257 -0.8463 -2.4457  1.7738
  355MOL0     H46850  10.228   3.824   2.491 -0.7644 -1.1973 -1.5109
  355MOL0     H46851  10.370   3.760   2.572  1.3010  0.9666 -0.3478
  355MOL0     H46852  10.250   3.632   2.331  2.0009  0.0263 -1.5089
  355MOL0     H46853  10.389   3.576   2.408  0.9011  0.4216  3.8367
  355MOL0     H46854  10.159   3.630   2.597 -2.7462 -4.2447  0.7070
  355MOL0     H46855  10.311   3.533   2.615 -1.2496  0.7405  1.3811
  355MOL0     H46856  10.096   3.391   2.580 -1.6146  2.2157  0.8453
  355MOL0     H46857  10.072   3.473   2.431  0.4618  0.9992  0.1841
  355MOL0     H46858  10.392   3.190   2.354  2.0514  0.0855  2.8173
  355MOL0     H46859  10.292   4.004   2.598  3.2030 -2.7331  1.5192
  355MOL0     H46860  10.305   4.242   2.625 -0.8229  2.7034 -2.0404
  356MOL0     O46861   2.017  10.849   8.266 -0.3142  0.4104 -0.2045
  356MOL0     C46862   2.089  10.816   8.365 -0.1073  0.3484 -0.6419
  356MOL0     O46863   2.121  10.690   8.401 -0.2325  0.0425  0.4718
  356MOL0     C46864   2.056  10.588   8.347 -0.8298 -0.4364 -1.1263
  356MOL0     C46865   1.964  10.510   8.438 -0.8922 -0.7657 -0.1602
  356MOL0     C46866   1.919  10.391   8.390  0.3224 -0.3712  0.7232
  356MOL0     C46867   1.948  10.348   8.263  0.4913  0.1019 -0.2918
  356MOL0     O46868   1.898  10.230   8.207  0.1626 -0.0959 -0.0263
  356MOL0     C46869   1.757  10.217   8.203  0.4326  0.0730 -0.0602
  356MOL0     C46870   1.704  10.191   8.060 -1.2367  0.7176 -0.0026
  356MOL0     C46871   1.723  10.307   7.974  0.5597 -0.2836 -0.0525
  356MOL0     C46872   1.643  10.310   7.842  0.1145 -0.5165 -0.3012
  356MOL0     C46873   1.664  10.188   7.759 -1.0617  1.6151  1.4458
  356MOL0     C46874   1.606  10.189   7.615  0.0982  1.2373  0.5211
  356MOL0     C46875   1.454  10.169   7.612 -0.6007 -0.4181 -0.3338
  356MOL0     C46876   1.418  10.035   7.666 -0.2387  0.0807 -0.2047
  356MOL0     N46877   1.466   9.919   7.583 -0.0055  0.6410  0.1196
  356MOL0     C46878   1.496   9.799   7.637 -0.7491 -0.8616  0.3605
  356MOL0     C46879   1.495   9.710   7.539 -0.1864  0.0753  0.7037
  356MOL0     C46880   1.511   9.559   7.524 -0.2515  0.4662 -0.7168
  356MOL0     C46881   1.564   9.494   7.650  0.3782 -0.0438 -0.1634
  356MOL0     C46882   1.636   9.360   7.619  0.5267 -1.0529  0.4673
  356MOL0     C46883   1.536   9.250   7.587  1.3155  0.0163 -0.6341
  356MOL0     O46884   1.601   9.128   7.548  0.2199 -0.0451  0.1931
  356MOL0     C46885   1.509   9.031   7.525 -0.4453  0.1198 -0.4183
  356MOL0     C46886   1.555   8.948   7.426 -0.3741 -0.1775  0.4987
  356MOL0     C46887   1.492   8.828   7.412  0.3647 -0.4947 -0.0953
  356MOL0     C46888   1.364   8.795   7.477  0.3611 -0.2014  0.5797
  356MOL0     C46889   1.304   8.662   7.454  0.6291  0.1001  0.3141
  356MOL0     O46890   1.215   8.605   7.535  1.0365 -0.0514 -0.0717
  356MOL0     C46891   1.147   8.494   7.495 -0.4169 -0.4401 -0.8062
  356MOL0     C46892   1.054   8.480   7.384  0.2139 -0.2928  1.2279
  356MOL0     C46893   0.988   8.366   7.354  0.8781  0.0829 -1.6273
  356MOL0     C46894   1.007   8.248   7.428  0.4533  0.4351 -0.7120
  356MOL0     O46895   0.940   8.132   7.407 -0.3807 -0.3328  0.1694
  356MOL0     C46896   1.019   8.027   7.357  1.2610  1.6496 -0.8446
  356MOL0     C46897   0.980   8.004   7.220  0.0251  1.0340 -0.8972
  356MOL0     C46898   0.831   7.958   7.211  0.0944  0.2967 -0.1989
  356MOL0     C46899   0.804   7.924   7.063 -0.0257 -0.8562 -0.4981
  356MOL0     C46900   0.678   7.838   7.053  0.2877  0.4511  0.3612
  356MOL0     C46901   0.635   7.811   6.904  0.7150  0.5297  0.9029
  356MOL0     C46902   0.487   7.771   6.916  0.0457  0.1508  0.4035
  356MOL0     C46903   0.431   7.742   6.779  0.8212 -0.4789  0.6578
  356MOL0    Cl46904   0.268   7.658   6.792 -0.9894  0.2062  0.6053
  356MOL0     C46905   1.104   8.258   7.534  0.0262  0.1105  0.1218
  356MOL0     C46906   1.180   8.375   7.556  0.5516 -0.2567 -0.2003
  356MOL0     O46907   1.358   8.604   7.358  0.7748  0.2820  0.0957
  356MOL0     C46908   1.303   8.904   7.541  0.7149  0.1773 -0.2461
  356MOL0     C46909   1.381   9.011   7.581 -0.4456 -0.3034 -0.8481
  356MOL0     N46910   1.466   9.782   7.427 -0.4550  0.6884 -0.5870
  356MOL0     N46911   1.459   9.906   7.447 -0.5298  0.2400 -0.5166
  356MOL0     C46912   2.026  10.425   8.171  0.6162 -0.6207 -0.0386
  356MOL0     C46913   2.085  10.543   8.215  0.5155  0.6005 -0.8115
  356MOL0     C46914   2.142  10.924   8.451 -0.1158  0.2937 -0.4830
  356MOL0     C46915   2.155  11.055   8.394 -0.6784  0.3088 -0.1005
  356MOL0     C46916   2.217  11.153   8.464 -0.4921  0.8120 -0.5562
  356MOL0     C46917   2.275  11.129   8.594  0.4624 -0.5395  0.8210
  356MOL0     O46918   2.330  11.233   8.665 -0.6993 -0.0835 -0.1524
  356MOL0     C46919   2.436  11.207   8.754  0.2807 -0.7380 -0.2265
  356MOL0     C46920   2.412  11.287   8.886 -0.1805  0.2111  0.1040
  356MOL0     C46921   2.344  11.426   8.851 -0.2605  0.3252 -0.0334
  356MOL0     C46922   2.289  11.504   8.963  0.8353 -0.6323  0.3292
  356MOL0     C46923   2.378  11.534   9.076  0.4815 -0.0885 -0.4685
  356MOL0     C46924   2.449  11.546   9.171 -0.3192  0.0674  0.2010
  356MOL0     C46925   2.268  10.993   8.645  0.4866 -0.6035  1.4718
  356MOL0     C46926   2.198  10.897   8.570 -0.1328  0.7610 -0.7493
  356MOL0     H46927   1.939  10.552   8.535 -2.6172 -2.5098  0.2149
  356MOL0     H46928   1.840  10.331   8.434 -3.0057  1.4332 -2.2825
  356MOL0     H46929   1.699  10.300   8.243  1.0356  0.0403  0.9128
  356MOL0     H46930   1.734  10.133   8.269 -0.5954  2.4727  2.8514
  356MOL0     H46931   1.598  10.170   8.074 -0.7831 -0.2944  2.3801
  356MOL0     H46932   1.762  10.104   8.026  0.6740  1.8088  0.3271
  356MOL0     H46933   1.827  10.319   7.945 -0.1090  2.8691 -1.6143
  356MOL0     H46934   1.704  10.400   8.028  1.3915  2.2849 -3.7763
  356MOL0     H46935   1.539  10.317   7.873 -0.7059  0.6222 -3.0565
  356MOL0     H46936   1.667  10.398   7.782 -2.2611 -0.8696 -1.8565
  356MOL0     H46937   1.627  10.102   7.815 -0.0695  2.4271  3.4488
  356MOL0     H46938   1.772  10.178   7.746 -0.9938  0.7977  2.5217
  356MOL0     H46939   1.646  10.109   7.551  0.2666  1.4237  0.3896
  356MOL0     H46940   1.624  10.284   7.563  1.1978  0.7719  0.0136
  356MOL0     H46941   1.396  10.247   7.661 -0.6215 -0.1303 -0.8110
  356MOL0     H46942   1.427  10.169   7.507  0.7973  1.3267 -0.7477
  356MOL0     H46943   1.310  10.031   7.656 -0.1870 -3.9806 -0.8249
  356MOL0     H46944   1.432  10.017   7.773 -4.9837  1.3410  0.8575
  356MOL0     H46945   1.512   9.779   7.742  0.1747 -2.9830 -0.1269
  356MOL0     H46946   1.575   9.557   7.435  0.4339  1.2706 -0.2572
  356MOL0     H46947   1.421   9.503   7.497  1.2812 -4.1002  2.5406
  356MOL0     H46948   1.504   9.494   7.741  2.7974  1.1459  1.5210
  356MOL0     H46949   1.648   9.554   7.687  0.2032  0.4822 -0.5988
  356MOL0     H46950   1.692   9.379   7.526  0.5292 -2.1901  0.2198
  356MOL0     H46951   1.698   9.329   7.704 -0.5862 -0.8703  1.3645
  356MOL0     H46952   1.465   9.279   7.509 -0.6927 -2.7985  0.0260
  356MOL0     H46953   1.480   9.249   7.681  0.5204  2.3452 -1.0133
  356MOL0     H46954   1.649   8.971   7.376 -0.9230  0.4261 -0.2821
  356MOL0     H46955   1.532   8.757   7.340  1.2423  0.3423 -0.4593
  356MOL0     H46956   1.023   8.570   7.331  2.3651 -1.0523 -1.5318
  356MOL0     H46957   0.915   8.367   7.273 -0.5767  2.0554 -0.4034
  356MOL0     H46958   0.993   7.933   7.406  0.6986 -0.7248 -5.1502
  356MOL0     H46959   1.126   8.043   7.372  1.0919  1.4005  0.7538
  356MOL0     H46960   1.040   7.919   7.183 -0.4709  0.6123 -0.7318
  356MOL0     H46961   1.007   8.095   7.165  3.8431  2.3205  2.5940
  356MOL0     H46962   0.762   8.025   7.263  0.2819 -0.7147  1.4371
  356MOL0     H46963   0.827   7.869   7.274 -0.9364  0.3634 -0.1379
  356MOL0     H46964   0.787   8.020   7.013 -1.3375 -1.4713 -1.2716
  356MOL0     H46965   0.893   7.877   7.021  0.4298  2.3856 -3.6273
  356MOL0     H46966   0.595   7.887   7.105 -1.0460 -1.1910 -0.1296
  356MOL0     H46967   0.685   7.743   7.107 -0.7834  1.1944  1.8950
  356MOL0     H46968   0.690   7.729   6.856  0.8832  0.8698  0.5151
  356MOL0     H46969   0.650   7.897   6.839 -1.8774 -2.0333 -3.6085
  356MOL0     H46970   0.473   7.682   6.979 -1.9286  0.1752  0.0483
  356MOL0     H46971   0.439   7.857   6.963  2.8184  1.9516  0.1814
  356MOL0     H46972   0.505   7.684   6.724  2.1883  0.6832  1.2252
  356MOL0     H46973   0.426   7.831   6.716  0.4244  2.1735  4.1500
  356MOL0     H46974   1.118   8.161   7.580 -1.9780 -0.8284 -1.1250
  356MOL0     H46975   1.265   8.378   7.624 -0.8072 -1.9244  1.7174
  356MOL0     H46976   1.199   8.890   7.567  0.6711 -2.4639 -1.5474
  356MOL0     H46977   1.340   9.074   7.660  5.4032  1.2733  1.5405
  356MOL0     H46978   2.036  10.382   8.072 -1.3373  1.4471 -1.2283
  356MOL0     H46979   2.140  10.605   8.144  1.1620  0.6857 -0.2580
  356MOL0     H46980   2.121  11.079   8.293 -1.9538 -0.8072  0.0285
  356MOL0     H46981   2.221  11.253   8.424 -0.7573  1.2259  0.4314
  356MOL0     H46982   2.536  11.234   8.719  2.5823 -3.0882  3.7634
  356MOL0     H46983   2.443  11.102   8.784 -1.0465 -0.1688  2.3365
  356MOL0     H46984   2.348  11.227   8.952 -1.5294 -0.5022 -1.7572
  356MOL0     H46985   2.503  11.305   8.944 -1.7804 -0.6872  3.0782
  356MOL0     H46986   2.257  11.417   8.784 -0.5139  1.7344  0.0574
  356MOL0     H46987   2.418  11.485   8.796  1.6501 -0.4242  1.6121
  356MOL0     H46988   2.255  11.598   8.918  0.4118 -0.3640  1.1755
  356MOL0     H46989   2.201  11.460   9.013  1.2808 -1.7921  0.1248
  356MOL0     H46990   2.497  11.562   9.265  1.7236 -1.7664 -0.4490
  356MOL0     H46991   2.320  10.958   8.734 -0.1007  2.4737  3.1672
  356MOL0     H46992   2.196  10.797   8.612 -4.8943 -1.0082 -4.2875
  357MOL0     O46993   0.231   1.612   9.697 -0.3907  1.0718  0.5865
  357MOL0     C46994   0.153   1.519   9.726 -0.4391  0.4675  1.2664
  357MOL0     O46995   0.120   1.413   9.649 -0.2850  0.6639  0.2930
  357MOL0     C46996   0.185   1.383   9.525 -1.1264  0.7753 -0.0529
  357MOL0     C46997   0.321   1.396   9.507  0.5572  0.6647 -0.0357
  357MOL0     C46998   0.385   1.365   9.386  0.2895  0.7476  0.1538
  357MOL0     C46999   0.310   1.338   9.271 -0.0622 -0.6804  0.6617
  357MOL0     O47000   0.381   1.307   9.160 -0.1198  0.2987  0.1557
  357MOL0     C47001   0.373   1.162   9.132 -0.4920 -1.0383 -0.6622
  357MOL0     C47002   0.466   1.121   9.019 -0.2180  1.1283  0.3370
  357MOL0     C47003   0.442   1.187   8.877 -0.2684 -0.5991 -0.8685
  357MOL0     C47004   0.542   1.143   8.776  0.0263 -0.2905 -0.7883
  357MOL0     C47005   0.530   1.228   8.649 -0.2452  0.0974 -0.1106
  357MOL0     C47006   0.647   1.194   8.553  0.3696  0.2704 -0.0866
  357MOL0     C47007   0.663   1.313   8.455  0.3775 -0.9073 -1.1390
  357MOL0     C47008   0.773   1.286   8.342  0.0378 -0.0881  0.2100
  357MOL0     N47009   0.733   1.191   8.235 -0.4357 -0.0445  0.3624
  357MOL0     C47010   0.757   1.057   8.237  0.1259 -0.5801  0.0251
  357MOL0     C47011   0.700   0.998   8.130  0.1663  0.5585 -0.7629
  357MOL0     C47012   0.691   0.845   8.127 -0.1601  0.3726 -0.4101
  357MOL0     C47013   0.704   0.778   7.992 -0.5726  0.5458 -0.6583
  357MOL0     C47014   0.683   0.627   8.006 -0.2313  0.1941  0.5738
  357MOL0     C47015   0.725   0.552   7.875  0.0804 -0.4243 -0.0997
  357MOL0     O47016   0.663   0.426   7.889  0.2005 -0.3436 -0.3536
  357MOL0     C47017   0.674   0.352   7.773  0.4052  0.2454  0.8612
  357MOL0     C47018   0.596   0.237   7.788  0.7228 -0.7450 -1.0221
  357MOL0     C47019   0.585   0.147   7.688 -0.1408 -0.0831  0.4354
  357MOL0     C47020   0.681   0.162   7.583 -0.1683  0.3008  0.7376
  357MOL0     C47021   0.681   0.062   7.476  0.7464  0.6309 -0.2485
  357MOL0     O47022   0.741   0.088   7.355  0.3954 -0.1612 -0.0162
  357MOL0     C47023   0.766  -0.015   7.264  0.0095 -0.5024 -0.2750
  357MOL0     C47024   0.772   0.009   7.125 -0.8792  0.0678 -0.2074
  357MOL0     C47025   0.787  -0.094   7.036  0.4512 -0.3134 -0.6190
  357MOL0     C47026   0.817  -0.225   7.077 -0.4661 -1.6992  1.0026
  357MOL0     O47027   0.811  -0.327   6.992 -1.2574  0.6462 -0.4861
  357MOL0     C47028   0.900  -0.326   6.878 -1.1362  0.0723  0.3966
  357MOL0     C47029   0.903  -0.465   6.808  0.5538 -0.5712  0.2933
  357MOL0     C47030   0.989  -0.572   6.866 -0.1535  0.6607 -0.4735
  357MOL0     C47031   0.913  -0.656   6.977 -0.3714 -0.0524  1.0982
  357MOL0     C47032   1.006  -0.680   7.098  1.5680 -0.0745 -0.7666
  357MOL0     C47033   1.132  -0.760   7.067  0.3141  0.3559  0.9549
  357MOL0     C47034   1.252  -0.747   7.171  0.0927 -0.3456 -1.1583
  357MOL0     C47035   1.214  -0.796   7.312 -0.7934  0.1992  0.3399
  357MOL0    Cl47036   1.330  -0.753   7.445  0.3901  0.4316  0.3659
  357MOL0     C47037   0.816  -0.247   7.214  0.3437  0.5849  0.1775
  357MOL0     C47038   0.782  -0.147   7.305 -0.2144 -0.5078  0.1252
  357MOL0     O47039   0.608  -0.035   7.494  0.3497  0.3677 -0.0904
  357MOL0     C47040   0.760   0.272   7.563  0.6616  0.2351  0.0393
  357MOL0     C47041   0.750   0.376   7.657 -0.7254 -0.0424 -0.5636
  357MOL0     N47042   0.621   1.098   8.070  0.9512 -0.3640 -0.2484
  357MOL0     N47043   0.634   1.216   8.131  0.2793  0.3442 -0.4039
  357MOL0     C47044   0.175   1.308   9.293  1.3783  0.5281  0.0679
  357MOL0     C47045   0.109   1.327   9.418 -0.1858  0.5644 -1.0541
  357MOL0     C47046   0.078   1.539   9.843 -0.0877  0.1449 -0.1785
  357MOL0     C47047  -0.040   1.478   9.868  0.7279  0.4050 -1.1527
  357MOL0     C47048  -0.118   1.491   9.982 -0.4575  0.2482 -0.2404
  357MOL0     C47049  -0.084   1.587  10.080 -0.3739 -0.9009  0.0816
  357MOL0     O47050  -0.168   1.613  10.186 -0.0646  0.3636 -0.0187
  357MOL0     C47051  -0.116   1.557  10.304  0.7655  0.3112  0.7490
  357MOL0     C47052  -0.229   1.499  10.391  0.0461 -0.1091  0.3354
  357MOL0     C47053  -0.301   1.385  10.323 -0.6144 -0.8058  0.0643
  357MOL0     C47054  -0.416   1.426  10.225 -0.0435 -0.9156  0.7550
  357MOL0     C47055  -0.436   1.321  10.124 -0.4098  0.5937 -0.6748
  357MOL0     C47056  -0.457   1.236  10.039  0.3565  0.8356  0.2999
  357MOL0     C47057   0.027   1.671  10.049  0.6914 -0.4097 -0.3457
  357MOL0     C47058   0.109   1.646   9.933  0.4658 -0.6473  0.6702
  357MOL0     H47059   0.387   1.413   9.592  0.2150 -0.9710  0.6057
  357MOL0     H47060   0.488   1.399   9.391  0.5151  0.0348  0.4383
  357MOL0     H47061   0.277   1.131   9.090 -0.5583  0.5669 -1.7455
  357MOL0     H47062   0.393   1.107   9.225 -2.3408 -0.0003  0.4042
  357MOL0     H47063   0.449   1.013   9.010 -5.6440  1.3463  3.6217
  357MOL0     H47064   0.570   1.130   9.054 -0.0072 -1.1095  0.4529
  357MOL0     H47065   0.446   1.296   8.885 -2.2558 -0.6186  2.5669
  357MOL0     H47066   0.341   1.154   8.848 -0.1042 -0.5992 -1.4415
  357MOL0     H47067   0.645   1.159   8.808 -0.0974 -3.1201  1.3761
  357MOL0     H47068   0.531   1.039   8.744  1.1069 -0.7805  0.3590
  357MOL0     H47069   0.532   1.335   8.673 -0.7952 -0.3548  2.1011
  357MOL0     H47070   0.434   1.216   8.599 -0.2246 -1.5592  0.2027
  357MOL0     H47071   0.619   1.109   8.491 -5.1793  1.2816  0.5186
  357MOL0     H47072   0.745   1.173   8.598  0.7066  1.4082 -0.2504
  357MOL0     H47073   0.562   1.315   8.412 -1.1565 -3.1767  1.9543
  357MOL0     H47074   0.680   1.402   8.515 -0.0615 -1.3643 -0.3205
  357MOL0     H47075   0.869   1.254   8.383 -0.3890 -2.0250 -0.2042
  357MOL0     H47076   0.800   1.378   8.290  0.3424  2.1469  3.9519
  357MOL0     H47077   0.817   1.008   8.313  1.6159  2.8923  1.2667
  357MOL0     H47078   0.594   0.809   8.164  1.0560 -4.4738 -1.2656
  357MOL0     H47079   0.763   0.811   8.202  1.1076 -0.5948 -2.0021
  357MOL0     H47080   0.802   0.802   7.949  1.2747  1.1602  3.4205
  357MOL0     H47081   0.618   0.814   7.935  0.6167  0.6163 -2.5271
  357MOL0     H47082   0.734   0.577   8.089 -0.3193  0.9427  1.0860
  357MOL0     H47083   0.577   0.606   8.026 -0.6233 -0.2924 -1.7540
  357MOL0     H47084   0.831   0.527   7.863  0.6914  1.5102  0.8817
  357MOL0     H47085   0.691   0.612   7.789  2.2516  1.5795  0.3385
  357MOL0     H47086   0.542   0.216   7.880 -0.4812 -2.8370 -2.1342
  357MOL0     H47087   0.511   0.069   7.704  0.6179 -0.9504 -0.2276
  357MOL0     H47088   0.738   0.111   7.107  0.0005  0.5236  0.5923
  357MOL0     H47089   0.781  -0.073   6.930  1.3232 -0.4103 -0.6891
  357MOL0     H47090   1.003  -0.300   6.905 -0.5624 -2.8897  1.4948
  357MOL0     H47091   0.873  -0.248   6.806  1.3452  0.4138 -0.2686
  357MOL0     H47092   0.939  -0.447   6.707  0.3356  0.1523  0.3438
  357MOL0     H47093   0.802  -0.504   6.797  1.0159 -1.8954  0.5073
  357MOL0     H47094   1.076  -0.534   6.920  1.6963 -0.0893 -2.7439
  357MOL0     H47095   1.014  -0.642   6.786  1.2422 -1.3177  1.5776
  357MOL0     H47096   0.830  -0.595   7.013  0.0058  2.0075 -1.2359
  357MOL0     H47097   0.879  -0.751   6.936  0.1417 -0.5937  1.8918
  357MOL0     H47098   0.955  -0.708   7.190  1.0739  1.8684 -0.3962
  357MOL0     H47099   1.044  -0.580   7.122  4.9116 -1.5445  0.7295
  357MOL0     H47100   1.172  -0.735   6.968 -0.5238  0.1257  0.5445
  357MOL0     H47101   1.105  -0.865   7.051 -1.8744  1.2689 -2.5737
  357MOL0     H47102   1.340  -0.804   7.137  1.2775  1.0471 -0.5459
  357MOL0     H47103   1.278  -0.641   7.174  2.7215 -0.9041  2.4764
  357MOL0     H47104   1.210  -0.905   7.320  2.6990 -0.1493 -1.1215
  357MOL0     H47105   1.120  -0.755   7.351 -0.1116  0.0919  2.2076
  357MOL0     H47106   0.822  -0.347   7.255  0.8860  0.7827  0.5856
  357MOL0     H47107   0.781  -0.174   7.410 -0.1405 -1.5511 -0.1360
  357MOL0     H47108   0.827   0.290   7.479 -1.2963  1.2941 -1.3818
  357MOL0     H47109   0.803   0.470   7.644  5.2000 -2.9466 -0.5862
  357MOL0     H47110   0.109   1.269   9.217  0.3184 -0.7558  1.5688
  357MOL0     H47111   0.002   1.311   9.427 -0.0383  0.7310  2.1201
  357MOL0     H47112  -0.077   1.398   9.804 -0.8050 -0.4387  0.7094
  357MOL0     H47113  -0.205   1.428   9.999 -0.8370  0.9898  0.6019
  357MOL0     H47114  -0.058   1.636  10.353 -0.5458  1.7174  0.1074
  357MOL0     H47115  -0.048   1.476  10.275  0.0676 -0.2461  0.6446
  357MOL0     H47116  -0.188   1.458  10.484 -1.8329  1.7737  2.1044
  357MOL0     H47117  -0.292   1.577  10.433  1.6110  1.4044 -0.0095
  357MOL0     H47118  -0.344   1.306  10.384 -1.3620  0.5873  1.4118
  357MOL0     H47119  -0.219   1.348  10.262 -1.5240 -1.6581 -0.6632
  357MOL0     H47120  -0.504   1.439  10.289 -1.2781  3.8109 -1.4011
  357MOL0     H47121  -0.395   1.518  10.170 -0.6725 -0.8922  0.5435
  357MOL0     H47122  -0.462   1.158   9.966  2.3546  0.3526  0.6077
  357MOL0     H47123   0.060   1.751  10.116  1.3623 -0.0349 -1.1057
  357MOL0     H47124   0.202   1.702   9.926  0.9986 -1.3917  1.6048
  358MOL0     O47125   1.990   2.938   4.088 -0.1754  1.0585  0.1294
  358MOL0     C47126   1.931   3.022   4.020 -0.1268 -0.9542  0.3047
  358MOL0     O47127   1.797   3.013   3.983 -0.3216  0.5998  0.3224
  358MOL0     C47128   1.737   2.887   4.018 -0.3544  0.1809  0.5985
  358MOL0     C47129   1.630   2.892   4.102 -0.7664 -0.3387  0.1612
  358MOL0     C47130   1.556   2.779   4.139  0.4666 -0.5337 -0.3342
  358MOL0     C47131   1.596   2.652   4.105  1.1670 -0.3293  0.0634
  358MOL0     O47132   1.522   2.543   4.151  0.3217  0.0803  0.7045
  358MOL0     C47133   1.605   2.426   4.156  1.1813  0.4320 -0.5281
  358MOL0     C47134   1.525   2.305   4.213 -0.0725 -0.7720  0.9363
  358MOL0     C47135   1.423   2.229   4.127 -0.7147 -0.4449 -0.0215
  358MOL0     C47136   1.357   2.119   4.212  0.7264 -0.0697 -0.0120
  358MOL0     C47137   1.240   2.047   4.143 -0.2667 -0.0939 -0.2981
  358MOL0     C47138   1.165   1.943   4.229  0.1607  0.0786  0.3826
  358MOL0     C47139   1.059   2.009   4.325  0.0177 -0.0806  0.3117
  358MOL0     C47140   0.919   2.024   4.269  0.6324 -0.1311  0.3094
  358MOL0     N47141   0.817   2.094   4.348  0.8813  0.2267  0.4726
  358MOL0     C47142   0.800   2.092   4.482  0.2694 -0.4464 -0.0506
  358MOL0     C47143   0.720   2.197   4.511 -0.2825  0.2977  0.4018
  358MOL0     C47144   0.675   2.231   4.651  0.0726 -0.1358  0.9104
  358MOL0     C47145   0.760   2.334   4.734  0.0713  0.3978 -0.4835
  358MOL0     C47146   0.694   2.356   4.868 -0.1511 -0.2253  0.1070
  358MOL0     C47147   0.782   2.397   4.986  0.6526  1.3754  0.2140
  358MOL0     O47148   0.858   2.281   5.038  0.3066 -0.5807  0.3663
  358MOL0     C47149   0.943   2.308   5.141 -0.0883 -0.4086  0.2304
  358MOL0     C47150   0.986   2.427   5.197 -0.4032 -1.2954 -0.2212
  358MOL0     C47151   1.064   2.441   5.310 -0.0617  0.0341  0.6466
  358MOL0     C47152   1.102   2.324   5.375  0.1071  0.3455 -0.4877
  358MOL0     C47153   1.186   2.330   5.498 -0.6078 -0.0361 -0.9898
  358MOL0     O47154   1.257   2.446   5.530 -0.5287  0.1165  0.1502
  358MOL0     C47155   1.350   2.441   5.641  0.5986 -0.0515 -0.1383
  358MOL0     C47156   1.309   2.403   5.763  0.7176  0.2829  0.5944
  358MOL0     C47157   1.396   2.388   5.871 -0.1614  0.9165 -0.2262
  358MOL0     C47158   1.530   2.417   5.850 -0.1682 -0.0469 -0.1744
  358MOL0     O47159   1.601   2.406   5.963 -0.0252 -1.1262 -0.1023
  358MOL0     C47160   1.714   2.482   5.989  0.7535  0.9135 -0.1190
  358MOL0     C47161   1.749   2.407   6.115 -0.4304  0.1599 -0.3014
  358MOL0     C47162   1.811   2.515   6.220 -0.0737  0.6335  0.1282
  358MOL0     C47163   1.830   2.471   6.368 -0.1829  0.0516  0.2036
  358MOL0     C47164   1.915   2.580   6.450 -0.3799  0.8340  0.2467
  358MOL0     C47165   2.002   2.518   6.557  0.2777 -0.0355 -0.4677
  358MOL0     C47166   1.917   2.430   6.651  0.0527 -0.3224  0.4042
  358MOL0     C47167   1.995   2.300   6.703 -0.8610  0.6810  0.2810
  358MOL0    Cl47168   1.928   2.225   6.856 -0.2074 -0.4046  0.0280
  358MOL0     C47169   1.575   2.472   5.721 -0.2493  0.5598  0.0136
  358MOL0     C47170   1.484   2.468   5.620 -0.1085  0.3881 -0.5688
  358MOL0     O47171   1.191   2.223   5.566 -0.2510  0.0174 -0.5089
  358MOL0     C47172   1.048   2.201   5.328  0.2586 -0.3830 -0.6313
  358MOL0     C47173   0.976   2.191   5.211  0.3158 -0.1651 -0.6765
  358MOL0     N47174   0.682   2.262   4.395 -0.0259  0.7518 -0.8822
  358MOL0     N47175   0.743   2.202   4.305  1.0150  0.1557  0.1973
  358MOL0     C47176   1.713   2.648   4.032 -1.4339 -0.6683  0.6659
  358MOL0     C47177   1.782   2.767   3.982 -0.2427  0.6414  0.3220
  358MOL0     C47178   2.009   3.122   3.955  0.4750  0.0148 -0.4017
  358MOL0     C47179   1.962   3.205   3.862 -1.1094 -0.2930 -0.1135
  358MOL0     C47180   2.037   3.314   3.812 -0.9946 -0.0550  0.6678
  358MOL0     C47181   2.163   3.345   3.866 -0.1942 -0.5944 -0.2822
  358MOL0     O47182   2.230   3.462   3.825 -0.8168 -0.5303 -0.5109
  358MOL0     C47183   2.372   3.475   3.868 -0.3399 -0.1526  0.5223
  358MOL0     C47184   2.411   3.622   3.844 -1.3539  0.2426 -0.1944
  358MOL0     C47185   2.541   3.655   3.924  0.4792  0.7818 -0.2297
  358MOL0     C47186   2.560   3.802   3.928 -0.4900 -0.1062 -0.5585
  358MOL0     C47187   2.571   3.862   3.797 -0.3908  0.6559  0.6553
  358MOL0     C47188   2.619   3.909   3.694 -0.0140  0.2019  0.0790
  358MOL0     C47189   2.210   3.256   3.961  0.6234 -0.1692  0.6765
  358MOL0     C47190   2.143   3.141   4.003  0.0365  0.3956  0.4274
  358MOL0     H47191   1.596   2.995   4.108 -0.2057 -0.1875  0.7215
  358MOL0     H47192   1.459   2.798   4.185  1.3416  2.2404  0.5280
  358MOL0     H47193   1.686   2.442   4.227 -0.2203 -2.8088  2.0743
  358MOL0     H47194   1.632   2.410   4.051  3.1950  0.6485 -0.0728
  358MOL0     H47195   1.498   2.345   4.312  1.1417  1.4250  0.4437
  358MOL0     H47196   1.601   2.227   4.223  2.5493  1.6241  1.0849
  358MOL0     H47197   1.487   2.191   4.047 -1.5468  0.5335 -1.1874
  358MOL0     H47198   1.352   2.297   4.078  0.0051 -0.5352 -1.2261
  358MOL0     H47199   1.435   2.053   4.250 -1.0320 -1.5129  1.2560
  358MOL0     H47200   1.318   2.174   4.298 -0.1751 -0.0787 -0.4080
  358MOL0     H47201   1.284   1.985   4.064 -2.5675 -0.7088 -1.1956
  358MOL0     H47202   1.169   2.116   4.097 -1.8971 -0.1250  2.0084
  358MOL0     H47203   1.232   1.874   4.282  0.1435 -1.2831 -1.2607
  358MOL0     H47204   1.103   1.873   4.173 -2.6583 -0.8695  4.3030
  358MOL0     H47205   1.058   1.940   4.410  0.0095 -2.6375 -1.6571
  358MOL0     H47206   1.088   2.108   4.362 -0.0685  0.1066 -0.1231
  358MOL0     H47207   0.877   1.927   4.241  0.5761  0.1664 -0.6538
  358MOL0     H47208   0.931   2.077   4.174  0.3278  0.6805  0.7106
  358MOL0     H47209   0.852   2.025   4.550  0.6478  1.8357  2.0453
  358MOL0     H47210   0.670   2.135   4.702  0.7046 -0.4673  0.3623
  358MOL0     H47211   0.570   2.263   4.654 -0.0979 -0.7656  3.3805
  358MOL0     H47212   0.760   2.421   4.668 -1.7236  1.2941  0.6318
  358MOL0     H47213   0.867   2.309   4.740  0.0176  0.2899  0.0271
  358MOL0     H47214   0.611   2.424   4.847 -0.0582 -0.2693 -0.4183
  358MOL0     H47215   0.649   2.260   4.895 -1.0377 -1.2100 -4.0907
  358MOL0     H47216   0.717   2.422   5.070 -0.0826  0.0418  0.0605
  358MOL0     H47217   0.834   2.487   4.952 -0.2872  2.7199  2.1518
  358MOL0     H47218   0.967   2.525   5.153  1.4669 -0.8437 -0.0718
  358MOL0     H47219   1.079   2.537   5.359  1.9344  0.8030 -1.3221
  358MOL0     H47220   1.203   2.381   5.767 -0.1620  3.8251  0.8410
  358MOL0     H47221   1.350   2.352   5.962  0.3473  0.1010 -0.2796
  358MOL0     H47222   1.681   2.586   5.997 -0.7276  0.4264  0.4390
  358MOL0     H47223   1.788   2.462   5.911  0.5060  0.1822 -0.1731
  358MOL0     H47224   1.809   2.318   6.095 -2.5359 -1.7394  1.3762
  358MOL0     H47225   1.660   2.370   6.168  0.1042 -0.5546  0.1074
  358MOL0     H47226   1.746   2.603   6.230  1.3391  1.6849  0.4243
  358MOL0     H47227   1.903   2.541   6.167  0.4628 -1.3734  0.0112
  358MOL0     H47228   1.735   2.445   6.416 -1.2253 -1.7156 -2.5477
  358MOL0     H47229   1.902   2.389   6.359  0.0473  0.1215  1.2783
  358MOL0     H47230   1.845   2.651   6.496 -0.1106  0.7458  0.7996
  358MOL0     H47231   1.977   2.633   6.378 -1.0926  2.9443  1.1049
  358MOL0     H47232   2.049   2.593   6.621  2.8759  0.8571 -3.1604
  358MOL0     H47233   2.084   2.461   6.510 -1.1928 -0.2959 -2.8905
  358MOL0     H47234   1.887   2.499   6.731  2.0220 -0.0630  0.9839
  358MOL0     H47235   1.827   2.397   6.599  0.6722 -3.5903  1.1657
  358MOL0     H47236   2.103   2.313   6.716 -1.1889  1.0918  3.1856
  358MOL0     H47237   1.989   2.231   6.618  1.1662  0.0313  0.6013
  358MOL0     H47238   1.672   2.506   5.686 -0.0651 -1.3466 -1.5502
  358MOL0     H47239   1.520   2.489   5.519  0.3587 -0.0147 -0.4907
  358MOL0     H47240   1.054   2.102   5.371  3.1615 -0.1654 -0.3790
  358MOL0     H47241   0.918   2.103   5.185 -0.0662  0.0994 -0.7248
  358MOL0     H47242   1.757   2.552   4.005 -0.4283 -0.4285  1.3961
  358MOL0     H47243   1.855   2.747   3.904 -1.0152 -3.0207  0.3612
  358MOL0     H47244   1.861   3.198   3.822 -3.7871  1.8715  5.1867
  358MOL0     H47245   1.992   3.383   3.741  1.5555  0.5368 -0.4769
  358MOL0     H47246   2.433   3.407   3.808 -3.2179 -1.2255 -1.4002
  358MOL0     H47247   2.380   3.452   3.975 -0.6523 -2.2891  0.1327
  358MOL0     H47248   2.407   3.645   3.738 -0.5067  0.2136 -0.2326
  358MOL0     H47249   2.320   3.667   3.886 -1.5357 -1.1499  1.0231
  358MOL0     H47250   2.628   3.614   3.872 -0.6413 -0.0611 -1.5002
  358MOL0     H47251   2.546   3.611   4.024  0.5494  3.2818  0.9417
  358MOL0     H47252   2.468   3.842   3.972 -0.3342  0.3366 -0.6306
  358MOL0     H47253   2.649   3.813   3.991  0.8070 -0.3554 -2.2765
  358MOL0     H47254   2.644   3.936   3.593 -3.5259  2.3760 -0.3852
  358MOL0     H47255   2.304   3.272   4.013 -0.4857  1.2329  2.3774
  358MOL0     H47256   2.181   3.067   4.072  4.1816  2.1349  0.2725
  359MOL0     O47257   2.643   5.893   1.229 -0.4400 -0.8144  0.6162
  359MOL0     C47258   2.563   5.933   1.308  0.6633  0.1006  0.4358
  359MOL0     O47259   2.588   6.022   1.407 -0.5193 -0.6921  0.0142
  359MOL0     C47260   2.670   6.130   1.387 -0.4471 -0.2804 -0.0730
  359MOL0     C47261   2.721   6.181   1.266  0.8575 -0.8628  0.3380
  359MOL0     C47262   2.817   6.277   1.269  0.5336 -0.3186 -0.0751
  359MOL0     C47263   2.860   6.326   1.390 -0.0521  0.1771 -0.1437
  359MOL0     O47264   2.944   6.440   1.412 -0.1931  0.6572  0.7572
  359MOL0     C47265   3.016   6.503   1.304  0.0032  0.5892 -0.2402
  359MOL0     C47266   3.137   6.563   1.369 -0.2267 -0.6371 -0.5465
  359MOL0     C47267   3.199   6.646   1.256  1.2901 -0.0347 -0.2311
  359MOL0     C47268   3.330   6.703   1.320 -0.1227  0.5114 -0.2788
  359MOL0     C47269   3.417   6.774   1.221 -0.0725  0.3201 -0.9706
  359MOL0     C47270   3.347   6.887   1.146  0.0801  0.7258  0.4635
  359MOL0     C47271   3.441   6.933   1.041 -0.8422  0.2944 -1.1554
  359MOL0     C47272   3.398   7.074   0.999  0.8206  0.1775 -0.0725
  359MOL0     N47273   3.504   7.109   0.905  0.1197 -0.7428  0.1126
  359MOL0     C47274   3.605   7.198   0.939  0.0479 -0.2402 -0.0524
  359MOL0     C47275   3.668   7.217   0.817 -0.1736 -0.1489  0.4569
  359MOL0     C47276   3.782   7.307   0.781 -0.0466 -0.2694 -0.2214
  359MOL0     C47277   3.734   7.457   0.808  0.6067 -0.0134 -0.6336
  359MOL0     C47278   3.604   7.485   0.734  0.2446  0.1377 -0.8233
  359MOL0     C47279   3.579   7.628   0.687  0.8978 -0.0381 -0.3184
  359MOL0     O47280   3.446   7.646   0.627  0.2757  0.9686  0.3189
  359MOL0     C47281   3.397   7.762   0.574  0.3763  0.2498  0.2081
  359MOL0     C47282   3.478   7.863   0.542  0.6335 -0.1450  0.2815
  359MOL0     C47283   3.432   7.977   0.476  0.6465 -0.2586 -0.5606
  359MOL0     C47284   3.297   7.987   0.439  0.2565  0.4588 -0.0890
  359MOL0     C47285   3.236   8.110   0.369 -0.5414  0.4434  0.2212
  359MOL0     O47286   3.322   8.227   0.388  0.4954  0.0837  0.0299
  359MOL0     C47287   3.259   8.338   0.350  0.8933 -0.4713 -0.2800
  359MOL0     C47288   3.140   8.382   0.423 -0.1928  0.4725  0.9908
  359MOL0     C47289   3.055   8.480   0.371  0.1142 -0.6211  0.2737
  359MOL0     C47290   3.097   8.569   0.268 -0.6734 -0.3861  0.8181
  359MOL0     O47291   3.036   8.685   0.220  0.1168  0.0744 -1.0398
  359MOL0     C47292   2.946   8.764   0.294 -0.0904 -0.4720 -0.4412
  359MOL0     C47293   2.849   8.799   0.174 -0.4322  0.0714  1.1311
  359MOL0     C47294   2.738   8.895   0.225 -0.2826 -0.9378  0.3992
  359MOL0     C47295   2.634   8.938   0.125 -1.9278 -0.2059 -1.2074
  359MOL0     C47296   2.530   8.830   0.113  0.2388  0.7874  0.0408
  359MOL0     C47297   2.400   8.871   0.036 -0.5038 -0.6577 -0.5167
  359MOL0     C47298   2.316   8.981   0.104 -1.1345  1.8759  1.2970
  359MOL0     C47299   2.193   9.005   0.026 -0.7520 -0.2196 -1.6530
  359MOL0    Cl47300   2.217   9.038  -0.144  0.1937  0.3202  0.0985
  359MOL0     C47301   3.219   8.535   0.198  0.4361  0.6920  0.7559
  359MOL0     C47302   3.295   8.421   0.243  0.4205  0.7297  0.2171
  359MOL0     O47303   3.130   8.110   0.311 -0.9616  0.4562  0.1511
  359MOL0     C47304   3.211   7.881   0.467 -0.1144 -0.1333 -0.2460
  359MOL0     C47305   3.262   7.777   0.548 -0.0868 -0.9684  0.8284
  359MOL0     N47306   3.592   7.143   0.720 -0.0827 -0.5352 -0.5369
  359MOL0     N47307   3.501   7.070   0.774 -0.5580  0.4040 -0.8292
  359MOL0     C47308   2.809   6.288   1.508 -0.1106 -0.3568 -0.3595
  359MOL0     C47309   2.713   6.187   1.509 -0.3997 -0.2813  0.0650
  359MOL0     C47310   2.428   5.876   1.286  0.0130  0.3492  0.6114
  359MOL0     C47311   2.394   5.792   1.173 -0.1727 -0.1169  1.0937
  359MOL0     C47312   2.284   5.715   1.165 -0.1290  0.4904 -0.0230
  359MOL0     C47313   2.190   5.726   1.266 -0.4167  0.5440  0.1694
  359MOL0     O47314   2.077   5.644   1.257  0.2646  0.2150  0.3339
  359MOL0     C47315   2.014   5.602   1.379  1.1990 -0.1854 -0.0282
  359MOL0     C47316   2.000   5.443   1.382  0.4682 -0.7999 -0.3020
  359MOL0     C47317   2.013   5.380   1.236  0.1939 -0.5850 -0.6036
  359MOL0     C47318   2.007   5.228   1.247  0.5312  0.0849  0.3412
  359MOL0     C47319   1.863   5.175   1.240 -0.7147 -0.6226 -0.6274
  359MOL0     C47320   1.744   5.146   1.227  0.8092  0.8007 -0.5005
  359MOL0     C47321   2.211   5.813   1.380 -0.1370 -0.2000 -0.1687
  359MOL0     C47322   2.333   5.890   1.387 -0.9117 -0.2285 -0.8483
  359MOL0     H47323   2.674   6.137   1.179 -3.2293  0.6787  1.5313
  359MOL0     H47324   2.851   6.330   1.181 -4.3013  0.7457 -1.6171
  359MOL0     H47325   2.945   6.581   1.275 -0.6121  1.3122  2.9035
  359MOL0     H47326   3.037   6.437   1.219 -2.5018  1.2181 -1.4642
  359MOL0     H47327   3.204   6.486   1.407 -0.6130 -0.4375  0.5778
  359MOL0     H47328   3.117   6.618   1.461  1.9251 -1.4220  0.4629
  359MOL0     H47329   3.133   6.728   1.225  2.1366  0.9296  0.4243
  359MOL0     H47330   3.220   6.583   1.169 -0.0878  0.7881 -1.1996
  359MOL0     H47331   3.291   6.774   1.394  1.8698  0.8007  0.5787
  359MOL0     H47332   3.383   6.621   1.369 -2.1251  1.3237  3.6430
  359MOL0     H47333   3.444   6.692   1.154  1.5421 -0.3817  0.4817
  359MOL0     H47334   3.510   6.810   1.265 -0.4368  2.0261 -1.5116
  359MOL0     H47335   3.302   6.960   1.213  0.0436 -0.0454  1.2993
  359MOL0     H47336   3.263   6.845   1.089 -0.6006 -1.3846  2.8484
  359MOL0     H47337   3.543   6.939   1.080 -0.1986  1.1013 -2.8473
  359MOL0     H47338   3.448   6.876   0.947  0.7590 -0.9626 -0.3291
  359MOL0     H47339   3.401   7.146   1.080 -0.8925  1.0488 -0.7515
  359MOL0     H47340   3.299   7.073   0.953 -0.1006 -0.5521  1.8390
  359MOL0     H47341   3.619   7.256   1.030 -1.7851  2.2390 -1.2274
  359MOL0     H47342   3.806   7.296   0.675 -0.3521  1.7924 -0.5494
  359MOL0     H47343   3.870   7.293   0.845 -0.0588  1.0736  0.1085
  359MOL0     H47344   3.809   7.531   0.778  0.1778  0.2487 -1.0825
  359MOL0     H47345   3.713   7.464   0.915  4.0359 -0.6250  0.2067
  359MOL0     H47346   3.581   7.423   0.647 -0.4788  1.2670 -1.4557
  359MOL0     H47347   3.527   7.465   0.808  0.4298  0.6046 -0.5012
  359MOL0     H47348   3.663   7.660   0.625  1.4766 -1.3666 -0.2540
  359MOL0     H47349   3.587   7.699   0.770  1.0800  1.2574 -1.4157
  359MOL0     H47350   3.583   7.857   0.566  0.5763 -1.3736  0.3141
  359MOL0     H47351   3.515   8.039   0.443  0.7637  0.0620  0.3329
  359MOL0     H47352   3.106   8.333   0.513 -4.2197  4.5219  2.0188
  359MOL0     H47353   2.975   8.515   0.435  1.9480 -0.5619  2.6544
  359MOL0     H47354   2.993   8.854   0.333  2.4819 -1.9434  0.0562
  359MOL0     H47355   2.884   8.721   0.374  0.5990 -0.0614  0.3303
  359MOL0     H47356   2.797   8.714   0.129 -0.0013  0.2777  0.2273
  359MOL0     H47357   2.907   8.846   0.094 -2.2060  0.4159 -0.0083
  359MOL0     H47358   2.788   8.987   0.255  0.0190 -1.1559  0.5743
  359MOL0     H47359   2.689   8.837   0.303 -0.9628 -1.5406 -0.4518
  359MOL0     H47360   2.599   9.021   0.187  2.9552  1.4044 -0.1437
  359MOL0     H47361   2.682   8.971   0.032 -0.2707  0.0515 -0.3033
  359MOL0     H47362   2.506   8.791   0.213  3.3400 -0.5902  0.3350
  359MOL0     H47363   2.588   8.763   0.049  2.2505  2.2846  0.1962
  359MOL0     H47364   2.343   8.778   0.035 -3.7088  1.1121 -3.1275
  359MOL0     H47365   2.420   8.908  -0.065 -2.8779  0.2075 -0.7347
  359MOL0     H47366   2.294   8.935   0.201  1.3275 -4.8002 -0.7091
  359MOL0     H47367   2.373   9.074   0.108  0.4582  1.0023  0.0786
  359MOL0     H47368   2.155   9.089   0.084  1.5754  2.0173 -3.1743
  359MOL0     H47369   2.123   8.921   0.026 -1.1187  0.0669 -0.4316
  359MOL0     H47370   3.236   8.586   0.104 -1.1757 -2.4205 -1.4023
  359MOL0     H47371   3.381   8.388   0.185  0.8873 -3.0573  2.7528
  359MOL0     H47372   3.107   7.875   0.437 -0.0229  0.9215 -0.8096
  359MOL0     H47373   3.195   7.693   0.563 -0.0150 -1.5298 -1.5032
  359MOL0     H47374   2.837   6.336   1.600 -0.2358  0.2271 -0.6225
  359MOL0     H47375   2.673   6.137   1.596 -2.6291  2.9416  1.0861
  359MOL0     H47376   2.466   5.778   1.093  0.0319  0.8074  1.0971
  359MOL0     H47377   2.245   5.653   1.085 -1.6935 -0.3556  1.3315
  359MOL0     H47378   1.917   5.652   1.391  1.6490  1.1477 -1.5960
  359MOL0     H47379   2.066   5.631   1.471 -0.0646 -3.7699  2.0404
  359MOL0     H47380   2.070   5.406   1.457  0.2040  2.4138  1.6838
  359MOL0     H47381   1.899   5.426   1.421  0.5822 -3.0719 -0.8673
  359MOL0     H47382   2.111   5.410   1.198  0.4416 -0.8890 -0.2081
  359MOL0     H47383   1.927   5.414   1.177 -1.2816 -1.0652  1.1472
  359MOL0     H47384   2.054   5.194   1.154  1.0608  0.0530  0.6173
  359MOL0     H47385   2.059   5.178   1.329 -0.9103 -1.0551  0.5992
  359MOL0     H47386   1.640   5.123   1.226 -0.1194  4.2005 -3.8182
  359MOL0     H47387   2.148   5.824   1.467  0.8811 -3.0356  1.0731
  359MOL0     H47388   2.336   5.948   1.479 -1.1343  3.0405 -2.7253
  360MOL0     O47389   2.989   7.267  10.500 -0.3178 -0.5849  0.3684
  360MOL0     C47390   2.949   7.363  10.567 -0.2377  0.0846  1.1539
  360MOL0     O47391   2.850   7.439  10.525  0.4091 -0.1127  0.0332
  360MOL0     C47392   2.782   7.394  10.413 -0.1504  0.0695  0.9796
  360MOL0     C47393   2.740   7.267  10.382  0.3147 -0.8785  0.5346
  360MOL0     C47394   2.667   7.233  10.270 -0.2185  0.2725 -0.6289
  360MOL0     C47395   2.609   7.329  10.183  0.3180 -0.6861 -0.9748
  360MOL0     O47396   2.540   7.286  10.070  0.0160  1.5120  0.2945
  360MOL0     C47397   2.445   7.378  10.003 -0.2852 -0.5041 -1.0001
  360MOL0     C47398   2.525   7.448   9.897 -0.0492 -0.6981 -0.3308
  360MOL0     C47399   2.517   7.363   9.771 -0.1047 -0.3617  0.0722
  360MOL0     C47400   2.601   7.421   9.651 -0.5702  0.2080  0.1951
  360MOL0     C47401   2.615   7.325   9.532  1.0859 -0.2348 -0.3411
  360MOL0     C47402   2.474   7.286   9.482 -0.3985 -0.1713 -0.2212
  360MOL0     C47403   2.472   7.225   9.336 -0.5541  0.0542  0.2537
  360MOL0     C47404   2.321   7.190   9.277 -0.4875  0.8342  0.2550
  360MOL0     N47405   2.269   7.079   9.344 -0.1704 -0.1100  1.0253
  360MOL0     C47406   2.175   7.093   9.441 -0.1475 -1.0622 -0.3767
  360MOL0     C47407   2.176   6.967   9.496  0.2976 -0.4441  0.2948
  360MOL0     C47408   2.080   6.912   9.596 -0.8849  0.7831  0.6724
  360MOL0     C47409   2.105   6.941   9.743  0.5701 -0.4291 -1.3876
  360MOL0     C47410   2.032   7.070   9.782 -0.6661 -0.2253  0.1579
  360MOL0     C47411   2.079   7.124   9.919 -0.0993 -0.0459 -0.0541
  360MOL0     O47412   2.048   7.263   9.941  0.0819  1.1606  0.1998
  360MOL0     C47413   2.032   7.299  10.074  0.7251 -0.4619 -1.4368
  360MOL0     C47414   2.086   7.226  10.183 -0.5301 -0.6870  0.3153
  360MOL0     C47415   2.075   7.274  10.318  0.1430 -0.5099  1.0622
  360MOL0     C47416   2.006   7.390  10.358 -0.6022  0.9058  0.2383
  360MOL0     C47417   1.992   7.446  10.497 -0.2346  1.0218  0.9307
  360MOL0     O47418   1.917   7.558  10.509 -0.2773  0.2241 -0.3605
  360MOL0     C47419   1.923   7.607  10.635 -0.0277 -0.9927  0.2324
  360MOL0     C47420   2.034   7.684  10.663  0.3056 -0.0348 -0.5526
  360MOL0     C47421   2.060   7.755  10.781 -0.2063  0.3284  0.4534
  360MOL0     C47422   1.974   7.737  10.892 -0.7001  0.6582  0.1780
  360MOL0     O47423   2.010   7.792  11.008 -0.8610  0.3246  0.3046
  360MOL0     C47424   1.949   7.751  11.130  0.1247  0.6343  0.7011
  360MOL0     C47425   2.003   7.846  11.233  0.3828 -0.0759 -0.6946
  360MOL0     C47426   1.946   7.841  11.376 -0.0103  0.7556 -0.5675
  360MOL0     C47427   1.828   7.944  11.411 -0.5552  0.0978  0.4664
  360MOL0     C47428   1.777   7.921  11.556  0.4141 -0.0598 -0.0823
  360MOL0     C47429   1.678   8.033  11.598 -0.1587  0.9525 -0.3085
  360MOL0     C47430   1.561   8.057  11.508 -0.8668 -0.5066  0.4314
  360MOL0     C47431   1.477   8.179  11.551 -0.9095 -1.9518  0.2615
  360MOL0    Cl47432   1.349   8.208  11.442 -0.5798  0.4128 -0.0179
  360MOL0     C47433   1.858   7.651  10.866 -0.2534 -0.6832 -0.5342
  360MOL0     C47434   1.836   7.589  10.741  0.1014  0.3971  0.2674
  360MOL0     O47435   2.058   7.391  10.586  0.5720 -0.9077 -0.2325
  360MOL0     C47436   1.941   7.453  10.250  0.2680  0.0625  0.5176
  360MOL0     C47437   1.960   7.413  10.118  0.3435  0.4954  0.5269
  360MOL0     N47438   2.274   6.889   9.441 -1.0904 -0.1316 -0.3331
  360MOL0     N47439   2.323   6.952   9.333  0.5709 -0.0269 -0.5979
  360MOL0     C47440   2.635   7.462  10.222  0.5436  0.2839  0.7408
  360MOL0     C47441   2.717   7.492  10.333 -0.5185 -0.4123  0.0687
  360MOL0     C47442   3.012   7.396  10.694  0.0474  0.6568 -0.1552
  360MOL0     C47443   2.938   7.468  10.787  1.1896 -0.2217 -0.0138
  360MOL0     C47444   2.992   7.491  10.913  0.3981  0.2681 -1.2742
  360MOL0     C47445   3.120   7.437  10.946 -1.1253 -0.0767  0.2943
  360MOL0     O47446   3.185   7.458  11.068 -0.1996  0.0567 -1.1902
  360MOL0     C47447   3.142   7.562  11.160  0.7401 -0.1083 -0.5516
  360MOL0     C47448   3.189   7.689  11.095 -0.4482 -0.4940  0.4929
  360MOL0     C47449   3.331   7.713  11.089 -0.3482 -0.0709  0.4807
  360MOL0     C47450   3.392   7.735  11.229 -1.2414 -0.7059  0.0318
  360MOL0     C47451   3.542   7.751  11.222  0.3085  0.1835  0.2071
  360MOL0     C47452   3.655   7.779  11.241  0.0368  0.0765 -0.7532
  360MOL0     C47453   3.195   7.371  10.846  0.5516 -0.6765  0.7231
  360MOL0     C47454   3.134   7.342  10.728 -0.2115 -0.0106  0.4638
  360MOL0     H47455   2.779   7.187  10.443  0.0687 -0.3487  1.4178
  360MOL0     H47456   2.653   7.126  10.257  1.2885  0.2364 -2.2760
  360MOL0     H47457   2.412   7.450  10.078 -0.7568  0.7295 -2.3546
  360MOL0     H47458   2.358   7.325   9.964 -1.9633  0.7318  0.8474
  360MOL0     H47459   2.627   7.468   9.931  0.4031 -0.1787 -1.8654
  360MOL0     H47460   2.476   7.544   9.875 -0.2518  0.0549  2.9802
  360MOL0     H47461   2.413   7.352   9.739  0.2004 -3.2418 -0.2355
  360MOL0     H47462   2.559   7.264   9.794 -1.5346 -0.6666  1.5409
  360MOL0     H47463   2.562   7.523   9.640 -0.0542  0.5538  1.3833
  360MOL0     H47464   2.697   7.434   9.701  1.6457 -2.7802 -2.9209
  360MOL0     H47465   2.658   7.230   9.563 -2.7995 -2.5206 -1.1808
  360MOL0     H47466   2.675   7.360   9.448  2.6067 -2.8668 -0.4381
  360MOL0     H47467   2.396   7.361   9.498  0.3958  0.3620  1.4191
  360MOL0     H47468   2.445   7.210   9.555  0.2975  0.2658  0.5301
  360MOL0     H47469   2.511   7.303   9.270 -3.3625  0.1647 -1.4422
  360MOL0     H47470   2.526   7.130   9.336 -2.4154 -1.0710  0.1281
  360MOL0     H47471   2.334   7.170   9.170  0.5560 -2.4167  0.8936
  360MOL0     H47472   2.252   7.270   9.305 -1.1849  0.1871  0.4171
  360MOL0     H47473   2.106   7.172   9.469  3.7462  2.3225  0.7607
  360MOL0     H47474   2.100   6.804   9.597 -0.8204  0.7887  1.5893
  360MOL0     H47475   1.977   6.932   9.567 -0.5740  2.2482  0.5062
  360MOL0     H47476   2.210   6.961   9.767 -0.5570  0.3187  4.2221
  360MOL0     H47477   2.072   6.859   9.807 -0.6345  0.1755 -1.2008
  360MOL0     H47478   2.043   7.155   9.714  1.4588 -1.5399 -1.2623
  360MOL0     H47479   1.929   7.036   9.798 -0.6186  0.9359  3.8904
  360MOL0     H47480   2.187   7.107   9.924 -0.5052 -4.0030 -1.3820
  360MOL0     H47481   2.038   7.069  10.005 -0.1284  0.1859  0.0821
  360MOL0     H47482   2.154   7.141  10.182 -0.3538 -0.6705  3.1132
  360MOL0     H47483   2.117   7.214  10.398  0.0284 -1.8753  0.1375
  360MOL0     H47484   2.118   7.696  10.595 -1.3553  0.5627 -2.6022
  360MOL0     H47485   2.148   7.818  10.784 -1.2429  1.9244 -0.9138
  360MOL0     H47486   1.973   7.648  11.160 -0.6128  0.0923 -0.5163
  360MOL0     H47487   1.843   7.775  11.124  0.5977  2.3646 -2.0106
  360MOL0     H47488   1.986   7.949  11.199  0.7706  1.2487  2.7824
  360MOL0     H47489   2.111   7.834  11.241  0.5529  0.3264 -2.1476
  360MOL0     H47490   2.020   7.851  11.455 -0.1383  2.6078 -0.6283
  360MOL0     H47491   1.915   7.736  11.385  2.5214 -0.1632 -1.7233
  360MOL0     H47492   1.863   8.045  11.387 -2.6699  1.2874  1.9811
  360MOL0     H47493   1.745   7.925  11.342  0.2226  2.3913 -1.2053
  360MOL0     H47494   1.867   7.915  11.619  0.3912 -1.0656 -0.1156
  360MOL0     H47495   1.730   7.822  11.559  1.3379 -0.6043 -2.0735
  360MOL0     H47496   1.734   8.126  11.594  3.8362 -1.1453  1.7132
  360MOL0     H47497   1.645   8.023  11.702  2.3759  3.3221  0.8116
  360MOL0     H47498   1.604   8.065  11.408  3.2003  0.4895  2.0649
  360MOL0     H47499   1.494   7.970  11.508 -0.9022 -0.4827  0.9272
  360MOL0     H47500   1.551   8.259  11.548  0.0656 -2.6925  2.5334
  360MOL0     H47501   1.446   8.167  11.655  0.0379  0.0390  0.8078
  360MOL0     H47502   1.784   7.638  10.943 -0.8507  0.1870 -0.9409
  360MOL0     H47503   1.755   7.518  10.728  0.4113  0.2478 -1.0380
  360MOL0     H47504   1.871   7.536  10.255 -0.2838 -0.1687 -2.1598
  360MOL0     H47505   1.913   7.466  10.036  0.3764 -1.0707 -0.5539
  360MOL0     H47506   2.591   7.542  10.163 -0.6809  0.7260  2.1812
  360MOL0     H47507   2.737   7.595  10.360  2.3916 -0.4735 -1.3801
  360MOL0     H47508   2.833   7.490  10.769  1.9955  0.7934 -4.7909
  360MOL0     H47509   2.929   7.536  10.989 -3.7324 -3.3484 -2.0808
  360MOL0     H47510   3.193   7.542  11.254  1.0218 -1.3061 -0.9350
  360MOL0     H47511   3.037   7.550  11.187  0.8289  0.2393 -0.0595
  360MOL0     H47512   3.157   7.690  10.990  2.8474 -4.0050 -0.8274
  360MOL0     H47513   3.149   7.777  11.146 -2.0161 -0.0180 -1.4467
  360MOL0     H47514   3.359   7.807  11.041  2.0788 -1.1136 -0.3024
  360MOL0     H47515   3.390   7.639  11.034  2.1984  2.1482 -0.0441
  360MOL0     H47516   3.351   7.819  11.285 -0.4106  2.7696 -4.1039
  360MOL0     H47517   3.376   7.641  11.283  1.7136 -1.7065 -0.6233
  360MOL0     H47518   3.754   7.813  11.263 -0.8003 -0.3382  5.0402
  360MOL0     H47519   3.303   7.373  10.855  0.4058  0.9179  3.5130
  360MOL0     H47520   3.199   7.288  10.660 -0.6092 -3.1345  2.3876
  361MOL0     O47521   4.313   7.946   0.254  0.5537  0.3205  0.6335
  361MOL0     C47522   4.294   8.051   0.199  0.7959 -0.6891  0.5371
  361MOL0     O47523   4.205   8.144   0.237 -0.0517 -0.3449 -0.5832
  361MOL0     C47524   4.123   8.119   0.337  0.8793  0.0243 -0.5086
  361MOL0     C47525   4.122   8.204   0.447 -0.3162 -0.9981 -0.4806
  361MOL0     C47526   4.023   8.187   0.555  0.0961  0.2758  0.4792
  361MOL0     C47527   3.943   8.075   0.548  0.0278  0.5743 -1.0758
  361MOL0     O47528   3.853   8.042   0.650 -0.6841  0.1800 -0.0233
  361MOL0     C47529   3.864   8.099   0.777 -0.7613  1.2104  0.0596
  361MOL0     C47530   3.752   8.037   0.876 -0.6509 -1.1505  1.2152
  361MOL0     C47531   3.755   7.885   0.892 -1.0152  0.1118  0.2375
  361MOL0     C47532   3.882   7.820   0.948  0.4142  0.6921  0.1588
  361MOL0     C47533   3.926   7.878   1.079  0.3947  0.1886  0.5100
  361MOL0     C47534   3.993   7.776   1.168  0.8607  0.2812  0.6552
  361MOL0     C47535   4.131   7.726   1.111 -0.2668 -0.0674 -0.1675
  361MOL0     C47536   4.185   7.606   1.180  0.4365  1.2459 -0.4664
  361MOL0     N47537   4.109   7.474   1.175  0.1030 -0.1180  0.7680
  361MOL0     C47538   4.055   7.413   1.281  0.1675  0.5407 -0.2581
  361MOL0     C47539   3.993   7.302   1.227 -0.1061 -0.8269 -0.0538
  361MOL0     C47540   3.899   7.204   1.283  0.3369  0.5386  0.5366
  361MOL0     C47541   3.851   7.086   1.196  0.5048  0.0091 -1.1501
  361MOL0     C47542   3.961   6.994   1.160 -0.4667  0.3479  0.6428
  361MOL0     C47543   3.899   6.847   1.162 -0.1744  0.8059 -0.3491
  361MOL0     O47544   3.866   6.801   1.298 -0.4947 -0.2632  0.3444
  361MOL0     C47545   3.797   6.690   1.309 -0.2503  0.6107  0.1486
  361MOL0     C47546   3.803   6.579   1.215  0.1950 -0.0290  0.0415
  361MOL0     C47547   3.727   6.468   1.220 -0.6776 -0.7913  0.3607
  361MOL0     C47548   3.640   6.444   1.332  0.2428  0.3540 -0.5170
  361MOL0     C47549   3.540   6.335   1.328 -0.1177  0.5536  0.0245
  361MOL0     O47550   3.542   6.238   1.234 -0.5290 -0.6478  0.0734
  361MOL0     C47551   3.450   6.131   1.233 -1.1623 -0.3174  0.7781
  361MOL0     C47552   3.317   6.144   1.195  0.4623 -0.7088 -0.0320
  361MOL0     C47553   3.223   6.048   1.229  0.0222  0.2891 -0.1720
  361MOL0     C47554   3.262   5.915   1.272 -0.0006 -1.3913 -0.2787
  361MOL0     O47555   3.171   5.817   1.297  0.3913 -1.2073 -0.5632
  361MOL0     C47556   3.035   5.851   1.276 -0.3574  1.1563 -0.1817
  361MOL0     C47557   2.974   5.945   1.380  0.1141  0.5486  0.3460
  361MOL0     C47558   3.027   5.896   1.508  0.0446 -0.8093 -0.5175
  361MOL0     C47559   2.956   5.984   1.617  0.3554  0.0046 -0.8117
  361MOL0     C47560   2.998   5.930   1.747 -0.9447 -0.0080  0.7026
  361MOL0     C47561   2.880   5.952   1.845 -0.0503  1.1318 -0.2562
  361MOL0     C47562   2.917   5.893   1.987  0.6016 -0.6311 -0.1212
  361MOL0     C47563   2.792   5.926   2.078  0.6691 -0.2360 -1.4607
  361MOL0    Cl47564   2.785   5.818   2.219 -0.8560 -0.4100 -0.3243
  361MOL0     C47565   3.401   5.898   1.298 -1.3827  0.6843  0.1200
  361MOL0     C47566   3.493   6.012   1.278  0.1303  0.9882  0.0020
  361MOL0     O47567   3.460   6.331   1.420 -0.2260 -0.6151  0.1802
  361MOL0     C47568   3.648   6.538   1.440  0.3200  0.7395  0.5956
  361MOL0     C47569   3.722   6.651   1.426 -1.1776  1.6163 -0.4800
  361MOL0     N47570   3.998   7.316   1.087  0.4087  0.1800  0.8560
  361MOL0     N47571   4.063   7.419   1.056 -0.0527  0.0547 -0.1503
  361MOL0     C47572   3.937   8.000   0.436  0.4061 -0.2376 -0.3586
  361MOL0     C47573   4.029   8.018   0.334 -0.2675  0.0178 -0.4588
  361MOL0     C47574   4.375   8.095   0.076 -0.4516 -0.6167  0.2548
  361MOL0     C47575   4.463   8.009   0.017 -0.8668  0.8332 -0.6958
  361MOL0     C47576   4.558   8.046  -0.084  0.2854  0.3459  0.0549
  361MOL0     C47577   4.548   8.169  -0.144  0.2188  0.9459  0.7514
  361MOL0     O47578   4.604   8.205  -0.262  0.2192 -0.3191 -0.2824
  361MOL0     C47579   4.678   8.113  -0.346  0.1015 -0.1505 -0.0079
  361MOL0     C47580   4.810   8.067  -0.302  0.0835  0.3163  0.2716
  361MOL0     C47581   4.850   7.937  -0.374  1.6549 -0.1726 -0.4780
  361MOL0     C47582   4.800   7.813  -0.304 -1.0893 -0.5866 -0.4605
  361MOL0     C47583   4.895   7.802  -0.185  0.0868 -0.4049 -0.3557
  361MOL0     C47584   4.966   7.777  -0.090  0.3117  0.0871  0.7163
  361MOL0     C47585   4.460   8.263  -0.088  0.0568 -0.3563  0.6613
  361MOL0     C47586   4.372   8.224   0.021 -1.3358  0.0789  0.3356
  361MOL0     H47587   4.199   8.279   0.457 -0.5818 -0.7369 -0.3796
  361MOL0     H47588   4.021   8.252   0.643  1.3550  0.5177  0.3569
  361MOL0     H47589   3.846   8.207   0.770 -3.7726  0.7754 -0.1026
  361MOL0     H47590   3.965   8.084   0.816 -0.0432  0.7402 -1.8702
  361MOL0     H47591   3.657   8.058   0.826  1.7929  2.3019 -2.6816
  361MOL0     H47592   3.755   8.093   0.970  0.1318  0.7571  0.1139
  361MOL0     H47593   3.743   7.832   0.797  0.0154 -1.4349  0.9346
  361MOL0     H47594   3.666   7.853   0.946 -3.5519  1.1314 -2.9970
  361MOL0     H47595   3.865   7.712   0.958  2.6738  0.3264  0.4655
  361MOL0     H47596   3.969   7.829   0.883 -0.8964 -3.7154 -2.7164
  361MOL0     H47597   3.845   7.930   1.129 -0.5855 -0.5229 -0.2946
  361MOL0     H47598   4.003   7.953   1.059 -0.3880  0.4653 -1.7602
  361MOL0     H47599   3.933   7.685   1.168  0.4399  0.5178 -1.5530
  361MOL0     H47600   4.011   7.821   1.267  5.2010 -0.7174  0.5077
  361MOL0     H47601   4.134   7.720   1.002 -1.6176  1.4076 -0.3369
  361MOL0     H47602   4.205   7.805   1.129  1.4871 -2.3090  3.8884
  361MOL0     H47603   4.193   7.639   1.284  2.1106  2.7410 -1.0118
  361MOL0     H47604   4.284   7.577   1.145 -0.0490 -2.5224  0.8202
  361MOL0     H47605   4.068   7.440   1.385  1.6494 -2.3312  0.3859
  361MOL0     H47606   3.813   7.268   1.305  0.5490  1.4380 -1.1021
  361MOL0     H47607   3.929   7.151   1.374 -0.8400 -0.8291  0.1657
  361MOL0     H47608   3.797   7.127   1.110 -1.3167  0.3524  0.1082
  361MOL0     H47609   3.782   7.040   1.267  3.3781  0.6823  2.3537
  361MOL0     H47610   4.012   7.019   1.067 -1.1366 -2.0832 -0.4554
  361MOL0     H47611   4.046   6.982   1.227 -0.4632  0.2640  0.6240
  361MOL0     H47612   3.963   6.769   1.121 -0.2834 -1.7078  3.7392
  361MOL0     H47613   3.806   6.845   1.103  0.7230 -0.6767 -1.8125
  361MOL0     H47614   3.878   6.585   1.136 -0.7294 -0.0958 -0.8511
  361MOL0     H47615   3.713   6.395   1.141 -1.9808  0.6341 -0.7991
  361MOL0     H47616   3.272   6.228   1.142  0.0447 -1.9562 -1.7460
  361MOL0     H47617   3.124   6.064   1.186 -0.5297 -0.2373  0.8475
  361MOL0     H47618   2.985   5.756   1.299 -0.2843  1.0614 -0.4071
  361MOL0     H47619   3.010   5.883   1.174  1.2418  0.5383 -0.7935
  361MOL0     H47620   2.866   5.932   1.379  0.2113 -0.2405  0.1748
  361MOL0     H47621   3.003   6.050   1.368 -2.0763  0.9113 -3.2268
  361MOL0     H47622   3.134   5.912   1.526 -0.3952  0.0622  1.6181
  361MOL0     H47623   3.001   5.791   1.523  4.0264 -1.9812 -0.5974
  361MOL0     H47624   2.991   6.088   1.613  1.4299 -0.3354 -0.7540
  361MOL0     H47625   2.847   5.984   1.617  0.3335 -0.1725 -2.3232
  361MOL0     H47626   3.088   5.979   1.785 -1.3538  1.5529 -0.2299
  361MOL0     H47627   3.015   5.823   1.738 -0.8357  0.1845 -2.4544
  361MOL0     H47628   2.794   5.903   1.798  1.2107 -1.2899 -0.2305
  361MOL0     H47629   2.864   6.060   1.851  3.1589  2.0307 -3.6185
  361MOL0     H47630   2.929   5.785   1.980  0.9309 -0.5895 -0.2016
  361MOL0     H47631   3.006   5.950   2.016 -1.1986  3.2788 -1.5464
  361MOL0     H47632   2.699   5.918   2.021 -1.0975  2.0982  0.8006
  361MOL0     H47633   2.789   6.030   2.114 -1.3180 -1.8091  4.0250
  361MOL0     H47634   3.454   5.811   1.337  3.1705  3.6777  1.4781
  361MOL0     H47635   3.594   5.993   1.313 -0.2566 -1.2155  0.0606
  361MOL0     H47636   3.577   6.518   1.519 -0.6707  0.6955 -0.2842
  361MOL0     H47637   3.713   6.715   1.513 -1.2106 -1.3211  1.8316
  361MOL0     H47638   3.862   7.924   0.422  0.5495 -0.2240 -1.2669
  361MOL0     H47639   4.025   7.951   0.248 -1.5147 -0.2783 -0.1982
  361MOL0     H47640   4.482   7.911   0.058  1.6171  1.8269  0.7314
  361MOL0     H47641   4.616   7.967  -0.132  0.7349  2.1899 -2.6393
  361MOL0     H47642   4.685   8.154  -0.447 -1.1833 -0.3826 -0.2118
  361MOL0     H47643   4.614   8.024  -0.355  0.3454 -0.3802  0.4856
  361MOL0     H47644   4.879   8.149  -0.323 -3.1347  3.5696  1.2928
  361MOL0     H47645   4.812   8.055  -0.193 -2.2437  1.1948  0.4604
  361MOL0     H47646   4.959   7.923  -0.382  1.5811 -0.7033 -0.6084
  361MOL0     H47647   4.802   7.946  -0.472 -0.1454 -0.8289  0.3041
  361MOL0     H47648   4.694   7.809  -0.281 -0.7418  0.1742  1.4716
  361MOL0     H47649   4.826   7.723  -0.362  0.6618 -0.8510  0.6719
  361MOL0     H47650   5.024   7.735  -0.011  1.1459  0.0197  0.0745
  361MOL0     H47651   4.450   8.363  -0.128  2.2306  0.1303  1.1980
  361MOL0     H47652   4.302   8.291   0.070 -0.9730 -0.4206  1.5588
  362MOL0     O47653   9.268  10.587   5.981  1.2254  0.2470  0.7768
  362MOL0     C47654   9.287  10.484   5.916 -0.3775 -0.1016 -0.1572
  362MOL0     O47655   9.263  10.469   5.779 -0.4189  0.1747  0.3683
  362MOL0     C47656   9.170  10.557   5.726 -0.6931 -0.4574 -0.0078
  362MOL0     C47657   9.219  10.622   5.607  0.7377 -0.0103  0.6471
  362MOL0     C47658   9.128  10.710   5.548 -0.1354  0.0575 -0.1352
  362MOL0     C47659   8.994  10.728   5.598  0.3968 -0.2686 -1.5177
  362MOL0     O47660   8.897  10.822   5.560 -0.3071 -0.1939  0.0351
  362MOL0     C47661   8.917  10.933   5.469 -0.1494  1.9153  0.7521
  362MOL0     C47662   8.896  11.078   5.525  0.5164  0.1714 -0.1353
  362MOL0     C47663   8.951  11.109   5.667 -0.0836 -0.3754 -0.0838
  362MOL0     C47664   9.101  11.135   5.678 -0.4658 -0.5208 -0.4926
  362MOL0     C47665   9.149  11.032   5.796 -0.3474  0.0488  0.1393
  362MOL0     C47666   9.299  11.044   5.837 -0.2667  1.0425  0.0745
  362MOL0     C47667   9.322  10.974   5.965 -0.4807  0.4645 -0.3363
  362MOL0     C47668   9.477  10.968   5.999  0.8022 -0.5068 -0.6771
  362MOL0     N47669   9.551  10.869   5.928 -0.3113 -0.0689 -0.0241
  362MOL0     C47670   9.582  10.746   5.975 -0.6725  0.9965  0.7069
  362MOL0     C47671   9.627  10.680   5.855  0.6114  0.5676  0.1357
  362MOL0     C47672   9.675  10.536   5.840 -0.1130  0.9201 -0.9247
  362MOL0     C47673   9.707  10.459   5.974 -0.2944 -1.2075  0.1997
  362MOL0     C47674   9.749  10.311   5.952  0.5458  0.0005 -0.2096
  362MOL0     C47675   9.888  10.301   5.883  0.1091 -0.2867 -0.5132
  362MOL0     O47676   9.924  10.163   5.873 -1.2467  0.2695 -0.1539
  362MOL0     C47677   9.842  10.065   5.830 -0.5646 -0.6714 -0.1465
  362MOL0     C47678   9.852   9.936   5.895 -0.8476  0.2443  0.9323
  362MOL0     C47679   9.775   9.831   5.849 -0.4775 -0.5906 -0.6686
  362MOL0     C47680   9.689   9.839   5.737 -1.1106  0.2824 -0.1572
  362MOL0     C47681   9.613   9.728   5.674 -0.9796  0.4804 -0.2150
  362MOL0     O47682   9.561   9.634   5.752  0.2279 -0.0552  0.3100
  362MOL0     C47683   9.501   9.530   5.690 -0.1131 -0.1368 -0.9285
  362MOL0     C47684   9.363   9.517   5.684  1.2057 -0.1194 -0.3120
  362MOL0     C47685   9.309   9.404   5.629  0.7407  0.5562  0.0603
  362MOL0     C47686   9.390   9.306   5.560  0.0159 -0.0145 -1.2203
  362MOL0     O47687   9.346   9.183   5.527  0.1784 -0.1492 -0.1977
  362MOL0     C47688   9.330   9.165   5.388  0.7102 -0.8755 -0.3086
  362MOL0     C47689   9.270   9.032   5.361 -0.6194 -0.0329  0.3041
  362MOL0     C47690   9.347   8.911   5.422 -0.4415  0.0487 -0.9559
  362MOL0     C47691   9.303   8.766   5.399  0.5478  0.4621  0.7729
  362MOL0     C47692   9.156   8.762   5.438  0.2127  0.9539 -0.0178
  362MOL0     C47693   9.143   8.651   5.547  0.4816  0.0534  0.3273
  362MOL0     C47694   9.154   8.513   5.479  0.1548 -0.1300 -0.1431
  362MOL0     C47695   9.030   8.430   5.534 -0.7460 -0.6608  0.1061
  362MOL0    Cl47696   9.042   8.403   5.707 -0.0814  0.2161 -0.1553
  362MOL0     C47697   9.529   9.316   5.560 -0.8760 -0.5787 -0.2415
  362MOL0     C47698   9.583   9.428   5.626 -0.1666 -1.0129  0.6718
  362MOL0     O47699   9.607   9.720   5.551  0.0841 -0.5256 -0.3823
  362MOL0     C47700   9.686   9.968   5.675 -0.9461  0.6968  0.3825
  362MOL0     C47701   9.759  10.075   5.718 -0.0270 -0.0270 -0.0623
  362MOL0     N47702   9.635  10.775   5.757  0.3979  0.4472  0.4296
  362MOL0     N47703   9.583  10.888   5.799  0.0565  0.1313  0.6952
  362MOL0     C47704   8.960  10.667   5.725  0.4656 -0.6008  0.3973
  362MOL0     C47705   9.053  10.583   5.792  0.9907  0.6333 -0.4046
  362MOL0     C47706   9.337  10.366   5.986 -1.0528 -0.6626 -0.4857
  362MOL0     C47707   9.394  10.250   5.920 -0.2692 -0.2337 -0.0737
  362MOL0     C47708   9.445  10.143   5.998  0.4632  0.0684  0.3344
  362MOL0     C47709   9.461  10.156   6.141  0.2761 -0.2415  0.2692
  362MOL0     O47710   9.522  10.068   6.221  0.1934  1.0657  0.4452
  362MOL0     C47711   9.578   9.938   6.165 -0.3887 -0.7881 -0.1883
  362MOL0     C47712   9.599   9.837   6.271  0.2334  1.1564 -0.9090
  362MOL0     C47713   9.701   9.896   6.374 -0.3259  0.0728  0.3839
  362MOL0     C47714   9.730   9.785   6.477 -0.1875 -0.4773 -0.3718
  362MOL0     C47715   9.613   9.777   6.566  1.1691  0.1992 -1.3466
  362MOL0     C47716   9.510   9.758   6.630 -0.0714  0.5031 -0.6693
  362MOL0     C47717   9.411  10.275   6.201 -0.4262  0.6255  0.6673
  362MOL0     C47718   9.341  10.369   6.124 -0.6417 -0.5705  0.2464
  362MOL0     H47719   9.311  10.591   5.557  1.1675  2.2655 -0.0699
  362MOL0     H47720   9.177  10.762   5.466  0.5244 -0.9223 -0.3773
  362MOL0     H47721   8.852  10.915   5.384  1.0321 -4.8218  0.7279
  362MOL0     H47722   9.019  10.920   5.432  0.9551  1.8212  3.5608
  362MOL0     H47723   8.793  11.111   5.507  0.0547  0.2076  2.2489
  362MOL0     H47724   8.941  11.151   5.456  1.2226  0.1350  0.2718
  362MOL0     H47725   8.916  11.033   5.737 -3.2964 -0.1348 -1.2492
  362MOL0     H47726   8.904  11.201   5.703  1.0778 -0.1808  1.0124
  362MOL0     H47727   9.150  11.118   5.582 -0.7506 -0.2792 -0.6810
  362MOL0     H47728   9.112  11.239   5.709  0.3448 -0.3996 -1.1278
  362MOL0     H47729   9.134  10.930   5.759  1.8835 -0.1620 -0.3111
  362MOL0     H47730   9.079  11.053   5.877 -1.0489 -1.8739  0.0723
  362MOL0     H47731   9.330  11.147   5.856  1.9523  0.2826  0.8941
  362MOL0     H47732   9.359  11.009   5.753 -0.0786 -0.4816  0.8084
  362MOL0     H47733   9.265  11.023   6.044 -0.5744 -1.4697  0.8660
  362MOL0     H47734   9.273  10.876   5.963 -1.9574  1.1724 -0.1442
  362MOL0     H47735   9.484  10.950   6.107  1.1234 -1.1992 -0.8058
  362MOL0     H47736   9.523  11.063   5.973 -0.1398 -0.3949 -2.0310
  362MOL0     H47737   9.566  10.701   6.072  2.6833 -1.3788  0.3450
  362MOL0     H47738   9.770  10.523   5.788  1.6018  2.4116  1.6399
  362MOL0     H47739   9.590  10.482   5.797 -1.6270  2.5894 -0.1752
  362MOL0     H47740   9.618  10.466   6.039 -0.6737 -2.6375 -0.1277
  362MOL0     H47741   9.798  10.505   6.013  0.6983 -0.7185 -2.5150
  362MOL0     H47742   9.747  10.252   6.045  0.3875  1.6088  0.8551
  362MOL0     H47743   9.673  10.266   5.887 -1.7509  1.0647  1.5501
  362MOL0     H47744   9.964  10.353   5.942  0.6688 -2.2775  0.6475
  362MOL0     H47745   9.891  10.346   5.784  1.1671  0.3656 -0.1945
  362MOL0     H47746   9.902   9.925   5.991  0.2286  0.5809  0.4290
  362MOL0     H47747   9.783   9.744   5.914  1.1971  0.4168  0.5549
  362MOL0     H47748   9.293   9.595   5.712 -0.3744 -1.5295 -0.1720
  362MOL0     H47749   9.203   9.384   5.616  0.7030  2.0283 -2.6031
  362MOL0     H47750   9.420   9.181   5.327 -0.9246  2.6345 -2.1086
  362MOL0     H47751   9.248   9.228   5.352  1.4074  0.2389  0.0035
  362MOL0     H47752   9.269   9.016   5.253  1.8568 -0.3888  0.2823
  362MOL0     H47753   9.165   9.037   5.391 -0.9956 -0.8093 -0.8198
  362MOL0     H47754   9.336   8.924   5.530  0.1377 -0.8653 -0.7811
  362MOL0     H47755   9.454   8.917   5.399 -1.0787 -0.8754 -5.1078
  362MOL0     H47756   9.310   8.759   5.290  2.2952  0.7743  0.8206
  362MOL0     H47757   9.367   8.690   5.446  2.7281 -0.2648 -2.9532
  362MOL0     H47758   9.107   8.736   5.344  1.6932 -0.7684 -0.3598
  362MOL0     H47759   9.112   8.855   5.475 -3.7138 -1.3986  1.9109
  362MOL0     H47760   9.047   8.659   5.598 -0.5471 -0.1825 -1.4847
  362MOL0     H47761   9.218   8.656   5.627  0.8000 -1.0827  0.1252
  362MOL0     H47762   9.153   8.503   5.370  1.7665 -1.4917 -0.0715
  362MOL0     H47763   9.244   8.458   5.510  0.7933  1.1328  0.3305
  362MOL0     H47764   9.033   8.330   5.490 -1.1396 -1.1307  1.1073
  362MOL0     H47765   8.932   8.474   5.515 -0.5512 -1.0788 -2.2048
  362MOL0     H47766   9.574   9.228   5.516 -0.9129  0.3501 -2.2703
  362MOL0     H47767   9.690   9.444   5.633 -0.6990  2.5059  2.7996
  362MOL0     H47768   9.631   9.969   5.582 -0.0563 -2.8560 -0.3251
  362MOL0     H47769   9.759  10.168   5.662  0.9756  0.7378  1.1546
  362MOL0     H47770   8.860  10.689   5.760 -0.3976 -1.2101 -1.5542
  362MOL0     H47771   9.033  10.528   5.883  1.5774 -0.1825 -0.7580
  362MOL0     H47772   9.406  10.233   5.814  3.2223 -3.7128  0.6428
  362MOL0     H47773   9.481  10.057   5.942 -2.2659 -0.0566 -1.4381
  362MOL0     H47774   9.676   9.963   6.124 -1.0308  3.2865  0.3300
  362MOL0     H47775   9.524   9.894   6.081  1.1768 -2.5984 -0.3051
  362MOL0     H47776   9.505   9.823   6.325  1.9361  1.4197  2.3626
  362MOL0     H47777   9.643   9.744   6.233  0.2485  1.2986 -1.2467
  362MOL0     H47778   9.664   9.978   6.437 -1.3344  1.2309 -1.6065
  362MOL0     H47779   9.788   9.922   6.314  0.4973 -0.5744  1.2712
  362MOL0     H47780   9.760   9.692   6.427  2.0916  0.6902 -1.2956
  362MOL0     H47781   9.811   9.809   6.546  0.7373  0.8709 -1.8823
  362MOL0     H47782   9.434   9.719   6.695  2.0993 -0.7861  1.2418
  362MOL0     H47783   9.431  10.306   6.303  1.6435 -1.1052  0.8694
  362MOL0     H47784   9.298  10.452   6.179  2.0721  3.2927 -2.8431
  363MOL0     O47785   9.878   1.911   4.039  0.4809 -0.6289 -0.6401
  363MOL0     C47786   9.759   1.943   4.037 -0.1624 -1.0951  0.7886
  363MOL0     O47787   9.669   1.918   3.939  0.0517 -0.7720  0.2233
  363MOL0     C47788   9.697   1.849   3.828  0.4239 -0.2286  0.1232
  363MOL0     C47789   9.599   1.769   3.781 -0.4731 -0.1596 -0.0913
  363MOL0     C47790   9.616   1.698   3.659  0.1273 -0.0567  0.4107
  363MOL0     C47791   9.746   1.706   3.595 -0.4859 -0.8833 -0.5343
  363MOL0     O47792   9.781   1.651   3.477  0.3001  0.1641  0.2397
  363MOL0     C47793   9.722   1.527   3.441  0.2728  0.2025  0.1075
  363MOL0     C47794   9.813   1.461   3.345 -0.0594  0.3369  0.2877
  363MOL0     C47795   9.853   1.324   3.395 -0.5700  0.6043 -0.3731
  363MOL0     C47796   9.961   1.262   3.311  0.2464 -0.8346 -0.0180
  363MOL0     C47797  10.021   1.135   3.365  0.1529 -0.9615 -0.1048
  363MOL0     C47798   9.930   1.020   3.354 -0.5109 -0.4177 -0.4116
  363MOL0     C47799   9.932   0.898   3.439 -0.5498 -0.5377 -0.2673
  363MOL0     C47800   9.853   0.921   3.570  0.4680 -0.0566 -0.0833
  363MOL0     N47801   9.868   0.806   3.661 -0.1122 -0.0664 -0.4811
  363MOL0     C47802   9.968   0.709   3.672 -0.5143 -0.0668  0.5098
  363MOL0     C47803   9.944   0.645   3.789 -0.5013 -0.3344  0.0770
  363MOL0     C47804  10.039   0.554   3.860 -0.5441  1.2127  0.5477
  363MOL0     C47805  10.021   0.417   3.785 -1.0725  0.7442 -0.9733
  363MOL0     C47806   9.907   0.347   3.829  0.5512 -1.4470 -0.3385
  363MOL0     C47807   9.888   0.226   3.740  0.2391 -0.2761  0.6492
  363MOL0     O47808   9.783   0.158   3.804 -0.3309 -0.0065 -1.4780
  363MOL0     C47809   9.780   0.023   3.778 -0.0872 -0.3430  0.4630
  363MOL0     C47810   9.776  -0.037   3.653  0.3789  0.4156 -0.3754
  363MOL0     C47811   9.769  -0.172   3.636 -0.4982  0.6660 -0.6826
  363MOL0     C47812   9.735  -0.248   3.750 -0.6053  0.2832 -0.7170
  363MOL0     C47813   9.723  -0.397   3.741 -0.1625 -1.2222 -0.9711
  363MOL0     O47814   9.737  -0.452   3.622 -0.7269  0.0263 -0.1611
  363MOL0     C47815   9.744  -0.584   3.612  0.5662  0.2992  1.0570
  363MOL0     C47816   9.834  -0.654   3.684 -0.4042 -0.2626 -0.5229
  363MOL0     C47817   9.856  -0.791   3.659  0.4778  0.6455 -0.2669
  363MOL0     C47818   9.780  -0.855   3.554 -0.4760 -0.2665  0.6163
  363MOL0     O47819   9.790  -0.981   3.511  0.4532  0.0982  0.6164
  363MOL0     C47820   9.820  -1.070   3.612 -0.4765 -0.2154  0.4867
  363MOL0     C47821   9.812  -1.202   3.546  0.5010 -0.2859 -0.6998
  363MOL0     C47822   9.775  -1.312   3.633 -0.2264 -0.2877  0.2591
  363MOL0     C47823   9.754  -1.433   3.553  0.9147  0.6083 -0.4866
  363MOL0     C47824   9.751  -1.556   3.637 -0.6075  0.7112 -0.7460
  363MOL0     C47825   9.738  -1.686   3.564 -0.0179 -0.7336  0.1730
  363MOL0     C47826   9.872  -1.751   3.526 -0.5857 -0.6670  0.7655
  363MOL0     C47827   9.885  -1.896   3.573  0.7681  0.9566 -0.0198
  363MOL0    Cl47828   9.781  -1.992   3.466 -0.2784 -0.8903  0.1671
  363MOL0     C47829   9.702  -0.782   3.470 -0.7806 -0.1779 -0.2221
  363MOL0     C47830   9.670  -0.651   3.510 -0.3420  0.4498 -0.0935
  363MOL0     O47831   9.700  -0.460   3.844  0.2372 -0.3631  0.0439
  363MOL0     C47832   9.725  -0.197   3.877  0.9446 -0.3894  0.8860
  363MOL0     C47833   9.752  -0.061   3.889  0.1632 -0.7234  0.2210
  363MOL0     N47834   9.822   0.691   3.841 -0.6216  0.5302  0.4894
  363MOL0     N47835   9.769   0.772   3.755 -0.2028  0.8887 -0.6395
  363MOL0     C47836   9.843   1.786   3.646 -0.5235 -0.3402  1.0435
  363MOL0     C47837   9.823   1.857   3.764  0.0175 -0.0847  0.0107
  363MOL0     C47838   9.701   2.034   4.140 -1.2169  0.8844  0.1937
  363MOL0     C47839   9.594   2.128   4.112 -0.7880 -0.6358  0.1841
  363MOL0     C47840   9.546   2.227   4.209  0.8877  0.1646 -0.8459
  363MOL0     C47841   9.602   2.218   4.339 -0.9114 -0.4288  1.0534
  363MOL0     O47842   9.549   2.293   4.439 -0.1830  0.4110 -0.0431
  363MOL0     C47843   9.597   2.292   4.572 -0.8348  0.8898 -0.8835
  363MOL0     C47844   9.731   2.368   4.576 -0.6234  0.4445 -1.0901
  363MOL0     C47845   9.725   2.509   4.516  0.2631 -0.1180  0.2232
  363MOL0     C47846   9.841   2.590   4.564 -0.4558 -0.3688  0.8882
  363MOL0     C47847   9.976   2.540   4.528 -0.5069  0.2350 -0.3029
  363MOL0     C47848  10.078   2.480   4.509 -0.4920  0.0167 -0.1593
  363MOL0     C47849   9.708   2.129   4.361  0.3403  0.3840 -0.4175
  363MOL0     C47850   9.752   2.037   4.264 -0.0115  0.3815 -0.2643
  363MOL0     H47851   9.506   1.756   3.836 -0.8010 -2.1294 -0.9856
  363MOL0     H47852   9.535   1.638   3.617 -2.0686  2.0942  1.3183
  363MOL0     H47853   9.625   1.539   3.390 -0.3674 -0.5898  1.0976
  363MOL0     H47854   9.690   1.475   3.532 -1.1894  2.5297  1.0101
  363MOL0     H47855   9.907   1.516   3.337 -0.6479  1.0095 -3.6299
  363MOL0     H47856   9.765   1.448   3.248 -0.7396 -2.5392  0.8930
  363MOL0     H47857   9.760   1.266   3.398  0.5658 -1.2708  0.1849
  363MOL0     H47858   9.879   1.337   3.501 -2.6899  1.2587  0.1089
  363MOL0     H47859   9.923   1.246   3.210  0.4383  2.7333 -0.7949
  363MOL0     H47860  10.036   1.341   3.305 -0.3409 -0.1634  1.1537
  363MOL0     H47861  10.027   1.148   3.473 -3.0267 -1.9198  0.2702
  363MOL0     H47862  10.123   1.129   3.324  0.0602 -0.6615 -0.3867
  363MOL0     H47863   9.956   0.992   3.252  1.3288 -0.7108  0.1051
  363MOL0     H47864   9.829   1.060   3.365  0.6156  2.2884  1.2117
  363MOL0     H47865   9.894   0.812   3.383  0.6184 -0.4980 -1.1596
  363MOL0     H47866  10.035   0.865   3.455  0.2918  0.4050 -3.1874
  363MOL0     H47867   9.747   0.942   3.554  0.1615 -1.8448 -0.7081
  363MOL0     H47868   9.899   1.008   3.617  0.6400 -0.0003 -0.3539
  363MOL0     H47869  10.054   0.713   3.607 -2.0882 -0.7287 -1.7416
  363MOL0     H47870  10.026   0.549   3.968 -0.7594  2.5609  0.5968
  363MOL0     H47871  10.140   0.591   3.837 -0.2396  1.3461  2.0401
  363MOL0     H47872  10.106   0.359   3.820 -1.7561  0.4920  0.3191
  363MOL0     H47873  10.020   0.418   3.676 -1.7730 -0.7821 -0.9971
  363MOL0     H47874   9.915   0.314   3.933  0.5847  1.4567  0.6556
  363MOL0     H47875   9.819   0.413   3.825  0.7609 -1.2323 -2.2865
  363MOL0     H47876   9.976   0.162   3.728 -2.4739 -4.0717 -1.3325
  363MOL0     H47877   9.852   0.265   3.644 -0.8229  3.2997  2.3499
  363MOL0     H47878   9.784   0.019   3.559  0.2410  6.6161  2.7628
  363MOL0     H47879   9.781  -0.228   3.544  0.3333 -2.4466  1.1562
  363MOL0     H47880   9.901  -0.603   3.753  0.3741  0.4585 -1.7798
  363MOL0     H47881   9.937  -0.833   3.718 -0.6632 -1.2156  0.0742
  363MOL0     H47882   9.741  -1.067   3.687 -0.8301  0.6699  0.0902
  363MOL0     H47883   9.922  -1.056   3.650 -0.5069  0.4576  0.3322
  363MOL0     H47884   9.914  -1.224   3.513  1.2792 -1.4809  2.1828
  363MOL0     H47885   9.742  -1.200   3.462 -0.9039  3.4150  0.3399
  363MOL0     H47886   9.686  -1.284   3.691 -0.5418  0.1242 -0.4105
  363MOL0     H47887   9.853  -1.319   3.710 -1.8476 -0.0248  2.0180
  363MOL0     H47888   9.658  -1.434   3.500  1.4343 -1.4077 -1.4833
  363MOL0     H47889   9.833  -1.443   3.478  1.4860  1.7782 -0.0637
  363MOL0     H47890   9.663  -1.557   3.703  0.9127 -2.8758  1.5140
  363MOL0     H47891   9.829  -1.571   3.711 -0.9601 -1.5037 -0.7524
  363MOL0     H47892   9.688  -1.673   3.468  1.0817 -2.1522 -0.6197
  363MOL0     H47893   9.680  -1.752   3.629 -1.7099 -0.2686 -0.8147
  363MOL0     H47894   9.869  -1.749   3.416 -2.4755  1.5348  0.7829
  363MOL0     H47895   9.962  -1.698   3.559 -0.0992 -2.7733  3.0661
  363MOL0     H47896   9.849  -1.903   3.676 -1.0733 -0.1334 -0.6892
  363MOL0     H47897   9.986  -1.938   3.575  1.0003  1.4910  1.7099
  363MOL0     H47898   9.664  -0.830   3.380  1.0590 -1.8047 -0.1940
  363MOL0     H47899   9.594  -0.591   3.459 -0.0016  0.9430 -0.0261
  363MOL0     H47900   9.708  -0.254   3.968 -0.4752  0.4420  1.1706
  363MOL0     H47901   9.730  -0.019   3.987  3.9966  0.5873  0.6941
  363MOL0     H47902   9.942   1.801   3.603 -0.6311 -0.5676  0.7193
  363MOL0     H47903   9.897   1.934   3.785 -1.6492  1.8638 -0.9066
  363MOL0     H47904   9.565   2.130   4.008 -1.2034 -1.1920  0.2882
  363MOL0     H47905   9.464   2.297   4.200  0.9938  0.3823 -0.1776
  363MOL0     H47906   9.610   2.189   4.606  0.8610  0.7448 -1.8867
  363MOL0     H47907   9.524   2.332   4.643  0.0431 -0.5948  0.9160
  363MOL0     H47908   9.766   2.378   4.680 -1.5778 -0.6252 -0.6401
  363MOL0     H47909   9.803   2.301   4.529  0.4393 -0.8627  2.0752
  363MOL0     H47910   9.626   2.546   4.543  0.7419  1.7488 -0.4577
  363MOL0     H47911   9.725   2.502   4.406 -0.3249  1.8955  0.0618
  363MOL0     H47912   9.833   2.695   4.534  3.7733  0.3926  1.8097
  363MOL0     H47913   9.833   2.590   4.673 -1.2627 -1.7156  0.8459
  363MOL0     H47914  10.173   2.431   4.507  0.9483  2.5410  1.4933
  363MOL0     H47915   9.756   2.123   4.458  0.5624 -2.4221 -0.6135
  363MOL0     H47916   9.817   1.959   4.304  1.2096  1.1943 -0.6164
  364MOL0     O47917   4.826   5.187   5.238 -0.3202  1.1431  0.0480
  364MOL0     C47918   4.797   5.297   5.276  0.9612  0.2350  0.1788
  364MOL0     O47919   4.874   5.409   5.292 -0.5725  0.4536 -0.3041
  364MOL0     C47920   5.009   5.412   5.264 -0.2668 -0.2434  0.8300
  364MOL0     C47921   5.093   5.509   5.316  0.0196 -0.1576  0.0645
  364MOL0     C47922   5.230   5.505   5.300  1.0445 -0.2919 -0.0649
  364MOL0     C47923   5.290   5.417   5.214 -0.3291  0.3212  0.4357
  364MOL0     O47924   5.424   5.418   5.178 -0.2358  0.5975  0.3386
  364MOL0     C47925   5.500   5.545   5.177 -0.2153  0.6345 -0.0986
  364MOL0     C47926   5.474   5.622   5.049 -0.6861 -0.5363  0.3782
  364MOL0     C47927   5.525   5.757   5.054 -0.1270 -1.0635  0.0904
  364MOL0     C47928   5.681   5.767   5.060 -0.7369 -0.2930 -0.2013
  364MOL0     C47929   5.722   5.907   5.088  0.7755  0.5383 -0.8262
  364MOL0     C47930   5.866   5.915   5.123  0.0151 -0.0436  0.0414
  364MOL0     C47931   5.896   6.061   5.173 -0.3653 -0.2340 -0.2293
  364MOL0     C47932   6.044   6.080   5.199  0.5894 -0.2792  0.6329
  364MOL0     N47933   6.065   6.222   5.220  0.3609  0.4116  0.2570
  364MOL0     C47934   6.154   6.294   5.145  0.2002 -0.1846 -0.5036
  364MOL0     C47935   6.142   6.416   5.186 -0.4097 -1.4398  0.2003
  364MOL0     C47936   6.206   6.541   5.132 -0.2786 -0.0844  0.4581
  364MOL0     C47937   6.130   6.582   4.999  0.4188 -0.4100  0.4505
  364MOL0     C47938   6.137   6.725   4.947  0.3161  0.0983 -0.6735
  364MOL0     C47939   6.046   6.825   5.014 -0.9381 -0.7953  0.5929
  364MOL0     O47940   6.044   6.815   5.154  0.5126 -0.0672 -1.0638
  364MOL0     C47941   5.952   6.894   5.222 -0.4516  0.4276  0.1621
  364MOL0     C47942   5.937   6.852   5.348 -0.2607 -0.7692  0.3886
  364MOL0     C47943   5.845   6.916   5.436 -0.6184  0.9070 -0.0784
  364MOL0     C47944   5.772   7.022   5.382  0.5830  0.3896  0.1858
  364MOL0     C47945   5.690   7.099   5.475  0.5928 -0.4165  0.5911
  364MOL0     O47946   5.570   7.146   5.425  0.2571  0.0281  0.1968
  364MOL0     C47947   5.498   7.241   5.488 -0.1124 -0.8410  0.1929
  364MOL0     C47948   5.552   7.358   5.547  0.4450 -0.0957  0.9052
  364MOL0     C47949   5.468   7.467   5.582  0.1688  0.3829 -0.9301
  364MOL0     C47950   5.324   7.447   5.570 -0.3992  0.2469 -0.4563
  364MOL0     O47951   5.229   7.545   5.604 -0.7798 -0.6062  1.8094
  364MOL0     C47952   5.267   7.651   5.697 -0.3618  0.1151  0.3397
  364MOL0     C47953   5.136   7.712   5.741  0.7024  0.2695 -0.2493
  364MOL0     C47954   5.143   7.788   5.873 -0.9908  0.1915 -0.0065
  364MOL0     C47955   5.004   7.808   5.926  0.1309  0.2641  0.0890
  364MOL0     C47956   4.953   7.680   5.992  0.1031 -0.0217 -0.2516
  364MOL0     C47957   4.823   7.724   6.054  1.0070  0.4854 -0.2238
  364MOL0     C47958   4.743   7.611   6.129 -0.1344 -0.3305  0.7579
  364MOL0     C47959   4.664   7.671   6.246 -0.0771  0.7968  0.2097
  364MOL0    Cl47960   4.621   7.847   6.217 -0.2831  0.0026 -0.5887
  364MOL0     C47961   5.278   7.330   5.517 -0.3725 -0.1377  0.1328
  364MOL0     C47962   5.361   7.230   5.467  0.2695  0.4619 -0.4267
  364MOL0     O47963   5.729   7.125   5.589  0.3001  0.5172 -0.1000
  364MOL0     C47964   5.778   7.051   5.244  0.1157 -0.0105  0.1731
  364MOL0     C47965   5.886   6.999   5.167  0.6713 -0.4202  0.5245
  364MOL0     N47966   6.048   6.423   5.287 -0.0665  0.1484 -0.6270
  364MOL0     N47967   5.996   6.300   5.308 -0.1151 -0.7285  0.4491
  364MOL0     C47968   5.213   5.320   5.144 -0.0535 -0.5187 -0.2329
  364MOL0     C47969   5.073   5.325   5.173  0.7194  1.1434  1.5712
  364MOL0     C47970   4.648   5.315   5.304  0.1790 -0.0967 -0.5219
  364MOL0     C47971   4.565   5.202   5.296 -0.4336  0.2554 -0.3838
  364MOL0     C47972   4.428   5.225   5.327  0.4485 -0.2661  0.7581
  364MOL0     C47973   4.386   5.351   5.357  1.1076 -0.2219 -1.0255
  364MOL0     O47974   4.252   5.353   5.391 -0.2888  0.5385  0.7099
  364MOL0     C47975   4.176   5.476   5.390 -0.0868 -0.1026 -0.2666
  364MOL0     C47976   4.030   5.439   5.417  0.2114 -1.0366  0.7544
  364MOL0     C47977   3.985   5.370   5.549  0.3352 -0.2681 -0.1283
  364MOL0     C47978   3.856   5.294   5.536  0.6032 -1.2624  0.4641
  364MOL0     C47979   3.815   5.226   5.662 -0.5678 -0.1570 -1.8537
  364MOL0     C47980   3.790   5.156   5.763 -0.1948 -0.6694  1.1965
  364MOL0     C47981   4.474   5.461   5.362  1.1168 -0.2284 -0.0712
  364MOL0     C47982   4.601   5.441   5.328 -0.6553 -0.0451 -0.5396
  364MOL0     H47983   5.045   5.591   5.368 -2.0249 -0.6042 -1.0097
  364MOL0     H47984   5.286   5.580   5.355 -1.3249  0.5880  1.2980
  364MOL0     H47985   5.605   5.519   5.197 -0.2277  2.8372  3.9358
  364MOL0     H47986   5.482   5.609   5.263 -0.1479 -0.1901  0.5353
  364MOL0     H47987   5.366   5.623   5.029 -1.1310  0.8786  2.4838
  364MOL0     H47988   5.517   5.574   4.961  1.5080 -2.2978  2.2820
  364MOL0     H47989   5.474   5.811   5.135 -0.9903  0.3818 -1.3678
  364MOL0     H47990   5.498   5.816   4.967  1.7893  5.1422  3.1182
  364MOL0     H47991   5.715   5.717   5.150  1.4556  0.2458 -0.6787
  364MOL0     H47992   5.734   5.734   4.970  1.9648  1.3455  0.6802
  364MOL0     H47993   5.647   5.937   5.163 -1.9548 -1.4082 -2.5716
  364MOL0     H47994   5.720   5.970   4.999  1.2901 -1.1881 -2.0958
  364MOL0     H47995   5.924   5.889   5.034 -0.2387 -1.4866  0.2786
  364MOL0     H47996   5.887   5.850   5.209  1.5224  0.6178  0.2036
  364MOL0     H47997   5.846   6.123   5.099 -2.9341  0.2690  1.7730
  364MOL0     H47998   5.843   6.075   5.268 -0.6003  1.7241 -0.6095
  364MOL0     H47999   6.093   6.055   5.104 -3.5739  0.9253 -2.1053
  364MOL0     H48000   6.076   6.017   5.282  2.4230  0.0436  0.2079
  364MOL0     H48001   6.209   6.258   5.059 -0.3182 -3.1625  0.2973
  364MOL0     H48002   6.307   6.515   5.101 -0.4643 -0.3341  0.0668
  364MOL0     H48003   6.213   6.622   5.206  2.4186 -0.0337  0.2393
  364MOL0     H48004   6.024   6.556   4.998 -0.2191  1.9589 -0.1695
  364MOL0     H48005   6.176   6.516   4.925 -1.6986 -1.4185 -0.0251
  364MOL0     H48006   6.240   6.759   4.955  0.4752 -0.7606  1.8256
  364MOL0     H48007   6.111   6.713   4.841  0.4060 -0.4137 -0.6380
  364MOL0     H48008   5.946   6.820   4.971 -0.3376  1.7278 -1.3159
  364MOL0     H48009   6.079   6.928   4.998 -2.4882 -0.3989 -0.1680
  364MOL0     H48010   5.985   6.759   5.376  1.7697  0.5955  1.7263
  364MOL0     H48011   5.832   6.891   5.541 -0.9908 -1.1003 -0.5511
  364MOL0     H48012   5.652   7.373   5.585 -0.7858 -1.1079  4.9740
  364MOL0     H48013   5.494   7.551   5.646  0.1097 -0.2399 -0.0592
  364MOL0     H48014   5.332   7.726   5.651 -0.8621  0.6039  0.4204
  364MOL0     H48015   5.299   7.602   5.790 -0.0116  0.7206  0.5463
  364MOL0     H48016   5.061   7.633   5.754 -0.4882  1.7472  3.1611
  364MOL0     H48017   5.113   7.779   5.659 -0.2693 -0.0482 -0.2546
  364MOL0     H48018   5.184   7.888   5.855 -0.8521  0.5071  1.8318
  364MOL0     H48019   5.210   7.741   5.946  0.9302  0.1021 -1.7163
  364MOL0     H48020   4.993   7.889   5.999 -2.3227 -1.9744  2.4477
  364MOL0     H48021   4.941   7.827   5.839  2.1480  0.5261 -1.3810
  364MOL0     H48022   5.025   7.653   6.069  0.7509  1.4329 -0.3147
  364MOL0     H48023   4.931   7.593   5.928 -2.2306 -1.8710  2.7964
  364MOL0     H48024   4.760   7.772   5.979 -0.0859 -0.2942  0.1653
  364MOL0     H48025   4.850   7.800   6.128  1.2284  1.2591 -1.0791
  364MOL0     H48026   4.687   7.561   6.049 -0.2581 -1.0192  1.2638
  364MOL0     H48027   4.825   7.549   6.165  1.8432 -0.8786 -3.9895
  364MOL0     H48028   4.729   7.657   6.333  0.8464 -3.9784 -0.9444
  364MOL0     H48029   4.576   7.607   6.255  0.4981 -0.0368 -0.0087
  364MOL0     H48030   5.170   7.327   5.525 -0.2158  0.3641  4.0102
  364MOL0     H48031   5.341   7.134   5.420 -0.4669  1.2498 -1.7963
  364MOL0     H48032   5.711   7.129   5.209  0.3624  1.2724  2.3771
  364MOL0     H48033   5.918   7.048   5.076  0.9176 -2.1566 -0.3619
  364MOL0     H48034   5.246   5.253   5.066  0.8973 -1.1347  0.6676
  364MOL0     H48035   5.017   5.257   5.110  2.4520  2.5030 -1.7504
  364MOL0     H48036   4.619   5.111   5.274  2.7250  1.7001  0.8068
  364MOL0     H48037   4.367   5.135   5.323 -0.8545  0.6164 -0.4567
  364MOL0     H48038   4.187   5.536   5.299 -1.8017 -1.7287 -1.6211
  364MOL0     H48039   4.212   5.526   5.480  0.5632 -1.1004  0.0490
  364MOL0     H48040   3.978   5.535   5.424 -1.1010 -1.8162  2.7503
  364MOL0     H48041   3.982   5.384   5.336  0.2237  1.9572 -1.4485
  364MOL0     H48042   3.976   5.445   5.627 -1.0249 -0.3038 -0.2146
  364MOL0     H48043   4.062   5.298   5.577 -1.6649 -1.9180  1.4682
  364MOL0     H48044   3.778   5.364   5.507 -0.0499 -1.0304  2.5871
  364MOL0     H48045   3.877   5.217   5.462  1.6794 -0.8318  0.3026
  364MOL0     H48046   3.757   5.097   5.846 -0.2102  0.5681  2.0922
  364MOL0     H48047   4.437   5.559   5.391  1.6145  0.1244 -0.6192
  364MOL0     H48048   4.664   5.528   5.347 -0.2836 -1.1044  4.3101
  365MOL0     O48049   0.729   1.550   9.394 -0.1961 -0.1293  0.6636
  365MOL0     C48050   0.768   1.447   9.437  0.7382 -0.7951 -0.6658
  365MOL0     O48051   0.763   1.417   9.573 -0.4018  0.5773  0.5640
  365MOL0     C48052   0.715   1.508   9.661 -0.1789  0.3236  0.4143
  365MOL0     C48053   0.586   1.560   9.645  0.1963  0.0927 -0.8231
  365MOL0     C48054   0.536   1.655   9.739  0.9107 -0.9746 -0.7013
  365MOL0     C48055   0.618   1.701   9.846  0.3956  0.4091 -0.1798
  365MOL0     O48056   0.559   1.796   9.929  0.2490 -0.0981 -0.0727
  365MOL0     C48057   0.620   1.836  10.045 -0.2301  0.1655 -0.2435
  365MOL0     C48058   0.527   1.940  10.107  0.0221 -0.2582 -0.5687
  365MOL0     C48059   0.385   1.881  10.103 -0.0124 -0.0025  0.2102
  365MOL0     C48060   0.277   1.954  10.194 -0.6433 -0.1910  0.6681
  365MOL0     C48061   0.279   1.898  10.342 -0.5557  0.8353  0.1287
  365MOL0     C48062   0.150   1.956  10.414 -0.1324 -0.2280  0.5933
  365MOL0     C48063   0.131   1.917  10.562  0.6267  0.4395  0.4048
  365MOL0     C48064   0.005   1.975  10.630  0.4458  0.5924 -0.5283
  365MOL0     N48065  -0.004   2.120  10.634  0.7435  0.5395 -0.2015
  365MOL0     C48066   0.026   2.187  10.742 -0.2883 -0.3807  0.0928
  365MOL0     C48067  -0.038   2.302  10.725 -0.2894  0.1904  0.4226
  365MOL0     C48068  -0.028   2.412  10.831 -0.2541  0.5593  0.0551
  365MOL0     C48069  -0.157   2.396  10.908 -0.0424  0.1725 -0.9037
  365MOL0     C48070  -0.245   2.523  10.918 -0.3946 -0.9634 -0.5148
  365MOL0     C48071  -0.176   2.635  10.999  0.2250 -0.4952  0.3896
  365MOL0     O48072  -0.173   2.637  11.139  0.5922 -0.2086 -0.9119
  365MOL0     C48073  -0.297   2.626  11.203 -0.2067 -0.3295  0.5550
  365MOL0     C48074  -0.345   2.745  11.267  0.2642  0.1789  0.2683
  365MOL0     C48075  -0.457   2.745  11.355  0.7927  0.4028  0.1336
  365MOL0     C48076  -0.528   2.626  11.365 -0.4688 -0.0111  0.0679
  365MOL0     C48077  -0.666   2.637  11.427  0.8543  0.3237 -0.1537
  365MOL0     O48078  -0.720   2.751  11.467 -0.5899  0.6182  0.1719
  365MOL0     C48079  -0.837   2.750  11.535  0.3441  0.1443 -0.0752
  365MOL0     C48080  -0.853   2.790  11.669  0.3959 -1.0956 -0.2006
  365MOL0     C48081  -0.982   2.798  11.734 -0.2675 -0.5958  0.9001
  365MOL0     C48082  -1.101   2.767  11.660  0.0889  0.4865  0.8275
  365MOL0     O48083  -1.227   2.766  11.728 -0.0080  0.6019 -0.6928
  365MOL0     C48084  -1.313   2.659  11.690  0.4493  0.3844 -0.9092
  365MOL0     C48085  -1.435   2.664  11.785 -0.3244 -0.2965  0.8115
  365MOL0     C48086  -1.406   2.619  11.934 -0.0177 -0.2008  1.8618
  365MOL0     C48087  -1.432   2.469  11.948  0.9665 -0.6781  0.4437
  365MOL0     C48088  -1.417   2.414  12.093  0.0625  0.2667 -0.2240
  365MOL0     C48089  -1.530   2.462  12.173  0.0214 -0.2211 -0.3857
  365MOL0     C48090  -1.672   2.405  12.134 -0.3603  0.1156  0.5422
  365MOL0     C48091  -1.776   2.396  12.257  0.9207 -0.0260 -0.0662
  365MOL0    Cl48092  -1.935   2.340  12.209 -0.1703 -0.6811  0.0217
  365MOL0     C48093  -1.083   2.722  11.529 -0.1475  0.6034  0.4868
  365MOL0     C48094  -0.954   2.717  11.474  0.1862  0.5765  0.3949
  365MOL0     O48095  -0.728   2.531  11.426 -0.1892 -0.1481 -0.1348
  365MOL0     C48096  -0.481   2.507  11.305 -0.2564 -0.2453 -0.9302
  365MOL0     C48097  -0.357   2.503  11.233  0.6290  0.6997 -0.1696
  365MOL0     N48098  -0.100   2.306  10.599 -0.8760 -0.8264  0.2333
  365MOL0     N48099  -0.070   2.192  10.544  1.0079 -0.7214 -0.8112
  365MOL0     C48100   0.748   1.643   9.871 -0.5670 -0.1708  0.6242
  365MOL0     C48101   0.792   1.550   9.772  0.2254 -0.3603 -0.4528
  365MOL0     C48102   0.794   1.330   9.347 -0.4351 -0.5328  1.8200
  365MOL0     C48103   0.835   1.348   9.209 -0.0091 -0.3487  0.2447
  365MOL0     C48104   0.871   1.231   9.127 -0.2167 -0.0513 -0.0637
  365MOL0     C48105   0.887   1.106   9.176 -0.6627  0.1668  0.1508
  365MOL0     O48106   0.933   1.009   9.095 -0.0429  0.1826 -0.2029
  365MOL0     C48107   0.940   0.870   9.151  0.3372 -0.4841 -0.0037
  365MOL0     C48108   1.003   0.765   9.053 -0.3777 -0.7653 -0.7803
  365MOL0     C48109   0.917   0.752   8.927  0.0208  0.2890  0.2739
  365MOL0     C48110   0.970   0.642   8.825  0.2571  0.0187  0.0130
  365MOL0     C48111   1.092   0.684   8.764 -0.8816  0.3430  0.5073
  365MOL0     C48112   1.206   0.701   8.706  0.2694 -1.0896 -0.3799
  365MOL0     C48113   0.842   1.090   9.318  0.4423  1.4416 -0.0498
  365MOL0     C48114   0.816   1.200   9.393  0.4344  0.0674  0.7261
  365MOL0     H48115   0.540   1.542   9.548  0.0283  0.7996 -0.8820
  365MOL0     H48116   0.447   1.710   9.711  1.0393 -1.3130 -1.8262
  365MOL0     H48117   0.708   1.892  10.012  0.6639 -1.5605 -0.9636
  365MOL0     H48118   0.641   1.748  10.108  1.2886 -1.2938 -2.6151
  365MOL0     H48119   0.531   2.035  10.053 -0.7664  2.5845  3.8259
  365MOL0     H48120   0.557   1.970  10.208  0.0842  0.7329 -0.8756
  365MOL0     H48121   0.383   1.774  10.128 -1.3362  0.1166  0.7411
  365MOL0     H48122   0.353   1.896   9.999  2.1922  0.4346 -0.4541
  365MOL0     H48123   0.295   2.062  10.189 -3.9714  0.5494  1.8755
  365MOL0     H48124   0.177   1.940  10.153 -0.7060 -0.4451  0.9066
  365MOL0     H48125   0.375   1.908  10.393  0.9709 -0.6542 -2.2511
  365MOL0     H48126   0.252   1.793  10.334 -1.4143  0.6962  3.3965
  365MOL0     H48127   0.057   1.934  10.362 -1.3600 -1.9617  3.3165
  365MOL0     H48128   0.166   2.064  10.406  1.3567 -0.3431  1.6286
  365MOL0     H48129   0.131   1.808  10.571  1.1729  0.2263 -1.6721
  365MOL0     H48130   0.221   1.957  10.609 -1.0903  1.5700  3.0515
  365MOL0     H48131   0.010   1.945  10.735  2.9971  0.3340 -0.6441
  365MOL0     H48132  -0.086   1.940  10.581 -0.0586 -2.2455  2.1051
  365MOL0     H48133   0.075   2.152  10.832  0.1204 -0.3984 -0.1325
  365MOL0     H48134  -0.016   2.513  10.791 -2.2476  1.0009  0.4299
  365MOL0     H48135   0.058   2.392  10.895  0.3170  1.1448 -0.5124
  365MOL0     H48136  -0.131   2.349  11.004 -3.0870  0.2042  0.0155
  365MOL0     H48137  -0.211   2.314  10.859 -1.9480 -0.3104  1.7596
  365MOL0     H48138  -0.266   2.566  10.819 -0.1549  1.5726  0.4713
  365MOL0     H48139  -0.343   2.498  10.961  0.8016 -0.2232  2.8679
  365MOL0     H48140  -0.230   2.727  10.971  1.6539 -0.3636 -2.2089
  365MOL0     H48141  -0.074   2.650  10.963 -0.3789 -0.2959 -1.3471
  365MOL0     H48142  -0.279   2.830  11.257  1.7556 -1.1134 -1.6033
  365MOL0     H48143  -0.496   2.837  11.398 -1.2264 -0.7599  0.9221
  365MOL0     H48144  -0.775   2.832  11.731 -0.7059  1.6986 -0.5498
  365MOL0     H48145  -1.000   2.842  11.832 -4.0746 -2.0735  1.0330
  365MOL0     H48146  -1.260   2.564  11.697  1.9033  1.0590 -2.1478
  365MOL0     H48147  -1.345   2.671  11.586  2.7902  1.0222 -1.5992
  365MOL0     H48148  -1.508   2.598  11.736 -2.2512  3.5264 -2.0546
  365MOL0     H48149  -1.475   2.765  11.777 -0.9534 -0.5026  1.2111
  365MOL0     H48150  -1.473   2.679  11.996 -0.5720  2.1530 -0.8302
  365MOL0     H48151  -1.304   2.647  11.961  0.0410  0.5464  0.9013
  365MOL0     H48152  -1.533   2.445  11.913 -0.0170  1.3652  1.6391
  365MOL0     H48153  -1.349   2.418  11.900  4.3957  1.0097  4.0210
  365MOL0     H48154  -1.326   2.442  12.148 -2.0597  2.1744  2.5959
  365MOL0     H48155  -1.422   2.304  12.095 -1.9467  0.3291 -0.2120
  365MOL0     H48156  -1.534   2.571  12.165  0.1130 -0.1775  0.1716
  365MOL0     H48157  -1.501   2.439  12.276  4.4193  0.3290 -1.3001
  365MOL0     H48158  -1.717   2.453  12.047 -1.4491 -0.4075  0.7952
  365MOL0     H48159  -1.656   2.306  12.089  3.9191  1.4623 -1.5143
  365MOL0     H48160  -1.781   2.488  12.317  0.2417 -0.8791  1.2341
  365MOL0     H48161  -1.738   2.324  12.330 -1.1370 -2.3200 -1.1423
  365MOL0     H48162  -1.173   2.695  11.474 -0.4144 -1.6195  1.8874
  365MOL0     H48163  -0.938   2.677  11.374  0.3536  0.0610  0.6284
  365MOL0     H48164  -0.534   2.417  11.334  2.6465 -0.9333  3.1015
  365MOL0     H48165  -0.325   2.406  11.196  1.2862  0.0750  1.9114
  365MOL0     H48166   0.813   1.699   9.936 -0.1205  2.5337 -1.9510
  365MOL0     H48167   0.897   1.523   9.765  0.3771  0.2725 -0.7381
  365MOL0     H48168   0.832   1.446   9.163  1.6581 -1.6392 -2.9268
  365MOL0     H48169   0.903   1.241   9.023 -1.6115  1.6181 -0.3708
  365MOL0     H48170   0.833   0.847   9.161  0.0206  0.6949 -0.5231
  365MOL0     H48171   0.993   0.872   9.246 -0.1452 -0.1661  0.2584
  365MOL0     H48172   1.101   0.804   9.025  0.7149 -0.5113  2.8425
  365MOL0     H48173   1.024   0.669   9.101  0.8826 -0.5881 -0.9490
  365MOL0     H48174   0.919   0.850   8.878 -3.6708  1.0838  1.3840
  365MOL0     H48175   0.812   0.740   8.954 -0.5089  0.6623 -1.4993
  365MOL0     H48176   0.998   0.555   8.886  0.8722  1.6006  2.1307
  365MOL0     H48177   0.907   0.627   8.738  6.7844 -0.7775 -5.3952
  365MOL0     H48178   1.304   0.702   8.665  1.5304  2.2380  2.2458
  365MOL0     H48179   0.837   0.992   9.364  0.8695  0.6833 -1.5259
  365MOL0     H48180   0.798   1.188   9.500 -0.8792  0.2223  0.5369
  366MOL0     O48181   2.922   2.260   6.339 -0.1795 -0.9411  0.5211
  366MOL0     C48182   2.856   2.332   6.268  0.5800 -0.0942  0.8134
  366MOL0     O48183   2.720   2.354   6.285  0.0805 -0.2451 -0.7478
  366MOL0     C48184   2.659   2.303   6.406  0.4225  0.0544 -0.2913
  366MOL0     C48185   2.538   2.224   6.406 -0.1927 -0.5783 -0.5280
  366MOL0     C48186   2.458   2.200   6.513 -0.4537  0.7755 -0.6273
  366MOL0     C48187   2.501   2.244   6.635 -0.9334  0.1849 -0.4774
  366MOL0     O48188   2.433   2.240   6.757  0.1484 -0.9109 -0.2481
  366MOL0     C48189   2.345   2.127   6.787  0.4770 -1.4947 -0.8765
  366MOL0     C48190   2.327   2.130   6.933 -0.1297  0.4901 -0.8383
  366MOL0     C48191   2.460   2.137   7.009 -0.7793  0.2537  0.8359
  366MOL0     C48192   2.461   2.190   7.149 -0.2076 -0.8135 -0.5500
  366MOL0     C48193   2.387   2.100   7.261 -0.5099  0.1929  0.4918
  366MOL0     C48194   2.231   2.091   7.264 -0.0306  0.2411  0.9744
  366MOL0     C48195   2.178   2.038   7.396 -0.3694 -0.0573  0.6462
  366MOL0     C48196   2.040   2.081   7.425  0.3548  0.6339  0.6507
  366MOL0     N48197   1.958   1.985   7.502  0.4732 -0.3696  0.8137
  366MOL0     C48198   1.979   1.945   7.632 -0.4239  0.3725  0.3961
  366MOL0     C48199   1.877   1.857   7.665 -0.0407 -0.3314  1.2377
  366MOL0     C48200   1.856   1.798   7.811  0.2746 -0.5847 -0.0482
  366MOL0     C48201   1.882   1.900   7.930 -0.1542  0.1393  0.0670
  366MOL0     C48202   1.849   1.854   8.073  0.3409  0.2449 -0.2372
  366MOL0     C48203   1.711   1.903   8.119 -0.5288  0.2993  0.5513
  366MOL0     O48204   1.694   1.850   8.247 -0.5995 -0.3919 -0.1664
  366MOL0     C48205   1.578   1.870   8.319  0.2702 -0.9055 -0.1266
  366MOL0     C48206   1.562   1.817   8.452 -0.1917 -0.4742  0.6278
  366MOL0     C48207   1.441   1.831   8.520 -0.3476 -1.0408 -0.6400
  366MOL0     C48208   1.333   1.905   8.469  0.2523 -0.7118 -0.3079
  366MOL0     C48209   1.205   1.915   8.547 -0.3966  1.0474 -0.9032
  366MOL0     O48210   1.088   1.931   8.489 -0.2010 -0.7198  0.4506
  366MOL0     C48211   0.969   1.932   8.553  0.3351 -0.2572 -0.1965
  366MOL0     C48212   0.880   1.821   8.534  0.0725 -0.7921 -0.2460
  366MOL0     C48213   0.757   1.833   8.588 -1.1132  0.3011  0.5835
  366MOL0     C48214   0.719   1.944   8.661  0.1303  0.4785  0.0395
  366MOL0     O48215   0.601   1.927   8.733  0.1955  0.5734 -0.1002
  366MOL0     C48216   0.532   2.046   8.784 -1.1736  0.7873 -0.2343
  366MOL0     C48217   0.376   2.046   8.799  0.6492 -0.5085 -0.8462
  366MOL0     C48218   0.321   1.972   8.684 -0.6515  1.3938 -0.1627
  366MOL0     C48219   0.189   2.033   8.654 -0.7401 -0.1743 -0.8581
  366MOL0     C48220   0.106   1.964   8.541 -0.1509 -0.1330 -0.7717
  366MOL0     C48221  -0.021   2.033   8.504  0.3266  0.5279 -0.4877
  366MOL0     C48222  -0.099   1.974   8.388  0.2831  0.0942  0.8071
  366MOL0     C48223  -0.167   1.838   8.409 -0.7016  1.0214 -1.0178
  366MOL0    Cl48224  -0.299   1.844   8.545  0.0687  0.5151  0.3898
  366MOL0     C48225   0.794   2.057   8.666 -0.0155  0.3296 -0.1692
  366MOL0     C48226   0.922   2.053   8.609  0.4175 -0.9337  0.1294
  366MOL0     O48227   1.225   1.901   8.662  0.2854 -0.6557  0.7919
  366MOL0     C48228   1.340   1.954   8.341 -0.0184 -0.0272  0.6938
  366MOL0     C48229   1.461   1.938   8.261 -0.1428 -0.8412  0.1679
  366MOL0     N48230   1.802   1.838   7.546  0.4932  0.1011  0.5467
  366MOL0     N48231   1.848   1.922   7.455  0.3548  0.5042  0.6152
  366MOL0     C48232   2.617   2.318   6.640 -1.1458  0.0677 -0.0237
  366MOL0     C48233   2.701   2.334   6.536  0.9672 -0.5702  0.1293
  366MOL0     C48234   2.934   2.408   6.170  0.6610  0.8543 -0.0214
  366MOL0     C48235   3.076   2.397   6.169  0.1139 -0.1900 -0.1341
  366MOL0     C48236   3.147   2.478   6.082 -0.3211 -0.0660  0.5832
  366MOL0     C48237   3.083   2.560   5.987  0.2867  0.1270 -0.3120
  366MOL0     O48238   3.172   2.637   5.906 -0.7854 -0.3711 -0.1484
  366MOL0     C48239   3.120   2.745   5.822  0.7656 -1.0580 -0.4925
  366MOL0     C48240   3.106   2.872   5.892 -0.0597 -1.0476  0.5812
  366MOL0     C48241   3.239   2.926   5.944  0.0394 -0.5463 -0.9663
  366MOL0     C48242   3.243   3.078   5.956  0.4350  0.3161  0.3018
  366MOL0     C48243   3.239   3.135   5.823  0.8800  0.0693  1.1130
  366MOL0     C48244   3.214   3.185   5.717  0.7689 -0.0346  0.4257
  366MOL0     C48245   2.935   2.562   5.981 -0.2372  0.7114  0.2277
  366MOL0     C48246   2.866   2.502   6.088  0.0369  0.5674  0.0951
  366MOL0     H48247   2.516   2.185   6.307  1.2858  0.4871 -1.3261
  366MOL0     H48248   2.369   2.138   6.508 -0.8624  1.4384 -3.8487
  366MOL0     H48249   2.394   2.035   6.754  0.7752 -2.4860  2.0049
  366MOL0     H48250   2.248   2.141   6.738  0.9492  2.5402 -0.9893
  366MOL0     H48251   2.286   2.037   6.975  1.6094  0.4187  0.8673
  366MOL0     H48252   2.277   2.217   6.975  1.1052  0.5308  0.6320
  366MOL0     H48253   2.530   2.205   6.960 -1.4502  0.8323  0.6717
  366MOL0     H48254   2.503   2.037   7.007  2.9964  1.7205 -0.9770
  366MOL0     H48255   2.564   2.189   7.186  0.8780  2.5574 -2.9943
  366MOL0     H48256   2.425   2.294   7.157  4.4563  0.9998 -0.3218
  366MOL0     H48257   2.410   2.140   7.360 -1.3747  0.0355  0.7647
  366MOL0     H48258   2.429   2.000   7.251  1.9536  1.3912 -2.9075
  366MOL0     H48259   2.196   2.028   7.182 -0.4442  2.1288 -0.3655
  366MOL0     H48260   2.186   2.190   7.254 -0.8019 -0.2471 -0.5940
  366MOL0     H48261   2.182   1.929   7.398  0.7621 -0.0209  1.2375
  366MOL0     H48262   2.237   2.078   7.480 -0.2176  0.9758  0.0741
  366MOL0     H48263   1.989   2.118   7.335 -1.0007  0.5191  1.3349
  366MOL0     H48264   2.032   2.168   7.491 -2.5361  0.4668  0.6448
  366MOL0     H48265   2.054   1.992   7.695  0.0385  2.7350 -1.7320
  366MOL0     H48266   1.920   1.710   7.805  1.3227  0.2366 -3.0668
  366MOL0     H48267   1.754   1.760   7.817  0.0444 -0.0953 -0.6549
  366MOL0     H48268   1.822   1.990   7.913  0.5991  1.2563  2.8962
  366MOL0     H48269   1.990   1.917   7.934 -0.1683  0.0843  0.8340
  366MOL0     H48270   1.847   1.746   8.089 -3.1978  0.4889  2.0303
  366MOL0     H48271   1.922   1.899   8.141  0.6611 -0.4399 -0.1139
  366MOL0     H48272   1.620   1.873   8.065 -2.7615  2.2475  2.9539
  366MOL0     H48273   1.718   2.013   8.116 -0.6611  0.3149 -1.9173
  366MOL0     H48274   1.653   1.795   8.508  2.5059  0.3468 -2.9911
  366MOL0     H48275   1.428   1.788   8.619 -2.0338  0.2499 -0.2511
  366MOL0     H48276   0.899   1.740   8.465 -1.0599 -0.6097 -0.7949
  366MOL0     H48277   0.691   1.747   8.598 -0.4385  0.0393  3.7868
  366MOL0     H48278   0.562   2.136   8.730  1.0455 -0.1269 -0.6647
  366MOL0     H48279   0.569   2.047   8.887 -0.5699 -1.5674 -0.3707
  366MOL0     H48280   0.336   2.148   8.805  0.8342 -0.4209 -1.0791
  366MOL0     H48281   0.357   1.984   8.887  3.0568 -2.6765 -1.7158
  366MOL0     H48282   0.304   1.864   8.693  3.2978  0.6573  0.0819
  366MOL0     H48283   0.389   1.973   8.599  1.5846  1.1866  1.5533
  366MOL0     H48284   0.143   2.032   8.753 -1.9778 -0.4071 -1.4181
  366MOL0     H48285   0.210   2.139   8.635  0.4190 -0.0103  1.0630
  366MOL0     H48286   0.069   1.866   8.573 -3.1230  0.6064 -1.5517
  366MOL0     H48287   0.164   1.945   8.450 -0.5563  0.8814 -1.2643
  366MOL0     H48288   0.004   2.133   8.467  1.6939 -0.7864 -3.4662
  366MOL0     H48289  -0.084   2.039   8.593 -1.3336 -2.9663 -1.2827
  366MOL0     H48290  -0.181   2.045   8.370 -1.6653 -1.7021  2.0657
  366MOL0     H48291  -0.032   1.973   8.302 -0.4029 -2.6504  0.2099
  366MOL0     H48292  -0.092   1.771   8.453 -1.3370  1.4135  0.7603
  366MOL0     H48293  -0.203   1.785   8.320 -4.5949  1.5494  0.0510
  366MOL0     H48294   0.759   2.151   8.708  0.6452  1.2524 -1.6387
  366MOL0     H48295   0.985   2.141   8.619 -1.0414 -0.0893  3.5716
  366MOL0     H48296   1.257   1.995   8.285  0.0243 -2.7200 -1.5592
  366MOL0     H48297   1.459   1.990   8.166 -0.5276 -2.6357 -0.8574
  366MOL0     H48298   2.654   2.353   6.736 -0.1521 -1.7650  0.3095
  366MOL0     H48299   2.794   2.390   6.543 -0.9361  2.6244  2.4937
  366MOL0     H48300   3.129   2.325   6.230 -2.4424 -1.5111  0.6925
  366MOL0     H48301   3.255   2.474   6.072 -0.2472  1.7656  0.2225
  366MOL0     H48302   3.019   2.727   5.782 -0.4015  0.4644  1.6047
  366MOL0     H48303   3.185   2.758   5.735  1.0051 -1.4471 -0.3761
  366MOL0     H48304   3.061   2.954   5.834  0.1638  0.1819  2.0747
  366MOL0     H48305   3.032   2.861   5.972 -2.4738  3.2774 -0.7080
  366MOL0     H48306   3.315   2.894   5.872  0.5476 -1.1757 -0.1845
  366MOL0     H48307   3.262   2.886   6.044  3.1100  3.3326  0.1439
  366MOL0     H48308   3.157   3.113   6.015 -1.6353 -0.5345 -2.0508
  366MOL0     H48309   3.332   3.117   6.007  0.1969 -0.0631  1.0323
  366MOL0     H48310   3.199   3.246   5.630 -0.0368  0.6924  1.0433
  366MOL0     H48311   2.876   2.619   5.910 -0.9274  1.2569  1.2097
  366MOL0     H48312   2.759   2.519   6.093  0.2253  3.1097 -2.0654
  367MOL0     O48313   5.673   9.266   0.084 -0.4565  0.0121  0.9128
  367MOL0     C48314   5.602   9.338   0.154 -0.2769 -0.3532  0.1912
  367MOL0     O48315   5.469   9.349   0.152  0.4129  0.6306 -0.0292
  367MOL0     C48316   5.397   9.266   0.070  0.2370 -1.1520  0.3400
  367MOL0     C48317   5.271   9.325   0.030  0.0891 -0.8993 -1.2734
  367MOL0     C48318   5.180   9.247  -0.051  0.5058 -0.3721  0.7827
  367MOL0     C48319   5.215   9.127  -0.102 -0.2835  0.2503  0.2222
  367MOL0     O48320   5.145   9.049  -0.187  0.1910 -0.4472 -1.4561
  367MOL0     C48321   5.004   9.063  -0.195  0.1645  0.5487  0.3655
  367MOL0     C48322   4.960   8.934  -0.270  0.1905 -0.1650 -0.4321
  367MOL0     C48323   4.952   8.944  -0.424 -0.8687 -0.0333 -0.3838
  367MOL0     C48324   4.968   8.806  -0.487  0.7234 -0.3870  0.7543
  367MOL0     C48325   5.087   8.738  -0.488  0.1376  0.3161  0.1436
  367MOL0     C48326   5.110   8.649  -0.620  0.3379 -0.4011  0.2638
  367MOL0     C48327   5.248   8.584  -0.609  0.0612  0.3104 -0.2100
  367MOL0     C48328   5.293   8.500  -0.731 -0.0559 -0.4685 -0.6621
  367MOL0     N48329   5.416   8.434  -0.695  0.3960 -0.0609 -0.8216
  367MOL0     C48330   5.541   8.480  -0.667 -0.2116 -1.1835 -0.2078
  367MOL0     C48331   5.616   8.374  -0.632 -0.4886 -0.5286  0.3748
  367MOL0     C48332   5.756   8.372  -0.570 -0.1525  0.2832 -0.3372
  367MOL0     C48333   5.856   8.298  -0.661  0.1587  0.2867 -0.4465
  367MOL0     C48334   5.986   8.299  -0.581 -0.5720 -0.4650 -0.2406
  367MOL0     C48335   6.098   8.210  -0.636  0.5706  0.1020  0.4653
  367MOL0     O48336   6.111   8.242  -0.781 -0.1585 -0.5003  0.2848
  367MOL0     C48337   6.230   8.207  -0.821 -0.5825 -0.8461  0.1519
  367MOL0     C48338   6.311   8.307  -0.867 -0.3958 -0.6511  0.7463
  367MOL0     C48339   6.448   8.280  -0.892 -0.2961 -0.6082 -0.8634
  367MOL0     C48340   6.506   8.155  -0.880  0.7301 -0.0199  0.5821
  367MOL0     C48341   6.653   8.139  -0.909  1.0505  0.0975 -0.1131
  367MOL0     O48342   6.715   8.251  -0.948  0.1429  0.7842  0.2159
  367MOL0     C48343   6.844   8.242  -1.000 -0.0780  0.1613 -0.8999
  367MOL0     C48344   6.950   8.190  -0.916 -1.1282  0.4559  0.5696
  367MOL0     C48345   7.082   8.196  -0.962 -0.6079  0.2509 -0.0337
  367MOL0     C48346   7.116   8.237  -1.091  0.3364 -0.3282 -0.7359
  367MOL0     O48347   7.250   8.222  -1.126 -0.0433  0.5065 -0.3865
  367MOL0     C48348   7.315   8.345  -1.163 -0.2730 -0.1144  0.0695
  367MOL0     C48349   7.323   8.450  -1.042 -0.0716  0.3019 -0.9367
  367MOL0     C48350   7.419   8.565  -1.066 -0.5421  0.3213  0.0031
  367MOL0     C48351   7.472   8.651  -0.953  1.2527  0.3153 -0.5815
  367MOL0     C48352   7.556   8.766  -1.008  0.3768  0.3736 -0.6687
  367MOL0     C48353   7.695   8.721  -1.067 -0.6541 -0.4483 -0.2843
  367MOL0     C48354   7.811   8.689  -0.967  0.1392  0.2138 -0.8858
  367MOL0     C48355   7.940   8.629  -1.037 -0.5078  0.0803 -0.1134
  367MOL0    Cl48356   8.035   8.558  -0.906  0.0222 -0.4365 -0.0544
  367MOL0     C48357   7.007   8.279  -1.171  0.8818 -0.2130  0.0792
  367MOL0     C48358   6.870   8.295  -1.131  0.1285  0.3301 -0.2412
  367MOL0     O48359   6.699   8.025  -0.911 -0.7892  0.3520 -0.1987
  367MOL0     C48360   6.424   8.053  -0.834  0.6906 -0.7293 -0.4675
  367MOL0     C48361   6.286   8.086  -0.797  0.3415  0.6081  0.0197
  367MOL0     N48362   5.535   8.258  -0.657 -0.7075  0.2682 -0.2849
  367MOL0     N48363   5.417   8.298  -0.696 -0.7258  0.6098 -0.0234
  367MOL0     C48364   5.344   9.075  -0.072  0.3309 -0.6223  0.9903
  367MOL0     C48365   5.435   9.146   0.018  0.0529  0.2207 -0.3329
  367MOL0     C48366   5.675   9.429   0.244  0.2127  0.0363 -0.2486
  367MOL0     C48367   5.627   9.433   0.385 -0.0028  0.1176 -0.4653
  367MOL0     C48368   5.706   9.489   0.490  0.2541  0.1159  0.5475
  367MOL0     C48369   5.829   9.557   0.460  0.3056  1.0305  0.2665
  367MOL0     O48370   5.901   9.618   0.558 -1.0525 -0.4077 -0.3205
  367MOL0     C48371   5.827   9.640   0.682 -0.1666 -0.1785  0.4071
  367MOL0     C48372   5.894   9.755   0.751 -0.1526 -0.5556  0.8484
  367MOL0     C48373   5.785   9.819   0.847  0.1255 -0.5291 -0.4843
  367MOL0     C48374   5.753   9.729   0.973  0.0848  0.4804  0.2508
  367MOL0     C48375   5.853   9.732   1.083  0.0267  0.6263 -0.6857
  367MOL0     C48376   5.943   9.742   1.168 -0.0967 -0.5044 -0.3798
  367MOL0     C48377   5.863   9.556   0.325 -0.1503 -0.1111 -0.7163
  367MOL0     C48378   5.797   9.496   0.221  0.3008  0.2004  0.0056
  367MOL0     H48379   5.248   9.426   0.061  0.0224 -1.2406 -0.1507
  367MOL0     H48380   5.082   9.294  -0.059  1.0231  0.6575  0.2357
  367MOL0     H48381   4.968   9.150  -0.250 -0.6728  0.0167  0.0457
  367MOL0     H48382   4.955   9.081  -0.098  1.4294  2.8638  0.6504
  367MOL0     H48383   4.870   8.887  -0.228  1.1350 -3.3107 -1.5760
  367MOL0     H48384   5.028   8.850  -0.252  1.0650  0.9233  1.6378
  367MOL0     H48385   5.029   9.008  -0.468 -1.6606  0.4150 -1.1429
  367MOL0     H48386   4.858   8.992  -0.453 -0.9194 -0.4297 -0.8867
  367MOL0     H48387   4.884   8.745  -0.450 -0.4905  1.1898  0.6942
  367MOL0     H48388   4.948   8.833  -0.591  3.6001  1.2449  0.5391
  367MOL0     H48389   5.082   8.677  -0.397 -2.5209 -0.6098 -0.5425
  367MOL0     H48390   5.165   8.814  -0.481  1.7095 -1.1589 -0.4032
  367MOL0     H48391   5.113   8.721  -0.702 -0.9482 -0.7210 -0.0922
  367MOL0     H48392   5.028   8.580  -0.646  2.2567 -3.8894  2.6918
  367MOL0     H48393   5.320   8.663  -0.585 -0.8353  1.3735 -0.9285
  367MOL0     H48394   5.266   8.520  -0.522 -0.5820  1.7511  1.0216
  367MOL0     H48395   5.295   8.555  -0.826 -0.1528  0.6864 -0.0160
  367MOL0     H48396   5.223   8.416  -0.736 -0.7787  0.1437 -0.9608
  367MOL0     H48397   5.573   8.583  -0.652 -0.3099 -0.8600 -2.0319
  367MOL0     H48398   5.740   8.336  -0.467 -1.4049  0.5563 -0.4181
  367MOL0     H48399   5.790   8.475  -0.558 -1.2762  0.4260  2.3398
  367MOL0     H48400   5.860   8.354  -0.756  0.4800  2.7865  0.9535
  367MOL0     H48401   5.827   8.194  -0.679  0.3969  0.2398 -0.5607
  367MOL0     H48402   6.016   8.403  -0.568 -3.1639  0.4756 -1.2633
  367MOL0     H48403   5.963   8.258  -0.482 -2.9265  0.4854 -0.3411
  367MOL0     H48404   6.069   8.106  -0.619  0.3866  0.5668  3.5021
  367MOL0     H48405   6.188   8.243  -0.584  0.7083  2.1088 -0.9117
  367MOL0     H48406   6.279   8.410  -0.873 -1.0672 -0.9255 -0.5970
  367MOL0     H48407   6.501   8.367  -0.928 -1.6943  0.5687 -0.1917
  367MOL0     H48408   6.931   8.139  -0.822  0.7633 -0.4743  0.4881
  367MOL0     H48409   7.159   8.153  -0.898 -2.1079  0.5960  2.0677
  367MOL0     H48410   7.255   8.405  -1.232 -2.3359 -1.6143  0.4292
  367MOL0     H48411   7.411   8.330  -1.213 -1.0706  2.2816 -2.4374
  367MOL0     H48412   7.365   8.394  -0.958 -2.6003 -0.5817 -0.1570
  367MOL0     H48413   7.223   8.479  -1.009 -0.6111 -1.0212 -1.3460
  367MOL0     H48414   7.397   8.629  -1.152 -2.3559  0.9815  0.9170
  367MOL0     H48415   7.502   8.502  -1.099  0.6309  0.1831  2.9082
  367MOL0     H48416   7.382   8.689  -0.902  1.3385 -0.6026  0.2782
  367MOL0     H48417   7.531   8.598  -0.878  0.8935  0.7857  0.0429
  367MOL0     H48418   7.587   8.834  -0.929  3.0281 -3.3330  1.8081
  367MOL0     H48419   7.502   8.827  -1.081  1.4339  1.9541 -0.1734
  367MOL0     H48420   7.738   8.792  -1.139 -1.0455 -1.2591 -1.3415
  367MOL0     H48421   7.678   8.631  -1.126 -0.6589  1.3259 -3.2025
  367MOL0     H48422   7.842   8.787  -0.927  1.5138 -1.0334  1.3416
  367MOL0     H48423   7.778   8.620  -0.889 -4.1784  1.1501 -1.6449
  367MOL0     H48424   7.978   8.721  -1.082 -2.6129 -0.3569 -3.1124
  367MOL0     H48425   7.913   8.553  -1.111  2.3591 -1.3205  0.1039
  367MOL0     H48426   7.038   8.313  -1.269  2.4744  0.1776  0.6847
  367MOL0     H48427   6.795   8.340  -1.195 -0.0691  0.6393  0.2034
  367MOL0     H48428   6.468   7.958  -0.805 -1.9661 -1.9286 -0.1298
  367MOL0     H48429   6.235   8.006  -0.744  0.4403  0.0311 -0.7251
  367MOL0     H48430   5.360   8.976  -0.114  0.1052  0.4473 -1.7944
  367MOL0     H48431   5.523   9.090   0.047  0.8602 -0.8130 -4.1877
  367MOL0     H48432   5.530   9.390   0.411 -1.6246  2.6571 -1.9324
  367MOL0     H48433   5.651   9.495   0.583 -4.4768  2.2703 -2.0424
  367MOL0     H48434   5.824   9.550   0.745 -0.5733 -1.3187 -1.1665
  367MOL0     H48435   5.727   9.672   0.651 -0.6332 -2.1805 -0.3583
  367MOL0     H48436   5.988   9.733   0.803  0.6290 -1.7784 -0.9882
  367MOL0     H48437   5.920   9.837   0.683 -0.9820  0.5572  1.8370
  367MOL0     H48438   5.693   9.844   0.794  0.7002 -1.2980 -1.9208
  367MOL0     H48439   5.811   9.918   0.885 -0.8425 -0.6416  0.5127
  367MOL0     H48440   5.658   9.771   1.009 -0.7487  2.4687 -3.5967
  367MOL0     H48441   5.727   9.627   0.942 -0.5606  1.0488 -1.2083
  367MOL0     H48442   6.028   9.742   1.234  1.4707  1.4286 -2.2500
  367MOL0     H48443   5.967   9.583   0.311 -0.0063  0.7184  1.4991
  367MOL0     H48444   5.857   9.472   0.133  2.8295  3.2803  0.7082
  368MOL0     O48445   2.464   6.351  10.255  0.2358 -0.8609 -0.7162
  368MOL0     C48446   2.549   6.274  10.305 -0.1096 -0.2641  0.7801
  368MOL0     O48447   2.543   6.223  10.434 -0.3632  0.0633 -0.1885
  368MOL0     C48448   2.439   6.257  10.513  0.2967  0.3596 -0.6841
  368MOL0     C48449   2.331   6.174  10.531  0.4967 -0.1575 -0.1557
  368MOL0     C48450   2.216   6.223  10.608 -0.2265  0.4876  0.0953
  368MOL0     C48451   2.225   6.354  10.667 -0.1045  0.3256 -1.4724
  368MOL0     O48452   2.126   6.382  10.757 -0.3087 -0.4864 -0.6446
  368MOL0     C48453   2.158   6.487  10.847  0.2733  0.0371 -0.3609
  368MOL0     C48454   2.039   6.519  10.935  0.9036  0.4351 -0.3495
  368MOL0     C48455   2.027   6.430  11.056 -0.0354 -0.0761 -0.6082
  368MOL0     C48456   1.910   6.466  11.151  0.3491  0.6957 -0.7850
  368MOL0     C48457   1.885   6.360  11.268  0.6795  0.4838  0.8535
  368MOL0     C48458   1.769   6.395  11.353 -0.0180 -0.6382  0.2610
  368MOL0     C48459   1.797   6.323  11.480 -0.7778  0.1434  0.2681
  368MOL0     C48460   1.685   6.353  11.574  0.4731 -0.6419  0.7716
  368MOL0     N48461   1.692   6.291  11.702  0.3537 -0.4339  0.2182
  368MOL0     C48462   1.804   6.268  11.774  0.2544 -0.5232  0.7954
  368MOL0     C48463   1.758   6.218  11.890 -0.0390 -1.6422 -0.6324
  368MOL0     C48464   1.849   6.173  12.006  0.4465  0.3057  0.6718
  368MOL0     C48465   1.848   6.273  12.126  0.6749 -0.3865 -0.1745
  368MOL0     C48466   1.952   6.238  12.232 -0.4231  0.0586  0.1885
  368MOL0     C48467   2.083   6.314  12.218  0.9048 -0.0022 -0.4154
  368MOL0     O48468   2.121   6.311  12.078  0.8465  0.0379  0.0495
  368MOL0     C48469   2.224   6.393  12.043  0.8471 -0.2716 -0.1442
  368MOL0     C48470   2.293   6.484  12.132 -0.5841 -0.0511 -1.0769
  368MOL0     C48471   2.398   6.557  12.086 -0.2200  0.1299  0.3841
  368MOL0     C48472   2.429   6.558  11.946 -0.1705 -0.3286  0.1311
  368MOL0     C48473   2.547   6.634  11.895 -0.4819  0.4433 -0.2415
  368MOL0     O48474   2.594   6.601  11.763 -0.1844  0.1246  0.7377
  368MOL0     C48475   2.712   6.660  11.710  0.1937 -0.1374 -0.2349
  368MOL0     C48476   2.718   6.635  11.572 -0.7881  0.3430  0.3279
  368MOL0     C48477   2.829   6.678  11.500  0.3968  0.5255  0.3354
  368MOL0     C48478   2.926   6.770  11.555  0.3587  0.7800 -0.2536
  368MOL0     O48479   3.021   6.822  11.479 -0.6113  0.0081  0.5480
  368MOL0     C48480   3.054   6.958  11.500  0.2088  0.2337 -0.1647
  368MOL0     C48481   3.125   7.023  11.384 -0.5499  0.1957 -1.1928
  368MOL0     C48482   3.262   6.962  11.363  0.1001  0.0190 -0.4237
  368MOL0     C48483   3.335   7.051  11.269  0.4340 -0.0526  0.0291
  368MOL0     C48484   3.271   7.067  11.127  0.3385  0.1245 -0.2584
  368MOL0     C48485   3.350   7.112  11.011 -0.2668 -1.0461 -0.3671
  368MOL0     C48486   3.465   7.027  10.996 -0.0719  0.3116  0.1997
  368MOL0     C48487   3.502   7.027  10.849  0.6634  0.0622 -0.0000
  368MOL0    Cl48488   3.520   7.185  10.769  0.1667 -0.5956 -0.3268
  368MOL0     C48489   2.916   6.791  11.696  0.4082  0.9882  0.6986
  368MOL0     C48490   2.809   6.739  11.769 -0.4478 -0.0402 -0.4720
  368MOL0     O48491   2.581   6.739  11.952  0.0162  0.3675 -0.3365
  368MOL0     C48492   2.348   6.475  11.864 -0.0285  0.6353  0.0203
  368MOL0     C48493   2.254   6.384  11.908 -0.0518  1.2293 -0.5335
  368MOL0     N48494   1.627   6.201  11.886  0.4980 -0.1350  0.5164
  368MOL0     N48495   1.588   6.252  11.773  0.0424  0.0898 -0.2144
  368MOL0     C48496   2.339   6.436  10.650  0.3720  0.1468  0.7844
  368MOL0     C48497   2.442   6.382  10.569  0.6703  0.3268  0.2218
  368MOL0     C48498   2.665   6.244  10.221  0.9489 -0.2241  0.9336
  368MOL0     C48499   2.686   6.333  10.108  0.3954  0.3271 -0.6914
  368MOL0     C48500   2.797   6.300  10.029 -0.1484 -0.6864 -0.4946
  368MOL0     C48501   2.867   6.187  10.052 -0.5287  0.8105  0.4263
  368MOL0     O48502   2.946   6.133   9.950 -0.5395  0.5516 -0.5510
  368MOL0     C48503   2.874   6.130   9.824 -0.0063 -0.6966  0.2635
  368MOL0     C48504   2.900   5.998   9.750 -0.9328  0.7660  0.7015
  368MOL0     C48505   3.047   5.962   9.703 -0.2097  0.3205 -0.6974
  368MOL0     C48506   3.096   6.070   9.594 -0.9957  1.0999 -0.6301
  368MOL0     C48507   3.242   6.077   9.602 -0.2410 -0.9917 -0.5830
  368MOL0     C48508   3.365   6.082   9.593  0.3589  0.7729 -0.1703
  368MOL0     C48509   2.862   6.119  10.169 -0.7964  0.7004 -1.6732
  368MOL0     C48510   2.756   6.149  10.258  0.0049  0.0410  0.2738
  368MOL0     H48511   2.329   6.077  10.483 -0.0656 -0.2995  0.1435
  368MOL0     H48512   2.138   6.152  10.631 -0.2497  0.6998  0.6952
  368MOL0     H48513   2.177   6.581  10.794 -3.2603  2.3446  2.0422
  368MOL0     H48514   2.246   6.473  10.911  0.0534  2.2522  0.5155
  368MOL0     H48515   1.941   6.501  10.892 -0.5941  0.8750  2.6359
  368MOL0     H48516   2.046   6.623  10.970 -2.0516  0.1517  1.3693
  368MOL0     H48517   2.117   6.433  11.118 -2.4974 -1.4652  3.4529
  368MOL0     H48518   2.015   6.327  11.020 -0.8900  0.2307 -1.2305
  368MOL0     H48519   1.929   6.559  11.205 -1.0761  0.4087  0.2595
  368MOL0     H48520   1.815   6.473  11.097 -1.3622 -1.2768  1.7153
  368MOL0     H48521   1.984   6.363  11.313  1.7608  0.2217 -1.3788
  368MOL0     H48522   1.873   6.262  11.222 -1.5691  0.2217  1.8403
  368MOL0     H48523   1.683   6.364  11.293 -0.5451 -0.3399  0.8509
  368MOL0     H48524   1.757   6.501  11.376 -1.6109 -0.8689  0.5728
  368MOL0     H48525   1.805   6.215  11.461 -2.6022  0.2420 -1.4425
  368MOL0     H48526   1.889   6.357  11.527 -0.4001 -3.4685  2.5226
  368MOL0     H48527   1.590   6.325  11.528  0.0551  1.7484  0.0372
  368MOL0     H48528   1.682   6.458  11.605 -1.1200 -0.6491  0.7364
  368MOL0     H48529   1.905   6.292  11.742  1.0611  3.8848  5.4268
  368MOL0     H48530   1.952   6.176  11.968  0.6498  2.1427  1.2347
  368MOL0     H48531   1.814   6.076  12.042 -1.3141  0.9621  0.8019
  368MOL0     H48532   1.753   6.242  12.173  0.5514 -0.3571 -0.4053
  368MOL0     H48533   1.829   6.379  12.110 -1.8026 -0.9518 -1.5091
  368MOL0     H48534   1.907   6.276  12.325 -1.2539  5.3752 -2.0151
  368MOL0     H48535   1.964   6.129  12.231 -0.2915  0.0032 -2.9593
  368MOL0     H48536   2.154   6.274  12.292  0.7217  1.7320  0.7605
  368MOL0     H48537   2.063   6.419  12.241  2.4796  0.4275 -0.8505
  368MOL0     H48538   2.268   6.501  12.236  2.7806  2.6106 -0.5267
  368MOL0     H48539   2.443   6.632  12.150 -3.1528  0.8163  1.8646
  368MOL0     H48540   2.640   6.574  11.528 -3.1203  1.9571  2.0483
  368MOL0     H48541   2.829   6.657  11.393 -2.1860  2.2208 -0.0940
  368MOL0     H48542   3.113   6.946  11.591 -4.8533 -2.8483  3.2392
  368MOL0     H48543   2.965   7.013  11.533 -1.6757 -2.0802 -1.0618
  368MOL0     H48544   3.121   7.131  11.406 -0.9559  0.2790 -1.6638
  368MOL0     H48545   3.060   7.017  11.297  0.1967  0.5646 -1.7855
  368MOL0     H48546   3.260   6.861  11.321 -1.5004 -0.5275  0.8194
  368MOL0     H48547   3.318   6.966  11.457 -1.2827  0.0292  0.4323
  368MOL0     H48548   3.353   7.150  11.313 -0.3552 -0.4646  1.3379
  368MOL0     H48549   3.435   7.007  11.259 -0.4410 -1.8305 -1.4954
  368MOL0     H48550   3.188   7.136  11.141 -1.5090 -2.4213  2.7043
  368MOL0     H48551   3.218   6.977  11.093  0.8848 -0.5060  0.5388
  368MOL0     H48552   3.393   7.211  11.028 -0.5574 -1.5281  4.1383
  368MOL0     H48553   3.291   7.111  10.918 -2.1899 -0.2207  0.7996
  368MOL0     H48554   3.544   7.071  11.058  0.9829  1.9826 -2.1789
  368MOL0     H48555   3.446   6.925  11.031 -2.5582 -0.2929 -2.4896
  368MOL0     H48556   3.419   6.969  10.807  1.6598 -1.8518  0.5427
  368MOL0     H48557   3.597   6.980  10.821  0.1256 -0.6858 -0.6085
  368MOL0     H48558   2.995   6.850  11.743  0.3397  2.0308 -0.4354
  368MOL0     H48559   2.814   6.754  11.877  1.3487 -2.2670 -0.1859
  368MOL0     H48560   2.374   6.490  11.760  3.0288 -0.6650  0.4836
  368MOL0     H48561   2.191   6.328  11.840  1.3674  1.4160 -2.0581
  368MOL0     H48562   2.338   6.540  10.680  1.0234  0.1620  0.7631
  368MOL0     H48563   2.533   6.437  10.547 -0.6653  1.9407 -1.5676
  368MOL0     H48564   2.618   6.416  10.094 -1.1352 -0.7790 -0.1414
  368MOL0     H48565   2.821   6.363   9.943  0.9493 -0.2110  0.1415
  368MOL0     H48566   2.901   6.216   9.762  0.5266 -1.1795 -0.1760
  368MOL0     H48567   2.766   6.132   9.837 -0.8870 -0.1017 -5.0823
  368MOL0     H48568   2.863   5.917   9.814 -2.2938  1.7197  1.1800
  368MOL0     H48569   2.843   6.013   9.658 -2.0508  0.7359  1.3667
  368MOL0     H48570   3.051   5.858   9.671  4.6001  0.4298 -1.2417
  368MOL0     H48571   3.098   5.971   9.800  0.7761  0.4096 -1.2053
  368MOL0     H48572   3.075   6.045   9.490 -1.6969  2.8700 -0.9330
  368MOL0     H48573   3.065   6.169   9.627 -2.4335  0.4593  0.0780
  368MOL0     H48574   3.467   6.100   9.566  0.1882  1.0013 -0.6812
  368MOL0     H48575   2.931   6.043  10.205 -2.3626  0.3885  0.9390
  368MOL0     H48576   2.751   6.081  10.343  0.8492  1.5459  1.5718
  369MOL0     O48577   0.553   6.478   8.016 -0.4982  0.0008  0.1460
  369MOL0     C48578   0.560   6.512   7.902 -0.0400 -0.6418  0.0741
  369MOL0     O48579   0.479   6.615   7.847  0.5860  0.1467 -0.5451
  369MOL0     C48580   0.369   6.670   7.906 -0.4579 -0.5890 -0.2441
  369MOL0     C48581   0.273   6.598   7.986 -0.2066  0.2713 -1.0420
  369MOL0     C48582   0.161   6.661   8.049 -0.7210 -0.4472 -0.1688
  369MOL0     C48583   0.137   6.800   8.027  0.1878 -0.3105 -0.0224
  369MOL0     O48584   0.024   6.864   8.072 -0.2882 -0.3149 -0.1961
  369MOL0     C48585  -0.084   6.796   8.139 -0.2863  0.0097 -0.3486
  369MOL0     C48586  -0.181   6.882   8.199  0.2167  0.1271 -0.5283
  369MOL0     C48587  -0.236   6.991   8.119 -0.0668  0.1418  0.1504
  369MOL0     C48588  -0.336   7.090   8.201 -0.7495 -0.0743 -0.0032
  369MOL0     C48589  -0.361   7.229   8.127  0.3005  0.1990 -0.3815
  369MOL0     C48590  -0.226   7.301   8.098  0.3479  0.3909 -0.2956
  369MOL0     C48591  -0.257   7.431   8.024  0.6128 -0.4086 -0.5578
  369MOL0     C48592  -0.120   7.488   7.988  0.3605 -0.4380 -0.3208
  369MOL0     N48593  -0.138   7.606   7.908  0.8038  0.0943  0.1305
  369MOL0     C48594  -0.169   7.730   7.952 -0.7232  0.0013  0.2425
  369MOL0     C48595  -0.116   7.819   7.853  0.3925  1.0897 -0.8292
  369MOL0     C48596  -0.123   7.966   7.850 -0.7404  0.3556 -0.1749
  369MOL0     C48597  -0.002   8.046   7.802 -0.6877 -0.5109  0.5816
  369MOL0     C48598   0.037   8.020   7.644  0.3993  0.1962 -0.0704
  369MOL0     C48599   0.181   8.018   7.625  0.4027  0.3100 -0.2118
  369MOL0     O48600   0.256   8.136   7.660  0.4106  0.3004 -0.7060
  369MOL0     C48601   0.235   8.249   7.589 -0.5993  0.4124 -0.2497
  369MOL0     C48602   0.182   8.365   7.641 -0.2147  0.5839  0.1787
  369MOL0     C48603   0.153   8.478   7.561 -1.2833 -0.0909 -0.6004
  369MOL0     C48604   0.175   8.470   7.425  0.0871  1.2555 -0.1343
  369MOL0     C48605   0.145   8.578   7.330  0.4731 -0.3005  0.2667
  369MOL0     O48606   0.226   8.592   7.213  0.1012 -0.1633  0.4739
  369MOL0     C48607   0.230   8.704   7.134  1.0519 -0.4089 -1.2452
  369MOL0     C48608   0.324   8.685   7.024  0.8142  0.1459 -0.1070
  369MOL0     C48609   0.316   8.777   6.922  0.5985 -0.5116  0.4726
  369MOL0     C48610   0.231   8.892   6.930  1.1220  0.4918  0.1881
  369MOL0     O48611   0.232   8.979   6.826 -0.1031  0.6675 -0.7539
  369MOL0     C48612   0.168   9.100   6.815  0.7023  0.5747 -0.6491
  369MOL0     C48613   0.207   9.141   6.682 -0.1313 -0.3418  1.2183
  369MOL0     C48614   0.353   9.180   6.657  0.1377  0.0347  0.2205
  369MOL0     C48615   0.374   9.223   6.510  1.2121 -0.3267 -0.9125
  369MOL0     C48616   0.502   9.310   6.488  0.1627 -0.0646 -0.4473
  369MOL0     C48617   0.629   9.228   6.521  0.4020  0.4973  0.0866
  369MOL0     C48618   0.677   9.131   6.406  0.3691 -0.7887 -0.2290
  369MOL0     C48619   0.796   9.051   6.447 -0.5446  0.3097  0.2195
  369MOL0    Cl48620   0.934   9.162   6.462 -0.6080 -0.8071  0.0866
  369MOL0     C48621   0.147   8.914   7.042 -0.1607  0.4561 -0.1205
  369MOL0     C48622   0.144   8.817   7.143 -0.9926 -0.5145  1.5932
  369MOL0     O48623   0.057   8.650   7.366  0.1286  0.6982  1.0904
  369MOL0     C48624   0.233   8.350   7.371 -0.4791  0.6210 -0.2529
  369MOL0     C48625   0.255   8.244   7.450  0.4348  0.3537 -0.1231
  369MOL0     N48626  -0.094   7.734   7.742 -0.5381 -0.6091  0.4232
  369MOL0     N48627  -0.087   7.614   7.790 -0.0630 -0.3837 -0.4198
  369MOL0     C48628   0.229   6.870   7.947  0.4182  0.0064  0.1470
  369MOL0     C48629   0.345   6.810   7.887  0.4701  0.0132  0.0068
  369MOL0     C48630   0.667   6.471   7.814 -0.1099 -0.0496 -1.0212
  369MOL0     C48631   0.759   6.387   7.864  0.4647  0.7693  0.2751
  369MOL0     C48632   0.848   6.326   7.772  0.4658  0.4522 -0.7062
  369MOL0     C48633   0.851   6.368   7.640 -0.2418  0.3387 -0.1978
  369MOL0     O48634   0.957   6.328   7.564 -0.8725 -0.2413 -0.1947
  369MOL0     C48635   0.977   6.182   7.573 -0.2912  0.5410 -0.9026
  369MOL0     C48636   1.042   6.130   7.440  0.4512  0.0991  0.0482
  369MOL0     C48637   1.065   5.984   7.443 -0.5693  1.0933 -0.0195
  369MOL0     C48638   1.193   5.931   7.367 -0.9236 -0.6588  0.2652
  369MOL0     C48639   1.156   5.805   7.309  0.1959  0.5940  0.5448
  369MOL0     C48640   1.134   5.686   7.280  1.2157  0.4693 -0.1098
  369MOL0     C48641   0.773   6.474   7.600 -0.2483 -0.1234 -0.4922
  369MOL0     C48642   0.685   6.524   7.687  1.2830  0.0819 -0.4236
  369MOL0     H48643   0.283   6.490   7.989  1.7157  0.4403  0.8522
  369MOL0     H48644   0.091   6.590   8.091 -0.5301 -0.4970  0.0654
  369MOL0     H48645  -0.039   6.739   8.220  3.1870  1.9966 -0.6430
  369MOL0     H48646  -0.138   6.733   8.068 -1.2041 -0.7715  1.0215
  369MOL0     H48647  -0.130   6.907   8.292 -0.8563 -0.5256  0.2489
  369MOL0     H48648  -0.256   6.814   8.237  0.6912 -0.4059 -0.5299
  369MOL0     H48649  -0.288   6.936   8.040  0.6715 -3.9563  2.2171
  369MOL0     H48650  -0.149   7.031   8.068  1.4003 -4.2555 -1.2524
  369MOL0     H48651  -0.433   7.044   8.218 -0.2814 -0.6628  1.2470
  369MOL0     H48652  -0.294   7.112   8.300  0.2842 -0.3826 -0.3497
  369MOL0     H48653  -0.420   7.297   8.189  1.0694 -0.0590  0.6684
  369MOL0     H48654  -0.436   7.218   8.048 -0.6350 -3.2713  0.8221
  369MOL0     H48655  -0.156   7.243   8.037  3.6266  2.6922  0.9935
  369MOL0     H48656  -0.168   7.309   8.190  1.7426  0.0242 -1.1159
  369MOL0     H48657  -0.310   7.417   7.929  0.2539 -0.6430 -0.3273
  369MOL0     H48658  -0.317   7.495   8.090 -0.5272 -0.2071 -1.7399
  369MOL0     H48659  -0.067   7.413   7.930 -0.1947 -0.5161 -0.7311
  369MOL0     H48660  -0.072   7.511   8.084  0.7805 -2.4280 -0.0202
  369MOL0     H48661  -0.188   7.761   8.055  0.0201  0.8128  0.1447
  369MOL0     H48662  -0.165   7.999   7.946  0.3232 -1.3494  0.9310
  369MOL0     H48663  -0.208   7.978   7.781 -1.3774 -3.8285 -0.3333
  369MOL0     H48664   0.086   8.019   7.862 -0.3883 -0.5847  0.1157
  369MOL0     H48665  -0.032   8.149   7.821 -1.6428 -0.6375 -0.2046
  369MOL0     H48666  -0.014   7.936   7.596 -1.9624  1.7284 -0.3834
  369MOL0     H48667   0.003   8.106   7.586  0.3406  0.8042  0.8444
  369MOL0     H48668   0.207   7.998   7.521 -0.6117 -4.9181  0.2116
  369MOL0     H48669   0.217   7.931   7.681 -0.3987  1.0390  1.5133
  369MOL0     H48670   0.151   8.351   7.744  1.7904 -2.0351  0.5497
  369MOL0     H48671   0.113   8.563   7.615  1.3669  2.5032 -2.4109
  369MOL0     H48672   0.395   8.605   7.007 -2.0547 -1.8413 -4.8197
  369MOL0     H48673   0.380   8.747   6.840 -1.4667  1.3653 -1.9443
  369MOL0     H48674   0.190   9.157   6.906 -2.9339 -1.5379  1.8099
  369MOL0     H48675   0.061   9.080   6.819  1.0515 -1.3221  0.3177
  369MOL0     H48676   0.144   9.225   6.652 -0.9345 -2.4808 -4.0477
  369MOL0     H48677   0.178   9.068   6.606  0.4802 -0.4193  1.0512
  369MOL0     H48678   0.412   9.090   6.673 -0.6327 -0.5133  0.0657
  369MOL0     H48679   0.385   9.254   6.731 -0.2108 -2.9871  3.6778
  369MOL0     H48680   0.360   9.125   6.463  0.1071 -1.2666  1.2632
  369MOL0     H48681   0.291   9.294   6.500  0.2553 -0.7884  2.5243
  369MOL0     H48682   0.491   9.401   6.548  1.0174 -2.2807  3.4335
  369MOL0     H48683   0.510   9.357   6.390  0.9498  0.8212  0.0194
  369MOL0     H48684   0.607   9.153   6.597 -0.6020  1.1703  0.4677
  369MOL0     H48685   0.705   9.300   6.554  2.4252 -0.2088 -2.6751
  369MOL0     H48686   0.600   9.055   6.390 -0.8007  0.8769 -3.2704
  369MOL0     H48687   0.682   9.187   6.313  0.4628 -1.2675 -0.5182
  369MOL0     H48688   0.816   8.976   6.369  1.0425 -0.3045  1.1662
  369MOL0     H48689   0.776   8.993   6.538  0.3140 -1.3498 -0.5942
  369MOL0     H48690   0.080   8.999   7.039  0.1641  0.8754  2.5358
  369MOL0     H48691   0.060   8.818   7.211 -2.7140 -0.2033 -0.4280
  369MOL0     H48692   0.260   8.333   7.267 -1.5816  2.1691 -0.8204
  369MOL0     H48693   0.289   8.156   7.395 -3.8864 -0.7951 -1.3618
  369MOL0     H48694   0.210   6.969   7.908 -0.6097 -0.4532 -0.5430
  369MOL0     H48695   0.395   6.890   7.834  1.9356 -0.0502  1.2241
  369MOL0     H48696   0.755   6.354   7.968  3.2795 -2.0712 -0.3576
  369MOL0     H48697   0.911   6.249   7.817 -0.9979 -0.1613  0.3688
  369MOL0     H48698   0.893   6.113   7.588  0.9245 -0.4376  2.2132
  369MOL0     H48699   1.050   6.170   7.653 -3.4606 -0.6612  2.0463
  369MOL0     H48700   0.966   6.154   7.365  1.2136  0.1135 -0.7424
  369MOL0     H48701   1.128   6.189   7.408  1.1299  0.1208  1.7951
  369MOL0     H48702   0.974   5.941   7.401 -0.0547 -0.6087  0.5113
  369MOL0     H48703   1.068   5.959   7.549  0.7954 -0.5125 -0.3798
  369MOL0     H48704   1.214   6.014   7.300 -2.1564 -0.1483  0.4845
  369MOL0     H48705   1.274   5.928   7.441  2.0393 -0.1109 -2.7111
  369MOL0     H48706   1.136   5.581   7.254  1.5664  0.6777 -0.9861
  369MOL0     H48707   0.781   6.516   7.500 -1.1725  0.4788 -0.3213
  369MOL0     H48708   0.606   6.588   7.649  1.6170  0.7325 -0.0347
  370MOL0     O48709   1.873   6.982   6.952 -0.4419  0.2027 -0.3334
  370MOL0     C48710   1.894   7.058   6.855 -0.3760  0.7286 -0.1111
  370MOL0     O48711   1.936   7.192   6.862  1.4272  0.7809  0.9945
  370MOL0     C48712   1.975   7.245   6.981  0.2888  0.8832  0.5730
  370MOL0     C48713   2.090   7.184   7.048 -0.2067 -0.6024  0.3196
  370MOL0     C48714   2.133   7.234   7.178  0.8168  0.2474 -1.0062
  370MOL0     C48715   2.059   7.348   7.237 -0.9502  1.3530 -0.2514
  370MOL0     O48716   2.111   7.380   7.360 -0.0796 -0.5692  0.0201
  370MOL0     C48717   2.112   7.513   7.405  0.4117  0.6028  0.2019
  370MOL0     C48718   2.244   7.571   7.359 -0.4169 -1.0652 -0.4413
  370MOL0     C48719   2.253   7.726   7.385  0.2608  0.0269 -0.1680
  370MOL0     C48720   2.262   7.767   7.536  0.6148  0.8380  0.1806
  370MOL0     C48721   2.279   7.917   7.559  0.1066  0.1961  0.2520
  370MOL0     C48722   2.145   7.982   7.529  0.6255  0.5365 -0.2459
  370MOL0     C48723   2.147   8.064   7.395  0.0865 -0.6173  0.2805
  370MOL0     C48724   2.031   8.156   7.374  0.2387  0.6838 -0.5593
  370MOL0     N48725   1.911   8.075   7.361  0.2938  0.3214 -0.0363
  370MOL0     C48726   1.876   7.996   7.246 -0.1291  0.0996  0.6594
  370MOL0     C48727   1.784   7.905   7.291  0.0032  0.3937 -0.0036
  370MOL0     C48728   1.704   7.798   7.228 -0.1298  0.2790 -0.1865
  370MOL0     C48729   1.696   7.814   7.068 -0.4643  1.1896  0.0526
  370MOL0     C48730   1.648   7.672   7.021 -0.1244 -0.6147  0.6214
  370MOL0     C48731   1.619   7.657   6.875  0.4965  0.0323 -0.5590
  370MOL0     O48732   1.730   7.584   6.816  0.2636  0.5658  0.5487
  370MOL0     C48733   1.700   7.531   6.695  0.0248  0.8448 -0.7502
  370MOL0     C48734   1.595   7.573   6.610 -0.5090 -0.3597  0.5827
  370MOL0     C48735   1.576   7.526   6.481  0.9130  0.0670 -0.1650
  370MOL0     C48736   1.650   7.412   6.433  0.0422  0.2728 -0.6446
  370MOL0     C48737   1.624   7.344   6.303 -0.5796  0.6862 -0.0090
  370MOL0     O48738   1.706   7.239   6.264  1.0365  0.1236 -0.8138
  370MOL0     C48739   1.656   7.160   6.164  0.4458 -0.0895 -0.2477
  370MOL0     C48740   1.707   7.193   6.041  0.6863  0.8345  0.2068
  370MOL0     C48741   1.658   7.129   5.930  0.2851  0.5489 -0.7909
  370MOL0     C48742   1.569   7.010   5.949 -0.4987  0.8440 -0.9232
  370MOL0     O48743   1.508   6.932   5.850  0.2295  0.4148  0.0162
  370MOL0     C48744   1.555   6.930   5.717 -0.3249  0.1208  0.7373
  370MOL0     C48745   1.496   6.822   5.630 -0.9134  0.0500  0.0783
  370MOL0     C48746   1.562   6.801   5.494  0.0475  0.2364  0.1664
  370MOL0     C48747   1.703   6.737   5.502  0.5965  0.6045  0.0837
  370MOL0     C48748   1.739   6.624   5.411  0.0577 -0.2967  0.4272
  370MOL0     C48749   1.865   6.558   5.453 -0.2457  1.3188  0.4636
  370MOL0     C48750   1.997   6.632   5.434  0.0214 -0.7484  0.0871
  370MOL0     C48751   2.018   6.677   5.295 -0.0896  1.1665 -0.0706
  370MOL0    Cl48752   1.942   6.849   5.290 -0.4424 -0.2018  0.2912
  370MOL0     C48753   1.537   6.975   6.084 -0.3233 -0.1676  0.4764
  370MOL0     C48754   1.577   7.044   6.188  1.0477  0.1432 -0.0813
  370MOL0     O48755   1.537   7.402   6.235  0.1157  0.6152 -0.4961
  370MOL0     C48756   1.750   7.362   6.522 -0.4636 -0.1364  0.2067
  370MOL0     C48757   1.784   7.431   6.645  0.3085 -0.1354  0.9188
  370MOL0     N48758   1.764   7.935   7.434 -0.1851  0.4433  0.1129
  370MOL0     N48759   1.843   8.033   7.468  0.9095  0.9177 -0.8850
  370MOL0     C48760   1.952   7.396   7.167  1.4547 -0.0874 -0.6969
  370MOL0     C48761   1.898   7.341   7.048  0.6854 -0.1791  0.3561
  370MOL0     C48762   1.861   6.988   6.728 -0.3158  0.6539 -0.4986
  370MOL0     C48763   1.806   6.864   6.711 -0.1020  0.0261  0.1532
  370MOL0     C48764   1.782   6.804   6.588  0.4500  0.5735 -0.2097
  370MOL0     C48765   1.815   6.862   6.470  0.5084 -0.1322 -0.3628
  370MOL0     O48766   1.798   6.783   6.355 -0.5052 -0.6472 -0.4023
  370MOL0     C48767   1.878   6.817   6.238  0.1227  1.3194 -0.0712
  370MOL0     C48768   1.803   6.725   6.136  0.1110  0.7030  0.0248
  370MOL0     C48769   1.849   6.759   5.996 -0.1379  0.4702 -0.7327
  370MOL0     C48770   1.987   6.689   5.949 -0.5883 -0.8253  0.9965
  370MOL0     C48771   1.990   6.543   5.929 -0.5990  0.4329  0.2888
  370MOL0     C48772   1.997   6.422   5.918  0.6785 -0.2082 -0.6823
  370MOL0     C48773   1.860   6.992   6.482  1.3383  0.2652 -0.1001
  370MOL0     C48774   1.891   7.052   6.607  0.4070 -0.3958  0.3715
  370MOL0     H48775   2.144   7.114   6.986  0.4152  0.0157  0.1453
  370MOL0     H48776   2.217   7.192   7.233 -2.1134 -2.0612  2.0919
  370MOL0     H48777   2.117   7.514   7.514  1.6719  1.3223  0.1584
  370MOL0     H48778   2.031   7.577   7.367  1.4145  0.4198 -2.5020
  370MOL0     H48779   2.254   7.563   7.250  2.4696 -0.4589 -0.2845
  370MOL0     H48780   2.329   7.515   7.400 -2.1801 -1.8310  2.4541
  370MOL0     H48781   2.165   7.769   7.337  0.3430  0.6088  0.1887
  370MOL0     H48782   2.337   7.773   7.332  0.2739  0.1818 -0.0123
  370MOL0     H48783   2.182   7.730   7.600 -1.7212  3.1353 -1.2441
  370MOL0     H48784   2.350   7.720   7.583 -0.3065  4.6097  6.9658
  370MOL0     H48785   2.364   7.954   7.501  1.8472  1.7848  3.5208
  370MOL0     H48786   2.297   7.939   7.664  0.2571 -3.0789  1.0165
  370MOL0     H48787   2.115   8.045   7.613 -1.5519  0.8630 -1.1881
  370MOL0     H48788   2.067   7.909   7.504 -1.4625  2.4949  0.2498
  370MOL0     H48789   2.244   8.115   7.396 -0.1010 -0.0743 -2.5042
  370MOL0     H48790   2.142   7.997   7.309  0.0308 -0.5295  0.2160
  370MOL0     H48791   2.056   8.213   7.283 -0.8505  1.4642 -0.3838
  370MOL0     H48792   2.022   8.237   7.447  0.3660 -0.6355  0.9572
  370MOL0     H48793   1.909   8.024   7.147 -2.6706  0.1600 -0.2415
  370MOL0     H48794   1.604   7.813   7.267 -0.5197  0.8964 -1.3473
  370MOL0     H48795   1.753   7.706   7.260 -1.4757 -0.3074  0.2208
  370MOL0     H48796   1.798   7.826   7.030  0.3199 -0.0878  1.5889
  370MOL0     H48797   1.633   7.900   7.043  0.9224  1.9921 -0.8422
  370MOL0     H48798   1.711   7.593   7.062  1.8839 -0.7488 -2.4433
  370MOL0     H48799   1.551   7.671   7.071  1.2030 -2.7119  3.4225
  370MOL0     H48800   1.614   7.756   6.830  2.6938  0.2497 -0.4351
  370MOL0     H48801   1.532   7.593   6.856  1.1516 -1.6776  1.8033
  370MOL0     H48802   1.563   7.673   6.637  0.3858  0.6283 -1.7444
  370MOL0     H48803   1.509   7.562   6.403  0.4476  0.0299  0.2122
  370MOL0     H48804   1.765   7.280   6.013  1.4814 -0.6035 -3.0266
  370MOL0     H48805   1.681   7.160   5.829  0.5434  2.6737 -0.1125
  370MOL0     H48806   1.663   6.922   5.735 -0.5175  0.3676  2.0961
  370MOL0     H48807   1.535   7.027   5.670 -3.6476  0.6585  2.9404
  370MOL0     H48808   1.393   6.849   5.606 -1.2693 -2.1928 -1.2142
  370MOL0     H48809   1.496   6.735   5.697 -2.7767  1.5960  2.2389
  370MOL0     H48810   1.580   6.896   5.444 -0.6416 -0.6059 -1.7732
  370MOL0     H48811   1.496   6.740   5.431  5.0851 -3.9449 -1.8121
  370MOL0     H48812   1.767   6.826   5.501 -1.4751  2.1789 -0.9283
  370MOL0     H48813   1.737   6.689   5.594  0.7325 -0.2889 -0.4197
  370MOL0     H48814   1.751   6.649   5.306  0.3301  0.9907  0.7501
  370MOL0     H48815   1.665   6.545   5.428  2.7395 -2.9082  0.6892
  370MOL0     H48816   1.866   6.464   5.398 -0.1673  2.1248 -0.9647
  370MOL0     H48817   1.864   6.528   5.558  1.1642  0.2967  0.2168
  370MOL0     H48818   2.011   6.722   5.496 -1.1617 -1.1129  0.9315
  370MOL0     H48819   2.067   6.552   5.458 -1.5985 -2.6156 -1.1042
  370MOL0     H48820   1.979   6.604   5.224  0.7372  1.0214 -0.3802
  370MOL0     H48821   2.124   6.691   5.272 -0.4611  1.8693 -1.5125
  370MOL0     H48822   1.459   6.900   6.088  0.6004 -1.3308 -1.5125
  370MOL0     H48823   1.547   7.029   6.292 -2.7109  1.9916 -0.7401
  370MOL0     H48824   1.806   7.273   6.492 -4.3698 -2.3049 -1.3994
  370MOL0     H48825   1.871   7.407   6.705  0.8423  1.6562  0.9025
  370MOL0     H48826   1.912   7.489   7.207 -0.3718  0.4922 -3.5503
  370MOL0     H48827   1.807   7.375   7.000 -0.7711 -1.0907  2.3198
  370MOL0     H48828   1.796   6.810   6.804  3.3002 -0.5169  0.3414
  370MOL0     H48829   1.739   6.704   6.580 -1.8591  1.6205 -2.7071
  370MOL0     H48830   1.979   6.776   6.255 -1.2274 -1.9321  0.8311
  370MOL0     H48831   1.860   6.920   6.206 -1.7668  1.2744  0.7417
  370MOL0     H48832   1.823   6.619   6.159 -1.8887  0.0377 -1.0977
  370MOL0     H48833   1.694   6.725   6.143 -0.0907  0.6341 -2.5139
  370MOL0     H48834   1.850   6.867   5.981  1.1718  0.3014 -2.1150
  370MOL0     H48835   1.768   6.725   5.930  0.2431  0.5640 -1.2545
  370MOL0     H48836   2.015   6.744   5.858 -2.2159 -0.6106  0.5915
  370MOL0     H48837   2.063   6.717   6.022  4.0504 -1.7635 -2.9728
  370MOL0     H48838   2.002   6.315   5.924  2.1080 -0.0876  1.2577
  370MOL0     H48839   1.860   7.054   6.393 -0.5383  1.1804  0.4989
  370MOL0     H48840   1.933   7.152   6.614 -0.8163  0.0391  2.8920
  371MOL0     O48841  11.433   7.764   2.092 -0.0786 -0.2423  0.8919
  371MOL0     C48842  11.410   7.811   1.982  0.2117 -0.4148 -0.1890
  371MOL0     O48843  11.387   7.945   1.969  1.0101 -0.5606 -0.4722
  371MOL0     C48844  11.373   8.020   2.085  0.1170 -0.4806  0.6124
  371MOL0     C48845  11.254   8.020   2.172 -0.3034  0.0354  0.5703
  371MOL0     C48846  11.262   8.086   2.293 -0.8355 -0.4061 -0.3657
  371MOL0     C48847  11.380   8.146   2.342 -0.6860  0.7884 -0.2172
  371MOL0     O48848  11.385   8.207   2.469 -0.1312  0.2042 -0.2513
  371MOL0     C48849  11.516   8.254   2.517  0.1446 -0.3763  0.4892
  371MOL0     C48850  11.498   8.302   2.654 -0.4399 -0.0609 -0.1926
  371MOL0     C48851  11.634   8.324   2.714 -0.3000  0.2808 -0.2569
  371MOL0     C48852  11.640   8.428   2.837  0.5528  0.6267  0.1161
  371MOL0     C48853  11.784   8.456   2.886  0.7919 -0.4809  0.0681
  371MOL0     C48854  11.774   8.558   3.002  0.1101  0.7797 -0.6258
  371MOL0     C48855  11.914   8.577   3.060 -0.4003 -0.0765  0.9530
  371MOL0     C48856  11.887   8.631   3.203 -0.7354 -0.8067 -0.5878
  371MOL0     N48857  12.007   8.706   3.247 -1.0685  0.0169 -0.2593
  371MOL0     C48858  12.017   8.820   3.333  0.4431 -0.5482  0.4415
  371MOL0     C48859  12.153   8.836   3.347 -0.3922 -0.3728 -0.1590
  371MOL0     C48860  12.209   8.953   3.429 -0.0734  0.8160  0.8245
  371MOL0     C48861  12.316   8.915   3.528 -0.7188 -0.2049 -0.3811
  371MOL0     C48862  12.357   9.039   3.617  0.0087 -0.4873  0.4847
  371MOL0     C48863  12.318   9.010   3.760  0.3234  0.0957 -0.3395
  371MOL0     O48864  12.348   9.129   3.833  0.6897  0.1103 -0.0818
  371MOL0     C48865  12.465   9.142   3.900 -0.4261  0.6786 -0.4235
  371MOL0     C48866  12.474   9.234   4.012 -1.3688  0.5771  0.0071
  371MOL0     C48867  12.597   9.252   4.076 -0.0055  0.1732  0.6054
  371MOL0     C48868  12.716   9.198   4.024 -0.1353  0.0124 -0.2263
  371MOL0     C48869  12.848   9.227   4.084  0.8405 -0.5693 -1.3484
  371MOL0     O48870  12.955   9.177   4.013 -0.1022 -0.1098 -0.8365
  371MOL0     C48871  13.086   9.171   4.055  0.0107 -0.2140 -0.3356
  371MOL0     C48872  13.127   9.146   4.190  1.5677  0.7270 -0.8758
  371MOL0     C48873  13.260   9.126   4.229 -0.1639 -0.0575  0.0348
  371MOL0     C48874  13.361   9.127   4.128  0.1836 -0.6164  1.1519
  371MOL0     O48875  13.495   9.108   4.160  0.0249 -0.0565  0.4810
  371MOL0     C48876  13.551   9.138   4.285 -0.7993  0.5603 -0.5087
  371MOL0     C48877  13.636   9.271   4.261  0.2019  0.5242 -0.6110
  371MOL0     C48878  13.774   9.257   4.284 -0.0614 -0.4964  0.4992
  371MOL0     C48879  13.809   9.263   4.437  0.3868 -0.4703  0.6024
  371MOL0     C48880  13.963   9.271   4.451 -0.2534 -0.0577  0.2343
  371MOL0     C48881  14.016   9.406   4.492 -0.6896  0.7905 -0.7509
  371MOL0     C48882  14.174   9.411   4.499 -0.4782  0.2742  0.6398
  371MOL0     C48883  14.227   9.535   4.561  0.2881 -0.7271 -0.2629
  371MOL0    Cl48884  14.204   9.526   4.738  0.3407  0.0424 -0.0715
  371MOL0     C48885  13.327   9.149   3.997  0.5783  0.4633  0.7593
  371MOL0     C48886  13.186   9.165   3.959  0.4051 -0.4298 -1.0230
  371MOL0     O48887  12.850   9.291   4.192  0.5144  0.4437  0.8966
  371MOL0     C48888  12.707   9.116   3.908  0.1285  0.4395 -0.5393
  371MOL0     C48889  12.585   9.082   3.853 -0.4122  0.7916 -0.6931
  371MOL0     N48890  12.214   8.730   3.284 -1.0651 -1.0869 -0.3254
  371MOL0     N48891  12.129   8.658   3.227  0.2294  0.5364  0.0270
  371MOL0     C48892  11.489   8.151   2.249  0.6440  0.0469  0.1789
  371MOL0     C48893  11.482   8.099   2.121 -0.5521 -0.2600  0.4891
  371MOL0     C48894  11.403   7.730   1.859 -0.2831 -0.5615  0.3356
  371MOL0     C48895  11.334   7.785   1.751 -0.8004 -0.5658  0.6339
  371MOL0     C48896  11.323   7.708   1.637  0.2883  1.2985  0.7518
  371MOL0     C48897  11.401   7.589   1.619 -0.1228 -0.5804  0.2041
  371MOL0     O48898  11.389   7.525   1.497  1.1190  0.1774  0.2216
  371MOL0     C48899  11.318   7.396   1.513 -0.3091 -0.4023  0.7930
  371MOL0     C48900  11.228   7.376   1.390  0.1597 -0.1305 -0.4006
  371MOL0     C48901  11.153   7.249   1.391 -0.1230  0.1173 -1.1777
  371MOL0     C48902  11.238   7.125   1.420  0.1094 -0.2653 -0.3943
  371MOL0     C48903  11.342   7.099   1.317  0.5427  0.0574 -0.2510
  371MOL0     C48904  11.421   7.112   1.224 -0.3658  0.3605 -0.3583
  371MOL0     C48905  11.479   7.548   1.719 -0.7894 -0.2422 -0.3673
  371MOL0     C48906  11.472   7.608   1.847  0.5470 -0.2378 -0.3201
  371MOL0     H48907  11.169   7.959   2.143  2.1084 -3.5496  0.4099
  371MOL0     H48908  11.174   8.072   2.356 -1.6293 -1.8298 -1.7351
  371MOL0     H48909  11.541   8.340   2.454 -0.7720 -1.0737 -0.8841
  371MOL0     H48910  11.587   8.171   2.522 -0.8158 -1.3840 -1.2934
  371MOL0     H48911  11.441   8.231   2.715 -1.7695 -0.8220 -2.2196
  371MOL0     H48912  11.446   8.398   2.659 -1.7808 -0.5748 -2.5815
  371MOL0     H48913  11.707   8.347   2.635  0.3479  1.3657  0.6182
  371MOL0     H48914  11.667   8.226   2.749  3.0969  1.4499  0.1625
  371MOL0     H48915  11.607   8.531   2.820  1.7289  0.9748 -0.1308
  371MOL0     H48916  11.584   8.378   2.917 -3.5845 -0.6867 -3.2050
  371MOL0     H48917  11.834   8.518   2.811 -0.3845  2.4998  1.6090
  371MOL0     H48918  11.841   8.364   2.905  1.9131 -0.0628 -1.0986
  371MOL0     H48919  11.709   8.509   3.075  1.9531 -2.1097 -0.7811
  371MOL0     H48920  11.732   8.654   2.970 -0.6378  1.2742  1.7054
  371MOL0     H48921  11.989   8.497   3.049  2.5344  2.6810 -0.6874
  371MOL0     H48922  11.952   8.655   2.994 -1.8711  0.2866  0.5155
  371MOL0     H48923  11.875   8.537   3.256 -0.3543 -0.4303  0.1765
  371MOL0     H48924  11.806   8.705   3.206 -1.0943 -1.2314  1.3856
  371MOL0     H48925  11.942   8.869   3.394  2.3446  1.1572  1.5488
  371MOL0     H48926  12.123   8.997   3.479 -1.6701  0.0103 -1.0508
  371MOL0     H48927  12.249   9.030   3.363  1.2800 -2.0066 -1.9807
  371MOL0     H48928  12.400   8.863   3.482  0.0835 -1.6652  2.5310
  371MOL0     H48929  12.284   8.833   3.592 -0.5147  0.5150  0.6806
  371MOL0     H48930  12.461   9.063   3.598 -0.0046 -2.0803 -2.0551
  371MOL0     H48931  12.296   9.127   3.595  2.0252  0.2991 -2.5073
  371MOL0     H48932  12.353   8.917   3.805 -1.4324  0.0086  0.9329
  371MOL0     H48933  12.210   8.993   3.768  0.5139 -0.1622  2.3391
  371MOL0     H48934  12.384   9.287   4.042 -2.3833 -0.4338 -1.1211
  371MOL0     H48935  12.597   9.313   4.165  2.4169  2.0508 -0.5304
  371MOL0     H48936  13.054   9.161   4.269  0.8396 -2.6613 -0.7234
  371MOL0     H48937  13.284   9.120   4.335  3.0984  0.6486 -0.5518
  371MOL0     H48938  13.626   9.064   4.312  0.7711  1.2104 -2.7895
  371MOL0     H48939  13.478   9.155   4.365  0.2532 -0.0549  0.6135
  371MOL0     H48940  13.604   9.338   4.341  3.0525 -0.5037  1.5292
  371MOL0     H48941  13.623   9.314   4.161  2.2063 -1.3846 -1.7867
  371MOL0     H48942  13.824   9.343   4.239 -1.4235  0.1030  0.0686
  371MOL0     H48943  13.812   9.172   4.227 -2.2312  0.1871 -2.1774
  371MOL0     H48944  13.769   9.349   4.491  1.5099  1.8054 -1.9610
  371MOL0     H48945  13.762   9.178   4.488 -2.8385  0.9935  0.3144
  371MOL0     H48946  14.003   9.245   4.353 -0.0100  2.9036 -0.5336
  371MOL0     H48947  13.998   9.196   4.523 -0.5637 -2.0044 -1.5619
  371MOL0     H48948  13.984   9.415   4.597  2.7352  2.4322  0.3210
  371MOL0     H48949  13.978   9.490   4.433  0.8532  2.1339  0.0674
  371MOL0     H48950  14.202   9.322   4.557 -2.5481 -1.3600 -0.6877
  371MOL0     H48951  14.209   9.405   4.395  1.4257 -0.4785  1.2826
  371MOL0     H48952  14.169   9.617   4.518  2.1856  1.1936  0.6341
  371MOL0     H48953  14.334   9.543   4.540 -0.0872 -1.4315 -2.6660
  371MOL0     H48954  13.409   9.148   3.926  1.3993 -1.7179  1.6441
  371MOL0     H48955  13.154   9.189   3.858  0.7368 -0.8472 -1.2353
  371MOL0     H48956  12.793   9.055   3.879  0.7203 -0.2090  2.2743
  371MOL0     H48957  12.584   9.011   3.772  0.0733  0.3201 -0.3001
  371MOL0     H48958  11.582   8.203   2.267  0.4977  1.1011 -1.8936
  371MOL0     H48959  11.556   8.121   2.045 -0.0831 -0.3561  0.9153
  371MOL0     H48960  11.272   7.873   1.765  0.1666  0.5077 -1.3965
  371MOL0     H48961  11.263   7.726   1.548  0.0649 -2.3583 -0.0067
  371MOL0     H48962  11.256   7.388   1.602 -3.9565  1.8299 -1.3067
  371MOL0     H48963  11.398   7.321   1.511  2.4554  2.3645 -1.2388
  371MOL0     H48964  11.161   7.462   1.386 -0.4608 -0.6543 -2.8487
  371MOL0     H48965  11.293   7.380   1.302 -2.0239  0.0006 -2.0695
  371MOL0     H48966  11.096   7.247   1.297 -1.9551  3.0193 -0.2638
  371MOL0     H48967  11.079   7.268   1.469  2.6152  1.2493  1.3654
  371MOL0     H48968  11.281   7.150   1.517 -2.2906 -1.6203  1.1494
  371MOL0     H48969  11.174   7.038   1.441  0.4685  0.0527  2.3966
  371MOL0     H48970  11.494   7.118   1.145 -0.3852  0.0304 -0.4034
  371MOL0     H48971  11.545   7.465   1.697  1.1473  0.2910  2.8937
  371MOL0     H48972  11.533   7.565   1.926 -0.6462 -0.7299  0.3515
  372MOL0     O48973   4.979   9.269   6.975  0.4404  1.1884  0.3554
  372MOL0     C48974   4.892   9.181   6.953 -0.0285 -0.5631  0.2990
  372MOL0     O48975   4.888   9.055   6.998  0.3247  0.7978 -0.0009
  372MOL0     C48976   4.993   9.002   7.078 -0.6353 -0.1012 -0.3056
  372MOL0     C48977   4.965   8.892   7.163 -0.1120  0.5597  0.1311
  372MOL0     C48978   5.070   8.829   7.232 -0.6461  1.2427 -0.3954
  372MOL0     C48979   5.202   8.886   7.239  0.8692 -0.0075  0.0304
  372MOL0     O48980   5.301   8.825   7.311  0.5747  0.2276  0.6178
  372MOL0     C48981   5.438   8.868   7.311 -0.0569  0.0409 -0.5043
  372MOL0     C48982   5.502   8.785   7.418 -0.6655  0.6836 -0.1689
  372MOL0     C48983   5.441   8.812   7.560  0.6116 -0.5681 -0.1293
  372MOL0     C48984   5.550   8.811   7.672  0.4554  0.6040 -0.5437
  372MOL0     C48985   5.491   8.828   7.812  0.1903 -0.0778 -0.2410
  372MOL0     C48986   5.430   8.698   7.860  0.6310  0.0670 -0.1728
  372MOL0     C48987   5.409   8.690   8.018 -0.1542 -0.3581  0.5194
  372MOL0     C48988   5.298   8.778   8.063  0.5094 -0.0805 -0.0729
  372MOL0     N48989   5.221   8.740   8.180 -0.8340  0.5846  0.9313
  372MOL0     C48990   5.120   8.814   8.234  0.0502  0.3365  0.3451
  372MOL0     C48991   5.080   8.738   8.344  0.1605 -0.0275  0.2124
  372MOL0     C48992   4.966   8.779   8.437  0.1321  0.4040  0.2670
  372MOL0     C48993   4.916   8.659   8.524 -0.1097  0.8439 -0.8293
  372MOL0     C48994   4.820   8.695   8.644  0.5351 -0.6829 -0.4315
  372MOL0     C48995   4.685   8.701   8.582  1.1249 -1.0882  0.6149
  372MOL0     O48996   4.590   8.778   8.667 -0.0739 -0.6927  0.1523
  372MOL0     C48997   4.484   8.853   8.619  0.5183 -0.6045 -0.0975
  372MOL0     C48998   4.460   8.886   8.485  0.4921 -0.2498  0.4925
  372MOL0     C48999   4.338   8.940   8.442 -0.3523  0.7090  0.7851
  372MOL0     C49000   4.240   8.969   8.536  0.7998  0.0650 -0.2282
  372MOL0     C49001   4.114   9.022   8.486 -0.9534  0.0300 -0.2910
  372MOL0     O49002   4.006   9.003   8.567 -1.0101  0.5205 -0.2472
  372MOL0     C49003   3.885   9.041   8.519  0.0682 -0.0204 -0.4428
  372MOL0     C49004   3.831   8.966   8.409 -0.4314 -1.4622  0.1989
  372MOL0     C49005   3.708   9.018   8.355 -0.5023 -0.1038  0.2100
  372MOL0     C49006   3.658   9.137   8.391  1.6262  0.3205 -0.1304
  372MOL0     O49007   3.538   9.177   8.327 -0.4760  0.5703  0.4004
  372MOL0     C49008   3.448   9.265   8.380 -0.5625 -0.1361 -0.1750
  372MOL0     C49009   3.349   9.325   8.271 -1.0976  0.8141 -0.9185
  372MOL0     C49010   3.256   9.216   8.228 -0.8089 -0.5580  0.7191
  372MOL0     C49011   3.170   9.263   8.124  0.9349 -0.6020 -0.1349
  372MOL0     C49012   3.038   9.317   8.183  1.3994  0.1760  0.5017
  372MOL0     C49013   2.921   9.320   8.082  0.6905 -1.0502  0.3663
  372MOL0     C49014   2.796   9.381   8.152  0.4064 -0.8655  0.1903
  372MOL0     C49015   2.661   9.311   8.130 -0.0447  0.2522  0.5002
  372MOL0    Cl49016   2.614   9.338   7.955  0.0613  0.1457  0.4178
  372MOL0     C49017   3.711   9.211   8.500 -0.8636  0.8918  1.2923
  372MOL0     C49018   3.820   9.159   8.565  0.2384  0.0360 -0.5351
  372MOL0     O49019   4.107   9.077   8.379  0.1554  0.5299  0.5764
  372MOL0     C49020   4.267   8.941   8.674 -0.7998  0.2116  0.4348
  372MOL0     C49021   4.386   8.889   8.711 -0.3409 -0.1040  0.1143
  372MOL0     N49022   5.157   8.627   8.350  0.6915  0.6778 -0.1051
  372MOL0     N49023   5.242   8.628   8.252  0.6287 -0.3748 -0.0814
  372MOL0     C49024   5.234   8.992   7.146  0.5068 -0.0543 -0.2220
  372MOL0     C49025   5.127   9.037   7.062 -0.4507 -0.9050 -0.2702
  372MOL0     C49026   4.772   9.214   6.864 -0.1866  0.6649 -0.5109
  372MOL0     C49027   4.745   9.340   6.816 -0.4577  0.6602  0.3290
  372MOL0     C49028   4.639   9.358   6.733  0.7315 -0.1788  1.2390
  372MOL0     C49029   4.541   9.273   6.697 -0.2585 -0.1010  0.3640
  372MOL0     O49030   4.446   9.312   6.595  0.5517  0.4506  0.6044
  372MOL0     C49031   4.343   9.220   6.556 -0.1563  0.3154 -0.4536
  372MOL0     C49032   4.221   9.301   6.499 -0.4515 -0.3712 -0.2855
  372MOL0     C49033   4.138   9.210   6.404 -0.1892  0.1244 -0.4790
  372MOL0     C49034   4.018   9.279   6.338  0.2462 -1.1269 -0.4516
  372MOL0     C49035   4.058   9.394   6.264 -0.3146  0.6523  0.7635
  372MOL0     C49036   4.089   9.491   6.191 -1.0054  0.2379  0.2400
  372MOL0     C49037   4.571   9.146   6.742 -0.6201  0.3445 -0.9639
  372MOL0     C49038   4.681   9.119   6.822 -1.6707  0.1587  0.2857
  372MOL0     H49039   4.861   8.860   7.165 -0.8693  2.7356 -0.9826
  372MOL0     H49040   5.067   8.737   7.289  1.2814  1.4159  0.0690
  372MOL0     H49041   5.449   8.972   7.342 -1.6416  0.1739 -0.2640
  372MOL0     H49042   5.484   8.844   7.215 -3.5359 -0.8246 -2.1139
  372MOL0     H49043   5.603   8.826   7.432 -0.9241  1.0949  0.5660
  372MOL0     H49044   5.512   8.679   7.396  1.0940 -0.6414  5.3017
  372MOL0     H49045   5.374   8.730   7.587  2.6284 -1.7095  1.7623
  372MOL0     H49046   5.389   8.908   7.560  2.8566  0.9392  4.8610
  372MOL0     H49047   5.610   8.720   7.667 -0.1843  0.2419 -3.6250
  372MOL0     H49048   5.619   8.896   7.663  0.2998  1.1785  2.4741
  372MOL0     H49049   5.414   8.906   7.814 -0.2091 -0.3480 -2.5798
  372MOL0     H49050   5.574   8.861   7.875  0.3310  0.2235 -0.5804
  372MOL0     H49051   5.497   8.612   7.849  1.5172  0.5863  0.9529
  372MOL0     H49052   5.332   8.692   7.811 -0.5775 -2.1930  2.2765
  372MOL0     H49053   5.393   8.585   8.043  0.5064  0.2259  3.8140
  372MOL0     H49054   5.502   8.719   8.067 -1.4193  4.0849  0.7781
  372MOL0     H49055   5.227   8.793   7.981 -0.2925  0.6766  0.7247
  372MOL0     H49056   5.330   8.877   8.095 -0.3966 -0.2586  1.4759
  372MOL0     H49057   5.068   8.896   8.184 -3.5536 -2.0889 -0.2729
  372MOL0     H49058   4.882   8.812   8.376  1.3411  2.2669 -0.4702
  372MOL0     H49059   5.004   8.859   8.502 -0.0022 -0.7445  1.8378
  372MOL0     H49060   5.009   8.618   8.566 -0.7953  0.6973  0.6290
  372MOL0     H49061   4.866   8.596   8.450 -3.0062  1.5267  0.3919
  372MOL0     H49062   4.812   8.623   8.726 -2.1189  0.4521  0.4209
  372MOL0     H49063   4.861   8.791   8.676  1.0389  0.4984 -4.1318
  372MOL0     H49064   4.638   8.603   8.571 -0.7296 -0.1401 -0.3264
  372MOL0     H49065   4.693   8.765   8.494  0.3632 -0.8533  0.7132
  372MOL0     H49066   4.541   8.871   8.415  1.6028  0.4288  1.5951
  372MOL0     H49067   4.331   8.964   8.337 -1.3714  0.3760  0.7747
  372MOL0     H49068   3.884   8.879   8.371  2.4377  0.0616  0.4321
  372MOL0     H49069   3.661   8.966   8.272  2.7553 -2.5522 -0.3484
  372MOL0     H49070   3.487   9.354   8.431 -3.6747  1.6316 -0.6345
  372MOL0     H49071   3.375   9.215   8.443 -0.2758  0.3039  0.5130
  372MOL0     H49072   3.415   9.368   8.195  1.6765 -1.8035 -0.1997
  372MOL0     H49073   3.295   9.400   8.329 -0.8019 -0.5400  1.2378
  372MOL0     H49074   3.204   9.169   8.312 -2.9413 -2.4159 -1.4695
  372MOL0     H49075   3.315   9.131   8.191  1.6027  0.9014  1.0078
  372MOL0     H49076   3.220   9.336   8.059 -0.2620  0.7068  0.3440
  372MOL0     H49077   3.137   9.180   8.060 -2.1052 -0.6400  1.3185
  372MOL0     H49078   3.056   9.421   8.213 -2.4193  0.9703  0.5628
  372MOL0     H49079   3.008   9.262   8.273  0.5325 -1.4557 -0.7335
  372MOL0     H49080   2.895   9.219   8.051 -1.6237 -0.8184  1.3588
  372MOL0     H49081   2.951   9.380   7.995 -1.0833  3.0136  2.2917
  372MOL0     H49082   2.818   9.367   8.259  0.9961 -0.6087  0.1103
  372MOL0     H49083   2.778   9.488   8.141  0.4162 -1.1253 -3.4375
  372MOL0     H49084   2.588   9.365   8.190  1.0079  3.8037 -1.1391
  372MOL0     H49085   2.667   9.202   8.138 -0.4560  0.1789 -0.1251
  372MOL0     H49086   3.675   9.310   8.526 -0.2630  2.1695 -2.2866
  372MOL0     H49087   3.876   9.204   8.645  2.5905 -0.3875 -1.8548
  372MOL0     H49088   4.199   8.979   8.750  0.1743  0.6555  1.0981
  372MOL0     H49089   4.405   8.867   8.815 -2.3308  0.9401  0.7465
  372MOL0     H49090   5.334   9.033   7.143  0.6472 -0.2139  1.3747
  372MOL0     H49091   5.158   9.097   6.977  1.0243 -6.0373 -3.8381
  372MOL0     H49092   4.810   9.424   6.838  0.9466 -0.8232  2.0851
  372MOL0     H49093   4.619   9.461   6.705  2.4744 -0.0539  0.3808
  372MOL0     H49094   4.310   9.150   6.632  1.1812  1.3766  1.1760
  372MOL0     H49095   4.374   9.155   6.474  0.8996  1.9047 -1.3940
  372MOL0     H49096   4.160   9.324   6.587  0.9667  1.6154  0.2408
  372MOL0     H49097   4.254   9.384   6.436  0.5491  0.2432  1.0061
  372MOL0     H49098   4.108   9.125   6.466 -1.6738  2.4456  2.2557
  372MOL0     H49099   4.195   9.170   6.321  0.6109  0.2442  0.0062
  372MOL0     H49100   3.966   9.212   6.268 -0.5373 -0.0817 -0.8873
  372MOL0     H49101   3.946   9.305   6.417  0.9842  2.1467 -0.7281
  372MOL0     H49102   4.122   9.576   6.136 -1.2869  0.9852  1.1867
  372MOL0     H49103   4.498   9.068   6.727  1.8086 -3.2301  3.3151
  372MOL0     H49104   4.699   9.018   6.856 -1.6812  0.0342 -0.0673
  373MOL0     O49105   3.768   0.587   9.478  0.1064  0.4900  0.4344
  373MOL0     C49106   3.743   0.675   9.400  0.5582 -0.1539  0.2496
  373MOL0     O49107   3.643   0.762   9.411 -0.3871 -0.7977 -0.5488
  373MOL0     C49108   3.600   0.794   9.538  0.3589  0.1693 -0.0722
  373MOL0     C49109   3.460   0.804   9.569  0.7292 -1.1849  0.1056
  373MOL0     C49110   3.420   0.867   9.690 -0.3961  0.2730  0.7065
  373MOL0     C49111   3.507   0.898   9.789  1.0581  1.0425  0.9923
  373MOL0     O49112   3.456   0.935   9.907 -0.5780 -0.8718 -0.1163
  373MOL0     C49113   3.511   1.062   9.955 -0.2494 -0.6904  0.2712
  373MOL0     C49114   3.505   1.182   9.858  0.3896  0.0145 -0.2899
  373MOL0     C49115   3.361   1.242   9.867 -0.7517  0.3647  0.4156
  373MOL0     C49116   3.341   1.353   9.759 -1.3714 -0.1325 -0.1676
  373MOL0     C49117   3.195   1.419   9.777 -0.4322  0.3022  0.5568
  373MOL0     C49118   3.174   1.534   9.875 -1.2335 -1.3550  0.5469
  373MOL0     C49119   3.224   1.669   9.817 -0.4863  1.0708  0.5329
  373MOL0     C49120   3.190   1.797   9.909 -0.1373  0.6593  0.1908
  373MOL0     N49121   3.160   1.764  10.052 -0.6748  0.3866 -1.1441
  373MOL0     C49122   3.229   1.823  10.160 -0.2375  0.3952  0.5885
  373MOL0     C49123   3.136   1.845  10.259 -0.5294 -0.1041 -0.0668
  373MOL0     C49124   3.160   1.922  10.390 -0.2539 -0.2063 -0.4850
  373MOL0     C49125   3.188   2.069  10.373  0.3217 -0.0772 -0.3344
  373MOL0     C49126   3.342   2.090  10.350  0.2039  0.6450 -0.0375
  373MOL0     C49127   3.361   2.193  10.249 -0.0555 -1.2017  0.7657
  373MOL0     O49128   3.309   2.315  10.304  0.1139  0.7429  0.5885
  373MOL0     C49129   3.211   2.393  10.236  0.4421  0.0689  0.1101
  373MOL0     C49130   3.226   2.416  10.102 -0.2748  0.2736  1.0738
  373MOL0     C49131   3.144   2.512  10.040  1.2000 -0.3589 -0.5396
  373MOL0     C49132   3.060   2.596  10.115  0.2867 -0.0401 -0.7925
  373MOL0     C49133   2.974   2.705  10.050 -0.0778 -0.2923 -0.6962
  373MOL0     O49134   2.991   2.725   9.916  0.1628 -0.8319 -0.4412
  373MOL0     C49135   2.939   2.836   9.853 -0.0301 -0.1110 -0.1319
  373MOL0     C49136   2.835   2.807   9.759  0.7668 -0.5570 -0.2584
  373MOL0     C49137   2.785   2.909   9.683 -0.4289  0.1326 -0.2113
  373MOL0     C49138   2.827   3.042   9.702 -0.2424 -0.1894 -0.2762
  373MOL0     O49139   2.772   3.141   9.631 -1.0015  0.0073 -0.1479
  373MOL0     C49140   2.737   3.251   9.704  0.1055  0.0687 -0.4582
  373MOL0     C49141   2.607   3.302   9.649 -0.1613 -0.8855 -0.2706
  373MOL0     C49142   2.575   3.453   9.672 -0.6516 -0.6207  1.4661
  373MOL0     C49143   2.433   3.499   9.618  0.6841  0.5718 -0.6419
  373MOL0     C49144   2.313   3.408   9.664 -0.6534  1.3161  0.4710
  373MOL0     C49145   2.272   3.443   9.811  0.2734 -0.5464  0.7525
  373MOL0     C49146   2.143   3.386   9.863  0.1232 -0.2928  0.7816
  373MOL0     C49147   2.082   3.470   9.964  0.4746  0.1141 -0.1749
  373MOL0    Cl49148   1.948   3.370  10.026 -0.6536 -0.0698  0.3235
  373MOL0     C49149   2.924   3.066   9.801 -0.1044 -0.8500  0.5649
  373MOL0     C49150   2.979   2.965   9.875  1.1381 -0.7148 -1.1824
  373MOL0     O49151   2.906   2.778  10.119 -0.9578 -0.0548  0.2588
  373MOL0     C49152   3.062   2.580  10.250  0.8873 -0.3001  1.0166
  373MOL0     C49153   3.126   2.476  10.313 -0.8384  0.2754 -0.0394
  373MOL0     N49154   3.018   1.802  10.200 -0.3951  0.5596 -0.0924
  373MOL0     N49155   3.023   1.760  10.081  0.5770 -0.0967  0.5783
  373MOL0     C49156   3.640   0.871   9.764 -0.1243  0.3848 -0.3005
  373MOL0     C49157   3.691   0.826   9.641  1.2548 -0.5894 -0.7046
  373MOL0     C49158   3.813   0.669   9.270 -0.4035  0.5277  0.0274
  373MOL0     C49159   3.914   0.574   9.252  0.3016 -0.3217  0.2141
  373MOL0     C49160   3.993   0.582   9.148  0.8358  0.3036 -0.4721
  373MOL0     C49161   3.973   0.673   9.043  0.1970 -1.1641 -1.0949
  373MOL0     O49162   4.060   0.697   8.940 -0.8217  0.3188 -1.1293
  373MOL0     C49163   4.143   0.589   8.896  0.9463 -0.0676  0.2256
  373MOL0     C49164   4.171   0.609   8.750  0.9836  1.5402 -0.4834
  373MOL0     C49165   4.040   0.619   8.665 -0.3978  0.0070 -0.2270
  373MOL0     C49166   3.962   0.483   8.653  0.1178  0.6989 -0.3915
  373MOL0     C49167   4.050   0.382   8.606 -0.1000 -0.4931 -0.0537
  373MOL0     C49168   4.121   0.299   8.556 -0.0815  0.2218 -0.0443
  373MOL0     C49169   3.879   0.775   9.062 -0.3100  0.8967  0.4105
  373MOL0     C49170   3.798   0.773   9.176  0.1767 -0.5846  0.0890
  373MOL0     H49171   3.385   0.769   9.499 -0.9564  2.0748  0.1031
  373MOL0     H49172   3.315   0.878   9.715 -0.1854  1.1205  1.2877
  373MOL0     H49173   3.612   1.046   9.994  1.1759  4.0556 -0.8918
  373MOL0     H49174   3.459   1.100  10.044  0.4641  4.1937 -1.1470
  373MOL0     H49175   3.534   1.146   9.758  1.2421  0.6123 -0.2735
  373MOL0     H49176   3.585   1.243   9.902  0.8924 -1.8896  1.5855
  373MOL0     H49177   3.353   1.286   9.967  1.0540 -0.9952  1.2059
  373MOL0     H49178   3.282   1.169   9.848  1.5485 -1.7712 -1.6447
  373MOL0     H49179   3.409   1.439   9.760 -1.3394 -0.1045 -1.8425
  373MOL0     H49180   3.359   1.318   9.657 -0.1302  0.8974 -0.3319
  373MOL0     H49181   3.127   1.333   9.787 -0.3230 -0.2778 -2.6217
  373MOL0     H49182   3.182   1.438   9.670  2.5374 -2.2890 -0.4174
  373MOL0     H49183   3.224   1.518   9.971 -0.2949  5.3929  1.6293
  373MOL0     H49184   3.068   1.549   9.896 -0.8686  3.2628 -0.0464
  373MOL0     H49185   3.332   1.655   9.805 -0.9677 -1.4024 -2.1629
  373MOL0     H49186   3.183   1.690   9.718  2.6572  0.0636 -1.1161
  373MOL0     H49187   3.102   1.846   9.867  1.2462  1.2251 -2.2271
  373MOL0     H49188   3.278   1.861   9.915 -0.0095  0.6880 -1.4722
  373MOL0     H49189   3.332   1.854  10.144  0.8495 -3.4222 -0.8729
  373MOL0     H49190   3.234   1.867  10.449 -0.1272  0.2621 -0.2017
  373MOL0     H49191   3.068   1.910  10.447 -1.0915  1.0251 -1.5209
  373MOL0     H49192   3.144   2.116  10.461 -2.2371 -2.9066  0.0639
  373MOL0     H49193   3.132   2.107  10.287 -2.1768 -3.6359 -0.5087
  373MOL0     H49194   3.378   2.130  10.445  0.8646  0.1797 -0.0883
  373MOL0     H49195   3.397   1.997  10.334  0.4418  0.1270  3.2837
  373MOL0     H49196   3.307   2.172  10.156  2.5420  2.1274 -1.7328
  373MOL0     H49197   3.467   2.208  10.228  0.0633  2.0933  2.9469
  373MOL0     H49198   3.280   2.354  10.031  1.5850  3.0647 -0.0821
  373MOL0     H49199   3.136   2.538   9.935 -0.5535  2.2356  0.1640
  373MOL0     H49200   2.808   2.703   9.746  2.5099 -0.6537 -5.5919
  373MOL0     H49201   2.713   2.898   9.602 -0.7876  0.3661  0.0740
  373MOL0     H49202   2.808   3.334   9.694 -0.2609  0.3684 -0.6239
  373MOL0     H49203   2.729   3.236   9.812 -1.5658  3.0594 -0.0420
  373MOL0     H49204   2.525   3.234   9.674 -2.7408  1.6909 -1.1490
  373MOL0     H49205   2.618   3.280   9.542  1.9763 -0.8948 -0.0770
  373MOL0     H49206   2.648   3.521   9.627  1.0807 -2.3990  1.4544
  373MOL0     H49207   2.575   3.468   9.780 -0.3743 -1.3128  1.5668
  373MOL0     H49208   2.401   3.600   9.644 -1.7612 -0.9723  3.2871
  373MOL0     H49209   2.440   3.493   9.509 -0.3798 -1.3219 -0.6561
  373MOL0     H49210   2.326   3.299   9.657  2.8602  1.6926 -0.7546
  373MOL0     H49211   2.233   3.434   9.595  2.0125 -0.2216 -3.5286
  373MOL0     H49212   2.254   3.551   9.817 -0.1781 -0.6366  1.0690
  373MOL0     H49213   2.355   3.434   9.881  0.4789 -2.1524  0.3528
  373MOL0     H49214   2.067   3.369   9.787 -1.2439  3.3873  1.1100
  373MOL0     H49215   2.166   3.288   9.905 -2.4391 -2.0520 -1.6024
  373MOL0     H49216   2.035   3.559   9.922  1.0038  0.6589  0.3721
  373MOL0     H49217   2.143   3.484  10.054 -0.7930  0.5768  0.6487
  373MOL0     H49218   2.966   3.164   9.821 -1.4547 -0.1309 -0.0648
  373MOL0     H49219   3.051   2.983   9.954  1.2870 -3.9613 -0.4274
  373MOL0     H49220   2.992   2.648  10.300 -2.6884 -3.4563  0.7674
  373MOL0     H49221   3.115   2.466  10.420 -1.2863 -3.6736 -0.3002
  373MOL0     H49222   3.721   0.899   9.831  0.6139  0.3219 -1.1474
  373MOL0     H49223   3.798   0.824   9.623  1.2599  2.1454 -1.4467
  373MOL0     H49224   3.929   0.490   9.318  0.2309 -1.3714 -1.0626
  373MOL0     H49225   4.074   0.509   9.146 -0.6837 -1.5247  0.8796
  373MOL0     H49226   4.093   0.492   8.907 -2.1605  0.9682 -2.9081
  373MOL0     H49227   4.239   0.600   8.948  0.9524  2.0222 -0.1724
  373MOL0     H49228   4.228   0.702   8.748 -0.5691  2.7979  3.5618
  373MOL0     H49229   4.229   0.526   8.708 -2.6495 -0.6794 -1.6603
  373MOL0     H49230   4.073   0.647   8.564  1.7369 -0.2290  0.3512
  373MOL0     H49231   3.983   0.705   8.700  3.2767  1.9124  1.6796
  373MOL0     H49232   3.924   0.451   8.750  2.7352 -0.2371  0.3978
  373MOL0     H49233   3.873   0.499   8.591 -1.1868 -3.9282 -0.0545
  373MOL0     H49234   4.166   0.217   8.504 -0.4489  1.0218 -1.6883
  373MOL0     H49235   3.881   0.852   8.986  3.1979 -0.3477 -0.9727
  373MOL0     H49236   3.721   0.848   9.190  1.6939  0.6724  2.2880
  374MOL0     O49237   9.277   7.605  11.204  0.1024  0.1935  0.0288
  374MOL0     C49238   9.251   7.717  11.202  0.1068 -0.2424  0.2979
  374MOL0     O49239   9.326   7.825  11.232 -0.0948  0.5980 -0.3702
  374MOL0     C49240   9.465   7.825  11.248 -0.6868  0.6789 -0.2389
  374MOL0     C49241   9.535   7.870  11.358 -0.3274 -0.2178 -0.0060
  374MOL0     C49242   9.678   7.877  11.364  0.5275 -0.4939 -0.8186
  374MOL0     C49243   9.755   7.841  11.252  0.1759 -0.3321  0.0808
  374MOL0     O49244   9.888   7.835  11.246  0.7224 -0.0371  0.9594
  374MOL0     C49245   9.956   7.955  11.299  0.1965  0.4655 -1.2351
  374MOL0     C49246  10.023   7.918  11.437  0.6531 -0.4842 -0.1837
  374MOL0     C49247  10.122   7.799  11.431 -0.0748  0.0848 -0.1323
  374MOL0     C49248  10.239   7.820  11.339  0.4390  0.3610 -0.7190
  374MOL0     C49249  10.304   7.961  11.364  0.0821 -1.5630  0.3002
  374MOL0     C49250  10.411   7.994  11.273 -1.0140 -0.9201 -0.0021
  374MOL0     C49251  10.501   8.107  11.327  0.1911 -0.4356  0.5367
  374MOL0     C49252  10.605   8.147  11.214 -0.6803 -0.3060 -0.3487
  374MOL0     N49253  10.718   8.047  11.210  0.2151  0.3059  0.8439
  374MOL0     C49254  10.814   8.035  11.294  0.1647  0.2976 -0.1780
  374MOL0     C49255  10.876   7.918  11.273  0.1413 -0.0336 -0.2391
  374MOL0     C49256  10.974   7.862  11.355  0.9567  0.0024 -0.4568
  374MOL0     C49257  11.115   7.902  11.303  0.5911 -0.4056 -0.9394
  374MOL0     C49258  11.174   8.029  11.367 -0.5521  0.0545  0.2438
  374MOL0     C49259  11.314   8.078  11.319 -0.6841 -0.5245 -0.5564
  374MOL0     O49260  11.352   8.183  11.413 -0.3874 -0.2307 -0.2262
  374MOL0     C49261  11.457   8.166  11.496 -0.9937 -0.4513 -0.0093
  374MOL0     C49262  11.491   8.290  11.550  0.2589  0.6097  0.3643
  374MOL0     C49263  11.595   8.308  11.641 -0.6885 -0.1577 -0.4049
  374MOL0     C49264  11.674   8.198  11.687 -0.0324 -0.6401  0.0251
  374MOL0     C49265  11.782   8.217  11.791 -0.6234  0.3819  0.0186
  374MOL0     O49266  11.828   8.341  11.798 -0.2208 -0.1749  0.1263
  374MOL0     C49267  11.933   8.382  11.875  0.7017  0.4612  0.2496
  374MOL0     C49268  12.019   8.303  11.957  0.7090 -0.0513 -0.4429
  374MOL0     C49269  12.129   8.355  12.022 -0.7332  0.3882  0.7657
  374MOL0     C49270  12.155   8.489  12.000 -0.6323  0.0935  1.1393
  374MOL0     O49271  12.251   8.545  12.069 -1.0656 -0.0618 -0.0712
  374MOL0     C49272  12.363   8.601  11.996  0.5288 -0.1470  0.5272
  374MOL0     C49273  12.477   8.628  12.089  0.3365 -0.5260  0.6091
  374MOL0     C49274  12.529   8.507  12.169  0.0907  0.4628 -0.6044
  374MOL0     C49275  12.581   8.555  12.307 -0.1153  0.8077 -0.4761
  374MOL0     C49276  12.612   8.433  12.397  0.3563 -0.1630 -1.1537
  374MOL0     C49277  12.486   8.396  12.479 -0.9020 -0.7229 -0.5899
  374MOL0     C49278  12.507   8.261  12.554  0.1743  0.6596 -0.2052
  374MOL0     C49279  12.378   8.193  12.586  0.0085 -0.0843  0.1671
  374MOL0    Cl49280  12.403   8.056  12.694 -0.2270  0.1620 -0.3009
  374MOL0     C49281  12.085   8.577  11.907 -0.0764  0.1082  0.3853
  374MOL0     C49282  11.968   8.518  11.845 -0.1041  0.3630  0.2531
  374MOL0     O49283  11.823   8.119  11.857 -0.6630 -0.3775 -0.7360
  374MOL0     C49284  11.631   8.075  11.639 -0.2858 -0.0087 -0.1370
  374MOL0     C49285  11.525   8.056  11.547  0.7911  0.0434  0.3224
  374MOL0     N49286  10.819   7.862  11.160  0.2515 -0.9031 -0.2309
  374MOL0     N49287  10.715   7.941  11.123 -0.0467 -0.1508 -0.3651
  374MOL0     C49288   9.683   7.799  11.138  0.6000 -0.5600  1.2881
  374MOL0     C49289   9.546   7.804  11.125  0.0819 -0.2417 -1.0146
  374MOL0     C49290   9.129   7.759  11.124 -0.6339  0.4634 -0.2358
  374MOL0     C49291   9.025   7.671  11.097  1.3344 -0.1348  0.8055
  374MOL0     C49292   8.898   7.716  11.035 -0.6099  0.7039  0.1811
  374MOL0     C49293   8.881   7.848  10.990  0.1665 -0.6579  1.1229
  374MOL0     O49294   8.769   7.886  10.925  0.5079  0.1810  0.1708
  374MOL0     C49295   8.716   7.823  10.817  0.3567 -0.1354  0.4959
  374MOL0     C49296   8.787   7.863  10.696 -1.4431  0.3367 -0.2486
  374MOL0     C49297   8.742   7.792  10.577  0.3061  0.0479 -0.1223
  374MOL0     C49298   8.845   7.791  10.462 -0.5607  0.1228  0.0460
  374MOL0     C49299   8.856   7.932  10.402 -0.0911  0.3943  0.6750
  374MOL0     C49300   8.859   8.043  10.354  0.3098  0.2389 -0.5827
  374MOL0     C49301   8.986   7.935  11.008  0.6561 -0.1728 -0.0060
  374MOL0     C49302   9.107   7.894  11.081  0.8110  0.5563  0.2122
  374MOL0     H49303   9.487   7.890  11.453  0.0728  2.6531 -0.3125
  374MOL0     H49304   9.724   7.901  11.459  1.2166  2.8553 -1.8525
  374MOL0     H49305   9.882   8.033  11.318 -1.8603 -1.6681 -0.0093
  374MOL0     H49306  10.035   8.003  11.241  1.0203  1.8336  0.8988
  374MOL0     H49307   9.946   7.879  11.504 -1.4747 -1.5759 -3.0653
  374MOL0     H49308  10.071   7.998  11.495  1.6365 -1.6413  0.6296
  374MOL0     H49309  10.066   7.710  11.399 -2.7895  2.1881 -1.6398
  374MOL0     H49310  10.158   7.783  11.533  2.4868  1.2447 -0.7838
  374MOL0     H49311  10.306   7.734  11.340  0.6142  0.4983 -0.0055
  374MOL0     H49312  10.188   7.810  11.242 -0.2674 -2.8465 -0.1440
  374MOL0     H49313  10.342   7.951  11.466 -3.7200 -1.6432  1.8575
  374MOL0     H49314  10.232   8.043  11.358  3.3514  1.4622 -3.5376
  374MOL0     H49315  10.373   8.019  11.174 -2.2676 -2.8181 -0.0623
  374MOL0     H49316  10.469   7.903  11.256  1.3130  0.2454  1.1982
  374MOL0     H49317  10.449   8.198  11.358 -0.7609 -1.5825  2.6191
  374MOL0     H49318  10.550   8.075  11.420  0.0836  0.8503  1.0566
  374MOL0     H49319  10.637   8.245  11.253 -5.5664  1.5850 -0.3865
  374MOL0     H49320  10.554   8.153  11.118 -0.8979 -4.2133 -0.6139
  374MOL0     H49321  10.832   8.109  11.372 -0.5282 -2.5153  2.8931
  374MOL0     H49322  10.955   7.755  11.366 -0.6754  0.2720 -0.4084
  374MOL0     H49323  10.959   7.903  11.455  1.8858 -2.5513  0.8179
  374MOL0     H49324  11.110   7.919  11.195 -0.3263 -0.4534 -0.9116
  374MOL0     H49325  11.167   7.806  11.313 -1.9059 -2.6339 -6.1067
  374MOL0     H49326  11.109   8.112  11.338  2.5000  1.7028 -2.7121
  374MOL0     H49327  11.177   8.033  11.476 -0.3659  3.4276  0.2232
  374MOL0     H49328  11.311   8.113  11.215 -0.2517  3.2250  0.5350
  374MOL0     H49329  11.371   7.985  11.328 -0.8923 -0.8702 -2.3841
  374MOL0     H49330  11.430   8.377  11.529  0.6261  1.3675  2.2171
  374MOL0     H49331  11.615   8.407  11.680 -2.2853  0.2708 -0.5922
  374MOL0     H49332  12.001   8.197  11.976 -0.3577  0.0639 -0.7270
  374MOL0     H49333  12.188   8.294  12.090 -0.4648  0.8506  0.9516
  374MOL0     H49334  12.342   8.699  11.951 -4.4833 -0.3340  1.8500
  374MOL0     H49335  12.408   8.530  11.926  1.0938 -1.3570  2.0532
  374MOL0     H49336  12.436   8.697  12.163  2.1293  0.3150  0.8954
  374MOL0     H49337  12.561   8.675  12.037  2.3803 -0.3895  3.7207
  374MOL0     H49338  12.596   8.432  12.125 -0.9362 -1.6706  1.2262
  374MOL0     H49339  12.451   8.431  12.182  4.2757 -3.8318  3.3378
  374MOL0     H49340  12.668   8.621  12.301 -0.9952  2.5670  3.2276
  374MOL0     H49341  12.503   8.616  12.353 -1.7029 -1.2116 -0.3555
  374MOL0     H49342  12.691   8.452  12.470 -3.0548  1.5538  2.4496
  374MOL0     H49343  12.648   8.346  12.341  0.8130 -1.5641  1.1740
  374MOL0     H49344  12.388   8.393  12.431 -0.8876  0.5923 -0.7439
  374MOL0     H49345  12.491   8.477  12.553  1.0960 -0.1631 -1.2633
  374MOL0     H49346  12.563   8.198  12.485 -0.3587 -0.4448  0.3434
  374MOL0     H49347  12.555   8.273  12.651 -1.4613 -1.2322  0.8905
  374MOL0     H49348  12.318   8.162  12.500  0.8878 -0.6413 -0.2629
  374MOL0     H49349  12.313   8.270  12.629  1.0787  1.4616 -0.8776
  374MOL0     H49350  12.122   8.676  11.885 -1.7164  0.4432 -1.1215
  374MOL0     H49351  11.895   8.572  11.785  0.8882  2.6195  0.9680
  374MOL0     H49352  11.691   7.987  11.662 -1.0810 -0.2476  1.1428
  374MOL0     H49353  11.483   7.957  11.529 -1.1215  1.0153 -1.0711
  374MOL0     H49354   9.746   7.768  11.056  0.0367 -1.3813  1.1536
  374MOL0     H49355   9.502   7.788  11.028  2.1210 -2.8649 -1.6527
  374MOL0     H49356   9.025   7.566  11.125 -3.4081  0.0301  2.1865
  374MOL0     H49357   8.812   7.655  11.013 -0.0366  0.4485 -1.5326
  374MOL0     H49358   8.608   7.843  10.811  0.3700 -0.3817 -1.4004
  374MOL0     H49359   8.720   7.715  10.835 -3.4199 -0.7873 -1.4419
  374MOL0     H49360   8.776   7.971  10.681  3.2262  1.0294 -0.4513
  374MOL0     H49361   8.891   7.834  10.714 -0.5807  0.2641 -4.3439
  374MOL0     H49362   8.660   7.848  10.530  0.6523  1.1909  0.6029
  374MOL0     H49363   8.687   7.701  10.604 -2.6579  2.2220  1.8658
  374MOL0     H49364   8.947   7.763  10.490 -0.2294  0.9386 -0.3001
  374MOL0     H49365   8.814   7.712  10.392  2.8087  0.1609 -1.6910
  374MOL0     H49366   8.858   8.149  10.340  0.6532  0.7589  2.5898
  374MOL0     H49367   8.972   8.038  10.977 -2.9525  0.3399  2.6811
  374MOL0     H49368   9.182   7.972  11.090  1.2181  0.0314  1.5814
  375MOL0     O49369   9.062   5.729  10.226  1.0808 -0.6086  0.1287
  375MOL0     C49370   9.075   5.606  10.210 -1.0000  0.1111 -0.7033
  375MOL0     O49371   9.173   5.542  10.143 -0.1491  0.4467  0.3883
  375MOL0     C49372   9.286   5.610  10.121 -0.1425 -0.7557 -0.3197
  375MOL0     C49373   9.383   5.615  10.217  0.7018 -0.5136  1.1676
  375MOL0     C49374   9.484   5.712  10.216  0.0384  0.5269  0.7330
  375MOL0     C49375   9.495   5.790  10.096 -0.1300  0.3497 -0.2872
  375MOL0     O49376   9.603   5.870  10.097 -0.4672 -0.5449 -0.6220
  375MOL0     C49377   9.668   5.923   9.975  0.1245 -0.5959 -0.0041
  375MOL0     C49378   9.784   6.005  10.001  0.5778  0.0001  0.9005
  375MOL0     C49379   9.751   6.158   9.993 -0.2266  0.4854  0.2103
  375MOL0     C49380   9.724   6.194  10.138  0.4171 -0.9084 -0.6368
  375MOL0     C49381   9.709   6.343  10.161  0.7952 -0.6539  0.6516
  375MOL0     C49382   9.559   6.374  10.131 -0.4376 -0.3978 -0.4197
  375MOL0     C49383   9.521   6.520  10.173 -0.7221  0.0256 -0.4522
  375MOL0     C49384   9.522   6.593  10.033 -0.3104  0.2726 -0.0292
  375MOL0     N49385   9.505   6.726  10.072  0.2410 -0.3720  0.1076
  375MOL0     C49386   9.393   6.782  10.134  0.4694 -0.0059 -0.0911
  375MOL0     C49387   9.400   6.913  10.109 -1.3149 -0.7272 -1.0078
  375MOL0     C49388   9.313   7.021  10.166 -0.4488 -0.4185  0.3570
  375MOL0     C49389   9.160   7.039  10.127  0.3841  0.4043  0.5804
  375MOL0     C49390   9.080   6.923  10.159  0.0370 -0.3623 -0.4278
  375MOL0     C49391   9.059   6.893  10.310  0.5143  0.0557  0.5867
  375MOL0     O49392   9.000   6.760  10.314 -0.6303 -0.5573  0.9446
  375MOL0     C49393   8.870   6.764  10.345  0.1046  1.0132 -0.1308
  375MOL0     C49394   8.837   6.807  10.479 -0.9961  1.0232  0.0383
  375MOL0     C49395   8.698   6.807  10.508  0.1549 -0.4461 -0.3088
  375MOL0     C49396   8.602   6.758  10.422 -0.5725 -0.2811  0.6799
  375MOL0     C49397   8.467   6.735  10.465 -0.1223  0.4501 -0.2615
  375MOL0     O49398   8.434   6.781  10.584 -0.1558 -0.0056 -0.0114
  375MOL0     C49399   8.319   6.745  10.644  0.4907 -0.1796  0.1223
  375MOL0     C49400   8.327   6.698  10.776 -0.0056 -0.0569  1.0263
  375MOL0     C49401   8.213   6.682  10.853 -1.0437 -1.1726  0.6899
  375MOL0     C49402   8.092   6.701  10.800 -0.2702  0.3711  0.3736
  375MOL0     O49403   7.987   6.701  10.891 -0.0541  0.1935  0.4052
  375MOL0     C49404   7.941   6.581  10.938 -0.1193  0.9176  0.0819
  375MOL0     C49405   7.974   6.576  11.084 -0.4372  0.4187 -0.8455
  375MOL0     C49406   7.851   6.599  11.175  0.3277 -0.7844  1.0425
  375MOL0     C49407   7.786   6.469  11.234 -0.2554 -0.1352 -0.8914
  375MOL0     C49408   7.668   6.509  11.321  0.3231 -0.1490 -0.5878
  375MOL0     C49409   7.635   6.399  11.426 -0.3854  0.8745  0.1110
  375MOL0     C49410   7.598   6.263  11.376 -0.2769 -0.2670  0.1156
  375MOL0     C49411   7.454   6.258  11.311 -1.2958 -1.2023 -0.5597
  375MOL0    Cl49412   7.398   6.092  11.282 -0.0632  0.0102 -0.2858
  375MOL0     C49413   8.068   6.739  10.664  0.3806  0.2618  0.0660
  375MOL0     C49414   8.185   6.764  10.584 -0.3896 -0.1521  0.2650
  375MOL0     O49415   8.397   6.660  10.401  0.0192 -0.3759 -0.3695
  375MOL0     C49416   8.643   6.718  10.291 -0.1185 -0.0821  0.3382
  375MOL0     C49417   8.777   6.722  10.249  1.0513  0.3397 -0.0932
  375MOL0     N49418   9.520   6.944  10.044  0.2860 -0.7311  0.2547
  375MOL0     N49419   9.581   6.829  10.032 -0.5909  0.5783  1.0261
  375MOL0     C49420   9.411   5.778   9.986  0.5222  0.5956 -0.8766
  375MOL0     C49421   9.308   5.681  10.000 -0.2336  0.2403 -0.8146
  375MOL0     C49422   8.998   5.527  10.300  0.8650  0.0812 -0.3398
  375MOL0     C49423   8.915   5.585  10.399  0.6826 -0.6036 -0.0570
  375MOL0     C49424   8.831   5.508  10.485  0.9149  0.1876  0.1728
  375MOL0     C49425   8.821   5.369  10.455  0.7913 -0.9341 -0.0809
  375MOL0     O49426   8.724   5.300  10.522  0.5606 -0.5929 -0.1853
  375MOL0     C49427   8.707   5.159  10.503 -0.4801 -0.1733 -1.0962
  375MOL0     C49428   8.807   5.072  10.579 -0.2577  0.0352  0.6070
  375MOL0     C49429   8.773   4.922  10.584  0.4480  0.7831 -0.5417
  375MOL0     C49430   8.866   4.830  10.660  0.1689 -0.2680 -0.7069
  375MOL0     C49431   8.829   4.687  10.651 -0.2194 -0.4981  0.5726
  375MOL0     C49432   8.779   4.580  10.631 -0.1444  0.0090  0.6840
  375MOL0     C49433   8.893   5.319  10.357 -0.5798  0.0233  0.8340
  375MOL0     C49434   8.985   5.391  10.284 -0.4533  0.3710 -0.2875
  375MOL0     H49435   9.374   5.555  10.307  0.4264 -0.0337  1.4620
  375MOL0     H49436   9.547   5.728  10.303 -1.0079  3.8820  1.0040
  375MOL0     H49437   9.589   5.988   9.938 -0.0828  0.6408  2.3858
  375MOL0     H49438   9.688   5.839   9.908 -2.1554 -3.0281  2.1046
  375MOL0     H49439   9.853   5.968   9.924  0.5454 -0.9287  1.3062
  375MOL0     H49440   9.829   5.965  10.092  1.4865  2.9401  1.8768
  375MOL0     H49441   9.657   6.174   9.938 -0.5148 -2.3816 -0.2467
  375MOL0     H49442   9.837   6.208   9.948 -0.2537 -0.1421 -0.5426
  375MOL0     H49443   9.637   6.134  10.165  0.8475 -0.1946  2.8017
  375MOL0     H49444   9.805   6.166  10.206 -1.2050 -1.1154  1.2727
  375MOL0     H49445   9.765   6.392  10.080  0.8155  0.2917  1.2273
  375MOL0     H49446   9.756   6.385  10.250  0.7689  1.3225 -0.2054
  375MOL0     H49447   9.497   6.315  10.199 -0.3784 -2.4124 -1.9916
  375MOL0     H49448   9.529   6.340  10.031  1.3356 -2.7007 -0.2631
  375MOL0     H49449   9.420   6.517  10.213 -0.6558 -5.2972  0.0516
  375MOL0     H49450   9.584   6.562  10.252  0.2292 -2.2386  0.0855
  375MOL0     H49451   9.436   6.550   9.982 -0.9747  0.8741  0.5649
  375MOL0     H49452   9.612   6.568   9.976  1.3003  2.5167  1.3713
  375MOL0     H49453   9.312   6.744  10.196 -0.8187  0.5949 -1.3243
  375MOL0     H49454   9.369   7.098  10.113  1.6559 -1.5768  0.7666
  375MOL0     H49455   9.325   7.043  10.272  0.2319  3.2169 -0.3636
  375MOL0     H49456   9.156   7.061  10.020  1.2839  1.3467  0.7218
  375MOL0     H49457   9.108   7.126  10.168  1.1318  1.2179 -0.1345
  375MOL0     H49458   8.979   6.928  10.118  0.3275  2.8128 -0.9806
  375MOL0     H49459   9.127   6.838  10.108  0.9314 -1.2977  1.7893
  375MOL0     H49460   8.993   6.967  10.356 -1.6998 -1.5761  0.1549
  375MOL0     H49461   9.152   6.882  10.366  2.1004  0.1203 -1.8637
  375MOL0     H49462   8.908   6.854  10.547 -1.5158  2.9050 -0.6714
  375MOL0     H49463   8.664   6.849  10.603  0.6069 -0.8759  0.0456
  375MOL0     H49464   8.427   6.692  10.817 -0.1203 -1.0684  1.1872
  375MOL0     H49465   8.233   6.674  10.959  2.5979  2.5740  0.5659
  375MOL0     H49466   7.980   6.496  10.882 -1.0114  0.2243  0.4946
  375MOL0     H49467   7.835   6.581  10.909 -0.0865 -0.0595 -0.0617
  375MOL0     H49468   8.043   6.660  11.101  3.2480 -0.8955 -6.5875
  375MOL0     H49469   8.041   6.493  11.107 -0.6792  0.0018 -1.5978
  375MOL0     H49470   7.774   6.657  11.124 -0.3493 -0.3943  2.4473
  375MOL0     H49471   7.879   6.664  11.259 -0.7578  0.9134  0.1417
  375MOL0     H49472   7.751   6.404  11.153 -0.3893 -1.8333  0.4743
  375MOL0     H49473   7.856   6.427  11.307 -2.1182  1.0589  1.7373
  375MOL0     H49474   7.574   6.537  11.272  0.0270  0.6553  0.3804
  375MOL0     H49475   7.687   6.596  11.385 -0.5695  0.4830 -1.1625
  375MOL0     H49476   7.545   6.434  11.476 -0.5494 -2.7112  2.6860
  375MOL0     H49477   7.705   6.399  11.510 -0.8106  2.0387  0.4898
  375MOL0     H49478   7.672   6.231  11.302  0.3662  0.5917  0.3646
  375MOL0     H49479   7.595   6.188  11.455 -3.0372  0.6192  0.9813
  375MOL0     H49480   7.444   6.296  11.209  1.1184 -1.2715 -0.8720
  375MOL0     H49481   7.387   6.317  11.373 -0.8344 -0.3150 -0.8860
  375MOL0     H49482   7.969   6.765  10.626  0.0053  2.1083  2.1495
  375MOL0     H49483   8.194   6.823  10.494  0.5781  1.5495  1.4100
  375MOL0     H49484   8.566   6.682  10.223  0.6891  1.9595 -1.7896
  375MOL0     H49485   8.788   6.685  10.147 -2.0384 -2.2508  0.3464
  375MOL0     H49486   9.417   5.836   9.895 -0.9278  0.5528 -1.0250
  375MOL0     H49487   9.262   5.642   9.911  1.3589  0.2232 -1.6732
  375MOL0     H49488   8.919   5.693  10.404  1.2619 -0.6030 -0.4347
  375MOL0     H49489   8.771   5.542  10.569 -0.3333  0.3437 -0.7456
  375MOL0     H49490   8.699   5.117  10.403 -0.4170 -0.0409 -1.1566
  375MOL0     H49491   8.610   5.138  10.549 -1.3442  0.5013 -2.5364
  375MOL0     H49492   8.914   5.079  10.556 -0.3160 -1.3669 -0.1700
  375MOL0     H49493   8.791   5.101  10.684 -3.0694  4.3613 -0.7634
  375MOL0     H49494   8.764   4.877  10.485 -2.0710 -1.7919  0.7029
  375MOL0     H49495   8.669   4.904  10.613 -0.5390  1.0248 -3.6220
  375MOL0     H49496   8.968   4.836  10.620  1.4386 -4.2771  1.3656
  375MOL0     H49497   8.841   4.853  10.764 -1.2094  1.8865 -1.4589
  375MOL0     H49498   8.737   4.481  10.632 -0.2555 -0.0230 -1.6399
  375MOL0     H49499   8.888   5.211  10.347  0.8661 -0.2499  2.5178
  375MOL0     H49500   9.049   5.346  10.209  0.2284 -0.7795  0.9569
  376MOL0     O49501  10.765   2.499  10.455 -0.7614  0.0951 -0.6668
  376MOL0     C49502  10.789   2.411  10.380 -0.0989 -0.0141 -0.5344
  376MOL0     O49503  10.782   2.424  10.248 -0.8433 -0.0950 -0.6806
  376MOL0     C49504  10.712   2.522  10.183 -0.2978  1.2279  0.3617
  376MOL0     C49505  10.775   2.608  10.090  0.0331 -0.0872  0.4231
  376MOL0     C49506  10.700   2.708  10.030 -0.9540  0.2805  1.4645
  376MOL0     C49507  10.561   2.720  10.048 -1.2149 -0.1048  0.3260
  376MOL0     O49508  10.482   2.817   9.984 -0.1846 -0.9016 -0.6202
  376MOL0     C49509  10.526   2.882   9.856 -0.3319  1.0693  0.1342
  376MOL0     C49510  10.408   2.959   9.803  0.2893 -0.2303  0.7274
  376MOL0     C49511  10.443   3.036   9.676 -0.3575  0.8798  0.4989
  376MOL0     C49512  10.328   3.134   9.643  0.4694  0.6057 -0.3361
  376MOL0     C49513  10.329   3.194   9.504 -0.3276  0.5996 -0.1521
  376MOL0     C49514  10.237   3.317   9.496  0.5706 -0.1784  0.0010
  376MOL0     C49515  10.281   3.403   9.386  0.3141 -1.3971 -0.0303
  376MOL0     C49516  10.209   3.541   9.388 -0.1120  1.0623  0.7829
  376MOL0     N49517  10.225   3.590   9.253 -0.9346 -0.0917  0.5736
  376MOL0     C49518  10.332   3.575   9.169 -0.7537 -0.7448  0.7810
  376MOL0     C49519  10.298   3.636   9.055  0.1000  0.7262 -0.2733
  376MOL0     C49520  10.382   3.641   8.927  0.4392  0.7045 -1.1209
  376MOL0     C49521  10.364   3.514   8.849 -0.6490  0.5924 -0.6482
  376MOL0     C49522  10.460   3.402   8.898 -0.3703  0.2607  0.4963
  376MOL0     C49523  10.445   3.278   8.810  0.5577  0.2382  0.1015
  376MOL0     O49524  10.534   3.185   8.880 -0.4072 -0.1606 -0.9145
  376MOL0     C49525  10.478   3.099   8.969  0.2539  0.1253  0.2640
  376MOL0     C49526  10.573   3.017   9.021 -0.8280  1.5889 -0.4802
  376MOL0     C49527  10.541   2.916   9.114 -0.6911 -0.1719  0.2952
  376MOL0     C49528  10.414   2.917   9.169  0.2540  0.1091 -0.1357
  376MOL0     C49529  10.372   2.823   9.283 -0.2017  0.3480  1.2494
  376MOL0     O49530  10.465   2.744   9.326 -0.8867 -0.1299  0.1817
  376MOL0     C49531  10.455   2.647   9.415  0.9985 -0.0468 -0.4979
  376MOL0     C49532  10.396   2.658   9.546 -0.1329  0.2448  0.2801
  376MOL0     C49533  10.388   2.543   9.628  0.1864  0.7289 -0.4727
  376MOL0     C49534  10.420   2.418   9.590  0.4080 -0.3251 -0.6894
  376MOL0     O49535  10.408   2.317   9.680  0.6714 -0.2143  0.5435
  376MOL0     C49536  10.286   2.250   9.661 -0.3313 -0.2273 -0.5561
  376MOL0     C49537  10.305   2.115   9.719 -0.0883 -0.4619  0.7713
  376MOL0     C49538  10.173   2.034   9.692  0.5156  0.6329  1.3876
  376MOL0     C49539  10.201   1.885   9.700  0.4109 -0.4696  0.3939
  376MOL0     C49540  10.082   1.779   9.698 -0.5342  0.4278  0.1537
  376MOL0     C49541  10.127   1.635   9.678  0.2380 -0.2840 -0.4648
  376MOL0     C49542  10.248   1.592   9.772 -0.7551 -0.0528  0.1934
  376MOL0     C49543  10.196   1.600   9.925  0.6678 -0.4811 -0.1260
  376MOL0    Cl49544  10.063   1.487   9.961  0.4764  0.1731  1.1368
  376MOL0     C49545  10.459   2.408   9.454 -0.3902 -0.1364 -0.1308
  376MOL0     C49546  10.494   2.520   9.373 -0.4995  0.3480 -1.1173
  376MOL0     O49547  10.250   2.813   9.322  0.3475  0.1414 -0.1120
  376MOL0     C49548  10.313   3.010   9.125  0.3560 -0.3310  0.6750
  376MOL0     C49549  10.353   3.107   9.032  0.4907  0.6186 -0.2513
  376MOL0     N49550  10.169   3.688   9.078  0.5130  0.1924 -0.5242
  376MOL0     N49551  10.130   3.670   9.197  0.5103  0.8113  0.2895
  376MOL0     C49552  10.505   2.629  10.138 -0.6190 -0.0002 -0.4622
  376MOL0     C49553  10.580   2.540  10.210  0.5851 -0.2903 -0.0253
  376MOL0     C49554  10.833   2.284  10.444 -0.1855 -0.0166 -0.4096
  376MOL0     C49555  10.748   2.180  10.463  0.2901 -1.0980 -0.2066
  376MOL0     C49556  10.778   2.057  10.513  0.2501  0.8991 -0.7731
  376MOL0     C49557  10.914   2.038  10.541  0.0171  0.1380 -0.3642
  376MOL0     O49558  10.948   1.920  10.596  0.1704  0.0239 -0.3765
  376MOL0     C49559  11.084   1.899  10.646  0.3574 -0.2067 -0.4803
  376MOL0     C49560  11.087   1.763  10.709  0.5118  0.4315 -0.5422
  376MOL0     C49561  11.232   1.757  10.766  0.8837 -0.0533 -0.1435
  376MOL0     C49562  11.238   1.642  10.868 -0.8019  0.4392 -0.4032
  376MOL0     C49563  11.161   1.664  10.999  0.2921 -0.2049  0.4851
  376MOL0     C49564  11.095   1.663  11.105 -0.0777  0.2923 -0.3323
  376MOL0     C49565  11.006   2.137  10.528  1.0997 -0.1692 -0.4407
  376MOL0     C49566  10.965   2.263  10.478 -0.6683 -0.2021 -0.1803
  376MOL0     H49567  10.880   2.583  10.079 -0.2624 -2.9426  2.7553
  376MOL0     H49568  10.753   2.766   9.955 -2.9036 -0.7080 -0.8234
  376MOL0     H49569  10.570   2.811   9.785 -2.0394  0.1162 -0.0313
  376MOL0     H49570  10.607   2.951   9.884 -0.4971  0.8656  1.1569
  376MOL0     H49571  10.368   3.017   9.887 -0.6833 -0.8006  0.6561
  376MOL0     H49572  10.333   2.884   9.780 -1.3523  1.4429  0.3877
  376MOL0     H49573  10.458   2.956   9.602 -0.1874 -0.3993  1.8714
  376MOL0     H49574  10.533   3.097   9.688  0.2749 -0.0892  0.8000
  376MOL0     H49575  10.229   3.092   9.661  1.9576 -3.0108  0.5006
  376MOL0     H49576  10.332   3.229   9.696 -2.9605  2.2610 -2.7446
  376MOL0     H49577  10.291   3.122   9.431 -2.3924 -1.1328  2.4409
  376MOL0     H49578  10.432   3.218   9.476  0.3536 -1.2497  0.5978
  376MOL0     H49579  10.259   3.379   9.584 -1.7656  1.8007 -0.6998
  376MOL0     H49580  10.134   3.282   9.489  1.2395 -2.1222 -0.9420
  376MOL0     H49581  10.389   3.416   9.382  0.1071  0.5182 -0.5081
  376MOL0     H49582  10.252   3.343   9.299 -1.7537  0.6371 -0.8527
  376MOL0     H49583  10.261   3.608   9.456  0.0126  1.5109  0.2546
  376MOL0     H49584  10.103   3.528   9.412 -1.2278 -0.4200 -3.8355
  376MOL0     H49585  10.435   3.540   9.177  1.0095  1.9981 -4.6808
  376MOL0     H49586  10.485   3.666   8.953 -0.3133  0.9018  2.0792
  376MOL0     H49587  10.335   3.718   8.865  2.2714  0.6722 -2.6671
  376MOL0     H49588  10.389   3.540   8.746  2.4312  1.8916  0.2999
  376MOL0     H49589  10.262   3.477   8.865  0.6269 -1.7918  3.6951
  376MOL0     H49590  10.566   3.427   8.895  0.8487 -4.0837  0.1122
  376MOL0     H49591  10.445   3.373   9.003 -0.4991 -3.1717 -0.3680
  376MOL0     H49592  10.479   3.297   8.708 -0.1684 -1.1600 -0.4241
  376MOL0     H49593  10.340   3.248   8.808  0.3969  0.7943 -1.8089
  376MOL0     H49594  10.676   3.012   8.989 -0.5108 -2.7680  0.5689
  376MOL0     H49595  10.621   2.845   9.133 -0.9282 -0.9537 -1.4000
  376MOL0     H49596  10.358   2.755   9.575 -1.9045 -0.3865  0.1955
  376MOL0     H49597  10.347   2.538   9.729 -0.9075  0.7489 -0.9034
  376MOL0     H49598  10.247   2.243   9.559 -0.6830 -0.7036 -0.3946
  376MOL0     H49599  10.212   2.307   9.718  2.0426  1.4518  1.0176
  376MOL0     H49600  10.335   2.118   9.824  1.8222  1.5948  0.2672
  376MOL0     H49601  10.387   2.065   9.666  1.2076  1.4018  0.9301
  376MOL0     H49602  10.128   2.050   9.593 -1.2030  0.9503  2.1710
  376MOL0     H49603  10.094   2.064   9.762 -1.0786 -0.9706  0.3764
  376MOL0     H49604  10.265   1.860   9.614 -0.7866 -1.6952 -0.1878
  376MOL0     H49605  10.260   1.865   9.790  1.9089 -3.0813 -1.0176
  376MOL0     H49606  10.026   1.800   9.606  0.4361  0.6473 -0.4005
  376MOL0     H49607  10.007   1.791   9.777 -1.5178 -0.9757 -0.5248
  376MOL0     H49608  10.155   1.625   9.573 -0.9140 -2.0927 -0.6437
  376MOL0     H49609  10.043   1.568   9.698  1.4411 -3.5621 -4.9895
  376MOL0     H49610  10.285   1.495   9.738  0.2868  0.0991  0.8269
  376MOL0     H49611  10.326   1.665   9.749 -0.7896 -0.6288 -1.9474
  376MOL0     H49612  10.156   1.695   9.960  1.1629 -0.7272  1.2031
  376MOL0     H49613  10.289   1.574   9.977  0.2575  0.7176  1.2874
  376MOL0     H49614  10.485   2.314   9.408  0.4007  0.4159 -0.8527
  376MOL0     H49615  10.515   2.506   9.268 -0.7298  0.6893 -1.2112
  376MOL0     H49616  10.211   3.009   9.162  0.0751 -0.8999 -0.0973
  376MOL0     H49617  10.290   3.174   8.975  2.4797  2.5486 -0.3006
  376MOL0     H49618  10.402   2.636  10.172  0.5755  0.8255  3.6018
  376MOL0     H49619  10.535   2.466  10.276  1.1375  0.7320  1.5462
  376MOL0     H49620  10.643   2.185  10.435  0.0095  2.0603  0.9971
  376MOL0     H49621  10.707   1.978  10.536  2.9156 -2.3886 -2.7555
  376MOL0     H49622  11.113   1.981  10.712 -1.1257  0.8867 -1.1171
  376MOL0     H49623  11.167   1.897  10.574  3.0203  0.6500  2.3633
  376MOL0     H49624  11.018   1.762  10.794  3.1846  0.6861  1.7809
  376MOL0     H49625  11.070   1.677  10.643 -0.3559 -1.0723  1.5350
  376MOL0     H49626  11.264   1.847  10.820  2.7822 -0.8413  0.0982
  376MOL0     H49627  11.301   1.736  10.683 -0.2251 -1.9908 -0.6415
  376MOL0     H49628  11.196   1.548  10.831  2.0610 -1.3356  0.5293
  376MOL0     H49629  11.341   1.629  10.902 -0.9262 -1.3712 -0.6287
  376MOL0     H49630  11.039   1.660  11.196 -3.8710  2.6208 -2.3171
  376MOL0     H49631  11.110   2.118  10.553  0.9368 -0.9941 -0.3370
  376MOL0     H49632  11.045   2.337  10.481  1.1910 -2.1391  2.3480
  377MOL0     O49633   8.911  10.719   4.176  0.2475  0.8378 -0.1950
  377MOL0     C49634   9.012  10.664   4.138 -1.3446 -0.5995  0.0067
  377MOL0     O49635   9.035  10.613   4.007  1.0532  0.1986  0.2156
  377MOL0     C49636   8.944  10.662   3.918  0.3265  0.3418  0.2522
  377MOL0     C49637   8.953  10.794   3.876 -0.2857  0.2619 -0.4597
  377MOL0     C49638   8.846  10.844   3.807 -0.5946  0.6533  0.5035
  377MOL0     C49639   8.727  10.770   3.779 -0.1437 -0.8804 -0.1463
  377MOL0     O49640   8.601  10.813   3.720 -1.3791 -0.0386 -0.5883
  377MOL0     C49641   8.599  10.925   3.624  0.7820  0.1913 -0.0069
  377MOL0     C49642   8.453  10.954   3.596  0.1990 -0.3473 -1.4444
  377MOL0     C49643   8.452  11.069   3.489  0.7711 -0.4891 -0.1428
  377MOL0     C49644   8.452  11.208   3.564  0.2972 -0.5651  0.2480
  377MOL0     C49645   8.418  11.316   3.458  0.1020 -0.3301  0.2114
  377MOL0     C49646   8.412  11.454   3.522 -0.0201 -0.1149  0.3434
  377MOL0     C49647   8.367  11.566   3.425 -0.8206  0.5582 -0.3411
  377MOL0     C49648   8.376  11.702   3.496 -0.1384 -0.6216 -0.8402
  377MOL0     N49649   8.300  11.809   3.428 -0.0140 -0.5505 -0.6555
  377MOL0     C49650   8.187  11.808   3.349 -0.6123  0.8803 -0.1969
  377MOL0     C49651   8.163  11.937   3.323 -1.5924 -0.4864 -0.2643
  377MOL0     C49652   8.044  11.990   3.238  0.3381  0.4323 -0.2101
  377MOL0     C49653   7.956  12.091   3.319  0.5757  0.3243  0.4054
  377MOL0     C49654   7.896  12.049   3.449 -0.3251 -0.2416 -0.2533
  377MOL0     C49655   7.800  11.929   3.431  0.2451 -0.3350 -0.6395
  377MOL0     O49656   7.736  11.904   3.557  0.7333  0.1229 -0.1043
  377MOL0     C49657   7.673  11.780   3.587  0.7688 -0.3009  0.0722
  377MOL0     C49658   7.682  11.744   3.725 -0.0688  0.3925  0.5112
  377MOL0     C49659   7.629  11.626   3.766 -0.7064 -0.0648  0.2454
  377MOL0     C49660   7.570  11.536   3.677 -0.2233  0.2733  0.3259
  377MOL0     C49661   7.505  11.419   3.736  0.0780 -0.3267  0.5597
  377MOL0     O49662   7.473  11.418   3.865 -0.1799 -0.8989  0.7070
  377MOL0     C49663   7.395  11.323   3.924  0.6606  0.2167  0.3381
  377MOL0     C49664   7.370  11.192   3.876 -0.5410 -1.1784  0.0866
  377MOL0     C49665   7.284  11.105   3.947 -0.0428  0.3786 -0.2713
  377MOL0     C49666   7.222  11.157   4.060  0.2591 -0.2012  0.1935
  377MOL0     O49667   7.127  11.083   4.135  0.3796  0.5329  0.3215
  377MOL0     C49668   7.041  10.977   4.085 -0.2247  1.0271 -1.3247
  377MOL0     C49669   6.943  11.025   3.969 -0.0145  0.1758  0.3140
  377MOL0     C49670   6.806  11.059   4.029 -0.2220 -0.1930 -0.5021
  377MOL0     C49671   6.718  11.125   3.924 -0.7895  0.2944 -0.9745
  377MOL0     C49672   6.600  11.199   3.977  0.3150  0.3360  0.7274
  377MOL0     C49673   6.495  11.248   3.867 -0.0303 -0.1626 -0.5867
  377MOL0     C49674   6.423  11.137   3.789  0.0576 -0.0895  0.2997
  377MOL0     C49675   6.328  11.180   3.685 -0.4332 -0.7047 -0.4285
  377MOL0    Cl49676   6.386  11.292   3.558  0.0105 -0.1195  0.4645
  377MOL0     C49677   7.250  11.283   4.111 -0.4542  0.9683  0.1645
  377MOL0     C49678   7.338  11.365   4.049 -0.6297 -0.0116  0.2945
  377MOL0     O49679   7.456  11.342   3.652 -0.2462 -0.1818  0.0892
  377MOL0     C49680   7.558  11.567   3.537  0.3204 -0.4397 -0.3724
  377MOL0     C49681   7.610  11.700   3.501  1.2646  0.6765 -0.9053
  377MOL0     N49682   8.258  12.019   3.380  0.3186  0.5180  0.4810
  377MOL0     N49683   8.331  11.940   3.451 -0.3514 -0.6485  0.2340
  377MOL0     C49684   8.720  10.638   3.837 -0.0665 -0.2676  0.9267
  377MOL0     C49685   8.833  10.587   3.900  0.4620  0.7080  0.8227
  377MOL0     C49686   9.100  10.634   4.252  0.1332  0.8644  0.5451
  377MOL0     C49687   9.215  10.541   4.235 -0.2359  0.1803 -0.0737
  377MOL0     C49688   9.296  10.507   4.344  0.0193 -0.0043  0.0151
  377MOL0     C49689   9.266  10.558   4.474  0.5316  1.0215  0.0545
  377MOL0     O49690   9.353  10.541   4.576 -1.0358  0.4801 -0.0136
  377MOL0     C49691   9.400  10.655   4.642  0.9858 -0.4250  0.4447
  377MOL0     C49692   9.543  10.644   4.687 -0.0397  0.3410 -1.3340
  377MOL0     C49693   9.645  10.631   4.574  0.7882  0.2646 -0.3834
  377MOL0     C49694   9.672  10.482   4.530  1.6043  0.4032  0.2516
  377MOL0     C49695   9.806  10.440   4.551  0.2793 -0.2591 -0.2213
  377MOL0     C49696   9.931  10.419   4.552 -0.1600 -0.0830  0.2152
  377MOL0     C49697   9.153  10.642   4.490 -0.2882  0.1757 -0.0412
  377MOL0     C49698   9.069  10.670   4.384 -0.4799  0.6076 -1.3885
  377MOL0     H49699   9.034  10.857   3.911 -1.6384  0.2089  3.3052
  377MOL0     H49700   8.858  10.948   3.781 -1.9528  0.7532  0.2120
  377MOL0     H49701   8.642  10.891   3.529  1.5610 -2.8523  1.3103
  377MOL0     H49702   8.645  11.019   3.656  0.4058  0.2610  0.3310
  377MOL0     H49703   8.405  10.999   3.683 -3.3425  2.1339 -4.3724
  377MOL0     H49704   8.399  10.863   3.567  0.2210 -0.4204 -1.2592
  377MOL0     H49705   8.359  11.057   3.434  1.6287 -0.1314 -1.7365
  377MOL0     H49706   8.526  11.054   3.410  0.8734  1.8018 -0.5369
  377MOL0     H49707   8.379  11.210   3.644 -0.2118 -0.0530 -0.2218
  377MOL0     H49708   8.556  11.229   3.591  0.0504 -1.1110  1.6876
  377MOL0     H49709   8.320  11.302   3.413  0.0933 -0.3921  0.2491
  377MOL0     H49710   8.488  11.318   3.373  1.3111  0.9218  1.1923
  377MOL0     H49711   8.511  11.475   3.564  0.5985 -0.1296 -1.0318
  377MOL0     H49712   8.342  11.445   3.606  0.2019 -0.6256  0.4781
  377MOL0     H49713   8.421  11.555   3.331 -2.1446 -2.2367 -0.8802
  377MOL0     H49714   8.260  11.554   3.408 -1.2989  2.6531  0.8151
  377MOL0     H49715   8.482  11.718   3.516 -0.4678 -1.3201  1.9343
  377MOL0     H49716   8.326  11.697   3.593  1.2956 -0.4684 -0.0603
  377MOL0     H49717   8.129  11.724   3.314  0.3654  0.8284 -1.7437
  377MOL0     H49718   7.989  11.903   3.201  5.5039 -1.6863 -4.4003
  377MOL0     H49719   8.097  12.028   3.150  1.2710  0.3957  0.3251
  377MOL0     H49720   7.880  12.125   3.249  1.1839 -1.2174 -1.0802
  377MOL0     H49721   8.026  12.175   3.327  0.2765  1.0455 -3.0246
  377MOL0     H49722   7.982  12.026   3.513  1.0737  0.6217 -1.7493
  377MOL0     H49723   7.840  12.132   3.494  2.6817  0.3255  2.9195
  377MOL0     H49724   7.859  11.844   3.398  2.9126  0.0551  2.5721
  377MOL0     H49725   7.728  11.967   3.358 -1.1652  0.8310  1.2526
  377MOL0     H49726   7.708  11.817   3.801  1.2814  0.5566 -0.0799
  377MOL0     H49727   7.629  11.609   3.874 -2.0881  2.0214  0.6371
  377MOL0     H49728   7.418  11.161   3.784 -2.7961  0.1722 -1.6434
  377MOL0     H49729   7.282  11.001   3.915  3.3312 -0.2273  1.0421
  377MOL0     H49730   6.981  10.921   4.157 -2.3388  0.4817 -3.3605
  377MOL0     H49731   7.108  10.903   4.040 -1.6957 -0.7198 -0.7691
  377MOL0     H49732   6.936  10.935   3.906  0.4784  0.8310 -0.7005
  377MOL0     H49733   6.986  11.104   3.908 -3.2595  0.9146 -1.2701
  377MOL0     H49734   6.824  11.126   4.114 -0.6249  0.8409 -1.2197
  377MOL0     H49735   6.756  10.968   4.064  1.1232 -0.9264 -0.3799
  377MOL0     H49736   6.781  11.190   3.863 -1.0813  1.1545 -0.3879
  377MOL0     H49737   6.681  11.039   3.868 -3.9686  1.5750 -1.0180
  377MOL0     H49738   6.624  11.283   4.042  0.1392 -0.2242  1.5410
  377MOL0     H49739   6.554  11.119   4.036  1.7444 -0.4274  0.8476
  377MOL0     H49740   6.544  11.323   3.805 -2.0371  0.8760 -1.0080
  377MOL0     H49741   6.429  11.312   3.927 -1.5745 -1.8034 -0.4290
  377MOL0     H49742   6.487  11.066   3.735 -1.0383 -0.7926 -0.1195
  377MOL0     H49743   6.366  11.078   3.861 -1.2086 -0.2820 -0.8302
  377MOL0     H49744   6.244  11.228   3.737 -1.3613 -3.3796  0.7554
  377MOL0     H49745   6.288  11.091   3.634  0.0476  0.0426 -2.2081
  377MOL0     H49746   7.208  11.298   4.210 -0.6243 -4.7680  1.2923
  377MOL0     H49747   7.353  11.464   4.089 -1.5764  0.8818 -1.4270
  377MOL0     H49748   7.503  11.508   3.464 -4.5783  2.5692  0.3917
  377MOL0     H49749   7.610  11.717   3.394  0.7758 -2.5091 -1.5040
  377MOL0     H49750   8.626  10.583   3.841 -0.7031  0.8814  2.8129
  377MOL0     H49751   8.816  10.492   3.950 -1.8254  0.3714 -0.4652
  377MOL0     H49752   9.243  10.530   4.130  2.2933  1.0995  0.4265
  377MOL0     H49753   9.381  10.442   4.325 -1.7444 -2.5675  0.4920
  377MOL0     H49754   9.332  10.654   4.728 -0.4178 -5.3795 -0.3900
  377MOL0     H49755   9.407  10.741   4.574  4.3265 -3.8092 -4.0972
  377MOL0     H49756   9.578  10.725   4.752  1.9280 -0.4601 -1.3396
  377MOL0     H49757   9.554  10.552   4.744  1.4760  2.3706  1.9442
  377MOL0     H49758   9.733  10.688   4.604 -0.2101  0.7730  1.7675
  377MOL0     H49759   9.600  10.689   4.492 -0.8852 -0.2088  0.1686
  377MOL0     H49760   9.603  10.416   4.583  0.2471  1.0862 -0.6071
  377MOL0     H49761   9.658  10.474   4.422 -1.7374  1.9839  0.4368
  377MOL0     H49762  10.035  10.402   4.538  0.1067  2.0881 -0.8738
  377MOL0     H49763   9.135  10.670   4.594 -0.5665 -1.3116  0.3300
  377MOL0     H49764   8.984  10.729   4.418 -0.5498 -0.5054  0.4569
  378MOL0     O49765   9.515   7.789   2.090  0.0730 -0.1300  0.2038
  378MOL0     C49766   9.615   7.852   2.054  0.2685  0.0870  0.3448
  378MOL0     O49767   9.688   7.823   1.946 -0.2171 -0.0486 -0.3800
  378MOL0     C49768   9.655   7.711   1.874  0.1730  0.5926 -0.5464
  378MOL0     C49769   9.644   7.714   1.733 -0.2659  0.3236 -0.4940
  378MOL0     C49770   9.617   7.601   1.653 -0.2692  0.3920 -0.2882
  378MOL0     C49771   9.607   7.473   1.711 -0.4300  0.8132 -0.4867
  378MOL0     O49772   9.582   7.357   1.643  0.2433  0.0714  0.1677
  378MOL0     C49773   9.588   7.371   1.496 -0.4132  0.4280  0.5989
  378MOL0     C49774   9.599   7.238   1.428 -0.2243  0.0557 -0.1923
  378MOL0     C49775   9.619   7.255   1.278  0.5681 -0.4253  0.8930
  378MOL0     C49776   9.490   7.291   1.208 -0.1774  0.0771  0.4193
  378MOL0     C49777   9.499   7.297   1.053  0.3737 -0.4443  0.2885
  378MOL0     C49778   9.484   7.159   0.986  0.9178 -0.2607  0.2817
  378MOL0     C49779   9.332   7.093   1.002 -0.6161 -0.7065  0.0789
  378MOL0     C49780   9.319   6.964   0.938 -0.9492  0.5972 -0.8493
  378MOL0     N49781   9.278   6.943   0.802 -0.1359  0.7022  0.2395
  378MOL0     C49782   9.149   6.975   0.767  0.2810  0.1943  0.5366
  378MOL0     C49783   9.162   6.994   0.631 -0.1060 -0.2790  0.3162
  378MOL0     C49784   9.048   7.024   0.543  0.3216 -1.1946 -0.1220
  378MOL0     C49785   9.084   7.016   0.395 -0.2924 -0.1489  0.4779
  378MOL0     C49786   8.954   7.025   0.314  1.2199  0.6342  0.5597
  378MOL0     C49787   8.886   7.164   0.319  0.1449  0.3813  0.8375
  378MOL0     O49788   8.762   7.170   0.250  0.4130 -0.7521  0.0723
  378MOL0     C49789   8.755   7.211   0.118 -0.0231 -0.1275 -0.3957
  378MOL0     C49790   8.861   7.220   0.026  0.2412 -0.1586  0.1802
  378MOL0     C49791   8.853   7.283  -0.097  0.0505  1.2618 -0.2800
  378MOL0     C49792   8.728   7.330  -0.148  0.3064 -0.3697 -0.2928
  378MOL0     C49793   8.718   7.404  -0.276  0.5027 -0.0090  0.3215
  378MOL0     O49794   8.600   7.460  -0.312  0.7264  0.2842 -0.1636
  378MOL0     C49795   8.580   7.482  -0.441 -0.8225 -0.4404  0.0178
  378MOL0     C49796   8.499   7.593  -0.465  1.1197  0.0710  0.5202
  378MOL0     C49797   8.455   7.638  -0.589 -0.2958  0.3452  1.4033
  378MOL0     C49798   8.487   7.560  -0.695  0.2475  2.0055  0.4904
  378MOL0     O49799   8.429   7.604  -0.811 -0.4939 -0.1182  0.3841
  378MOL0     C49800   8.404   7.514  -0.921 -0.1906 -0.0874 -0.1768
  378MOL0     C49801   8.297   7.577  -1.014 -0.3843  0.5204 -0.3210
  378MOL0     C49802   8.284   7.470  -1.124  0.3874 -0.1096  1.0553
  378MOL0     C49803   8.167   7.381  -1.083 -0.3308  0.8539 -0.7143
  378MOL0     C49804   8.153   7.259  -1.172  0.2932  0.2427  0.9971
  378MOL0     C49805   8.032   7.179  -1.126 -0.3376 -0.2455 -0.5514
  378MOL0     C49806   8.035   7.025  -1.167 -0.6753 -0.4153 -1.1224
  378MOL0     C49807   7.921   6.936  -1.107 -0.1739 -0.4458 -0.3831
  378MOL0    Cl49808   7.973   6.762  -1.119 -0.7492  0.0779 -0.1797
  378MOL0     C49809   8.571   7.448  -0.684  0.5453  0.0698 -0.6514
  378MOL0     C49810   8.613   7.405  -0.554 -0.8945 -1.1308 -0.2178
  378MOL0     O49811   8.826   7.436  -0.331 -0.1546 -0.0939 -0.0238
  378MOL0     C49812   8.623   7.312  -0.069 -0.6196 -0.7604  0.0986
  378MOL0     C49813   8.635   7.258   0.063 -0.0255 -0.4747  0.7673
  378MOL0     N49814   9.293   6.975   0.597 -0.7220  0.1717 -0.6607
  378MOL0     N49815   9.355   6.931   0.693 -0.2293  0.4603  0.2242
  378MOL0     C49816   9.611   7.466   1.852  0.8485 -0.2027  0.2950
  378MOL0     C49817   9.639   7.578   1.928 -0.2574 -0.4075  0.2619
  378MOL0     C49818   9.670   7.955   2.142 -0.2961  0.6099 -0.1955
  378MOL0     C49819   9.599   7.997   2.261 -1.0101 -0.2305 -0.9574
  378MOL0     C49820   9.666   8.084   2.355 -0.4158  0.2752 -0.0587
  378MOL0     C49821   9.777   8.162   2.319  0.5594 -0.2833 -0.2521
  378MOL0     O49822   9.823   8.273   2.383  0.3626 -0.7987 -0.7592
  378MOL0     C49823   9.745   8.321   2.498  0.0191  0.1861  0.7931
  378MOL0     C49824   9.786   8.472   2.522 -0.3549  0.1237 -0.0121
  378MOL0     C49825   9.755   8.567   2.402 -1.5370  0.4562 -1.1912
  378MOL0     C49826   9.616   8.567   2.348 -0.3195 -0.6243 -0.3804
  378MOL0     C49827   9.512   8.603   2.450 -0.9700  0.5143 -0.2773
  378MOL0     C49828   9.420   8.631   2.524 -0.4069  0.1494 -0.8490
  378MOL0     C49829   9.838   8.125   2.203 -1.0644  0.0756  0.0614
  378MOL0     C49830   9.792   8.023   2.117 -0.2489 -0.6104  0.6594
  378MOL0     H49831   9.655   7.807   1.677 -1.1124 -0.1349 -1.4617
  378MOL0     H49832   9.592   7.611   1.548  3.0645 -2.1991 -1.5119
  378MOL0     H49833   9.678   7.426   1.466 -0.4224  0.6006  0.8881
  378MOL0     H49834   9.490   7.411   1.467 -1.8779 -1.0787  3.1231
  378MOL0     H49835   9.508   7.184   1.454 -1.0754  1.9057  0.8884
  378MOL0     H49836   9.683   7.177   1.464  2.5561  2.5900 -1.8686
  378MOL0     H49837   9.658   7.165   1.229  0.4627 -0.0747  0.1432
  378MOL0     H49838   9.689   7.338   1.257 -0.8847 -0.0078 -3.0858
  378MOL0     H49839   9.418   7.217   1.244  0.8334 -1.6383 -0.9050
  378MOL0     H49840   9.450   7.388   1.238 -0.2986  0.7493 -1.7558
  378MOL0     H49841   9.594   7.343   1.025  0.1087 -0.8841 -1.4237
  378MOL0     H49842   9.420   7.360   1.012  0.5924 -0.4092 -0.0752
  378MOL0     H49843   9.549   7.081   1.025 -1.2715 -1.7713  1.0870
  378MOL0     H49844   9.495   7.182   0.880 -2.4279  2.1024  0.2616
  378MOL0     H49845   9.321   7.068   1.108  0.9162  0.4787  0.5612
  378MOL0     H49846   9.255   7.165   0.976 -0.7962 -2.0886 -3.8988
  378MOL0     H49847   9.249   6.904   0.998 -1.6486 -1.5206 -3.5796
  378MOL0     H49848   9.405   6.898   0.927 -0.8224  0.4812  0.5650
  378MOL0     H49849   9.057   6.991   0.822  0.5904  1.6232  0.6736
  378MOL0     H49850   9.014   7.122   0.577 -2.2751 -1.3839 -1.8880
  378MOL0     H49851   8.972   6.950   0.570 -0.1349 -0.8599 -0.4892
  378MOL0     H49852   9.129   6.918   0.376  2.8572  1.6181 -2.3727
  378MOL0     H49853   9.155   7.094   0.364  0.7235 -1.1021  0.3438
  378MOL0     H49854   8.965   6.994   0.209 -1.6753 -2.9003  1.1010
  378MOL0     H49855   8.887   6.953   0.362  1.3948  0.9531  1.2937
  378MOL0     H49856   8.953   7.242   0.281 -1.7041  2.3561  1.4067
  378MOL0     H49857   8.869   7.205   0.419 -2.3467  1.2452  0.1197
  378MOL0     H49858   8.965   7.194   0.047  0.9288  1.0215 -1.4595
  378MOL0     H49859   8.949   7.298  -0.145  0.7471  0.8225  0.9448
  378MOL0     H49860   8.458   7.654  -0.386 -3.6337 -0.5540 -1.1363
  378MOL0     H49861   8.376   7.711  -0.600  0.8337  1.2470 -1.6368
  378MOL0     H49862   8.362   7.420  -0.883 -0.8198 -0.0214 -0.6995
  378MOL0     H49863   8.500   7.487  -0.966 -0.4810  0.4374 -1.1237
  378MOL0     H49864   8.337   7.670  -1.055 -2.1187  1.4417 -0.0121
  378MOL0     H49865   8.213   7.596  -0.947 -0.1949 -1.7295  0.6359
  378MOL0     H49866   8.374   7.412  -1.146  1.2140  1.0583  1.2832
  378MOL0     H49867   8.256   7.532  -1.209 -1.3413 -1.4539  0.5816
  378MOL0     H49868   8.176   7.342  -0.981  1.6429 -0.1730 -1.2322
  378MOL0     H49869   8.074   7.437  -1.066  1.9694  4.4654  1.2443
  378MOL0     H49870   8.242   7.196  -1.163 -1.0298 -2.1759 -1.3895
  378MOL0     H49871   8.152   7.287  -1.278  0.0864  0.8418  1.1536
  378MOL0     H49872   7.940   7.220  -1.168  0.8352  1.8825 -1.2412
  378MOL0     H49873   8.014   7.185  -1.018 -1.9691  1.9468 -0.8604
  378MOL0     H49874   8.038   7.006  -1.275  0.5342 -2.0258 -0.8383
  378MOL0     H49875   8.129   6.983  -1.129 -0.3807  0.9385 -0.2626
  378MOL0     H49876   7.835   6.952  -1.172  0.3025 -2.2642 -1.5343
  378MOL0     H49877   7.897   6.968  -1.005 -1.3523  1.3899 -1.1841
  378MOL0     H49878   8.612   7.393  -0.768  1.2375 -0.2560 -0.1176
  378MOL0     H49879   8.669   7.312  -0.546  0.9502 -0.2373 -1.9069
  378MOL0     H49880   8.526   7.352  -0.097 -0.8730 -1.5061 -0.1135
  378MOL0     H49881   8.556   7.264   0.137  0.7080  0.8193  1.4713
  378MOL0     H49882   9.598   7.373   1.907 -0.1238  0.8988  2.0092
  378MOL0     H49883   9.641   7.558   2.035 -0.8570  0.8365  0.5213
  378MOL0     H49884   9.503   7.961   2.298 -0.0851 -0.3731  1.4628
  378MOL0     H49885   9.627   8.113   2.452  0.5321  1.0357  0.1172
  378MOL0     H49886   9.772   8.267   2.589  0.3886 -1.5907 -0.3246
  378MOL0     H49887   9.638   8.312   2.477 -0.1573 -0.8153  1.9981
  378MOL0     H49888   9.733   8.516   2.606 -0.6322  1.8957 -1.0620
  378MOL0     H49889   9.894   8.472   2.540 -0.1023 -3.9666 -0.5482
  378MOL0     H49890   9.828   8.539   2.326 -1.5148  0.8218 -1.3064
  378MOL0     H49891   9.778   8.670   2.434  2.4634 -0.7071  0.3130
  378MOL0     H49892   9.608   8.639   2.266 -4.3844  0.6367  0.8874
  378MOL0     H49893   9.595   8.472   2.299  2.0894 -0.6763 -1.4579
  378MOL0     H49894   9.329   8.649   2.578 -0.0450 -3.7267  1.4073
  378MOL0     H49895   9.918   8.192   2.172 -2.1210  0.7515 -1.3301
  378MOL0     H49896   9.844   8.010   2.022 -0.4862 -0.0436  0.4498
  379MOL0     O49897   5.519   8.430   3.979 -0.6099 -0.3377 -0.0716
  379MOL0     C49898   5.470   8.506   4.060 -0.3164  0.1795  1.2879
  379MOL0     O49899   5.407   8.473   4.182  0.6386  0.1407 -0.3336
  379MOL0     C49900   5.395   8.350   4.242  1.3874 -0.9606 -0.2714
  379MOL0     C49901   5.453   8.229   4.199  0.3641  0.3805  0.0124
  379MOL0     C49902   5.438   8.117   4.279  0.0022  0.3377 -0.8330
  379MOL0     C49903   5.376   8.126   4.408 -0.3042 -0.5916  0.5882
  379MOL0     O49904   5.355   8.019   4.491 -0.1294 -0.5451 -0.0126
  379MOL0     C49905   5.435   7.896   4.489  0.0190 -0.7166 -0.5771
  379MOL0     C49906   5.354   7.781   4.427  0.6135  1.1726  0.0526
  379MOL0     C49907   5.276   7.805   4.299 -0.7405 -1.5645  0.8727
  379MOL0     C49908   5.223   7.667   4.247 -0.1342 -0.3455 -0.1520
  379MOL0     C49909   5.135   7.676   4.113 -0.1348  0.2661  0.7211
  379MOL0     C49910   5.001   7.752   4.122 -0.0475 -0.2339 -0.2300
  379MOL0     C49911   4.904   7.740   4.012  0.2185 -0.1324  0.1063
  379MOL0     C49912   4.930   7.855   3.912  0.0299 -0.1103  0.0856
  379MOL0     N49913   4.902   7.993   3.963  0.2363 -0.2636  0.0988
  379MOL0     C49914   4.999   8.073   4.006 -0.6186 -0.2310 -0.5634
  379MOL0     C49915   4.940   8.169   4.075  0.8078 -0.5348  0.4604
  379MOL0     C49916   5.017   8.282   4.141 -0.4378  0.0577  0.0536
  379MOL0     C49917   5.122   8.356   4.052  0.4251  0.2508 -1.0257
  379MOL0     C49918   5.070   8.416   3.924  0.4482  0.1696 -0.7715
  379MOL0     C49919   5.161   8.506   3.841 -0.0981 -0.6604  0.7296
  379MOL0     O49920   5.102   8.542   3.717 -0.7908  0.3626  0.0631
  379MOL0     C49921   5.141   8.651   3.639 -1.0412 -0.0039 -0.0864
  379MOL0     C49922   5.264   8.713   3.645  0.3800  0.4160 -0.1151
  379MOL0     C49923   5.286   8.832   3.570  0.5049 -0.1806  0.0832
  379MOL0     C49924   5.189   8.886   3.491  0.5895  0.4805  0.3012
  379MOL0     C49925   5.190   9.019   3.426 -0.0643  0.1025  0.4567
  379MOL0     O49926   5.075   9.071   3.377  0.0711 -0.1784 -0.2362
  379MOL0     C49927   5.050   9.210   3.346 -0.1157  0.4661  0.1359
  379MOL0     C49928   5.089   9.326   3.416 -0.7046 -0.4881  0.7821
  379MOL0     C49929   5.080   9.460   3.366  0.3764  0.1948 -0.0936
  379MOL0     C49930   5.012   9.484   3.246  0.3263 -0.4522  0.6273
  379MOL0     O49931   4.998   9.614   3.192 -0.1126 -0.6246 -0.1493
  379MOL0     C49932   4.946   9.645   3.066  0.5037  0.6409 -0.2666
  379MOL0     C49933   4.985   9.786   3.029  0.2009  1.1677  1.0778
  379MOL0     C49934   5.131   9.802   2.999 -0.2351 -0.0172  0.3886
  379MOL0     C49935   5.170   9.946   2.978  0.5640 -0.1955  1.0102
  379MOL0     C49936   5.325   9.950   2.974  0.2486 -0.0154  0.0445
  379MOL0     C49937   5.385  10.095   2.943  1.1062 -0.9106  0.7783
  379MOL0     C49938   5.313  10.144   2.809 -0.5586  0.0385  0.1323
  379MOL0     C49939   5.393  10.274   2.760  0.2261  0.3747  0.0757
  379MOL0    Cl49940   5.377  10.416   2.875 -0.1445  0.3222  0.5152
  379MOL0     C49941   4.947   9.373   3.183 -0.1898  0.2849 -0.4568
  379MOL0     C49942   4.978   9.242   3.230  0.4347  0.1389 -0.5789
  379MOL0     O49943   5.300   9.078   3.425  0.0465 -0.2016 -0.0263
  379MOL0     C49944   5.070   8.812   3.479  0.1032  0.1448  1.1933
  379MOL0     C49945   5.056   8.685   3.536 -0.4774 -0.8021 -0.3552
  379MOL0     N49946   4.805   8.150   4.076  0.1952  0.5663  0.8503
  379MOL0     N49947   4.782   8.038   4.007  0.8777  0.3316  0.2357
  379MOL0     C49948   5.331   8.253   4.454  0.5649  0.0811 -0.1596
  379MOL0     C49949   5.345   8.358   4.372 -1.2023  0.7052  0.6544
  379MOL0     C49950   5.468   8.654   4.013  0.6056  1.4183 -0.3817
  379MOL0     C49951   5.396   8.738   4.103  0.5386 -0.1605 -0.3114
  379MOL0     C49952   5.379   8.871   4.066 -0.4405 -0.4640 -0.6349
  379MOL0     C49953   5.429   8.924   3.947  0.0342 -0.0925  0.6497
  379MOL0     O49954   5.412   9.062   3.929 -0.0341  0.4912 -0.1301
  379MOL0     C49955   5.333   9.085   3.823 -0.6655  0.2703  0.1265
  379MOL0     C49956   5.183   9.028   3.824 -0.6391 -0.9453 -0.4220
  379MOL0     C49957   5.088   9.077   3.948  0.8655 -0.1203 -0.7612
  379MOL0     C49958   5.088   9.223   3.975 -0.1173 -0.8541 -0.6681
  379MOL0     C49959   5.055   9.299   3.865 -0.0323 -0.0226  0.5386
  379MOL0     C49960   4.996   9.366   3.779 -0.9252  0.2431  0.0546
  379MOL0     C49961   5.495   8.841   3.863 -0.1164  0.9148 -0.2498
  379MOL0     C49962   5.529   8.704   3.900  0.6174  0.6231  0.0714
  379MOL0     H49963   5.509   8.221   4.107 -1.2057 -0.6429 -0.8979
  379MOL0     H49964   5.470   8.021   4.239 -0.2952 -0.8085  1.5225
  379MOL0     H49965   5.465   7.866   4.590  1.8735  1.2624 -0.4580
  379MOL0     H49966   5.524   7.911   4.426 -0.9375  1.3656 -1.5235
  379MOL0     H49967   5.281   7.755   4.504  0.8910  0.1959 -0.0059
  379MOL0     H49968   5.431   7.705   4.407  3.4982  3.6365  0.9609
  379MOL0     H49969   5.347   7.837   4.222 -2.0506  1.0429  0.6216
  379MOL0     H49970   5.212   7.894   4.305  0.1784 -0.6929 -1.1444
  379MOL0     H49971   5.309   7.608   4.215 -0.1065 -1.9281  2.5577
  379MOL0     H49972   5.174   7.620   4.333  0.2150 -0.5295 -0.0516
  379MOL0     H49973   5.114   7.576   4.075 -0.4496 -0.8963  3.6609
  379MOL0     H49974   5.196   7.727   4.038 -1.2611 -0.3387 -0.6327
  379MOL0     H49975   5.018   7.857   4.148 -0.5646  0.9153 -3.9711
  379MOL0     H49976   4.948   7.712   4.210  1.4639  0.9214  1.2847
  379MOL0     H49977   4.925   7.646   3.961  2.1094  0.0376  0.5231
  379MOL0     H49978   4.798   7.735   4.039  0.2837  2.9529  1.4096
  379MOL0     H49979   4.870   7.840   3.821  1.1501 -1.3381 -0.4864
  379MOL0     H49980   5.035   7.864   3.883 -0.2483  2.4870 -0.3475
  379MOL0     H49981   5.103   8.042   4.003 -0.4418  0.3131 -0.1965
  379MOL0     H49982   5.064   8.250   4.234 -1.3946 -1.7971 -0.0646
  379MOL0     H49983   4.944   8.355   4.178 -1.1926 -1.5415  1.8691
  379MOL0     H49984   5.206   8.288   4.032  0.7084  0.0149  0.8405
  379MOL0     H49985   5.170   8.438   4.105  0.4074 -0.5095  0.2201
  379MOL0     H49986   5.064   8.333   3.854  4.0215 -2.4788  1.7440
  379MOL0     H49987   4.978   8.474   3.940  1.9008  2.4792 -0.3072
  379MOL0     H49988   5.257   8.455   3.831  0.3852  0.6058 -2.1227
  379MOL0     H49989   5.181   8.591   3.906  3.0716  0.1244 -1.0565
  379MOL0     H49990   5.345   8.674   3.706 -1.5704 -0.6615  1.9559
  379MOL0     H49991   5.380   8.885   3.580 -1.8238  4.3957  0.7908
  379MOL0     H49992   5.151   9.317   3.504  2.5847  0.5341 -1.2786
  379MOL0     H49993   5.115   9.534   3.437  1.9733 -0.0112 -0.6123
  379MOL0     H49994   4.836   9.651   3.062  0.4006 -0.2555  0.7941
  379MOL0     H49995   4.966   9.570   2.989 -0.2704  0.2046 -0.0529
  379MOL0     H49996   4.947   9.864   3.095  0.3573  2.1567  0.0246
  379MOL0     H49997   4.943   9.806   2.931  3.8315 -0.6097 -1.0479
  379MOL0     H49998   5.162   9.751   2.907  1.2076  0.5151  0.5611
  379MOL0     H49999   5.186   9.762   3.084 -1.9518  1.3106  2.2209
  379MOL0     H50000   5.116   9.974   2.888 -1.1135  0.4795  2.1691
  379MOL0     H50001   5.130   9.998   3.065  1.3425  0.2043  1.1353
  379MOL0     H50002   5.359   9.882   2.895  0.2855  0.8424 -0.6973
  379MOL0     H50003   5.365   9.914   3.069  2.7437  1.2111 -0.4598
  379MOL0     H50004   5.494  10.104   2.941  1.0025  0.6344 -1.4639
  379MOL0     H50005   5.358  10.162   3.026 -0.0070 -2.1183  1.4350
  379MOL0     H50006   5.314  10.068   2.730 -2.6253 -0.2888  0.3680
  379MOL0     H50007   5.209  10.177   2.820 -0.2086  4.8360 -5.8015
  379MOL0     H50008   5.339  10.297   2.668 -1.5552 -2.1669  0.3762
  379MOL0     H50009   5.494  10.237   2.738 -0.5615 -0.4272 -2.5616
  379MOL0     H50010   4.883   9.381   3.095  0.7875  2.0164 -1.0573
  379MOL0     H50011   4.937   9.166   3.165 -0.0643 -0.4395  0.3820
  379MOL0     H50012   4.978   8.852   3.436 -0.2010 -0.5406  1.2008
  379MOL0     H50013   4.977   8.611   3.525 -0.5099 -0.5555 -1.9806
  379MOL0     H50014   5.289   8.264   4.554 -0.1011  1.9659 -0.6103
  379MOL0     H50015   5.316   8.449   4.425  1.0765  0.5213  2.3530
  379MOL0     H50016   5.359   8.702   4.199  1.6597  0.2994  0.3114
  379MOL0     H50017   5.332   8.946   4.129 -1.1829 -0.9944 -0.5438
  379MOL0     H50018   5.380   9.047   3.732  2.6906 -2.6843  2.8154
  379MOL0     H50019   5.351   9.191   3.803  0.5430 -0.1292 -1.0138
  379MOL0     H50020   5.132   9.065   3.735 -0.7693 -2.9563 -1.2256
  379MOL0     H50021   5.178   8.919   3.817 -1.0924 -0.7995 -4.0798
  379MOL0     H50022   5.124   9.035   4.042  0.6733  2.3366  0.4934
  379MOL0     H50023   4.985   9.046   3.925  0.4481  0.8938 -0.3070
  379MOL0     H50024   5.010   9.241   4.050 -0.9086  0.3900 -1.7314
  379MOL0     H50025   5.188   9.256   4.005  0.0452 -0.4311 -1.6042
  379MOL0     H50026   4.941   9.437   3.722 -1.3115 -0.7281 -0.8228
  379MOL0     H50027   5.547   8.879   3.775  1.5503  0.8866  0.6860
  379MOL0     H50028   5.585   8.630   3.843  0.1918  0.4151 -0.0761
  380MOL0     O50029   2.213   6.113   9.931 -0.0810  0.5314 -0.5901
  380MOL0     C50030   2.198   6.115  10.048  0.9975 -0.5019 -0.5877
  380MOL0     O50031   2.215   6.010  10.135 -0.2888  0.8186  0.4775
  380MOL0     C50032   2.252   5.877  10.093 -0.1903 -0.4506 -0.3998
  380MOL0     C50033   2.226   5.821   9.972 -0.5913  0.0902 -0.6128
  380MOL0     C50034   2.265   5.690   9.926 -1.4294  0.0975 -0.0534
  380MOL0     C50035   2.324   5.597  10.022 -0.5875 -0.5358  0.0248
  380MOL0     O50036   2.350   5.472   9.983  0.3609  0.0928 -0.1596
  380MOL0     C50037   2.243   5.394   9.916  0.1990 -0.1967  0.0450
  380MOL0     C50038   2.294   5.248   9.944 -0.8841 -0.0771 -0.7119
  380MOL0     C50039   2.436   5.218   9.883  0.8218  0.7879  0.0065
  380MOL0     C50040   2.492   5.073   9.915  0.1971 -0.0970 -0.8133
  380MOL0     C50041   2.548   5.034  10.049 -0.4516  0.5835  0.4827
  380MOL0     C50042   2.467   5.065  10.172  0.1854  0.0243 -0.5353
  380MOL0     C50043   2.508   4.963  10.280 -0.6877  0.3557 -0.0698
  380MOL0     C50044   2.437   4.988  10.408 -0.2045 -0.4199 -0.5527
  380MOL0     N50045   2.481   4.911  10.516 -1.0264 -0.1458 -0.4290
  380MOL0     C50046   2.600   4.906  10.582  0.0889  0.4462 -1.1759
  380MOL0     C50047   2.598   4.808  10.686  0.6551  0.3141  0.5119
  380MOL0     C50048   2.708   4.746  10.772 -0.2613 -0.0453  0.3348
  380MOL0     C50049   2.848   4.722  10.704  0.2729  0.5933 -0.2185
  380MOL0     C50050   2.949   4.659  10.804 -0.0486 -0.0019 -0.1284
  380MOL0     C50051   3.078   4.604  10.730 -0.3494  1.0716  0.4244
  380MOL0     O50052   3.026   4.498  10.641 -0.3405 -1.1646 -0.6727
  380MOL0     C50053   3.104   4.434  10.551 -0.5698  0.1558  0.3404
  380MOL0     C50054   3.152   4.508  10.446 -0.1903 -1.4975  0.1603
  380MOL0     C50055   3.232   4.451  10.344 -0.7773 -1.0264  0.4880
  380MOL0     C50056   3.263   4.315  10.357  0.6244  0.2192 -0.0640
  380MOL0     C50057   3.357   4.255  10.260 -0.3872 -0.5682 -0.6850
  380MOL0     O50058   3.377   4.322  10.144 -0.1201  0.0503  0.2474
  380MOL0     C50059   3.494   4.302  10.076  0.1489 -0.2873 -1.0230
  380MOL0     C50060   3.623   4.323  10.136 -0.1186 -0.3758 -0.1190
  380MOL0     C50061   3.729   4.321  10.045 -0.0686  0.1532  0.3835
  380MOL0     C50062   3.714   4.279   9.907  0.0409  0.6818  0.7585
  380MOL0     O50063   3.819   4.298   9.811  0.0054 -0.5832 -0.2133
  380MOL0     C50064   3.864   4.178   9.752  1.0775 -0.0940  0.3094
  380MOL0     C50065   4.002   4.206   9.702 -0.8285  0.5794  0.1581
  380MOL0     C50066   4.107   4.238   9.811 -0.0998  0.1983 -0.2845
  380MOL0     C50067   4.249   4.239   9.738  0.3707  0.0464 -0.6440
  380MOL0     C50068   4.354   4.236   9.853 -0.2611 -0.2234  0.5445
  380MOL0     C50069   4.341   4.351   9.954 -0.3874 -0.5997  0.5417
  380MOL0     C50070   4.340   4.487   9.881 -0.6107 -0.1760  0.0476
  380MOL0     C50071   4.423   4.583   9.975  0.2419 -0.4960  0.0542
  380MOL0    Cl50072   4.470   4.735   9.900  0.6171 -0.2725 -0.1218
  380MOL0     C50073   3.584   4.242   9.860 -0.4080 -0.5925 -0.9239
  380MOL0     C50074   3.473   4.265   9.941 -0.9964  0.3016 -1.0796
  380MOL0     O50075   3.419   4.155  10.298  0.0424 -0.9091 -0.0048
  380MOL0     C50076   3.211   4.240  10.464 -0.1648  0.3335 -0.3755
  380MOL0     C50077   3.131   4.299  10.559 -0.0108 -0.1799 -0.1533
  380MOL0     N50078   2.469   4.749  10.659  0.1580 -0.2396 -0.1377
  380MOL0     N50079   2.406   4.808  10.568 -0.1902 -0.2252  0.3510
  380MOL0     C50080   2.345   5.652  10.153  0.5828 -0.0325  0.1303
  380MOL0     C50081   2.313   5.788  10.182 -0.4818  0.5853 -0.7818
  380MOL0     C50082   2.128   6.234  10.109 -0.2315  0.8150  0.0767
  380MOL0     C50083   2.126   6.248  10.252 -0.1391 -0.3870 -0.7904
  380MOL0     C50084   2.052   6.352  10.309  1.1200  0.6551 -0.3363
  380MOL0     C50085   1.992   6.453  10.242 -0.2481 -0.3718 -0.2405
  380MOL0     O50086   1.918   6.565  10.291 -0.7785  0.1018  0.4782
  380MOL0     C50087   1.909   6.597  10.431 -0.5705 -1.0437  0.5714
  380MOL0     C50088   2.026   6.694  10.473 -0.4995 -0.5332 -0.4997
  380MOL0     C50089   2.003   6.730  10.617  0.7091  0.5883 -0.3866
  380MOL0     C50090   1.903   6.844  10.645  0.4098 -0.1040 -0.2883
  380MOL0     C50091   1.849   6.829  10.785 -0.6429 -0.5495  0.6480
  380MOL0     C50092   1.810   6.821  10.898 -0.2966 -0.0961 -0.3440
  380MOL0     C50093   1.992   6.439  10.102 -0.2570 -0.5845  0.6520
  380MOL0     C50094   2.055   6.331  10.030 -0.6772  0.2424  0.3201
  380MOL0     H50095   2.168   5.881   9.904  0.1608  1.1598 -0.3329
  380MOL0     H50096   2.251   5.649   9.827 -0.6608 -1.0711  0.2876
  380MOL0     H50097   2.233   5.417   9.809  3.7091 -4.8132 -1.5713
  380MOL0     H50098   2.147   5.414   9.966  0.0747 -0.4218 -0.0983
  380MOL0     H50099   2.219   5.172   9.920  0.2695 -1.1908 -0.9224
  380MOL0     H50100   2.298   5.237  10.053 -0.1583 -0.5969 -0.7799
  380MOL0     H50101   2.510   5.297   9.898  0.5910  1.1300 -0.6648
  380MOL0     H50102   2.403   5.214   9.779 -0.5151 -2.4233  0.4117
  380MOL0     H50103   2.412   5.000   9.898  0.5481 -0.9316  0.8927
  380MOL0     H50104   2.564   5.058   9.834  0.4581  0.1440 -0.6291
  380MOL0     H50105   2.648   5.077  10.058  0.2925 -0.1400 -2.8482
  380MOL0     H50106   2.564   4.926  10.044  0.6550  0.7744 -1.4256
  380MOL0     H50107   2.360   5.050  10.156 -0.0807  2.1630 -1.1484
  380MOL0     H50108   2.473   5.164  10.218 -3.0631  0.7897 -1.4928
  380MOL0     H50109   2.496   4.857  10.255  1.0475  0.0978  0.0340
  380MOL0     H50110   2.615   4.964  10.303 -0.1225  0.3401 -2.4227
  380MOL0     H50111   2.330   4.965  10.396 -0.3862 -0.7079  1.3870
  380MOL0     H50112   2.442   5.089  10.448 -2.8024 -0.1177 -0.8097
  380MOL0     H50113   2.693   4.957  10.559  0.0210  0.4069 -1.5505
  380MOL0     H50114   2.666   4.658  10.820 -3.0633  1.2204  0.4251
  380MOL0     H50115   2.716   4.829  10.842  0.7365  0.6640 -0.5795
  380MOL0     H50116   2.882   4.822  10.675  1.5424  0.2785  0.1069
  380MOL0     H50117   2.849   4.658  10.616 -0.3402 -0.5094  0.5509
  380MOL0     H50118   2.974   4.741  10.872 -1.5963 -2.7049  4.0425
  380MOL0     H50119   2.908   4.585  10.872  2.7121  0.9364  2.7842
  380MOL0     H50120   3.150   4.563  10.803 -1.3261  0.0458  0.8387
  380MOL0     H50121   3.125   4.685  10.673 -1.9602  0.2738 -2.1937
  380MOL0     H50122   3.155   4.616  10.453  0.2873 -1.4985  0.0607
  380MOL0     H50123   3.276   4.512  10.266 -1.5473  0.4457  1.1528
  380MOL0     H50124   3.650   4.350  10.238 -1.1615 -0.9233  0.3239
  380MOL0     H50125   3.829   4.344  10.078 -0.4513  0.5357  1.3184
  380MOL0     H50126   3.806   4.137   9.670  3.7580 -0.9953 -1.2706
  380MOL0     H50127   3.861   4.088   9.816  3.2502 -0.6480 -0.2843
  380MOL0     H50128   3.993   4.291   9.633  0.4898  1.3965  0.9349
  380MOL0     H50129   4.041   4.124   9.641 -1.5499  0.6414 -0.4083
  380MOL0     H50130   4.115   4.182   9.904  4.1127  3.7197  1.8210
  380MOL0     H50131   4.084   4.340   9.843  0.6569  0.0192  0.8958
  380MOL0     H50132   4.252   4.145   9.682  1.2122 -0.7812  0.7506
  380MOL0     H50133   4.270   4.316   9.664  1.3558  0.2733 -0.1429
  380MOL0     H50134   4.454   4.236   9.808  1.3802  3.1678  3.5883
  380MOL0     H50135   4.340   4.145   9.912 -1.8358  0.6046  1.5133
  380MOL0     H50136   4.429   4.331  10.016  0.4247 -1.5091 -0.8739
  380MOL0     H50137   4.264   4.335  10.031  0.6389 -0.1484  1.7067
  380MOL0     H50138   4.394   4.490   9.786 -1.4408 -0.1769 -0.4249
  380MOL0     H50139   4.237   4.519   9.867 -0.1759  0.4027 -2.1851
  380MOL0     H50140   4.515   4.536  10.011  1.8394  1.5317 -1.2057
  380MOL0     H50141   4.373   4.610  10.069 -0.2389  1.6357 -0.7543
  380MOL0     H50142   3.558   4.231   9.755  1.5181 -1.1433 -1.3864
  380MOL0     H50143   3.377   4.251   9.892  0.4944 -0.8838 -3.9011
  380MOL0     H50144   3.225   4.132  10.469 -2.6267  0.0143  0.8907
  380MOL0     H50145   3.097   4.236  10.642 -1.4182 -0.9092 -1.2285
  380MOL0     H50146   2.400   5.585  10.219 -0.6509  0.8754  2.1690
  380MOL0     H50147   2.336   5.818  10.284  1.3503 -3.6394  0.2370
  380MOL0     H50148   2.180   6.187  10.325 -0.5877  1.2019  0.9580
  380MOL0     H50149   2.037   6.348  10.417 -2.9082  1.3475 -0.7030
  380MOL0     H50150   1.921   6.507  10.492  3.2893 -0.4202  0.9484
  380MOL0     H50151   1.808   6.633  10.454 -0.8148 -1.9194  0.9052
  380MOL0     H50152   2.113   6.629  10.458 -0.2642 -0.0160 -1.4980
  380MOL0     H50153   2.034   6.786  10.414 -2.6081 -1.1245 -1.8097
  380MOL0     H50154   2.106   6.755  10.645  0.6846  0.8855 -0.5521
  380MOL0     H50155   1.980   6.643  10.679  1.6800  1.9205  1.9594
  380MOL0     H50156   1.948   6.943  10.641  1.5395 -0.6284 -3.7717
  380MOL0     H50157   1.810   6.837  10.588 -1.3356 -0.3642  2.4217
  380MOL0     H50158   1.780   6.800  10.999  0.0497  0.5128 -0.1086
  380MOL0     H50159   1.940   6.518  10.049  1.3385  0.4256  0.5301
  380MOL0     H50160   2.050   6.332   9.922 -1.7155 -1.5614  0.3225
  381MOL0     O50161   4.971  10.444   7.850 -0.2307  0.2179 -0.5480
  381MOL0     C50162   4.986  10.322   7.864  1.0601  0.7751 -0.9102
  381MOL0     O50163   5.102  10.255   7.842 -0.7032  0.5659 -0.2455
  381MOL0     C50164   5.220  10.317   7.824  1.5317 -0.3808 -0.2016
  381MOL0     C50165   5.304  10.256   7.727 -0.2195 -0.1628 -0.1950
  381MOL0     C50166   5.435  10.308   7.697  0.4854 -0.2434  0.0612
  381MOL0     C50167   5.475  10.426   7.759  0.1309  0.6336  0.7800
  381MOL0     O50168   5.602  10.485   7.724 -0.1716 -0.1635  0.4535
  381MOL0     C50169   5.676  10.552   7.821  0.1854 -0.3941  0.9164
  381MOL0     C50170   5.752  10.447   7.894 -0.3774  0.5456  0.2393
  381MOL0     C50171   5.850  10.520   7.995 -0.3097 -0.1076  0.1091
  381MOL0     C50172   5.931  10.419   8.072  0.1858  0.3896 -0.5871
  381MOL0     C50173   6.041  10.477   8.153  0.2227 -0.6385 -0.3141
  381MOL0     C50174   5.999  10.579   8.269 -0.1614  0.7132 -0.2252
  381MOL0     C50175   5.978  10.502   8.399 -0.1979 -0.3538  0.4864
  381MOL0     C50176   6.099  10.441   8.473  0.4125  0.3275 -0.2429
  381MOL0     N50177   6.199  10.543   8.492  1.0689 -0.2037  0.0740
  381MOL0     C50178   6.199  10.635   8.594  0.1020  0.5859  0.5448
  381MOL0     C50179   6.322  10.691   8.581  1.0807 -0.4408  0.5617
  381MOL0     C50180   6.375  10.810   8.648  0.3490 -0.7721 -0.3161
  381MOL0     C50181   6.524  10.806   8.679 -0.0715 -0.7155 -0.5227
  381MOL0     C50182   6.560  10.932   8.768 -0.5492 -0.4673  0.0290
  381MOL0     C50183   6.712  10.959   8.767  0.1023 -0.1996  0.9461
  381MOL0     O50184   6.750  11.086   8.732 -0.0612  0.0654 -0.2387
  381MOL0     C50185   6.749  11.195   8.817  0.0054 -0.6793 -0.6077
  381MOL0     C50186   6.805  11.309   8.767  0.4924  0.8859  1.0722
  381MOL0     C50187   6.807  11.424   8.849 -0.0849 -1.6785  0.1069
  381MOL0     C50188   6.767  11.431   8.981 -0.0310 -0.4949  1.0404
  381MOL0     C50189   6.766  11.555   9.053  1.3409 -0.3602 -0.1247
  381MOL0     O50190   6.844  11.655   9.004  0.2910  0.1680 -0.3319
  381MOL0     C50191   6.921  11.736   9.085 -0.9117 -1.0556 -0.2080
  381MOL0     C50192   6.879  11.819   9.186  0.2195  0.2336 -1.1387
  381MOL0     C50193   6.978  11.880   9.272 -0.4830  0.6196 -0.2226
  381MOL0     C50194   7.113  11.874   9.249  0.3285  0.7627  0.2972
  381MOL0     O50195   7.199  11.942   9.331  0.0191  0.1703  0.0335
  381MOL0     C50196   7.175  12.085   9.347  0.1903 -0.5318  0.1476
  381MOL0     C50197   7.113  12.149   9.220  0.2066 -0.1079  0.4699
  381MOL0     C50198   7.089  12.298   9.244  0.0866 -0.4287  0.0471
  381MOL0     C50199   7.029  12.357   9.115 -0.4118  0.1569 -0.0166
  381MOL0     C50200   7.024  12.504   9.111  0.0413  0.3805 -0.3878
  381MOL0     C50201   6.908  12.562   9.188  0.2451 -0.8137 -0.6094
  381MOL0     C50202   6.869  12.700   9.144  0.4199  0.1275  0.0966
  381MOL0     C50203   6.806  12.778   9.253 -0.5533 -0.3872 -0.5693
  381MOL0    Cl50204   6.784  12.945   9.201 -0.6492  0.5246 -0.1492
  381MOL0     C50205   7.154  11.818   9.122  0.1473  0.3421 -0.3116
  381MOL0     C50206   7.062  11.746   9.046  0.0959  0.1494  0.5706
  381MOL0     O50207   6.695  11.569   9.154  0.5465 -0.3807 -0.1196
  381MOL0     C50208   6.721  11.308   9.032  0.8063 -0.2358 -0.4367
  381MOL0     C50209   6.707  11.189   8.954  0.6083 -0.2673  0.1724
  381MOL0     N50210   6.387  10.623   8.475 -1.2850 -0.0147  0.4779
  381MOL0     N50211   6.313  10.539   8.426  0.6665 -0.4923 -0.1822
  381MOL0     C50212   5.385  10.490   7.847 -0.1803  0.2091  0.4271
  381MOL0     C50213   5.258  10.437   7.881 -0.0743  0.0597  0.3620
  381MOL0     C50214   4.864  10.242   7.901  0.4585  0.6079  0.4990
  381MOL0     C50215   4.876  10.100   7.932  0.0134 -0.0430 -0.7163
  381MOL0     C50216   4.763  10.019   7.976  0.2964 -0.1924 -0.3260
  381MOL0     C50217   4.637  10.086   7.982 -0.2668  0.7443 -0.0492
  381MOL0     O50218   4.521  10.013   8.020 -0.3257 -0.6877 -0.3825
  381MOL0     C50219   4.411  10.091   8.074 -0.1161  1.9775  0.0236
  381MOL0     C50220   4.298  10.016   8.148 -0.6527  0.3491 -0.9670
  381MOL0     C50221   4.159  10.096   8.160 -1.0159 -0.2995  0.0105
  381MOL0     C50222   4.070  10.070   8.036  0.0905  0.8932 -0.8562
  381MOL0     C50223   4.115  10.122   7.908  0.6052 -0.4323 -0.0481
  381MOL0     C50224   4.135  10.187   7.803  0.6141 -0.6265  0.9573
  381MOL0     C50225   4.635  10.234   7.963  0.3353  0.3443  0.7713
  381MOL0     C50226   4.743  10.300   7.923  0.3537 -0.8683  0.7409
  381MOL0     H50227   5.272  10.169   7.670  0.5806  0.6220 -1.9340
  381MOL0     H50228   5.496  10.252   7.627 -0.4855 -1.4687  0.1584
  381MOL0     H50229   5.632  10.623   7.892 -0.6636  0.4201 -0.3851
  381MOL0     H50230   5.743  10.618   7.766 -0.3755 -2.8855 -3.1484
  381MOL0     H50231   5.808  10.390   7.819  2.7820  2.7499  0.7506
  381MOL0     H50232   5.683  10.396   7.962  0.2044  2.0883  2.0822
  381MOL0     H50233   5.787  10.592   8.047  1.2728 -0.1843  2.2538
  381MOL0     H50234   5.916  10.588   7.941 -2.7526  2.4766  0.1568
  381MOL0     H50235   5.874  10.352   8.137  0.9091 -0.7289 -1.0747
  381MOL0     H50236   5.977  10.361   7.992  1.1152  0.1363  0.1295
  381MOL0     H50237   6.102  10.539   8.087  0.0811  1.7444  1.6288
  381MOL0     H50238   6.119  10.414   8.197  0.2759  0.7912  1.8369
  381MOL0     H50239   5.910  10.640   8.251  2.1369  4.4427  0.0076
  381MOL0     H50240   6.084  10.647   8.280 -0.6187  0.9225  3.0887
  381MOL0     H50241   5.938  10.578   8.467  1.5979  0.5501  0.6096
  381MOL0     H50242   5.909  10.421   8.375 -1.0606  0.7841 -1.0639
  381MOL0     H50243   6.127  10.350   8.418  1.7830 -0.3090  1.4113
  381MOL0     H50244   6.059  10.393   8.563 -2.4164 -0.5731 -1.8281
  381MOL0     H50245   6.120  10.663   8.663 -2.3199  2.7637 -2.8177
  381MOL0     H50246   6.319  10.820   8.741 -1.7760  2.3290 -1.7602
  381MOL0     H50247   6.359  10.909   8.605 -0.2196  1.7964  4.9646
  381MOL0     H50248   6.584  10.809   8.587 -2.4769 -3.4984 -2.3781
  381MOL0     H50249   6.550  10.714   8.732 -2.7727 -0.2012  1.9784
  381MOL0     H50250   6.508  11.024   8.739 -1.7326 -0.6387  1.4452
  381MOL0     H50251   6.523  10.922   8.871 -1.5536 -1.0528 -0.3806
  381MOL0     H50252   6.765  10.888   8.702 -2.5749 -2.9197  1.4736
  381MOL0     H50253   6.751  10.946   8.868 -1.1696  2.9149  1.9574
  381MOL0     H50254   6.854  11.319   8.671 -2.7393  2.1804 -0.6057
  381MOL0     H50255   6.839  11.517   8.802  0.8109 -2.3583 -0.6727
  381MOL0     H50256   6.776  11.838   9.216  0.7490 -0.0025  0.9331
  381MOL0     H50257   6.936  11.926   9.361 -3.6641  1.6372 -2.1140
  381MOL0     H50258   7.266  12.140   9.375  0.6783 -1.4154  0.3357
  381MOL0     H50259   7.111  12.093   9.436  2.4188  0.3305  1.7703
  381MOL0     H50260   7.013  12.114   9.193 -0.1489  0.9115  0.4171
  381MOL0     H50261   7.180  12.129   9.135 -1.2229 -0.6619 -0.5649
  381MOL0     H50262   7.190  12.337   9.258 -0.0119 -0.1616  0.0189
  381MOL0     H50263   7.026  12.323   9.330  2.3333 -0.2024  1.7013
  381MOL0     H50264   7.104  12.335   9.038 -0.8217 -0.6519 -0.2045
  381MOL0     H50265   6.933  12.310   9.093 -0.7894  0.2000  1.4044
  381MOL0     H50266   7.012  12.536   9.007  4.4591 -1.0322 -1.5186
  381MOL0     H50267   7.120  12.527   9.157  0.5309 -3.4800  0.8925
  381MOL0     H50268   6.939  12.558   9.293 -2.4380  0.5309  0.3080
  381MOL0     H50269   6.824  12.498   9.160 -0.2189  0.8977 -3.5670
  381MOL0     H50270   6.963  12.753   9.124 -0.3606  1.2662 -0.7139
  381MOL0     H50271   6.816  12.703   9.048  2.5400 -2.2476 -1.2727
  381MOL0     H50272   6.879  12.772   9.334 -0.2651  2.0806 -0.5393
  381MOL0     H50273   6.707  12.746   9.287  0.7907 -4.0809  0.3028
  381MOL0     H50274   7.256  11.840   9.088  0.1816  2.0774  0.7764
  381MOL0     H50275   7.089  11.687   8.959 -2.9857  1.9234 -1.7669
  381MOL0     H50276   6.674  11.288   9.128 -0.7970 -3.6539 -1.7564
  381MOL0     H50277   6.678  11.103   9.013 -0.0130  0.5084  1.0254
  381MOL0     H50278   5.414  10.587   7.886  2.2407 -1.0909  2.1289
  381MOL0     H50279   5.194  10.502   7.940 -1.0683  0.3200 -0.9486
  381MOL0     H50280   4.973  10.054   7.918  0.0424 -0.2747  0.2239
  381MOL0     H50281   4.766   9.912   7.996  1.5318 -0.3003 -0.9631
  381MOL0     H50282   4.367  10.127   7.980 -1.8201 -0.1446 -0.0694
  381MOL0     H50283   4.446  10.176   8.133  0.5656  2.0443 -0.4696
  381MOL0     H50284   4.289   9.920   8.096  4.6869  0.4768 -2.6918
  381MOL0     H50285   4.337   9.996   8.248  3.2406  5.9244 -0.9220
  381MOL0     H50286   4.173  10.204   8.164  0.1966 -0.3181 -1.9883
  381MOL0     H50287   4.102  10.061   8.246  1.1791 -1.3263  1.1459
  381MOL0     H50288   4.061   9.965   8.007 -0.4181  1.0881 -1.4309
  381MOL0     H50289   3.965  10.100   8.040  0.2882  1.4964  1.0468
  381MOL0     H50290   4.133  10.256   7.721 -0.6071 -0.4836  1.0908
  381MOL0     H50291   4.545  10.293   7.951  0.8292  1.6672  2.9996
  381MOL0     H50292   4.730  10.405   7.899 -4.1893 -1.6343 -1.2928
  382MOL0     O50293   7.297   6.007   0.796 -0.2113 -0.2067  0.4184
  382MOL0     C50294   7.402   5.944   0.775  0.2625  0.5482 -1.2507
  382MOL0     O50295   7.526   5.980   0.818 -0.0878  0.1933 -0.9489
  382MOL0     C50296   7.544   6.080   0.911  0.3713  0.9925 -0.9033
  382MOL0     C50297   7.454   6.090   1.022 -0.4119 -0.1648  0.4212
  382MOL0     C50298   7.477   6.191   1.118  0.1815 -0.4701  0.2575
  382MOL0     C50299   7.590   6.279   1.108  0.0625 -0.8035  0.7073
  382MOL0     O50300   7.620   6.360   1.213  0.4147 -0.4448  0.1706
  382MOL0     C50301   7.706   6.475   1.200  0.0091 -0.3127 -0.1226
  382MOL0     C50302   7.864   6.450   1.205 -0.3446  0.0491  0.3130
  382MOL0     C50303   7.911   6.349   1.306  1.7231  0.7424  0.7710
  382MOL0     C50304   8.068   6.344   1.311 -0.0191 -0.5624 -0.3115
  382MOL0     C50305   8.118   6.297   1.446 -0.8654 -0.0257 -0.4894
  382MOL0     C50306   8.254   6.227   1.446 -1.4769 -1.0065  0.6046
  382MOL0     C50307   8.237   6.078   1.442  0.8435  0.0447  0.1655
  382MOL0     C50308   8.378   6.018   1.423  0.3111  0.4043  0.3712
  382MOL0     N50309   8.444   6.066   1.296 -0.3372  1.4375 -0.0584
  382MOL0     C50310   8.398   6.034   1.178  0.2448 -1.2809 -0.5825
  382MOL0     C50311   8.498   6.067   1.091  0.1264  0.6077 -0.8974
  382MOL0     C50312   8.485   6.048   0.945 -0.5010  0.0755 -1.2329
  382MOL0     C50313   8.533   5.913   0.901  0.2733  0.5583  0.3548
  382MOL0     C50314   8.447   5.798   0.957  0.4150 -0.0245 -0.5441
  382MOL0     C50315   8.475   5.663   0.902 -0.7841  0.5534  0.8484
  382MOL0     O50316   8.469   5.672   0.761 -0.0624 -0.0613  0.2565
  382MOL0     C50317   8.582   5.657   0.687  0.1092 -0.1371  0.1313
  382MOL0     C50318   8.718   5.635   0.727  0.5342  0.3792  0.0271
  382MOL0     C50319   8.813   5.610   0.620  0.0559 -1.6818 -0.5711
  382MOL0     C50320   8.780   5.608   0.488  0.6122 -0.0624 -0.3517
  382MOL0     C50321   8.877   5.580   0.380 -0.4483  1.0141 -0.1526
  382MOL0     O50322   9.002   5.529   0.409  0.7766  0.0354  0.1220
  382MOL0     C50323   9.068   5.471   0.313 -0.4223 -0.6082 -0.0110
  382MOL0     C50324   9.016   5.358   0.241 -0.5860  0.2508  0.3682
  382MOL0     C50325   9.094   5.294   0.145  0.2558 -1.1346  0.2211
  382MOL0     C50326   9.208   5.355   0.106 -0.0923  0.1560  0.9707
  382MOL0     O50327   9.302   5.302   0.027 -0.1975  0.4262  0.5312
  382MOL0     C50328   9.264   5.209  -0.070 -0.0521 -0.8886 -0.6766
  382MOL0     C50329   9.373   5.220  -0.180  0.0363  0.5154  0.3053
  382MOL0     C50330   9.348   5.112  -0.285 -0.2539 -0.5520 -1.1148
  382MOL0     C50331   9.453   5.125  -0.403  0.0204  0.1206 -0.6691
  382MOL0     C50332   9.438   5.007  -0.500  0.0534  0.4038 -0.0650
  382MOL0     C50333   9.468   4.865  -0.440  0.1526 -0.6710  0.0472
  382MOL0     C50334   9.605   4.852  -0.375  0.0980 -0.1898 -0.0618
  382MOL0     C50335   9.626   4.720  -0.293  0.2725  0.8295 -0.8820
  382MOL0    Cl50336   9.615   4.590  -0.416 -0.2318  0.0294  0.1931
  382MOL0     C50337   9.257   5.470   0.162  0.3363  0.1766  0.3471
  382MOL0     C50338   9.195   5.519   0.278 -0.7854 -0.5348  0.1909
  382MOL0     O50339   8.825   5.583   0.267  0.0151  1.1464 -0.1896
  382MOL0     C50340   8.646   5.625   0.460  0.4434 -0.1213  1.2241
  382MOL0     C50341   8.549   5.646   0.560 -0.9459 -1.3479  0.4529
  382MOL0     N50342   8.615   6.103   1.161 -0.9900 -0.6760  0.0947
  382MOL0     N50343   8.575   6.089   1.285  0.1050 -0.5044 -0.0304
  382MOL0     C50344   7.652   6.281   0.986 -0.7771 -0.2883  0.2743
  382MOL0     C50345   7.640   6.174   0.894  0.3803 -1.0053 -0.6384
  382MOL0     C50346   7.377   5.813   0.711  0.3235  0.4162  0.0884
  382MOL0     C50347   7.259   5.798   0.629  0.2811  0.2730 -0.4130
  382MOL0     C50348   7.241   5.682   0.553  0.0795 -0.6067 -0.2275
  382MOL0     C50349   7.347   5.591   0.548  0.4048 -0.3045 -0.6453
  382MOL0     O50350   7.340   5.464   0.495 -0.2320 -0.8948  0.6729
  382MOL0     C50351   7.244   5.443   0.386 -0.4160  1.2547 -0.1963
  382MOL0     C50352   7.238   5.309   0.317  0.2529  0.0719  0.8953
  382MOL0     C50353   7.158   5.302   0.187 -0.2363  0.4566  0.5257
  382MOL0     C50354   7.146   5.163   0.124  0.2152  0.2072 -0.8418
  382MOL0     C50355   7.047   5.162   0.015  0.4579  0.7771 -0.4288
  382MOL0     C50356   6.949   5.141  -0.062  0.5181  0.7086 -0.6603
  382MOL0     C50357   7.465   5.612   0.620 -0.2061 -0.0373  0.3808
  382MOL0     C50358   7.471   5.707   0.713  0.3938 -0.4001 -0.4636
  382MOL0     H50359   7.376   6.019   1.047  0.1176  0.5685  4.9739
  382MOL0     H50360   7.414   6.201   1.205  0.8175 -0.4522  0.7253
  382MOL0     H50361   7.682   6.541   1.283  0.1745  2.6708 -2.2905
  382MOL0     H50362   7.681   6.533   1.111  2.5086  1.4620  0.2560
  382MOL0     H50363   7.914   6.545   1.223  4.3917 -2.1327  0.2395
  382MOL0     H50364   7.895   6.404   1.110 -0.4194  0.1239  0.2531
  382MOL0     H50365   7.861   6.255   1.282 -3.9634  3.1550  1.3240
  382MOL0     H50366   7.863   6.372   1.402  1.2826  1.6897  0.3373
  382MOL0     H50367   8.098   6.264   1.242  0.8257 -0.7436  0.2540
  382MOL0     H50368   8.120   6.435   1.279  1.5834 -0.4044  2.4032
  382MOL0     H50369   8.042   6.229   1.486  0.0404 -0.1405  1.1559
  382MOL0     H50370   8.120   6.381   1.517  0.4192 -1.7968  1.7164
  382MOL0     H50371   8.322   6.251   1.528  0.4592  0.8373 -1.3750
  382MOL0     H50372   8.309   6.262   1.359 -0.9181 -3.6650 -0.1983
  382MOL0     H50373   8.197   6.051   1.540 -2.0555 -4.1966 -1.8588
  382MOL0     H50374   8.171   6.040   1.364  0.3107  2.6445 -0.7424
  382MOL0     H50375   8.370   5.910   1.411 -2.8931  0.6183 -0.2723
  382MOL0     H50376   8.439   6.043   1.511  0.9849  0.5533 -0.1291
  382MOL0     H50377   8.301   5.992   1.154  0.4581 -1.3344 -1.3849
  382MOL0     H50378   8.538   6.134   0.904 -1.3913  2.6181  2.4559
  382MOL0     H50379   8.378   6.053   0.920 -0.7838 -0.2213 -0.1273
  382MOL0     H50380   8.638   5.896   0.926 -0.0652  1.7506  2.8757
  382MOL0     H50381   8.543   5.917   0.792  1.7759  4.5253  0.4765
  382MOL0     H50382   8.467   5.792   1.064 -1.4856 -1.7434 -0.2219
  382MOL0     H50383   8.338   5.805   0.948  0.4715  1.1436 -0.3836
  382MOL0     H50384   8.399   5.594   0.941 -0.2089  0.0569  1.1118
  382MOL0     H50385   8.570   5.637   0.949 -1.1235 -0.3918  1.0417
  382MOL0     H50386   8.755   5.651   0.827  0.4120  1.6628 -0.1138
  382MOL0     H50387   8.917   5.586   0.640 -0.0805 -2.1350 -0.3644
  382MOL0     H50388   8.916   5.325   0.269 -0.4279 -1.6861 -1.1908
  382MOL0     H50389   9.073   5.199   0.095  0.2179 -2.4640  2.6181
  382MOL0     H50390   9.168   5.237  -0.113 -0.4408 -0.2397  0.5589
  382MOL0     H50391   9.258   5.108  -0.030  0.1412  0.8149  4.3407
  382MOL0     H50392   9.474   5.203  -0.141 -0.5445  0.6029  1.9191
  382MOL0     H50393   9.377   5.318  -0.228  2.0144  0.0989 -0.4732
  382MOL0     H50394   9.242   5.128  -0.306 -0.5485  2.1815  1.6701
  382MOL0     H50395   9.359   5.023  -0.223  0.7237  0.9489  1.0153
  382MOL0     H50396   9.438   5.222  -0.451 -0.3218 -0.5355 -1.9384
  382MOL0     H50397   9.553   5.128  -0.360  1.2869 -1.0780 -3.2858
  382MOL0     H50398   9.505   5.022  -0.585 -1.3999 -1.1194 -1.5592
  382MOL0     H50399   9.332   5.000  -0.526 -0.5624  1.9261  1.8025
  382MOL0     H50400   9.464   4.789  -0.519  0.2811 -0.3375 -0.2849
  382MOL0     H50401   9.391   4.835  -0.367  0.3960 -0.8698  0.2226
  382MOL0     H50402   9.684   4.852  -0.452  0.6947  0.4530  0.5403
  382MOL0     H50403   9.633   4.935  -0.310  2.4891 -1.6043  0.8628
  382MOL0     H50404   9.542   4.702  -0.225  2.0112  0.3069  1.2370
  382MOL0     H50405   9.720   4.714  -0.239  2.2285 -1.4432 -4.1918
  382MOL0     H50406   9.348   5.512   0.121 -0.3508  0.3784 -1.0001
  382MOL0     H50407   9.232   5.607   0.328  4.2092 -2.8355  1.2285
  382MOL0     H50408   8.613   5.619   0.357  3.4954  0.6431  0.0866
  382MOL0     H50409   8.443   5.654   0.537 -0.9928 -1.0978  0.7496
  382MOL0     H50410   7.735   6.347   0.965  0.1089 -1.7725 -1.1257
  382MOL0     H50411   7.699   6.193   0.805 -0.7812 -1.0702 -1.4598
  382MOL0     H50412   7.183   5.875   0.629  0.0635  0.0736 -1.2660
  382MOL0     H50413   7.150   5.652   0.502 -1.9273  2.0012  1.4951
  382MOL0     H50414   7.269   5.518   0.310 -0.5479  0.2006 -1.3151
  382MOL0     H50415   7.143   5.453   0.426  0.4708  1.7737  2.0740
  382MOL0     H50416   7.339   5.282   0.287 -0.1251 -2.1320  1.4747
  382MOL0     H50417   7.205   5.230   0.385 -3.1972  0.7394  0.2155
  382MOL0     H50418   7.206   5.370   0.116 -1.5115 -0.4609 -1.2978
  382MOL0     H50419   7.065   5.350   0.216  0.2598 -0.2613  3.6220
  382MOL0     H50420   7.240   5.109   0.112  1.2949  2.0491 -1.1247
  382MOL0     H50421   7.091   5.105   0.199 -1.6732  3.3899  0.4281
  382MOL0     H50422   6.864   5.114  -0.123  1.4719  0.8055 -2.0797
  382MOL0     H50423   7.547   5.542   0.618  0.0407  0.1249  2.2735
  382MOL0     H50424   7.551   5.727   0.785  0.3126 -2.7186  0.3478
  383MOL0     O50425   0.826  10.657   7.955  0.7027 -0.7534 -0.2551
  383MOL0     C50426   0.714  10.701   7.968  0.0369  0.5680 -0.4933
  383MOL0     O50427   0.629  10.715   7.873 -0.3708 -0.2824 -0.5015
  383MOL0     C50428   0.649  10.656   7.753 -0.4652  0.2782  0.5775
  383MOL0     C50429   0.764  10.675   7.678 -0.2964  0.1619 -0.2916
  383MOL0     C50430   0.784  10.601   7.560  0.7166  0.4111 -0.3932
  383MOL0     C50431   0.677  10.529   7.504 -0.0475  0.7519  0.2412
  383MOL0     O50432   0.696  10.472   7.379  0.1134  0.6279 -0.0015
  383MOL0     C50433   0.595  10.383   7.329  0.3736 -0.3603 -0.4646
  383MOL0     C50434   0.664  10.310   7.208 -0.9959 -0.8103  0.5591
  383MOL0     C50435   0.724  10.396   7.101 -0.3703  0.5153 -0.5733
  383MOL0     C50436   0.767  10.303   6.987  0.5051 -0.2111  0.6201
  383MOL0     C50437   0.885  10.351   6.923 -0.0568  0.3273 -0.0789
  383MOL0     C50438   0.925  10.286   6.787  0.2316 -0.1116  0.5495
  383MOL0     C50439   1.049  10.351   6.726  0.1701  0.9259  0.3282
  383MOL0     C50440   1.171  10.288   6.776  0.2536  0.2350  0.4319
  383MOL0     N50441   1.297  10.371   6.747 -0.4500 -0.1752 -0.5895
  383MOL0     C50442   1.328  10.481   6.817  0.2500 -0.7454 -0.3320
  383MOL0     C50443   1.446  10.512   6.758 -1.2878  0.8376 -1.0134
  383MOL0     C50444   1.525  10.631   6.771 -0.1407  0.5510  0.2111
  383MOL0     C50445   1.459  10.748   6.686  1.6103  0.4879 -0.6350
  383MOL0     C50446   1.329  10.811   6.743 -0.6946  0.4645  0.2283
  383MOL0     C50447   1.288  10.923   6.643 -0.6345 -0.4823  0.5329
  383MOL0     O50448   1.294  10.881   6.503 -0.1686 -0.1162  0.5725
  383MOL0     C50449   1.218  10.768   6.463  0.4967  0.2326  0.3033
  383MOL0     C50450   1.084  10.752   6.501  0.4494  0.6566  0.8975
  383MOL0     C50451   1.019  10.640   6.460  0.8784  0.4411 -0.4479
  383MOL0     C50452   1.075  10.537   6.374 -0.6373 -0.0858  0.1712
  383MOL0     C50453   1.002  10.425   6.321 -0.7208  0.4176  0.1782
  383MOL0     O50454   1.061  10.355   6.210 -0.6405  0.3943  0.0002
  383MOL0     C50455   0.983  10.260   6.140 -0.2349  0.7885 -1.0351
  383MOL0     C50456   0.851  10.274   6.103 -1.0029 -0.8051  0.1506
  383MOL0     C50457   0.767  10.171   6.057  0.3217  0.2510  0.2201
  383MOL0     C50458   0.813  10.040   6.047 -0.3974 -1.2723 -0.3796
  383MOL0     O50459   0.741   9.935   5.999 -0.4999 -0.7228  0.3227
  383MOL0     C50460   0.667   9.860   6.099  0.4346  0.0802  0.1234
  383MOL0     C50461   0.673   9.699   6.090  0.1565  0.5799  0.6197
  383MOL0     C50462   0.806   9.625   6.073  0.6353  0.5240  0.1338
  383MOL0     C50463   0.907   9.654   6.190  0.1188  0.3482  0.3737
  383MOL0     C50464   1.043   9.582   6.182  0.4152  0.2917  0.3014
  383MOL0     C50465   1.123   9.606   6.316  0.2652 -0.2373  0.3366
  383MOL0     C50466   1.091   9.494   6.410 -0.0341 -0.4309  1.2440
  383MOL0     C50467   1.223   9.477   6.499  0.1864 -0.2661  0.6760
  383MOL0    Cl50468   1.214   9.334   6.608 -0.4520  0.1254 -0.1663
  383MOL0     C50469   0.954  10.013   6.068 -1.0685 -0.8731 -0.3813
  383MOL0     C50470   1.035  10.122   6.114 -0.6213  0.2824 -0.6513
  383MOL0     O50471   0.894  10.400   6.381 -0.0051 -0.6395  1.0960
  383MOL0     C50472   1.210  10.558   6.339  0.0131 -0.5816 -0.3402
  383MOL0     C50473   1.277  10.663   6.395  1.4978  0.6608  0.1372
  383MOL0     N50474   1.484  10.412   6.673 -0.3818  0.4182  0.9589
  383MOL0     N50475   1.384  10.334   6.657 -0.7277  0.4448 -0.4044
  383MOL0     C50476   0.557  10.507   7.578 -0.2282  0.2480 -0.2934
  383MOL0     C50477   0.549  10.575   7.705 -0.2965 -0.0465  0.0823
  383MOL0     C50478   0.666  10.741   8.104 -0.0410  0.4537 -0.1962
  383MOL0     C50479   0.541  10.803   8.126  0.2981 -0.2565  0.5298
  383MOL0     C50480   0.498  10.837   8.256  0.0144  0.6556  1.2011
  383MOL0     C50481   0.578  10.811   8.369  0.6286  1.4077 -0.2090
  383MOL0     O50482   0.525  10.834   8.494 -0.1622  0.5389  0.1474
  383MOL0     C50483   0.451  10.953   8.518  0.3474  0.1528  0.6579
  383MOL0     C50484   0.301  10.913   8.546 -0.4997  0.2588  0.2609
  383MOL0     C50485   0.294  10.835   8.678 -0.4215  0.1460 -0.1782
  383MOL0     C50486   0.157  10.771   8.709  0.5930  0.4499  0.2965
  383MOL0     C50487   0.051  10.866   8.715  1.2198  0.9278 -0.2790
  383MOL0     C50488  -0.048  10.933   8.730  0.9353  0.2509  0.7512
  383MOL0     C50489   0.688  10.747   8.354  0.6907  0.2403 -0.3143
  383MOL0     C50490   0.747  10.722   8.229 -0.2793 -0.0804  0.6764
  383MOL0     H50491   0.828  10.749   7.725  1.4585  1.1774 -3.8993
  383MOL0     H50492   0.865  10.620   7.489  1.0482  1.6958  0.2953
  383MOL0     H50493   0.506  10.440   7.301 -1.3111 -2.4636  0.3253
  383MOL0     H50494   0.565  10.322   7.415  0.5036  1.0218  0.6037
  383MOL0     H50495   0.591  10.239   7.168 -2.1828  1.8369 -2.3249
  383MOL0     H50496   0.740  10.242   7.248  1.5104  0.6293 -1.5254
  383MOL0     H50497   0.819  10.439   7.133  0.7704 -0.9262 -1.8610
  383MOL0     H50498   0.643  10.467   7.084 -1.3358  1.5261  5.7068
  383MOL0     H50499   0.779  10.202   7.029  0.4246 -0.4357  0.1150
  383MOL0     H50500   0.678  10.301   6.923  0.5543 -3.5519  0.4534
  383MOL0     H50501   0.967  10.329   6.993 -1.4155 -1.9076  0.9034
  383MOL0     H50502   0.891  10.460   6.913  3.7703  0.2565 -0.2252
  383MOL0     H50503   0.840  10.321   6.728 -1.2944  1.2727  3.3342
  383MOL0     H50504   0.939  10.179   6.805 -0.7407 -0.1530  1.1535
  383MOL0     H50505   1.040  10.334   6.618 -0.4672 -0.0635  0.5254
  383MOL0     H50506   1.038  10.459   6.739 -0.3129  0.8716  0.3932
  383MOL0     H50507   1.175  10.195   6.718 -1.8603  1.2930 -1.5795
  383MOL0     H50508   1.180  10.266   6.883 -0.0107  1.1595  0.6536
  383MOL0     H50509   1.266  10.536   6.887 -0.6364 -1.4609 -0.5329
  383MOL0     H50510   1.617  10.604   6.719 -0.6082 -0.9944  0.1262
  383MOL0     H50511   1.539  10.651   6.877 -3.2310  0.5968  0.7054
  383MOL0     H50512   1.457  10.709   6.583 -1.0319 -0.7921 -0.1695
  383MOL0     H50513   1.534  10.827   6.680  0.4954  1.6295  0.0663
  383MOL0     H50514   1.256  10.730   6.750 -1.1196  0.5118 -2.5997
  383MOL0     H50515   1.344  10.851   6.844 -3.1053  0.3284  0.7037
  383MOL0     H50516   1.355  11.010   6.642 -0.4589 -0.6067 -1.2670
  383MOL0     H50517   1.188  10.966   6.658 -0.3120  0.4989 -0.0141
  383MOL0     H50518   1.026  10.823   6.560 -0.8307  2.0332 -1.8519
  383MOL0     H50519   0.914  10.629   6.482  0.3139  1.5948 -2.3605
  383MOL0     H50520   0.809  10.372   6.122 -0.3549 -0.8902  2.2706
  383MOL0     H50521   0.664  10.190   6.032  0.4358  4.1050  2.0593
  383MOL0     H50522   0.562   9.891   6.098  0.4634  0.2072 -1.0589
  383MOL0     H50523   0.700   9.880   6.201  0.0476  3.9046 -0.3802
  383MOL0     H50524   0.610   9.679   6.003 -1.0992  1.0150  1.3960
  383MOL0     H50525   0.622   9.666   6.182  3.5906 -1.4259  2.0210
  383MOL0     H50526   0.860   9.663   5.986  2.2158 -1.2800  0.2509
  383MOL0     H50527   0.788   9.517   6.069  1.2172  0.3061  2.1189
  383MOL0     H50528   0.919   9.762   6.193  0.8271  0.3563 -1.3288
  383MOL0     H50529   0.849   9.630   6.279 -2.2660  0.5645 -1.0332
  383MOL0     H50530   1.092   9.631   6.098 -0.4546 -0.9072 -0.9408
  383MOL0     H50531   1.032   9.476   6.160 -0.5191  0.4331  0.0667
  383MOL0     H50532   1.107   9.701   6.368  1.3425 -0.1943  0.5999
  383MOL0     H50533   1.226   9.581   6.288 -0.5123 -3.2764 -0.1362
  383MOL0     H50534   1.002   9.506   6.472 -2.0645 -3.2005 -0.8564
  383MOL0     H50535   1.085   9.400   6.354  1.4176 -0.8251  1.7158
  383MOL0     H50536   1.237   9.569   6.556 -0.5982  1.3356 -1.5396
  383MOL0     H50537   1.308   9.468   6.429 -1.7986  0.0090 -1.9272
  383MOL0     H50538   0.997   9.919   6.036  0.4630  0.0228 -1.0765
  383MOL0     H50539   1.133  10.099   6.156 -1.0571  0.5579  0.5775
  383MOL0     H50540   1.258  10.508   6.256  0.8704 -1.9766  0.9549
  383MOL0     H50541   1.384  10.673   6.383  1.1931  2.3310 -1.7236
  383MOL0     H50542   0.473  10.448   7.543 -0.6680 -0.1359  1.3484
  383MOL0     H50543   0.460  10.566   7.767 -1.5570  1.5357 -1.3755
  383MOL0     H50544   0.474  10.810   8.042 -0.3146 -0.1133  1.0274
  383MOL0     H50545   0.396  10.867   8.274  0.1219  0.5770  1.9721
  383MOL0     H50546   0.461  11.019   8.431 -1.5118  2.4201  2.0468
  383MOL0     H50547   0.496  11.001   8.605  1.2336 -2.1007  1.5197
  383MOL0     H50548   0.241  11.003   8.565 -2.4070 -1.2655  1.8609
  383MOL0     H50549   0.258  10.856   8.463 -2.7142 -0.2910  1.7087
  383MOL0     H50550   0.313  10.910   8.755  0.3065 -0.2060 -0.0136
  383MOL0     H50551   0.371  10.760   8.694  3.4524  3.9254  0.7221
  383MOL0     H50552   0.126  10.690   8.642 -4.2234  0.8843  1.6211
  383MOL0     H50553   0.154  10.716   8.804 -7.2174 -1.6098 -0.5105
  383MOL0     H50554  -0.142  10.982   8.744  1.6849  1.0760  3.5086
  383MOL0     H50555   0.742  10.717   8.444 -1.3586  2.7416  1.9446
  383MOL0     H50556   0.843  10.672   8.238 -0.6931 -0.7501  1.4466
  384MOL0     O50557   9.426  10.210  10.813  0.3673  0.1104  0.7062
  384MOL0     C50558   9.507  10.246  10.894 -0.4460  0.0924 -0.6905
  384MOL0     O50559   9.480  10.275  11.026  0.1957  0.2973  0.2379
  384MOL0     C50560   9.356  10.237  11.061  0.9286  0.0724 -0.6529
  384MOL0     C50561   9.246  10.329  11.068  0.1120  0.0505 -0.5425
  384MOL0     C50562   9.120  10.288  11.107  0.4223 -1.2092  0.7108
  384MOL0     C50563   9.092  10.158  11.139 -0.0325  0.7579  0.3993
  384MOL0     O50564   8.967  10.111  11.184 -0.2713 -1.0143  0.5183
  384MOL0     C50565   8.845  10.190  11.155  0.0747  0.5121  0.2106
  384MOL0     C50566   8.721  10.095  11.136 -0.0964 -0.6033 -0.5499
  384MOL0     C50567   8.586  10.164  11.172 -0.9688 -1.0431  0.2655
  384MOL0     C50568   8.466  10.079  11.134 -0.5665  0.1230  0.0332
  384MOL0     C50569   8.341  10.157  11.174 -0.1541 -1.2243 -0.2802
  384MOL0     C50570   8.208  10.096  11.133 -0.5441  0.1762  0.2501
  384MOL0     C50571   8.205  10.085  10.983  0.0376 -0.6770 -0.7674
  384MOL0     C50572   8.064  10.097  10.922  0.3344  0.1082 -0.2850
  384MOL0     N50573   7.988   9.981  10.952  0.4485  1.0775 -0.4857
  384MOL0     C50574   8.019   9.852  10.919 -0.9554  0.3500 -0.6208
  384MOL0     C50575   7.912   9.771  10.953 -1.0487 -0.5983 -0.3352
  384MOL0     C50576   7.910   9.631  10.947 -0.2123 -0.9505  0.0219
  384MOL0     C50577   7.973   9.567  11.065 -0.0563 -0.4426  0.7055
  384MOL0     C50578   7.922   9.429  11.097 -0.8342  0.1000  0.1360
  384MOL0     C50579   7.777   9.425  11.134  1.1636 -0.2631 -0.4359
  384MOL0     O50580   7.740   9.289  11.161 -0.0547 -0.0505 -0.1633
  384MOL0     C50581   7.607   9.266  11.187  0.7967  0.7846  1.3223
  384MOL0     C50582   7.504   9.347  11.213 -0.0555 -0.3735 -0.7105
  384MOL0     C50583   7.378   9.298  11.243  0.6172  1.1456  0.4735
  384MOL0     C50584   7.343   9.163  11.236 -0.0769 -0.2080  0.5909
  384MOL0     C50585   7.205   9.112  11.255  0.1988  0.8498 -0.6548
  384MOL0     O50586   7.201   8.987  11.278 -0.0955  0.0598  0.2638
  384MOL0     C50587   7.088   8.925  11.335  0.1903 -1.3158 -0.5569
  384MOL0     C50588   6.966   8.986  11.378 -1.1582 -0.3242  0.4458
  384MOL0     C50589   6.872   8.908  11.443  0.5758 -0.0582  0.0862
  384MOL0     C50590   6.893   8.768  11.465  0.8529 -1.1021 -0.4533
  384MOL0     O50591   6.812   8.688  11.538 -1.2493 -0.2971 -0.2344
  384MOL0     C50592   6.699   8.743  11.604  0.6028  0.9558  0.0619
  384MOL0     C50593   6.635   8.637  11.691  0.3941 -0.2810 -0.2426
  384MOL0     C50594   6.513   8.705  11.771 -0.3559  0.2360  1.2811
  384MOL0     C50595   6.439   8.610  11.870  0.5891  0.2894  0.3148
  384MOL0     C50596   6.325   8.680  11.945 -0.0272  0.1183 -0.7274
  384MOL0     C50597   6.387   8.819  12.004  0.3987  0.2791  0.2856
  384MOL0     C50598   6.313   8.857  12.139 -0.2211 -0.4545 -0.6199
  384MOL0     C50599   6.368   8.980  12.210  0.3751 -0.2497 -0.8834
  384MOL0    Cl50600   6.261   9.026  12.354  0.5889  0.6737  0.0415
  384MOL0     C50601   7.007   8.715  11.421  0.3145 -0.0788 -0.7209
  384MOL0     C50602   7.106   8.785  11.357 -0.0969  0.2905  0.0174
  384MOL0     O50603   7.109   9.190  11.221  0.0128  0.0967 -0.0650
  384MOL0     C50604   7.449   9.072  11.217 -0.6131 -0.2406 -0.6298
  384MOL0     C50605   7.574   9.127  11.198 -0.5654  0.5950  0.0151
  384MOL0     N50606   7.815   9.858  11.007 -0.6048 -0.2673  0.2888
  384MOL0     N50607   7.854   9.983  10.997 -0.4573  0.2644 -0.7783
  384MOL0     C50608   9.199  10.066  11.137 -0.3528  0.6360 -0.6799
  384MOL0     C50609   9.332  10.110  11.107 -0.2521 -0.2562 -0.8273
  384MOL0     C50610   9.650  10.245  10.851  0.4893 -1.2276  0.4188
  384MOL0     C50611   9.689  10.186  10.728 -0.6718 -1.3981  0.1121
  384MOL0     C50612   9.823  10.168  10.685 -0.9558 -1.0163  0.6385
  384MOL0     C50613   9.926  10.242  10.764  0.5688  1.3133  0.5507
  384MOL0     O50614  10.054  10.255  10.728  0.4418  0.6768  0.9795
  384MOL0     C50615  10.143  10.175  10.810  0.5553  0.0934  0.0696
  384MOL0     C50616  10.161  10.036  10.752 -0.0627  0.4584  0.5619
  384MOL0     C50617  10.238  10.050  10.617 -0.4154 -0.0904 -0.7016
  384MOL0     C50618  10.279   9.907  10.563 -0.6756 -0.4391  0.5351
  384MOL0     C50619  10.167   9.833  10.506  0.8843  0.4606  0.3569
  384MOL0     C50620  10.069   9.764  10.474 -0.9371  0.2564  0.4091
  384MOL0     C50621   9.879  10.316  10.866  0.0060  0.0050 -0.8524
  384MOL0     C50622   9.746  10.322  10.912 -0.1359  0.2959 -0.2458
  384MOL0     H50623   9.257  10.430  11.031  1.9571 -1.1741 -3.7446
  384MOL0     H50624   9.042  10.364  11.103  1.7262  0.1289 -0.6481
  384MOL0     H50625   8.859  10.240  11.059 -1.0005 -0.6803 -0.5976
  384MOL0     H50626   8.811  10.261  11.231 -1.8307 -2.5231  2.4342
  384MOL0     H50627   8.725  10.007  11.200 -0.5632 -1.4287 -1.6282
  384MOL0     H50628   8.724  10.060  11.033  1.8715  0.7406 -1.0228
  384MOL0     H50629   8.595  10.254  11.110 -1.0642 -1.5735 -0.5345
  384MOL0     H50630   8.575  10.196  11.275 -0.8484 -0.2411  0.0328
  384MOL0     H50631   8.456  10.038  11.033  1.2185 -3.1671  1.0453
  384MOL0     H50632   8.473   9.993  11.201 -0.6751  0.2838  0.2518
  384MOL0     H50633   8.342  10.263  11.147  0.9931 -0.9453  0.7641
  384MOL0     H50634   8.334  10.161  11.284 -0.4201 -2.4183 -0.2434
  384MOL0     H50635   8.126  10.161  11.167 -0.9990  0.0465 -0.5600
  384MOL0     H50636   8.201   9.995  11.174  1.1620  0.2065  0.6934
  384MOL0     H50637   8.259  10.167  10.934 -1.4993  1.2966  0.6704
  384MOL0     H50638   8.250   9.994  10.942  0.2696 -0.8001 -0.2381
  384MOL0     H50639   8.064  10.106  10.813  1.0791  0.4882 -0.2574
  384MOL0     H50640   8.006  10.176  10.971  0.9345 -0.1101  0.8078
  384MOL0     H50641   8.114   9.805  10.895 -1.3478 -1.7279  1.4833
  384MOL0     H50642   7.978   9.593  10.870  0.7861  2.1883 -0.8376
  384MOL0     H50643   7.805   9.610  10.926  0.0394 -0.6337 -1.7632
  384MOL0     H50644   7.956   9.621  11.158  0.8148 -0.5503  0.9420
  384MOL0     H50645   8.081   9.562  11.047 -0.0718  1.5460 -0.2117
  384MOL0     H50646   7.932   9.361  11.012 -2.2875  0.0319  0.0077
  384MOL0     H50647   7.983   9.397  11.182  1.2677  3.1546 -0.0667
  384MOL0     H50648   7.712   9.480  11.065  0.3539  1.3499  1.4854
  384MOL0     H50649   7.768   9.478  11.229  2.2935 -0.3771 -0.2582
  384MOL0     H50650   7.509   9.455  11.205  1.0387 -0.1761  1.8471
  384MOL0     H50651   7.295   9.367  11.232 -1.2613 -1.2252 -1.1140
  384MOL0     H50652   6.945   9.091  11.358 -2.6115 -0.4872  0.9893
  384MOL0     H50653   6.789   8.964  11.485 -0.2954 -0.5729 -0.9097
  384MOL0     H50654   6.622   8.774  11.533  1.0741  0.7924 -0.5205
  384MOL0     H50655   6.719   8.825  11.674  1.9539 -0.3470  1.2855
  384MOL0     H50656   6.719   8.589  11.742 -1.1693 -0.5259  2.2614
  384MOL0     H50657   6.593   8.569  11.617 -1.2006  1.2478 -0.7971
  384MOL0     H50658   6.433   8.741  11.706  0.1914 -1.4026 -0.3769
  384MOL0     H50659   6.564   8.785  11.827  1.3450 -0.7073  1.1588
  384MOL0     H50660   6.406   8.522  11.813  0.9757 -0.4981  1.2652
  384MOL0     H50661   6.509   8.570  11.944 -0.1164  0.0823  0.8878
  384MOL0     H50662   6.290   8.612  12.023  0.6115 -0.6095 -1.0638
  384MOL0     H50663   6.229   8.696  11.894 -0.1177  2.0207 -0.0458
  384MOL0     H50664   6.372   8.899  11.932  4.1588  1.7942  0.9703
  384MOL0     H50665   6.492   8.800  12.030 -0.0304 -0.6977  1.4066
  384MOL0     H50666   6.214   8.880  12.098 -1.4319 -1.8797  1.3144
  384MOL0     H50667   6.309   8.767  12.201 -0.6638 -1.0477 -1.4839
  384MOL0     H50668   6.361   9.065  12.142 -0.3402 -0.8413 -1.5674
  384MOL0     H50669   6.473   8.968  12.240 -0.4862  1.8036  3.7645
  384MOL0     H50670   7.017   8.607  11.434  0.8647  0.3560  3.8516
  384MOL0     H50671   7.196   8.733  11.326 -0.7505 -1.5637  1.0562
  384MOL0     H50672   7.445   8.963  11.212  2.4360 -0.3946 -1.8219
  384MOL0     H50673   7.650   9.049  11.197  0.7796  1.8716  0.0834
  384MOL0     H50674   9.180   9.963  11.162 -3.4970  0.6971 -2.3342
  384MOL0     H50675   9.421  10.049  11.119  0.1161 -0.1040 -2.4407
  384MOL0     H50676   9.612  10.139  10.668  0.1729  2.6179 -4.7913
  384MOL0     H50677   9.856  10.108  10.601 -2.5472 -0.8880 -0.1142
  384MOL0     H50678  10.103  10.159  10.910  0.4208 -0.0343 -0.0060
  384MOL0     H50679  10.231  10.240  10.820 -1.4399  2.7847  1.2541
  384MOL0     H50680  10.214   9.971  10.823 -2.8675 -2.0096  0.6204
  384MOL0     H50681  10.060   9.995  10.743 -0.2095  1.3267 -3.0834
  384MOL0     H50682  10.332  10.099  10.642 -1.5767  1.4991  0.8503
  384MOL0     H50683  10.184  10.114  10.547  2.1255  1.4474 -1.3380
  384MOL0     H50684  10.345   9.925  10.478 -0.2254 -1.1647  0.7229
  384MOL0     H50685  10.330   9.848  10.639  1.9686 -1.3219 -1.7554
  384MOL0     H50686   9.971   9.728  10.446 -0.9594 -0.2524  1.1192
  384MOL0     H50687   9.940  10.379  10.929 -2.8103  1.4042  0.6730
  384MOL0     H50688   9.725  10.397  10.988 -1.1988  2.7223 -2.7709
  385MOL0     O50689   9.669   9.809   9.229 -0.4717  0.0535 -0.7207
  385MOL0     C50690   9.728   9.890   9.155  0.1283 -0.1358 -0.2808
  385MOL0     O50691   9.693  10.019   9.137  0.4910 -0.5224 -0.0523
  385MOL0     C50692   9.605  10.098   9.204  0.0840  0.6087  0.6158
  385MOL0     C50693   9.600  10.229   9.173  0.1430 -1.1028  0.1162
  385MOL0     C50694   9.510  10.315   9.240  0.5477  0.0294 -0.9118
  385MOL0     C50695   9.423  10.264   9.337 -0.2671  0.3135  0.8209
  385MOL0     O50696   9.340  10.361   9.381 -0.7199 -0.6224 -0.3355
  385MOL0     C50697   9.273  10.333   9.508 -0.3822 -0.4692 -0.6812
  385MOL0     C50698   9.187  10.459   9.550 -0.0206  0.0189  0.2171
  385MOL0     C50699   9.249  10.597   9.521 -0.9130  0.3909 -1.0865
  385MOL0     C50700   9.161  10.707   9.575 -0.6144 -0.4705 -0.2602
  385MOL0     C50701   9.040  10.747   9.491 -0.2862 -0.3297  0.2969
  385MOL0     C50702   8.963  10.849   9.572 -0.5316  0.0608 -0.3062
  385MOL0     C50703   8.864  10.937   9.491 -0.1025  0.0829  0.7044
  385MOL0     C50704   8.758  10.843   9.397  0.5977 -0.1366 -0.9329
  385MOL0     N50705   8.622  10.889   9.424  0.8295 -1.1500 -0.3984
  385MOL0     C50706   8.579  11.018   9.411  0.1194  0.1609  1.0388
  385MOL0     C50707   8.454  11.010   9.438 -0.1056 -0.0247 -0.0366
  385MOL0     C50708   8.340  11.112   9.408 -0.4540  0.0225 -0.5900
  385MOL0     C50709   8.351  11.223   9.503 -0.0229  0.2070 -0.4132
  385MOL0     C50710   8.365  11.186   9.659  0.5095  0.5669 -0.2994
  385MOL0     C50711   8.337  11.302   9.747 -0.1139  0.2804 -0.1998
  385MOL0     O50712   8.193  11.345   9.752 -0.0260  0.4332 -0.4274
  385MOL0     C50713   8.165  11.479   9.788  0.7647  0.2756 -0.0269
  385MOL0     C50714   8.063  11.491   9.884 -0.2661  0.0115 -0.1519
  385MOL0     C50715   8.018  11.626   9.912 -0.0540  0.5339 -0.1053
  385MOL0     C50716   8.077  11.738   9.856  0.0610  0.3053  0.8153
  385MOL0     C50717   8.033  11.879   9.883 -1.5448 -0.8893  0.2872
  385MOL0     O50718   8.116  11.972   9.809 -0.2306  0.6428  0.3874
  385MOL0     C50719   8.087  12.101   9.831  0.5047  0.1910 -0.4431
  385MOL0     C50720   8.196  12.183   9.854  0.4185 -1.1306  0.3164
  385MOL0     C50721   8.173  12.315   9.883  0.2809  0.3243 -0.6354
  385MOL0     C50722   8.048  12.371   9.894 -0.4119 -0.1459  0.1212
  385MOL0     O50723   8.021  12.498   9.941 -0.2398  0.2576  1.3093
  385MOL0     C50724   8.139  12.562  10.007 -0.1294  0.5580 -0.0215
  385MOL0     C50725   8.081  12.683  10.082 -0.1866  0.6045  0.6827
  385MOL0     C50726   8.015  12.786   9.993 -0.0205  0.7712 -0.1668
  385MOL0     C50727   7.964  12.907  10.072 -0.5160  0.4199 -0.1696
  385MOL0     C50728   7.890  13.018   9.997  0.4957  0.3406  1.1687
  385MOL0     C50729   7.878  13.135  10.086 -0.0895 -0.1702  0.0120
  385MOL0     C50730   8.000  13.225  10.077 -0.1813  0.3199  0.1518
  385MOL0     C50731   7.980  13.351  10.022  0.8061 -0.1072  0.5791
  385MOL0    Cl50732   7.929  13.466  10.147 -0.1826  0.1822 -0.0373
  385MOL0     C50733   7.945  12.298   9.864  1.0723  0.0270  1.0439
  385MOL0     C50734   7.960  12.161   9.842 -0.3953  0.5377 -0.3785
  385MOL0     O50735   7.962  11.902   9.984 -0.8787  0.1761 -0.8075
  385MOL0     C50736   8.174  11.717   9.759  0.2288  0.4285  0.3783
  385MOL0     C50737   8.224  11.588   9.723  0.0556  0.6700 -0.7460
  385MOL0     N50738   8.425  10.890   9.500 -0.4415 -0.0502  0.8342
  385MOL0     N50739   8.530  10.813   9.481  0.4429 -0.5073 -0.0574
  385MOL0     C50740   9.417  10.130   9.368  0.0948 -0.6783  1.0752
  385MOL0     C50741   9.511  10.050   9.306 -0.6884  0.6446 -0.1587
  385MOL0     C50742   9.832   9.843   9.052 -1.1751 -0.8179  0.0082
  385MOL0     C50743   9.885   9.929   8.953  0.0821  0.3447 -0.2214
  385MOL0     C50744   9.960   9.878   8.848  0.1025  0.3641  1.2804
  385MOL0     C50745   9.995   9.745   8.840  0.1988 -0.1254 -1.4264
  385MOL0     O50746  10.068   9.694   8.738 -0.1852 -0.6868  0.4505
  385MOL0     C50747  10.038   9.748   8.608 -0.6179  0.3637  0.2365
  385MOL0     C50748  10.158   9.798   8.530  0.2519  0.2734  0.1461
  385MOL0     C50749  10.292   9.716   8.542  0.4804 -0.1188  0.2133
  385MOL0     C50750  10.268   9.571   8.517  0.1006  0.5403  0.9710
  385MOL0     C50751  10.221   9.540   8.378 -0.1655 -0.2049  0.3133
  385MOL0     C50752  10.174   9.531   8.262  0.2997  0.6263  0.2246
  385MOL0     C50753   9.943   9.662   8.939 -0.6994 -0.2735 -0.2480
  385MOL0     C50754   9.866   9.707   9.049  0.0483  0.4391  0.9068
  385MOL0     H50755   9.667  10.272   9.100 -0.8233  0.6562  0.2159
  385MOL0     H50756   9.524  10.422   9.230  4.1885 -0.0081  1.6504
  385MOL0     H50757   9.352  10.311   9.580 -0.4608 -2.4613 -1.1607
  385MOL0     H50758   9.204  10.249   9.497 -1.2188  0.3844 -2.4874
  385MOL0     H50759   9.164  10.433   9.653  1.6253 -0.9233  0.3764
  385MOL0     H50760   9.087  10.454   9.505 -0.7414  1.7629  1.4858
  385MOL0     H50761   9.277  10.617   9.417  3.8549  1.5586  0.1581
  385MOL0     H50762   9.345  10.614   9.571 -0.9985 -3.2293  0.6122
  385MOL0     H50763   9.121  10.683   9.674 -3.8661  0.5897 -1.1951
  385MOL0     H50764   9.234  10.788   9.585  0.8992 -1.7995 -0.2067
  385MOL0     H50765   8.982  10.657   9.469 -0.2242 -0.8666  2.2218
  385MOL0     H50766   9.061  10.800   9.397  1.5633  0.7085  1.2460
  385MOL0     H50767   9.030  10.918   9.624  0.0158  0.6186 -1.6992
  385MOL0     H50768   8.916  10.798   9.657 -1.8537  4.3060  1.8435
  385MOL0     H50769   8.815  10.991   9.572  0.4317  1.3083  0.2417
  385MOL0     H50770   8.917  11.008   9.426  1.6699 -2.5434 -0.9051
  385MOL0     H50771   8.770  10.741   9.435  2.9630  1.1567  2.3111
  385MOL0     H50772   8.788  10.854   9.292 -1.0839  0.7809 -1.3417
  385MOL0     H50773   8.635  11.105   9.380  1.3124  0.4063  3.6180
  385MOL0     H50774   8.247  11.057   9.428 -0.8949  0.7602 -0.5694
  385MOL0     H50775   8.346  11.148   9.305  2.2831  0.4363 -0.3627
  385MOL0     H50776   8.258  11.280   9.505  0.0217  0.5377  4.1780
  385MOL0     H50777   8.428  11.298   9.482 -1.5069  1.3507 -2.0657
  385MOL0     H50778   8.283  11.118   9.684 -0.6891  2.5795  1.5995
  385MOL0     H50779   8.460  11.142   9.690 -0.7599 -1.0365  1.6026
  385MOL0     H50780   8.410  11.381   9.724  0.3556 -0.0770  0.0291
  385MOL0     H50781   8.368  11.273   9.848 -1.2539  1.5059  0.5210
  385MOL0     H50782   8.019  11.402   9.927 -1.0481 -0.5501 -2.0092
  385MOL0     H50783   7.940  11.637   9.986 -1.0408 -5.1082  0.1246
  385MOL0     H50784   8.296  12.141   9.866 -0.5064 -3.0638  1.8429
  385MOL0     H50785   8.253  12.387   9.901  0.7363 -0.5256  1.0406
  385MOL0     H50786   8.216  12.590   9.934  0.1745 -0.0347  0.0612
  385MOL0     H50787   8.181  12.488  10.076  2.7976 -0.8926 -3.0159
  385MOL0     H50788   8.168  12.725  10.133  2.9698 -1.2651 -2.5887
  385MOL0     H50789   7.998  12.653  10.146  1.5387 -2.8103  1.5905
  385MOL0     H50790   7.934  12.751   9.929  1.9652  2.2105 -3.8156
  385MOL0     H50791   8.087  12.812   9.914  1.4343 -0.9137  0.5478
  385MOL0     H50792   7.907  12.860  10.152  2.0147 -3.4492 -0.3646
  385MOL0     H50793   8.050  12.959  10.117 -0.9644  1.6270 -0.6627
  385MOL0     H50794   7.789  12.980   9.976  0.9063 -0.1359 -0.0001
  385MOL0     H50795   7.942  13.049   9.906 -1.7466  0.4547 -0.1409
  385MOL0     H50796   7.864  13.096  10.188 -0.3353 -5.1339 -1.6761
  385MOL0     H50797   7.793  13.199  10.061 -1.1141 -1.3836  0.3122
  385MOL0     H50798   8.041  13.245  10.176 -0.4390 -1.7406  0.7346
  385MOL0     H50799   8.073  13.179  10.010 -1.1703 -0.7493 -0.2171
  385MOL0     H50800   7.893  13.338   9.956  1.2783 -0.7454  0.0628
  385MOL0     H50801   8.069  13.387   9.969  1.9120 -2.6121  0.5749
  385MOL0     H50802   7.848  12.345   9.874  0.5776 -0.1759 -1.9641
  385MOL0     H50803   7.873  12.101   9.819  0.1271 -0.6130  0.5372
  385MOL0     H50804   8.226  11.794   9.703  0.7212 -0.1578  0.0300
  385MOL0     H50805   8.292  11.585   9.638 -1.5206  2.5181 -2.1812
  385MOL0     H50806   9.355  10.090   9.447  1.7792 -2.5045  1.5503
  385MOL0     H50807   9.495   9.945   9.328  0.0101  0.0953 -2.0714
  385MOL0     H50808   9.847  10.029   8.972 -5.2915 -1.6710  1.6711
  385MOL0     H50809   9.977   9.949   8.768  0.0419 -1.3365 -0.3135
  385MOL0     H50810   9.972   9.833   8.589  0.2386  0.9882  0.0053
  385MOL0     H50811   9.995   9.663   8.553  1.3444 -1.7646  1.8049
  385MOL0     H50812  10.127   9.820   8.427 -1.5678  1.0880  0.8399
  385MOL0     H50813  10.180   9.897   8.573 -0.2222  0.6258 -0.4112
  385MOL0     H50814  10.325   9.728   8.646  0.2238 -1.3904  0.4563
  385MOL0     H50815  10.366   9.764   8.477 -0.6015  0.5473 -0.5611
  385MOL0     H50816  10.363   9.517   8.513 -0.3678 -0.2629 -2.1293
  385MOL0     H50817  10.202   9.523   8.590  0.5052 -0.9953  0.3543
  385MOL0     H50818  10.129   9.499   8.170 -0.9168  0.2993  0.9215
  385MOL0     H50819   9.954   9.554   8.932 -6.5979 -1.2696  0.7030
  385MOL0     H50820   9.821   9.640   9.122 -1.5102 -2.0755 -2.1104
  386MOL0     O50821   4.806   4.815   7.869 -0.2669 -0.2046  0.0167
  386MOL0     C50822   4.910   4.828   7.925  0.5758  0.9560 -0.6460
  386MOL0     O50823   5.030   4.850   7.875  0.7749 -0.9477  0.3515
  386MOL0     C50824   5.037   4.927   7.755 -0.0453 -0.0034  0.7587
  386MOL0     C50825   4.944   5.023   7.711  0.0587  0.5199  1.1798
  386MOL0     C50826   4.969   5.094   7.592  0.6844  0.4512 -0.1019
  386MOL0     C50827   5.078   5.069   7.508  1.1565 -0.5393 -0.0519
  386MOL0     O50828   5.077   5.107   7.372  0.6885  0.1308  0.3462
  386MOL0     C50829   5.072   5.003   7.272  1.3056  0.7264  0.2385
  386MOL0     C50830   5.209   4.959   7.241 -0.0085 -0.3473 -0.1080
  386MOL0     C50831   5.236   4.813   7.253  0.4222  0.9990  0.8886
  386MOL0     C50832   5.174   4.741   7.127  0.7140 -0.3325  0.4794
  386MOL0     C50833   5.228   4.603   7.086 -0.4989 -0.6385  0.3493
  386MOL0     C50834   5.381   4.595   7.121  0.0807  0.0337  0.2374
  386MOL0     C50835   5.437   4.462   7.063  0.9725 -0.3856 -0.2881
  386MOL0     C50836   5.579   4.450   7.104 -0.0273 -0.1318  0.0738
  386MOL0     N50837   5.663   4.376   7.006  0.1267  0.2398 -0.1687
  386MOL0     C50838   5.749   4.431   6.915 -0.1626 -0.8753  0.2774
  386MOL0     C50839   5.816   4.326   6.854  0.5066 -0.6783 -1.3253
  386MOL0     C50840   5.922   4.329   6.749 -0.1676 -1.4698  0.3417
  386MOL0     C50841   6.041   4.419   6.784  0.0377 -0.0924 -0.0623
  386MOL0     C50842   6.137   4.344   6.878 -0.0794  1.1618 -0.6531
  386MOL0     C50843   6.268   4.409   6.894 -0.4407  0.0142 -0.1062
  386MOL0     O50844   6.328   4.401   6.770  0.2577 -0.0091  0.2917
  386MOL0     C50845   6.437   4.481   6.738  0.3184 -0.1279  0.6760
  386MOL0     C50846   6.481   4.468   6.607 -0.3569 -0.1999  1.2154
  386MOL0     C50847   6.597   4.524   6.569  0.5803  0.3881  0.3028
  386MOL0     C50848   6.672   4.613   6.652 -0.1237  0.5646  0.1281
  386MOL0     C50849   6.805   4.659   6.605 -0.3386  0.1113  0.3844
  386MOL0     O50850   6.862   4.605   6.491  0.3239 -0.1127 -0.9210
  386MOL0     C50851   6.987   4.654   6.457  1.1521  0.9629  0.9689
  386MOL0     C50852   7.020   4.790   6.438 -0.0795  0.2030  0.6508
  386MOL0     C50853   7.142   4.815   6.367  1.4714  0.1395 -1.0089
  386MOL0     C50854   7.232   4.714   6.325 -0.1780  0.3528  0.5416
  386MOL0     O50855   7.354   4.731   6.260 -0.4439 -0.1077 -0.4392
  386MOL0     C50856   7.402   4.856   6.224  0.1940 -0.5128 -0.1846
  386MOL0     C50857   7.549   4.843   6.200 -0.5435  0.4261  0.1756
  386MOL0     C50858   7.627   4.960   6.135 -0.0318  0.9853  0.1782
  386MOL0     C50859   7.761   5.006   6.196  0.9170  0.4781 -0.8518
  386MOL0     C50860   7.874   4.917   6.155  0.1775 -0.7881 -0.1372
  386MOL0     C50861   8.017   4.983   6.182  0.2414  0.2236 -0.4488
  386MOL0     C50862   8.049   4.994   6.329  0.2272 -1.0731  0.1621
  386MOL0     C50863   8.176   5.073   6.344  0.6374 -0.6612  0.4897
  386MOL0    Cl50864   8.314   4.977   6.294  0.6136 -0.4453 -0.1449
  386MOL0     C50865   7.198   4.582   6.344  0.0521 -0.5687 -0.2767
  386MOL0     C50866   7.076   4.555   6.412  0.3917 -0.8481  0.3626
  386MOL0     O50867   6.844   4.756   6.667  0.8441 -0.0905  0.2659
  386MOL0     C50868   6.630   4.641   6.779 -0.9223  0.3092 -0.1082
  386MOL0     C50869   6.512   4.572   6.822 -0.1242  0.6814 -0.0791
  386MOL0     N50870   5.757   4.211   6.906 -0.2536 -0.0005  0.3618
  386MOL0     N50871   5.671   4.241   6.995  0.9671  0.4270  0.8330
  386MOL0     C50872   5.169   4.977   7.556  0.0527  0.8114  0.4552
  386MOL0     C50873   5.157   4.905   7.678 -0.7732  0.4018 -1.0441
  386MOL0     C50874   4.909   4.793   8.071 -0.6224 -0.1428  0.1242
  386MOL0     C50875   4.801   4.831   8.147 -0.2579 -0.0730 -0.3420
  386MOL0     C50876   4.796   4.798   8.279  0.8490  0.3486 -0.2634
  386MOL0     C50877   4.895   4.726   8.349  0.2920 -0.6972 -0.4162
  386MOL0     O50878   4.900   4.692   8.479 -0.1843 -0.1129  0.6507
  386MOL0     C50879   4.782   4.698   8.557  0.0757  0.5685 -0.1270
  386MOL0     C50880   4.686   4.574   8.539  0.6620  0.3896 -0.5548
  386MOL0     C50881   4.745   4.442   8.566 -0.2765 -0.4836 -0.5546
  386MOL0     C50882   4.650   4.327   8.521 -0.3237 -0.9413  0.4121
  386MOL0     C50883   4.721   4.211   8.567  0.1189  0.2007  0.3227
  386MOL0     C50884   4.778   4.113   8.619 -0.4847  0.0515  0.4387
  386MOL0     C50885   5.017   4.704   8.283  0.1027  0.3463  0.6203
  386MOL0     C50886   5.020   4.723   8.135  0.2678 -0.8030  0.3110
  386MOL0     H50887   4.854   5.048   7.765  0.1352 -0.7959  1.9656
  386MOL0     H50888   4.893   5.164   7.561 -1.1361 -1.9823 -1.4785
  386MOL0     H50889   5.014   5.030   7.183  1.8727 -1.9270 -1.0136
  386MOL0     H50890   5.026   4.909   7.305  0.2495  1.6795  1.6183
  386MOL0     H50891   5.285   5.013   7.299 -1.0350  1.9947 -0.7981
  386MOL0     H50892   5.217   4.993   7.138 -0.5022  2.4353  0.6866
  386MOL0     H50893   5.198   4.769   7.346 -4.6852  3.1273  0.1445
  386MOL0     H50894   5.344   4.801   7.255  0.2568 -0.8268  0.9397
  386MOL0     H50895   5.065   4.732   7.122  0.7030 -0.8613  1.4171
  386MOL0     H50896   5.204   4.800   7.040 -0.0819 -0.1446  0.3319
  386MOL0     H50897   5.206   4.597   6.979 -3.9137 -0.8161  0.9603
  386MOL0     H50898   5.174   4.525   7.140 -0.2013 -0.4051  0.9868
  386MOL0     H50899   5.395   4.588   7.229  3.0090 -1.2821 -0.1291
  386MOL0     H50900   5.423   4.683   7.071  0.7384 -0.6151 -0.3812
  386MOL0     H50901   5.370   4.383   7.098 -0.2122  1.6923  2.5187
  386MOL0     H50902   5.431   4.480   6.955 -0.5192  2.1663  0.1278
  386MOL0     H50903   5.582   4.392   7.197 -3.5860 -0.9360 -0.1703
  386MOL0     H50904   5.615   4.552   7.122 -0.8786  0.3595 -0.9028
  386MOL0     H50905   5.772   4.535   6.900  1.1873 -0.9730  1.5123
  386MOL0     H50906   5.880   4.358   6.653 -0.6437  0.6000  1.1266
  386MOL0     H50907   5.960   4.226   6.748 -0.4242 -1.5777  1.1578
  386MOL0     H50908   6.004   4.512   6.826 -2.3216 -0.9780 -0.0154
  386MOL0     H50909   6.080   4.442   6.685 -1.9788 -1.0049 -1.1381
  386MOL0     H50910   6.089   4.343   6.976 -1.7043 -1.7218 -1.3367
  386MOL0     H50911   6.162   4.238   6.866 -1.6085  0.2053  3.2103
  386MOL0     H50912   6.324   4.352   6.969  3.8001 -0.2441 -3.1510
  386MOL0     H50913   6.266   4.509   6.937 -0.9704  0.6800 -1.5942
  386MOL0     H50914   6.430   4.403   6.537 -2.4090  1.4960  1.0388
  386MOL0     H50915   6.632   4.513   6.466 -1.7026  1.0204 -0.6109
  386MOL0     H50916   6.949   4.866   6.468  1.9120  1.4631  2.3975
  386MOL0     H50917   7.159   4.921   6.350 -0.9316  0.8550  0.4899
  386MOL0     H50918   7.401   4.929   6.306  3.2431 -0.3166 -0.2013
  386MOL0     H50919   7.341   4.906   6.147  0.9121 -1.1085 -1.1706
  386MOL0     H50920   7.557   4.761   6.127 -1.8086  0.6323 -0.2204
  386MOL0     H50921   7.594   4.814   6.295  1.6014  3.4097  0.2394
  386MOL0     H50922   7.561   5.047   6.140 -1.0409  0.2239  0.2782
  386MOL0     H50923   7.647   4.938   6.030  1.7039  1.4593  0.3779
  386MOL0     H50924   7.780   5.112   6.173 -1.3298  1.7240  2.3528
  386MOL0     H50925   7.756   4.995   6.304 -0.2998  0.6670 -0.8821
  386MOL0     H50926   7.868   4.915   6.046  2.9965  0.1180 -0.3981
  386MOL0     H50927   7.860   4.816   6.194 -0.7161 -0.7096 -0.2349
  386MOL0     H50928   8.021   5.083   6.139 -1.7487  1.7976  2.6950
  386MOL0     H50929   8.091   4.917   6.134  0.5190  1.1828 -1.3733
  386MOL0     H50930   7.969   5.036   6.390  0.5169 -1.9306  1.1478
  386MOL0     H50931   8.063   4.892   6.366  3.0559 -0.2908  1.5427
  386MOL0     H50932   8.190   5.103   6.448 -0.1415 -0.1928  0.4632
  386MOL0     H50933   8.169   5.170   6.293 -0.1613 -1.1861 -0.4317
  386MOL0     H50934   7.251   4.504   6.291 -0.1327  0.3398 -1.8563
  386MOL0     H50935   7.036   4.460   6.445 -3.3429  0.3279 -0.2979
  386MOL0     H50936   6.677   4.701   6.857 -0.9072  1.1857 -0.7771
  386MOL0     H50937   6.476   4.583   6.923 -2.1492 -0.2883 -0.6468
  386MOL0     H50938   5.248   4.940   7.492  1.5116  1.1857  1.9649
  386MOL0     H50939   5.223   4.829   7.719  1.2338  0.7419 -3.4177
  386MOL0     H50940   4.718   4.888   8.105 -0.6552 -1.6962 -1.9194
  386MOL0     H50941   4.714   4.838   8.339 -0.1476  0.2822 -1.5267
  386MOL0     H50942   4.731   4.794   8.550  1.1418  1.7292  4.7007
  386MOL0     H50943   4.803   4.696   8.664 -3.6143  0.6546  0.7032
  386MOL0     H50944   4.609   4.589   8.616  1.1413 -0.1521  0.0369
  386MOL0     H50945   4.635   4.585   8.443  1.0603  1.8659 -0.6223
  386MOL0     H50946   4.765   4.434   8.674  1.0127 -3.8914 -0.9012
  386MOL0     H50947   4.843   4.433   8.518  1.0893  1.5135  1.6310
  386MOL0     H50948   4.549   4.347   8.558  0.5463  2.3902  1.3798
  386MOL0     H50949   4.628   4.329   8.414 -0.7332  2.4104  0.4573
  386MOL0     H50950   4.834   4.029   8.657  0.1229  0.4918  0.5231
  386MOL0     H50951   5.104   4.659   8.330  0.6632  1.5504  0.7668
  386MOL0     H50952   5.113   4.714   8.080 -1.5226  3.9604 -4.2971
  387MOL0     O50953  11.018  11.395   6.580  0.4930 -0.4979  0.5702
  387MOL0     C50954  10.944  11.438   6.489 -0.4160  0.0761  0.5918
  387MOL0     O50955  10.986  11.484   6.369  0.0551 -0.3417 -0.0815
  387MOL0     C50956  11.119  11.456   6.348 -0.6432  0.2881 -1.2609
  387MOL0     C50957  11.213  11.555   6.389  0.3006 -0.3349  0.2020
  387MOL0     C50958  11.343  11.556   6.346 -0.3726  0.3165  0.0907
  387MOL0     C50959  11.391  11.451   6.269  0.3549 -0.3793 -0.6293
  387MOL0     O50960  11.523  11.478   6.230  0.1200  0.3457 -0.3434
  387MOL0     C50961  11.591  11.374   6.156 -1.1699 -0.2817  0.9281
  387MOL0     C50962  11.732  11.422   6.122  0.2318  0.4015 -0.2886
  387MOL0     C50963  11.794  11.331   6.017 -0.9754 -0.6546  0.0701
  387MOL0     C50964  11.884  11.219   6.085 -0.3831  0.3073  0.4424
  387MOL0     C50965  12.028  11.266   6.107  0.0269 -0.1296  0.4081
  387MOL0     C50966  12.102  11.202   6.223  0.0422  0.6801  0.3779
  387MOL0     C50967  12.063  11.252   6.360  0.0415 -0.1920  0.0627
  387MOL0     C50968  12.148  11.186   6.464 -0.5251  0.2134 -0.8633
  387MOL0     N50969  12.148  11.034   6.456 -0.2967  0.4153 -0.3309
  387MOL0     C50970  12.040  10.947   6.468  0.9819  0.3074  0.0084
  387MOL0     C50971  12.093  10.827   6.454  0.0366  1.0378  0.9051
  387MOL0     C50972  12.018  10.700   6.452 -0.4074  0.3798  0.5149
  387MOL0     C50973  12.053  10.626   6.585 -0.6660  0.8077 -0.3151
  387MOL0     C50974  11.940  10.540   6.636  0.1709 -0.8621  0.3143
  387MOL0     C50975  11.914  10.419   6.552 -0.2581  0.3335 -0.0389
  387MOL0     O50976  11.847  10.460   6.432  0.6899  0.7938  0.4408
  387MOL0     C50977  11.827  10.361   6.335 -0.6482  0.2144  0.6241
  387MOL0     C50978  11.860  10.220   6.351  0.6068  0.2538  0.3194
  387MOL0     C50979  11.835  10.126   6.243  0.8749 -0.4679 -0.8475
  387MOL0     C50980  11.776  10.174   6.118  0.3662 -0.2537 -0.8401
  387MOL0     C50981  11.763  10.075   6.004 -0.8297  0.6669  0.1500
  387MOL0     O50982  11.720  10.118   5.882 -0.5706 -1.2865  0.1920
  387MOL0     C50983  11.675  10.038   5.781  0.6897 -0.1910  0.3295
  387MOL0     C50984  11.723  10.067   5.654  0.0605 -0.2949 -0.4597
  387MOL0     C50985  11.686   9.986   5.541 -0.2663 -0.1378  0.7796
  387MOL0     C50986  11.613   9.871   5.561 -0.0653  0.5270 -0.0478
  387MOL0     O50987  11.589   9.790   5.456  0.6627 -0.3415 -0.1890
  387MOL0     C50988  11.599   9.642   5.464  0.2364  0.0977 -0.6785
  387MOL0     C50989  11.632   9.561   5.341  0.6448  0.6000 -0.4275
  387MOL0     C50990  11.549   9.593   5.215 -0.1855 -0.5050  0.4433
  387MOL0     C50991  11.394   9.572   5.237  0.0586  0.0311  0.5007
  387MOL0     C50992  11.311   9.599   5.114  0.5129  0.1617 -0.4070
  387MOL0     C50993  11.357   9.545   4.983 -0.2309 -0.1190  0.3474
  387MOL0     C50994  11.391   9.396   4.992  0.7729 -0.1536 -0.2435
  387MOL0     C50995  11.277   9.308   5.029 -0.2553 -0.4824  0.7130
  387MOL0    Cl50996  11.143   9.310   4.909  0.3244  0.5793  0.4928
  387MOL0     C50997  11.568   9.832   5.691  0.2123 -0.0923 -0.8223
  387MOL0     C50998  11.588   9.922   5.795  0.4739 -0.3336 -0.4632
  387MOL0     O50999  11.781   9.962   6.038  0.2200 -0.1185 -0.7807
  387MOL0     C51000  11.732  10.313   6.113 -0.2560  0.6608 -1.5459
  387MOL0     C51001  11.766  10.407   6.210 -0.5304  1.0207 -0.0917
  387MOL0     N51002  12.231  10.831   6.447  0.1153 -0.0809 -0.2821
  387MOL0     N51003  12.259  10.959   6.450 -0.6043  0.0274  0.0149
  387MOL0     C51004  11.300  11.349   6.230  0.2164  0.3074 -0.7025
  387MOL0     C51005  11.169  11.346   6.271  0.1859 -0.0428 -0.5971
  387MOL0     C51006  10.798  11.449   6.519 -0.2451  0.0356  0.6426
  387MOL0     C51007  10.736  11.412   6.637  0.3822  0.3889 -0.0298
  387MOL0     C51008  10.593  11.434   6.663 -0.9149  0.0844  0.0273
  387MOL0     C51009  10.517  11.510   6.574 -0.3015  0.0238  0.4350
  387MOL0     O51010  10.383  11.545   6.594  0.2982 -0.9227  0.6140
  387MOL0     C51011  10.341  11.580   6.728  0.6248 -0.6192 -1.1089
  387MOL0     C51012  10.417  11.709   6.773 -0.1344  0.3075 -0.3347
  387MOL0     C51013  10.385  11.773   6.914 -0.7187  0.5558 -0.1474
  387MOL0     C51014  10.276  11.894   6.912  0.0484 -0.7533  0.9340
  387MOL0     C51015  10.315  12.006   6.835 -0.0505 -0.6091  0.7536
  387MOL0     C51016  10.355  12.109   6.780  0.2243 -0.3048 -0.4894
  387MOL0     C51017  10.569  11.551   6.454 -0.6656  1.2363 -0.0983
  387MOL0     C51018  10.709  11.516   6.421  1.0307 -0.5884  0.2286
  387MOL0     H51019  11.187  11.629   6.464  1.1001 -1.5459  1.7436
  387MOL0     H51020  11.406  11.632   6.392 -0.9686  1.1461 -0.4408
  387MOL0     H51021  11.549  11.368   6.056 -2.3289  2.6161  1.1227
  387MOL0     H51022  11.597  11.278   6.208 -1.4967 -0.5274  0.5102
  387MOL0     H51023  11.803  11.426   6.206  2.1707 -1.0606 -1.7594
  387MOL0     H51024  11.722  11.527   6.093 -3.2776  0.0623 -0.6852
  387MOL0     H51025  11.858  11.388   5.949 -0.9414 -1.3747 -0.5114
  387MOL0     H51026  11.711  11.294   5.957 -2.7832  1.1323  1.3437
  387MOL0     H51027  11.836  11.185   6.178  1.5536  0.7874  1.6662
  387MOL0     H51028  11.870  11.131   6.021 -0.0399 -0.5580  1.5238
  387MOL0     H51029  12.037  11.375   6.106  1.0956 -0.2026 -0.1014
  387MOL0     H51030  12.079  11.228   6.018 -2.6225 -0.2506 -1.1412
  387MOL0     H51031  12.207  11.219   6.198  0.5167 -1.4768  0.7383
  387MOL0     H51032  12.081  11.095   6.220 -2.2817  1.0986 -0.3671
  387MOL0     H51033  12.081  11.360   6.369  1.0673 -0.5233  3.2762
  387MOL0     H51034  11.957  11.242   6.385 -0.0707  1.8358  0.5838
  387MOL0     H51035  12.120  11.221   6.564 -0.8473 -0.1800 -0.8108
  387MOL0     H51036  12.252  11.217   6.450 -0.8136  1.6740  0.0591
  387MOL0     H51037  11.936  10.973   6.456  0.3308 -1.5528  1.1014
  387MOL0     H51038  12.049  10.627   6.377 -3.0924 -0.1707 -0.1938
  387MOL0     H51039  11.913  10.730   6.439 -0.2583  1.2043  1.1476
  387MOL0     H51040  12.061  10.697   6.668  3.9707  0.9073 -0.5794
  387MOL0     H51041  12.147  10.571   6.591 -0.4051  1.4023  2.0792
  387MOL0     H51042  11.960  10.507   6.738  1.7738  0.0124  0.3072
  387MOL0     H51043  11.852  10.605   6.638 -0.3959 -1.6087  0.0490
  387MOL0     H51044  11.845  10.359   6.612  3.0417 -0.3366  3.5097
  387MOL0     H51045  12.007  10.364   6.538  1.2283  2.4671  0.8987
  387MOL0     H51046  11.901  10.175   6.441 -2.3039  0.6740  1.9702
  387MOL0     H51047  11.862  10.021   6.245 -1.9085 -1.2877  1.1307
  387MOL0     H51048  11.778  10.161   5.652 -2.8391  1.6761  2.3397
  387MOL0     H51049  11.733  10.015   5.448  1.0484 -2.1330  0.7579
  387MOL0     H51050  11.508   9.607   5.513 -0.0651  0.5182 -0.9307
  387MOL0     H51051  11.674   9.622   5.542 -0.8429  0.0768  0.3703
  387MOL0     H51052  11.631   9.457   5.372  1.7091  0.9111  0.7564
  387MOL0     H51053  11.739   9.579   5.324  1.8696 -5.4187 -1.1712
  387MOL0     H51054  11.600   9.546   5.131  3.1975  2.3512  0.6462
  387MOL0     H51055  11.560   9.700   5.196  0.0709 -0.8961 -1.9173
  387MOL0     H51056  11.387   9.470   5.275 -0.7043 -0.1093 -0.0076
  387MOL0     H51057  11.361   9.641   5.315  0.5219 -0.7227  1.3909
  387MOL0     H51058  11.316   9.708   5.107  2.4620  0.4976  3.4089
  387MOL0     H51059  11.208   9.566   5.125  0.4605  0.8830  1.8804
  387MOL0     H51060  11.445   9.604   4.953  0.3696 -0.5408  1.2400
  387MOL0     H51061  11.284   9.580   4.909  0.4679  0.5658 -0.0306
  387MOL0     H51062  11.423   9.353   4.897 -1.4366 -3.8037  0.4464
  387MOL0     H51063  11.463   9.391   5.074  0.2070  0.6054  0.3147
  387MOL0     H51064  11.241   9.328   5.130 -3.5500  1.5249 -0.6551
  387MOL0     H51065  11.311   9.204   5.027 -1.4300 -0.8934 -1.0105
  387MOL0     H51066  11.507   9.744   5.709 -3.4982  2.2132 -1.2506
  387MOL0     H51067  11.552   9.906   5.896  0.5516  1.8700 -0.0545
  387MOL0     H51068  11.691  10.354   6.021 -0.3879  2.0135 -0.9195
  387MOL0     H51069  11.768  10.513   6.186 -0.0866  0.9500 -0.3931
  387MOL0     H51070  11.336  11.271   6.163  1.5766  1.7616 -1.7494
  387MOL0     H51071  11.096  11.275   6.233 -0.5461  0.2663  0.1998
  387MOL0     H51072  10.793  11.355   6.709 -0.4465 -1.9616 -1.1610
  387MOL0     H51073  10.556  11.402   6.760  1.5483  1.2008  1.4426
  387MOL0     H51074  10.361  11.499   6.800 -1.0246  0.9809  1.3034
  387MOL0     H51075  10.232  11.594   6.733  1.0911  5.4018 -0.1490
  387MOL0     H51076  10.519  11.674   6.796 -1.3538 -2.2839  1.6629
  387MOL0     H51077  10.404  11.782   6.693  1.6578 -0.0012 -0.9584
  387MOL0     H51078  10.472  11.807   6.971  1.6664 -1.1145 -2.5515
  387MOL0     H51079  10.348  11.685   6.968 -0.8558 -0.9930 -2.6175
  387MOL0     H51080  10.179  11.863   6.871 -2.3695  3.5697  2.6935
  387MOL0     H51081  10.253  11.923   7.015 -1.1050 -0.8468  0.7148
  387MOL0     H51082  10.390  12.198   6.732  0.5287 -1.1108 -1.8260
  387MOL0     H51083  10.497  11.595   6.387 -2.2349 -1.8363 -0.6365
  387MOL0     H51084  10.737  11.548   6.322 -0.0301  1.1485  0.4466
  388MOL0     O51085   0.127   4.343   0.283 -0.0668 -0.0608  0.3658
  388MOL0     C51086   0.083   4.238   0.235 -0.1869  0.5943 -1.1249
  388MOL0     O51087  -0.025   4.234   0.141 -0.1704  0.4342  0.1584
  388MOL0     C51088  -0.098   4.338   0.094 -0.0566 -0.0027  0.3831
  388MOL0     C51089  -0.151   4.321  -0.034 -0.4746 -0.2096  0.0002
  388MOL0     C51090  -0.214   4.431  -0.105  0.0255 -0.9243 -0.2517
  388MOL0     C51091  -0.222   4.551  -0.040  0.6057  0.1182 -0.5139
  388MOL0     O51092  -0.278   4.641  -0.128 -0.0351 -0.4119 -0.3999
  388MOL0     C51093  -0.330   4.747  -0.053  0.7317 -0.6001 -0.4349
  388MOL0     C51094  -0.376   4.860  -0.144 -0.7689 -0.1845  0.8633
  388MOL0     C51095  -0.457   4.969  -0.072 -0.0314 -0.1309  0.5194
  388MOL0     C51096  -0.588   4.908  -0.010  0.1525  0.3081  0.1285
  388MOL0     C51097  -0.685   5.019   0.013  0.1031  0.2997 -1.0698
  388MOL0     C51098  -0.634   5.092   0.140 -0.3235  0.2228 -0.1591
  388MOL0     C51099  -0.737   5.211   0.146  0.3078  0.2271 -0.1983
  388MOL0     C51100  -0.763   5.262   0.289 -0.9882  0.7182 -0.0221
  388MOL0     N51101  -0.809   5.396   0.294 -0.5247 -0.7308  0.2799
  388MOL0     C51102  -0.938   5.433   0.313  0.3249  0.4243  0.4392
  388MOL0     C51103  -0.937   5.560   0.325 -1.0620 -0.6603  0.1031
  388MOL0     C51104  -1.071   5.634   0.353  0.4180  1.0569  1.7578
  388MOL0     C51105  -1.031   5.769   0.419 -0.4411  0.3490 -0.4269
  388MOL0     C51106  -1.145   5.851   0.474  0.3148  0.4745 -0.1797
  388MOL0     C51107  -1.104   5.976   0.534 -0.5544 -0.1789  0.0141
  388MOL0     O51108  -1.018   6.044   0.443 -0.5043 -0.2377 -0.1297
  388MOL0     C51109  -0.998   6.181   0.456  0.5423 -0.7102 -0.5589
  388MOL0     C51110  -0.931   6.238   0.355  1.0398 -0.4838  0.7116
  388MOL0     C51111  -0.933   6.376   0.334 -0.4948 -0.0129 -0.3054
  388MOL0     C51112  -1.002   6.458   0.434 -0.5740 -0.1489  0.4756
  388MOL0     C51113  -1.022   6.602   0.419 -0.0560 -0.1861  0.1454
  388MOL0     O51114  -1.093   6.665   0.516 -0.2181 -0.0308  0.1827
  388MOL0     C51115  -1.098   6.798   0.521 -0.1120 -0.3094 -0.4526
  388MOL0     C51116  -0.986   6.879   0.496  0.2466 -0.0954  0.4263
  388MOL0     C51117  -0.999   7.015   0.514 -0.2540 -0.6575  0.7721
  388MOL0     C51118  -1.125   7.080   0.544 -0.6050  0.1990 -0.2674
  388MOL0     O51119  -1.154   7.210   0.571 -1.3785 -0.2412 -0.0234
  388MOL0     C51120  -1.049   7.304   0.563  0.9641  0.6084 -0.2354
  388MOL0     C51121  -0.965   7.296   0.698  0.4482 -0.6677 -0.6428
  388MOL0     C51122  -1.056   7.366   0.804  0.2087  0.5467  0.6146
  388MOL0     C51123  -0.989   7.360   0.945  1.0189  0.5280  0.2923
  388MOL0     C51124  -1.097   7.345   1.051  1.2640 -0.4503  0.0314
  388MOL0     C51125  -1.023   7.339   1.188  0.1847  0.0377 -0.2758
  388MOL0     C51126  -1.135   7.316   1.287 -0.5411 -0.4009  0.2855
  388MOL0     C51127  -1.092   7.311   1.431  0.6253  1.0076 -0.3461
  388MOL0    Cl51128  -1.234   7.279   1.522  0.1458  0.0011  0.2961
  388MOL0     C51129  -1.233   6.987   0.569  0.0595 -0.4239 -1.0158
  388MOL0     C51130  -1.223   6.853   0.554 -0.3271 -0.1325 -0.7911
  388MOL0     O51131  -0.970   6.651   0.319 -0.4711  0.2631 -0.8730
  388MOL0     C51132  -1.042   6.394   0.544  0.8817  0.5570 -0.3728
  388MOL0     C51133  -1.046   6.259   0.565 -0.0107  0.0996 -0.6362
  388MOL0     N51134  -0.811   5.607   0.307 -0.6674  0.2289  0.8068
  388MOL0     N51135  -0.730   5.509   0.287  0.4590  0.6256 -0.2698
  388MOL0     C51136  -0.202   4.560   0.101  0.2376 -0.3958 -0.0363
  388MOL0     C51137  -0.134   4.457   0.164 -0.7932  0.1402  0.6894
  388MOL0     C51138   0.120   4.103   0.286  0.3889 -0.4511  0.3809
  388MOL0     C51139   0.242   4.100   0.351 -0.0360  0.3235  0.1014
  388MOL0     C51140   0.269   3.995   0.430  0.1178 -0.1488 -0.4687
  388MOL0     C51141   0.178   3.886   0.442 -0.0069 -0.4551 -0.7003
  388MOL0     O51142   0.230   3.779   0.517  0.5451 -0.8649  0.2968
  388MOL0     C51143   0.170   3.646   0.503  0.3492  0.2019  0.7384
  388MOL0     C51144   0.227   3.579   0.381 -0.8217 -0.1002  0.3517
  388MOL0     C51145   0.356   3.503   0.416 -0.8241  1.4303  0.8191
  388MOL0     C51146   0.412   3.416   0.302  0.6227 -0.7572  0.2670
  388MOL0     C51147   0.443   3.490   0.179  0.0549 -0.4998  0.1713
  388MOL0     C51148   0.478   3.555   0.078 -0.6689  0.1640 -0.0132
  388MOL0     C51149   0.054   3.893   0.378  0.5034  0.0211  0.2353
  388MOL0     C51150   0.026   3.999   0.298  1.1838 -0.3430  0.1806
  388MOL0     H51151  -0.143   4.224  -0.082 -0.4050 -0.8902  1.3597
  388MOL0     H51152  -0.243   4.428  -0.210  0.0188  2.3920 -0.4504
  388MOL0     H51153  -0.256   4.787   0.017 -0.8872 -1.1709  1.7280
  388MOL0     H51154  -0.421   4.714  -0.001  1.7728 -0.2765  1.7075
  388MOL0     H51155  -0.435   4.818  -0.226 -3.2532 -0.7321  2.8039
  388MOL0     H51156  -0.291   4.895  -0.203 -1.0659 -1.8219 -0.6202
  388MOL0     H51157  -0.473   5.052  -0.141  5.4269  1.0463  0.2427
  388MOL0     H51158  -0.392   5.013   0.004  0.2300  2.1357 -0.9350
  388MOL0     H51159  -0.640   4.830  -0.067 -1.7383  1.9351 -0.4772
  388MOL0     H51160  -0.561   4.857   0.083 -0.0774 -3.4468 -1.6585
  388MOL0     H51161  -0.784   4.979   0.038  1.2403 -1.8585  0.2755
  388MOL0     H51162  -0.697   5.078  -0.079 -0.9017 -1.0390 -1.8243
  388MOL0     H51163  -0.536   5.129   0.110 -0.0662 -1.9592 -2.3358
  388MOL0     H51164  -0.615   5.030   0.229  0.8288  0.3184 -0.3324
  388MOL0     H51165  -0.708   5.295   0.083 -2.3797 -0.3669 -2.3906
  388MOL0     H51166  -0.834   5.179   0.106 -0.7028  4.1273 -1.2736
  388MOL0     H51167  -0.666   5.248   0.337 -1.2655  1.3744  0.7520
  388MOL0     H51168  -0.833   5.189   0.331 -0.5229 -0.4657 -1.2392
  388MOL0     H51169  -1.018   5.360   0.309  1.5743 -0.9991  0.8189
  388MOL0     H51170  -1.133   5.567   0.413  0.7348 -1.8062 -0.9120
  388MOL0     H51171  -1.133   5.662   0.268 -0.3160 -0.9327  1.5970
  388MOL0     H51172  -0.988   5.832   0.341 -0.9573 -1.5623 -2.3387
  388MOL0     H51173  -0.954   5.756   0.496 -1.6960 -1.6846  0.5520
  388MOL0     H51174  -1.206   5.884   0.390  2.5038  2.3477 -1.1533
  388MOL0     H51175  -1.196   5.793   0.551 -0.8329 -0.6970 -1.7553
  388MOL0     H51176  -1.051   5.963   0.629 -0.4206  1.2853  0.1643
  388MOL0     H51177  -1.191   6.034   0.567  0.7676  0.9178  1.7256
  388MOL0     H51178  -0.897   6.188   0.265  2.5324  2.0646 -0.2395
  388MOL0     H51179  -0.895   6.406   0.237 -4.9624 -0.9022 -2.5998
  388MOL0     H51180  -0.887   6.846   0.465  0.1827  2.2386 -2.7719
  388MOL0     H51181  -0.911   7.075   0.490 -1.2402  0.3946 -0.3868
  388MOL0     H51182  -1.095   7.402   0.545 -2.2873 -0.2643  2.2077
  388MOL0     H51183  -0.980   7.290   0.480 -1.1128  1.1930 -2.1615
  388MOL0     H51184  -0.865   7.337   0.679  0.5277 -1.6537 -2.6574
  388MOL0     H51185  -0.958   7.194   0.734 -4.7015 -0.8551  0.5018
  388MOL0     H51186  -1.156   7.322   0.811  0.7487 -0.6380  1.1631
  388MOL0     H51187  -1.066   7.472   0.779  3.9462  1.0789  0.8447
  388MOL0     H51188  -0.917   7.278   0.952  3.1324  2.2801 -0.0150
  388MOL0     H51189  -0.939   7.455   0.963  1.4227  0.0540  1.8430
  388MOL0     H51190  -1.137   7.248   1.022  0.8044 -0.1724 -0.2839
  388MOL0     H51191  -1.168   7.428   1.044  0.0434 -1.4149  0.6905
  388MOL0     H51192  -0.968   7.433   1.202  1.7265 -0.5655 -1.8510
  388MOL0     H51193  -0.955   7.255   1.202 -0.5923 -0.6149 -0.4106
  388MOL0     H51194  -1.203   7.401   1.276  1.7514  1.2957 -2.0004
  388MOL0     H51195  -1.183   7.222   1.261  0.4385 -1.0319  0.6734
  388MOL0     H51196  -1.043   7.401   1.470 -0.6678  1.7438 -0.3675
  388MOL0     H51197  -1.029   7.222   1.432 -0.3839  0.1346  3.3020
  388MOL0     H51198  -1.332   7.021   0.597  0.4328  0.8822 -1.2485
  388MOL0     H51199  -1.315   6.800   0.576 -0.3906  0.5661  0.7135
  388MOL0     H51200  -1.070   6.453   0.631  1.2217 -1.7925  1.4169
  388MOL0     H51201  -1.093   6.214   0.652  0.5384 -1.5340 -1.1443
  388MOL0     H51202  -0.211   4.647   0.166  0.8452 -0.5345  0.2412
  388MOL0     H51203  -0.083   4.477   0.258  1.6067 -3.2176  0.2742
  388MOL0     H51204   0.311   4.183   0.344  0.1478  0.0778 -4.9121
  388MOL0     H51205   0.356   3.999   0.495 -0.6507  0.1694  0.5726
  388MOL0     H51206   0.062   3.654   0.486  0.1080 -0.8804  1.6459
  388MOL0     H51207   0.185   3.587   0.594  2.2472  0.8119  0.8541
  388MOL0     H51208   0.151   3.514   0.338 -1.4515  1.3908 -0.8499
  388MOL0     H51209   0.245   3.660   0.310  0.1229  1.1319  1.9292
  388MOL0     H51210   0.336   3.438   0.502  1.8682 -0.9018 -0.1730
  388MOL0     H51211   0.438   3.573   0.435  2.2919 -1.5830 -0.6293
  388MOL0     H51212   0.509   3.370   0.325  1.0820  0.3025  0.5308
  388MOL0     H51213   0.329   3.347   0.283 -0.2967 -0.8928  4.0466
  388MOL0     H51214   0.512   3.609  -0.008  1.1047  0.6449  0.9308
  388MOL0     H51215  -0.020   3.814   0.387  0.8591 -0.4222 -0.5826
  388MOL0     H51216  -0.070   4.009   0.248  2.3120  0.8977 -1.8919
  389MOL0     O51217   0.492   5.656   6.226 -0.0742  0.7803  0.2915
  389MOL0     C51218   0.418   5.746   6.206  0.0022  0.0569  0.1661
  389MOL0     O51219   0.419   5.859   6.278 -0.4337  0.2741 -0.6211
  389MOL0     C51220   0.517   5.900   6.368 -0.4506 -0.3820 -0.1407
  389MOL0     C51221   0.470   5.987   6.463  1.3077  0.6992  0.6350
  389MOL0     C51222   0.556   6.059   6.549 -0.3242  0.6235  1.0728
  389MOL0     C51223   0.698   6.042   6.537  0.3019  0.0654 -1.0732
  389MOL0     O51224   0.775   6.108   6.627 -0.5975  0.9447 -0.4274
  389MOL0     C51225   0.859   6.198   6.563 -0.6225  0.4504  0.0598
  389MOL0     C51226   0.941   6.264   6.674  0.1801  0.0441  0.6592
  389MOL0     C51227   1.006   6.394   6.630 -0.3366 -1.1826 -0.1025
  389MOL0     C51228   1.126   6.367   6.533 -0.3234 -0.2598 -0.1020
  389MOL0     C51229   1.208   6.499   6.537 -0.1000  0.0763  0.6989
  389MOL0     C51230   1.348   6.461   6.603  0.3382  0.1929 -0.2342
  389MOL0     C51231   1.443   6.569   6.569 -1.0147 -1.0511 -0.3373
  389MOL0     C51232   1.402   6.707   6.625 -0.0210 -0.4109  0.9821
  389MOL0     N51233   1.381   6.706   6.765  0.5423 -1.4118 -0.5816
  389MOL0     C51234   1.472   6.727   6.865 -0.2791 -0.8409 -1.2873
  389MOL0     C51235   1.412   6.734   6.980  0.3622  0.0740 -0.0364
  389MOL0     C51236   1.495   6.732   7.112  0.6292 -0.5533 -0.1978
  389MOL0     C51237   1.592   6.852   7.143 -0.0458 -0.1698  0.3027
  389MOL0     C51238   1.675   6.834   7.262 -0.1570  1.1681  0.1507
  389MOL0     C51239   1.733   6.969   7.308 -0.8100 -0.3599  0.0304
  389MOL0     O51240   1.634   7.055   7.356 -0.9412 -0.0580 -0.3164
  389MOL0     C51241   1.664   7.147   7.448 -0.0574  0.9138  0.0799
  389MOL0     C51242   1.778   7.225   7.449 -0.2785 -0.2217  0.6269
  389MOL0     C51243   1.795   7.330   7.544  0.2298 -0.1712  0.2402
  389MOL0     C51244   1.691   7.355   7.633 -0.4207  0.3366 -0.2719
  389MOL0     C51245   1.709   7.469   7.734  0.2667  0.8347  0.1933
  389MOL0     O51246   1.835   7.526   7.729 -0.2516 -0.5456 -0.8162
  389MOL0     C51247   1.862   7.635   7.805 -0.1787  0.1687 -0.2451
  389MOL0     C51248   1.866   7.756   7.730  0.4315  1.1143  0.1611
  389MOL0     C51249   1.900   7.874   7.794 -0.5017  0.4366  0.0277
  389MOL0     C51250   1.949   7.876   7.927 -1.1792  0.7576 -0.1682
  389MOL0     O51251   1.987   7.991   7.999  0.3494  0.8870  0.8111
  389MOL0     C51252   1.968   8.122   7.950 -0.2097  0.3584  0.0311
  389MOL0     C51253   1.920   8.214   8.059 -0.5433 -0.3086  0.1123
  389MOL0     C51254   2.011   8.223   8.181  0.2075 -0.1526 -0.1590
  389MOL0     C51255   1.942   8.300   8.287  0.4762 -0.2161  0.2308
  389MOL0     C51256   2.031   8.342   8.403  1.1670  0.5309 -0.3370
  389MOL0     C51257   2.078   8.220   8.488  0.1690 -0.9822  0.3947
  389MOL0     C51258   2.122   8.278   8.627  0.2717  0.3469  0.4377
  389MOL0     C51259   2.162   8.164   8.724  1.0531  0.2224  0.4543
  389MOL0    Cl51260   2.016   8.065   8.777 -0.1987 -0.1572  0.2719
  389MOL0     C51261   1.953   7.746   7.996 -0.2867 -0.1068 -1.0364
  389MOL0     C51262   1.905   7.630   7.927 -0.0797  0.1433 -0.2585
  389MOL0     O51263   1.622   7.506   7.818  0.3099  0.1965 -0.0036
  389MOL0     C51264   1.578   7.278   7.636  0.9507 -0.3556 -0.5371
  389MOL0     C51265   1.567   7.179   7.547 -0.2253 -0.3161 -0.5102
  389MOL0     N51266   1.274   6.692   6.956 -0.1082 -0.4571  0.2709
  389MOL0     N51267   1.256   6.681   6.823 -0.1719  1.2069  1.0000
  389MOL0     C51268   0.748   5.947   6.442 -0.7048 -0.4444  0.0737
  389MOL0     C51269   0.657   5.881   6.348 -0.2907 -0.4563 -0.3069
  389MOL0     C51270   0.307   5.725   6.120  0.6542 -0.1491  0.3273
  389MOL0     C51271   0.207   5.826   6.097  0.1928 -0.7499 -0.1463
  389MOL0     C51272   0.094   5.809   6.020 -0.4296  0.9973  0.0106
  389MOL0     C51273   0.071   5.681   5.959 -0.7033  0.5566  0.2318
  389MOL0     O51274  -0.036   5.645   5.888 -0.0010 -0.2999  0.4290
  389MOL0     C51275  -0.161   5.659   5.946 -0.1205  0.3478  0.3512
  389MOL0     C51276  -0.201   5.542   6.033  0.8413 -0.9596  0.5852
  389MOL0     C51277  -0.270   5.441   5.939  0.4407  0.2575  0.0096
  389MOL0     C51278  -0.419   5.420   5.967  0.1065  0.5132 -0.3132
  389MOL0     C51279  -0.469   5.300   5.901 -1.0228 -0.6440 -1.4684
  389MOL0     C51280  -0.518   5.207   5.852  0.0108 -0.2776  0.2787
  389MOL0     C51281   0.172   5.579   5.981  0.1748 -0.8629  0.5012
  389MOL0     C51282   0.274   5.607   6.055  0.4667  0.4597  0.2596
  389MOL0     H51283   0.367   6.021   6.459  1.8888  3.3699  4.0597
  389MOL0     H51284   0.512   6.128   6.619  0.8036  0.9200  1.5100
  389MOL0     H51285   0.804   6.275   6.507 -1.9985 -0.4042  0.1962
  389MOL0     H51286   0.931   6.151   6.496  0.3166  0.7430  0.8508
  389MOL0     H51287   1.014   6.193   6.714  0.5124 -0.8956 -1.4765
  389MOL0     H51288   0.876   6.281   6.760  0.1780  0.4104  0.5843
  389MOL0     H51289   1.050   6.436   6.720  2.8740 -5.0915  0.4290
  389MOL0     H51290   0.930   6.450   6.575 -1.3022 -3.3579 -1.1202
  389MOL0     H51291   1.191   6.281   6.552  0.9998  0.1721 -2.3154
  389MOL0     H51292   1.095   6.345   6.430 -3.3081  0.6448  0.5138
  389MOL0     H51293   1.158   6.584   6.582 -3.1891 -1.6143  0.6887
  389MOL0     H51294   1.221   6.531   6.433 -0.6388  0.1446  0.6534
  389MOL0     H51295   1.406   6.374   6.573 -0.4777 -0.4635  0.0517
  389MOL0     H51296   1.326   6.447   6.709  0.6472  2.2846  0.1514
  389MOL0     H51297   1.530   6.540   6.629 -0.3983  1.7841  0.2660
  389MOL0     H51298   1.471   6.558   6.464  0.6004 -2.4785  0.1883
  389MOL0     H51299   1.314   6.745   6.573 -0.3679  0.8058  2.3808
  389MOL0     H51300   1.472   6.786   6.595 -0.0735 -0.4468  0.7632
  389MOL0     H51301   1.579   6.712   6.856 -0.0556  0.6476 -1.3677
  389MOL0     H51302   1.551   6.638   7.113 -0.8261 -1.4761  1.1574
  389MOL0     H51303   1.411   6.738   7.182 -0.9797 -0.4640 -2.0504
  389MOL0     H51304   1.520   6.934   7.144  0.3788  0.2706  3.3208
  389MOL0     H51305   1.649   6.863   7.050  0.0167 -2.5002  0.0130
  389MOL0     H51306   1.606   6.797   7.339  0.1854 -3.8191 -1.5555
  389MOL0     H51307   1.759   6.768   7.238  1.5804  3.6428 -0.9689
  389MOL0     H51308   1.786   7.031   7.235 -1.0182 -1.5172 -1.1442
  389MOL0     H51309   1.806   6.948   7.387  1.5955  3.4399 -0.9208
  389MOL0     H51310   1.872   7.199   7.400 -0.7400  0.3956 -0.6472
  389MOL0     H51311   1.887   7.387   7.542  0.1724  0.0440  1.9997
  389MOL0     H51312   1.854   7.753   7.622  1.6082 -1.6831  0.0337
  389MOL0     H51313   1.908   7.970   7.745  1.1635  0.3164 -0.0066
  389MOL0     H51314   1.903   8.130   7.862  0.5123  0.9881 -0.4592
  389MOL0     H51315   2.072   8.148   7.930  0.2648  0.9992  2.8835
  389MOL0     H51316   1.821   8.175   8.085 -1.1171  0.5723 -0.6573
  389MOL0     H51317   1.901   8.318   8.030 -3.5020 -0.0209  2.5390
  389MOL0     H51318   2.094   8.291   8.158  0.5612 -0.2835  0.7007
  389MOL0     H51319   2.052   8.128   8.216 -3.7193 -1.6931  0.7502
  389MOL0     H51320   1.902   8.396   8.253 -0.7105  0.5103  3.3219
  389MOL0     H51321   1.851   8.249   8.321 -0.2767  0.2055 -1.1095
  389MOL0     H51322   1.976   8.410   8.470 -1.1795  0.3988 -2.0180
  389MOL0     H51323   2.117   8.394   8.362  1.1261  0.3023 -0.7138
  389MOL0     H51324   2.164   8.170   8.443 -0.4189 -2.3123  0.6875
  389MOL0     H51325   1.985   8.164   8.500 -2.2871  1.8323 -3.1181
  389MOL0     H51326   2.205   8.349   8.614 -1.9942  2.8212 -1.5362
  389MOL0     H51327   2.046   8.345   8.667  0.3758  0.7398 -0.0181
  389MOL0     H51328   2.205   8.201   8.818  0.6883 -2.5754  1.8367
  389MOL0     H51329   2.241   8.106   8.676  0.6015  1.7280 -2.3236
  389MOL0     H51330   2.010   7.731   8.087 -0.8638 -1.0578 -0.8167
  389MOL0     H51331   1.911   7.537   7.983 -0.8997 -0.3906 -1.0279
  389MOL0     H51332   1.494   7.304   7.699  0.7506  3.2629 -2.0556
  389MOL0     H51333   1.473   7.128   7.534  0.5429 -1.3234 -2.7502
  389MOL0     H51334   0.856   5.934   6.439 -0.1007  3.3595  0.8754
  389MOL0     H51335   0.686   5.822   6.262 -1.4381 -0.4621 -0.6973
  389MOL0     H51336   0.226   5.924   6.140  0.5484 -2.5728  4.3573
  389MOL0     H51337   0.031   5.897   6.012  0.8811  2.4432  3.4754
  389MOL0     H51338  -0.233   5.688   5.868 -1.4011  1.3941  1.8690
  389MOL0     H51339  -0.155   5.745   6.013  3.2651  1.0899 -0.6987
  389MOL0     H51340  -0.113   5.509   6.088  0.9652  3.8211  3.8657
  389MOL0     H51341  -0.268   5.589   6.106  1.5193 -0.3848  0.8451
  389MOL0     H51342  -0.216   5.346   5.939  0.0633  0.0103 -1.6099
  389MOL0     H51343  -0.270   5.471   5.834  2.8098  2.6031  0.5739
  389MOL0     H51344  -0.461   5.423   6.068 -2.7297 -4.1353 -1.0613
  389MOL0     H51345  -0.474   5.495   5.908 -0.5304  0.8776  0.7212
  389MOL0     H51346  -0.586   5.136   5.809  0.3407 -0.5980  0.2854
  389MOL0     H51347   0.156   5.479   5.942 -4.6125  0.3056 -1.2059
  389MOL0     H51348   0.338   5.525   6.087 -1.8335  0.1983  5.0434
  390MOL0     O51349   4.754   7.052   8.654 -0.2681  0.3485  0.2933
  390MOL0     C51350   4.745   7.098   8.764 -0.3473 -1.1046  0.6770
  390MOL0     O51351   4.725   7.027   8.882  0.3133 -0.1704 -0.2499
  390MOL0     C51352   4.778   6.900   8.883  1.6664 -0.6241 -0.6150
  390MOL0     C51353   4.879   6.857   8.968  0.1583 -0.5464 -0.5315
  390MOL0     C51354   4.928   6.732   8.987 -0.1497 -0.2523  0.0014
  390MOL0     C51355   4.871   6.636   8.912 -0.3810 -0.1658  0.8054
  390MOL0     O51356   4.907   6.503   8.944  0.2643  0.1283  0.3360
  390MOL0     C51357   4.908   6.410   8.832 -0.0429 -0.7988 -0.2735
  390MOL0     C51358   5.000   6.296   8.854  0.1114  0.6127 -0.2796
  390MOL0     C51359   4.952   6.203   8.956  0.6842  0.0623 -1.2039
  390MOL0     C51360   5.047   6.090   9.002  0.2206 -0.5284 -0.1536
  390MOL0     C51361   4.972   6.005   9.105  0.7561  0.0447  0.3468
  390MOL0     C51362   5.030   5.866   9.107  0.3660  1.4121  0.0497
  390MOL0     C51363   5.184   5.864   9.136  0.4117  0.9326 -0.3944
  390MOL0     C51364   5.230   5.907   9.269  0.1399 -0.4679  0.0949
  390MOL0     N51365   5.176   5.838   9.387  0.1456  0.5248 -0.2901
  390MOL0     C51366   5.125   5.708   9.399  0.6072  0.0288 -0.1581
  390MOL0     C51367   5.072   5.701   9.528  0.5734  0.0982  0.6260
  390MOL0     C51368   4.984   5.589   9.582 -0.0273  1.1411 -0.5382
  390MOL0     C51369   5.055   5.476   9.662 -0.6774 -0.2048  0.5605
  390MOL0     C51370   5.176   5.416   9.592  0.7983  0.1858 -0.1145
  390MOL0     C51371   5.147   5.319   9.483  0.2433  0.1040  1.1342
  390MOL0     O51372   5.261   5.297   9.405  0.1720 -0.0018 -0.0872
  390MOL0     C51373   5.243   5.207   9.298  0.3028 -0.1724 -0.2666
  390MOL0     C51374   5.123   5.147   9.255 -0.1731 -1.0306  0.3008
  390MOL0     C51375   5.110   5.046   9.159  0.1767 -0.0413  1.1315
  390MOL0     C51376   5.230   5.004   9.087  0.5925 -0.8623  1.3719
  390MOL0     C51377   5.222   4.897   8.984  0.7849 -0.5169  0.3701
  390MOL0     O51378   5.331   4.869   8.911  0.5844 -0.2637  0.5000
  390MOL0     C51379   5.324   4.787   8.791  0.5850 -0.6811  0.6469
  390MOL0     C51380   5.449   4.743   8.755  0.4636 -0.5637 -0.8126
  390MOL0     C51381   5.466   4.668   8.642 -0.2346 -0.0632 -0.4866
  390MOL0     C51382   5.359   4.634   8.547 -0.4885 -0.2756 -0.0934
  390MOL0     O51383   5.377   4.553   8.439 -0.5990 -0.5308 -0.5496
  390MOL0     C51384   5.455   4.600   8.329  0.4906 -0.4576 -0.3719
  390MOL0     C51385   5.529   4.486   8.254 -0.0528  0.4645 -0.4143
  390MOL0     C51386   5.621   4.518   8.132 -1.2152 -0.1228 -0.5863
  390MOL0     C51387   5.743   4.621   8.147  0.8104 -0.2373 -0.3926
  390MOL0     C51388   5.807   4.663   8.016  0.0293  0.2019  0.8868
  390MOL0     C51389   5.773   4.804   7.979 -0.2487 -0.3312 -0.0071
  390MOL0     C51390   5.809   4.827   7.828 -0.3334 -0.1630 -0.8887
  390MOL0     C51391   5.931   4.916   7.805  0.2293  0.0747  0.2238
  390MOL0    Cl51392   5.920   5.078   7.863 -0.3416  0.5374  0.3702
  390MOL0     C51393   5.236   4.669   8.598  0.2888 -0.2094  0.2212
  390MOL0     C51394   5.216   4.743   8.720 -0.8348 -0.6256  0.1348
  390MOL0     O51395   5.114   4.833   8.978 -0.0670 -0.1287 -0.3832
  390MOL0     C51396   5.355   5.068   9.126 -0.2380  0.1759 -0.8775
  390MOL0     C51397   5.359   5.170   9.223  0.1385  0.2967  0.5793
  390MOL0     N51398   5.090   5.826   9.580  0.8498  0.9144 -0.5167
  390MOL0     N51399   5.140   5.908   9.501 -0.1715 -0.0720  0.2217
  390MOL0     C51400   4.777   6.668   8.806 -0.4101 -0.0378 -0.5176
  390MOL0     C51401   4.730   6.796   8.797  0.3881  0.1472 -0.5521
  390MOL0     C51402   4.725   7.248   8.753 -0.0229 -0.1932  0.0904
  390MOL0     C51403   4.801   7.318   8.654  0.4288 -0.6322  0.5394
  390MOL0     C51404   4.779   7.463   8.640 -0.5142  0.2886 -0.8721
  390MOL0     C51405   4.692   7.533   8.720 -0.1373  0.4613 -0.3068
  390MOL0     O51406   4.667   7.671   8.732  0.4149  0.6660 -0.1513
  390MOL0     C51407   4.719   7.772   8.648 -0.5495  0.3513 -0.0102
  390MOL0     C51408   4.650   7.772   8.514 -0.4275 -0.0771  0.2473
  390MOL0     C51409   4.503   7.823   8.545 -0.5932  0.0864 -0.6399
  390MOL0     C51410   4.432   7.898   8.424 -0.2392  0.4119 -0.5304
  390MOL0     C51411   4.311   7.968   8.476 -0.4978 -1.0127  0.2151
  390MOL0     C51412   4.212   8.026   8.507  0.2529 -0.9806  0.3787
  390MOL0     C51413   4.627   7.459   8.814 -0.5779  0.1488 -0.5476
  390MOL0     C51414   4.644   7.322   8.839  1.0509  0.4275  1.2387
  390MOL0     H51415   4.912   6.942   9.027  1.1500 -0.5308 -1.0822
  390MOL0     H51416   5.008   6.710   9.057 -0.7349 -0.3053  0.6662
  390MOL0     H51417   4.936   6.447   8.733 -2.5694  0.6998 -0.5094
  390MOL0     H51418   4.803   6.382   8.820 -0.8318  2.6708 -2.9931
  390MOL0     H51419   5.093   6.338   8.894 -2.1138  3.3182  2.5438
  390MOL0     H51420   5.021   6.240   8.762 -1.7955  0.3549 -0.6065
  390MOL0     H51421   4.856   6.157   8.932 -0.6914  0.8955  2.0729
  390MOL0     H51422   4.931   6.267   9.042  0.0545 -0.1770 -1.1701
  390MOL0     H51423   5.069   6.034   8.910  3.3675  0.6800 -0.2572
  390MOL0     H51424   5.144   6.122   9.041  0.4464 -3.6608  2.1878
  390MOL0     H51425   4.867   5.987   9.080  0.1926  0.6342  2.1569
  390MOL0     H51426   4.968   6.045   9.207 -0.4452 -3.3663  1.7889
  390MOL0     H51427   5.017   5.824   9.007 -1.0570 -0.2893  0.8869
  390MOL0     H51428   4.973   5.800   9.173 -0.1418  2.4434  0.6737
  390MOL0     H51429   5.212   5.759   9.125 -2.1203  0.3937 -3.0109
  390MOL0     H51430   5.248   5.917   9.066  0.6612  1.3475  0.1378
  390MOL0     H51431   5.199   6.012   9.272 -1.5742 -0.9323 -0.5019
  390MOL0     H51432   5.338   5.892   9.274  0.5994  0.9303 -3.3509
  390MOL0     H51433   5.122   5.633   9.321 -0.7976  1.3182 -1.4466
  390MOL0     H51434   4.943   5.541   9.492 -1.8797 -0.2725  0.9733
  390MOL0     H51435   4.899   5.629   9.638  0.5104  0.0702  1.1294
  390MOL0     H51436   4.982   5.398   9.683 -3.5708  2.0017 -0.5934
  390MOL0     H51437   5.081   5.515   9.760  1.0714 -2.0654  0.9182
  390MOL0     H51438   5.237   5.495   9.546  0.6789  1.0278  1.1490
  390MOL0     H51439   5.243   5.358   9.656 -0.4620 -1.0180  0.1526
  390MOL0     H51440   5.063   5.370   9.436 -1.9339 -2.1250  2.3829
  390MOL0     H51441   5.127   5.217   9.518  0.2513  0.1929  1.3993
  390MOL0     H51442   5.038   5.193   9.304 -1.2613 -2.5671 -0.1010
  390MOL0     H51443   5.014   5.013   9.122 -0.2136  4.0033 -2.2809
  390MOL0     H51444   5.536   4.756   8.818 -1.0905 -2.7039  2.0562
  390MOL0     H51445   5.564   4.626   8.619  1.5110  2.8450  1.0466
  390MOL0     H51446   5.530   4.670   8.365 -0.3183  1.0130 -1.4208
  390MOL0     H51447   5.395   4.647   8.250  1.2052 -1.4573 -1.5600
  390MOL0     H51448   5.448   4.432   8.203 -1.1434  0.0066  1.7061
  390MOL0     H51449   5.582   4.422   8.325 -1.8976  0.3004  0.8685
  390MOL0     H51450   5.548   4.557   8.061 -2.1140  0.0239  0.3964
  390MOL0     H51451   5.659   4.425   8.090  1.5101 -0.1952  1.7204
  390MOL0     H51452   5.710   4.712   8.199  0.6524 -1.3028  1.4656
  390MOL0     H51453   5.818   4.563   8.202  1.3990 -1.7596 -2.6772
  390MOL0     H51454   5.787   4.590   7.937 -1.6585  0.6968  0.8319
  390MOL0     H51455   5.915   4.657   8.036 -0.3093 -0.5938  2.7189
  390MOL0     H51456   5.836   4.864   8.046 -1.4595 -0.0846  0.9313
  390MOL0     H51457   5.665   4.813   7.987 -0.8017 -2.1112 -3.3735
  390MOL0     H51458   5.824   4.730   7.779  1.7823  0.3411 -1.3130
  390MOL0     H51459   5.724   4.881   7.784  0.2191  0.5082 -1.1415
  390MOL0     H51460   5.971   4.918   7.703 -0.5251  0.9339 -0.0659
  390MOL0     H51461   6.019   4.872   7.854 -0.6337  0.9975  2.7725
  390MOL0     H51462   5.150   4.623   8.550  0.1637  2.4147 -2.3749
  390MOL0     H51463   5.113   4.753   8.751 -1.7620 -2.1099 -2.1713
  390MOL0     H51464   5.437   5.034   9.064 -1.0203 -1.9505 -0.8369
  390MOL0     H51465   5.446   5.226   9.257  0.1328 -0.1468  1.3551
  390MOL0     H51466   4.727   6.584   8.757  1.7877 -2.4697  1.1397
  390MOL0     H51467   4.655   6.803   8.719  0.2476 -0.1160 -0.4401
  390MOL0     H51468   4.863   7.260   8.587  0.1121  1.0016 -1.2690
  390MOL0     H51469   4.825   7.514   8.556  0.5768  0.2830 -0.2886
  390MOL0     H51470   4.827   7.766   8.631 -0.2486  2.4780  0.7885
  390MOL0     H51471   4.708   7.869   8.698 -6.2080  0.1928 -0.2759
  390MOL0     H51472   4.709   7.841   8.454  4.3184 -2.8252  1.2573
  390MOL0     H51473   4.658   7.678   8.460  4.8562  0.3523 -0.1938
  390MOL0     H51474   4.504   7.884   8.636 -1.7470  0.9872 -1.2079
  390MOL0     H51475   4.444   7.734   8.570  0.4475 -0.5603 -0.4346
  390MOL0     H51476   4.500   7.971   8.379  0.4021  0.0240 -0.1922
  390MOL0     H51477   4.402   7.832   8.342  1.4295  0.4408 -1.1903
  390MOL0     H51478   4.111   8.059   8.516  0.7700  0.4818  1.2484
  390MOL0     H51479   4.551   7.507   8.874 -0.1181 -0.0145  0.1723
  390MOL0     H51480   4.575   7.266   8.901 -1.8780 -1.3827 -3.1535
  391MOL0     O51481   9.682   0.536   2.353  0.4329  0.2541  0.4888
  391MOL0     C51482   9.679   0.427   2.411  0.0298  0.5092  0.0146
  391MOL0     O51483   9.599   0.324   2.373 -0.1864  0.5700 -0.0772
  391MOL0     C51484   9.526   0.345   2.257 -0.7647 -0.6812  0.6394
  391MOL0     C51485   9.543   0.248   2.154 -0.4785 -0.1667 -0.5193
  391MOL0     C51486   9.481   0.276   2.032 -0.1951  0.1390  0.1105
  391MOL0     C51487   9.371   0.368   2.020 -0.2144  0.2113  0.0512
  391MOL0     O51488   9.310   0.375   1.903 -0.1847 -0.5269  0.7051
  391MOL0     C51489   9.305   0.508   1.838 -0.1983 -0.1119  0.1045
  391MOL0     C51490   9.445   0.543   1.791 -0.2550 -1.3205  0.0970
  391MOL0     C51491   9.465   0.496   1.646 -0.0934  0.8097 -1.1876
  391MOL0     C51492   9.403   0.588   1.540  0.9552  0.5210 -0.0454
  391MOL0     C51493   9.451   0.545   1.402 -0.2294  0.1116  0.3230
  391MOL0     C51494   9.329   0.502   1.308  0.4893  0.5487 -0.0112
  391MOL0     C51495   9.275   0.367   1.343  0.0743  0.6780  0.0696
  391MOL0     C51496   9.167   0.311   1.253 -0.2358 -0.7389 -0.6106
  391MOL0     N51497   9.073   0.420   1.218  0.4559 -0.0896  0.0807
  391MOL0     C51498   9.068   0.496   1.107 -0.2970 -0.1601  0.1854
  391MOL0     C51499   8.956   0.564   1.116  0.1420 -0.5600  0.1915
  391MOL0     C51500   8.879   0.658   1.021  0.3072  0.1858  0.1362
  391MOL0     C51501   8.944   0.803   1.015 -1.1320 -0.7069  0.0294
  391MOL0     C51502   8.962   0.874   1.154  0.6237 -0.1431  0.0749
  391MOL0     C51503   8.834   0.911   1.220  0.9708 -0.0173  0.1605
  391MOL0     O51504   8.766   1.009   1.133  0.8738  1.1299 -0.2017
  391MOL0     C51505   8.631   1.024   1.131  0.0264  0.2744  0.0329
  391MOL0     C51506   8.563   1.098   1.227 -1.2357  0.1651 -0.0488
  391MOL0     C51507   8.428   1.106   1.216 -0.1022 -0.5759 -0.1824
  391MOL0     C51508   8.353   1.044   1.119 -0.8098  0.6772  0.8645
  391MOL0     C51509   8.207   1.062   1.101  0.1802  0.2987 -0.6460
  391MOL0     O51510   8.158   0.978   1.019 -0.5466  0.5458  0.9259
  391MOL0     C51511   8.021   0.977   0.984 -0.4388  0.6992 -0.6676
  391MOL0     C51512   7.916   0.970   1.085 -0.5357 -0.0595  0.0452
  391MOL0     C51513   7.786   0.955   1.052  0.1528 -0.0428  0.0067
  391MOL0     C51514   7.753   0.955   0.920  0.0366 -0.3559  0.0943
  391MOL0     O51515   7.624   0.918   0.890 -0.9163 -0.7094  0.0744
  391MOL0     C51516   7.566   0.938   0.761 -0.6323  0.4602 -0.9191
  391MOL0     C51517   7.537   1.092   0.739  0.3281  0.1300  0.2522
  391MOL0     C51518   7.553   1.134   0.592 -1.0342 -0.1716  0.3217
  391MOL0     C51519   7.532   1.279   0.595 -0.5767  0.0464 -0.4071
  391MOL0     C51520   7.581   1.348   0.462  0.4581  0.5115 -0.0055
  391MOL0     C51521   7.481   1.326   0.341  0.4592 -0.4644 -0.2306
  391MOL0     C51522   7.564   1.376   0.220  0.5281  0.3007 -0.2360
  391MOL0     C51523   7.479   1.394   0.096  0.1541 -1.0521  0.3997
  391MOL0    Cl51524   7.583   1.444  -0.049 -0.2009 -0.3086 -0.0869
  391MOL0     C51525   7.842   0.982   0.821 -0.6003 -0.5984  0.6524
  391MOL0     C51526   7.978   0.983   0.855 -0.1257 -0.0894 -0.8362
  391MOL0     O51527   8.150   1.154   1.157  0.5328 -0.1023 -0.2120
  391MOL0     C51528   8.425   0.954   1.035  0.8128 -0.2192 -0.6355
  391MOL0     C51529   8.558   0.948   1.035 -0.3924 -0.3672 -0.2039
  391MOL0     N51530   8.899   0.547   1.239 -0.3711  0.4703  0.1642
  391MOL0     N51531   8.967   0.457   1.296  0.8871  0.5414  0.5042
  391MOL0     C51532   9.342   0.460   2.125  0.6901 -0.0776 -1.6283
  391MOL0     C51533   9.429   0.452   2.241  0.2149 -0.0492 -0.2112
  391MOL0     C51534   9.754   0.411   2.539 -0.7591 -1.9127 -0.7545
  391MOL0     C51535   9.750   0.292   2.612 -0.7020 -0.0511  0.3858
  391MOL0     C51536   9.811   0.281   2.734  0.0278 -1.1341  0.4022
  391MOL0     C51537   9.877   0.387   2.798 -0.3835  0.0776  0.3747
  391MOL0     O51538   9.922   0.343   2.915 -0.0441  1.1356  0.1352
  391MOL0     C51539   9.883   0.410   3.039 -0.5477 -0.2823  0.6952
  391MOL0     C51540   9.876   0.314   3.158 -0.1324  0.0885  0.6082
  391MOL0     C51541   9.740   0.255   3.183  0.0686 -0.5687 -0.5444
  391MOL0     C51542   9.734   0.169   3.312  0.2618 -0.0325 -0.1813
  391MOL0     C51543   9.669   0.051   3.289  0.6827 -0.8160 -0.2053
  391MOL0     C51544   9.615  -0.054   3.265 -1.1231 -0.3324  0.3019
  391MOL0     C51545   9.882   0.513   2.737  0.6541  0.0453 -0.1058
  391MOL0     C51546   9.816   0.529   2.609 -1.0170  0.0262 -0.4317
  391MOL0     H51547   9.610   0.163   2.161 -1.0165 -0.4604  2.0282
  391MOL0     H51548   9.499   0.205   1.952  0.2701 -0.4605  0.7398
  391MOL0     H51549   9.260   0.592   1.892  1.8992  1.3216 -0.2747
  391MOL0     H51550   9.238   0.487   1.754 -2.2224  0.6018  1.4649
  391MOL0     H51551   9.515   0.498   1.862 -2.0706 -3.6717  0.5282
  391MOL0     H51552   9.464   0.651   1.794  1.8910 -1.5081 -2.4918
  391MOL0     H51553   9.432   0.398   1.611  0.6610  1.5025 -4.1739
  391MOL0     H51554   9.573   0.494   1.626  0.3311 -4.8572  0.0735
  391MOL0     H51555   9.294   0.575   1.541  1.0213 -0.1181 -0.3661
  391MOL0     H51556   9.431   0.693   1.547  1.3470  0.4337 -0.2911
  391MOL0     H51557   9.529   0.468   1.406 -1.2464 -0.9216  0.7185
  391MOL0     H51558   9.494   0.641   1.369 -1.5386  0.8860  0.8095
  391MOL0     H51559   9.353   0.491   1.202  1.9113  2.6539  0.0338
  391MOL0     H51560   9.246   0.571   1.327  1.3607  1.6975 -0.2790
  391MOL0     H51561   9.338   0.277   1.347 -2.0380 -0.9541 -1.3963
  391MOL0     H51562   9.222   0.383   1.437  0.3547  0.1052  0.3294
  391MOL0     H51563   9.114   0.229   1.302  0.9254 -0.1546  1.7746
  391MOL0     H51564   9.218   0.278   1.163 -0.1518  0.0888 -0.8716
  391MOL0     H51565   9.137   0.498   1.023 -0.9022  1.6969 -0.3229
  391MOL0     H51566   8.776   0.676   1.056 -0.0097  1.4248 -1.3156
  391MOL0     H51567   8.888   0.601   0.929 -0.7373 -2.2501  1.4487
  391MOL0     H51568   8.888   0.876   0.956  0.9978  0.8313 -0.1864
  391MOL0     H51569   9.038   0.790   0.962 -1.1648  0.5421 -0.3587
  391MOL0     H51570   9.024   0.808   1.215 -1.2080 -3.0976 -1.0770
  391MOL0     H51571   9.015   0.965   1.123  2.1745 -1.7956 -2.4535
  391MOL0     H51572   8.861   0.962   1.313  2.4884 -1.5533  0.6032
  391MOL0     H51573   8.775   0.821   1.240 -0.1407  1.3240  3.8955
  391MOL0     H51574   8.614   1.140   1.314 -3.2568 -4.0209  3.5882
  391MOL0     H51575   8.385   1.167   1.295  4.7825  2.4017  0.5798
  391MOL0     H51576   7.935   0.975   1.192 -0.2684  1.2113 -0.0381
  391MOL0     H51577   7.705   0.936   1.122 -0.2266  1.8821  0.1268
  391MOL0     H51578   7.466   0.894   0.772 -0.4651  0.1881 -0.4773
  391MOL0     H51579   7.626   0.894   0.681  0.1718  3.0072 -1.8318
  391MOL0     H51580   7.581   1.156   0.815 -2.3312  1.6002  0.6696
  391MOL0     H51581   7.429   1.094   0.760  0.7335  0.6195  2.4390
  391MOL0     H51582   7.492   1.069   0.527  2.5718 -3.7761  0.1187
  391MOL0     H51583   7.654   1.104   0.560 -0.6198  0.0811  1.3716
  391MOL0     H51584   7.425   1.297   0.607 -0.5931 -0.7292  0.7436
  391MOL0     H51585   7.590   1.329   0.673  0.1263 -0.1352 -0.7987
  391MOL0     H51586   7.672   1.293   0.435  0.1159  0.1047 -0.3637
  391MOL0     H51587   7.588   1.456   0.473 -1.2094  0.5191  1.4451
  391MOL0     H51588   7.396   1.392   0.360  1.3277 -0.1303  3.0747
  391MOL0     H51589   7.438   1.227   0.325 -1.2100  0.1824  0.0881
  391MOL0     H51590   7.608   1.474   0.241  0.6495  0.8613 -2.8516
  391MOL0     H51591   7.638   1.301   0.190 -0.1146 -1.0669  1.4400
  391MOL0     H51592   7.424   1.487   0.114  2.7322  0.8572 -0.9255
  391MOL0     H51593   7.424   1.308   0.058  2.6039 -1.9636 -1.3731
  391MOL0     H51594   7.816   0.991   0.717 -2.6431 -0.1994  1.1510
  391MOL0     H51595   8.042   0.985   0.768 -0.1994  3.7125 -0.9875
  391MOL0     H51596   8.371   0.889   0.967  0.4384 -0.0236 -0.5306
  391MOL0     H51597   8.607   0.875   0.970 -2.1309 -0.6709 -1.2265
  391MOL0     H51598   9.263   0.532   2.107  0.2815  0.3603  1.3718
  391MOL0     H51599   9.426   0.519   2.326  1.7021  0.4702 -0.5422
  391MOL0     H51600   9.699   0.204   2.575  1.6195 -0.7014 -1.5174
  391MOL0     H51601   9.805   0.191   2.794  1.8728 -1.5747 -0.0075
  391MOL0     H51602   9.790   0.466   3.025  0.2426  1.0876  0.7602
  391MOL0     H51603   9.960   0.481   3.070 -0.6317  0.9139 -1.6517
  391MOL0     H51604   9.945   0.233   3.135 -2.4806 -1.2336 -2.5106
  391MOL0     H51605   9.896   0.375   3.246 -2.1357 -1.9480  2.6278
  391MOL0     H51606   9.711   0.189   3.101  1.6918  1.5403 -2.9610
  391MOL0     H51607   9.667   0.336   3.186  0.2911 -0.3940  1.1584
  391MOL0     H51608   9.830   0.154   3.363  0.6155  0.7025 -0.6048
  391MOL0     H51609   9.679   0.223   3.389  0.9627  1.6786 -0.8264
  391MOL0     H51610   9.576  -0.154   3.263  0.5892 -1.2395  3.7158
  391MOL0     H51611   9.927   0.593   2.794 -0.6319  0.3823  0.4941
  391MOL0     H51612   9.796   0.627   2.568 -3.1392 -0.2574 -0.1779
  392MOL0     O51613   7.500   4.104   0.373  0.5412 -0.9243 -0.4290
  392MOL0     C51614   7.457   4.196   0.450  0.6620 -0.6267  0.3171
  392MOL0     O51615   7.355   4.280   0.419  0.4597  0.5621 -0.4916
  392MOL0     C51616   7.279   4.240   0.311 -0.2149  0.5645 -0.8576
  392MOL0     C51617   7.193   4.128   0.311 -0.3445  0.0991  0.2722
  392MOL0     C51618   7.114   4.120   0.188  0.5556  0.0644 -0.4155
  392MOL0     C51619   7.131   4.215   0.084 -0.4132 -0.6356 -0.5984
  392MOL0     O51620   7.057   4.210  -0.027  0.0853 -0.5205  0.6706
  392MOL0     C51621   7.055   4.090  -0.094  0.8666  0.0982  0.1353
  392MOL0     C51622   7.143   4.066  -0.211  0.3925 -0.2975 -0.7296
  392MOL0     C51623   7.126   3.933  -0.285 -0.3608 -0.4639  1.1221
  392MOL0     C51624   7.256   3.900  -0.366  0.0349 -0.5860  0.1724
  392MOL0     C51625   7.269   3.753  -0.432 -0.4923 -0.3763 -1.0157
  392MOL0     C51626   7.258   3.652  -0.324 -0.0270 -0.8019  0.3615
  392MOL0     C51627   7.283   3.508  -0.379 -0.2264 -0.3162 -0.3028
  392MOL0     C51628   7.214   3.470  -0.518 -0.2175 -0.3727  0.1781
  392MOL0     N51629   7.255   3.333  -0.547 -0.1631 -0.3494  0.0582
  392MOL0     C51630   7.378   3.312  -0.604  0.6339  0.4154 -0.2409
  392MOL0     C51631   7.386   3.178  -0.609 -0.0173  0.4626 -0.3149
  392MOL0     C51632   7.506   3.100  -0.653  0.2633  0.3500  0.5777
  392MOL0     C51633   7.514   3.083  -0.808  0.4614 -0.2398  0.1981
  392MOL0     C51634   7.374   3.050  -0.883 -0.3069 -0.0801 -0.1949
  392MOL0     C51635   7.381   3.053  -1.027 -0.4815  0.1854  0.2722
  392MOL0     O51636   7.471   2.957  -1.088  0.1383 -0.2939 -0.3248
  392MOL0     C51637   7.419   2.839  -1.127  1.0247 -0.0174  0.3930
  392MOL0     C51638   7.296   2.781  -1.082  0.3591  0.0212  0.7826
  392MOL0     C51639   7.261   2.651  -1.092  0.4009 -0.2026 -0.2198
  392MOL0     C51640   7.356   2.567  -1.152 -0.6095  0.0622 -0.9493
  392MOL0     C51641   7.339   2.418  -1.149 -0.2863  0.8415 -0.2170
  392MOL0     O51642   7.447   2.339  -1.178 -0.5361 -0.5208 -0.1437
  392MOL0     C51643   7.441   2.202  -1.189  0.5348  0.2720  0.2664
  392MOL0     C51644   7.566   2.140  -1.203  1.1120  1.1703 -0.6837
  392MOL0     C51645   7.568   1.995  -1.205  0.0246  0.0188 -0.6315
  392MOL0     C51646   7.450   1.923  -1.184 -1.3178  0.1804 -0.2632
  392MOL0     O51647   7.439   1.787  -1.177 -1.4389  0.0734 -0.3671
  392MOL0     C51648   7.547   1.690  -1.187 -0.3246  0.9014  0.3851
  392MOL0     C51649   7.595   1.631  -1.056  0.7206 -0.7901 -0.7877
  392MOL0     C51650   7.678   1.504  -1.070  0.5753 -0.4023  0.6078
  392MOL0     C51651   7.703   1.441  -0.935  0.1970 -0.1267 -0.5335
  392MOL0     C51652   7.803   1.319  -0.932  1.2122  0.6248  0.9460
  392MOL0     C51653   7.939   1.369  -0.946 -0.2296  0.7729 -0.0123
  392MOL0     C51654   8.043   1.287  -0.878 -1.0692 -0.4761  0.4948
  392MOL0     C51655   8.191   1.323  -0.914 -0.3412 -0.8776 -0.4142
  392MOL0    Cl51656   8.291   1.234  -0.815 -0.0752  0.0086 -0.3725
  392MOL0     C51657   7.329   1.984  -1.174 -0.2702 -0.4620  1.1644
  392MOL0     C51658   7.321   2.126  -1.180  0.1423  0.9076 -0.3543
  392MOL0     O51659   7.234   2.374  -1.109  0.3976 -0.1663  0.6398
  392MOL0     C51660   7.472   2.625  -1.214  0.7154  0.3802  0.1459
  392MOL0     C51661   7.512   2.756  -1.192  1.5591 -0.4714 -1.1983
  392MOL0     N51662   7.265   3.127  -0.561  0.2271  0.0050  1.0455
  392MOL0     N51663   7.186   3.216  -0.530  0.2113 -0.6250  0.7790
  392MOL0     C51664   7.227   4.316   0.095  0.2221  0.3443  0.1504
  392MOL0     C51665   7.294   4.325   0.204 -0.2361 -0.0611  0.3901
  392MOL0     C51666   7.507   4.223   0.595  0.2168  0.0530  0.7583
  392MOL0     C51667   7.618   4.153   0.642 -0.3294  0.3766  0.5297
  392MOL0     C51668   7.647   4.152   0.775 -0.1382  1.4587 -0.1718
  392MOL0     C51669   7.562   4.217   0.869 -1.1042 -0.5050  0.1960
  392MOL0     O51670   7.562   4.225   1.000  0.2174  0.2646  0.1375
  392MOL0     C51671   7.671   4.164   1.073  0.4265 -0.2764 -0.4897
  392MOL0     C51672   7.809   4.251   1.081 -0.1654 -0.8914 -0.0450
  392MOL0     C51673   7.785   4.392   1.122  0.1082  0.0207 -0.5372
  392MOL0     C51674   7.716   4.390   1.266  0.1619 -0.9890  0.3636
  392MOL0     C51675   7.806   4.378   1.376  0.4300 -0.4454 -0.0519
  392MOL0     C51676   7.872   4.376   1.472 -0.5995  0.5240  0.0795
  392MOL0     C51677   7.454   4.296   0.818 -0.0326 -0.7635  0.1455
  392MOL0     C51678   7.423   4.300   0.681 -0.8544 -0.4901  0.3935
  392MOL0     H51679   7.175   4.071   0.402 -4.5562 -1.6334 -1.4125
  392MOL0     H51680   7.022   4.064   0.176 -0.6476  2.1829 -1.5897
  392MOL0     H51681   6.953   4.089  -0.132  1.7991  3.3836 -2.9981
  392MOL0     H51682   7.069   3.996  -0.039  3.2688 -1.2874 -2.5497
  392MOL0     H51683   7.246   4.070  -0.174  0.0387 -2.0222  0.5620
  392MOL0     H51684   7.129   4.149  -0.282 -2.2071 -0.6622 -0.7252
  392MOL0     H51685   7.056   3.949  -0.367  2.4087 -1.1891 -1.5739
  392MOL0     H51686   7.114   3.849  -0.216  3.9456 -1.5665  0.7876
  392MOL0     H51687   7.268   3.976  -0.443 -0.2838 -2.5148 -1.8873
  392MOL0     H51688   7.353   3.912  -0.317  1.6963 -1.5866 -2.6597
  392MOL0     H51689   7.365   3.735  -0.481 -0.5531 -2.0186 -0.5783
  392MOL0     H51690   7.183   3.734  -0.498 -3.8229 -0.0184  2.8461
  392MOL0     H51691   7.164   3.658  -0.268  0.4168  2.2364  0.9295
  392MOL0     H51692   7.337   3.671  -0.250 -0.4002  0.1132  0.5367
  392MOL0     H51693   7.392   3.501  -0.385 -0.0216  2.3055 -0.9616
  392MOL0     H51694   7.251   3.439  -0.301  1.0220 -2.6948 -1.7662
  392MOL0     H51695   7.255   3.530  -0.599  2.5455  0.0862  1.8064
  392MOL0     H51696   7.105   3.481  -0.522 -0.3942 -1.7916  0.5982
  392MOL0     H51697   7.451   3.383  -0.640 -0.1107  1.2666 -0.1063
  392MOL0     H51698   7.533   3.005  -0.606  0.5725 -0.7077 -1.6217
  392MOL0     H51699   7.591   3.156  -0.613  0.2344  0.4045  0.5635
  392MOL0     H51700   7.571   2.994  -0.834  0.1394 -1.0067  1.9425
  392MOL0     H51701   7.562   3.170  -0.854  1.0297 -1.2649 -1.2041
  392MOL0     H51702   7.331   2.955  -0.849 -2.4675  0.8457 -0.1883
  392MOL0     H51703   7.290   3.113  -0.852 -1.1430 -1.6749  0.9046
  392MOL0     H51704   7.417   3.153  -1.053  0.5734 -0.2981 -0.1687
  392MOL0     H51705   7.283   3.045  -1.076 -0.5021  0.7722  0.2146
  392MOL0     H51706   7.228   2.849  -1.032  1.9148  1.6166  0.8082
  392MOL0     H51707   7.173   2.611  -1.043  1.1649 -2.8768 -0.8528
  392MOL0     H51708   7.655   2.201  -1.195  1.8332  0.0349  0.3424
  392MOL0     H51709   7.669   1.956  -1.206  0.5103  1.2242 -0.2389
  392MOL0     H51710   7.633   1.721  -1.247  0.6208 -5.2296 -2.1010
  392MOL0     H51711   7.508   1.604  -1.242 -0.8175  2.4352 -1.7960
  392MOL0     H51712   7.502   1.610  -1.001  1.4724 -0.6079  0.5962
  392MOL0     H51713   7.655   1.708  -1.007 -1.9536  0.6934  0.3784
  392MOL0     H51714   7.769   1.530  -1.125 -1.1786 -0.0242 -2.3361
  392MOL0     H51715   7.629   1.430  -1.134  2.1473 -0.5903 -0.4349
  392MOL0     H51716   7.727   1.521  -0.865 -4.2166  1.3660 -0.4008
  392MOL0     H51717   7.609   1.399  -0.899  0.2527 -0.2792 -0.5682
  392MOL0     H51718   7.765   1.248  -1.005 -1.0154  3.0294 -0.3843
  392MOL0     H51719   7.801   1.259  -0.840  0.2800 -2.1271 -0.7636
  392MOL0     H51720   7.943   1.474  -0.916 -0.5251  0.5701  0.7393
  392MOL0     H51721   7.963   1.352  -1.052 -2.4732  0.1371 -0.4800
  392MOL0     H51722   8.029   1.327  -0.777 -1.4038  0.5299  0.0650
  392MOL0     H51723   8.033   1.179  -0.891  1.2412 -0.3993 -3.4547
  392MOL0     H51724   8.219   1.427  -0.897  2.1453 -1.8306  2.2381
  392MOL0     H51725   8.203   1.288  -1.017 -3.1561  1.9130 -1.8750
  392MOL0     H51726   7.245   1.917  -1.158 -0.8352 -0.0144  0.1635
  392MOL0     H51727   7.219   2.162  -1.189 -1.2039 -1.7540  2.5032
  392MOL0     H51728   7.539   2.558  -1.268 -0.5848  0.2907 -1.4438
  392MOL0     H51729   7.603   2.791  -1.239  2.1427 -0.9404 -0.4296
  392MOL0     H51730   7.235   4.395   0.021 -0.9151  1.1580  0.8672
  392MOL0     H51731   7.371   4.401   0.210 -2.0661  2.0559 -1.3802
  392MOL0     H51732   7.681   4.101   0.571 -1.6196 -2.1749  1.1452
  392MOL0     H51733   7.734   4.102   0.816  1.2427  2.7086 -1.4702
  392MOL0     H51734   7.682   4.057   1.056  0.1309 -0.6209  1.2641
  392MOL0     H51735   7.636   4.151   1.176  1.5049 -0.6020 -0.1456
  392MOL0     H51736   7.877   4.199   1.149 -0.0319  0.9816  1.3422
  392MOL0     H51737   7.857   4.262   0.984 -1.9117 -0.5813 -0.9231
  392MOL0     H51738   7.719   4.433   1.045 -0.8905  1.0955  0.8339
  392MOL0     H51739   7.868   4.463   1.116 -0.7898  1.0031 -2.4818
  392MOL0     H51740   7.666   4.485   1.287 -2.3231 -2.2378  0.3459
  392MOL0     H51741   7.635   4.317   1.276  0.8010 -1.5547  1.6259
  392MOL0     H51742   7.932   4.386   1.560 -0.3819 -0.2623  0.0257
  392MOL0     H51743   7.396   4.350   0.892 -2.4471 -1.8349 -0.8696
  392MOL0     H51744   7.339   4.359   0.646 -1.6963 -1.2127  1.1351
  393MOL0     O51745   3.963   9.880  11.052 -0.2750 -0.8184 -0.1892
  393MOL0     C51746   3.985   9.953  10.957  0.2200 -0.3445 -0.6924
  393MOL0     O51747   4.101  10.010  10.932 -0.1031 -0.4226 -0.2536
  393MOL0     C51748   4.209   9.948  10.987  0.4669  1.1694  0.0164
  393MOL0     C51749   4.264   9.998  11.107  0.4280 -0.0469  0.2444
  393MOL0     C51750   4.376   9.937  11.161 -0.7896  0.4177 -0.0118
  393MOL0     C51751   4.439   9.827  11.096 -0.6838  0.4053  0.0321
  393MOL0     O51752   4.557   9.767  11.156  0.2628  0.0158  0.0682
  393MOL0     C51753   4.660   9.768  11.053 -0.0987 -0.5644  0.3218
  393MOL0     C51754   4.696   9.626  11.011  0.3750 -0.5355  0.4644
  393MOL0     C51755   4.782   9.563  11.117 -0.1676  0.4019 -0.4605
  393MOL0     C51756   4.812   9.413  11.079  0.2287  0.4203  0.0290
  393MOL0     C51757   4.728   9.302  11.147  0.6464 -0.3344 -0.2024
  393MOL0     C51758   4.754   9.309  11.311 -0.2470  1.0505  0.5256
  393MOL0     C51759   4.670   9.194  11.385  0.3299 -0.1218 -1.1921
  393MOL0     C51760   4.701   9.171  11.533  0.6134 -0.1224 -0.7852
  393MOL0     N51761   4.819   9.095  11.569 -0.8405 -0.3582 -0.2657
  393MOL0     C51762   4.932   9.161  11.614  0.2425  0.0593 -0.7505
  393MOL0     C51763   5.020   9.073  11.659 -0.4228  0.3988  0.6094
  393MOL0     C51764   5.146   9.094  11.735  0.4409 -0.7935  0.5127
  393MOL0     C51765   5.128   9.036  11.872 -0.3366  0.1699  0.0996
  393MOL0     C51766   5.068   9.137  11.964 -0.1235  0.1064  0.9199
  393MOL0     C51767   5.167   9.239  12.009  0.1665  1.2609 -0.6063
  393MOL0     O51768   5.109   9.363  12.046  0.3371 -0.1794  0.0403
  393MOL0     C51769   5.125   9.470  11.965 -0.2645 -1.0708 -0.0806
  393MOL0     C51770   5.190   9.477  11.843 -1.2316 -1.3602  0.1671
  393MOL0     C51771   5.206   9.600  11.769  0.3606  0.6478 -0.3096
  393MOL0     C51772   5.148   9.718  11.819 -0.7104  0.9771 -0.8763
  393MOL0     C51773   5.190   9.842  11.759  0.6476  0.2319  0.1006
  393MOL0     O51774   5.123   9.952  11.806 -0.8531  0.4439  0.5573
  393MOL0     C51775   5.178  10.082  11.781  0.9321 -0.2787 -0.4445
  393MOL0     C51776   5.293  10.129  11.835  0.1940 -0.0124 -0.1204
  393MOL0     C51777   5.350  10.257  11.802  0.9121 -0.0503  0.1669
  393MOL0     C51778   5.274  10.334  11.707 -0.1242  0.7047  0.4810
  393MOL0     O51779   5.316  10.458  11.672  0.3652 -0.8337  0.0151
  393MOL0     C51780   5.460  10.493  11.674  0.4548  0.5507 -0.9226
  393MOL0     C51781   5.458  10.641  11.634  0.2623 -0.6453 -0.0782
  393MOL0     C51782   5.475  10.642  11.476 -0.7926  0.1505 -0.3961
  393MOL0     C51783   5.466  10.782  11.409 -0.2895  1.4225  0.6023
  393MOL0     C51784   5.490  10.766  11.259  0.2391  1.6440 -0.5707
  393MOL0     C51785   5.482  10.901  11.179  0.1936  0.4561 -0.1233
  393MOL0     C51786   5.350  10.972  11.196 -0.1687  0.2307  0.3213
  393MOL0     C51787   5.301  11.061  11.083  0.4627 -0.2751  0.5004
  393MOL0    Cl51788   5.405  11.222  11.051  0.1426  0.3964  0.1905
  393MOL0     C51789   5.163  10.281  11.651  0.4583  0.4348  0.4903
  393MOL0     C51790   5.104  10.162  11.692 -1.2599  0.4902 -0.2865
  393MOL0     O51791   5.266   9.845  11.658  0.0908  0.9780 -0.2389
  393MOL0     C51792   5.065   9.701  11.925  0.2393 -0.7675  0.9958
  393MOL0     C51793   5.045   9.584  11.995 -0.9592 -0.1652  0.0984
  393MOL0     N51794   4.965   8.949  11.619 -0.5470 -0.3977 -1.1613
  393MOL0     N51795   4.852   8.961  11.563 -0.5306  0.0248  0.0191
  393MOL0     C51796   4.397   9.794  10.973  0.3575  0.1970 -0.1445
  393MOL0     C51797   4.283   9.846  10.918  0.1186 -0.6457 -0.1717
  393MOL0     C51798   3.865  10.009  10.900  0.3198  0.0329  0.8432
  393MOL0     C51799   3.741   9.947  10.927  0.0847 -0.6413  0.4413
  393MOL0     C51800   3.625  10.000  10.854 -0.5845  0.4397  0.4508
  393MOL0     C51801   3.638  10.098  10.764  0.5239  0.5110  0.7667
  393MOL0     O51802   3.526  10.133  10.700  0.0276 -0.4080 -0.3625
  393MOL0     C51803   3.511  10.093  10.562  0.8873  0.3958  0.4171
  393MOL0     C51804   3.410  10.189  10.497  0.0721  0.2963  0.4540
  393MOL0     C51805   3.336  10.142  10.372 -0.9037 -0.7863  0.4396
  393MOL0     C51806   3.425  10.081  10.268 -0.8943 -0.6211 -0.4167
  393MOL0     C51807   3.368  10.064  10.135  0.1988  0.2611  0.1488
  393MOL0     C51808   3.313  10.025  10.032  0.6959 -0.1565 -0.7457
  393MOL0     C51809   3.762  10.172  10.755 -0.5134 -0.1139  0.8223
  393MOL0     C51810   3.877  10.128  10.818 -0.2817 -0.2391  0.2947
  393MOL0     H51811   4.214  10.083  11.153 -2.1360 -1.1504 -0.3195
  393MOL0     H51812   4.410   9.981  11.253  2.1924 -1.9324  0.1703
  393MOL0     H51813   4.747   9.823  11.091  1.0417 -2.2623  0.2869
  393MOL0     H51814   4.630   9.818  10.961 -0.2789 -0.9126  0.1915
  393MOL0     H51815   4.757   9.631  10.921 -2.7686 -0.2237 -1.7860
  393MOL0     H51816   4.600   9.576  10.994 -0.0390  1.2152 -3.4109
  393MOL0     H51817   4.731   9.574  11.213 -1.2246 -2.7675 -0.5496
  393MOL0     H51818   4.877   9.617  11.119  1.9192 -2.8997 -1.2625
  393MOL0     H51819   4.798   9.412  10.970 -0.1403  0.5964  0.0743
  393MOL0     H51820   4.918   9.407  11.107  0.0830  3.0714  1.4593
  393MOL0     H51821   4.767   9.210  11.104  0.4338  0.3130 -1.8654
  393MOL0     H51822   4.624   9.328  11.125  0.2353 -2.4073 -0.8771
  393MOL0     H51823   4.730   9.407  11.353  1.4262  1.9125 -0.4185
  393MOL0     H51824   4.862   9.304  11.328 -0.3608 -1.9037  0.9279
  393MOL0     H51825   4.562   9.212  11.385 -0.1240 -2.5419 -0.1031
  393MOL0     H51826   4.690   9.105  11.325 -0.0001  0.3210 -1.9841
  393MOL0     H51827   4.620   9.113  11.580 -0.0614  2.3892  1.4487
  393MOL0     H51828   4.698   9.265  11.590  1.7836 -0.4683 -0.1201
  393MOL0     H51829   4.943   9.268  11.628  2.8443 -0.0519 -1.4300
  393MOL0     H51830   5.177   9.199  11.731 -0.1077 -0.6469 -0.0151
  393MOL0     H51831   5.232   9.042  11.692 -0.8342 -2.3472 -0.2633
  393MOL0     H51832   5.227   9.006  11.908  0.5840  0.3775 -2.1372
  393MOL0     H51833   5.069   8.944  11.865  1.6084 -1.0755 -0.9582
  393MOL0     H51834   4.979   9.176  11.912 -0.5995 -2.5472 -0.4063
  393MOL0     H51835   5.031   9.084  12.052 -0.7867  3.3606  2.7582
  393MOL0     H51836   5.250   9.238  11.938 -1.1929 -0.5316 -2.2654
  393MOL0     H51837   5.194   9.192  12.104  2.4264  0.1079 -1.7182
  393MOL0     H51838   5.234   9.385  11.805  0.4452 -0.0766 -1.1440
  393MOL0     H51839   5.261   9.601  11.676  0.0004  3.2511 -0.5476
  393MOL0     H51840   5.355  10.061  11.892  0.2080  2.5862  3.3018
  393MOL0     H51841   5.440  10.287  11.855 -0.1203  0.7755  1.5154
  393MOL0     H51842   5.518  10.434  11.602  0.4629  3.0309 -3.1174
  393MOL0     H51843   5.508  10.484  11.772 -0.3523 -0.0761 -0.5827
  393MOL0     H51844   5.527  10.705  11.690  2.4831 -2.1287 -0.9415
  393MOL0     H51845   5.360  10.682  11.659  0.5904 -0.5309  1.0945
  393MOL0     H51846   5.406  10.576  11.423  0.9449 -1.5492 -0.6742
  393MOL0     H51847   5.573  10.604  11.446 -0.7304  2.1695 -3.1130
  393MOL0     H51848   5.368  10.830  11.419 -1.5078 -0.5121 -1.0704
  393MOL0     H51849   5.538  10.843  11.464  2.4724 -0.8874 -0.2339
  393MOL0     H51850   5.408  10.708  11.215  2.0157 -1.0447 -0.5865
  393MOL0     H51851   5.579  10.707  11.234 -2.0945 -2.4484 -0.1534
  393MOL0     H51852   5.502  10.880  11.074  2.9592  2.7081 -0.2007
  393MOL0     H51853   5.575  10.957  11.196  2.0611 -2.1524 -1.0491
  393MOL0     H51854   5.265  10.903  11.204 -2.5852  2.6480 -2.2042
  393MOL0     H51855   5.360  11.031  11.288 -0.1339 -0.0150  0.4765
  393MOL0     H51856   5.204  11.105  11.109  1.7559  1.7149  2.2845
  393MOL0     H51857   5.280  11.005  10.991  0.6611 -1.4795  1.1632
  393MOL0     H51858   5.113  10.339  11.574 -0.4035  2.1729  2.2705
  393MOL0     H51859   5.004  10.140  11.658 -0.8239  1.0239 -1.9855
  393MOL0     H51860   4.999   9.783  11.950  0.1810 -0.5424  0.1376
  393MOL0     H51861   4.983   9.573  12.083 -0.3546  0.8847  0.6855
  393MOL0     H51862   4.452   9.720  10.916  3.3875  2.7990 -0.9067
  393MOL0     H51863   4.239   9.810  10.826 -1.8537  0.1854  0.3882
  393MOL0     H51864   3.726   9.877  11.009 -2.1750  3.5838  4.0699
  393MOL0     H51865   3.527   9.954  10.866 -0.3688 -0.5008 -1.0207
  393MOL0     H51866   3.469   9.992  10.564 -0.8286  1.0684  0.7795
  393MOL0     H51867   3.604  10.087  10.506  0.0954 -1.1922 -0.8063
  393MOL0     H51868   3.339  10.217  10.575 -1.0254 -0.9889 -0.0444
  393MOL0     H51869   3.467  10.278  10.470 -3.1174  2.5321  0.5110
  393MOL0     H51870   3.285  10.230  10.331  0.3357 -0.5017 -0.5733
  393MOL0     H51871   3.254  10.072  10.391 -0.6041 -0.5851  2.6269
  393MOL0     H51872   3.517  10.140  10.265 -0.4462 -1.2151  0.8480
  393MOL0     H51873   3.462   9.989  10.313  0.0698 -0.9478 -1.8199
  393MOL0     H51874   3.261  10.012   9.940 -0.9390  0.0412  0.1246
  393MOL0     H51875   3.765  10.261  10.694  0.0249  0.3568  1.5237
  393MOL0     H51876   3.967  10.185  10.800  0.5823 -2.2788 -2.4403
  394MOL0     O51877   5.597   0.964   7.530  0.2092 -0.3102 -0.4926
  394MOL0     C51878   5.625   1.078   7.500  0.5054 -0.1883 -0.1757
  394MOL0     O51879   5.555   1.159   7.419  0.1216  0.2919  0.3522
  394MOL0     C51880   5.442   1.106   7.373  0.0204  0.2178  0.3227
  394MOL0     C51881   5.440   1.103   7.229  0.6777 -0.0177 -0.2660
  394MOL0     C51882   5.336   1.035   7.162 -0.7696  0.0908 -1.3765
  394MOL0     C51883   5.222   0.987   7.236 -0.4444 -0.2998 -0.3763
  394MOL0     O51884   5.112   0.920   7.177  0.1362  0.1500 -0.7007
  394MOL0     C51885   5.118   0.909   7.033 -0.0943 -0.5943 -0.0086
  394MOL0     C51886   5.087   1.046   6.959  0.2128  1.1933 -0.0883
  394MOL0     C51887   5.115   1.029   6.803 -0.3610  0.4661  0.5707
  394MOL0     C51888   5.036   0.929   6.717  0.5135  0.0148  0.2540
  394MOL0     C51889   5.064   0.915   6.564  0.5212  0.1814  0.0521
  394MOL0     C51890   5.043   1.051   6.489  0.2632  0.4113 -0.0049
  394MOL0     C51891   5.059   1.024   6.341  0.0262 -0.5172 -0.2294
  394MOL0     C51892   5.013   1.141   6.256 -0.2248 -0.3153  0.3754
  394MOL0     N51893   5.046   1.150   6.114  0.3780  0.2584  0.1471
  394MOL0     C51894   5.065   1.054   6.011 -0.4935  0.0249 -0.6448
  394MOL0     C51895   5.079   1.124   5.902  0.3827  0.4708  0.2156
  394MOL0     C51896   5.116   1.085   5.761 -0.7444  0.3583 -0.5529
  394MOL0     C51897   5.271   1.084   5.753 -0.1533  0.3164 -1.1017
  394MOL0     C51898   5.322   1.048   5.609  0.8320 -0.1469 -0.1690
  394MOL0     C51899   5.468   1.058   5.600 -0.1641 -0.4022 -0.4135
  394MOL0     O51900   5.503   1.199   5.622  0.2678 -0.0596  0.6021
  394MOL0     C51901   5.612   1.257   5.563 -0.7682  0.7339 -0.4283
  394MOL0     C51902   5.729   1.182   5.563 -1.0596 -0.1508 -0.2624
  394MOL0     C51903   5.847   1.237   5.514  0.5433  0.8120 -0.2747
  394MOL0     C51904   5.850   1.367   5.471 -0.9195  0.3145 -0.2060
  394MOL0     C51905   5.973   1.419   5.391  0.9968  1.1043  1.1880
  394MOL0     O51906   6.070   1.331   5.354 -0.7576 -0.3613 -0.1146
  394MOL0     C51907   6.155   1.361   5.249  0.2171 -0.4021  0.0536
  394MOL0     C51908   6.105   1.375   5.121  0.3230  0.5219  0.2944
  394MOL0     C51909   6.191   1.418   5.013  1.2717 -0.5662  0.2191
  394MOL0     C51910   6.321   1.448   5.042  0.9660  0.9323  1.1627
  394MOL0     O51911   6.403   1.485   4.931 -0.4050 -0.0958  0.2305
  394MOL0     C51912   6.535   1.523   4.949 -0.1819  0.1031 -0.1761
  394MOL0     C51913   6.585   1.591   4.820  0.2955 -0.3343  1.0238
  394MOL0     C51914   6.698   1.686   4.864 -1.0958 -0.5171 -0.0883
  394MOL0     C51915   6.785   1.750   4.763 -0.1254 -0.1399  0.3486
  394MOL0     C51916   6.915   1.795   4.832 -0.1975  0.6808  0.1012
  394MOL0     C51917   6.888   1.902   4.946 -0.1218 -0.4844 -0.5420
  394MOL0     C51918   7.033   1.972   4.961  1.0608 -0.7421  0.1303
  394MOL0     C51919   7.141   1.888   5.014  0.5619 -1.0022 -0.2524
  394MOL0    Cl51920   7.271   1.989   5.078 -0.6435 -0.5731 -0.4389
  394MOL0     C51921   6.370   1.424   5.166 -0.2196  0.4807 -0.0528
  394MOL0     C51922   6.286   1.404   5.274 -0.2487  0.6353 -0.3713
  394MOL0     O51923   5.958   1.534   5.348  0.1139  0.6083 -0.1335
  394MOL0     C51924   5.737   1.448   5.487  0.0023 -0.6693  1.1183
  394MOL0     C51925   5.612   1.389   5.517 -0.8842 -0.6470  0.1043
  394MOL0     N51926   5.072   1.257   5.932  0.3104  0.0906 -0.3905
  394MOL0     N51927   5.045   1.273   6.063 -0.3824  0.8903 -0.8146
  394MOL0     C51928   5.214   1.009   7.374  0.7357 -0.9324  0.5238
  394MOL0     C51929   5.322   1.065   7.445  0.1331  0.4448  0.6991
  394MOL0     C51930   5.752   1.141   7.548 -0.4486 -0.6403  0.1626
  394MOL0     C51931   5.865   1.062   7.583  0.0569  0.1056 -0.2316
  394MOL0     C51932   5.969   1.116   7.653  0.2073  0.3945 -0.1717
  394MOL0     C51933   5.979   1.255   7.672  0.8849 -0.0113  0.0002
  394MOL0     O51934   6.084   1.306   7.745 -0.0598  0.8003  0.1837
  394MOL0     C51935   6.042   1.373   7.860 -0.2590 -0.2639  0.2179
  394MOL0     C51936   6.139   1.481   7.905  0.1212  0.1483  0.5038
  394MOL0     C51937   6.094   1.552   8.026  1.0017 -0.3396 -0.7405
  394MOL0     C51938   5.964   1.620   8.028 -0.1135  0.0298  0.4189
  394MOL0     C51939   5.953   1.721   7.916 -0.7814  0.3436  0.2275
  394MOL0     C51940   5.945   1.812   7.836  0.2428  0.4841  0.2614
  394MOL0     C51941   5.876   1.342   7.620  0.5812  0.9497 -0.7354
  394MOL0     C51942   5.759   1.279   7.561  0.3151 -0.5382 -0.5506
  394MOL0     H51943   5.522   1.133   7.165  0.5971  0.0827 -0.3223
  394MOL0     H51944   5.360   1.023   7.057  1.6399  1.0702 -0.9926
  394MOL0     H51945   5.048   0.828   7.009 -5.4279  2.0975  4.1746
  394MOL0     H51946   5.218   0.874   7.008 -0.3170  0.5814 -2.8797
  394MOL0     H51947   5.153   1.123   7.002  1.4219  0.3784 -0.4319
  394MOL0     H51948   4.986   1.085   6.975  1.3162  4.0590  0.5929
  394MOL0     H51949   5.221   1.018   6.777 -0.9724 -0.9718 -1.6481
  394MOL0     H51950   5.078   1.122   6.759 -1.4261  1.5565  3.5417
  394MOL0     H51951   5.035   0.832   6.768  0.0715 -2.7556 -4.4178
  394MOL0     H51952   4.932   0.961   6.726  0.2934 -0.5177 -0.2954
  394MOL0     H51953   5.009   0.831   6.521  0.7703 -2.0193  3.5823
  394MOL0     H51954   5.169   0.893   6.546  0.5497  0.0965  0.3135
  394MOL0     H51955   5.125   1.116   6.520 -0.0829  0.1743  1.4940
  394MOL0     H51956   4.956   1.108   6.522  0.9113  0.7229  1.2233
  394MOL0     H51957   5.166   1.005   6.330 -0.1284 -1.6251  0.0577
  394MOL0     H51958   5.014   0.931   6.305 -1.3667  0.0624 -0.0795
  394MOL0     H51959   5.059   1.230   6.300 -0.9707 -0.1057  0.7490
  394MOL0     H51960   4.904   1.152   6.262 -0.1262  1.3179 -0.3838
  394MOL0     H51961   5.071   0.946   6.023  0.7039  0.3362  2.4588
  394MOL0     H51962   5.077   1.151   5.683  1.9418  1.2199 -1.2947
  394MOL0     H51963   5.085   0.981   5.748  2.8931 -1.1037  1.0053
  394MOL0     H51964   5.316   1.007   5.816 -0.4783  1.4132  0.5281
  394MOL0     H51965   5.306   1.179   5.793  0.0323 -0.1998  0.0004
  394MOL0     H51966   5.288   0.950   5.574  2.2611 -1.1385  1.0792
  394MOL0     H51967   5.265   1.118   5.547 -4.6413 -1.9341  2.2557
  394MOL0     H51968   5.513   1.027   5.505  1.1306  1.9802 -0.6661
  394MOL0     H51969   5.522   0.987   5.663  2.6906  0.2739 -1.9209
  394MOL0     H51970   5.732   1.082   5.606 -1.4380  0.1421  0.4650
  394MOL0     H51971   5.933   1.171   5.507  2.6077  3.3851 -0.8341
  394MOL0     H51972   6.001   1.361   5.092  0.0974 -1.3093  1.8219
  394MOL0     H51973   6.150   1.421   4.913 -1.0481 -1.2794  1.0690
  394MOL0     H51974   6.605   1.445   4.982  0.5180 -0.1309 -2.0601
  394MOL0     H51975   6.525   1.596   5.029 -2.2168 -0.3440  0.0299
  394MOL0     H51976   6.509   1.655   4.774  2.1943  0.3691 -1.2709
  394MOL0     H51977   6.622   1.516   4.750  1.0818 -0.2209  1.3144
  394MOL0     H51978   6.763   1.619   4.922 -1.1702 -2.9732 -2.5998
  394MOL0     H51979   6.668   1.763   4.935  1.3416  0.1602  0.2956
  394MOL0     H51980   6.820   1.684   4.682  1.2907 -0.1960  0.9708
  394MOL0     H51981   6.731   1.839   4.730  2.6382  1.4217 -0.2766
  394MOL0     H51982   6.973   1.852   4.758 -1.3186 -0.2729 -1.5839
  394MOL0     H51983   6.976   1.711   4.866 -1.1036 -0.5224 -1.1173
  394MOL0     H51984   6.858   1.854   5.040  1.5417  0.0053  0.2804
  394MOL0     H51985   6.817   1.976   4.907 -2.8455 -2.8703 -0.4065
  394MOL0     H51986   7.068   2.021   4.870 -3.5481  0.4768 -1.2554
  394MOL0     H51987   7.028   2.047   5.041 -0.5553 -1.7968  1.0935
  394MOL0     H51988   7.185   1.816   4.944  2.4835  0.2201 -0.3687
  394MOL0     H51989   7.103   1.826   5.096 -2.5833  2.4701  1.1747
  394MOL0     H51990   6.476   1.442   5.183 -0.2718 -1.3049  2.7906
  394MOL0     H51991   6.312   1.400   5.380 -4.6657 -0.9635  0.8844
  394MOL0     H51992   5.732   1.555   5.465 -3.2038 -0.4643  2.3994
  394MOL0     H51993   5.518   1.439   5.502 -0.5835 -0.7073 -2.3521
  394MOL0     H51994   5.124   0.981   7.428 -1.4826  2.8093 -0.8283
  394MOL0     H51995   5.325   1.098   7.548  2.5928  2.4426  0.0794
  394MOL0     H51996   5.868   0.956   7.559  4.7649  0.6713 -3.4094
  394MOL0     H51997   6.046   1.056   7.700  1.3310  1.2180 -0.8760
  394MOL0     H51998   6.032   1.308   7.947  1.3779 -1.3093 -0.3289
  394MOL0     H51999   5.942   1.412   7.839 -1.6341 -1.6515  3.4738
  394MOL0     H52000   6.239   1.438   7.920 -0.3536 -0.1835  3.2617
  394MOL0     H52001   6.153   1.560   7.831 -4.3157  2.8240  2.0923
  394MOL0     H52002   6.166   1.626   8.062  0.2057 -0.5596  1.5166
  394MOL0     H52003   6.081   1.490   8.115  0.3048  2.4769  1.2651
  394MOL0     H52004   5.898   1.533   8.021 -1.7735  1.0687  2.0614
  394MOL0     H52005   5.939   1.665   8.125 -1.1113 -0.5736  0.4472
  394MOL0     H52006   5.935   1.896   7.771  1.8878  1.2975  0.9815
  394MOL0     H52007   5.889   1.450   7.632  1.6169  0.7224  0.3791
  394MOL0     H52008   5.682   1.343   7.519 -0.0394 -0.0834  0.7466
  395MOL0     O52009   7.009   2.428   4.140  0.0874  0.2393  0.4202
  395MOL0     C52010   7.056   2.470   4.239  0.5375 -0.7727  0.7076
  395MOL0     O52011   7.005   2.574   4.321  0.1644 -0.0338  1.2461
  395MOL0     C52012   6.888   2.647   4.290  0.1869 -0.9160 -0.4401
  395MOL0     C52013   6.768   2.590   4.245 -0.4074 -1.3578  0.6379
  395MOL0     C52014   6.653   2.667   4.228 -0.7052  0.3400  1.0249
  395MOL0     C52015   6.659   2.806   4.247  0.9497  0.4337  0.3521
  395MOL0     O52016   6.561   2.894   4.228 -0.1135 -0.5112 -0.3110
  395MOL0     C52017   6.491   2.884   4.102 -0.3927  0.5952 -0.6567
  395MOL0     C52018   6.425   3.014   4.056  0.4295 -0.2436 -0.1853
  395MOL0     C52019   6.350   2.989   3.922  0.6246  0.1574  0.5803
  395MOL0     C52020   6.291   3.113   3.850  0.0058 -0.6657 -0.7352
  395MOL0     C52021   6.285   3.082   3.705  0.1434 -0.1001  0.1447
  395MOL0     C52022   6.186   2.972   3.673 -0.1236  0.2684 -0.1243
  395MOL0     C52023   6.195   2.958   3.521  0.0104  0.4643  0.0243
  395MOL0     C52024   6.077   2.858   3.493 -0.0293 -1.1549  0.7107
  395MOL0     N52025   6.106   2.791   3.362  0.0623  0.4959 -0.4800
  395MOL0     C52026   6.013   2.735   3.274 -0.2824  0.2407  0.3919
  395MOL0     C52027   6.081   2.650   3.191  0.0312  0.2538 -1.2962
  395MOL0     C52028   6.029   2.551   3.091 -0.3479  0.1536  0.6939
  395MOL0     C52029   6.011   2.625   2.951  0.0923  0.4734  0.7472
  395MOL0     C52030   5.876   2.699   2.928  0.1303 -0.6768 -0.2971
  395MOL0     C52031   5.777   2.591   2.878  0.0523  0.3189 -0.6970
  395MOL0     O52032   5.641   2.637   2.847 -0.1064  0.0345 -0.2629
  395MOL0     C52033   5.605   2.662   2.718  0.8374 -0.4914  0.0932
  395MOL0     C52034   5.695   2.684   2.614  0.6314  0.1894  0.2994
  395MOL0     C52035   5.657   2.714   2.483  0.4084 -0.1542 -0.1588
  395MOL0     C52036   5.516   2.737   2.467  0.6879 -0.1284 -0.5705
  395MOL0     C52037   5.461   2.776   2.328  1.0530 -0.4729  0.2171
  395MOL0     O52038   5.330   2.819   2.321 -0.1836 -0.4021 -0.0011
  395MOL0     C52039   5.272   2.816   2.196 -0.1285  0.3533  0.5283
  395MOL0     C52040   5.298   2.914   2.098  0.0921 -0.0022  0.1884
  395MOL0     C52041   5.226   2.922   1.979 -0.5770 -0.4130  0.6051
  395MOL0     C52042   5.122   2.835   1.952  0.2799  0.6518 -0.2332
  395MOL0     O52043   5.053   2.811   1.843  0.4085 -0.3245 -0.3112
  395MOL0     C52044   5.054   2.901   1.731 -0.3753  0.6635  0.6712
  395MOL0     C52045   4.906   2.919   1.699  0.3184 -0.9015  1.0597
  395MOL0     C52046   4.819   2.799   1.723  0.4367  0.0485 -0.1714
  395MOL0     C52047   4.871   2.670   1.644  0.0656 -1.0225  0.6329
  395MOL0     C52048   4.899   2.685   1.486 -0.2044  0.7561  0.6337
  395MOL0     C52049   4.979   2.562   1.434 -0.2710  0.2581  0.5356
  395MOL0     C52050   5.000   2.571   1.287  0.0557 -0.4746  0.3157
  395MOL0     C52051   5.096   2.462   1.252 -0.0795 -0.4191  0.5798
  395MOL0    Cl52052   5.265   2.486   1.296  0.3146 -0.0944 -0.0687
  395MOL0     C52053   5.103   2.735   2.047  0.8067  0.7307 -0.6761
  395MOL0     C52054   5.174   2.719   2.163 -0.4585  0.5752 -0.7231
  395MOL0     O52055   5.535   2.752   2.234 -0.0106 -0.0511  0.3212
  395MOL0     C52056   5.432   2.707   2.562  0.3396  0.7315 -0.5294
  395MOL0     C52057   5.474   2.676   2.689 -0.6830  0.8387  0.5399
  395MOL0     N52058   6.214   2.645   3.234 -0.5690 -1.2023 -0.1077
  395MOL0     N52059   6.220   2.725   3.341 -0.2300  0.3060  0.6575
  395MOL0     C52060   6.768   2.863   4.300 -1.4949  0.0000  1.1354
  395MOL0     C52061   6.881   2.790   4.325  0.6595 -0.8734  0.2368
  395MOL0     C52062   7.184   2.408   4.284 -0.2096 -0.2506 -0.0610
  395MOL0     C52063   7.244   2.298   4.210 -0.0402 -1.0629  0.2942
  395MOL0     C52064   7.365   2.232   4.232  1.1750 -0.0272  0.0125
  395MOL0     C52065   7.439   2.288   4.334  0.5886  0.9450 -1.3959
  395MOL0     O52066   7.561   2.230   4.352 -0.3078 -0.4472  0.7258
  395MOL0     C52067   7.591   2.088   4.316  1.2866 -0.2051 -0.0626
  395MOL0     C52068   7.723   2.058   4.399  0.5753  0.4198  0.0857
  395MOL0     C52069   7.835   2.144   4.363 -1.0528  0.1624  0.1415
  395MOL0     C52070   7.964   2.087   4.408  0.3699 -0.2425  1.0459
  395MOL0     C52071   8.069   2.185   4.381  0.9503 -1.0806 -0.7223
  395MOL0     C52072   8.168   2.253   4.371  0.0104  0.1097  0.5087
  395MOL0     C52073   7.391   2.400   4.406  0.1058 -0.2127 -0.8880
  395MOL0     C52074   7.270   2.462   4.381  0.2826  0.1108 -0.1296
  395MOL0     H52075   6.772   2.489   4.204 -0.9946 -1.4680  0.8398
  395MOL0     H52076   6.562   2.618   4.196 -0.5062 -1.5536  3.1550
  395MOL0     H52077   6.417   2.807   4.127  3.3893 -2.9404  0.7095
  395MOL0     H52078   6.559   2.839   4.029 -0.2348 -0.4956  0.1348
  395MOL0     H52079   6.496   3.096   4.037 -2.7523  2.1057 -3.2669
  395MOL0     H52080   6.357   3.064   4.126 -1.5821 -1.7143 -0.9882
  395MOL0     H52081   6.265   2.923   3.939 -1.6143  2.0572 -2.1674
  395MOL0     H52082   6.410   2.937   3.847 -2.0222 -0.1965 -1.4193
  395MOL0     H52083   6.199   3.126   3.907  1.2839  0.5810  1.1721
  395MOL0     H52084   6.342   3.209   3.862 -0.3718 -0.6317  0.8278
  395MOL0     H52085   6.385   3.057   3.668  0.3312 -0.8370  1.0938
  395MOL0     H52086   6.256   3.171   3.650 -0.2780 -0.0776  0.4011
  395MOL0     H52087   6.085   3.001   3.703  0.1316  0.3966  0.6597
  395MOL0     H52088   6.199   2.875   3.723  1.2517 -0.5718 -1.9928
  395MOL0     H52089   6.172   3.054   3.475 -0.1079 -0.5608 -2.1656
  395MOL0     H52090   6.295   2.930   3.488  0.8480  3.1692  0.0002
  395MOL0     H52091   5.990   2.921   3.474  1.0098  0.0810 -0.1372
  395MOL0     H52092   6.057   2.783   3.571 -3.3450 -2.9149 -1.5640
  395MOL0     H52093   5.909   2.763   3.276 -1.9667 -4.9129  0.8250
  395MOL0     H52094   5.932   2.513   3.124 -1.4152  1.3534 -0.9223
  395MOL0     H52095   6.100   2.468   3.087 -2.2414 -1.5818  1.0214
  395MOL0     H52096   6.031   2.553   2.872  1.5998 -0.7588  2.1841
  395MOL0     H52097   6.085   2.705   2.945 -2.3250  2.9103  0.9925
  395MOL0     H52098   5.845   2.752   3.018  2.9944  2.1966 -0.7711
  395MOL0     H52099   5.897   2.771   2.847  2.4034  1.4159  1.9483
  395MOL0     H52100   5.774   2.512   2.953  2.8239  0.6489 -0.1430
  395MOL0     H52101   5.812   2.531   2.793  1.8641  0.8163 -0.3485
  395MOL0     H52102   5.802   2.672   2.618  0.7232  1.2841  2.6546
  395MOL0     H52103   5.738   2.730   2.412  1.5762 -0.2273  1.1022
  395MOL0     H52104   5.380   2.984   2.112  1.3938 -1.7285  1.6211
  395MOL0     H52105   5.248   3.004   1.913  1.1929 -0.7141  0.7878
  395MOL0     H52106   5.090   2.851   1.640 -0.9920 -0.9274  1.2600
  395MOL0     H52107   5.103   2.997   1.750  0.3243  0.5589 -0.4646
  395MOL0     H52108   4.911   2.950   1.595 -1.6773  2.3362  1.7929
  395MOL0     H52109   4.878   3.008   1.756  2.1621  1.2829 -1.2292
  395MOL0     H52110   4.720   2.828   1.687 -0.1033  2.8847  3.1167
  395MOL0     H52111   4.808   2.773   1.828 -1.7153 -0.6117 -0.5260
  395MOL0     H52112   4.971   2.644   1.682  1.2226  1.6500 -0.3328
  395MOL0     H52113   4.800   2.588   1.658 -1.3068 -0.2283 -1.2167
  395MOL0     H52114   4.962   2.773   1.471  0.0221  0.1802 -2.2498
  395MOL0     H52115   4.811   2.707   1.426  0.1551 -0.5858 -0.4366
  395MOL0     H52116   4.948   2.465   1.472  2.7522  0.1333  3.1082
  395MOL0     H52117   5.075   2.578   1.485  0.0112  1.1420 -0.2420
  395MOL0     H52118   4.901   2.556   1.243 -1.1841  0.1306  2.7390
  395MOL0     H52119   5.050   2.665   1.263  0.7011 -0.8271  0.2362
  395MOL0     H52120   5.102   2.459   1.143 -2.7335 -1.2644  0.4041
  395MOL0     H52121   5.056   2.368   1.291 -3.3665 -0.2987 -2.0857
  395MOL0     H52122   5.028   2.657   2.045  0.0115  1.4280  0.3684
  395MOL0     H52123   5.160   2.629   2.222  2.0528  0.8361  0.4099
  395MOL0     H52124   5.329   2.688   2.535  0.1252  1.4479 -0.2399
  395MOL0     H52125   5.395   2.655   2.760  1.3589 -1.4094  2.3037
  395MOL0     H52126   6.777   2.968   4.324 -0.1721  0.0023  0.7167
  395MOL0     H52127   6.968   2.843   4.362  0.9353 -1.3104  0.2225
  395MOL0     H52128   7.191   2.259   4.124  1.1582  1.3093 -1.6659
  395MOL0     H52129   7.404   2.150   4.173  1.6239  0.4097 -0.3115
  395MOL0     H52130   7.617   2.068   4.212  2.1014 -1.3070  0.3398
  395MOL0     H52131   7.512   2.018   4.343  0.3786  0.6231 -0.5096
  395MOL0     H52132   7.722   2.060   4.508  1.0635  2.0626  0.0782
  395MOL0     H52133   7.744   1.955   4.369  0.3362 -0.5976  3.1155
  395MOL0     H52134   7.819   2.249   4.390  0.6314  0.6873 -0.7312
  395MOL0     H52135   7.848   2.160   4.255  1.3536 -1.6606  0.1015
  395MOL0     H52136   7.965   2.062   4.514  1.6158  5.3228  2.6769
  395MOL0     H52137   7.975   1.997   4.347 -2.1624 -0.3619  0.6528
  395MOL0     H52138   8.263   2.303   4.368  1.8460 -3.1467 -1.1201
  395MOL0     H52139   7.469   2.443   4.468  0.2717 -0.7123 -0.7423
  395MOL0     H52140   7.231   2.541   4.445 -0.2581  1.0175 -1.5240
  396MOL0     O52141  10.097   0.798   9.179 -0.9568 -0.5104  0.4755
  396MOL0     C52142  10.216   0.778   9.152  0.4841 -0.2302 -0.0836
  396MOL0     O52143  10.314   0.752   9.245  0.4629 -0.2533  0.6143
  396MOL0     C52144  10.283   0.734   9.380 -0.7083 -0.2111 -0.6494
  396MOL0     C52145  10.327   0.824   9.472  0.2884 -0.3436  0.1667
  396MOL0     C52146  10.308   0.794   9.611 -0.7267 -0.8503  0.7368
  396MOL0     C52147  10.238   0.678   9.645  0.4391 -0.2155  0.3402
  396MOL0     O52148  10.230   0.653   9.779  0.5220 -1.1743  0.0653
  396MOL0     C52149  10.168   0.532   9.823  0.1407  0.4582 -0.0310
  396MOL0     C52150  10.188   0.504   9.975  0.6036 -0.1239  0.0665
  396MOL0     C52151  10.142   0.623  10.054  0.1769 -0.5328 -0.5641
  396MOL0     C52152  10.146   0.607  10.203 -0.5514  0.2214  0.2814
  396MOL0     C52153  10.136   0.741  10.276  0.1428 -0.2691 -0.1567
  396MOL0     C52154   9.996   0.791  10.301 -0.3920 -0.0015  0.7770
  396MOL0     C52155   9.981   0.919  10.378 -0.1536 -0.4070  0.3159
  396MOL0     C52156  10.019   0.884  10.519 -0.0037 -1.0146 -0.2092
  396MOL0     N52157  10.052   1.001  10.607 -0.5791 -0.0843  0.8671
  396MOL0     C52158   9.986   1.124  10.625 -0.2848  0.4215  1.3033
  396MOL0     C52159  10.074   1.208  10.674 -1.3383  0.3140  0.4551
  396MOL0     C52160  10.035   1.343  10.725  0.4048 -0.1735 -0.1225
  396MOL0     C52161  10.111   1.465  10.661  0.2925  0.1103  0.5976
  396MOL0     C52162  10.259   1.464  10.659 -0.0321 -0.0661 -0.2236
  396MOL0     C52163  10.319   1.589  10.596  0.2816 -0.3793  0.0697
  396MOL0     O52164  10.249   1.703  10.647 -0.2537 -0.2478 -0.4911
  396MOL0     C52165  10.273   1.818  10.589  0.5040 -1.0980 -0.1759
  396MOL0     C52166  10.373   1.845  10.493 -0.1739 -0.5190  0.3699
  396MOL0     C52167  10.400   1.978  10.447 -0.3538  0.5891 -0.1019
  396MOL0     C52168  10.335   2.088  10.502  0.5206  0.3412 -0.2103
  396MOL0     C52169  10.361   2.229  10.466  1.1299  0.1176  0.2298
  396MOL0     O52170  10.281   2.323  10.531  0.9037  0.3304 -0.1393
  396MOL0     C52171  10.283   2.453  10.490  0.4412 -0.0892 -1.4893
  396MOL0     C52172  10.173   2.492  10.414  0.1916  0.1739  0.2627
  396MOL0     C52173  10.153   2.634  10.376 -0.0923 -0.2532  0.4225
  396MOL0     C52174  10.236   2.733  10.441 -0.3321 -1.4409  0.3612
  396MOL0     O52175  10.223   2.872  10.426 -0.2178 -0.8210 -0.2123
  396MOL0     C52176  10.089   2.919  10.419 -0.3020  0.4789  0.3473
  396MOL0     C52177  10.091   3.072  10.442  0.1687  0.6187 -0.3704
  396MOL0     C52178  10.159   3.147  10.332 -0.2095 -0.2061 -0.5829
  396MOL0     C52179  10.090   3.168  10.196 -0.2572 -0.5010 -0.4103
  396MOL0     C52180  10.183   3.200  10.076  0.1169 -0.8860  0.3429
  396MOL0     C52181  10.119   3.255   9.939  0.6862  0.1359 -0.5173
  396MOL0     C52182  10.049   3.382   9.932 -0.1945  0.1775 -0.7551
  396MOL0     C52183  10.053   3.457   9.803  0.2625 -0.0659  0.5005
  396MOL0    Cl52184   9.948   3.382   9.683 -0.5074  0.1557 -0.7444
  396MOL0     C52185  10.346   2.685  10.512 -0.1304  0.0724  0.1492
  396MOL0     C52186  10.375   2.546  10.537 -0.9019  0.1094 -0.4088
  396MOL0     O52187  10.447   2.265  10.388  0.0340 -0.3307  0.3626
  396MOL0     C52188  10.239   2.061  10.607  0.7214  0.2992 -0.0292
  396MOL0     C52189  10.212   1.926  10.646 -0.1311 -1.0524  0.2545
  396MOL0     N52190  10.200   1.144  10.686 -0.3482  0.1437 -0.1419
  396MOL0     N52191  10.183   1.019  10.650 -0.0128  1.0207  0.7797
  396MOL0     C52192  10.197   0.588   9.546  0.5588  0.3774 -0.9017
  396MOL0     C52193  10.224   0.618   9.417 -0.1754  0.3189 -0.6287
  396MOL0     C52194  10.257   0.817   9.015 -0.0752  0.3755 -0.2175
  396MOL0     C52195  10.166   0.861   8.918  0.7845  0.6092  0.3130
  396MOL0     C52196  10.219   0.872   8.789  0.3054  0.2105  1.0482
  396MOL0     C52197  10.360   0.865   8.757  0.9691 -0.5361  0.6902
  396MOL0     O52198  10.420   0.886   8.640  0.1249  0.8983  0.2192
  396MOL0     C52199  10.344   0.929   8.531 -0.1527 -0.9381  1.1587
  396MOL0     C52200  10.447   0.964   8.421  0.4849  0.7686  0.0998
  396MOL0     C52201  10.369   1.007   8.299 -0.5628 -0.1950 -0.8205
  396MOL0     C52202  10.455   1.042   8.180  0.6330 -0.9191  0.1888
  396MOL0     C52203  10.376   1.108   8.072  0.8341  0.4539 -0.1989
  396MOL0     C52204  10.306   1.162   7.986  0.2658 -0.0187 -0.1862
  396MOL0     C52205  10.449   0.842   8.865  0.2174 -0.7973  0.1154
  396MOL0     C52206  10.403   0.822   8.991  0.3036 -0.7548 -0.7138
  396MOL0     H52207  10.377   0.916   9.445 -0.6617  0.5302  1.3123
  396MOL0     H52208  10.337   0.854   9.696 -0.8633 -0.8796  0.8057
  396MOL0     H52209  10.214   0.450   9.768  0.2256  0.2079  0.4110
  396MOL0     H52210  10.060   0.539   9.803 -0.1261  2.7042  1.7278
  396MOL0     H52211  10.296   0.489   9.983  0.9335  0.6344 -2.1787
  396MOL0     H52212  10.133   0.413  10.000  0.3065 -0.5698 -2.0008
  396MOL0     H52213  10.039   0.647  10.029  0.1711  0.9609  0.7300
  396MOL0     H52214  10.211   0.703  10.027  0.2773  0.4300  2.2186
  396MOL0     H52215  10.067   0.540  10.240  0.9222  0.1842  3.7079
  396MOL0     H52216  10.245   0.577  10.237 -0.6489 -2.0070 -1.1366
  396MOL0     H52217  10.192   0.803  10.205 -2.4701  1.4616 -0.8408
  396MOL0     H52218  10.198   0.734  10.366 -0.0934 -1.0219 -0.0516
  396MOL0     H52219   9.941   0.713  10.354 -1.7792 -0.7679 -1.6102
  396MOL0     H52220   9.951   0.815  10.204 -2.7182 -1.3291  1.4475
  396MOL0     H52221  10.053   0.993  10.341 -1.0142  0.4300  0.2684
  396MOL0     H52222   9.886   0.971  10.365  0.5494  0.9680  0.5168
  396MOL0     H52223  10.105   0.818  10.526  2.1230  1.2653 -2.6500
  396MOL0     H52224   9.922   0.853  10.561 -1.5423  2.6383 -0.6772
  396MOL0     H52225   9.879   1.140  10.610 -0.3763  0.4185  1.9073
  396MOL0     H52226  10.042   1.351  10.834  0.9637  2.5321 -0.2888
  396MOL0     H52227   9.929   1.355  10.703  0.5873  1.6145 -0.2367
  396MOL0     H52228  10.067   1.554  10.708  3.7843  1.5965  1.3622
  396MOL0     H52229  10.078   1.460  10.557 -0.1194 -1.1368  0.7764
  396MOL0     H52230  10.309   1.436  10.752  0.2324  0.4912 -0.1973
  396MOL0     H52231  10.290   1.383  10.591 -0.9125 -1.4945  1.0117
  396MOL0     H52232  10.309   1.580  10.488 -2.5335  1.5516  0.0704
  396MOL0     H52233  10.426   1.590  10.622 -0.2819 -0.7286  2.7583
  396MOL0     H52234  10.451   1.777  10.461 -0.3046 -0.6203  0.2728
  396MOL0     H52235  10.480   1.996  10.377  1.9861  0.1351  2.3200
  396MOL0     H52236  10.114   2.413  10.370  3.3593 -0.7786 -2.7761
  396MOL0     H52237  10.081   2.682  10.311  3.0780  2.4303 -1.4202
  396MOL0     H52238  10.034   2.870  10.501 -2.8719  0.6042 -1.1819
  396MOL0     H52239  10.040   2.897  10.323  0.6429  0.4770 -0.1472
  396MOL0     H52240  10.132   3.091  10.542  0.8581 -0.6001 -0.4028
  396MOL0     H52241   9.986   3.100  10.446 -0.2803 -1.0337  1.5187
  396MOL0     H52242  10.254   3.093  10.328 -0.7005 -1.4465  2.2212
  396MOL0     H52243  10.196   3.243  10.369  2.8147 -2.4096  2.8822
  396MOL0     H52244  10.044   3.076  10.158 -2.9075  1.1358 -1.4215
  396MOL0     H52245  10.008   3.240  10.201 -0.7901 -1.1666  1.0819
  396MOL0     H52246  10.240   3.110  10.051  1.6342  0.0993  0.0955
  396MOL0     H52247  10.252   3.277  10.112  0.7320 -1.2329 -0.0797
  396MOL0     H52248  10.055   3.171   9.908  2.7642 -2.5574  1.8517
  396MOL0     H52249  10.192   3.257   9.858  0.7629 -7.2275 -1.3942
  396MOL0     H52250   9.943   3.381   9.959 -0.6622 -0.9299 -2.4232
  396MOL0     H52251  10.093   3.444  10.010  1.9121  2.9323 -3.8422
  396MOL0     H52252  10.151   3.473   9.759  0.2783 -0.4709  0.3834
  396MOL0     H52253  10.014   3.555   9.833  1.2685 -0.4785  3.4794
  396MOL0     H52254  10.419   2.749  10.561 -0.0057 -0.1163  0.2131
  396MOL0     H52255  10.464   2.523  10.595 -0.6330  0.3456 -0.7274
  396MOL0     H52256  10.197   2.135  10.674 -0.6277 -3.3580  3.5590
  396MOL0     H52257  10.151   1.915  10.736 -0.4641  1.0619  0.3407
  396MOL0     H52258  10.146   0.494   9.567  2.2559 -0.9833 -2.4784
  396MOL0     H52259  10.187   0.550   9.340  2.8378  2.1904 -4.0619
  396MOL0     H52260  10.059   0.868   8.932  1.0193 -0.0413  2.8612
  396MOL0     H52261  10.154   0.900   8.707  0.3610 -0.2650  0.8385
  396MOL0     H52262  10.283   1.015   8.558 -0.6530 -1.4707  1.7706
  396MOL0     H52263  10.264   0.861   8.499  0.9546 -0.6655 -2.7392
  396MOL0     H52264  10.517   1.037   8.462  1.9324 -0.3157 -0.3631
  396MOL0     H52265  10.517   0.882   8.401  1.6930  1.3117  1.8558
  396MOL0     H52266  10.294   1.084   8.317  1.3796  2.1029 -2.0007
  396MOL0     H52267  10.316   0.922   8.256  2.7448 -1.8335 -2.0260
  396MOL0     H52268  10.533   1.117   8.198  1.6528 -1.5121 -1.5110
  396MOL0     H52269  10.508   0.954   8.143  0.4783 -0.8896 -0.1035
  396MOL0     H52270  10.257   1.222   7.911 -0.9803 -1.8631 -0.9246
  396MOL0     H52271  10.555   0.840   8.841 -0.6010 -0.9899 -4.2256
  396MOL0     H52272  10.472   0.792   9.069  0.8349  0.2701 -0.7785
  397MOL0     O52273  10.025   3.610   6.304  0.1320 -0.4014  0.1276
  397MOL0     C52274  10.122   3.609   6.232  1.1468 -0.7338  0.2758
  397MOL0     O52275  10.245   3.669   6.258  0.1048  0.3504 -0.2333
  397MOL0     C52276  10.254   3.733   6.380 -0.6542 -0.4795 -1.5912
  397MOL0     C52277  10.294   3.869   6.395 -0.3554 -0.1417  0.4934
  397MOL0     C52278  10.333   3.922   6.512 -0.3649 -0.1103 -1.0034
  397MOL0     C52279  10.327   3.846   6.629  0.6220 -1.2687 -0.5928
  397MOL0     O52280  10.373   3.884   6.750 -0.2565  0.3379 -0.3715
  397MOL0     C52281  10.443   4.004   6.779 -0.2892  0.5584 -0.9342
  397MOL0     C52282  10.449   4.043   6.929  0.3380 -0.1533 -0.0012
  397MOL0     C52283  10.313   4.079   6.996 -0.5911 -0.5238 -0.4968
  397MOL0     C52284  10.321   4.119   7.145  1.1182 -0.2238  0.1462
  397MOL0     C52285  10.384   4.018   7.233 -0.0726  0.1793 -0.3722
  397MOL0     C52286  10.347   4.033   7.380 -0.0935  0.3188  0.2372
  397MOL0     C52287  10.413   4.161   7.434 -0.5327  0.5919  0.0811
  397MOL0     C52288  10.560   4.169   7.446 -0.1626 -0.2768 -0.0987
  397MOL0     N52289  10.583   4.292   7.521  0.5501 -0.5136 -0.8018
  397MOL0     C52290  10.578   4.307   7.660  0.0638  0.3856 -0.3523
  397MOL0     C52291  10.611   4.433   7.687  0.1988 -0.6326  0.0510
  397MOL0     C52292  10.613   4.489   7.823  0.4260  0.7796  0.3151
  397MOL0     C52293  10.746   4.494   7.892 -0.0952  0.5457 -0.4668
  397MOL0     C52294  10.711   4.546   8.037 -0.6505  0.3888  0.0981
  397MOL0     C52295  10.842   4.562   8.108 -0.0860  0.3981 -0.2669
  397MOL0     O52296  10.903   4.435   8.120 -1.2407 -0.1515  0.3747
  397MOL0     C52297  11.021   4.417   8.195  0.9559 -0.0663  0.1982
  397MOL0     C52298  11.070   4.517   8.289 -0.8129  0.2458 -0.2923
  397MOL0     C52299  11.187   4.492   8.364  0.0722  0.6116  0.3034
  397MOL0     C52300  11.255   4.371   8.339 -0.3100  0.0109  0.0610
  397MOL0     C52301  11.376   4.333   8.410 -0.0516 -0.1109 -0.3051
  397MOL0     O52302  11.410   4.435   8.495 -0.1391  0.6261  0.3782
  397MOL0     C52303  11.539   4.449   8.527 -1.0082  0.1190 -0.3574
  397MOL0     C52304  11.626   4.520   8.446  1.0695 -0.6601  0.4462
  397MOL0     C52305  11.762   4.539   8.469  0.5434 -0.2673 -0.1139
  397MOL0     C52306  11.818   4.480   8.579 -0.5784  0.7916  0.1902
  397MOL0     O52307  11.947   4.499   8.617  0.1169  0.6001 -0.4709
  397MOL0     C52308  12.048   4.552   8.529 -0.8392  0.5259 -0.5152
  397MOL0     C52309  12.068   4.460   8.411 -0.2625  0.4626  1.0665
  397MOL0     C52310  12.103   4.317   8.437 -0.0643 -0.3452 -0.3753
  397MOL0     C52311  12.192   4.256   8.317  1.6444  0.3726  0.3975
  397MOL0     C52312  12.103   4.247   8.195 -0.2867 -0.5503 -0.4918
  397MOL0     C52313  12.199   4.226   8.078  0.3208 -0.2934  1.1013
  397MOL0     C52314  12.118   4.145   7.955 -0.8389  1.1039  0.3406
  397MOL0     C52315  12.195   4.145   7.821 -0.0874  0.7708  0.8375
  397MOL0    Cl52316  12.354   4.093   7.865 -0.3518  0.0112  0.3063
  397MOL0     C52317  11.735   4.396   8.657  0.5529 -0.8480 -0.5425
  397MOL0     C52318  11.597   4.382   8.632 -0.5914 -0.8139  0.1885
  397MOL0     O52319  11.432   4.226   8.398 -0.1163  0.0367 -0.1091
  397MOL0     C52320  11.212   4.290   8.233 -0.1762  0.4969  0.6668
  397MOL0     C52321  11.092   4.307   8.169 -0.3529 -0.4125  0.6287
  397MOL0     N52322  10.656   4.498   7.569  0.6860 -0.2285  0.4690
  397MOL0     N52323  10.625   4.412   7.471 -1.1304  0.6062  1.7046
  397MOL0     C52324  10.286   3.719   6.617 -0.4429 -0.5572 -0.0321
  397MOL0     C52325  10.258   3.654   6.494 -0.1349 -0.5596 -0.2950
  397MOL0     C52326  10.118   3.534   6.101  0.5838 -1.3597  0.2195
  397MOL0     C52327  10.040   3.415   6.085  0.5683 -0.5809 -0.6121
  397MOL0     C52328  10.039   3.353   5.959 -0.4960 -0.0025 -0.7310
  397MOL0     C52329  10.116   3.396   5.852 -0.6724 -0.5012  0.4877
  397MOL0     O52330  10.111   3.330   5.734  0.2818 -0.3032 -0.0430
  397MOL0     C52331  10.196   3.365   5.630 -0.4575 -0.0061 -0.1126
  397MOL0     C52332  10.119   3.450   5.524  0.8768  0.2128 -0.2303
  397MOL0     C52333  10.219   3.476   5.411 -0.1829  0.2819  0.6581
  397MOL0     C52334  10.152   3.509   5.275  0.7297  0.0435 -0.0450
  397MOL0     C52335  10.256   3.551   5.178  0.7300  0.0717 -0.0804
  397MOL0     C52336  10.305   3.594   5.080 -1.0966  0.4503  0.4487
  397MOL0     C52337  10.198   3.506   5.871  0.2371  0.7953 -0.9156
  397MOL0     C52338  10.195   3.581   5.994 -0.4058  0.1503 -0.0268
  397MOL0     H52339  10.304   3.920   6.300 -1.8404  0.1980  0.4947
  397MOL0     H52340  10.376   4.021   6.517 -0.8684  0.0619  0.7345
  397MOL0     H52341  10.398   4.086   6.722  0.9753 -0.1078 -2.9978
  397MOL0     H52342  10.549   4.002   6.754 -0.4878  0.6050 -1.8063
  397MOL0     H52343  10.514   4.130   6.942  0.6146 -0.3271 -0.2077
  397MOL0     H52344  10.484   3.957   6.986  3.0761  2.4823  2.6237
  397MOL0     H52345  10.240   3.999   6.985  1.6191 -2.3704 -3.1086
  397MOL0     H52346  10.263   4.161   6.943 -3.4596 -2.1533 -0.4888
  397MOL0     H52347  10.381   4.211   7.146  0.2895  0.3566 -1.2165
  397MOL0     H52348  10.220   4.146   7.177  0.8442 -0.2142 -0.7145
  397MOL0     H52349  10.493   4.020   7.225 -0.0528  1.4638 -0.0840
  397MOL0     H52350  10.365   3.920   7.190 -3.1215  0.8054 -0.6655
  397MOL0     H52351  10.360   3.939   7.434 -1.3775 -1.4233 -2.2713
  397MOL0     H52352  10.241   4.057   7.386 -0.4196 -1.1234  0.4906
  397MOL0     H52353  10.387   4.242   7.366  0.6873  1.9908  1.2246
  397MOL0     H52354  10.382   4.182   7.537 -0.1769  2.6243 -0.1836
  397MOL0     H52355  10.596   4.181   7.343 -0.4753 -0.0512 -0.1822
  397MOL0     H52356  10.599   4.078   7.493  1.4337 -0.6980 -2.0936
  397MOL0     H52357  10.542   4.236   7.733  1.9626 -0.2344  0.0391
  397MOL0     H52358  10.535   4.437   7.881 -2.7087  0.9851 -3.3466
  397MOL0     H52359  10.576   4.589   7.799 -5.5985 -1.1396 -0.1065
  397MOL0     H52360  10.813   4.560   7.837  0.4781  1.6590  1.4436
  397MOL0     H52361  10.784   4.392   7.900 -0.4151  0.4698  0.1473
  397MOL0     H52362  10.667   4.645   8.029  0.6310  0.9674 -0.1151
  397MOL0     H52363  10.637   4.483   8.087  1.0601 -1.9431 -0.0918
  397MOL0     H52364  10.825   4.602   8.208  0.9713 -4.2206  2.0129
  397MOL0     H52365  10.902   4.639   8.058  1.6070  0.5486  1.8824
  397MOL0     H52366  11.016   4.611   8.287  1.7891  1.8520 -2.4554
  397MOL0     H52367  11.214   4.566   8.439 -1.2780 -0.0853  1.5483
  397MOL0     H52368  11.586   4.575   8.361  2.4057 -0.0830  0.1640
  397MOL0     H52369  11.817   4.613   8.412  0.2542 -1.5452 -2.1569
  397MOL0     H52370  12.140   4.539   8.588  0.1208  0.2373 -2.0173
  397MOL0     H52371  12.035   4.658   8.508 -0.3008  1.1709  2.0466
  397MOL0     H52372  12.147   4.507   8.351 -2.0559  0.7558 -1.1823
  397MOL0     H52373  11.981   4.467   8.344 -1.9747 -0.5605  3.0747
  397MOL0     H52374  12.008   4.267   8.457 -2.3073  2.5816 -2.6618
  397MOL0     H52375  12.169   4.330   8.523 -0.6610  0.3582 -0.0131
  397MOL0     H52376  12.281   4.319   8.303  0.2495  2.3571  0.0815
  397MOL0     H52377  12.223   4.153   8.337  1.5084  0.4205  0.8833
  397MOL0     H52378  12.057   4.344   8.176 -2.9310 -1.7496 -0.6578
  397MOL0     H52379  12.029   4.167   8.185  2.0545 -2.7343 -1.6619
  397MOL0     H52380  12.284   4.163   8.107  0.9429 -0.8692 -1.6276
  397MOL0     H52381  12.246   4.318   8.042 -2.6049  0.3938 -1.3676
  397MOL0     H52382  12.097   4.045   7.992  1.3851 -1.0443 -3.5593
  397MOL0     H52383  12.019   4.191   7.944 -0.2580  2.3125 -0.0637
  397MOL0     H52384  12.199   4.244   7.774  0.5463  0.3667  0.0264
  397MOL0     H52385  12.169   4.072   7.744  0.4560  1.6708 -0.2210
  397MOL0     H52386  11.777   4.351   8.747  1.0397  2.7182  1.1915
  397MOL0     H52387  11.539   4.308   8.686  1.2607 -2.2095  0.3625
  397MOL0     H52388  11.265   4.201   8.201 -0.9022 -0.8516  2.9465
  397MOL0     H52389  11.064   4.238   8.090 -0.8102  1.9904 -1.4354
  397MOL0     H52390  10.270   3.662   6.708 -2.6751  0.1453  0.0689
  397MOL0     H52391  10.215   3.555   6.491 -1.9118  0.1900 -2.4317
  397MOL0     H52392   9.987   3.386   6.176  2.4130  2.6871  1.7470
  397MOL0     H52393   9.971   3.269   5.955 -2.8896  1.6415  1.6440
  397MOL0     H52394  10.225   3.271   5.582 -2.6217 -2.1483  2.4163
  397MOL0     H52395  10.285   3.424   5.653 -2.1007  2.2088  0.9517
  397MOL0     H52396  10.027   3.399   5.495  1.6441  0.0799 -2.5753
  397MOL0     H52397  10.078   3.546   5.557 -1.2258 -1.5829  3.0089
  397MOL0     H52398  10.291   3.394   5.399  0.1890  0.4429  1.6854
  397MOL0     H52399  10.276   3.563   5.445 -0.1912  0.7922 -0.5718
  397MOL0     H52400  10.112   3.420   5.226  1.4793  0.9807 -2.5763
  397MOL0     H52401  10.075   3.586   5.288  2.1222  1.4332  0.2976
  397MOL0     H52402  10.346   3.629   4.987 -2.9060 -0.1293 -0.6151
  397MOL0     H52403  10.250   3.546   5.784 -0.0573  1.0383 -0.9819
  397MOL0     H52404  10.263   3.666   5.989  0.9960 -1.0033 -1.9289
  398MOL0     O52405   5.846   1.361   4.810  0.1877  0.7105 -0.3219
  398MOL0     C52406   5.738   1.403   4.767 -1.0361  0.5595  0.3860
  398MOL0     O52407   5.692   1.362   4.645  0.2338 -0.3660 -0.5486
  398MOL0     C52408   5.747   1.249   4.582  0.3107  0.8495 -0.7781
  398MOL0     C52409   5.741   1.125   4.642  0.4476  0.5994  0.9710
  398MOL0     C52410   5.807   1.017   4.581 -0.4310  0.2960 -1.3111
  398MOL0     C52411   5.881   1.034   4.461  0.3365 -0.4269  0.3644
  398MOL0     O52412   5.935   0.929   4.400  0.3463  1.3417  1.0172
  398MOL0     C52413   5.906   0.910   4.258 -0.5128  0.1815 -0.7631
  398MOL0     C52414   6.030   0.943   4.184 -0.4255 -0.3412  0.6408
  398MOL0     C52415   6.006   0.977   4.040  0.3438 -0.2576 -0.7939
  398MOL0     C52416   6.146   0.979   3.974  0.0403 -0.0593 -0.5779
  398MOL0     C52417   6.128   1.009   3.826 -0.0992 -0.5621 -0.2574
  398MOL0     C52418   6.261   1.035   3.740  0.1849 -0.5837  0.0273
  398MOL0     C52419   6.252   1.031   3.592  0.0924 -0.9561  0.1249
  398MOL0     C52420   6.173   1.150   3.533 -0.7628  0.3422 -0.1157
  398MOL0     N52421   6.176   1.132   3.390 -0.6664  0.0302 -0.7258
  398MOL0     C52422   6.254   1.214   3.306 -0.0130 -0.2331 -0.4791
  398MOL0     C52423   6.198   1.200   3.183 -0.9773  0.1069 -0.4581
  398MOL0     C52424   6.242   1.281   3.060 -0.0764 -0.9140 -1.1198
  398MOL0     C52425   6.249   1.220   2.926  1.0358 -0.7711  0.8414
  398MOL0     C52426   6.369   1.129   2.920  1.0883 -0.2445  0.2101
  398MOL0     C52427   6.510   1.190   2.876 -0.9471  0.6930  0.0600
  398MOL0     O52428   6.619   1.106   2.886 -0.2008  0.1401 -0.8722
  398MOL0     C52429   6.631   1.038   3.005 -0.5651  0.4955  0.6937
  398MOL0     C52430   6.633   1.099   3.132 -0.0403  0.7167  0.6325
  398MOL0     C52431   6.662   1.021   3.247 -0.1320 -0.3447  1.0755
  398MOL0     C52432   6.700   0.881   3.245  0.7989  0.9535  0.0125
  398MOL0     C52433   6.735   0.806   3.370  0.4566 -1.3909  0.2436
  398MOL0     O52434   6.815   0.690   3.358  0.5663  1.0852  0.7847
  398MOL0     C52435   6.844   0.617   3.466  0.4508  0.3677  0.2670
  398MOL0     C52436   6.753   0.578   3.563  0.0876 -0.0352 -0.3589
  398MOL0     C52437   6.792   0.503   3.674  0.6186  0.5505 -0.5298
  398MOL0     C52438   6.922   0.456   3.678  0.7389 -0.6407 -1.1264
  398MOL0     O52439   6.966   0.368   3.774 -0.2848  0.4840 -0.3908
  398MOL0     C52440   6.928   0.386   3.912  0.3042  0.0301  1.1427
  398MOL0     C52441   6.965   0.259   3.990  0.1310  0.2129  0.5796
  398MOL0     C52442   6.872   0.135   3.958  0.2811 -0.5179 -0.5351
  398MOL0     C52443   6.732   0.146   4.033  0.8029  0.3884 -1.4569
  398MOL0     C52444   6.739   0.089   4.178  0.0928 -0.6557 -0.6800
  398MOL0     C52445   6.617   0.123   4.256  0.2667 -0.9100  1.0801
  398MOL0     C52446   6.619   0.129   4.409 -0.1229  1.0218  0.1344
  398MOL0     C52447   6.491   0.195   4.466  0.4166 -0.4017  0.5856
  398MOL0    Cl52448   6.493   0.366   4.451  0.2400 -0.7868  0.3046
  398MOL0     C52449   7.011   0.487   3.582 -0.3031 -1.2830  0.3770
  398MOL0     C52450   6.980   0.581   3.477  0.0231  0.5761  0.2615
  398MOL0     O52451   6.700   0.853   3.479 -0.1805 -0.1214  0.8106
  398MOL0     C52452   6.694   0.822   3.115 -0.4497  0.7339  0.4460
  398MOL0     C52453   6.662   0.895   3.002 -0.3000  0.3762 -0.2587
  398MOL0     N52454   6.092   1.109   3.192 -0.4214  0.1955 -0.8427
  398MOL0     N52455   6.077   1.065   3.315  0.0567 -0.4767  0.0174
  398MOL0     C52456   5.880   1.164   4.404 -0.0331  1.1028  0.3498
  398MOL0     C52457   5.815   1.268   4.464  0.3244 -0.9172 -0.8189
  398MOL0     C52458   5.657   1.478   4.874 -0.4681 -1.0375 -0.0920
  398MOL0     C52459   5.726   1.532   4.978  0.0061 -0.4966  0.1214
  398MOL0     C52460   5.664   1.576   5.099  0.0169  0.7665 -1.1968
  398MOL0     C52461   5.530   1.594   5.101  0.4686  0.1222 -0.8659
  398MOL0     O52462   5.486   1.644   5.223  0.4898 -0.0158  0.1024
  398MOL0     C52463   5.345   1.673   5.221  0.3133 -0.5452  0.1000
  398MOL0     C52464   5.300   1.760   5.344  0.5748  0.5280 -0.1714
  398MOL0     C52465   5.360   1.909   5.346  0.2654  0.4533 -0.3966
  398MOL0     C52466   5.510   1.926   5.392 -0.0429  0.7931 -0.2223
  398MOL0     C52467   5.592   1.925   5.266  0.3531  0.9951 -0.0119
  398MOL0     C52468   5.650   1.925   5.160 -0.5352  0.7893 -0.3645
  398MOL0     C52469   5.452   1.550   4.988 -0.1407 -0.4889 -0.0138
  398MOL0     C52470   5.520   1.484   4.888  0.8117  0.9778  0.8891
  398MOL0     H52471   5.677   1.122   4.730 -2.7194 -0.6910 -1.1724
  398MOL0     H52472   5.799   0.924   4.636  0.1396 -0.5936 -2.6856
  398MOL0     H52473   5.815   0.962   4.228  1.0592  3.5439 -0.1860
  398MOL0     H52474   5.889   0.804   4.241 -0.7780  0.2032 -0.6279
  398MOL0     H52475   6.095   0.855   4.179 -0.2966 -0.1680 -2.0046
  398MOL0     H52476   6.092   1.027   4.219 -0.0039  0.9455 -2.8167
  398MOL0     H52477   5.951   1.069   4.024 -0.7933 -1.1992 -2.5258
  398MOL0     H52478   5.944   0.892   4.009 -0.9951  0.8588 -1.2260
  398MOL0     H52479   6.213   1.050   4.021  0.0546  1.1571 -2.3433
  398MOL0     H52480   6.191   0.880   3.987 -2.4375 -0.8768  4.2845
  398MOL0     H52481   6.067   1.100   3.824  1.4672  0.5324 -0.5853
  398MOL0     H52482   6.070   0.933   3.774  1.6992 -0.6817 -2.2490
  398MOL0     H52483   6.325   0.958   3.785  0.1541 -0.0211  1.0641
  398MOL0     H52484   6.306   1.129   3.772  0.9073 -0.6544 -0.7340
  398MOL0     H52485   6.356   1.027   3.558  0.9383 -0.5114  2.4723
  398MOL0     H52486   6.202   0.941   3.557 -3.4583 -0.0146  2.3082
  398MOL0     H52487   6.217   1.244   3.569  3.7178 -0.7752 -2.0567
  398MOL0     H52488   6.069   1.128   3.559 -0.4699  1.0387  1.8615
  398MOL0     H52489   6.336   1.282   3.326 -1.9392  2.3513 -0.7958
  398MOL0     H52490   6.339   1.326   3.083 -2.0763  1.4178  4.5237
  398MOL0     H52491   6.165   1.359   3.060  0.2947 -0.4932  0.9682
  398MOL0     H52492   6.261   1.296   2.849 -2.0977 -0.8319  0.1774
  398MOL0     H52493   6.162   1.159   2.900  1.4776 -0.6752 -0.9913
  398MOL0     H52494   6.375   1.065   3.008  2.1817 -0.3007  0.1156
  398MOL0     H52495   6.354   1.060   2.835 -0.0571  0.3138 -0.0614
  398MOL0     H52496   6.530   1.274   2.944 -2.0136  1.6593 -0.7714
  398MOL0     H52497   6.510   1.237   2.777  0.4042  0.3200 -0.1345
  398MOL0     H52498   6.628   1.205   3.155  3.1937  0.5249  2.8897
  398MOL0     H52499   6.679   1.079   3.337  0.7033  2.2269 -0.6433
  398MOL0     H52500   6.649   0.604   3.550  0.1848  0.0015 -1.1029
  398MOL0     H52501   6.713   0.472   3.742  0.1467 -1.2337 -1.8033
  398MOL0     H52502   6.820   0.393   3.927  0.1073 -0.6095  0.1347
  398MOL0     H52503   6.974   0.476   3.954  2.4520 -0.7174  0.5441
  398MOL0     H52504   6.968   0.294   4.094  0.3471 -0.5430  0.8300
  398MOL0     H52505   7.066   0.222   3.969  0.3046  1.0752 -0.1680
  398MOL0     H52506   6.911   0.035   3.976 -2.1185 -1.2795  0.8437
  398MOL0     H52507   6.859   0.125   3.850  0.4072 -1.4393 -0.4710
  398MOL0     H52508   6.697   0.249   4.042 -2.3869 -0.7738  1.1793
  398MOL0     H52509   6.659   0.083   3.981 -1.4946 -2.0617  4.0053
  398MOL0     H52510   6.818   0.132   4.239 -0.6498 -2.3375  1.5982
  398MOL0     H52511   6.737  -0.019   4.193 -1.1244 -0.3268  2.1115
  398MOL0     H52512   6.529   0.065   4.228 -0.1094 -0.0512  0.4415
  398MOL0     H52513   6.603   0.226   4.223  1.8614 -0.2068  2.4513
  398MOL0     H52514   6.623   0.024   4.441  4.9230  0.7991 -0.4150
  398MOL0     H52515   6.714   0.166   4.450  0.5992 -0.6188  0.0631
  398MOL0     H52516   6.490   0.177   4.574 -0.1080 -1.1840  0.4554
  398MOL0     H52517   6.405   0.148   4.417 -0.1557 -1.2453  2.3020
  398MOL0     H52518   7.116   0.459   3.592 -1.1516 -4.5537  1.4015
  398MOL0     H52519   7.041   0.614   3.394  3.3872  1.3183  2.8149
  398MOL0     H52520   6.719   0.717   3.103  2.1153  1.1692  1.2725
  398MOL0     H52521   6.669   0.850   2.904 -2.5051 -0.5982 -0.0271
  398MOL0     H52522   5.938   1.185   4.315  0.3911 -0.3943  0.2386
  398MOL0     H52523   5.817   1.368   4.423 -0.2840 -0.3830  0.3865
  398MOL0     H52524   5.834   1.540   4.973  0.0641  0.6357  1.9683
  398MOL0     H52525   5.728   1.607   5.181 -0.1092 -0.0560 -0.7757
  398MOL0     H52526   5.284   1.582   5.222  1.3652 -1.2711  0.5705
  398MOL0     H52527   5.327   1.735   5.133 -0.0345  0.5832  0.9500
  398MOL0     H52528   5.191   1.761   5.338  0.3696  0.5221  2.3779
  398MOL0     H52529   5.324   1.718   5.442  5.4033  2.1341 -0.3940
  398MOL0     H52530   5.299   1.950   5.427  0.5101  0.7990 -0.3860
  398MOL0     H52531   5.355   1.966   5.252 -0.2829  0.2192 -0.5093
  398MOL0     H52532   5.529   2.010   5.460 -1.8502  0.1473  1.1781
  398MOL0     H52533   5.536   1.837   5.449 -1.4022  1.0168  0.8061
  398MOL0     H52534   5.716   1.917   5.075  2.3399 -2.0405  1.8857
  398MOL0     H52535   5.346   1.570   4.980  0.2271  1.6436 -0.3706
  398MOL0     H52536   5.473   1.438   4.801  2.1345  1.8717 -0.3406
  399MOL0     O52537   3.121  11.033   6.543 -0.1681 -0.2059 -0.6522
  399MOL0     C52538   3.222  10.965   6.539 -0.0249 -0.3678  0.0421
  399MOL0     O52539   3.332  10.979   6.618  0.7481  0.0195  0.3801
  399MOL0     C52540   3.334  11.093   6.695 -0.1340 -0.4123 -0.0623
  399MOL0     C52541   3.433  11.184   6.698 -0.0852 -0.6057 -0.1114
  399MOL0     C52542   3.437  11.309   6.762 -0.5804 -0.5761  0.0987
  399MOL0     C52543   3.330  11.347   6.846 -0.3347 -0.1016 -0.2776
  399MOL0     O52544   3.325  11.456   6.928 -0.1106  0.3585  0.0741
  399MOL0     C52545   3.377  11.582   6.876 -0.7111  0.3813 -0.1427
  399MOL0     C52546   3.313  11.621   6.743 -0.1267 -0.1687 -0.1974
  399MOL0     C52547   3.173  11.674   6.759  0.7525 -0.6216 -0.7861
  399MOL0     C52548   3.078  11.559   6.774  0.1992  0.3018 -0.9515
  399MOL0     C52549   3.037  11.481   6.649 -0.2278 -0.0112  0.2829
  399MOL0     C52550   2.921  11.387   6.693  0.4856  0.2547  0.5333
  399MOL0     C52551   2.861  11.317   6.580 -0.1779  0.4582 -0.0059
  399MOL0     C52552   2.740  11.227   6.630  0.2393  0.2169  1.1679
  399MOL0     N52553   2.639  11.179   6.528  0.4202 -0.3164  0.6149
  399MOL0     C52554   2.674  11.100   6.427 -0.2598  0.5461  0.1096
  399MOL0     C52555   2.561  11.079   6.353  0.5945  0.7663 -0.6304
  399MOL0     C52556   2.551  10.988   6.237 -0.3636 -0.4317  0.1024
  399MOL0     C52557   2.531  10.840   6.279 -0.1668 -0.6605 -0.0940
  399MOL0     C52558   2.517  10.734   6.161  0.4973 -0.7656 -0.3975
  399MOL0     C52559   2.644  10.712   6.083  0.9748  0.9008 -0.2077
  399MOL0     O52560   2.667  10.576   6.059 -0.1074 -0.3736  0.2531
  399MOL0     C52561   2.748  10.533   5.950 -0.1217 -0.2875 -0.8408
  399MOL0     C52562   2.708  10.415   5.882 -0.1808  0.2175  0.7400
  399MOL0     C52563   2.783  10.361   5.779 -0.4165 -0.1530 -0.0932
  399MOL0     C52564   2.900  10.433   5.745  0.2876  0.8469  0.5428
  399MOL0     C52565   2.989  10.382   5.641  1.2123 -0.6132  0.2194
  399MOL0     O52566   2.931  10.295   5.547 -0.5690  0.4723  0.3604
  399MOL0     C52567   3.007  10.279   5.427  0.7485  0.1243  0.7838
  399MOL0     C52568   3.076  10.161   5.397  0.1196  0.1469 -0.6155
  399MOL0     C52569   3.170  10.156   5.291 -0.2595 -1.3127 -0.5126
  399MOL0     C52570   3.196  10.270   5.202  0.3098 -0.2870  0.0623
  399MOL0     O52571   3.304  10.281   5.120  0.9331  1.3755 -0.9735
  399MOL0     C52572   3.371  10.159   5.092  0.2218 -0.6200  0.0638
  399MOL0     C52573   3.478  10.179   4.984  0.8826  0.2691  0.6948
  399MOL0     C52574   3.414  10.175   4.842 -0.1185  0.7782  0.3794
  399MOL0     C52575   3.273  10.241   4.819  0.3723 -0.2858 -0.5264
  399MOL0     C52576   3.249  10.258   4.667 -0.0689 -0.4617  1.0321
  399MOL0     C52577   3.156  10.377   4.641  0.3842  0.1741  0.9786
  399MOL0     C52578   3.079  10.349   4.512  0.2577 -0.9705  0.1269
  399MOL0     C52579   2.966  10.451   4.480 -0.8165  0.1486  0.2578
  399MOL0    Cl52580   2.833  10.441   4.616 -0.2358  0.2555 -0.1344
  399MOL0     C52581   3.117  10.388   5.235 -0.1191  0.0089 -0.1761
  399MOL0     C52582   3.015  10.389   5.330 -1.0291  0.7132 -1.4287
  399MOL0     O52583   3.107  10.410   5.642 -0.4664 -0.4045  0.6152
  399MOL0     C52584   2.938  10.549   5.818 -0.4563 -0.3561 -0.0921
  399MOL0     C52585   2.877  10.596   5.918  0.7981  0.9621  0.1803
  399MOL0     N52586   2.465  11.164   6.403 -1.2965  0.1675  0.7497
  399MOL0     N52587   2.518  11.229   6.500 -0.8605 -0.2010  0.1641
  399MOL0     C52588   3.229  11.248   6.853 -0.6973 -0.3478  0.1317
  399MOL0     C52589   3.222  11.128   6.782 -0.3444  0.0998  0.4579
  399MOL0     C52590   3.227  10.887   6.416 -0.0983  1.0440 -0.2988
  399MOL0     C52591   3.338  10.801   6.401  0.2150 -0.0075  1.3422
  399MOL0     C52592   3.334  10.708   6.293  0.6048  0.1186 -0.1998
  399MOL0     C52593   3.239  10.725   6.187 -0.6062  0.8667 -0.5735
  399MOL0     O52594   3.236  10.654   6.068 -0.4563  0.0367 -0.8614
  399MOL0     C52595   3.291  10.518   6.088 -0.3466 -0.2349  0.5840
  399MOL0     C52596   3.220  10.408   6.001  0.4370  0.6707 -1.0762
  399MOL0     C52597   3.268  10.264   6.037  0.0617  0.1993 -0.0936
  399MOL0     C52598   3.170  10.159   5.978 -0.3969  0.1578 -0.2192
  399MOL0     C52599   3.224  10.021   5.962  0.1893  0.0498  0.0672
  399MOL0     C52600   3.269   9.913   5.944  0.4303  0.0961 -0.4221
  399MOL0     C52601   3.150  10.824   6.197  0.9128 -0.6591  0.0829
  399MOL0     C52602   3.130  10.895   6.318  1.5507 -0.6601 -1.1012
  399MOL0     H52603   3.522  11.155   6.643  2.1653 -0.4538  3.1661
  399MOL0     H52604   3.523  11.375   6.761 -1.9133  1.2085 -0.7263
  399MOL0     H52605   3.486  11.580   6.868 -0.7022 -2.0528  0.0714
  399MOL0     H52606   3.373  11.654   6.958  0.7236 -1.0051  1.1891
  399MOL0     H52607   3.300  11.545   6.665 -2.0510  2.0426 -2.2119
  399MOL0     H52608   3.378  11.700   6.705  0.0596  0.8580  2.1188
  399MOL0     H52609   3.147  11.727   6.667 -1.3655  3.9161  2.0750
  399MOL0     H52610   3.180  11.756   6.831 -2.8080  1.4205 -2.4843
  399MOL0     H52611   3.106  11.493   6.857  0.4545  0.8612 -0.5906
  399MOL0     H52612   2.978  11.587   6.808  0.9006  2.5536 -0.6254
  399MOL0     H52613   3.119  11.413   6.622 -0.3124 -0.8971  2.0906
  399MOL0     H52614   3.016  11.549   6.567  1.0053  1.0536  0.8174
  399MOL0     H52615   2.836  11.434   6.743 -2.9971 -3.6206 -1.0909
  399MOL0     H52616   2.952  11.299   6.752 -0.3800 -0.1421  0.4191
  399MOL0     H52617   2.832  11.385   6.500  3.0951  1.6305 -0.3350
  399MOL0     H52618   2.945  11.262   6.537  1.5804  1.3863  2.0412
  399MOL0     H52619   2.683  11.303   6.684  1.5697  3.6906 -1.8506
  399MOL0     H52620   2.777  11.143   6.689  0.1056 -1.7962 -1.4037
  399MOL0     H52621   2.765  11.041   6.426  0.7571  2.0413  0.6101
  399MOL0     H52622   2.649  11.003   6.191 -0.4176  1.8372  0.6375
  399MOL0     H52623   2.473  11.022   6.168  0.8754  0.4273 -0.9343
  399MOL0     H52624   2.439  10.830   6.337 -2.0721 -2.3101 -3.1569
  399MOL0     H52625   2.613  10.805   6.341 -1.3785 -2.0630  0.7753
  399MOL0     H52626   2.478  10.641   6.202  3.6165 -1.6582  0.8531
  399MOL0     H52627   2.447  10.771   6.085  0.0137 -0.1082  0.3572
  399MOL0     H52628   2.726  10.754   6.143 -0.8483  1.8599  1.7534
  399MOL0     H52629   2.627  10.775   5.995 -1.0777  2.8984  1.4835
  399MOL0     H52630   2.619  10.360   5.911  1.2220 -4.1197 -2.2650
  399MOL0     H52631   2.761  10.263   5.739  2.1457 -0.2420 -1.4980
  399MOL0     H52632   3.064  10.074   5.461 -0.6987  1.9353  1.7786
  399MOL0     H52633   3.230  10.067   5.276  1.1047 -1.0012  2.4465
  399MOL0     H52634   3.290  10.094   5.059  0.4593 -0.8066 -0.1565
  399MOL0     H52635   3.419  10.118   5.181 -1.3389 -1.8195  0.4031
  399MOL0     H52636   3.558  10.104   4.992  0.6853  0.1725  1.8754
  399MOL0     H52637   3.525  10.277   4.992 -0.1780  1.1609 -2.3774
  399MOL0     H52638   3.411  10.066   4.827  0.3106  0.1367  3.9840
  399MOL0     H52639   3.493  10.206   4.774  1.1730  2.2037  2.4278
  399MOL0     H52640   3.185  10.205   4.873  0.5002 -0.5549 -0.4976
  399MOL0     H52641   3.296  10.334   4.873  0.0746 -0.5245  0.0166
  399MOL0     H52642   3.205  10.167   4.625  0.7596  1.1186 -4.0138
  399MOL0     H52643   3.342  10.268   4.609 -0.7845 -2.1028 -0.4900
  399MOL0     H52644   3.208  10.473   4.633 -0.0055  0.2710 -0.9048
  399MOL0     H52645   3.093  10.378   4.730 -2.5364  3.1381 -0.9211
  399MOL0     H52646   3.161  10.362   4.441  1.6655 -0.1072  1.8309
  399MOL0     H52647   3.035  10.249   4.501  0.4492 -0.9350 -1.0503
  399MOL0     H52648   2.910  10.438   4.387 -0.7151 -2.5426  0.4874
  399MOL0     H52649   3.001  10.555   4.479 -2.4685  0.7786 -2.2194
  399MOL0     H52650   3.125  10.478   5.176  2.3517  0.3094  0.5157
  399MOL0     H52651   2.968  10.483   5.359  0.6075  0.3648  3.2167
  399MOL0     H52652   3.032  10.600   5.801 -0.7379 -0.0560 -0.8204
  399MOL0     H52653   2.930  10.674   5.971 -3.0081  2.8194  1.6308
  399MOL0     H52654   3.155  11.257   6.932 -0.2314 -0.9735  0.6432
  399MOL0     H52655   3.132  11.067   6.790  0.2180 -0.9333 -0.6471
  399MOL0     H52656   3.419  10.791   6.474  2.1847  2.8699 -0.2287
  399MOL0     H52657   3.415  10.636   6.295  1.0297  0.5480  3.0638
  399MOL0     H52658   3.270  10.488   6.191  0.6509  0.4302  1.0037
  399MOL0     H52659   3.401  10.522   6.090 -0.3293 -0.2667  3.1351
  399MOL0     H52660   3.119  10.411   6.043  1.1733 -4.7565  2.0477
  399MOL0     H52661   3.229  10.423   5.893 -3.9113 -1.4700 -1.9636
  399MOL0     H52662   3.273  10.253   6.146  0.0350  0.3448 -0.0785
  399MOL0     H52663   3.369  10.250   5.997  0.9798 -1.2327  2.4496
  399MOL0     H52664   3.090  10.153   6.052 -0.6468 -1.0441 -0.5760
  399MOL0     H52665   3.126  10.193   5.883 -1.4845  1.4196  0.6837
  399MOL0     H52666   3.315   9.820   5.920  0.7260  0.2522 -0.4632
  399MOL0     H52667   3.069  10.821   6.124 -0.4177  2.9755  1.2156
  399MOL0     H52668   3.047  10.963   6.331  2.0277 -0.1869 -0.4854
  400MOL0     O52669   9.303   5.538   9.309 -0.1071 -0.1359  0.3175
  400MOL0     C52670   9.220   5.610   9.251  0.5791  0.4079 -0.6047
  400MOL0     O52671   9.235   5.733   9.197  1.0413 -0.2771 -0.4942
  400MOL0     C52672   9.357   5.791   9.199 -0.2418  0.2470 -0.1956
  400MOL0     C52673   9.482   5.730   9.221 -0.7076  0.2260 -0.9859
  400MOL0     C52674   9.601   5.804   9.214 -0.5954 -0.0837  0.7971
  400MOL0     C52675   9.597   5.943   9.206 -0.6010  0.2164  0.0778
  400MOL0     O52676   9.705   6.022   9.199  0.9184 -0.1505 -0.1370
  400MOL0     C52677   9.802   5.996   9.305 -0.5194 -0.1247  0.4739
  400MOL0     C52678   9.907   6.107   9.295 -0.5003  0.4430  0.0434
  400MOL0     C52679  10.037   6.047   9.355  0.3765 -0.1773 -1.0619
  400MOL0     C52680  10.117   6.162   9.432  0.4466 -0.0145 -0.2583
  400MOL0     C52681  10.239   6.110   9.514 -0.4678 -0.6917  0.3022
  400MOL0     C52682  10.286   6.182   9.646 -0.6374 -0.0635 -0.3461
  400MOL0     C52683  10.402   6.112   9.697  0.3557 -0.1815  0.7400
  400MOL0     C52684  10.462   6.164   9.836  0.5795 -0.8164  0.3082
  400MOL0     N52685  10.349   6.174   9.933 -0.6009  0.3377 -0.0929
  400MOL0     C52686  10.262   6.277   9.956 -0.8094 -0.3508 -0.8609
  400MOL0     C52687  10.204   6.243  10.076  0.3802 -0.4668  0.5945
  400MOL0     C52688  10.099   6.326  10.142 -0.9361  0.1637 -0.3522
  400MOL0     C52689  10.150   6.474  10.150 -0.0769 -0.0580  0.4238
  400MOL0     C52690  10.044   6.579  10.215 -0.1014  0.2683 -0.3890
  400MOL0     C52691  10.130   6.701  10.246  0.3117  0.5155 -0.5188
  400MOL0     O52692  10.042   6.816  10.278  0.0429 -0.5381  0.0235
  400MOL0     C52693   9.921   6.793  10.345 -0.7640 -0.3902  0.0825
  400MOL0     C52694   9.797   6.826  10.289 -0.0110 -0.0025  0.2505
  400MOL0     C52695   9.675   6.800  10.358 -0.2296  0.5054 -0.0228
  400MOL0     C52696   9.686   6.729  10.474  1.0719 -1.0110 -0.0907
  400MOL0     C52697   9.561   6.682  10.536  0.1463  0.2107  0.6943
  400MOL0     O52698   9.439   6.697  10.471  0.0764  0.6674  0.2141
  400MOL0     C52699   9.324   6.660  10.536 -0.9376  0.6622  0.4481
  400MOL0     C52700   9.234   6.568  10.487 -0.2742  0.2344 -0.6329
  400MOL0     C52701   9.117   6.541  10.549 -0.2715 -1.1773 -0.7442
  400MOL0     C52702   9.081   6.613  10.663 -0.0649 -0.0329 -0.7401
  400MOL0     O52703   8.957   6.607  10.728 -0.3735 -0.0548  0.2240
  400MOL0     C52704   8.892   6.479  10.735 -0.1091  0.3527 -0.9678
  400MOL0     C52705   8.757   6.474  10.668  0.2099 -0.5316 -0.1314
  400MOL0     C52706   8.705   6.338  10.631 -0.4214 -0.0594 -0.3739
  400MOL0     C52707   8.562   6.314  10.660  0.1989 -0.4036  0.1352
  400MOL0     C52708   8.522   6.167  10.618 -1.2200 -0.1266  0.3535
  400MOL0     C52709   8.472   6.095  10.739  0.5010 -0.9085  0.9472
  400MOL0     C52710   8.415   5.951  10.709  0.0476 -0.3713 -0.3557
  400MOL0     C52711   8.287   5.912  10.789 -0.3126  0.7029 -0.4450
  400MOL0    Cl52712   8.360   5.842  10.940 -0.0881 -0.0957  0.1029
  400MOL0     C52713   9.172   6.707  10.721 -0.1332  0.3949 -0.1065
  400MOL0     C52714   9.296   6.717  10.666  0.2123  0.7790 -0.8377
  400MOL0     O52715   9.568   6.626  10.646 -0.8692  0.0832 -0.2739
  400MOL0     C52716   9.809   6.707  10.536  0.1409 -0.5926  0.2758
  400MOL0     C52717   9.924   6.740  10.471 -0.2953 -0.2511 -0.2301
  400MOL0     N52718  10.258   6.119  10.121 -0.5384 -0.6147 -0.0168
  400MOL0     N52719  10.351   6.086  10.042  0.2430 -0.3637  0.0622
  400MOL0     C52720   9.474   6.001   9.175  0.4323  1.2163 -0.6270
  400MOL0     C52721   9.354   5.924   9.174 -0.6522 -1.0592  0.5335
  400MOL0     C52722   9.082   5.551   9.242 -1.1193 -0.1062 -0.0170
  400MOL0     C52723   9.069   5.414   9.244 -0.3596 -0.3832  0.0706
  400MOL0     C52724   8.941   5.358   9.240  0.1898 -0.4748 -0.1997
  400MOL0     C52725   8.828   5.440   9.225  0.0630  1.4137 -0.5671
  400MOL0     O52726   8.703   5.391   9.226  0.4070  0.3811  0.2376
  400MOL0     C52727   8.668   5.259   9.258 -0.2686 -0.2389 -0.4546
  400MOL0     C52728   8.521   5.249   9.225 -0.4619 -0.3053 -0.0893
  400MOL0     C52729   8.459   5.114   9.245  0.0041  0.8378  0.0462
  400MOL0     C52730   8.438   5.075   9.394 -0.1428  0.8795  0.4646
  400MOL0     C52731   8.562   5.054   9.469 -0.0034 -0.1157 -0.3366
  400MOL0     C52732   8.665   5.030   9.528 -0.6564 -0.1621 -0.0147
  400MOL0     C52733   8.839   5.573   9.200 -0.6354 -0.8844  0.4662
  400MOL0     C52734   8.966   5.628   9.222  1.0179 -0.4177 -0.6525
  400MOL0     H52735   9.500   5.623   9.227 -1.8501  0.0192 -1.0893
  400MOL0     H52736   9.693   5.749   9.227 -0.2849  0.1721 -0.2837
  400MOL0     H52737   9.846   5.901   9.272 -1.0354  0.0468 -0.7353
  400MOL0     H52738   9.751   5.988   9.401  0.6569 -3.2308  0.9518
  400MOL0     H52739   9.876   6.200   9.344 -1.7879 -0.9732  2.0846
  400MOL0     H52740   9.927   6.127   9.189 -2.5159 -1.4221 -0.7817
  400MOL0     H52741  10.106   6.004   9.281 -0.1763 -1.6822 -0.7336
  400MOL0     H52742  10.008   5.966   9.422 -2.0314  1.2770 -0.2154
  400MOL0     H52743  10.160   6.227   9.356  1.6950 -1.0185 -0.4451
  400MOL0     H52744  10.048   6.219   9.496 -2.9903 -2.1304 -1.7493
  400MOL0     H52745  10.326   6.106   9.449 -1.0600 -1.0354 -0.4831
  400MOL0     H52746  10.215   6.010   9.551 -2.5229  0.0766  1.2107
  400MOL0     H52747  10.211   6.181   9.725 -0.8043 -1.8282 -0.4775
  400MOL0     H52748  10.300   6.288   9.623  0.3813 -0.0009  0.5107
  400MOL0     H52749  10.382   6.004   9.699 -0.7897  0.0187  0.5852
  400MOL0     H52750  10.475   6.105   9.616  1.9885 -1.1675  2.2146
  400MOL0     H52751  10.513   6.259   9.818  1.6104 -1.1144  1.5210
  400MOL0     H52752  10.541   6.092   9.857  1.9251  0.6417  0.4927
  400MOL0     H52753  10.226   6.354   9.889  0.2890 -1.2122 -2.5047
  400MOL0     H52754  10.092   6.284  10.243 -0.6458  1.0781  0.0671
  400MOL0     H52755   9.995   6.316  10.110 -2.1597  0.9347  2.9012
  400MOL0     H52756  10.189   6.504  10.053  0.7335 -1.7005  0.1928
  400MOL0     H52757  10.239   6.467  10.214 -0.5913  2.4296  1.5436
  400MOL0     H52758   9.981   6.598  10.128  0.8017 -4.1126 -2.2377
  400MOL0     H52759  10.000   6.521  10.296  3.0641 -2.0867 -0.1569
  400MOL0     H52760  10.185   6.739  10.159 -0.4436 -0.1755 -1.3202
  400MOL0     H52761  10.196   6.678  10.330 -0.8198  1.2715  0.6150
  400MOL0     H52762   9.799   6.865  10.188 -0.7733 -0.1240  0.1843
  400MOL0     H52763   9.579   6.821  10.311  0.1939 -0.3765 -1.3269
  400MOL0     H52764   9.238   6.508  10.397  0.2945 -1.3219  0.3923
  400MOL0     H52765   9.042   6.471  10.512 -1.5014 -1.4813  2.0628
  400MOL0     H52766   8.874   6.466  10.843 -1.0062  2.5943 -0.7960
  400MOL0     H52767   8.957   6.398  10.700  1.8844  0.9279  1.1371
  400MOL0     H52768   8.774   6.518  10.570 -1.4965 -1.6734 -0.9808
  400MOL0     H52769   8.685   6.533  10.726  0.1223 -0.4591 -0.3156
  400MOL0     H52770   8.753   6.274  10.705 -0.7466  1.4929  1.2528
  400MOL0     H52771   8.730   6.311  10.528 -1.9884 -0.7798 -0.5967
  400MOL0     H52772   8.529   6.312  10.765  0.0921 -1.6139  0.0996
  400MOL0     H52773   8.500   6.381  10.600  0.6306 -1.3505 -1.4317
  400MOL0     H52774   8.602   6.109  10.571 -2.1275 -0.6949 -0.5327
  400MOL0     H52775   8.442   6.179  10.543 -0.8015  0.1968 -0.0494
  400MOL0     H52776   8.386   6.150  10.780 -0.7158 -1.2899 -1.0039
  400MOL0     H52777   8.546   6.102  10.819  1.0607 -1.2219  0.4587
  400MOL0     H52778   8.384   5.958  10.604  0.0731 -1.6504 -0.4756
  400MOL0     H52779   8.492   5.873  10.703  1.6921  1.2138 -0.8851
  400MOL0     H52780   8.236   5.840  10.725 -2.3586  4.2448 -3.1305
  400MOL0     H52781   8.219   5.993  10.815 -2.8619 -1.0324 -1.2990
  400MOL0     H52782   9.151   6.752  10.817 -1.7996  0.0770 -0.2961
  400MOL0     H52783   9.372   6.781  10.710 -0.6148  0.8867  0.4812
  400MOL0     H52784   9.830   6.647  10.624  3.1584 -1.0170 -0.5935
  400MOL0     H52785  10.019   6.721  10.519 -0.5638 -0.4005  0.2588
  400MOL0     H52786   9.454   6.105   9.154 -0.6405  1.1309 -0.0930
  400MOL0     H52787   9.265   5.979   9.144 -1.1865 -2.3234 -0.2871
  400MOL0     H52788   9.156   5.352   9.258 -0.2994 -0.5792 -1.0599
  400MOL0     H52789   8.923   5.252   9.259 -0.1880 -0.3780  0.0072
  400MOL0     H52790   8.688   5.233   9.362 -2.2024 -6.1650 -1.1331
  400MOL0     H52791   8.727   5.190   9.197  0.0615  0.9851 -1.5692
  400MOL0     H52792   8.473   5.326   9.287 -0.2281  0.0544 -0.3484
  400MOL0     H52793   8.509   5.270   9.119 -1.7341  1.3848  0.3438
  400MOL0     H52794   8.514   5.039   9.188  1.1230  2.0380 -0.5267
  400MOL0     H52795   8.361   5.115   9.197  0.7688 -5.8913 -2.6940
  400MOL0     H52796   8.395   5.160   9.447  0.5609  0.7591  1.2503
  400MOL0     H52797   8.376   4.985   9.402 -1.4444  1.7830  0.8797
  400MOL0     H52798   8.743   5.029   9.602 -2.6718  1.0614  2.2895
  400MOL0     H52799   8.753   5.631   9.168  0.7240  0.4082 -1.0631
  400MOL0     H52800   8.962   5.736   9.224  1.3585 -0.4000 -0.7797
  401MOL0     O52801   3.639  10.275   1.645  0.2308 -0.5559 -0.0094
  401MOL0     C52802   3.592  10.387   1.630  0.5669 -0.0174  0.1086
  401MOL0     O52803   3.513  10.431   1.532  0.1308  0.7608  0.3241
  401MOL0     C52804   3.484  10.354   1.416 -1.1439  0.0592  0.1486
  401MOL0     C52805   3.505  10.416   1.292 -0.2988  0.1753  0.5153
  401MOL0     C52806   3.489  10.337   1.173  0.6721  0.6252 -0.3097
  401MOL0     C52807   3.440  10.207   1.177  0.1729 -0.7968 -0.9351
  401MOL0     O52808   3.428  10.140   1.058  0.5374  0.1157  0.0917
  401MOL0     C52809   3.401   9.996   1.053 -0.5228  1.3159  0.5323
  401MOL0     C52810   3.528   9.926   1.104 -0.3498 -0.0144  0.0985
  401MOL0     C52811   3.494   9.793   1.179 -0.9141 -0.0311  0.2196
  401MOL0     C52812   3.612   9.716   1.243  0.1927 -0.2593  0.5511
  401MOL0     C52813   3.719   9.803   1.319  0.9031 -0.7545  0.4880
  401MOL0     C52814   3.664   9.897   1.431  0.3775 -0.1127  0.5422
  401MOL0     C52815   3.788   9.954   1.500  0.0644 -0.4033 -0.0661
  401MOL0     C52816   3.796   9.937   1.656  0.4759  0.1055 -0.1160
  401MOL0     N52817   3.787   9.792   1.678 -1.0615 -0.2887 -0.1987
  401MOL0     C52818   3.877   9.707   1.623  0.3238 -0.3950  0.0745
  401MOL0     C52819   3.836   9.588   1.664 -0.2949  0.4767  0.1117
  401MOL0     C52820   3.904   9.453   1.633  0.1403  0.5703 -1.1943
  401MOL0     C52821   4.030   9.426   1.722 -0.3918 -0.2804  0.0773
  401MOL0     C52822   4.149   9.526   1.702  0.0956 -0.4312  0.1178
  401MOL0     C52823   4.192   9.549   1.554 -0.3232  0.7555 -0.1581
  401MOL0     O52824   4.314   9.629   1.562 -0.0126 -1.1537  0.2703
  401MOL0     C52825   4.394   9.623   1.452  0.1538 -0.2572 -0.9930
  401MOL0     C52826   4.369   9.716   1.351 -0.8507  0.1952  0.3806
  401MOL0     C52827   4.459   9.719   1.237  0.0501 -0.0259  0.3227
  401MOL0     C52828   4.559   9.627   1.223  0.5206 -0.1510  0.1046
  401MOL0     C52829   4.652   9.635   1.110 -0.3309  0.2032 -0.9901
  401MOL0     O52830   4.628   9.731   1.013  0.3390 -0.4972  0.4052
  401MOL0     C52831   4.729   9.776   0.934  0.1516  1.2147 -0.5549
  401MOL0     C52832   4.853   9.824   0.993  0.5576 -0.3365  0.7447
  401MOL0     C52833   4.953   9.862   0.913  0.4764 -0.9159  0.0649
  401MOL0     C52834   4.933   9.880   0.770 -0.4441  0.4255  1.2383
  401MOL0     O52835   5.030   9.929   0.686  0.9527 -0.5064 -1.0585
  401MOL0     C52836   5.045  10.073   0.708  0.2792 -0.6028 -0.5770
  401MOL0     C52837   4.952  10.148   0.622 -0.3932  0.1570 -0.4686
  401MOL0     C52838   4.986  10.295   0.643 -0.1712  0.5998  0.2064
  401MOL0     C52839   4.886  10.378   0.558 -1.3793 -0.0464  0.5180
  401MOL0     C52840   4.923  10.520   0.552 -0.3966 -0.9080 -0.5554
  401MOL0     C52841   4.856  10.600   0.445  1.2669 -0.7640 -0.3023
  401MOL0     C52842   4.895  10.746   0.474  0.5941  0.1511  0.1179
  401MOL0     C52843   5.043  10.790   0.468 -0.0066 -0.4413  0.3359
  401MOL0    Cl52844   5.059  10.970   0.463  0.1254 -0.0446  0.0255
  401MOL0     C52845   4.813   9.824   0.705 -0.2129 -0.5715  0.8286
  401MOL0     C52846   4.720   9.766   0.793 -0.3375 -0.1068 -0.1490
  401MOL0     O52847   4.758   9.568   1.119  0.2635 -0.5732  0.0171
  401MOL0     C52848   4.575   9.523   1.331 -0.0687  0.2087  0.5537
  401MOL0     C52849   4.489   9.524   1.441  0.2040  0.3702  0.1792
  401MOL0     N52850   3.731   9.605   1.752  0.5579 -0.0003 -0.4524
  401MOL0     N52851   3.694   9.729   1.756  0.3940 -0.1713 -0.7129
  401MOL0     C52852   3.410  10.155   1.301 -1.4933  0.7390 -1.1769
  401MOL0     C52853   3.425  10.229   1.416 -0.9801  0.1480 -0.0837
  401MOL0     C52854   3.597  10.471   1.754 -0.1882 -0.9531  0.5341
  401MOL0     C52855   3.657  10.429   1.863  0.2166 -0.9497 -0.1216
  401MOL0     C52856   3.671  10.507   1.982  0.6376  1.3967 -0.4343
  401MOL0     C52857   3.604  10.629   1.986  0.1369  0.1709  0.1394
  401MOL0     O52858   3.600  10.697   2.101  0.3674  0.6574 -0.5053
  401MOL0     C52859   3.470  10.724   2.157 -0.2398 -0.2784  1.4146
  401MOL0     C52860   3.489  10.730   2.314  0.1527 -0.6921  0.1981
  401MOL0     C52861   3.539  10.594   2.360 -0.4433 -0.0234 -0.0249
  401MOL0     C52862   3.567  10.582   2.505 -0.0216 -0.7837  0.5063
  401MOL0     C52863   3.690  10.658   2.535 -0.1839 -0.1025 -0.1802
  401MOL0     C52864   3.801  10.707   2.537  0.8745  0.7173 -0.2112
  401MOL0     C52865   3.552  10.676   1.868  0.4642 -0.1289  0.6596
  401MOL0     C52866   3.555  10.599   1.753 -0.4997  0.2097  0.6078
  401MOL0     H52867   3.539  10.518   1.307 -2.2808  0.9216  0.1674
  401MOL0     H52868   3.526  10.391   1.086  2.7373 -1.1390 -0.6083
  401MOL0     H52869   3.388   9.966   0.949 -1.2739  2.4009  0.2889
  401MOL0     H52870   3.308   9.979   1.108 -1.0058 -0.7139 -0.8035
  401MOL0     H52871   3.586   9.996   1.164  0.7390 -1.6084  0.9830
  401MOL0     H52872   3.580   9.901   1.011  2.1050  0.2544  1.3284
  401MOL0     H52873   3.447   9.722   1.109 -1.9692 -0.3975  1.2702
  401MOL0     H52874   3.411   9.803   1.250 -0.4371 -0.2032  0.8011
  401MOL0     H52875   3.566   9.644   1.311  0.0623 -0.4605  0.2543
  401MOL0     H52876   3.669   9.658   1.169 -0.5406 -1.9361  1.2377
  401MOL0     H52877   3.759   9.859   1.235 -1.9063 -3.6530 -3.1239
  401MOL0     H52878   3.783   9.732   1.373 -1.9152 -3.9357  0.0565
  401MOL0     H52879   3.602   9.842   1.502  0.2884 -3.6505 -1.9964
  401MOL0     H52880   3.609   9.981   1.388 -0.5039 -0.8625  0.1674
  401MOL0     H52881   3.884   9.921   1.458 -0.3655  1.3683 -2.6484
  401MOL0     H52882   3.772  10.060   1.481 -0.8341 -0.6062 -0.4561
  401MOL0     H52883   3.708   9.987   1.695 -0.5533 -0.8823 -1.0852
  401MOL0     H52884   3.879   9.996   1.696  0.0725  1.8795 -1.7644
  401MOL0     H52885   3.946   9.734   1.543  3.2273 -3.0269  1.4653
  401MOL0     H52886   3.929   9.447   1.527  1.5069  2.2440 -1.0022
  401MOL0     H52887   3.829   9.375   1.653 -0.2805  1.8586  3.3666
  401MOL0     H52888   4.058   9.323   1.696 -0.7679  0.2235 -2.7099
  401MOL0     H52889   4.007   9.420   1.828  2.4947  1.5052  0.8903
  401MOL0     H52890   4.119   9.629   1.722 -1.6866 -1.0340  0.7901
  401MOL0     H52891   4.226   9.493   1.772  0.4240  1.8573  0.9068
  401MOL0     H52892   4.114   9.594   1.492 -0.8561 -0.2831 -0.2655
  401MOL0     H52893   4.220   9.453   1.510  2.1670  1.8698 -1.2180
  401MOL0     H52894   4.291   9.789   1.370 -1.2911 -0.8179  2.8491
  401MOL0     H52895   4.422   9.799   1.173  1.7016  0.3285 -0.2574
  401MOL0     H52896   4.869   9.813   1.100  0.2319  1.4052  0.9939
  401MOL0     H52897   5.039   9.911   0.958 -1.9957  1.9529  2.0002
  401MOL0     H52898   5.143  10.114   0.680  0.0969  0.9736  0.9616
  401MOL0     H52899   5.019  10.104   0.809 -0.7533  0.7367 -1.2218
  401MOL0     H52900   4.849  10.122   0.647  0.2364 -0.6736  1.3935
  401MOL0     H52901   4.978  10.129   0.517  0.9698 -1.8675  0.1718
  401MOL0     H52902   5.091  10.317   0.624 -0.1018  0.0583 -0.0637
  401MOL0     H52903   4.956  10.318   0.746  0.3920 -0.3484  0.5979
  401MOL0     H52904   4.884  10.337   0.456 -0.8844 -0.3052  0.6080
  401MOL0     H52905   4.788  10.363   0.604 -1.5875 -1.3983 -0.2993
  401MOL0     H52906   5.030  10.525   0.529 -0.2730 -3.4100 -0.7997
  401MOL0     H52907   4.906  10.558   0.653 -1.8111  2.1493 -1.8007
  401MOL0     H52908   4.749  10.583   0.460  1.5067 -0.5430  2.0689
  401MOL0     H52909   4.876  10.570   0.342  0.4394  1.4815 -1.1564
  401MOL0     H52910   4.844  10.803   0.396 -1.8051 -3.1136 -0.9247
  401MOL0     H52911   4.850  10.780   0.568  0.4114  0.8707 -0.2184
  401MOL0     H52912   5.091  10.750   0.378  1.0104  0.9246  0.2385
  401MOL0     H52913   5.106  10.754   0.550  1.4533 -1.9186 -1.3451
  401MOL0     H52914   4.782   9.840   0.603  1.6973 -0.6402  0.2072
  401MOL0     H52915   4.634   9.718   0.748  1.3525 -2.6271 -0.8552
  401MOL0     H52916   4.642   9.439   1.316 -0.4788 -0.1886  0.9310
  401MOL0     H52917   4.489   9.456   1.525  2.1528 -1.9541 -1.5201
  401MOL0     H52918   3.370  10.055   1.301  0.1288 -0.0874  2.4721
  401MOL0     H52919   3.384  10.191   1.509 -0.9598  1.2228  0.3765
  401MOL0     H52920   3.698  10.329   1.872  4.4887  0.5926 -0.2702
  401MOL0     H52921   3.713  10.476   2.077  0.0961 -2.2842 -1.2418
  401MOL0     H52922   3.394  10.651   2.127  2.7188 -3.2561  0.5221
  401MOL0     H52923   3.427  10.821   2.132 -1.2751 -0.3749  2.7095
  401MOL0     H52924   3.561  10.807   2.341  0.1847 -0.9090  0.7337
  401MOL0     H52925   3.392  10.759   2.355  0.1431  0.4462 -0.5914
  401MOL0     H52926   3.630  10.572   2.303 -0.1038  2.9817 -0.7862
  401MOL0     H52927   3.467  10.512   2.355 -0.2296 -0.1297 -2.2191
  401MOL0     H52928   3.484  10.638   2.549 -0.1580  0.8467 -1.6545
  401MOL0     H52929   3.576  10.480   2.542 -0.4469 -1.4492 -1.1268
  401MOL0     H52930   3.902  10.743   2.535  2.5376 -3.4243 -1.2133
  401MOL0     H52931   3.529  10.782   1.862 -2.2816 -0.7192 -1.1429
  401MOL0     H52932   3.523  10.654   1.665 -2.1405 -3.1836 -1.1618
  402MOL0     O52933   9.723   6.969   3.272  0.2692  0.6432 -1.0763
  402MOL0     C52934   9.728   6.989   3.156  0.6404 -0.1062  0.5381
  402MOL0     O52935   9.701   7.105   3.101 -0.0697  0.3108 -0.2169
  402MOL0     C52936   9.616   7.193   3.155 -0.1907 -0.2320 -0.8073
  402MOL0     C52937   9.507   7.153   3.235  0.3976 -0.0892  0.1219
  402MOL0     C52938   9.419   7.248   3.287  0.2738  0.4498 -0.2553
  402MOL0     C52939   9.434   7.385   3.266  0.0317 -0.2514  0.0543
  402MOL0     O52940   9.354   7.469   3.339  0.0433 -0.2135  0.1081
  402MOL0     C52941   9.383   7.615   3.327  0.2981  0.0273 -0.0633
  402MOL0     C52942   9.487   7.664   3.437  0.5578 -0.0437 -0.7947
  402MOL0     C52943   9.525   7.811   3.424 -0.3408  0.5473  0.1500
  402MOL0     C52944   9.508   7.869   3.559  1.4368  0.1082 -0.9652
  402MOL0     C52945   9.565   8.003   3.591 -0.3970  0.6971 -0.2400
  402MOL0     C52946   9.537   8.112   3.481  0.4900 -0.1148  0.1428
  402MOL0     C52947   9.565   8.257   3.523  0.4541  1.3230  0.1564
  402MOL0     C52948   9.445   8.316   3.598 -0.5680  0.3305  0.1182
  402MOL0     N52949   9.468   8.462   3.619 -0.6779  1.0450 -0.8885
  402MOL0     C52950   9.424   8.532   3.730  0.6699 -0.4400  0.3466
  402MOL0     C52951   9.481   8.658   3.710 -0.2168 -0.1221 -0.0374
  402MOL0     C52952   9.440   8.776   3.797  0.3886 -0.2592 -0.5758
  402MOL0     C52953   9.332   8.870   3.749  0.0597 -0.0629 -0.1764
  402MOL0     C52954   9.364   8.914   3.602 -0.0330 -0.6461  0.2209
  402MOL0     C52955   9.298   9.051   3.546 -0.2038 -0.7039 -0.2778
  402MOL0     O52956   9.158   9.049   3.558  0.3817 -0.7023  0.4369
  402MOL0     C52957   9.092   9.172   3.567 -0.0500 -0.7585  0.5280
  402MOL0     C52958   9.076   9.253   3.451  0.2408 -1.2802  0.1426
  402MOL0     C52959   9.011   9.382   3.463 -0.3333  0.0857 -0.2368
  402MOL0     C52960   8.961   9.424   3.582  0.0653  0.0566 -0.0648
  402MOL0     C52961   8.880   9.552   3.597 -0.1885 -0.4400  0.1340
  402MOL0     O52962   8.846   9.613   3.469  0.8604 -0.1897  0.0460
  402MOL0     C52963   8.782   9.738   3.465  0.0058 -0.3331 -0.4469
  402MOL0     C52964   8.677   9.749   3.369 -0.9529  0.1741  0.5955
  402MOL0     C52965   8.597   9.872   3.361 -0.0695  1.2211 -0.6188
  402MOL0     C52966   8.627   9.979   3.440  0.3912 -0.4690  0.2500
  402MOL0     O52967   8.560  10.097   3.422  0.3027 -0.0522  0.3192
  402MOL0     C52968   8.552  10.173   3.544 -0.7448 -0.1290  1.0602
  402MOL0     C52969   8.466  10.302   3.540  0.7083  0.0194  0.1998
  402MOL0     C52970   8.435  10.350   3.680 -0.0316 -0.3008 -0.1098
  402MOL0     C52971   8.348  10.470   3.675  1.0346 -0.2955 -0.0833
  402MOL0     C52972   8.189  10.442   3.667  0.3660 -0.8209 -0.0610
  402MOL0     C52973   8.125  10.572   3.604 -0.6165 -0.1146  0.0447
  402MOL0     C52974   7.976  10.563   3.589  0.2032  0.2392  0.3424
  402MOL0     C52975   7.924  10.470   3.487  0.1348  0.2259  0.9856
  402MOL0    Cl52976   8.009  10.471   3.324 -0.4469  0.5186  0.2336
  402MOL0     C52977   8.733   9.968   3.529 -0.3165 -0.3367 -0.5908
  402MOL0     C52978   8.810   9.848   3.547  1.2971  0.2814  0.0767
  402MOL0     O52979   8.847   9.599   3.707 -0.1909  0.5954 -0.0467
  402MOL0     C52980   8.989   9.345   3.700  0.2988  0.9840  0.6454
  402MOL0     C52981   9.043   9.219   3.688 -0.4202  0.0684  0.2134
  402MOL0     N52982   9.562   8.661   3.596  0.0333 -0.3104  0.1575
  402MOL0     N52983   9.543   8.545   3.539  0.3214  0.2616  0.1197
  402MOL0     C52984   9.543   7.415   3.184  0.4795 -0.1790  0.4544
  402MOL0     C52985   9.622   7.325   3.125  0.4081  0.8313 -0.2619
  402MOL0     C52986   9.782   6.877   3.084  0.3490 -0.2996 -0.5488
  402MOL0     C52987   9.817   6.902   2.950  0.0747  0.6296  0.8946
  402MOL0     C52988   9.879   6.798   2.876  0.0130  0.7687  0.4323
  402MOL0     C52989   9.914   6.676   2.944 -0.4063 -1.1487 -0.3423
  402MOL0     O52990   9.960   6.574   2.875  0.6747  0.0746 -0.1928
  402MOL0     C52991  10.011   6.592   2.737 -0.5685  1.4688 -0.5917
  402MOL0     C52992  10.054   6.454   2.682 -0.1825  1.1701 -0.0604
  402MOL0     C52993  10.187   6.400   2.738 -0.2247 -0.2439  0.2132
  402MOL0     C52994  10.302   6.498   2.756 -0.0496 -0.3605  0.5839
  402MOL0     C52995  10.435   6.446   2.793  0.6889  0.1258 -1.0833
  402MOL0     C52996  10.540   6.396   2.843 -0.4162 -0.3620  0.5717
  402MOL0     C52997   9.871   6.649   3.074  0.6374  0.0171  0.4247
  402MOL0     C52998   9.804   6.747   3.139  0.2595  0.4262  0.3725
  402MOL0     H52999   9.487   7.047   3.245 -2.0623  0.1435 -1.4855
  402MOL0     H53000   9.345   7.219   3.361 -0.9572  4.5966  0.3776
  402MOL0     H53001   9.287   7.658   3.355 -1.1477 -2.7597 -0.3793
  402MOL0     H53002   9.418   7.638   3.226  2.0074  0.1108  0.5187
  402MOL0     H53003   9.586   7.618   3.429  0.7283  0.2731 -0.4901
  402MOL0     H53004   9.449   7.646   3.538 -0.5836  3.0663 -0.5689
  402MOL0     H53005   9.461   7.866   3.355 -1.4617 -1.2281 -0.2965
  402MOL0     H53006   9.627   7.819   3.383 -1.4775  2.7103 -2.6479
  402MOL0     H53007   9.401   7.873   3.584  1.7613 -0.2858  0.6108
  402MOL0     H53008   9.538   7.801   3.639 -1.9061  0.1915  0.5600
  402MOL0     H53009   9.670   7.983   3.613 -0.2761 -0.2445 -1.6054
  402MOL0     H53010   9.521   8.030   3.688  2.1706 -1.2880  1.6134
  402MOL0     H53011   9.437   8.104   3.437  0.6620  2.5051 -0.8609
  402MOL0     H53012   9.602   8.085   3.397  0.6645 -3.0390  1.1082
  402MOL0     H53013   9.645   8.252   3.598 -2.6388  0.2963  3.7104
  402MOL0     H53014   9.593   8.318   3.438 -0.8780  0.1853 -1.1547
  402MOL0     H53015   9.450   8.279   3.701  2.4769  0.9266  0.2776
  402MOL0     H53016   9.351   8.300   3.545 -0.2552  0.2628 -0.4264
  402MOL0     H53017   9.346   8.497   3.798 -2.6364  0.2401 -2.7870
  402MOL0     H53018   9.526   8.839   3.820  0.5670 -1.3170  2.0312
  402MOL0     H53019   9.415   8.725   3.891 -0.2069 -1.5311 -1.3993
  402MOL0     H53020   9.328   8.955   3.817  1.8156  0.7780 -1.0552
  402MOL0     H53021   9.239   8.814   3.760  1.0076 -1.4668  1.4367
  402MOL0     H53022   9.471   8.929   3.583 -0.2410 -0.7577 -1.1855
  402MOL0     H53023   9.324   8.833   3.540 -0.7805  1.6353 -2.4818
  402MOL0     H53024   9.313   9.065   3.439  2.1274 -2.2788 -0.2303
  402MOL0     H53025   9.326   9.147   3.592  0.4849 -1.3151  0.6117
  402MOL0     H53026   9.117   9.215   3.357 -0.9121 -1.0430 -0.4777
  402MOL0     H53027   9.003   9.452   3.381 -0.0521 -0.3574 -0.6412
  402MOL0     H53028   8.643   9.663   3.313 -1.5502 -0.2979  1.6513
  402MOL0     H53029   8.517   9.893   3.290  1.7730  1.2496 -2.8085
  402MOL0     H53030   8.652  10.205   3.576  0.3461 -3.4368  1.3269
  402MOL0     H53031   8.516  10.105   3.622 -0.9788  0.4257  1.4434
  402MOL0     H53032   8.367  10.282   3.498 -0.0416 -1.0350  2.3323
  402MOL0     H53033   8.532  10.370   3.485  1.1155 -0.4853  0.0616
  402MOL0     H53034   8.533  10.387   3.711 -0.3929  1.0967 -0.5912
  402MOL0     H53035   8.401  10.266   3.742 -0.0197  0.6848  1.2818
  402MOL0     H53036   8.370  10.531   3.763 -1.2908 -0.2283  0.5173
  402MOL0     H53037   8.368  10.522   3.580  1.3587  0.8517  0.5951
  402MOL0     H53038   8.151  10.429   3.769  1.3362  1.2884  0.6169
  402MOL0     H53039   8.159  10.352   3.613 -3.5558  1.1056 -1.4461
  402MOL0     H53040   8.168  10.594   3.506  0.8069 -2.7129  0.0015
  402MOL0     H53041   8.139  10.658   3.670  1.7277  0.5490 -1.1834
  402MOL0     H53042   7.935  10.537   3.688  0.1052  0.7625  0.4456
  402MOL0     H53043   7.927  10.660   3.571 -1.1756  0.1341  2.9525
  402MOL0     H53044   7.818  10.486   3.465  0.0214 -1.8900 -0.2701
  402MOL0     H53045   7.942  10.369   3.523 -0.4461 -1.5872 -3.1778
  402MOL0     H53046   8.765  10.048   3.596 -2.3363  1.4836 -1.6962
  402MOL0     H53047   8.895   9.852   3.613  0.4043  2.2025  1.1789
  402MOL0     H53048   8.964   9.390   3.796  1.1583  2.2417  0.3099
  402MOL0     H53049   9.068   9.156   3.773  2.2466 -0.2035 -0.6730
  402MOL0     H53050   9.575   7.518   3.174 -2.5264  0.9955  1.8181
  402MOL0     H53051   9.696   7.368   3.058 -0.6827  2.0941 -0.7091
  402MOL0     H53052   9.782   6.992   2.901  0.8516  0.2804 -0.3161
  402MOL0     H53053   9.913   6.815   2.774  2.6053  0.6319  1.2043
  402MOL0     H53054  10.088   6.669   2.748  0.3733  0.3567  0.9099
  402MOL0     H53055   9.939   6.633   2.666  0.5098  0.9771 -2.0003
  402MOL0     H53056   9.970   6.384   2.692  0.8901  0.1059  2.5338
  402MOL0     H53057  10.056   6.466   2.574  2.0042  1.1597 -0.0660
  402MOL0     H53058  10.222   6.309   2.689 -0.9222  0.5327 -1.8246
  402MOL0     H53059  10.165   6.371   2.841  0.3936 -1.4402  0.0323
  402MOL0     H53060  10.319   6.555   2.664 -2.3000 -2.2437 -1.1102
  402MOL0     H53061  10.265   6.572   2.828 -0.8517  1.5066 -1.6108
  402MOL0     H53062  10.623   6.352   2.894  0.8646 -0.7171 -1.6965
  402MOL0     H53063   9.884   6.547   3.107  2.1414  0.3742  1.0328
  402MOL0     H53064   9.768   6.725   3.239  3.7916 -2.5867  1.2123
  403MOL0     O53065   6.906   4.241   2.361 -0.2769 -0.1656 -0.4508
  403MOL0     C53066   7.000   4.208   2.424 -0.5392 -0.6779 -0.5887
  403MOL0     O53067   7.015   4.215   2.564 -1.1321  0.4524 -0.5141
  403MOL0     C53068   6.909   4.237   2.642 -0.0603 -0.7870 -0.0706
  403MOL0     C53069   6.907   4.332   2.744 -0.2319 -0.0383  0.9312
  403MOL0     C53070   6.789   4.369   2.810  0.3767 -0.3588  0.2079
  403MOL0     C53071   6.665   4.321   2.763 -0.7048  0.4369  0.4182
  403MOL0     O53072   6.548   4.364   2.809  0.5050 -0.6582 -0.0559
  403MOL0     C53073   6.476   4.457   2.717  0.6006  0.6575  0.3236
  403MOL0     C53074   6.381   4.566   2.768 -0.1784 -0.1861  0.8923
  403MOL0     C53075   6.323   4.627   2.643  0.4532  0.1269  0.2853
  403MOL0     C53076   6.237   4.758   2.676 -0.6164  1.0343 -0.4322
  403MOL0     C53077   6.181   4.844   2.565 -0.1072 -0.0079  0.5524
  403MOL0     C53078   6.082   4.755   2.484 -1.0914 -0.2938 -0.7994
  403MOL0     C53079   6.031   4.836   2.363 -0.7574 -0.6069  0.4970
  403MOL0     C53080   6.141   4.889   2.263  0.1620  0.2928  0.9561
  403MOL0     N53081   6.081   4.944   2.141  0.3778 -0.6074 -0.6966
  403MOL0     C53082   6.026   5.066   2.141  1.3792 -0.2397  0.3058
  403MOL0     C53083   5.954   5.054   2.029  0.7439  0.3022  0.8703
  403MOL0     C53084   5.867   5.159   1.965 -0.3539 -1.2546 -0.0704
  403MOL0     C53085   5.717   5.123   2.003  0.1977  0.3913  0.8183
  403MOL0     C53086   5.609   5.208   1.942 -0.0254  0.5178  0.1986
  403MOL0     C53087   5.482   5.145   1.933  0.2996 -0.1101 -0.0635
  403MOL0     O53088   5.403   5.225   1.843  0.6912  1.1112  0.7549
  403MOL0     C53089   5.272   5.248   1.878 -0.1961  0.8507 -0.5811
  403MOL0     C53090   5.181   5.147   1.907 -0.9288  0.4748 -0.2441
  403MOL0     C53091   5.051   5.179   1.912 -0.8684 -0.6345 -1.0363
  403MOL0     C53092   4.991   5.306   1.909 -0.2810  0.3380  0.6493
  403MOL0     C53093   4.858   5.329   1.949  0.8455  0.9993 -0.4748
  403MOL0     O53094   4.815   5.459   1.952  0.0493  0.5058  1.0196
  403MOL0     C53095   4.698   5.488   2.026 -0.3968  0.9866  0.8047
  403MOL0     C53096   4.650   5.410   2.134  0.1936 -0.4528  0.5824
  403MOL0     C53097   4.510   5.422   2.162  0.3408 -0.4597 -0.4824
  403MOL0     C53098   4.432   5.525   2.097 -0.1795  0.4010 -0.5531
  403MOL0     O53099   4.299   5.554   2.117  0.1069  0.7321 -0.5340
  403MOL0     C53100   4.214   5.443   2.118 -0.5401 -0.4599 -0.5171
  403MOL0     C53101   4.119   5.435   2.238  0.4827 -0.5801  0.7360
  403MOL0     C53102   4.005   5.340   2.213 -0.1456 -0.1429 -1.3172
  403MOL0     C53103   3.962   5.246   2.331  0.8230  0.1235 -0.4096
  403MOL0     C53104   3.994   5.104   2.307 -0.6296 -0.2779  0.0355
  403MOL0     C53105   3.917   5.003   2.397 -0.3342  1.0542  0.9311
  403MOL0     C53106   3.926   5.033   2.546  0.8498 -0.1143  0.2343
  403MOL0     C53107   4.073   5.023   2.594 -0.8886  0.5631  0.2245
  403MOL0    Cl53108   4.191   5.157   2.577 -0.0335  0.0880  0.0017
  403MOL0     C53109   4.496   5.601   2.004 -0.4339 -0.0787 -1.0140
  403MOL0     C53110   4.622   5.573   1.956  0.1732  0.3913 -1.5185
  403MOL0     O53111   4.790   5.230   1.986  0.0172 -0.4513  0.2106
  403MOL0     C53112   5.083   5.397   1.871  0.0445 -0.2886  0.0174
  403MOL0     C53113   5.224   5.375   1.849  0.7990  0.1997 -0.1592
  403MOL0     N53114   5.975   4.937   1.957  0.6816  0.0604 -0.1469
  403MOL0     N53115   6.064   4.876   2.026  0.2954 -0.5387 -0.5546
  403MOL0     C53116   6.662   4.224   2.672 -0.0845  0.4880 -0.0696
  403MOL0     C53117   6.787   4.183   2.610 -0.7457  0.9424  0.0230
  403MOL0     C53118   7.129   4.163   2.342 -0.5278  0.4120 -0.1796
  403MOL0     C53119   7.132   4.152   2.206 -0.5854 -0.7214 -0.3578
  403MOL0     C53120   7.257   4.097   2.138 -0.1261 -0.5975 -1.3051
  403MOL0     C53121   7.363   4.057   2.214 -0.1664 -0.3670 -0.6148
  403MOL0     O53122   7.466   3.995   2.141 -0.6261 -0.2936  0.2934
  403MOL0     C53123   7.599   4.018   2.202 -0.5560  1.6256 -0.6480
  403MOL0     C53124   7.655   3.883   2.265 -0.3368  0.2195  0.7326
  403MOL0     C53125   7.627   3.748   2.194  0.3827 -0.5426  0.5505
  403MOL0     C53126   7.686   3.627   2.273  0.4270 -0.3986 -0.5906
  403MOL0     C53127   7.836   3.633   2.264  0.0442  0.7873 -1.0045
  403MOL0     C53128   7.955   3.636   2.249  0.5841  0.7836  0.5665
  403MOL0     C53129   7.362   4.076   2.357 -0.6541  1.2109  0.1609
  403MOL0     C53130   7.249   4.134   2.416 -0.3089 -0.2528 -0.1385
  403MOL0     H53131   7.004   4.373   2.768 -0.0561  0.5478 -0.6671
  403MOL0     H53132   6.795   4.448   2.884 -0.9097 -1.7078  1.8246
  403MOL0     H53133   6.412   4.392   2.657 -1.1196  1.0148  1.6988
  403MOL0     H53134   6.557   4.505   2.660  2.1186 -0.3277  1.5546
  403MOL0     H53135   6.421   4.628   2.849 -2.8359  0.2653  1.9727
  403MOL0     H53136   6.293   4.522   2.817  0.2645 -1.8969  0.2051
  403MOL0     H53137   6.265   4.548   2.594 -1.9060  2.1873 -0.3831
  403MOL0     H53138   6.410   4.647   2.579  0.4997 -1.4928 -0.2114
  403MOL0     H53139   6.159   4.722   2.744  1.4621  0.3977  1.7742
  403MOL0     H53140   6.308   4.818   2.734  0.1276  0.1222 -0.3686
  403MOL0     H53141   6.264   4.887   2.507  0.7180 -0.2208  1.5435
  403MOL0     H53142   6.122   4.926   2.607 -1.3948  0.6607 -2.2704
  403MOL0     H53143   5.995   4.723   2.542 -0.2401  2.7438  2.5016
  403MOL0     H53144   6.127   4.661   2.449 -1.4159 -0.1968 -1.4864
  403MOL0     H53145   5.976   4.764   2.301  1.7645 -2.2434  0.0047
  403MOL0     H53146   5.973   4.925   2.391 -1.7537 -1.4722  1.2837
  403MOL0     H53147   6.188   4.801   2.218 -0.1362  1.0923 -1.0252
  403MOL0     H53148   6.219   4.951   2.307 -1.3004  1.0098  2.6698
  403MOL0     H53149   6.026   5.146   2.214  0.6163  0.6403 -0.6322
  403MOL0     H53150   5.891   5.147   1.859  0.3562 -0.5919  0.0041
  403MOL0     H53151   5.899   5.255   2.007 -1.2284 -0.6708 -0.7008
  403MOL0     H53152   5.714   5.126   2.113 -2.5264 -1.4647  0.9068
  403MOL0     H53153   5.687   5.022   1.975 -3.1764  1.6630 -0.7132
  403MOL0     H53154   5.612   5.297   2.007  3.8869  0.4856  0.3166
  403MOL0     H53155   5.638   5.242   1.842 -0.6700 -3.3936 -1.4872
  403MOL0     H53156   5.432   5.133   2.030  2.7727  1.3722  1.4895
  403MOL0     H53157   5.487   5.039   1.904 -1.2483 -1.4945  3.9371
  403MOL0     H53158   5.209   5.043   1.912  2.0462  1.2557  2.0360
  403MOL0     H53159   4.987   5.101   1.952 -3.1539  1.5299 -0.1769
  403MOL0     H53160   4.712   5.342   2.190  0.8166  1.2377  2.0475
  403MOL0     H53161   4.461   5.351   2.228  1.2798 -0.2350  0.4818
  403MOL0     H53162   4.269   5.349   2.118  2.7196  1.2273  1.9105
  403MOL0     H53163   4.161   5.454   2.023 -0.7015  1.6789 -0.2386
  403MOL0     H53164   4.075   5.534   2.255 -2.4397 -1.6992  0.2232
  403MOL0     H53165   4.196   5.409   2.312  2.4319  0.7597 -0.7226
  403MOL0     H53166   4.040   5.286   2.125 -0.2368 -0.7733 -0.9706
  403MOL0     H53167   3.922   5.401   2.175 -2.4198 -1.8782  0.5599
  403MOL0     H53168   4.008   5.289   2.421  0.3879  1.8039 -0.9674
  403MOL0     H53169   3.853   5.255   2.328  0.8567  0.1617 -2.0490
  403MOL0     H53170   4.102   5.089   2.315  0.1019  2.9449 -1.6836
  403MOL0     H53171   3.959   5.081   2.206  2.4829 -2.6161 -0.6780
  403MOL0     H53172   3.967   4.905   2.389  0.1020  1.1699  2.0249
  403MOL0     H53173   3.817   4.993   2.356 -1.1661  2.5492  2.4670
  403MOL0     H53174   3.871   5.125   2.571 -1.6696 -0.4679 -3.2673
  403MOL0     H53175   3.869   4.956   2.599  0.1219  0.0898 -0.2388
  403MOL0     H53176   4.115   4.930   2.555 -2.4899 -0.4991  0.9149
  403MOL0     H53177   4.072   5.004   2.702 -1.0329  1.7453  0.4370
  403MOL0     H53178   4.437   5.675   1.950 -1.5382 -0.7535 -0.7742
  403MOL0     H53179   4.674   5.621   1.873  4.5648 -0.7649  0.2728
  403MOL0     H53180   5.051   5.501   1.860 -0.9747 -0.4164  1.4951
  403MOL0     H53181   5.297   5.454   1.833 -0.2478  0.5906 -3.9958
  403MOL0     H53182   6.565   4.185   2.641  0.8297 -0.0056 -2.4975
  403MOL0     H53183   6.789   4.109   2.531  3.7639  0.0364  0.7183
  403MOL0     H53184   7.049   4.167   2.138 -0.5315  0.4579 -0.1934
  403MOL0     H53185   7.241   4.077   2.032 -0.2669  1.7831 -1.7881
  403MOL0     H53186   7.605   4.106   2.266 -3.4239  1.5951 -0.1969
  403MOL0     H53187   7.660   4.040   2.114 -0.6234 -1.7523 -1.6708
  403MOL0     H53188   7.764   3.889   2.264 -0.3118  0.0067 -0.9930
  403MOL0     H53189   7.634   3.878   2.372  1.8828  0.8709  1.2390
  403MOL0     H53190   7.668   3.754   2.093 -0.6824 -1.7083  0.0136
  403MOL0     H53191   7.517   3.745   2.197  0.3004  0.3804 -0.5471
  403MOL0     H53192   7.661   3.624   2.380  1.8063 -2.7216 -0.2670
  403MOL0     H53193   7.656   3.534   2.225 -1.6272  0.4022 -0.9540
  403MOL0     H53194   8.060   3.640   2.228  0.9016  0.6143  2.0120
  403MOL0     H53195   7.446   4.039   2.414  1.5339  3.0627 -1.6604
  403MOL0     H53196   7.262   4.150   2.522  1.2439 -2.6147  0.0874
  404MOL0     O53197   6.921   7.806   9.302 -0.2795  0.4393  0.4168
  404MOL0     C53198   6.979   7.903   9.248 -0.4268 -0.1971  0.3032
  404MOL0     O53199   6.988   8.025   9.305  1.2394 -0.0623  0.4307
  404MOL0     C53200   6.922   8.057   9.425  0.2493 -0.5644 -0.1190
  404MOL0     C53201   6.996   8.130   9.513  0.3986  0.1777 -0.4504
  404MOL0     C53202   6.943   8.187   9.626  0.4515 -0.0007  0.5745
  404MOL0     C53203   6.808   8.145   9.668 -0.1863  0.2967  0.7699
  404MOL0     O53204   6.758   8.173   9.792 -0.4416 -0.2658 -0.3628
  404MOL0     C53205   6.854   8.160   9.897  0.0881 -0.6896  0.1146
  404MOL0     C53206   6.770   8.189  10.021 -1.0814  0.2404 -0.4682
  404MOL0     C53207   6.633   8.126  10.026  0.4960 -0.1539 -0.0092
  404MOL0     C53208   6.631   7.970  10.026  0.1071 -0.2617 -0.9979
  404MOL0     C53209   6.489   7.917  10.060 -0.3035 -0.4250  0.1722
  404MOL0     C53210   6.384   7.897   9.947 -0.8395 -0.3735 -0.0535
  404MOL0     C53211   6.247   7.855   9.992 -0.1877  0.0723  0.0730
  404MOL0     C53212   6.152   7.859   9.872 -0.0107 -0.2145 -0.1804
  404MOL0     N53213   6.009   7.836   9.911  0.2614  0.4090 -0.0527
  404MOL0     C53214   5.960   7.737   9.987 -0.3575  0.1716 -0.0269
  404MOL0     C53215   5.821   7.753   9.987 -0.3515  0.6300  0.3515
  404MOL0     C53216   5.722   7.677  10.075  0.3769 -0.4141 -0.6059
  404MOL0     C53217   5.742   7.690  10.231  0.2623  0.1571  0.5406
  404MOL0     C53218   5.676   7.575  10.303  0.0666 -0.4566 -0.3603
  404MOL0     C53219   5.528   7.611  10.340 -0.5046  0.0448  1.0546
  404MOL0     O53220   5.544   7.735  10.409  1.0799  0.0300 -0.0233
  404MOL0     C53221   5.443   7.786  10.480  0.2243  0.3261 -1.4275
  404MOL0     C53222   5.314   7.783  10.435 -0.3679 -0.2291 -0.0931
  404MOL0     C53223   5.212   7.837  10.515 -0.0004  0.6887 -0.1342
  404MOL0     C53224   5.245   7.921  10.626  0.1876 -0.1127  0.3984
  404MOL0     C53225   5.136   7.993  10.700 -0.0222  0.1221 -0.3733
  404MOL0     O53226   5.153   8.121  10.737 -0.8233 -0.0886  1.4297
  404MOL0     C53227   5.054   8.192  10.793  0.9617 -0.3396 -0.8712
  404MOL0     C53228   5.082   8.267  10.905  0.1097  0.0152  0.2615
  404MOL0     C53229   4.983   8.357  10.961  0.6304  0.2114 -0.1926
  404MOL0     C53230   4.855   8.371  10.905 -0.7420 -0.1192 -0.3257
  404MOL0     O53231   4.790   8.463  10.984 -0.9084 -0.2202  0.3966
  404MOL0     C53232   4.660   8.509  10.943  0.6765 -0.2596  0.1535
  404MOL0     C53233   4.628   8.617  11.051 -0.0723 -0.4819  0.2804
  404MOL0     C53234   4.590   8.747  10.987  0.3539  0.3479  0.0809
  404MOL0     C53235   4.564   8.853  11.083 -0.6652 -0.7865  0.7939
  404MOL0     C53236   4.490   8.980  11.026  0.0567  0.2580 -0.2424
  404MOL0     C53237   4.535   9.030  10.877  1.3458 -1.2937 -0.0826
  404MOL0     C53238   4.430   9.107  10.798 -0.7184  0.6513 -0.1639
  404MOL0     C53239   4.440   9.260  10.800  0.0534  0.0714 -0.1307
  404MOL0    Cl53240   4.312   9.348  10.726 -0.1608  0.0367 -0.6120
  404MOL0     C53241   4.823   8.296  10.794  0.0397 -0.9426 -1.1638
  404MOL0     C53242   4.932   8.215  10.739  0.6439 -0.6835  0.6309
  404MOL0     O53243   5.042   7.922  10.736 -0.3845 -0.7044  0.6295
  404MOL0     C53244   5.386   7.938  10.657  0.2525 -0.1520 -0.3137
  404MOL0     C53245   5.477   7.865  10.584 -0.5328 -0.1346 -0.1330
  404MOL0     N53246   5.796   7.874   9.925  0.8776  0.9493 -0.2177
  404MOL0     N53247   5.902   7.911   9.863 -0.4058  0.3087  0.5980
  404MOL0     C53248   6.729   8.068   9.579  0.2424 -0.4150 -0.0692
  404MOL0     C53249   6.786   8.029   9.457 -0.4183  0.9521 -1.2974
  404MOL0     C53250   7.055   7.890   9.127 -0.3258  0.5455 -0.0408
  404MOL0     C53251   7.122   7.769   9.090 -0.4102 -0.4222  0.0398
  404MOL0     C53252   7.176   7.761   8.960 -0.2476 -0.4866  0.0720
  404MOL0     C53253   7.182   7.876   8.882 -0.4439  0.2630 -0.2541
  404MOL0     O53254   7.231   7.860   8.758 -0.3767 -0.2307  0.7730
  404MOL0     C53255   7.371   7.916   8.743  0.5763  0.2163  0.1249
  404MOL0     C53256   7.396   7.945   8.593 -0.3361 -0.1859 -0.9515
  404MOL0     C53257   7.430   7.809   8.529  1.5984 -0.5972  0.9630
  404MOL0     C53258   7.481   7.822   8.384 -0.5633 -0.8498  0.6469
  404MOL0     C53259   7.561   7.706   8.346 -0.2151  0.7610  0.3390
  404MOL0     C53260   7.607   7.596   8.318  1.9830 -1.1002 -0.1009
  404MOL0     C53261   7.120   7.993   8.918  0.5435 -0.5024  0.4415
  404MOL0     C53262   7.052   8.007   9.042 -0.1557 -0.2163  0.1546
  404MOL0     H53263   7.097   8.150   9.478  0.4243 -0.5307 -0.7844
  404MOL0     H53264   7.004   8.242   9.697  0.4876 -0.3458  0.8147
  404MOL0     H53265   6.942   8.224   9.891  0.4705 -1.0868  1.2561
  404MOL0     H53266   6.884   8.055   9.895 -1.1582 -1.0643 -0.4417
  404MOL0     H53267   6.758   8.298  10.025 -1.5990  0.1531  1.9018
  404MOL0     H53268   6.826   8.159  10.111  1.3141 -3.4883 -2.8937
  404MOL0     H53269   6.573   8.164   9.942 -3.0129 -1.3360  1.7685
  404MOL0     H53270   6.596   8.169  10.119 -2.2825 -1.1001 -0.5555
  404MOL0     H53271   6.662   7.942   9.925 -0.6787  2.3206 -2.0351
  404MOL0     H53272   6.708   7.942  10.099  2.0418 -1.2666 -3.2849
  404MOL0     H53273   6.451   7.963  10.152 -1.6389 -3.2328  1.1157
  404MOL0     H53274   6.517   7.816  10.091  3.3536 -0.2731 -2.0164
  404MOL0     H53275   6.419   7.825   9.872 -3.4348  0.1193 -1.8691
  404MOL0     H53276   6.379   7.996   9.900  2.2264  0.7704  1.7323
  404MOL0     H53277   6.255   7.754  10.033  1.2245 -0.5918 -1.7256
  404MOL0     H53278   6.215   7.922  10.072  1.2014  0.8412  0.0160
  404MOL0     H53279   6.187   7.794   9.791  1.3611 -0.9478  0.9667
  404MOL0     H53280   6.160   7.959   9.829  2.1617 -1.1832 -2.3065
  404MOL0     H53281   6.021   7.660  10.033 -0.1112 -2.2794 -3.9871
  404MOL0     H53282   5.740   7.575  10.041  1.7919 -0.2021 -0.5908
  404MOL0     H53283   5.617   7.703  10.058 -0.5003 -1.6205  2.3792
  404MOL0     H53284   5.727   7.795  10.260  2.3175  0.5306  0.3834
  404MOL0     H53285   5.847   7.675  10.258 -0.2151 -1.4003  1.6753
  404MOL0     H53286   5.665   7.481  10.249 -0.2364 -0.8281  0.3354
  404MOL0     H53287   5.732   7.543  10.392 -0.7348 -0.5640  0.1105
  404MOL0     H53288   5.487   7.537  10.409  2.4290 -1.2209  1.6271
  404MOL0     H53289   5.468   7.627  10.250  4.6204  1.5808 -2.5763
  404MOL0     H53290   5.287   7.735  10.341 -1.8262  1.6143 -0.6753
  404MOL0     H53291   5.109   7.825  10.482 -0.2854  0.0027  0.9276
  404MOL0     H53292   5.184   8.258  10.941 -0.3950 -0.3834  1.6537
  404MOL0     H53293   5.012   8.422  11.043  0.9010 -0.1879  0.0280
  404MOL0     H53294   4.604   8.417  10.964  1.2662 -0.5744  0.3603
  404MOL0     H53295   4.643   8.556  10.846  1.2201  1.6290  0.9377
  404MOL0     H53296   4.715   8.643  11.111 -1.6828  1.7428  1.8251
  404MOL0     H53297   4.551   8.575  11.117  1.2799 -2.2271  0.8226
  404MOL0     H53298   4.500   8.744  10.925  0.1112  1.1228  0.3800
  404MOL0     H53299   4.671   8.770  10.916 -0.9059  0.2081 -1.4645
  404MOL0     H53300   4.507   8.809  11.165  0.4481 -2.6665  0.6334
  404MOL0     H53301   4.659   8.894  11.120  0.1963 -0.8459 -1.1941
  404MOL0     H53302   4.501   9.071  11.085  2.7084 -0.3006  0.2438
  404MOL0     H53303   4.382   8.967  11.017 -0.4090  1.7400  2.4043
  404MOL0     H53304   4.538   8.940  10.814 -1.2754 -0.6933 -1.1942
  404MOL0     H53305   4.617   9.102  10.884 -0.4577  0.9545 -0.8466
  404MOL0     H53306   4.430   9.077  10.693  0.4696 -0.0474  0.0190
  404MOL0     H53307   4.334   9.069  10.835 -0.1217 -1.2335 -0.4628
  404MOL0     H53308   4.529   9.279  10.739  1.4479  0.0897  1.8234
  404MOL0     H53309   4.438   9.296  10.903 -1.8808  0.1075 -0.1468
  404MOL0     H53310   4.724   8.314  10.753 -0.8611 -1.3230  0.7115
  404MOL0     H53311   4.898   8.166  10.649  2.2370  2.5424 -1.9784
  404MOL0     H53312   5.404   8.026  10.718  1.3559  0.7392 -1.8704
  404MOL0     H53313   5.586   7.872  10.587 -0.5954  2.8224 -1.6377
  404MOL0     H53314   6.629   8.045   9.615  0.5163 -0.2489  0.8216
  404MOL0     H53315   6.727   7.980   9.380  0.1918  1.3978 -2.0628
  404MOL0     H53316   7.126   7.692   9.166 -0.5752  0.3334  0.8431
  404MOL0     H53317   7.221   7.667   8.929  0.0543 -0.8205  1.4436
  404MOL0     H53318   7.441   7.849   8.793  0.3702 -1.3340 -1.5569
  404MOL0     H53319   7.374   8.012   8.795 -3.4954  0.8983 -0.6144
  404MOL0     H53320   7.310   7.999   8.551  1.4505  2.0390 -2.0001
  404MOL0     H53321   7.489   8.003   8.589  0.7279 -0.8878  4.6074
  404MOL0     H53322   7.336   7.755   8.518  0.3061  1.9798 -2.6785
  404MOL0     H53323   7.495   7.748   8.594  2.5678  0.8023  1.3473
  404MOL0     H53324   7.398   7.827   8.313  1.6144  4.7929 -2.1417
  404MOL0     H53325   7.536   7.916   8.375  0.5333 -1.4548  0.7725
  404MOL0     H53326   7.648   7.506   8.277 -0.1837 -3.3365  2.2953
  404MOL0     H53327   7.110   8.056   8.830  1.0392 -2.2258 -0.8865
  404MOL0     H53328   6.983   8.088   9.067 -0.6216  0.1841 -2.1565
  405MOL0     O53329   7.973   3.705  10.419  0.1288 -0.0531 -0.2235
  405MOL0     C53330   7.927   3.718  10.311  0.4493  0.3110 -0.0262
  405MOL0     O53331   7.947   3.627  10.206  0.3348  0.0929  0.0078
  405MOL0     C53332   8.052   3.541  10.209  0.2594  0.1134  0.1171
  405MOL0     C53333   8.042   3.408  10.151 -0.8325  0.1529  0.4930
  405MOL0     C53334   8.151   3.318  10.160  0.3745 -0.1541  0.0447
  405MOL0     C53335   8.269   3.355  10.223  0.9352 -0.5422  0.6760
  405MOL0     O53336   8.372   3.261  10.207  0.3985 -0.7061  0.7099
  405MOL0     C53337   8.505   3.301  10.258 -0.2158 -0.3393 -0.4613
  405MOL0     C53338   8.611   3.195  10.227 -1.0349  0.6115  0.1060
  405MOL0     C53339   8.663   3.178  10.083 -0.0852 -0.2860  0.0361
  405MOL0     C53340   8.565   3.114   9.980 -0.3583  0.1465 -0.0954
  405MOL0     C53341   8.517   2.978  10.020 -0.6174  0.4408 -0.1307
  405MOL0     C53342   8.360   2.973  10.055  0.4698 -0.6529 -0.0297
  405MOL0     C53343   8.303   2.834  10.075 -0.2214 -0.0780 -0.4416
  405MOL0     C53344   8.363   2.782  10.207  0.2837 -0.1578  0.1440
  405MOL0     N53345   8.296   2.658  10.245 -0.1743  0.3612  0.4768
  405MOL0     C53346   8.240   2.641  10.371 -0.0304  0.7881 -0.6096
  405MOL0     C53347   8.170   2.525  10.366  1.0035 -0.1490 -0.4003
  405MOL0     C53348   8.061   2.475  10.461  0.0900  0.7067 -0.1724
  405MOL0     C53349   7.921   2.537  10.423  1.2373 -0.1051 -0.5749
  405MOL0     C53350   7.819   2.505  10.544 -0.0038 -0.0875  0.0337
  405MOL0     C53351   7.676   2.565  10.523 -0.1836  0.3561 -0.9146
  405MOL0     O53352   7.613   2.553  10.653 -0.4619  0.1494 -0.5496
  405MOL0     C53353   7.512   2.460  10.683 -0.5738 -0.7835 -0.5094
  405MOL0     C53354   7.514   2.327  10.653  0.7040 -0.1282  0.2299
  405MOL0     C53355   7.389   2.254  10.689 -0.3520 -0.4803 -0.4866
  405MOL0     C53356   7.281   2.308  10.761  0.1869  0.6098 -0.8386
  405MOL0     C53357   7.166   2.230  10.818 -0.4957  0.0641  0.2405
  405MOL0     O53358   7.184   2.094  10.798 -0.3741  0.5223 -0.4951
  405MOL0     C53359   7.096   2.014  10.873  0.2044  0.9403  1.2891
  405MOL0     C53360   7.057   2.028  11.015 -0.8630  0.7598 -0.1429
  405MOL0     C53361   6.980   1.931  11.069  0.0415 -0.0435 -0.3735
  405MOL0     C53362   6.923   1.830  10.993  0.8923 -0.2736 -0.5827
  405MOL0     O53363   6.825   1.743  11.038  0.1693 -0.8648  0.9208
  405MOL0     C53364   6.835   1.695  11.171 -0.1184 -0.5350 -0.7660
  405MOL0     C53365   6.762   1.559  11.203  0.5803 -0.7690 -0.3254
  405MOL0     C53366   6.785   1.471  11.082  1.0677  0.4025 -0.4255
  405MOL0     C53367   6.733   1.330  11.111  0.1380  0.7822  0.6001
  405MOL0     C53368   6.732   1.227  10.990  0.7092 -0.0375 -0.6172
  405MOL0     C53369   6.674   1.096  11.040  0.4388 -0.6356 -0.5505
  405MOL0     C53370   6.642   0.997  10.917 -0.0638 -1.3308  0.2002
  405MOL0     C53371   6.568   0.876  10.967 -0.6134  0.1905  0.1493
  405MOL0    Cl53372   6.397   0.894  11.009  0.1946  0.1384 -0.0406
  405MOL0     C53373   6.949   1.824  10.852  0.1881  0.6981  0.2718
  405MOL0     C53374   7.036   1.911  10.798  0.3601 -0.5554  0.6692
  405MOL0     O53375   7.073   2.278  10.870  0.4618  0.1414 -0.0080
  405MOL0     C53376   7.299   2.441  10.809  0.2064  0.4656 -0.0083
  405MOL0     C53377   7.403   2.519  10.748 -0.2039  0.4157  0.2367
  405MOL0     N53378   8.208   2.462  10.246 -0.1970 -0.3069 -0.2919
  405MOL0     N53379   8.276   2.542  10.170  0.1012  0.3518 -0.9842
  405MOL0     C53380   8.269   3.487  10.285 -0.6244  0.3499 -0.3911
  405MOL0     C53381   8.167   3.577  10.269 -0.3813 -0.2583  0.5124
  405MOL0     C53382   7.835   3.831  10.279  1.0045 -0.1737 -0.3684
  405MOL0     C53383   7.801   3.917  10.383  0.8663 -0.6013 -0.7054
  405MOL0     C53384   7.711   4.027  10.359  0.4448  0.2270 -0.1993
  405MOL0     C53385   7.660   4.048  10.233  1.2859 -0.6363 -0.0054
  405MOL0     O53386   7.576   4.154  10.214 -0.0837 -0.0165 -0.6396
  405MOL0     C53387   7.557   4.212  10.092 -0.0559 -0.7189  0.3539
  405MOL0     C53388   7.497   4.353  10.091  0.2357  0.0017 -0.3915
  405MOL0     C53389   7.593   4.448  10.163  0.0002  0.5870  0.3316
  405MOL0     C53390   7.555   4.591  10.123 -0.2143 -0.2780 -0.4526
  405MOL0     C53391   7.586   4.637   9.990  1.1916  0.8706 -0.0656
  405MOL0     C53392   7.622   4.686   9.886 -0.7586  0.4087  0.2959
  405MOL0     C53393   7.697   3.955  10.136  0.4797  0.8555 -0.6741
  405MOL0     C53394   7.783   3.853  10.153 -0.2546  0.5944 -0.0411
  405MOL0     H53395   7.960   3.382  10.084  0.4875  0.4352 -1.3031
  405MOL0     H53396   8.149   3.221  10.112  1.3726 -1.2473  2.1132
  405MOL0     H53397   8.481   3.319  10.363 -3.1562 -1.3297 -0.8689
  405MOL0     H53398   8.528   3.395  10.207  0.0946 -0.8403 -1.2619
  405MOL0     H53399   8.567   3.104  10.267 -2.0205  2.4052  3.4621
  405MOL0     H53400   8.698   3.216  10.289 -0.5581 -1.0320  0.0281
  405MOL0     H53401   8.744   3.108  10.102  2.5211  1.2673 -4.0969
  405MOL0     H53402   8.719   3.261  10.039  5.4061 -3.4044  0.2924
  405MOL0     H53403   8.487   3.190   9.967  1.2640  2.2795  1.7043
  405MOL0     H53404   8.617   3.108   9.885  1.9860 -1.2480  1.1935
  405MOL0     H53405   8.575   2.937  10.103 -1.7192  0.0352  0.4660
  405MOL0     H53406   8.533   2.907   9.938 -1.0237 -2.6514  2.2929
  405MOL0     H53407   8.290   3.007   9.978 -2.7070 -1.6373  2.1821
  405MOL0     H53408   8.340   3.037  10.141 -0.6443  0.3671 -1.0063
  405MOL0     H53409   8.194   2.839  10.081 -0.5554 -0.8818 -3.7774
  405MOL0     H53410   8.329   2.765   9.994  0.6438  0.6204 -0.7816
  405MOL0     H53411   8.351   2.862  10.281  3.6759  0.4495  0.1942
  405MOL0     H53412   8.470   2.764  10.192  0.1154  0.6627 -2.8753
  405MOL0     H53413   8.232   2.700  10.462  4.1883 -3.8089  3.3882
  405MOL0     H53414   8.084   2.516  10.559 -0.7758  1.7011 -0.3584
  405MOL0     H53415   8.054   2.366  10.464  1.7908  0.5940  1.5462
  405MOL0     H53416   7.885   2.500  10.326 -1.7141 -1.5616  0.9465
  405MOL0     H53417   7.932   2.644  10.404 -0.8731  0.1377 -0.6434
  405MOL0     H53418   7.799   2.398  10.543 -1.7087  0.1881  0.5166
  405MOL0     H53419   7.869   2.521  10.639  5.3912 -2.0556 -2.0958
  405MOL0     H53420   7.623   2.520  10.439 -1.1395 -0.4553  0.0828
  405MOL0     H53421   7.682   2.671  10.498 -0.0091  0.2761 -1.2072
  405MOL0     H53422   7.593   2.270  10.604 -0.1727 -1.9858  0.8679
  405MOL0     H53423   7.377   2.153  10.650 -2.0321 -0.8316  0.8334
  405MOL0     H53424   7.127   2.086  11.075  1.1250 -1.4605 -0.1613
  405MOL0     H53425   6.963   1.927  11.176  0.1006 -6.1185 -0.2682
  405MOL0     H53426   6.800   1.777  11.235 -0.1340 -1.9928  1.1993
  405MOL0     H53427   6.943   1.689  11.184  0.2445  1.3697 -2.3862
  405MOL0     H53428   6.657   1.575  11.226  0.8184  1.9566 -0.8275
  405MOL0     H53429   6.795   1.513  11.296 -0.6977 -0.4482  0.3015
  405MOL0     H53430   6.892   1.475  11.060  0.8068  1.0212 -1.7134
  405MOL0     H53431   6.734   1.509  10.993  1.3522 -2.4940 -1.9353
  405MOL0     H53432   6.794   1.276  11.185  0.3703  0.7241  0.3681
  405MOL0     H53433   6.637   1.325  11.164  1.4445 -0.2244  3.0745
  405MOL0     H53434   6.833   1.197  10.958  1.9815  3.2502 -0.0545
  405MOL0     H53435   6.677   1.264  10.904 -0.9383  1.8841  1.1571
  405MOL0     H53436   6.579   1.097  11.095 -0.3934  0.0953 -1.9598
  405MOL0     H53437   6.746   1.044  11.105  1.0595  0.5372 -0.2726
  405MOL0     H53438   6.584   1.057  10.846  0.8649 -1.4031 -0.6409
  405MOL0     H53439   6.737   0.966  10.873  1.5577 -0.7774  3.0549
  405MOL0     H53440   6.613   0.840  11.060 -0.2178 -0.5017 -0.3028
  405MOL0     H53441   6.563   0.801  10.887  1.7107  0.1357 -0.0149
  405MOL0     H53442   6.920   1.740  10.791  1.5850  1.2656 -1.2417
  405MOL0     H53443   7.060   1.888  10.695 -0.6901 -4.7204  1.1595
  405MOL0     H53444   7.224   2.492  10.870  1.8964  1.1231  1.5950
  405MOL0     H53445   7.417   2.623  10.774  0.7200  2.1974 -5.8225
  405MOL0     H53446   8.350   3.517  10.350  1.5156 -3.9996 -0.7610
  405MOL0     H53447   8.190   3.676  10.308 -1.3678  1.2009 -2.3674
  405MOL0     H53448   7.853   3.915  10.478 -0.7980  1.5655  0.3510
  405MOL0     H53449   7.701   4.100  10.439  2.9064 -0.7221  1.0675
  405MOL0     H53450   7.499   4.134  10.040  1.4991 -2.1542  0.6525
  405MOL0     H53451   7.656   4.229  10.048 -0.0605 -0.3930  0.4705
  405MOL0     H53452   7.488   4.384   9.987 -0.6613 -0.7733 -0.5536
  405MOL0     H53453   7.400   4.359  10.142  0.1519  2.4216 -0.6980
  405MOL0     H53454   7.693   4.422  10.125 -0.8332 -0.1617 -1.4556
  405MOL0     H53455   7.599   4.434  10.271  1.8305  1.2188  0.3583
  405MOL0     H53456   7.449   4.607  10.143 -0.1340 -0.3002  0.0007
  405MOL0     H53457   7.605   4.657  10.193 -0.9070  1.9071 -1.9211
  405MOL0     H53458   7.642   4.716   9.785  2.3008  1.5126  1.0987
  405MOL0     H53459   7.644   3.972  10.043 -0.5630 -0.4779 -0.3536
  405MOL0     H53460   7.798   3.785  10.070 -1.6116  0.9398 -0.5918
  406MOL0     O53461   2.506   2.891   9.397  0.3486  0.8684 -0.3956
  406MOL0     C53462   2.462   3.003   9.410  0.1551  0.1608  0.3274
  406MOL0     O53463   2.499   3.118   9.344 -0.3132  0.5687 -0.5764
  406MOL0     C53464   2.594   3.097   9.247 -1.2249  0.6485  0.0806
  406MOL0     C53465   2.729   3.112   9.277  0.6597  0.7990  0.9321
  406MOL0     C53466   2.827   3.088   9.182 -0.0638 -0.0161 -1.1545
  406MOL0     C53467   2.790   3.040   9.055  0.5923 -1.1341  0.7259
  406MOL0     O53468   2.894   3.017   8.972 -0.6462 -0.2291 -0.5152
  406MOL0     C53469   3.010   3.102   8.948  0.1092  0.3689  0.1042
  406MOL0     C53470   3.055   3.134   8.802 -0.3923  0.2718  0.1458
  406MOL0     C53471   2.935   3.189   8.710 -0.8337 -0.3221  0.3215
  406MOL0     C53472   2.998   3.275   8.594  0.2884  0.1751 -0.2655
  406MOL0     C53473   3.056   3.180   8.485  0.0435 -0.1604 -0.5097
  406MOL0     C53474   3.128   3.268   8.382 -0.3773 -0.4049 -0.0031
  406MOL0     C53475   3.023   3.364   8.309 -0.6397  0.3941  0.2814
  406MOL0     C53476   2.892   3.307   8.275  1.5827  0.5686  0.2593
  406MOL0     N53477   2.798   3.412   8.214  0.6006 -0.0245  0.3764
  406MOL0     C53478   2.782   3.443   8.079  0.2320 -0.2967  0.4023
  406MOL0     C53479   2.675   3.520   8.068 -0.8138 -0.6862  0.6764
  406MOL0     C53480   2.622   3.589   7.949 -0.5918 -1.3433 -1.2314
  406MOL0     C53481   2.498   3.526   7.893  0.2955 -0.0098  0.8382
  406MOL0     C53482   2.451   3.580   7.761  0.3115 -0.4672  0.8231
  406MOL0     C53483   2.426   3.722   7.766  0.0491 -0.8334 -0.1575
  406MOL0     O53484   2.350   3.775   7.661 -0.5658  0.9373 -0.2836
  406MOL0     C53485   2.414   3.792   7.541  0.3019 -0.1381  0.3141
  406MOL0     C53486   2.325   3.796   7.438 -0.7908  0.2300 -0.4339
  406MOL0     C53487   2.368   3.839   7.316  1.0460 -0.2048  0.1532
  406MOL0     C53488   2.498   3.872   7.295 -1.4631 -0.9376  0.1065
  406MOL0     C53489   2.527   3.931   7.166 -0.4355 -0.2412  0.1445
  406MOL0     O53490   2.432   3.964   7.077 -0.1347 -0.6866  0.9010
  406MOL0     C53491   2.441   4.006   6.946 -0.8204 -0.0420  0.5162
  406MOL0     C53492   2.327   4.066   6.893  0.4218  0.4916  0.4547
  406MOL0     C53493   2.338   4.122   6.761  0.2867  0.1225  1.4683
  406MOL0     C53494   2.443   4.098   6.679 -0.2397  0.3102 -0.4051
  406MOL0     O53495   2.444   4.130   6.554  0.2572 -0.7033  0.1700
  406MOL0     C53496   2.563   4.133   6.471 -0.4300 -0.5053  0.1517
  406MOL0     C53497   2.533   4.226   6.353 -0.0270 -0.5155 -0.4656
  406MOL0     C53498   2.583   4.362   6.388 -0.0057 -0.9410 -0.0890
  406MOL0     C53499   2.470   4.466   6.413 -0.4932  0.5070 -0.1399
  406MOL0     C53500   2.519   4.611   6.423  0.1071  0.1477 -1.1398
  406MOL0     C53501   2.422   4.718   6.484  1.2076  0.7007  0.8686
  406MOL0     C53502   2.502   4.833   6.551  0.0988 -0.0957 -0.8557
  406MOL0     C53503   2.398   4.921   6.605  1.5306 -0.3241  0.1267
  406MOL0    Cl53504   2.468   5.081   6.669 -0.2430 -0.1341  0.8662
  406MOL0     C53505   2.565   4.042   6.737 -0.3863  0.3794 -0.3363
  406MOL0     C53506   2.562   3.999   6.872 -0.6057 -0.5191 -0.3275
  406MOL0     O53507   2.643   3.955   7.150  0.3330 -0.6554  0.1848
  406MOL0     C53508   2.589   3.856   7.401 -0.0529 -0.3185 -0.7058
  406MOL0     C53509   2.550   3.810   7.529  0.2128 -0.2619 -0.7283
  406MOL0     N53510   2.639   3.557   8.196 -0.9302  0.0085  0.8053
  406MOL0     N53511   2.713   3.492   8.285  0.2042 -0.5930  0.9038
  406MOL0     C53512   2.655   3.025   9.019 -0.2617 -0.1817  0.0379
  406MOL0     C53513   2.555   3.057   9.116 -0.1677  0.1865 -0.3998
  406MOL0     C53514   2.344   2.999   9.500 -0.2955  0.0821  0.9637
  406MOL0     C53515   2.337   2.901   9.604  0.9211 -0.6008  0.9182
  406MOL0     C53516   2.240   2.910   9.705  0.4266 -0.3942  1.5794
  406MOL0     C53517   2.135   3.006   9.685  0.7962  0.2950  0.0422
  406MOL0     O53518   2.018   2.989   9.758  1.0139  0.1326 -0.2210
  406MOL0     C53519   1.898   3.068   9.730  0.6192 -0.6026 -0.2581
  406MOL0     C53520   1.779   2.980   9.786  0.2711 -0.4789 -0.3153
  406MOL0     C53521   1.643   3.049   9.762  0.3069 -0.8288  0.8090
  406MOL0     C53522   1.595   3.142   9.873 -1.7283  0.8427  0.3447
  406MOL0     C53523   1.464   3.192   9.832  1.3501 -0.0040  0.2147
  406MOL0     C53524   1.360   3.245   9.797  0.4087  0.6316 -0.8672
  406MOL0     C53525   2.141   3.093   9.577 -0.9397  0.3158  0.2501
  406MOL0     C53526   2.248   3.095   9.485  0.4710  0.6737 -0.6480
  406MOL0     H53527   2.757   3.126   9.381 -0.4506 -1.3746  1.5851
  406MOL0     H53528   2.930   3.095   9.213 -0.5438  3.5629  0.0616
  406MOL0     H53529   3.099   3.053   8.989  0.3721  1.6946  1.2008
  406MOL0     H53530   3.004   3.196   9.005  0.0368 -1.5551  3.5828
  406MOL0     H53531   3.089   3.041   8.755  0.4562  1.1308 -1.0112
  406MOL0     H53532   3.139   3.204   8.806 -1.8735  2.0913  0.5226
  406MOL0     H53533   2.873   3.246   8.780  2.4511 -0.8566  3.9855
  406MOL0     H53534   2.897   3.099   8.661  2.1186 -0.0293 -2.8630
  406MOL0     H53535   2.918   3.340   8.556 -1.1671 -0.5292  1.4107
  406MOL0     H53536   3.085   3.328   8.635  1.5645 -1.6490 -0.4910
  406MOL0     H53537   2.977   3.111   8.454 -1.0535  0.0359  1.6534
  406MOL0     H53538   3.129   3.119   8.538 -1.7691  0.1976  2.6652
  406MOL0     H53539   3.171   3.224   8.291 -1.3967  2.2975 -1.9427
  406MOL0     H53540   3.202   3.335   8.427 -0.2882 -0.1735 -0.4887
  406MOL0     H53541   2.991   3.441   8.380 -1.3044 -1.2019  1.7899
  406MOL0     H53542   3.055   3.405   8.213 -2.1389  1.5611  0.2253
  406MOL0     H53543   2.848   3.248   8.356  5.0158 -1.8692  0.5898
  406MOL0     H53544   2.912   3.229   8.201  2.5025  0.9662  0.0798
  406MOL0     H53545   2.841   3.397   8.000 -0.9708  1.2535 -1.4867
  406MOL0     H53546   2.709   3.566   7.888  2.0921 -3.0534  2.8102
  406MOL0     H53547   2.610   3.696   7.971  2.8464 -0.2774 -3.7851
  406MOL0     H53548   2.435   3.535   7.982 -1.4773 -0.1090 -0.3566
  406MOL0     H53549   2.514   3.419   7.878 -0.2846 -0.5777  3.6781
  406MOL0     H53550   2.518   3.579   7.674 -3.0510 -0.8862 -2.0008
  406MOL0     H53551   2.358   3.526   7.740 -0.0018  0.3435  0.0432
  406MOL0     H53552   2.517   3.779   7.784 -0.4671 -0.1692  0.3678
  406MOL0     H53553   2.357   3.745   7.847 -1.4609  0.5115 -1.7383
  406MOL0     H53554   2.219   3.777   7.450 -0.6339 -2.5215 -2.4018
  406MOL0     H53555   2.290   3.845   7.241  1.6853  2.1438 -0.4090
  406MOL0     H53556   2.238   4.088   6.952  0.4780  4.7436 -0.7905
  406MOL0     H53557   2.254   4.185   6.733  2.5710  2.0954 -1.5570
  406MOL0     H53558   2.585   4.031   6.438  1.4757 -2.2622  5.7162
  406MOL0     H53559   2.652   4.161   6.528  0.9964 -1.8935 -1.2766
  406MOL0     H53560   2.424   4.221   6.338 -0.0084 -1.1180 -0.4423
  406MOL0     H53561   2.586   4.200   6.261  2.8666  3.1963 -0.1087
  406MOL0     H53562   2.643   4.394   6.303  0.7521  4.3568  2.0240
  406MOL0     H53563   2.651   4.364   6.474  1.7322 -0.5950 -1.4214
  406MOL0     H53564   2.403   4.469   6.327 -2.5480 -0.9212  1.3231
  406MOL0     H53565   2.420   4.431   6.504  0.6645 -1.2179 -0.1331
  406MOL0     H53566   2.538   4.643   6.321 -1.3137  1.1852 -1.1129
  406MOL0     H53567   2.615   4.606   6.476 -0.9444 -0.1484  0.8325
  406MOL0     H53568   2.353   4.677   6.558  0.5669 -0.7451 -0.4600
  406MOL0     H53569   2.359   4.751   6.401 -0.4805 -0.1854  1.7355
  406MOL0     H53570   2.576   4.797   6.624  2.4351 -3.8566 -4.6373
  406MOL0     H53571   2.546   4.885   6.466  2.2210  1.7895  1.2455
  406MOL0     H53572   2.347   4.874   6.690  1.8145 -0.0957  0.4287
  406MOL0     H53573   2.320   4.948   6.534  3.4921 -1.2338 -2.5448
  406MOL0     H53574   2.647   3.994   6.684 -2.3576 -1.9175 -1.5317
  406MOL0     H53575   2.653   3.964   6.921 -0.1140  2.8574  1.4579
  406MOL0     H53576   2.693   3.868   7.370 -0.1324 -0.1060 -0.8888
  406MOL0     H53577   2.624   3.798   7.608 -0.1074 -1.1490 -0.5504
  406MOL0     H53578   2.637   2.994   8.917 -0.7309  3.2778 -1.0788
  406MOL0     H53579   2.452   3.028   9.094  0.0922  0.2423 -1.8081
  406MOL0     H53580   2.400   2.813   9.611  1.6963  0.0505  5.0497
  406MOL0     H53581   2.221   2.840   9.786 -0.0704 -1.4942  0.5594
  406MOL0     H53582   1.878   3.092   9.625  0.3168  3.4939  0.5629
  406MOL0     H53583   1.904   3.149   9.802  0.7040 -2.6403  2.1615
  406MOL0     H53584   1.784   2.874   9.758  0.2680 -0.3470 -0.8232
  406MOL0     H53585   1.784   2.973   9.895 -2.4321 -1.1371 -0.1446
  406MOL0     H53586   1.568   2.970   9.752 -0.5426 -0.1142  1.4237
  406MOL0     H53587   1.631   3.091   9.662  0.8007 -3.6453 -0.5434
  406MOL0     H53588   1.583   3.075   9.959  1.4663 -1.3185 -0.6845
  406MOL0     H53589   1.665   3.223   9.899 -1.1417 -0.0502  1.6859
  406MOL0     H53590   1.285   3.313   9.761  1.0501  1.6982 -0.2335
  406MOL0     H53591   2.067   3.171   9.563 -2.5703 -1.1748  0.2616
  406MOL0     H53592   2.267   3.169   9.408 -2.6460 -0.4143 -2.6711
  407MOL0     O53593   7.656   3.287   7.466 -0.5514  0.6627  0.6570
  407MOL0     C53594   7.612   3.295   7.580  0.4715 -0.9408 -0.0082
  407MOL0     O53595   7.670   3.263   7.698 -0.1419 -0.8673 -0.0860
  407MOL0     C53596   7.795   3.207   7.698 -0.6764 -0.8415 -0.6136
  407MOL0     C53597   7.874   3.231   7.823  0.1981  0.4095  0.2678
  407MOL0     C53598   7.987   3.166   7.847 -0.3007 -0.0714  0.3432
  407MOL0     C53599   8.049   3.084   7.745  0.2951  0.2747 -0.3722
  407MOL0     O53600   8.178   3.020   7.760  0.0838 -0.4168  0.0318
  407MOL0     C53601   8.184   2.881   7.718 -0.1301 -1.1115  0.1399
  407MOL0     C53602   8.079   2.791   7.783 -0.2325  0.9508 -0.8404
  407MOL0     C53603   8.063   2.815   7.935  0.4991  0.3810  0.3796
  407MOL0     C53604   7.934   2.746   7.979  0.2251 -0.5534  0.8294
  407MOL0     C53605   7.928   2.769   8.132  0.0005 -1.0973  0.6092
  407MOL0     C53606   7.791   2.731   8.192  0.2207 -1.0994  1.0037
  407MOL0     C53607   7.788   2.578   8.222  0.6922  0.0194 -0.1147
  407MOL0     C53608   7.876   2.542   8.345  0.8799  0.4016  0.0994
  407MOL0     N53609   7.827   2.600   8.474  0.9517  0.3180  0.4094
  407MOL0     C53610   7.702   2.594   8.520  0.2430  0.3881 -0.1431
  407MOL0     C53611   7.709   2.673   8.637 -0.1341 -0.1475  0.8571
  407MOL0     C53612   7.603   2.664   8.742 -1.0106 -0.3595 -0.4384
  407MOL0     C53613   7.459   2.621   8.705 -0.2534 -0.8289  0.5569
  407MOL0     C53614   7.380   2.589   8.836 -0.0337  0.6130  1.4626
  407MOL0     C53615   7.372   2.443   8.877  0.0826  0.1735  0.6272
  407MOL0     O53616   7.247   2.415   8.941  0.2397  0.2708 -0.1911
  407MOL0     C53617   7.249   2.290   9.000 -0.9976 -0.3665  0.7457
  407MOL0     C53618   7.243   2.274   9.140 -0.2882  0.8386 -0.2622
  407MOL0     C53619   7.259   2.148   9.200  0.6521 -0.0556 -1.0421
  407MOL0     C53620   7.285   2.041   9.118  0.1767 -0.2881 -0.0157
  407MOL0     C53621   7.330   1.902   9.183 -0.0904  0.7226 -0.3308
  407MOL0     O53622   7.302   1.888   9.319 -0.0377  0.6842 -1.2350
  407MOL0     C53623   7.326   1.762   9.374  0.7534  0.5959 -0.5482
  407MOL0     C53624   7.206   1.690   9.419 -0.4883 -0.7334 -0.2399
  407MOL0     C53625   7.223   1.555   9.473 -0.2013  0.5961  0.3740
  407MOL0     C53626   7.343   1.489   9.466  0.6280 -0.1925  0.1021
  407MOL0     O53627   7.352   1.363   9.507 -0.6633  0.5066 -0.1101
  407MOL0     C53628   7.319   1.257   9.399  0.1905 -0.6707 -1.0227
  407MOL0     C53629   7.262   1.135   9.460  1.0935  0.0524 -0.1034
  407MOL0     C53630   7.160   1.169   9.578  0.1357 -0.0391  0.0450
  407MOL0     C53631   7.119   1.037   9.641  0.7719  0.4572 -0.3129
  407MOL0     C53632   6.961   1.036   9.658  0.6276 -0.0997 -0.0037
  407MOL0     C53633   6.924   1.105   9.789  0.0729  0.3004  0.5239
  407MOL0     C53634   6.774   1.077   9.809  0.5554 -0.2305 -0.5621
  407MOL0     C53635   6.704   1.151   9.934 -0.2899  0.0516 -0.3204
  407MOL0    Cl53636   6.812   1.167  10.080 -0.1091 -0.1926 -0.3306
  407MOL0     C53637   7.454   1.556   9.411  1.1478 -0.5915 -1.0984
  407MOL0     C53638   7.458   1.692   9.378 -0.0916  0.0289  0.0683
  407MOL0     O53639   7.400   1.816   9.118 -0.2155 -0.1909 -0.4073
  407MOL0     C53640   7.284   2.054   8.983  0.5274 -0.3008 -0.1969
  407MOL0     C53641   7.271   2.175   8.923 -0.3397 -0.4034  0.7897
  407MOL0     N53642   7.827   2.745   8.628  1.0535 -0.4426  0.1738
  407MOL0     N53643   7.888   2.703   8.531  0.1324  0.3729 -0.1197
  407MOL0     C53644   7.978   3.068   7.622  0.3631 -0.2552  0.8356
  407MOL0     C53645   7.855   3.130   7.600 -0.1646 -0.3960 -0.1908
  407MOL0     C53646   7.485   3.372   7.606  1.1897  1.1849 -0.0580
  407MOL0     C53647   7.407   3.374   7.723  0.1850 -0.3275 -0.6530
  407MOL0     C53648   7.286   3.442   7.724  0.5915 -0.7892 -0.3690
  407MOL0     C53649   7.246   3.520   7.622 -0.2861 -0.1995  0.7459
  407MOL0     O53650   7.117   3.579   7.624 -0.7134 -0.1086 -0.2430
  407MOL0     C53651   7.122   3.723   7.587  0.8647  0.9483  0.0649
  407MOL0     C53652   7.059   3.795   7.707  0.0652  0.8202  0.9907
  407MOL0     C53653   7.109   3.944   7.697  0.0933  0.5201 -1.0800
  407MOL0     C53654   7.219   3.991   7.784  0.9187 -0.0051  0.0883
  407MOL0     C53655   7.337   3.908   7.769  0.7348  0.8500 -1.0673
  407MOL0     C53656   7.427   3.825   7.762 -0.0492 -0.7012 -0.7828
  407MOL0     C53657   7.334   3.531   7.510  0.2634 -1.0524  0.3809
  407MOL0     C53658   7.452   3.465   7.511  0.7793  0.0226 -0.4292
  407MOL0     H53659   7.826   3.295   7.896  0.2055  0.7128  0.0059
  407MOL0     H53660   8.032   3.156   7.945 -1.9876 -2.2969  0.9728
  407MOL0     H53661   8.286   2.852   7.742  0.2874  0.3432  0.2647
  407MOL0     H53662   8.163   2.879   7.611 -4.1674 -1.2565  0.7549
  407MOL0     H53663   8.114   2.688   7.773 -1.0695  0.3427  1.6609
  407MOL0     H53664   7.978   2.779   7.742 -0.9494  0.8148  0.8716
  407MOL0     H53665   8.057   2.922   7.956 -2.3992 -0.0996  2.6731
  407MOL0     H53666   8.160   2.780   7.973  1.0482 -0.3878 -1.5903
  407MOL0     H53667   7.846   2.794   7.935 -1.0676 -0.3981  3.4032
  407MOL0     H53668   7.946   2.637   7.969  0.7991 -0.5619  1.5191
  407MOL0     H53669   7.936   2.876   8.150  0.6210 -1.6249  4.2325
  407MOL0     H53670   8.013   2.719   8.180 -0.0540 -2.0400 -0.2367
  407MOL0     H53671   7.711   2.752   8.120  2.3940 -0.6230 -1.4465
  407MOL0     H53672   7.772   2.786   8.285 -1.2984  3.4675 -1.6564
  407MOL0     H53673   7.683   2.546   8.228 -0.3586  2.2298 -3.8323
  407MOL0     H53674   7.817   2.512   8.141 -0.9698 -1.7119  0.6259
  407MOL0     H53675   7.976   2.584   8.330  0.3860  1.5555 -0.0639
  407MOL0     H53676   7.901   2.436   8.356  1.1707  0.1806 -2.2335
  407MOL0     H53677   7.620   2.526   8.501  1.1260  0.3211 -4.9939
  407MOL0     H53678   7.591   2.762   8.788 -2.2290  0.7445 -2.9052
  407MOL0     H53679   7.647   2.596   8.815 -2.6539 -0.2218  0.7214
  407MOL0     H53680   7.451   2.542   8.630 -2.7857  1.4464 -1.8014
  407MOL0     H53681   7.410   2.707   8.658  0.1343 -0.4090  0.9019
  407MOL0     H53682   7.416   2.647   8.922 -1.6041  2.8007  0.7205
  407MOL0     H53683   7.277   2.617   8.811  0.7406  1.9383 -0.4156
  407MOL0     H53684   7.449   2.420   8.950  3.3996  0.7276 -2.4100
  407MOL0     H53685   7.383   2.377   8.790  2.6176  1.0525  0.1916
  407MOL0     H53686   7.207   2.359   9.198 -4.5476 -1.8553  1.5612
  407MOL0     H53687   7.233   2.139   9.304 -0.7930 -0.9990 -1.4603
  407MOL0     H53688   7.109   1.739   9.419  0.1899  0.6850  0.8202
  407MOL0     H53689   7.147   1.491   9.517  0.1071  0.8042  1.2245
  407MOL0     H53690   7.414   1.232   9.351  1.6901 -1.0888  1.9510
  407MOL0     H53691   7.245   1.288   9.325  0.5678  0.3420 -0.9932
  407MOL0     H53692   7.350   1.093   9.510  0.4547 -1.2587 -0.0284
  407MOL0     H53693   7.213   1.078   9.381  1.0196 -0.6228  0.4178
  407MOL0     H53694   7.077   1.226   9.535 -0.1989 -0.8286 -0.3606
  407MOL0     H53695   7.213   1.237   9.646  1.2931 -1.0410  0.1857
  407MOL0     H53696   7.147   0.957   9.571 -1.9968  0.8647 -2.0593
  407MOL0     H53697   7.169   1.016   9.735  2.4699 -0.4167 -1.3669
  407MOL0     H53698   6.918   0.936   9.665 -0.5024  0.5057  3.6492
  407MOL0     H53699   6.907   1.078   9.573  1.3139 -1.1332 -0.9916
  407MOL0     H53700   6.951   1.211   9.785 -1.0801  0.5545 -2.5705
  407MOL0     H53701   6.988   1.045   9.855  2.0644  0.4019 -1.2051
  407MOL0     H53702   6.724   1.103   9.716 -2.9613 -1.2379  0.8607
  407MOL0     H53703   6.744   0.973   9.828  1.5345 -0.3078  0.7036
  407MOL0     H53704   6.607   1.111   9.962  0.1781 -0.8222  0.1113
  407MOL0     H53705   6.687   1.253   9.899 -0.0364  0.9367  2.0102
  407MOL0     H53706   7.540   1.494   9.388  2.0157  0.5037 -0.8589
  407MOL0     H53707   7.547   1.744   9.343 -1.3610  1.6478 -0.9397
  407MOL0     H53708   7.283   1.965   8.921 -1.5851 -2.0452  2.1262
  407MOL0     H53709   7.271   2.184   8.815  0.5606  2.8286  0.9619
  407MOL0     H53710   8.018   3.015   7.537 -2.1330 -0.1947 -0.4627
  407MOL0     H53711   7.806   3.109   7.505 -3.2911  0.8547  1.0116
  407MOL0     H53712   7.446   3.314   7.804  1.4337  0.7857 -0.3747
  407MOL0     H53713   7.218   3.448   7.808 -0.0105 -2.3198 -0.7144
  407MOL0     H53714   7.058   3.742   7.500  1.4034 -2.0332 -1.1091
  407MOL0     H53715   7.217   3.768   7.558  0.2441  0.5266 -2.9311
  407MOL0     H53716   6.950   3.792   7.701 -0.0449  2.5673  1.4504
  407MOL0     H53717   7.092   3.744   7.798  1.3916 -1.5235 -0.7086
  407MOL0     H53718   7.033   4.010   7.741 -0.9473  0.3794 -2.6002
  407MOL0     H53719   7.127   3.968   7.592  4.0122 -1.6834 -1.1033
  407MOL0     H53720   7.247   4.095   7.764 -2.3330  0.7489 -1.2226
  407MOL0     H53721   7.188   3.984   7.889  2.9229 -0.1429  0.7159
  407MOL0     H53722   7.511   3.759   7.755  0.3934 -0.1997 -0.2268
  407MOL0     H53723   7.322   3.604   7.431 -1.7047 -0.7037  0.9625
  407MOL0     H53724   7.509   3.468   7.419  1.1249 -2.9513 -0.4303
  408MOL0     O53725   7.978  10.585  11.125 -0.2273 -0.2944 -0.0910
  408MOL0     C53726   8.086  10.558  11.184  0.2967  0.1393 -0.2074
  408MOL0     O53727   8.089  10.499  11.304 -0.6774 -0.0046 -0.1987
  408MOL0     C53728   7.968  10.489  11.369 -0.3114 -0.0548  0.2161
  408MOL0     C53729   7.940  10.571  11.479  0.5940  0.0878  0.4637
  408MOL0     C53730   7.812  10.571  11.534 -0.2889  0.2865  0.3044
  408MOL0     C53731   7.709  10.489  11.489  0.3275 -0.7500 -0.1287
  408MOL0     O53732   7.592  10.501  11.555 -0.2376  0.5679 -0.0599
  408MOL0     C53733   7.587  10.461  11.697 -0.1822  0.2598 -0.1053
  408MOL0     C53734   7.496  10.538  11.790  0.1802  0.5431  0.2026
  408MOL0     C53735   7.497  10.690  11.747  0.6769 -0.8083  0.4940
  408MOL0     C53736   7.429  10.779  11.845  0.1868  0.5757  0.0058
  408MOL0     C53737   7.283  10.731  11.879 -0.0783 -0.7159  0.4520
  408MOL0     C53738   7.233  10.826  11.989  0.2402  0.1994  0.1848
  408MOL0     C53739   7.186  10.945  11.933 -0.2994 -0.2781 -0.1215
  408MOL0     C53740   7.059  10.919  11.848  0.5922  0.5643  0.0000
  408MOL0     N53741   7.005  11.049  11.822  0.3809 -1.0643 -0.5178
  408MOL0     C53742   6.898  11.106  11.892 -0.0837  0.5354 -1.0168
  408MOL0     C53743   6.881  11.225  11.827  0.4770 -0.0053 -0.5860
  408MOL0     C53744   6.759  11.318  11.864 -0.1699  0.0646 -0.3272
  408MOL0     C53745   6.637  11.277  11.775  0.1199  0.4258  0.2907
  408MOL0     C53746   6.527  11.372  11.789  0.9210 -0.0934  0.1917
  408MOL0     C53747   6.392  11.347  11.721  0.5089  0.2681 -0.8426
  408MOL0     O53748   6.332  11.214  11.738  0.7596 -0.2545  0.0273
  408MOL0     C53749   6.257  11.192  11.854  0.3311  0.2004  0.9211
  408MOL0     C53750   6.184  11.290  11.925 -1.0498  0.8862 -0.2552
  408MOL0     C53751   6.116  11.253  12.047 -0.0330 -0.1887 -0.6327
  408MOL0     C53752   6.108  11.116  12.084  0.9098  0.3741 -0.5797
  408MOL0     C53753   6.013  11.075  12.195  0.4451 -0.5965 -0.3554
  408MOL0     O53754   5.980  10.945  12.185  0.1227 -0.0354 -0.8903
  408MOL0     C53755   5.915  10.887  12.291 -0.3918 -0.5939 -0.1099
  408MOL0     C53756   5.801  10.942  12.340 -0.1487  0.2328 -1.3018
  408MOL0     C53757   5.722  10.882  12.441 -0.4219 -0.4912 -0.3445
  408MOL0     C53758   5.757  10.754  12.488 -0.7761 -0.2103  0.8154
  408MOL0     O53759   5.676  10.674  12.571  0.7437  0.5241  0.0023
  408MOL0     C53760   5.621  10.743  12.683  1.8385  0.0733  0.5306
  408MOL0     C53761   5.532  10.659  12.779  0.4672 -0.1205 -0.5759
  408MOL0     C53762   5.385  10.688  12.770  0.3410  0.0573 -0.7264
  408MOL0     C53763   5.310  10.619  12.882 -0.9709 -0.4870  0.1401
  408MOL0     C53764   5.160  10.650  12.861 -0.2579  0.3685  0.5223
  408MOL0     C53765   5.078  10.576  12.962 -0.5255  0.8862  1.1163
  408MOL0     C53766   4.934  10.620  12.968 -0.0119 -0.0958  0.7343
  408MOL0     C53767   4.861  10.571  13.084  0.1642 -0.3117  0.4416
  408MOL0    Cl53768   4.797  10.414  13.057  0.2613  0.1197 -0.2277
  408MOL0     C53769   5.876  10.693  12.437  0.7851  0.6612 -0.0040
  408MOL0     C53770   5.951  10.762  12.334  0.6470 -0.0474  0.0168
  408MOL0     O53771   5.978  11.154  12.283 -0.5068  0.5185 -0.2380
  408MOL0     C53772   6.188  11.022  12.015 -0.7697 -0.1897  0.3995
  408MOL0     C53773   6.261  11.057  11.899  0.9695 -1.4677 -0.8150
  408MOL0     N53774   6.981  11.247  11.737 -0.3544 -0.1632  0.1873
  408MOL0     N53775   7.063  11.143  11.741 -0.3110  0.8795 -0.0460
  408MOL0     C53776   7.748  10.394  11.394  0.0981 -0.0445 -0.1529
  408MOL0     C53777   7.873  10.396  11.324 -0.2633 -0.1645  0.0827
  408MOL0     C53778   8.216  10.584  11.114  0.2138  0.0135  0.1649
  408MOL0     C53779   8.339  10.571  11.179 -0.5118 -0.2569  0.8411
  408MOL0     C53780   8.458  10.592  11.103 -0.5999 -0.5253 -0.4133
  408MOL0     C53781   8.462  10.636  10.967  1.0143 -0.4834  0.3556
  408MOL0     O53782   8.589  10.641  10.906 -0.1682 -0.1190  0.2538
  408MOL0     C53783   8.597  10.664  10.761  0.6342 -0.0837 -0.0628
  408MOL0     C53784   8.740  10.711  10.716 -0.7695 -0.3579 -0.7240
  408MOL0     C53785   8.828  10.587  10.695 -0.0427  0.5579  0.1373
  408MOL0     C53786   8.893  10.558  10.824 -0.4317 -0.6839 -0.8012
  408MOL0     C53787   8.993  10.461  10.812 -1.1832  0.9001 -0.0499
  408MOL0     C53788   9.079  10.375  10.796  1.0717 -0.7335  1.1305
  408MOL0     C53789   8.341  10.660  10.904  0.2739 -0.3553  0.6794
  408MOL0     C53790   8.217  10.635  10.975  0.4187  0.1504 -0.0652
  408MOL0     H53791   8.016  10.639  11.515  0.7202  1.2130 -1.7735
  408MOL0     H53792   7.794  10.638  11.617  2.8077  0.8920  0.5937
  408MOL0     H53793   7.689  10.481  11.733 -0.3259  1.9061 -0.4942
  408MOL0     H53794   7.571  10.354  11.707  2.0532 -0.3242 -1.9440
  408MOL0     H53795   7.517  10.534  11.897 -3.4226  0.6289  1.0220
  408MOL0     H53796   7.395  10.498  11.781  0.1205  0.8382 -0.4950
  408MOL0     H53797   7.459  10.708  11.646  2.7346 -1.5647 -0.4777
  408MOL0     H53798   7.601  10.723  11.755  0.5768 -0.2373 -0.4046
  408MOL0     H53799   7.482  10.770  11.941 -1.4322 -1.0317  0.8144
  408MOL0     H53800   7.428  10.881  11.805  1.1311  1.7689  2.7569
  408MOL0     H53801   7.271  10.627  11.910 -0.6093 -0.1165  2.3851
  408MOL0     H53802   7.225  10.726  11.786 -2.5527 -0.7350  1.9136
  408MOL0     H53803   7.305  10.858  12.065  0.4116 -0.5675  0.3510
  408MOL0     H53804   7.150  10.783  12.046  2.1761 -1.2238  2.0861
  408MOL0     H53805   7.153  10.998  12.023 -1.1109 -0.5758 -0.2355
  408MOL0     H53806   7.270  10.995  11.885 -0.4703  1.0224  0.8875
  408MOL0     H53807   6.985  10.845  11.879  1.3336 -0.8474 -1.4792
  408MOL0     H53808   7.091  10.888  11.748  3.5766  0.4768  0.8652
  408MOL0     H53809   6.844  11.062  11.975  0.9254  0.7109 -0.2512
  408MOL0     H53810   6.788  11.424  11.863 -0.3281  0.1041 -1.0097
  408MOL0     H53811   6.729  11.298  11.968  0.8813 -1.9370 -0.3758
  408MOL0     H53812   6.600  11.183  11.818  2.8942 -2.3239 -2.7554
  408MOL0     H53813   6.656  11.259  11.669 -1.1868 -0.4059  0.1703
  408MOL0     H53814   6.508  11.386  11.896  1.3574  0.0328  0.2552
  408MOL0     H53815   6.566  11.466  11.749  0.1281 -0.3163 -1.1696
  408MOL0     H53816   6.404  11.349  11.612  3.4326 -1.3242 -0.6543
  408MOL0     H53817   6.325  11.429  11.745  3.6155  2.5697  0.6075
  408MOL0     H53818   6.167  11.390  11.885 -1.7579  2.6062  3.8217
  408MOL0     H53819   6.050  11.322  12.098  0.9833 -0.8700  1.7079
  408MOL0     H53820   5.760  11.032  12.295 -1.4456 -0.0786 -0.7771
  408MOL0     H53821   5.640  10.931  12.492  0.1466 -0.3427  0.4365
  408MOL0     H53822   5.561  10.828  12.650  0.4096 -0.4337  1.6791
  408MOL0     H53823   5.704  10.782  12.742  1.8637  2.3195 -0.8914
  408MOL0     H53824   5.571  10.680  12.879  1.1980  1.9277 -1.2211
  408MOL0     H53825   5.544  10.555  12.747 -0.6989 -0.6747  0.6935
  408MOL0     H53826   5.353  10.663  12.669 -1.8061 -3.5082  0.6271
  408MOL0     H53827   5.379  10.795  12.790  1.4148 -0.5138  3.9211
  408MOL0     H53828   5.331  10.513  12.866  0.8179  0.2177 -2.9361
  408MOL0     H53829   5.345  10.650  12.981 -1.3367  0.3403  0.0167
  408MOL0     H53830   5.115  10.637  12.762 -1.5295  1.6199  0.9130
  408MOL0     H53831   5.156  10.759  12.871 -0.5396  0.4697 -0.5923
  408MOL0     H53832   5.113  10.592  13.064  0.2735 -2.1154  1.3977
  408MOL0     H53833   5.072  10.469  12.942 -3.2049  1.2297 -0.5017
  408MOL0     H53834   4.932  10.729  12.977  0.2776  0.1167 -1.3153
  408MOL0     H53835   4.878  10.585  12.881  0.7736 -2.0123  0.9673
  408MOL0     H53836   4.779  10.635  13.117 -3.0329 -4.5305  1.6171
  408MOL0     H53837   4.925  10.589  13.171 -1.4801  2.6366  1.1737
  408MOL0     H53838   5.882  10.588  12.464 -1.6771 -0.3208 -2.6871
  408MOL0     H53839   6.045  10.721  12.300  1.9115  0.8587  2.1723
  408MOL0     H53840   6.187  10.918  12.045  0.8460 -0.4645 -0.4144
  408MOL0     H53841   6.333  10.990  11.853  1.5836 -1.3782 -0.0088
  408MOL0     H53842   7.672  10.327  11.354 -1.3063 -0.4134  2.7933
  408MOL0     H53843   7.890  10.325  11.244 -0.7994  1.2528 -1.3393
  408MOL0     H53844   8.341  10.542  11.283 -2.3407  0.5805  1.1633
  408MOL0     H53845   8.553  10.562  11.147  1.0449 -1.0231 -3.9168
  408MOL0     H53846   8.525  10.744  10.738  2.2235  1.5184  0.3442
  408MOL0     H53847   8.574  10.576  10.700  1.8439  0.3549 -1.1929
  408MOL0     H53848   8.725  10.761  10.620  0.2690  3.2616  0.8396
  408MOL0     H53849   8.790  10.778  10.785  0.7975 -1.4180 -0.7721
  408MOL0     H53850   8.893  10.610  10.609 -1.6171 -0.0660 -1.2863
  408MOL0     H53851   8.770  10.500  10.661  0.8053  1.1196 -3.0743
  408MOL0     H53852   8.939  10.648  10.864 -0.5466  0.5527 -3.2287
  408MOL0     H53853   8.818  10.536  10.900  0.9107 -0.2130  0.6916
  408MOL0     H53854   9.152  10.297  10.797  0.2886 -1.4826  0.8501
  408MOL0     H53855   8.330  10.711  10.809 -0.8778 -1.1082  0.3728
  408MOL0     H53856   8.129  10.653  10.914 -0.0693 -3.1856 -0.5272
  409MOL0     O53857   0.411   9.804   2.712 -0.1241 -0.0180  0.1408
  409MOL0     C53858   0.349   9.822   2.818 -0.6463  0.2104  0.5516
  409MOL0     O53859   0.325   9.949   2.861  0.2682 -0.5289  0.0132
  409MOL0     C53860   0.391  10.054   2.805  0.2425  0.8544  0.5974
  409MOL0     C53861   0.514  10.093   2.845  0.4903 -0.1204 -0.5019
  409MOL0     C53862   0.575  10.197   2.775 -0.3546 -0.1219  0.6449
  409MOL0     C53863   0.514  10.253   2.653  0.6051  1.9541 -0.0809
  409MOL0     O53864   0.577  10.343   2.573 -0.1814  1.0076  0.3440
  409MOL0     C53865   0.714  10.348   2.552  1.2886 -0.3702 -0.4084
  409MOL0     C53866   0.768  10.457   2.640  1.0071 -0.4107  0.0633
  409MOL0     C53867   0.919  10.445   2.645 -0.3395  0.2612 -0.6615
  409MOL0     C53868   0.989  10.574   2.678  0.4294  0.0850 -0.6634
  409MOL0     C53869   1.142  10.572   2.675  0.4798  0.1822  0.3860
  409MOL0     C53870   1.197  10.602   2.816  0.1533 -0.4858  0.4703
  409MOL0     C53871   1.191  10.751   2.854  0.6464  0.1417 -0.6492
  409MOL0     C53872   1.241  10.857   2.754 -0.6975  0.4235 -0.0117
  409MOL0     N53873   1.382  10.817   2.727 -0.5514 -0.1478 -0.0056
  409MOL0     C53874   1.492  10.828   2.808  0.9584  0.0500 -0.6471
  409MOL0     C53875   1.598  10.772   2.743  0.2224 -0.4275  0.1057
  409MOL0     C53876   1.737  10.766   2.799 -0.5574  0.5080  0.2759
  409MOL0     C53877   1.815  10.878   2.742  0.8317 -0.4383  0.4103
  409MOL0     C53878   1.956  10.901   2.807  0.3283  1.1274 -0.0368
  409MOL0     C53879   2.036  10.770   2.799 -0.3359  0.0894  0.4564
  409MOL0     O53880   2.018  10.692   2.919 -0.7045 -0.2079 -0.8187
  409MOL0     C53881   2.137  10.630   2.951 -0.2085  0.1837 -1.1727
  409MOL0     C53882   2.148  10.493   2.922 -0.1874  0.3136  0.3046
  409MOL0     C53883   2.265  10.423   2.948 -0.7034 -0.4527 -0.5953
  409MOL0     C53884   2.376  10.495   3.018 -0.4341  0.1412  0.7372
  409MOL0     C53885   2.501  10.423   3.037 -0.2677 -0.9838 -0.9409
  409MOL0     O53886   2.523  10.308   2.984  0.3081  0.0654  0.2067
  409MOL0     C53887   2.643  10.241   2.990 -0.1749  0.3440 -0.8657
  409MOL0     C53888   2.661  10.127   3.073  0.5660 -0.0970  0.2296
  409MOL0     C53889   2.791  10.058   3.066  0.2304  0.5331 -0.2720
  409MOL0     C53890   2.884  10.093   2.965  0.2671  0.2134 -0.3956
  409MOL0     O53891   2.990  10.010   2.950 -0.5252 -0.2356 -0.9135
  409MOL0     C53892   3.088   9.995   3.061 -0.1680 -0.2990  0.6456
  409MOL0     C53893   3.216   9.917   3.015 -0.9427  0.4055  0.4858
  409MOL0     C53894   3.333   9.958   3.099  0.6184  0.0073 -0.3900
  409MOL0     C53895   3.445   9.842   3.104  0.2784  0.1041  0.2693
  409MOL0     C53896   3.542   9.868   3.222 -0.1567  0.8210 -1.0932
  409MOL0     C53897   3.590  10.019   3.244 -0.4873 -0.1584 -0.5194
  409MOL0     C53898   3.696  10.067   3.141 -0.9774  0.5422 -0.9082
  409MOL0     C53899   3.737  10.213   3.177  0.1384 -0.0506  0.2486
  409MOL0    Cl53900   3.872  10.264   3.078 -0.5530  0.0239  0.2679
  409MOL0     C53901   2.857  10.204   2.878  0.1454 -0.7586  0.1803
  409MOL0     C53902   2.746  10.288   2.900 -0.2477  0.5369 -0.5507
  409MOL0     O53903   2.580  10.486   3.103 -0.4386 -1.0938 -0.2950
  409MOL0     C53904   2.362  10.631   3.042 -0.1279 -0.0230  0.0436
  409MOL0     C53905   2.243  10.696   3.008 -0.1559 -0.0275  0.9258
  409MOL0     N53906   1.553  10.734   2.615  0.3904 -0.4615  0.3502
  409MOL0     N53907   1.424  10.766   2.605 -0.4236 -1.0845  0.4754
  409MOL0     C53908   0.386  10.209   2.618  0.1071 -0.7107  1.4963
  409MOL0     C53909   0.321  10.104   2.694 -0.2279  0.0303  0.0159
  409MOL0     C53910   0.302   9.704   2.897 -0.4538 -0.0076 -0.4226
  409MOL0     C53911   0.211   9.714   3.004  0.0403 -0.0464  0.4189
  409MOL0     C53912   0.190   9.595   3.081  0.3069  0.0215  0.1201
  409MOL0     C53913   0.242   9.469   3.054  0.6956  0.1322  0.0949
  409MOL0     O53914   0.207   9.356   3.124  0.9598  0.9879 -0.6644
  409MOL0     C53915   0.200   9.367   3.268 -0.2837 -0.5630  0.0592
  409MOL0     C53916   0.331   9.395   3.346 -0.2789 -0.1944 -0.0246
  409MOL0     C53917   0.346   9.545   3.352  0.3669 -0.9096 -0.4991
  409MOL0     C53918   0.443   9.600   3.464  0.0305  0.1446 -0.0657
  409MOL0     C53919   0.448   9.522   3.594 -0.5796 -0.5053 -0.2987
  409MOL0     C53920   0.450   9.474   3.707 -0.1024 -0.4032  0.7383
  409MOL0     C53921   0.330   9.471   2.945 -0.5527  0.0794  0.5591
  409MOL0     C53922   0.365   9.580   2.870 -1.4092  0.4829 -0.4759
  409MOL0     H53923   0.558  10.055   2.936  0.2828  0.8831  0.0306
  409MOL0     H53924   0.660  10.252   2.813 -0.4880  2.6459 -2.5472
  409MOL0     H53925   0.732  10.354   2.445  0.7055  0.5372 -0.4682
  409MOL0     H53926   0.754  10.250   2.582  1.2729  0.2684  1.9431
  409MOL0     H53927   0.722  10.449   2.739  0.7080 -0.0350 -0.0383
  409MOL0     H53928   0.745  10.555   2.596  0.2447 -0.4666  0.3139
  409MOL0     H53929   0.956  10.406   2.550  0.1911 -0.0368 -0.3373
  409MOL0     H53930   0.954  10.375   2.722  0.6566 -1.0557 -2.2360
  409MOL0     H53931   0.949  10.643   2.602 -1.8647  0.4913  0.8060
  409MOL0     H53932   0.949  10.614   2.771  1.3965  0.8634 -0.5596
  409MOL0     H53933   1.176  10.650   2.606  4.2468  0.0810  1.8637
  409MOL0     H53934   1.176  10.478   2.630  0.7296  0.7085 -0.5608
  409MOL0     H53935   1.295  10.556   2.830 -1.1362 -2.9755  2.1002
  409MOL0     H53936   1.136  10.544   2.887 -0.3134 -1.0895 -0.3989
  409MOL0     H53937   1.087  10.769   2.884  0.9447 -1.3826  1.5346
  409MOL0     H53938   1.253  10.766   2.943  3.1033  0.3938 -2.3223
  409MOL0     H53939   1.232  10.952   2.807 -0.4195  2.9324 -4.0978
  409MOL0     H53940   1.190  10.871   2.659 -0.0904  0.7097 -0.3016
  409MOL0     H53941   1.484  10.869   2.908  1.3766  0.4811 -0.7870
  409MOL0     H53942   1.791  10.675   2.772  2.8899  2.0421  1.4517
  409MOL0     H53943   1.733  10.773   2.908  0.5085 -5.3743  1.0086
  409MOL0     H53944   1.770  10.977   2.755  2.8340  0.4372  1.0715
  409MOL0     H53945   1.832  10.858   2.636  1.4847 -1.0863  0.6347
  409MOL0     H53946   2.003  10.986   2.757  0.9965  0.4992 -0.5060
  409MOL0     H53947   1.965  10.930   2.912  0.5605 -2.2036  0.9949
  409MOL0     H53948   2.138  10.809   2.790 -0.8550  1.5084  0.3720
  409MOL0     H53949   1.996  10.705   2.721  0.6901  0.3858 -0.3399
  409MOL0     H53950   2.065  10.437   2.881 -0.8672  0.0785  1.9351
  409MOL0     H53951   2.282  10.326   2.904 -0.5037 -1.2618  1.1538
  409MOL0     H53952   2.582  10.078   3.130  0.3115  0.1471  0.0899
  409MOL0     H53953   2.790   9.966   3.123 -3.1910 -1.0289 -2.5499
  409MOL0     H53954   3.039   9.935   3.138 -0.2804 -2.7580 -1.2223
  409MOL0     H53955   3.109  10.092   3.106  2.2174 -1.3774  2.0638
  409MOL0     H53956   3.252   9.929   2.913 -0.8402 -0.7294  0.3724
  409MOL0     H53957   3.209   9.809   3.031  0.1211  0.5156  1.9652
  409MOL0     H53958   3.290   9.968   3.200 -0.5773  1.9128 -1.0327
  409MOL0     H53959   3.363  10.055   3.059  0.9672  0.6504  1.3364
  409MOL0     H53960   3.384   9.754   3.128  1.5484 -0.0231  3.5016
  409MOL0     H53961   3.513   9.846   3.019 -0.9502 -2.9125 -1.0110
  409MOL0     H53962   3.629   9.802   3.215  1.1546  2.3619 -0.1206
  409MOL0     H53963   3.485   9.853   3.314  1.3927  2.2482  0.1891
  409MOL0     H53964   3.612  10.045   3.348  0.1133 -0.5143 -0.5537
  409MOL0     H53965   3.505  10.086   3.224 -1.3444 -1.5848 -1.8874
  409MOL0     H53966   3.790  10.013   3.147  0.2625  2.4252 -2.3343
  409MOL0     H53967   3.666  10.067   3.036  1.0188 -0.6911 -1.5162
  409MOL0     H53968   3.768  10.222   3.281 -1.5703  1.6034  0.6776
  409MOL0     H53969   3.644  10.268   3.161  0.8333  0.9096 -0.6630
  409MOL0     H53970   2.925  10.225   2.796  2.5978  0.4036  2.3650
  409MOL0     H53971   2.739  10.364   2.823  1.7908  2.5598  1.1278
  409MOL0     H53972   2.446  10.688   3.080 -2.3920  1.9891  2.4571
  409MOL0     H53973   2.233  10.803   3.024 -2.4653  0.3684 -2.3537
  409MOL0     H53974   0.351  10.251   2.524  3.0855 -0.4753  0.3580
  409MOL0     H53975   0.218  10.076   2.675 -0.2702  0.4757 -0.4169
  409MOL0     H53976   0.156   9.805   3.020 -0.2964 -0.1062 -0.3658
  409MOL0     H53977   0.113   9.606   3.157  0.8286 -1.5829  0.9487
  409MOL0     H53978   0.161   9.278   3.317  1.8382 -3.2543 -2.7599
  409MOL0     H53979   0.120   9.439   3.289  0.2966 -0.0629  0.6140
  409MOL0     H53980   0.325   9.339   3.441 -1.6562  0.3128  0.2114
  409MOL0     H53981   0.413   9.361   3.283 -0.2204 -1.0510  0.4954
  409MOL0     H53982   0.247   9.588   3.371  1.3420  1.0014  0.6474
  409MOL0     H53983   0.378   9.591   3.258 -0.3779  0.3255 -0.1746
  409MOL0     H53984   0.544   9.605   3.425  0.0658  3.0342  0.1784
  409MOL0     H53985   0.415   9.703   3.490  2.8289  0.9956 -0.1536
  409MOL0     H53986   0.452   9.435   3.806  0.2123 -2.8954 -0.1917
  409MOL0     H53987   0.384   9.381   2.916 -0.9185 -0.1064  0.4431
  409MOL0     H53988   0.434   9.559   2.788  0.3198 -1.7031  1.4163
  410MOL0     O53989   7.647   1.605   4.386 -0.1072  0.4239  0.1775
  410MOL0     C53990   7.639   1.530   4.282  0.1681 -0.0624  0.4192
  410MOL0     O53991   7.585   1.407   4.278  0.7301  0.1157  0.1903
  410MOL0     C53992   7.556   1.352   4.396 -0.8515 -0.2807  0.1698
  410MOL0     C53993   7.434   1.362   4.439 -0.5539 -0.0780  0.2843
  410MOL0     C53994   7.389   1.298   4.560 -0.1715  0.6813 -0.4040
  410MOL0     C53995   7.481   1.220   4.645 -0.7317  0.1789 -0.1424
  410MOL0     O53996   7.428   1.149   4.754 -0.7314 -0.5084  0.7323
  410MOL0     C53997   7.499   1.164   4.879 -0.1660 -0.5998 -0.1363
  410MOL0     C53998   7.464   1.044   4.967 -0.4365  0.3898  0.4214
  410MOL0     C53999   7.330   1.062   5.030 -0.1287  0.6229 -0.3459
  410MOL0     C54000   7.288   0.958   5.135 -0.5428 -1.2295  0.1923
  410MOL0     C54001   7.148   0.969   5.184 -0.6267  0.0545  0.0373
  410MOL0     C54002   7.050   0.887   5.100 -0.9582  0.0005  0.3037
  410MOL0     C54003   6.908   0.888   5.158 -0.4236 -0.4015  0.5749
  410MOL0     C54004   6.806   0.793   5.106 -0.4354 -1.0054 -0.1848
  410MOL0     N54005   6.814   0.792   4.959 -0.9981  0.1841 -0.3445
  410MOL0     C54006   6.769   0.888   4.880  0.5275 -1.0405  0.3667
  410MOL0     C54007   6.778   0.842   4.756 -1.1671 -1.3364  0.3812
  410MOL0     C54008   6.730   0.925   4.633  0.3671  0.1490  0.3186
  410MOL0     C54009   6.822   0.927   4.499  0.5870 -0.2543  0.2492
  410MOL0     C54010   6.972   0.954   4.529  0.3776  0.3292 -0.4631
  410MOL0     C54011   6.991   1.081   4.608 -0.5508 -0.7412 -0.0210
  410MOL0     O54012   6.884   1.172   4.571  0.2321  0.5796  0.0648
  410MOL0     C54013   6.904   1.279   4.494  0.5024  0.0455 -0.1120
  410MOL0     C54014   6.805   1.374   4.493 -0.2929 -0.5108 -0.7841
  410MOL0     C54015   6.813   1.492   4.413 -0.3898  0.1465  0.0798
  410MOL0     C54016   6.929   1.519   4.338 -0.7090 -0.0311 -0.3002
  410MOL0     C54017   6.931   1.649   4.252  1.0221  0.9778 -0.3481
  410MOL0     O54018   7.057   1.683   4.208 -0.0423  0.4191  0.0710
  410MOL0     C54019   7.079   1.779   4.116  0.4020  0.8458 -0.1296
  410MOL0     C54020   7.209   1.810   4.089 -0.3160 -0.3097 -0.6274
  410MOL0     C54021   7.243   1.908   3.985  0.4644  0.2719 -0.4753
  410MOL0     C54022   7.141   1.981   3.930 -0.2693  0.3266 -0.3786
  410MOL0     O54023   7.183   2.077   3.841 -0.2231  0.0968 -0.3136
  410MOL0     C54024   7.112   2.197   3.826 -1.2524 -1.3374  0.5205
  410MOL0     C54025   7.024   2.190   3.694  0.2196 -0.0817  0.2860
  410MOL0     C54026   6.919   2.300   3.675  0.5110  0.9590 -0.9060
  410MOL0     C54027   6.825   2.272   3.552  0.7285  0.5328  0.0002
  410MOL0     C54028   6.728   2.378   3.530  0.2212 -0.0955 -0.5831
  410MOL0     C54029   6.651   2.357   3.405  0.4376 -0.0393 -0.1812
  410MOL0     C54030   6.527   2.447   3.379 -0.2141  0.8773 -0.1218
  410MOL0     C54031   6.443   2.406   3.252 -0.2472 -0.4335  0.0130
  410MOL0    Cl54032   6.528   2.487   3.113 -0.0724  0.2881 -0.3923
  410MOL0     C54033   7.005   1.954   3.951 -0.1040  0.4587 -0.0610
  410MOL0     C54034   6.981   1.840   4.032  0.0639  0.1017  0.2453
  410MOL0     O54035   6.827   1.712   4.235  0.0034 -0.3470 -0.4942
  410MOL0     C54036   7.037   1.424   4.349  0.1604 -1.0409  0.5855
  410MOL0     C54037   7.021   1.305   4.416 -0.7163 -0.3022 -0.0552
  410MOL0     N54038   6.836   0.718   4.768  0.1699  0.1129  0.2788
  410MOL0     N54039   6.857   0.687   4.887  0.8390  0.0021  0.1765
  410MOL0     C54040   7.609   1.205   4.589  0.0157  0.2270  0.5517
  410MOL0     C54041   7.646   1.272   4.473 -0.2990  0.4165  0.8591
  410MOL0     C54042   7.631   1.602   4.147  0.5007  0.8088 -0.8318
  410MOL0     C54043   7.658   1.742   4.141  0.3224  0.3262 -0.7088
  410MOL0     C54044   7.674   1.810   4.019  0.6550  0.5595 -0.2156
  410MOL0     C54045   7.664   1.739   3.902  0.1042  0.3518 -0.0196
  410MOL0     O54046   7.686   1.801   3.785  0.7814  0.1349 -0.4576
  410MOL0     C54047   7.606   1.766   3.669  1.3035  0.8702  0.4768
  410MOL0     C54048   7.626   1.883   3.568  1.1115  0.0554 -1.4250
  410MOL0     C54049   7.572   2.015   3.626  0.1200  0.1273  0.3168
  410MOL0     C54050   7.700   2.084   3.680 -0.2545 -0.2080  0.3023
  410MOL0     C54051   7.650   2.207   3.732  0.3816 -0.1705  0.4366
  410MOL0     C54052   7.605   2.322   3.754 -0.6069  1.1614 -0.3938
  410MOL0     C54053   7.631   1.606   3.907  0.0666 -0.3358 -0.5756
  410MOL0     C54054   7.622   1.539   4.030  0.3206  1.2800  0.2386
  410MOL0     H54055   7.365   1.421   4.381 -0.7876 -1.3561 -0.7822
  410MOL0     H54056   7.283   1.290   4.582 -0.7043  0.1204 -2.8729
  410MOL0     H54057   7.468   1.259   4.923  1.6506 -0.7475  1.5692
  410MOL0     H54058   7.608   1.162   4.867 -0.2289  2.2286 -2.3294
  410MOL0     H54059   7.539   1.028   5.045 -0.6645  3.2356  1.3215
  410MOL0     H54060   7.464   0.957   4.900 -2.5991  0.9766 -0.4159
  410MOL0     H54061   7.271   1.054   4.938 -0.5687  1.8491 -0.1960
  410MOL0     H54062   7.322   1.166   5.064 -1.4368  0.0290  1.3408
  410MOL0     H54063   7.304   0.858   5.094  2.1224 -1.4208  1.4716
  410MOL0     H54064   7.359   0.973   5.217 -0.4178  0.9151 -0.2610
  410MOL0     H54065   7.105   1.068   5.202  1.0376  0.7377  0.4694
  410MOL0     H54066   7.168   0.913   5.275  3.6625 -2.8864 -2.3515
  410MOL0     H54067   7.084   0.783   5.095  4.6906  1.4947  0.5532
  410MOL0     H54068   7.050   0.928   4.999 -3.1619  1.3583  0.8010
  410MOL0     H54069   6.929   0.860   5.262 -3.2575 -1.4516  0.9612
  410MOL0     H54070   6.862   0.987   5.146  0.7982  0.1613  0.3881
  410MOL0     H54071   6.704   0.826   5.129 -0.7634 -1.9626 -0.2170
  410MOL0     H54072   6.823   0.687   5.124  1.5214 -1.4618 -3.8517
  410MOL0     H54073   6.725   0.980   4.917  2.3417  0.3495 -0.7858
  410MOL0     H54074   6.715   1.032   4.655  3.1834  0.6328  0.1674
  410MOL0     H54075   6.638   0.880   4.593 -1.0353  4.3916 -1.9931
  410MOL0     H54076   6.777   0.987   4.419  2.9753  0.9005 -0.3038
  410MOL0     H54077   6.814   0.833   4.443  0.6295  0.1920 -0.5124
  410MOL0     H54078   7.011   0.878   4.597  1.7981  1.6739  0.2852
  410MOL0     H54079   7.021   0.956   4.431 -1.1494 -5.2515 -1.6946
  410MOL0     H54080   7.093   1.116   4.589 -1.4430  2.1937  0.0710
  410MOL0     H54081   6.989   1.061   4.715  0.3946 -1.4974 -0.1282
  410MOL0     H54082   6.708   1.352   4.537  0.5864 -1.8190  0.6396
  410MOL0     H54083   6.728   1.559   4.415  0.8782  1.9385  4.0208
  410MOL0     H54084   7.290   1.752   4.133 -0.6983 -0.6322 -0.3326
  410MOL0     H54085   7.346   1.933   3.964  0.8503  2.2123  2.9562
  410MOL0     H54086   7.195   2.268   3.820 -1.7304 -0.8626 -2.2971
  410MOL0     H54087   7.058   2.232   3.914 -2.0224 -0.8029 -0.1417
  410MOL0     H54088   6.968   2.096   3.698 -0.6478  0.4595  0.7990
  410MOL0     H54089   7.083   2.187   3.601  1.6822  1.7308  1.0949
  410MOL0     H54090   6.963   2.399   3.656  2.7951 -0.2440 -2.4139
  410MOL0     H54091   6.845   2.292   3.755 -0.9490  0.6790 -2.2314
  410MOL0     H54092   6.884   2.268   3.460 -4.0430  0.8350 -3.4142
  410MOL0     H54093   6.774   2.176   3.554 -0.3860  1.0428 -1.6427
  410MOL0     H54094   6.780   2.474   3.521  0.1936  0.0081  0.2485
  410MOL0     H54095   6.668   2.383   3.621  2.4315  2.4297  0.8882
  410MOL0     H54096   6.612   2.255   3.418  2.3819 -0.9579 -1.1541
  410MOL0     H54097   6.717   2.345   3.319  2.6077  0.1199  1.3768
  410MOL0     H54098   6.464   2.453   3.468  1.1654  3.7180  0.7618
  410MOL0     H54099   6.565   2.549   3.377  2.9470 -0.0431  2.6110
  410MOL0     H54100   6.340   2.438   3.267 -0.2149  0.2727 -1.1848
  410MOL0     H54101   6.437   2.297   3.244 -3.2771 -0.8283  4.1368
  410MOL0     H54102   6.918   2.001   3.906 -0.8695 -0.7120  0.1409
  410MOL0     H54103   6.879   1.808   4.016 -0.9953  3.9341 -2.1710
  410MOL0     H54104   7.132   1.452   4.306 -1.5020  1.0275 -2.1010
  410MOL0     H54105   7.091   1.222   4.409 -0.6874 -0.7578  3.6274
  410MOL0     H54106   7.669   1.129   4.639 -0.3517 -1.0424 -0.8525
  410MOL0     H54107   7.746   1.264   4.431 -0.4885  0.0277  0.4724
  410MOL0     H54108   7.684   1.795   4.233  2.3018 -0.6077 -0.6610
  410MOL0     H54109   7.711   1.912   4.008  4.0383 -0.6787 -1.9493
  410MOL0     H54110   7.501   1.748   3.696  1.4647 -0.1616  0.4460
  410MOL0     H54111   7.639   1.676   3.616  3.8118  1.4711  0.8781
  410MOL0     H54112   7.731   1.887   3.539  1.2262  0.8734 -0.9159
  410MOL0     H54113   7.561   1.872   3.480 -3.0411  3.4519  0.8839
  410MOL0     H54114   7.498   1.987   3.702 -1.4045 -2.2944 -1.8752
  410MOL0     H54115   7.523   2.078   3.551  3.9844  1.0528 -1.6880
  410MOL0     H54116   7.766   2.028   3.747 -0.1540  2.7630  2.9047
  410MOL0     H54117   7.758   2.104   3.589 -0.9807  1.3792  0.1563
  410MOL0     H54118   7.565   2.415   3.788  0.1146  1.4815 -0.3975
  410MOL0     H54119   7.616   1.547   3.817  0.7047  0.5443 -1.2737
  410MOL0     H54120   7.605   1.432   4.025  0.8537  1.1550  0.8903
  411MOL0     O54121   7.748   1.867   4.826 -0.2674 -0.3769  0.1675
  411MOL0     C54122   7.671   1.854   4.921  0.2568 -0.0621 -0.3973
  411MOL0     O54123   7.653   1.945   5.016 -0.7457 -0.0093  0.1989
  411MOL0     C54124   7.759   2.014   5.073 -0.3896 -0.2709  1.1340
  411MOL0     C54125   7.884   1.952   5.080 -0.1712  0.5748  0.2326
  411MOL0     C54126   7.995   2.010   5.139 -1.3665 -0.1327 -0.3846
  411MOL0     C54127   7.982   2.138   5.198 -0.8470  0.5691 -0.0581
  411MOL0     O54128   8.071   2.173   5.289 -0.4020  0.2977  0.2376
  411MOL0     C54129   8.059   2.103   5.417  0.4309 -0.6480  0.0833
  411MOL0     C54130   8.172   2.151   5.513  1.1309  0.5126 -0.3515
  411MOL0     C54131   8.185   2.304   5.521  0.0480  0.1370  0.8970
  411MOL0     C54132   8.061   2.357   5.591  0.7308  0.4912 -0.5484
  411MOL0     C54133   8.041   2.509   5.595  0.4976 -0.1935  0.3178
  411MOL0     C54134   8.149   2.590   5.659 -0.5162 -1.4669 -0.6463
  411MOL0     C54135   8.161   2.732   5.602  0.3772 -0.2264 -0.4506
  411MOL0     C54136   8.233   2.826   5.702 -0.1992  0.2306 -0.0080
  411MOL0     N54137   8.168   2.958   5.724  0.4421 -0.1756  0.1951
  411MOL0     C54138   8.047   2.972   5.788 -0.7548 -0.0327 -0.0171
  411MOL0     C54139   8.016   3.108   5.809 -1.3399  0.4420 -0.1410
  411MOL0     C54140   7.890   3.162   5.867 -0.3117 -1.2658 -0.7811
  411MOL0     C54141   7.780   3.215   5.771 -0.1296 -0.3842  0.0925
  411MOL0     C54142   7.807   3.355   5.732 -0.5467 -0.0806  0.0720
  411MOL0     C54143   7.765   3.403   5.590  0.0997 -0.5088  0.0035
  411MOL0     O54144   7.805   3.540   5.582 -0.1106  0.3511 -0.6632
  411MOL0     C54145   7.714   3.646   5.588  0.1776 -0.9678 -0.1786
  411MOL0     C54146   7.745   3.760   5.512 -0.2028 -0.7608 -0.5261
  411MOL0     C54147   7.661   3.868   5.519 -0.0952 -0.2329  1.0329
  411MOL0     C54148   7.543   3.874   5.593 -0.5130  0.2371 -0.7906
  411MOL0     C54149   7.444   3.992   5.575  1.1584  0.1633 -0.9034
  411MOL0     O54150   7.341   3.990   5.674 -0.3122  0.5571  0.5422
  411MOL0     C54151   7.259   4.105   5.683  0.1286 -0.4084  0.1548
  411MOL0     C54152   7.116   4.089   5.673  0.0204  0.1539 -0.7934
  411MOL0     C54153   7.031   4.198   5.699 -1.0311  0.6185  1.0435
  411MOL0     C54154   7.078   4.323   5.725 -0.0537  0.4716 -0.5924
  411MOL0     O54155   6.982   4.425   5.730 -0.2773 -0.5303  0.0823
  411MOL0     C54156   6.964   4.507   5.610  0.1504  0.2844 -0.4394
  411MOL0     C54157   6.820   4.578   5.606 -0.3525  0.8624  0.1000
  411MOL0     C54158   6.813   4.697   5.705  0.7644 -0.8133 -0.1397
  411MOL0     C54159   6.668   4.715   5.723 -0.5855 -0.4394 -0.1007
  411MOL0     C54160   6.627   4.844   5.805  0.4949  0.4085  0.3549
  411MOL0     C54161   6.484   4.875   5.793  0.9395 -0.2788 -0.0266
  411MOL0     C54162   6.428   4.885   5.647  0.9628 -0.1984  0.3456
  411MOL0     C54163   6.295   4.954   5.635 -0.6239  0.9924  0.4085
  411MOL0    Cl54164   6.245   4.927   5.456  0.1287  0.5104  0.3253
  411MOL0     C54165   7.215   4.330   5.751 -0.2931  0.1665  0.0393
  411MOL0     C54166   7.308   4.222   5.736 -0.3733 -0.0151 -0.5081
  411MOL0     O54167   7.465   4.090   5.498  0.1779  0.5981  0.4047
  411MOL0     C54168   7.513   3.754   5.667 -0.6997  0.6684  0.7335
  411MOL0     C54169   7.603   3.643   5.672  0.1643 -0.5320 -0.1815
  411MOL0     N54170   8.136   3.169   5.748 -0.1595 -0.3839 -0.0494
  411MOL0     N54171   8.219   3.085   5.701  0.2050 -1.0079 -0.0796
  411MOL0     C54172   7.859   2.203   5.198 -0.4573  0.5406  0.4466
  411MOL0     C54173   7.751   2.136   5.144 -0.0782 -0.2163  0.8579
  411MOL0     C54174   7.585   1.735   4.914  0.7684  0.7712  0.0383
  411MOL0     C54175   7.602   1.625   4.826  0.0289 -0.0279  0.4954
  411MOL0     C54176   7.491   1.542   4.797  0.5138  0.2083  0.8145
  411MOL0     C54177   7.365   1.550   4.870 -0.3812  0.8095 -0.7410
  411MOL0     O54178   7.268   1.461   4.833  0.1728 -0.0418 -1.0350
  411MOL0     C54179   7.153   1.443   4.915  0.5398 -0.4701 -0.8103
  411MOL0     C54180   7.059   1.372   4.828  0.9442 -0.8977 -0.2680
  411MOL0     C54181   6.915   1.363   4.895  0.2958  0.5010 -0.3737
  411MOL0     C54182   6.921   1.260   5.006  0.4792  0.2965 -1.2886
  411MOL0     C54183   6.784   1.214   5.049  0.1715 -0.3605 -0.2809
  411MOL0     C54184   6.670   1.175   5.075  0.4150 -0.1635  1.4268
  411MOL0     C54185   7.362   1.638   4.983 -0.1060 -0.2659  0.0756
  411MOL0     C54186   7.477   1.723   5.005  0.1801  0.7874  0.0348
  411MOL0     H54187   7.903   1.855   5.035 -1.8971 -0.7521  2.1496
  411MOL0     H54188   8.099   1.979   5.135 -1.1799  0.3403  0.4503
  411MOL0     H54189   8.079   1.995   5.416 -0.9332 -0.9065 -0.5872
  411MOL0     H54190   7.963   2.112   5.468 -0.2396 -1.5955 -0.9888
  411MOL0     H54191   8.265   2.102   5.481  0.1274 -0.7295 -1.5000
  411MOL0     H54192   8.137   2.110   5.607  0.1243 -1.6195 -1.5787
  411MOL0     H54193   8.204   2.342   5.420 -2.0866 -2.5070 -0.6542
  411MOL0     H54194   8.267   2.343   5.581  0.2385  2.8653 -0.9805
  411MOL0     H54195   7.977   2.314   5.535  1.0345 -2.0726  0.8230
  411MOL0     H54196   8.060   2.323   5.695  3.0133  0.3837 -0.5239
  411MOL0     H54197   7.953   2.537   5.654  1.5184  2.1175  0.8522
  411MOL0     H54198   8.025   2.544   5.493  0.1929 -2.9008 -0.6410
  411MOL0     H54199   8.240   2.534   5.638  2.3811  1.7640  2.0327
  411MOL0     H54200   8.136   2.586   5.768  0.1772  1.8748 -0.3278
  411MOL0     H54201   8.233   2.721   5.521  2.9248  1.1972  1.4675
  411MOL0     H54202   8.063   2.768   5.569  0.0167 -0.7709  0.0042
  411MOL0     H54203   8.335   2.843   5.668  1.0979 -1.1224  2.8523
  411MOL0     H54204   8.248   2.776   5.798 -2.2883 -1.7870 -0.6365
  411MOL0     H54205   7.985   2.886   5.810  0.1798 -0.4920  0.8961
  411MOL0     H54206   7.908   3.242   5.940 -1.4190 -3.4797  2.1022
  411MOL0     H54207   7.856   3.078   5.927  4.0869 -2.2178  0.7166
  411MOL0     H54208   7.684   3.218   5.823 -0.1365  0.4595  0.0320
  411MOL0     H54209   7.764   3.148   5.686  1.8251 -0.7614 -0.0256
  411MOL0     H54210   7.749   3.418   5.800  0.7011 -0.2703  1.3746
  411MOL0     H54211   7.913   3.382   5.735 -0.7658  1.2802 -2.2231
  411MOL0     H54212   7.658   3.382   5.584  0.1953 -1.3528  0.9734
  411MOL0     H54213   7.814   3.349   5.508  1.7176 -2.3583  2.0366
  411MOL0     H54214   7.838   3.756   5.457  0.4956 -1.9710  0.6680
  411MOL0     H54215   7.675   3.952   5.452  1.2178  0.5085  2.1913
  411MOL0     H54216   7.079   3.994   5.636 -0.7522 -0.8658  2.3640
  411MOL0     H54217   6.931   4.173   5.663 -0.5908 -3.0031  1.9207
  411MOL0     H54218   6.980   4.450   5.518 -0.7683  1.7865 -1.5699
  411MOL0     H54219   7.050   4.574   5.607  0.5486 -0.1989 -0.1013
  411MOL0     H54220   6.757   4.495   5.637  2.3268 -1.2295  0.3163
  411MOL0     H54221   6.791   4.611   5.506  2.5677  4.0709  0.1150
  411MOL0     H54222   6.858   4.791   5.672 -2.9183  2.8988  4.1122
  411MOL0     H54223   6.856   4.674   5.802 -1.4578 -1.6211  0.7231
  411MOL0     H54224   6.614   4.734   5.630 -2.3050  3.2265  1.4591
  411MOL0     H54225   6.638   4.627   5.781  1.5067 -2.4021 -1.8169
  411MOL0     H54226   6.681   4.933   5.772  2.1893 -0.7639 -0.2270
  411MOL0     H54227   6.640   4.827   5.913 -0.7150  0.9329  0.5936
  411MOL0     H54228   6.454   4.963   5.850  2.5150  1.2029 -1.3756
  411MOL0     H54229   6.424   4.801   5.848  2.0703 -1.1723  0.0392
  411MOL0     H54230   6.499   4.936   5.580 -0.6787  3.3512  1.0695
  411MOL0     H54231   6.397   4.789   5.604 -1.0594  1.1896 -1.5174
  411MOL0     H54232   6.301   5.061   5.658  0.0873  0.8055  1.1015
  411MOL0     H54233   6.222   4.909   5.704 -0.8120 -1.6979 -1.3965
  411MOL0     H54234   7.251   4.427   5.785  2.8845 -0.4120 -1.3493
  411MOL0     H54235   7.411   4.246   5.763 -0.2774 -0.2918 -0.6250
  411MOL0     H54236   7.413   3.752   5.710 -2.4183  0.9754 -2.8412
  411MOL0     H54237   7.574   3.558   5.731  0.7258 -1.3150 -1.0072
  411MOL0     H54238   7.838   2.298   5.248  1.5295  1.6837 -0.7376
  411MOL0     H54239   7.652   2.178   5.159 -0.1769 -0.2812  0.3783
  411MOL0     H54240   7.692   1.618   4.767  1.2593  1.2797  2.0957
  411MOL0     H54241   7.502   1.467   4.719  3.7743  2.3687 -0.9990
  411MOL0     H54242   7.114   1.544   4.933  0.6537 -0.3946 -0.9827
  411MOL0     H54243   7.187   1.398   5.009  0.1331 -1.2630 -1.0340
  411MOL0     H54244   7.053   1.432   4.736 -2.8612 -2.3287 -1.1324
  411MOL0     H54245   7.090   1.270   4.805 -0.8316 -2.0283  2.0211
  411MOL0     H54246   6.860   1.319   4.812  1.7072 -4.2463  0.9080
  411MOL0     H54247   6.872   1.458   4.930  2.0503  1.8615 -1.6926
  411MOL0     H54248   6.965   1.169   4.963  1.9198  0.3490 -0.0131
  411MOL0     H54249   6.979   1.282   5.096 -1.5062 -4.2321  1.4728
  411MOL0     H54250   6.570   1.139   5.091  0.7735 -1.0353  1.7622
  411MOL0     H54251   7.274   1.635   5.046 -0.8994 -1.9194 -1.0365
  411MOL0     H54252   7.476   1.800   5.081  0.7132  0.2955  0.5456
  412MOL0     O54253   5.687  11.256   7.067  0.5618  0.2572 -0.2529
  412MOL0     C54254   5.607  11.166   7.053  0.2244  0.6135 -0.4892
  412MOL0     O54255   5.473  11.185   7.029  0.8217  0.0421  0.8778
  412MOL0     C54256   5.431  11.316   7.028  0.3033  0.0738  0.5056
  412MOL0     C54257   5.424  11.388   7.153 -0.4599 -0.6223 -0.1184
  412MOL0     C54258   5.382  11.517   7.153 -0.2242 -0.6422  0.6136
  412MOL0     C54259   5.338  11.584   7.030  0.0710 -0.5411 -0.6576
  412MOL0     O54260   5.297  11.720   7.038  0.0395 -0.4502  0.1277
  412MOL0     C54261   5.236  11.775   7.144 -0.6557 -0.3917 -0.1442
  412MOL0     C54262   5.260  11.931   7.164 -0.3616 -0.1943 -0.2081
  412MOL0     C54263   5.393  11.980   7.190  0.0961  0.3253 -1.0680
  412MOL0     C54264   5.392  12.133   7.229 -0.1427  0.2911  0.3070
  412MOL0     C54265   5.530  12.167   7.283 -0.9002 -0.3084 -1.0012
  412MOL0     C54266   5.624  12.208   7.159 -0.4488 -0.0542 -0.1403
  412MOL0     C54267   5.777  12.223   7.191  0.3013  0.8107 -0.4617
  412MOL0     C54268   5.844  12.093   7.175  0.6418  0.4068  0.8905
  412MOL0     N54269   5.983  12.098   7.131 -0.3103 -0.7646  1.1672
  412MOL0     C54270   6.078  12.192   7.156 -0.3462 -0.1882 -0.5393
  412MOL0     C54271   6.187  12.170   7.083 -0.3844  0.3555  0.7108
  412MOL0     C54272   6.325  12.232   7.082  0.0477  0.2812 -0.5543
  412MOL0     C54273   6.344  12.384   7.057 -0.5845  0.3575  0.4178
  412MOL0     C54274   6.267  12.439   6.944 -0.0353 -0.7096  0.2237
  412MOL0     C54275   6.255  12.601   6.943  0.6385 -0.3648  0.8013
  412MOL0     O54276   6.375  12.672   6.985 -0.5793  0.3746 -0.4411
  412MOL0     C54277   6.372  12.811   6.983 -1.0639  0.5185  0.2076
  412MOL0     C54278   6.419  12.873   6.868  1.2650 -0.0517  0.4524
  412MOL0     C54279   6.412  13.011   6.867  0.1192  0.3602 -0.6703
  412MOL0     C54280   6.372  13.092   6.975 -1.0114 -0.2024 -0.1028
  412MOL0     C54281   6.370  13.234   6.963 -0.0781 -0.1360 -0.6558
  412MOL0     O54282   6.303  13.302   7.073 -0.7838  0.4987 -0.0153
  412MOL0     C54283   6.302  13.437   7.091 -0.0346  0.3724 -0.0223
  412MOL0     C54284   6.201  13.486   7.171  0.2529  0.4707 -0.0704
  412MOL0     C54285   6.189  13.627   7.188  0.3328 -0.3359 -0.1040
  412MOL0     C54286   6.288  13.707   7.149 -0.2733  1.0273  0.2835
  412MOL0     O54287   6.291  13.833   7.195 -0.6029  0.5559 -0.2962
  412MOL0     C54288   6.323  13.931   7.099 -0.5899  0.4409  0.8822
  412MOL0     C54289   6.312  14.080   7.152  0.3706  0.2309 -0.2206
  412MOL0     C54290   6.328  14.178   7.033  0.1139 -0.5299 -0.4914
  412MOL0     C54291   6.303  14.325   7.064 -0.0861 -1.0628  0.1075
  412MOL0     C54292   6.411  14.392   7.150  0.4011 -0.1009 -1.0001
  412MOL0     C54293   6.553  14.385   7.090  0.5572 -0.8490 -0.3416
  412MOL0     C54294   6.655  14.455   7.194  0.5600 -0.4023 -0.1111
  412MOL0     C54295   6.779  14.500   7.118 -0.6545 -0.1382 -0.9589
  412MOL0    Cl54296   6.756  14.659   7.023  0.1155 -0.0800 -0.2806
  412MOL0     C54297   6.396  13.658   7.069 -0.1833 -0.0834 -0.5062
  412MOL0     C54298   6.398  13.523   7.032 -0.0149  0.8256  0.8833
  412MOL0     O54299   6.410  13.286   6.859 -0.2107  0.2942  0.1323
  412MOL0     C54300   6.343  13.025   7.098  0.1069 -0.0515  0.3841
  412MOL0     C54301   6.333  12.886   7.090  0.5831 -0.6336  0.2749
  412MOL0     N54302   6.150  12.059   7.002  0.0140 -0.8783  0.4469
  412MOL0     N54303   6.028  12.016   7.036 -0.1866 -1.0174  1.0983
  412MOL0     C54304   5.336  11.508   6.913 -0.8536 -0.1784 -1.4239
  412MOL0     C54305   5.385  11.376   6.918 -0.1471 -0.3644  0.9719
  412MOL0     C54306   5.653  11.023   7.039 -0.0647  0.3926 -0.4133
  412MOL0     C54307   5.768  10.995   6.967 -0.8303  0.0969 -0.2307
  412MOL0     C54308   5.795  10.860   6.941 -0.3955  0.6758 -0.8426
  412MOL0     C54309   5.713  10.757   6.984 -1.0186  0.2719 -0.4668
  412MOL0     O54310   5.754  10.627   6.958  0.6407 -0.1765  0.5103
  412MOL0     C54311   5.669  10.517   6.997 -0.6883 -0.5516 -0.1064
  412MOL0     C54312   5.698  10.400   6.927 -0.4481  0.1762  0.9177
  412MOL0     C54313   5.850  10.359   6.913 -0.3421 -0.4430  0.0451
  412MOL0     C54314   5.858  10.237   6.825  0.7429  0.5340  0.0739
  412MOL0     C54315   5.802  10.265   6.687 -0.3812  1.6491  0.0938
  412MOL0     C54316   5.771  10.302   6.576  0.6218 -0.8923 -0.1670
  412MOL0     C54317   5.601  10.791   7.063  0.0259  0.0768 -0.1746
  412MOL0     C54318   5.564  10.922   7.092  1.6102 -0.5765  0.3763
  412MOL0     H54319   5.470  11.340   7.238  0.6090 -1.2263 -1.0158
  412MOL0     H54320   5.402  11.564   7.249 -2.8625  0.8315  0.5455
  412MOL0     H54321   5.273  11.734   7.239  1.2336  1.6215  0.0620
  412MOL0     H54322   5.132  11.743   7.128 -0.4701 -2.7874  2.5124
  412MOL0     H54323   5.187  11.956   7.241 -1.1730  0.5410 -1.1841
  412MOL0     H54324   5.235  11.982   7.070 -0.2843  1.8211  0.8066
  412MOL0     H54325   5.450  11.966   7.097  0.2476  3.4563 -1.5568
  412MOL0     H54326   5.447  11.918   7.263 -0.2176 -4.0374 -4.1259
  412MOL0     H54327   5.361  12.188   7.140  0.1404  0.1222  0.1011
  412MOL0     H54328   5.318  12.134   7.310 -1.4428  1.3844 -0.8522
  412MOL0     H54329   5.562  12.080   7.342 -0.4659 -0.0407 -0.8348
  412MOL0     H54330   5.522  12.256   7.347  1.6201 -1.0816  0.5484
  412MOL0     H54331   5.580  12.298   7.115 -2.7019 -1.5640 -1.1376
  412MOL0     H54332   5.603  12.129   7.086 -1.2523 -2.2360  2.2775
  412MOL0     H54333   5.828  12.305   7.140  0.5587  1.2877  0.5359
  412MOL0     H54334   5.782  12.247   7.298  3.0811 -0.7367 -0.1600
  412MOL0     H54335   5.796  12.026   7.104  2.6618 -4.0712  3.3265
  412MOL0     H54336   5.848  12.040   7.270 -2.5526  2.3592  2.2809
  412MOL0     H54337   6.066  12.278   7.221  2.0721 -0.6725  0.6545
  412MOL0     H54338   6.382  12.167   7.015 -4.0914 -3.2937 -1.0514
  412MOL0     H54339   6.368  12.214   7.182 -1.7977 -0.2285  0.1965
  412MOL0     H54340   6.450  12.402   7.039 -1.0881  2.6383 -0.6165
  412MOL0     H54341   6.323  12.448   7.143 -0.0511  1.6916 -0.4188
  412MOL0     H54342   6.305  12.392   6.852  0.8999  1.7629 -0.7335
  412MOL0     H54343   6.162  12.415   6.959  0.0338  0.7008  4.1675
  412MOL0     H54344   6.168  12.627   7.004 -2.0422  2.1257 -3.6121
  412MOL0     H54345   6.230  12.636   6.843  3.1509  0.8026  0.5348
  412MOL0     H54346   6.442  12.815   6.779  0.0933  2.7922 -1.8672
  412MOL0     H54347   6.452  13.051   6.775 -4.0199 -0.3772 -3.0402
  412MOL0     H54348   6.119  13.428   7.209 -1.1093  2.0795 -0.4307
  412MOL0     H54349   6.098  13.670   7.228  0.1984 -1.7490  1.2193
  412MOL0     H54350   6.261  13.908   7.011 -0.2453  0.8633  0.5280
  412MOL0     H54351   6.424  13.911   7.063 -0.0344  1.9637  1.5443
  412MOL0     H54352   6.376  14.109   7.236 -0.2977 -3.3623  1.7209
  412MOL0     H54353   6.215  14.086   7.201  0.0968  0.2605 -0.7550
  412MOL0     H54354   6.252  14.130   6.971  0.9765 -0.0112 -2.0064
  412MOL0     H54355   6.423  14.170   6.980 -0.3472 -0.4777 -1.3436
  412MOL0     H54356   6.299  14.389   6.975  1.3387  0.9394  1.3895
  412MOL0     H54357   6.208  14.341   7.114  0.6497 -0.2695  1.3141
  412MOL0     H54358   6.402  14.336   7.244 -3.3449 -0.9347 -1.6650
  412MOL0     H54359   6.381  14.493   7.177  0.3615 -1.0000  2.9031
  412MOL0     H54360   6.549  14.452   7.003 -0.0138  2.6113  2.1387
  412MOL0     H54361   6.586  14.283   7.070  0.6154 -0.8062 -0.4699
  412MOL0     H54362   6.606  14.540   7.243 -0.1549  0.0364 -1.5373
  412MOL0     H54363   6.695  14.380   7.263 -1.8091 -0.8325  0.8784
  412MOL0     H54364   6.807  14.427   7.042 -0.4437 -0.7448 -0.3097
  412MOL0     H54365   6.857  14.527   7.189 -2.4699 -0.5941  1.3396
  412MOL0     H54366   6.473  13.725   7.032  1.3534 -1.1999  0.5886
  412MOL0     H54367   6.487  13.488   6.983 -0.1311 -0.3113  1.4410
  412MOL0     H54368   6.318  13.086   7.185  0.8881  0.5150  0.2210
  412MOL0     H54369   6.296  12.841   7.181  1.0544 -1.4101  0.0915
  412MOL0     H54370   5.303  11.544   6.817 -1.2536  0.8526 -0.9178
  412MOL0     H54371   5.375  11.314   6.830 -1.6803  3.0147 -1.4311
  412MOL0     H54372   5.838  11.074   6.942 -0.0081 -0.7587 -0.6734
  412MOL0     H54373   5.886  10.826   6.893  1.2323 -1.9687  3.4841
  412MOL0     H54374   5.567  10.536   6.962 -0.3269 -0.1842 -0.9710
  412MOL0     H54375   5.674  10.504   7.106 -1.6542  2.1478  0.3309
  412MOL0     H54376   5.647  10.312   6.967  1.4166  1.0459  5.8540
  412MOL0     H54377   5.660  10.412   6.825 -2.3728 -1.4598  1.3749
  412MOL0     H54378   5.906  10.332   7.003  0.2503 -5.4383 -1.5397
  412MOL0     H54379   5.910  10.432   6.857  1.8453 -1.1767  1.3075
  412MOL0     H54380   5.965  10.224   6.807  0.1831  0.2442 -3.9414
  412MOL0     H54381   5.799  10.164   6.881  1.9326 -0.3020  0.2774
  412MOL0     H54382   5.721  10.315   6.482  1.3424 -0.0540 -0.4498
  412MOL0     H54383   5.537  10.708   7.091  0.5820 -2.5153 -5.2286
  412MOL0     H54384   5.479  10.940   7.156  0.9139 -0.9560 -0.4284
  413MOL0     O54385   9.248   3.958   6.166  0.1023  0.1020 -0.2452
  413MOL0     C54386   9.158   3.954   6.087  0.0810 -0.2374 -0.4487
  413MOL0     O54387   9.029   3.949   6.113 -0.2611 -0.6903 -0.0873
  413MOL0     C54388   8.997   3.935   6.247  1.1683  0.2063 -0.3980
  413MOL0     C54389   9.007   3.805   6.291  0.3749  0.1085 -0.5219
  413MOL0     C54390   8.958   3.774   6.427 -0.3456 -0.2422 -0.2048
  413MOL0     C54391   8.892   3.866   6.504 -0.2722  0.9549  0.2254
  413MOL0     O54392   8.814   3.846   6.620 -0.9036 -0.9063  0.6019
  413MOL0     C54393   8.823   3.720   6.688 -0.6376 -0.0477 -0.1948
  413MOL0     C54394   8.727   3.704   6.807  0.3302  0.5255  0.3764
  413MOL0     C54395   8.777   3.775   6.930  0.0356  0.4832 -0.8403
  413MOL0     C54396   8.694   3.723   7.053  0.1837 -0.1698  1.2162
  413MOL0     C54397   8.580   3.827   7.085 -0.2281  0.4455 -0.0651
  413MOL0     C54398   8.500   3.760   7.184  0.1135 -0.0973 -0.3484
  413MOL0     C54399   8.386   3.855   7.249 -0.0800  0.2079  0.7608
  413MOL0     C54400   8.316   3.800   7.371 -0.2323 -0.9033  0.1812
  413MOL0     N54401   8.392   3.840   7.488  0.0920  0.2730  0.3514
  413MOL0     C54402   8.503   3.767   7.549  0.1851  1.2778  0.0896
  413MOL0     C54403   8.555   3.870   7.620  0.1117  0.7881  0.0291
  413MOL0     C54404   8.695   3.860   7.680  0.2618  0.0918  0.0489
  413MOL0     C54405   8.799   3.958   7.625 -0.1601 -0.0680  0.7840
  413MOL0     C54406   8.785   3.992   7.478 -0.0553  0.2000 -0.4492
  413MOL0     C54407   8.890   4.095   7.438  0.1269  0.7847 -0.5061
  413MOL0     O54408   9.023   4.043   7.470 -0.1129  0.3828  0.5465
  413MOL0     C54409   9.092   3.946   7.403  0.1772 -0.3332  0.0021
  413MOL0     C54410   9.179   3.857   7.465 -1.0740 -0.6980 -0.5153
  413MOL0     C54411   9.229   3.739   7.406  0.6030 -0.5787 -0.1695
  413MOL0     C54412   9.197   3.711   7.265  0.4054  0.2509  0.1762
  413MOL0     C54413   9.254   3.600   7.204 -0.5062  0.1324 -0.4168
  413MOL0     O54414   9.185   3.571   7.100  1.0705 -0.2575 -0.1401
  413MOL0     C54415   9.246   3.496   7.012 -0.3383 -0.2030  1.1378
  413MOL0     C54416   9.318   3.552   6.912 -0.5322 -0.3983  0.3772
  413MOL0     C54417   9.373   3.481   6.813  0.6128 -0.5261  0.0203
  413MOL0     C54418   9.349   3.342   6.795  1.3609 -0.6887  0.0838
  413MOL0     O54419   9.392   3.272   6.680  0.3618  0.0266  0.1853
  413MOL0     C54420   9.483   3.334   6.581 -0.4489 -0.0717  0.2213
  413MOL0     C54421   9.546   3.242   6.477  0.4267  0.0550 -0.6173
  413MOL0     C54422   9.451   3.193   6.366  0.0889 -0.3984 -0.3734
  413MOL0     C54423   9.511   3.076   6.296 -0.1867  0.8305  0.0796
  413MOL0     C54424   9.619   3.116   6.190  0.2543 -0.7236 -0.1223
  413MOL0     C54425   9.555   3.195   6.076  0.1553  0.1965 -0.1491
  413MOL0     C54426   9.658   3.180   5.955  0.6931 -0.6677  0.0826
  413MOL0     C54427   9.632   3.284   5.846  1.0375  0.0665 -0.7768
  413MOL0    Cl54428   9.745   3.290   5.718  0.1941 -0.1033  0.2061
  413MOL0     C54429   9.288   3.280   6.900  0.9906  1.1913 -0.7163
  413MOL0     C54430   9.226   3.356   7.010 -0.9159 -0.5012  0.6037
  413MOL0     O54431   9.340   3.533   7.263  0.5172  0.5296 -0.7219
  413MOL0     C54432   9.119   3.818   7.198 -0.2827  0.4567  1.0423
  413MOL0     C54433   9.064   3.926   7.264 -0.3117  0.4975  0.1097
  413MOL0     N54434   8.475   3.985   7.617 -0.4941  0.9057  0.2620
  413MOL0     N54435   8.375   3.958   7.547 -0.1171 -0.2699 -0.0909
  413MOL0     C54436   8.874   3.991   6.449 -0.3047 -0.3041 -0.9599
  413MOL0     C54437   8.930   4.030   6.321  0.5455 -0.4465 -0.0240
  413MOL0     C54438   9.188   3.920   5.944 -0.0112  0.5951  0.4294
  413MOL0     C54439   9.087   3.927   5.842 -0.0312  1.2068 -0.2981
  413MOL0     C54440   9.125   3.895   5.712  0.2251  0.4872  0.7011
  413MOL0     C54441   9.253   3.849   5.680  0.3426  0.1985 -0.4467
  413MOL0     O54442   9.279   3.784   5.568  0.0269  0.0893  1.4771
  413MOL0     C54443   9.303   3.886   5.467 -0.3538 -0.8926 -0.1360
  413MOL0     C54444   9.345   3.847   5.327  0.7324  0.3410  0.2467
  413MOL0     C54445   9.283   3.941   5.219  0.6232  0.3677 -0.9752
  413MOL0     C54446   9.371   3.939   5.092 -1.0690  0.2636 -0.6677
  413MOL0     C54447   9.293   4.023   4.998 -0.6561  0.2512  0.5200
  413MOL0     C54448   9.221   4.096   4.931  0.0760  0.0475  0.5870
  413MOL0     C54449   9.353   3.843   5.781  0.1366  0.8991 -0.0927
  413MOL0     C54450   9.316   3.866   5.912 -0.6599 -0.0765 -0.2107
  413MOL0     H54451   9.057   3.724   6.239 -1.2672  0.6787 -3.1656
  413MOL0     H54452   8.986   3.678   6.469  1.0228 -0.9180 -2.4818
  413MOL0     H54453   8.927   3.697   6.710 -0.8493 -1.7397 -0.8241
  413MOL0     H54454   8.785   3.643   6.620  2.0406 -2.6241  1.0432
  413MOL0     H54455   8.724   3.596   6.828 -2.6656  0.4520  0.0243
  413MOL0     H54456   8.626   3.732   6.776  1.0024  2.4609 -0.1969
  413MOL0     H54457   8.760   3.882   6.914 -2.2201  0.4686  1.0457
  413MOL0     H54458   8.885   3.768   6.942 -0.3481 -3.7835  2.4121
  413MOL0     H54459   8.634   3.635   7.030 -2.5497  1.4494  1.5598
  413MOL0     H54460   8.761   3.696   7.134  1.4976 -0.8313 -0.0529
  413MOL0     H54461   8.519   3.848   6.997  1.9034 -1.1143 -2.0170
  413MOL0     H54462   8.627   3.917   7.125  0.0286 -0.1446  1.0003
  413MOL0     H54463   8.562   3.739   7.272 -3.2945 -2.5622  1.7472
  413MOL0     H54464   8.466   3.662   7.149 -2.2654 -0.4440  2.4764
  413MOL0     H54465   8.406   3.962   7.265 -1.6265  0.9161 -1.4715
  413MOL0     H54466   8.309   3.859   7.171  1.0509  2.9795 -0.3640
  413MOL0     H54467   8.299   3.692   7.378  0.6674 -1.0316  0.5597
  413MOL0     H54468   8.221   3.853   7.381 -0.8061 -1.5795 -1.4164
  413MOL0     H54469   8.553   3.674   7.521  1.5929  1.2744  2.3304
  413MOL0     H54470   8.728   3.760   7.649  0.5430  0.4721 -0.9156
  413MOL0     H54471   8.689   3.868   7.789 -1.8281 -2.1417  0.1982
  413MOL0     H54472   8.898   3.916   7.646  0.3030  0.6629  0.1223
  413MOL0     H54473   8.786   4.056   7.673 -1.4875 -0.2023  0.7226
  413MOL0     H54474   8.788   3.902   7.416  2.1584 -0.4831  0.5738
  413MOL0     H54475   8.685   4.036   7.470  0.6984  1.8529 -1.1857
  413MOL0     H54476   8.884   4.179   7.507 -1.0206  2.5776 -2.6682
  413MOL0     H54477   8.872   4.137   7.339 -0.9600 -1.7407 -1.4840
  413MOL0     H54478   9.202   3.878   7.568 -1.5367 -0.8870 -0.3692
  413MOL0     H54479   9.294   3.682   7.471 -0.3567 -0.2956  1.0748
  413MOL0     H54480   9.329   3.659   6.927  2.0806 -0.7432  1.6214
  413MOL0     H54481   9.425   3.533   6.733  0.3904  0.7856  0.7006
  413MOL0     H54482   9.568   3.383   6.631  0.1117 -0.5981 -0.1979
  413MOL0     H54483   9.433   3.413   6.525  1.4245 -0.9947 -3.0385
  413MOL0     H54484   9.590   3.161   6.535 -0.3437  0.4396  0.5384
  413MOL0     H54485   9.638   3.286   6.435  1.5737 -1.3606  0.3179
  413MOL0     H54486   9.433   3.270   6.290  2.9035  0.4551 -0.2707
  413MOL0     H54487   9.368   3.160   6.429  2.1234  0.7034  3.1910
  413MOL0     H54488   9.550   3.005   6.370 -1.5743  0.8117  0.8184
  413MOL0     H54489   9.436   3.018   6.242  0.4229  0.7236 -0.6628
  413MOL0     H54490   9.664   3.024   6.154  1.7088 -0.4518  0.9436
  413MOL0     H54491   9.705   3.171   6.228 -1.7170  3.1805 -0.7274
  413MOL0     H54492   9.558   3.299   6.112 -0.8125 -0.0004  0.5419
  413MOL0     H54493   9.453   3.161   6.058 -0.4905 -0.0221  3.1634
  413MOL0     H54494   9.761   3.202   5.984  0.9744 -0.2624 -1.2004
  413MOL0     H54495   9.635   3.085   5.907  0.4731 -0.5138 -0.1179
  413MOL0     H54496   9.613   3.381   5.893 -0.4653 -0.8701  0.6673
  413MOL0     H54497   9.532   3.258   5.811  0.8021 -1.3269  0.8044
  413MOL0     H54498   9.277   3.173   6.887 -0.4541  1.0534  1.0714
  413MOL0     H54499   9.162   3.297   7.074  0.7791 -0.7621  2.1411
  413MOL0     H54500   9.090   3.812   7.094  0.0226 -0.9494  1.0240
  413MOL0     H54501   8.988   3.980   7.208  0.6069  1.3595 -0.3378
  413MOL0     H54502   8.810   4.054   6.510 -1.9761 -2.1700 -0.6899
  413MOL0     H54503   8.919   4.124   6.268  0.6536 -2.4250 -3.8851
  413MOL0     H54504   8.980   3.935   5.860 -0.7947 -3.0679 -1.7639
  413MOL0     H54505   9.042   3.881   5.643  1.2196 -0.0585 -0.4253
  413MOL0     H54506   9.383   3.954   5.499 -0.1090 -1.7987  1.2858
  413MOL0     H54507   9.213   3.946   5.451  0.6934  0.6789 -0.3770
  413MOL0     H54508   9.453   3.859   5.317  0.7326 -0.2188 -0.5688
  413MOL0     H54509   9.321   3.743   5.300 -1.3126  1.1090 -1.1737
  413MOL0     H54510   9.288   4.042   5.260  1.6859  0.2718 -0.8291
  413MOL0     H54511   9.182   3.904   5.200 -0.2594  2.2526 -0.1703
  413MOL0     H54512   9.470   3.973   5.123  0.3065 -2.1505 -2.0533
  413MOL0     H54513   9.382   3.837   5.053  0.5799 -0.0038  0.4087
  413MOL0     H54514   9.150   4.160   4.882  2.8134  2.0107 -1.0861
  413MOL0     H54515   9.455   3.810   5.758  0.4672 -0.4216  2.8350
  413MOL0     H54516   9.390   3.859   5.991  0.5698  1.2414 -1.1834
  414MOL0     O54517   3.246   2.164   4.524 -0.0884  0.2505  0.2228
  414MOL0     C54518   3.222   2.276   4.483 -0.1404 -0.3375 -0.5095
  414MOL0     O54519   3.109   2.346   4.500  0.0877  0.0601  0.2533
  414MOL0     C54520   3.031   2.336   4.613  0.1900  0.0053  0.3572
  414MOL0     C54521   3.070   2.331   4.742 -0.2611 -0.1141 -0.7022
  414MOL0     C54522   2.990   2.342   4.859  0.5918  0.3795 -0.5545
  414MOL0     C54523   2.853   2.372   4.848 -0.7692 -0.0090 -0.6456
  414MOL0     O54524   2.763   2.406   4.947  0.6637 -0.2187  0.3588
  414MOL0     C54525   2.821   2.417   5.074  0.7175  0.4424 -0.2306
  414MOL0     C54526   2.703   2.474   5.162  0.1260  0.1246 -0.2749
  414MOL0     C54527   2.567   2.401   5.150 -0.4810  0.0378  0.0785
  414MOL0     C54528   2.582   2.256   5.203  0.2282 -0.6867 -1.1931
  414MOL0     C54529   2.483   2.159   5.144 -0.1763  0.8018  0.8373
  414MOL0     C54530   2.334   2.178   5.174 -0.4052  0.7491  0.7307
  414MOL0     C54531   2.241   2.087   5.090 -0.0369 -0.4988 -0.0270
  414MOL0     C54532   2.269   2.077   4.939  0.9703 -0.6017 -0.5822
  414MOL0     N54533   2.298   2.207   4.883  0.1895  0.6609  0.7590
  414MOL0     C54534   2.371   2.221   4.765 -0.3059  0.9742  0.0670
  414MOL0     C54535   2.332   2.336   4.706  0.7012  0.3734 -0.4338
  414MOL0     C54536   2.389   2.380   4.569  0.0297  0.4052 -0.1494
  414MOL0     C54537   2.309   2.317   4.450 -0.4901  0.1808  0.3957
  414MOL0     C54538   2.160   2.362   4.439 -0.5658  0.1068  0.1896
  414MOL0     C54539   2.122   2.506   4.401 -0.1077 -0.2739  0.2431
  414MOL0     O54540   2.156   2.592   4.511 -0.5871  1.5304 -0.4714
  414MOL0     C54541   2.161   2.725   4.488 -0.8879 -0.0521 -1.0724
  414MOL0     C54542   2.180   2.804   4.596 -0.3883  0.3298  0.2098
  414MOL0     C54543   2.176   2.939   4.589 -0.2517 -0.0657 -0.9884
  414MOL0     C54544   2.159   3.008   4.468 -0.6500  0.6183 -0.8869
  414MOL0     C54545   2.132   3.152   4.464  0.3247  0.2038  1.3336
  414MOL0     O54546   2.145   3.213   4.340 -0.3799  0.6046  0.2366
  414MOL0     C54547   2.184   3.344   4.325 -0.3765  0.8344 -0.1638
  414MOL0     C54548   2.125   3.428   4.232 -0.1570 -0.3742  0.3493
  414MOL0     C54549   2.166   3.561   4.208  0.5086  0.1196 -0.6907
  414MOL0     C54550   2.273   3.620   4.286  0.8185 -0.2846  0.8856
  414MOL0     O54551   2.302   3.751   4.283 -0.6240 -0.2499  0.2411
  414MOL0     C54552   2.228   3.850   4.206 -0.1597  0.2436 -0.4562
  414MOL0     C54553   2.305   3.984   4.223 -0.5141 -0.0312 -1.0244
  414MOL0     C54554   2.311   4.023   4.383 -0.1228  0.0457 -0.1062
  414MOL0     C54555   2.386   4.149   4.401 -0.6941 -0.7445 -0.2459
  414MOL0     C54556   2.427   4.173   4.549 -0.1942  0.5362 -1.1283
  414MOL0     C54557   2.483   4.313   4.564 -0.2681  0.2514 -0.1296
  414MOL0     C54558   2.468   4.348   4.705  0.0860  0.1174 -0.7512
  414MOL0     C54559   2.533   4.473   4.753 -0.6198  0.4937 -0.1820
  414MOL0    Cl54560   2.440   4.553   4.883  0.2215  0.1753  0.2224
  414MOL0     C54561   2.334   3.543   4.385  0.1768 -0.3181 -0.6524
  414MOL0     C54562   2.291   3.401   4.401  0.0060  0.3138 -0.1515
  414MOL0     O54563   2.116   3.214   4.564  0.0201  0.1030 -0.1865
  414MOL0     C54564   2.155   2.932   4.357 -0.0282 -0.6690  0.3100
  414MOL0     C54565   2.147   2.793   4.365 -0.0732 -0.7475 -0.3980
  414MOL0     N54566   2.240   2.394   4.794 -0.8006  0.1251  0.4184
  414MOL0     N54567   2.214   2.313   4.886 -0.3967  0.2349 -0.2633
  414MOL0     C54568   2.800   2.354   4.722 -0.3403 -0.2688  0.3860
  414MOL0     C54569   2.888   2.346   4.606 -0.1217 -0.7763 -0.6936
  414MOL0     C54570   3.325   2.339   4.399  1.0181 -0.2251 -0.7380
  414MOL0     C54571   3.351   2.478   4.401 -0.3290  1.0076  0.5716
  414MOL0     C54572   3.430   2.537   4.299 -0.2143 -0.1178  0.2643
  414MOL0     C54573   3.503   2.451   4.205 -0.3235 -0.8963 -0.5578
  414MOL0     O54574   3.582   2.507   4.107  0.0075 -0.1154  0.8467
  414MOL0     C54575   3.571   2.459   3.974 -0.8414 -0.0480 -0.4917
  414MOL0     C54576   3.692   2.518   3.898  0.8661 -0.1932  0.4089
  414MOL0     C54577   3.673   2.507   3.751  0.2351 -0.2664  0.8352
  414MOL0     C54578   3.797   2.433   3.682 -0.1322  0.1860  0.6249
  414MOL0     C54579   3.769   2.415   3.536  0.1740  0.2392 -0.1370
  414MOL0     C54580   3.753   2.409   3.413 -0.2104  0.1941  0.7866
  414MOL0     C54581   3.486   2.312   4.217  0.6751  1.1481  0.0721
  414MOL0     C54582   3.404   2.256   4.316 -0.2575  0.1312  0.0355
  414MOL0     H54583   3.176   2.335   4.769 -0.9948  1.8508  2.3438
  414MOL0     H54584   3.025   2.343   4.962  0.6954 -2.8350 -0.4381
  414MOL0     H54585   2.909   2.480   5.067  0.6136  0.4740 -1.3738
  414MOL0     H54586   2.855   2.316   5.099  1.9850  0.1112 -3.0045
  414MOL0     H54587   2.695   2.579   5.133 -1.9583  0.0206 -0.2309
  414MOL0     H54588   2.734   2.475   5.267  1.6699 -2.3293 -0.6240
  414MOL0     H54589   2.541   2.402   5.044  1.6329  2.1490 -0.5194
  414MOL0     H54590   2.484   2.446   5.206  0.1025  1.7815 -0.4073
  414MOL0     H54591   2.680   2.214   5.177 -0.7277 -4.1077  0.1637
  414MOL0     H54592   2.568   2.255   5.311  0.1788  0.2492 -1.1800
  414MOL0     H54593   2.502   2.065   5.197  0.8218 -0.1537 -1.0988
  414MOL0     H54594   2.502   2.149   5.037  1.3988 -1.5191  1.2458
  414MOL0     H54595   2.306   2.283   5.158 -2.0203  0.4928  1.6653
  414MOL0     H54596   2.315   2.152   5.278  0.6671 -0.4585  0.6510
  414MOL0     H54597   2.258   1.993   5.142  1.0358 -0.0567  0.4460
  414MOL0     H54598   2.137   2.114   5.111 -0.8134 -1.2151 -2.6080
  414MOL0     H54599   2.199   2.019   4.878 -1.5536 -0.8697  2.3337
  414MOL0     H54600   2.362   2.020   4.940  1.6809  0.4347  2.4859
  414MOL0     H54601   2.444   2.152   4.725 -0.8697  2.3705 -3.7188
  414MOL0     H54602   2.492   2.345   4.563  0.0829  0.7982 -2.1777
  414MOL0     H54603   2.397   2.489   4.566  4.3208  0.2729  0.1102
  414MOL0     H54604   2.315   2.209   4.461  3.6607  0.2595  0.4813
  414MOL0     H54605   2.367   2.347   4.361 -1.4088  2.4112  0.4858
  414MOL0     H54606   2.108   2.297   4.368 -0.2009 -1.4164  1.2611
  414MOL0     H54607   2.122   2.337   4.539  3.1954 -0.5295  1.6239
  414MOL0     H54608   2.014   2.518   4.385 -0.0345 -2.9393 -3.5454
  414MOL0     H54609   2.171   2.540   4.310 -1.7634  3.6245  0.6205
  414MOL0     H54610   2.191   2.758   4.694  2.3699  0.1093 -0.1327
  414MOL0     H54611   2.197   3.001   4.676  0.2344  1.8443 -2.3779
  414MOL0     H54612   2.043   3.381   4.178  1.7013  0.5527 -3.6793
  414MOL0     H54613   2.105   3.607   4.131 -1.7375 -4.3075 -1.8904
  414MOL0     H54614   2.136   3.859   4.264 -0.5064 -2.1995 -0.4991
  414MOL0     H54615   2.212   3.832   4.099  0.0446 -0.9564 -0.3056
  414MOL0     H54616   2.248   4.070   4.188 -2.1742 -0.8448 -0.4348
  414MOL0     H54617   2.403   3.983   4.173 -1.6916  3.3811 -3.8828
  414MOL0     H54618   2.357   3.951   4.450 -0.4949  0.1351  0.2541
  414MOL0     H54619   2.214   4.045   4.430  0.8215  1.8503  1.1078
  414MOL0     H54620   2.478   4.153   4.342  0.1853  0.1325  1.1271
  414MOL0     H54621   2.326   4.233   4.366 -1.6755 -1.3663 -0.0750
  414MOL0     H54622   2.514   4.116   4.582 -0.8462  0.0230 -0.2616
  414MOL0     H54623   2.351   4.149   4.623  0.1932 -0.8810 -1.1612
  414MOL0     H54624   2.429   4.381   4.498  0.5222 -1.9659 -3.3172
  414MOL0     H54625   2.586   4.335   4.535 -0.9939  4.2319 -0.1849
  414MOL0     H54626   2.360   4.354   4.718  0.0518 -0.9806 -0.4238
  414MOL0     H54627   2.502   4.262   4.764  2.7344  1.1409 -0.6617
  414MOL0     H54628   2.552   4.551   4.679  0.7778 -0.3898 -0.7900
  414MOL0     H54629   2.628   4.451   4.803 -0.9467  3.5617  2.1109
  414MOL0     H54630   2.406   3.591   4.450 -3.0487  2.3580  1.2610
  414MOL0     H54631   2.344   3.331   4.464 -2.6275  0.2203  2.1452
  414MOL0     H54632   2.143   2.972   4.257  1.2343 -2.5225 -0.6555
  414MOL0     H54633   2.128   2.733   4.276 -0.7608 -0.7636 -0.2427
  414MOL0     H54634   2.693   2.358   4.703 -0.7207  1.3354  2.4308
  414MOL0     H54635   2.850   2.364   4.506 -1.2725  0.9480  0.0176
  414MOL0     H54636   3.322   2.555   4.472  2.8351  1.3037  1.7096
  414MOL0     H54637   3.434   2.645   4.283 -1.5843 -0.3594 -2.3027
  414MOL0     H54638   3.473   2.494   3.937 -1.3623 -0.5995  0.3394
  414MOL0     H54639   3.573   2.351   3.960 -0.1423 -0.0251 -0.5983
  414MOL0     H54640   3.692   2.623   3.926 -2.3002 -0.4301  1.7328
  414MOL0     H54641   3.789   2.475   3.924  1.0451 -1.2355 -1.7464
  414MOL0     H54642   3.650   2.604   3.706 -2.9836  0.8815  4.3632
  414MOL0     H54643   3.579   2.464   3.715  0.1569  1.2015 -0.8822
  414MOL0     H54644   3.884   2.495   3.704 -1.9066  3.2401 -0.4068
  414MOL0     H54645   3.823   2.334   3.722 -1.0642 -0.4537 -0.2890
  414MOL0     H54646   3.746   2.417   3.306  0.4989  1.6277  0.8297
  414MOL0     H54647   3.527   2.242   4.145 -2.3498 -0.9933  0.2302
  414MOL0     H54648   3.391   2.149   4.312  2.6840 -0.2673 -1.4906
  415MOL0     O54649   8.146   3.105   4.374  0.3407  0.2306 -0.3216
  415MOL0     C54650   8.148   3.146   4.490  0.2905  0.5507  0.5740
  415MOL0     O54651   8.251   3.139   4.571 -0.0872  0.3027 -0.0706
  415MOL0     C54652   8.369   3.085   4.527 -0.2025  0.3461  0.4396
  415MOL0     C54653   8.433   3.123   4.405  0.0475  0.0909 -0.6480
  415MOL0     C54654   8.563   3.070   4.366 -0.2662 -0.3188 -0.0538
  415MOL0     C54655   8.617   2.980   4.448 -0.7535  0.1149  0.0040
  415MOL0     O54656   8.734   2.910   4.422  0.2484 -0.9111 -0.5696
  415MOL0     C54657   8.844   2.962   4.345 -0.5814  0.3494 -0.2352
  415MOL0     C54658   8.949   2.852   4.333 -0.5708  0.9841 -0.5847
  415MOL0     C54659   9.050   2.853   4.459  0.3978  0.1842  0.6138
  415MOL0     C54660   9.199   2.832   4.422 -0.0414 -0.5532  0.2912
  415MOL0     C54661   9.316   2.852   4.532 -0.2520 -0.3334  0.4059
  415MOL0     C54662   9.335   2.716   4.606  0.1675  1.1166  0.3644
  415MOL0     C54663   9.414   2.716   4.738 -0.1180  0.0242 -0.8728
  415MOL0     C54664   9.486   2.588   4.791  0.4756  0.3872  0.7686
  415MOL0     N54665   9.563   2.615   4.912  0.1801  0.8393 -0.0002
  415MOL0     C54666   9.506   2.622   5.045  0.9295  0.5442  0.4720
  415MOL0     C54667   9.614   2.637   5.122 -0.8714 -0.0824  1.0054
  415MOL0     C54668   9.601   2.639   5.275  0.6012 -0.3871  1.0862
  415MOL0     C54669   9.673   2.518   5.339  0.2105 -0.3499  0.3381
  415MOL0     C54670   9.688   2.535   5.497  0.1367 -0.2138 -0.2480
  415MOL0     C54671   9.730   2.409   5.555  1.3052  0.2476 -0.4282
  415MOL0     O54672   9.720   2.421   5.693  0.5147 -0.2588 -0.4495
  415MOL0     C54673   9.623   2.345   5.752 -0.4866  0.0564 -1.2029
  415MOL0     C54674   9.654   2.290   5.877  0.2393 -0.4460 -0.5095
  415MOL0     C54675   9.564   2.204   5.942 -0.6988 -1.1835 -0.5974
  415MOL0     C54676   9.440   2.173   5.890  0.3122 -0.6061 -0.0153
  415MOL0     C54677   9.350   2.087   5.972  0.3970 -0.0288  0.6751
  415MOL0     O54678   9.207   2.109   5.963 -0.6288 -0.2887 -0.8985
  415MOL0     C54679   9.116   2.021   6.020 -0.7499 -0.7336  0.7640
  415MOL0     C54680   9.000   2.071   6.072  0.5316  0.9166  0.0687
  415MOL0     C54681   8.906   1.988   6.136  0.4037 -0.6983  0.6963
  415MOL0     C54682   8.930   1.847   6.142  0.2676 -0.7731  0.5013
  415MOL0     O54683   8.834   1.778   6.207 -0.1788  0.1270  0.1675
  415MOL0     C54684   8.806   1.649   6.149 -0.0124  0.1148 -1.3518
  415MOL0     C54685   8.653   1.633   6.154 -0.7955 -0.1678 -0.1877
  415MOL0     C54686   8.582   1.621   6.296 -0.9151  0.4471  0.4476
  415MOL0     C54687   8.437   1.655   6.292  0.6587 -0.7460 -0.2951
  415MOL0     C54688   8.363   1.659   6.429  0.7650  1.1720 -0.1343
  415MOL0     C54689   8.368   1.526   6.497  1.1462  0.5111 -0.7635
  415MOL0     C54690   8.291   1.520   6.632  0.4332 -0.6437 -0.3236
  415MOL0     C54691   8.273   1.382   6.701 -0.0214  1.0722  0.0966
  415MOL0    Cl54692   8.400   1.268   6.654  0.0809  0.1978 -0.2938
  415MOL0     C54693   9.041   1.790   6.078 -0.3163 -0.3623  0.4433
  415MOL0     C54694   9.134   1.883   6.015 -0.5240  1.0303 -1.3477
  415MOL0     O54695   9.399   1.999   6.040  0.0804  0.1261 -0.2788
  415MOL0     C54696   9.398   2.226   5.765 -0.0219 -0.7204 -0.2822
  415MOL0     C54697   9.484   2.313   5.695 -0.0388 -1.5000 -0.2652
  415MOL0     N54698   9.731   2.644   5.036 -0.3134  0.2251 -0.3107
  415MOL0     N54699   9.697   2.625   4.911  0.6828 -1.0037  1.4199
  415MOL0     C54700   8.567   2.947   4.575 -0.4659  0.7009 -0.8697
  415MOL0     C54701   8.439   2.996   4.611 -0.5872 -0.3300  0.1662
  415MOL0     C54702   8.023   3.181   4.554  1.6356 -0.8983  0.5980
  415MOL0     C54703   8.024   3.221   4.693 -0.4786 -0.1345  0.7117
  415MOL0     C54704   7.902   3.263   4.752  0.0479  0.2957 -0.1469
  415MOL0     C54705   7.780   3.251   4.689 -0.3552  0.7719  0.2574
  415MOL0     O54706   7.656   3.283   4.736 -0.0703 -0.3436  0.0272
  415MOL0     C54707   7.637   3.307   4.879  0.1692  0.4593 -0.6694
  415MOL0     C54708   7.488   3.331   4.912  0.3028  0.0602  0.1702
  415MOL0     C54709   7.413   3.215   4.981  0.0686 -0.4921  0.2269
  415MOL0     C54710   7.328   3.259   5.102  1.0863  0.2370  0.6487
  415MOL0     C54711   7.199   3.325   5.072  0.6517  0.3126  0.4228
  415MOL0     C54712   7.092   3.383   5.054 -0.5814  0.4498 -0.2043
  415MOL0     C54713   7.783   3.201   4.561  0.0084 -1.1684 -0.5871
  415MOL0     C54714   7.902   3.165   4.484  0.3154  0.4329 -0.5162
  415MOL0     H54715   8.373   3.190   4.344  0.2276  0.4861 -0.3973
  415MOL0     H54716   8.602   3.104   4.270 -1.3704  2.1640  0.3161
  415MOL0     H54717   8.881   3.057   4.385 -0.2518 -0.8934  2.6866
  415MOL0     H54718   8.820   2.986   4.242  1.3787 -1.7579 -1.2766
  415MOL0     H54719   9.016   2.866   4.248  0.0051 -2.1395 -0.7731
  415MOL0     H54720   8.910   2.750   4.331  1.0394  0.0709  3.6492
  415MOL0     H54721   9.022   2.775   4.530 -0.0040 -0.9931 -0.7862
  415MOL0     H54722   9.044   2.946   4.515  2.4963  0.1668  0.9622
  415MOL0     H54723   9.213   2.745   4.357  1.1689  0.1108 -0.3867
  415MOL0     H54724   9.220   2.915   4.354 -0.3879 -0.4022  0.3679
  415MOL0     H54725   9.299   2.929   4.608  0.6013  0.4352 -0.1688
  415MOL0     H54726   9.416   2.877   4.495  1.2508 -0.8662  3.7387
  415MOL0     H54727   9.373   2.633   4.546 -1.8471 -1.7770  2.7519
  415MOL0     H54728   9.234   2.680   4.627  0.7036 -0.6071  0.1566
  415MOL0     H54729   9.496   2.786   4.718  1.7809 -1.6457  0.5954
  415MOL0     H54730   9.352   2.769   4.811 -2.5367 -1.5988 -1.6245
  415MOL0     H54731   9.563   2.550   4.724  1.3061  1.1913  1.2375
  415MOL0     H54732   9.415   2.505   4.798 -0.1116  0.6421 -1.5156
  415MOL0     H54733   9.406   2.606   5.083  0.3929 -0.7577 -1.3207
  415MOL0     H54734   9.497   2.642   5.306  0.5276  2.6768  0.8383
  415MOL0     H54735   9.639   2.737   5.308  0.2991 -0.1289  0.6760
  415MOL0     H54736   9.775   2.513   5.301 -0.7108  1.2851 -2.6139
  415MOL0     H54737   9.616   2.428   5.315 -0.4757  0.8916 -3.2428
  415MOL0     H54738   9.755   2.618   5.523  1.7257 -1.6974  0.5784
  415MOL0     H54739   9.586   2.550   5.534 -0.2024 -0.3702 -1.1006
  415MOL0     H54740   9.831   2.384   5.520  0.9008  0.9030 -2.1800
  415MOL0     H54741   9.674   2.325   5.512  0.9671  2.0442 -3.7669
  415MOL0     H54742   9.746   2.322   5.924  0.2732  1.6791 -1.8741
  415MOL0     H54743   9.609   2.181   6.038 -1.7072  1.3533  0.5433
  415MOL0     H54744   8.964   2.172   6.052 -2.1270 -0.2483 -1.6366
  415MOL0     H54745   8.815   2.024   6.182  0.1030 -0.0712 -0.3545
  415MOL0     H54746   8.842   1.572   6.219 -0.7147  0.8601 -0.1325
  415MOL0     H54747   8.842   1.640   6.046 -0.5602 -0.4946 -1.4967
  415MOL0     H54748   8.626   1.543   6.098 -0.7147 -0.6528  0.5517
  415MOL0     H54749   8.611   1.721   6.104  3.9490  0.9344 -2.8753
  415MOL0     H54750   8.633   1.675   6.376  0.3283 -0.1667  0.0816
  415MOL0     H54751   8.593   1.514   6.316 -1.3735 -0.4399 -3.2750
  415MOL0     H54752   8.424   1.755   6.251  0.5433 -0.3603  0.6498
  415MOL0     H54753   8.372   1.598   6.225 -2.8214  3.1855 -0.7040
  415MOL0     H54754   8.261   1.682   6.398  0.7515 -1.1146 -2.1173
  415MOL0     H54755   8.401   1.734   6.498  3.1127  0.5291 -0.6347
  415MOL0     H54756   8.472   1.502   6.521  0.6780 -1.1610 -0.2511
  415MOL0     H54757   8.319   1.453   6.432  1.1710  0.6045 -0.8877
  415MOL0     H54758   8.338   1.584   6.707 -1.6772  1.3769 -0.6082
  415MOL0     H54759   8.197   1.575   6.624 -0.6087 -1.6081  3.3604
  415MOL0     H54760   8.171   1.344   6.683  0.2097  0.7234 -0.5134
  415MOL0     H54761   8.277   1.398   6.809  0.2864  1.5887  0.0120
  415MOL0     H54762   9.067   1.684   6.072  2.1984  0.2580 -1.4238
  415MOL0     H54763   9.217   1.835   5.963 -2.8210 -1.1543 -3.2618
  415MOL0     H54764   9.293   2.223   5.735 -0.1635 -0.7457  0.2054
  415MOL0     H54765   9.441   2.357   5.606  2.3576  0.3197 -0.6116
  415MOL0     H54766   8.612   2.867   4.632  0.0701  0.2795 -1.8661
  415MOL0     H54767   8.382   2.962   4.698 -0.5210  3.0768  1.7141
  415MOL0     H54768   8.124   3.220   4.737  0.4697 -1.8981 -1.2871
  415MOL0     H54769   7.917   3.308   4.849  0.0204 -0.8839  0.4292
  415MOL0     H54770   7.697   3.395   4.905  0.1629 -0.0943  1.3176
  415MOL0     H54771   7.673   3.219   4.934 -1.1587  1.9896  2.9431
  415MOL0     H54772   7.499   3.414   4.982  4.3170 -1.5694  1.7471
  415MOL0     H54773   7.435   3.367   4.823  1.3688  0.7843 -0.1791
  415MOL0     H54774   7.484   3.140   5.016 -0.2332  0.0534  2.1495
  415MOL0     H54775   7.343   3.177   4.906 -0.0913 -1.4350  0.8439
  415MOL0     H54776   7.296   3.163   5.143  1.7833 -1.2023 -1.9467
  415MOL0     H54777   7.382   3.304   5.186 -0.7453  0.2105  1.9004
  415MOL0     H54778   7.001   3.435   5.033  0.4524  2.8111  0.7515
  415MOL0     H54779   7.680   3.195   4.527  0.0915 -4.1336 -0.5588
  415MOL0     H54780   7.899   3.139   4.379 -3.5763  3.9063 -1.5134
  416MOL0     O54781   6.759   7.833   1.979 -0.3384 -0.1599 -0.5083
  416MOL0     C54782   6.668   7.884   2.039 -0.2809  0.1323 -1.1653
  416MOL0     O54783   6.593   7.823   2.139 -0.4467 -0.2990 -1.2144
  416MOL0     C54784   6.583   7.689   2.141 -0.4158 -0.4856  0.4010
  416MOL0     C54785   6.525   7.631   2.035 -0.6274  0.6745 -0.6164
  416MOL0     C54786   6.515   7.493   2.031 -0.4328 -0.2063 -0.1820
  416MOL0     C54787   6.552   7.413   2.148 -0.0278 -0.6328 -0.6137
  416MOL0     O54788   6.507   7.283   2.159 -0.3685  0.5053 -0.0147
  416MOL0     C54789   6.377   7.239   2.136 -0.0137 -0.6539  0.2211
  416MOL0     C54790   6.335   7.111   2.200  0.0171  0.4970 -0.4423
  416MOL0     C54791   6.389   6.997   2.106  0.3855  0.7248 -0.5922
  416MOL0     C54792   6.335   6.858   2.158 -0.3158  0.3927  0.1734
  416MOL0     C54793   6.417   6.805   2.270 -0.5652  0.6406  0.3213
  416MOL0     C54794   6.336   6.705   2.359 -0.7007  0.2105  0.3859
  416MOL0     C54795   6.427   6.625   2.456  0.0712  0.5188  0.5454
  416MOL0     C54796   6.343   6.529   2.554 -0.3971  0.5048  0.0850
  416MOL0     N54797   6.417   6.470   2.654  0.9159  0.2992 -0.1311
  416MOL0     C54798   6.543   6.509   2.689 -0.3861  0.8629  0.8553
  416MOL0     C54799   6.569   6.423   2.789  0.3805  0.2770  0.3414
  416MOL0     C54800   6.702   6.421   2.859 -0.4688 -0.9094  0.6121
  416MOL0     C54801   6.686   6.472   3.008 -0.2800  0.3898  0.2955
  416MOL0     C54802   6.812   6.505   3.089 -0.0735 -0.9633  0.7460
  416MOL0     C54803   6.899   6.382   3.106 -0.0019  0.1660 -0.3992
  416MOL0     O54804   7.016   6.413   3.175 -0.2302 -0.2760 -0.2563
  416MOL0     C54805   7.106   6.319   3.176 -0.0745 -0.8262 -0.4470
  416MOL0     C54806   7.161   6.265   3.063  0.3908 -0.5851  0.2639
  416MOL0     C54807   7.264   6.183   3.086 -0.3296  0.0533 -0.4829
  416MOL0     C54808   7.319   6.149   3.213  0.1284 -0.4778 -0.1192
  416MOL0     C54809   7.425   6.053   3.231  0.3999  0.5607 -1.0209
  416MOL0     O54810   7.481   6.001   3.126 -0.6464 -0.6857  0.5107
  416MOL0     C54811   7.591   5.925   3.148 -0.4981  0.3366  0.6368
  416MOL0     C54812   7.565   5.788   3.158 -0.6143  0.4409 -0.6133
  416MOL0     C54813   7.666   5.708   3.207 -0.4936  0.5278  0.9023
  416MOL0     C54814   7.798   5.757   3.210  0.6408  0.0581  0.3884
  416MOL0     O54815   7.900   5.670   3.232  0.0967 -0.2659 -0.8045
  416MOL0     C54816   8.025   5.708   3.289  0.6877 -0.4773 -0.2026
  416MOL0     C54817   8.124   5.759   3.171  0.2755  0.4669  0.0632
  416MOL0     C54818   8.270   5.709   3.189  0.5440 -0.1323  1.0078
  416MOL0     C54819   8.368   5.754   3.077 -0.7829  0.1827 -0.4372
  416MOL0     C54820   8.509   5.713   3.116 -0.4901 -0.1230  0.2507
  416MOL0     C54821   8.623   5.763   3.027  0.3329 -0.0005 -0.4497
  416MOL0     C54822   8.751   5.721   3.083 -0.4724 -0.7745 -0.5086
  416MOL0     C54823   8.869   5.805   3.044  1.2263  0.3802 -1.1052
  416MOL0    Cl54824   8.901   5.764   2.882  0.0379  0.3494 -0.0774
  416MOL0     C54825   7.828   5.886   3.158 -0.4547 -0.1886 -0.5164
  416MOL0     C54826   7.719   5.973   3.139  0.6802 -0.4696 -0.6408
  416MOL0     O54827   7.464   6.042   3.350 -0.1854  0.0665 -0.3698
  416MOL0     C54828   7.256   6.201   3.328 -0.0114  0.1301  0.4928
  416MOL0     C54829   7.147   6.282   3.310  0.0500 -0.4608  0.2612
  416MOL0     N54830   6.464   6.347   2.819 -0.5139 -0.3668  0.0226
  416MOL0     N54831   6.381   6.361   2.736 -0.8282 -0.0880  0.1186
  416MOL0     C54832   6.598   7.480   2.259 -0.4131 -0.0414  0.1005
  416MOL0     C54833   6.615   7.616   2.254  0.2297 -0.5138 -0.7343
  416MOL0     C54834   6.641   8.031   2.004  0.3836 -0.4093  0.5625
  416MOL0     C54835   6.549   8.111   2.068  0.1116 -0.3064  0.4515
  416MOL0     C54836   6.536   8.246   2.041 -0.0650 -0.7319  0.0249
  416MOL0     C54837   6.613   8.305   1.946 -0.2036 -0.5987  0.5908
  416MOL0     O54838   6.620   8.442   1.924  0.0305  0.5025 -0.7017
  416MOL0     C54839   6.615   8.529   2.044 -0.4622 -0.5878  1.2567
  416MOL0     C54840   6.696   8.659   2.021 -0.3642  0.5767  0.2618
  416MOL0     C54841   6.654   8.732   1.896  1.0592  0.5323 -0.0417
  416MOL0     C54842   6.752   8.722   1.775 -0.9416  0.5151  0.7255
  416MOL0     C54843   6.722   8.837   1.683 -0.2466 -1.3552 -0.1682
  416MOL0     C54844   6.698   8.939   1.608  0.4726 -0.2204 -0.0114
  416MOL0     C54845   6.704   8.228   1.871  0.2521  0.5736  0.4536
  416MOL0     C54846   6.719   8.090   1.901 -0.2463 -0.6813  0.5154
  416MOL0     H54847   6.504   7.684   1.943  0.4787  1.1520 -0.6076
  416MOL0     H54848   6.466   7.463   1.939 -1.1769  0.5898 -0.0527
  416MOL0     H54849   6.362   7.231   2.027 -2.2878  0.2864  0.4207
  416MOL0     H54850   6.311   7.313   2.181  0.7025 -0.2238  0.5676
  416MOL0     H54851   6.226   7.099   2.198  0.0880 -0.3837 -3.0923
  416MOL0     H54852   6.377   7.114   2.301 -2.0655  2.8194  0.4471
  416MOL0     H54853   6.498   6.990   2.102  0.2608 -1.8590 -3.3231
  416MOL0     H54854   6.343   7.012   2.008 -1.3817 -1.9005 -0.2814
  416MOL0     H54855   6.231   6.870   2.187 -0.0579 -1.1938  1.9530
  416MOL0     H54856   6.337   6.782   2.080 -0.0630 -0.1267  0.6775
  416MOL0     H54857   6.435   6.900   2.323  0.4262  2.2226 -2.6057
  416MOL0     H54858   6.515   6.764   2.244  1.0879  2.1840  3.4612
  416MOL0     H54859   6.286   6.628   2.300 -0.2962 -0.0858  0.4240
  416MOL0     H54860   6.263   6.756   2.423 -1.7018  0.4979 -0.9491
  416MOL0     H54861   6.509   6.575   2.405 -1.7678 -2.6117  0.4023
  416MOL0     H54862   6.456   6.706   2.524 -0.5979  2.6256 -1.5474
  416MOL0     H54863   6.302   6.449   2.492 -1.5487  2.8615 -2.4306
  416MOL0     H54864   6.259   6.575   2.607 -0.3774 -0.3045  0.8376
  416MOL0     H54865   6.609   6.579   2.639  1.8544 -1.0911  0.8873
  416MOL0     H54866   6.767   6.496   2.813 -0.2281 -1.4102  0.1255
  416MOL0     H54867   6.749   6.323   2.856  1.1732 -0.1324 -0.3078
  416MOL0     H54868   6.632   6.393   3.061 -1.3736  1.3136  0.6126
  416MOL0     H54869   6.619   6.558   2.999  0.6675  1.1282  0.1431
  416MOL0     H54870   6.865   6.573   3.021 -5.2489 -0.5005 -3.5059
  416MOL0     H54871   6.790   6.560   3.181 -2.4957 -0.2843 -0.1630
  416MOL0     H54872   6.918   6.342   3.006 -1.5924 -0.1440 -0.6075
  416MOL0     H54873   6.839   6.298   3.142  0.8175 -2.6509 -4.8321
  416MOL0     H54874   7.131   6.301   2.965  0.3794  0.4821  0.6425
  416MOL0     H54875   7.320   6.144   3.002  1.4803  0.0335  0.6674
  416MOL0     H54876   7.463   5.754   3.166 -1.2738  2.5510  0.6577
  416MOL0     H54877   7.648   5.603   3.229  3.0853 -0.0822  1.4883
  416MOL0     H54878   8.069   5.614   3.324 -1.1637 -1.1250  0.5542
  416MOL0     H54879   8.025   5.775   3.375 -1.4397 -0.6866  0.0221
  416MOL0     H54880   8.129   5.869   3.164  0.4763  0.3856 -1.6698
  416MOL0     H54881   8.096   5.724   3.071 -2.4520  5.5423 -1.3250
  416MOL0     H54882   8.275   5.600   3.176  3.3973 -0.2031  1.9893
  416MOL0     H54883   8.304   5.728   3.291  1.7719 -1.5236  0.8820
  416MOL0     H54884   8.335   5.721   2.979 -0.3644  1.5734 -1.0663
  416MOL0     H54885   8.375   5.861   3.060 -2.2672  0.6922  1.7520
  416MOL0     H54886   8.507   5.604   3.114  0.2037 -0.1323 -0.0985
  416MOL0     H54887   8.529   5.729   3.222  0.3514 -1.2472  0.2740
  416MOL0     H54888   8.611   5.871   3.019  1.6515  0.1262 -0.8151
  416MOL0     H54889   8.619   5.717   2.928 -1.1664 -2.2173  0.5366
  416MOL0     H54890   8.740   5.736   3.190  3.3570  1.7269 -0.2636
  416MOL0     H54891   8.759   5.613   3.064  2.1096 -1.4540  3.3287
  416MOL0     H54892   8.953   5.792   3.112  0.4168  2.3330  0.3620
  416MOL0     H54893   8.849   5.911   3.062  0.6268 -0.1993  2.3283
  416MOL0     H54894   7.931   5.920   3.155 -0.4966 -0.0612 -0.4798
  416MOL0     H54895   7.745   6.076   3.116  0.4212  0.1481  1.5644
  416MOL0     H54896   7.297   6.181   3.426 -0.2067  1.4122  0.8592
  416MOL0     H54897   7.095   6.316   3.400 -0.0476 -1.6053  0.6459
  416MOL0     H54898   6.604   7.419   2.349 -1.7872 -1.4202 -0.6736
  416MOL0     H54899   6.652   7.668   2.342  0.1679 -1.3265 -0.2263
  416MOL0     H54900   6.474   8.078   2.140 -1.7538  3.7571  0.6417
  416MOL0     H54901   6.463   8.300   2.100  2.7695  2.4830  0.9155
  416MOL0     H54902   6.652   8.463   2.123 -1.1380 -2.5186  0.0389
  416MOL0     H54903   6.519   8.575   2.068 -0.7608 -1.5036  1.8365
  416MOL0     H54904   6.682   8.728   2.104 -0.6323  1.8849 -0.8468
  416MOL0     H54905   6.802   8.635   2.026 -0.5878 -0.3773  0.7110
  416MOL0     H54906   6.648   8.838   1.924 -0.2465  0.7882 -1.2094
  416MOL0     H54907   6.556   8.693   1.867  0.5584  1.3011  0.5607
  416MOL0     H54908   6.856   8.734   1.809 -1.2608  1.7317  1.3192
  416MOL0     H54909   6.745   8.629   1.717  0.7314  0.1226  1.0924
  416MOL0     H54910   6.681   9.024   1.545 -3.3935  0.4386  1.6091
  416MOL0     H54911   6.770   8.278   1.801  0.1756  1.6160  1.1056
  416MOL0     H54912   6.813   8.048   1.869 -0.6254  0.2667 -2.0160
  417MOL0     O54913   9.647   7.981  10.745  0.3626 -0.1583 -0.6018
  417MOL0     C54914   9.749   7.932  10.788  0.0972 -0.0102  0.0976
  417MOL0     O54915   9.841   7.990  10.876 -0.5242 -0.8218 -0.7770
  417MOL0     C54916   9.814   8.107  10.944  1.0790  0.1712 -1.4476
  417MOL0     C54917   9.683   8.154  10.967  0.7932  1.0248 -0.2836
  417MOL0     C54918   9.668   8.266  11.050  0.4835 -0.2884  0.8605
  417MOL0     C54919   9.769   8.335  11.105  0.2664  0.2420 -0.7136
  417MOL0     O54920   9.742   8.453  11.164 -0.7075 -0.1054  0.1261
  417MOL0     C54921   9.761   8.445  11.303 -0.6986  0.5462  0.7981
  417MOL0     C54922   9.630   8.409  11.380  0.5955  0.3179  1.2714
  417MOL0     C54923   9.629   8.265  11.437  0.4690 -0.0263  0.2660
  417MOL0     C54924   9.502   8.226  11.517  0.0445 -0.2347  0.0231
  417MOL0     C54925   9.378   8.227  11.431  0.3494  0.0343  1.0251
  417MOL0     C54926   9.277   8.128  11.494  0.6148 -0.1145  0.2527
  417MOL0     C54927   9.154   8.093  11.396 -0.2697 -0.2617 -0.8167
  417MOL0     C54928   9.092   8.219  11.331  0.6383 -0.4099  0.4103
  417MOL0     N54929   8.952   8.208  11.315 -0.5639  0.4896  0.3368
  417MOL0     C54930   8.868   8.283  11.387 -0.4352  0.1925  0.1054
  417MOL0     C54931   8.748   8.263  11.336 -0.1028  0.2239 -0.5058
  417MOL0     C54932   8.620   8.332  11.387  0.6422  1.2125  0.3650
  417MOL0     C54933   8.496   8.238  11.384 -0.0989 -0.9791  0.0759
  417MOL0     C54934   8.365   8.302  11.443  0.6583  0.2368 -0.3019
  417MOL0     C54935   8.245   8.211  11.420  0.6739  0.5153 -0.5731
  417MOL0     O54936   8.135   8.252  11.511  0.5331 -0.6217  0.1754
  417MOL0     C54937   8.013   8.186  11.503  0.0319  0.7041  0.0634
  417MOL0     C54938   7.980   8.095  11.400  0.5237  0.1074  0.2354
  417MOL0     C54939   7.857   8.034  11.400 -0.1298 -0.0675  0.3255
  417MOL0     C54940   7.756   8.058  11.506  0.4353 -0.4938 -0.6851
  417MOL0     C54941   7.630   7.977  11.511  0.1067  1.0205  0.1454
  417MOL0     O54942   7.546   8.003  11.613  0.2433  0.0598  0.8052
  417MOL0     C54943   7.410   7.956  11.618 -0.0523  0.9411  0.8640
  417MOL0     C54944   7.386   7.821  11.607  0.4654 -0.0530  1.1136
  417MOL0     C54945   7.257   7.765  11.610 -0.5618  0.5941  0.3208
  417MOL0     C54946   7.149   7.854  11.620 -0.6716 -0.6656  0.0247
  417MOL0     O54947   7.023   7.806  11.640  0.1991 -0.9778  0.4467
  417MOL0     C54948   6.907   7.880  11.672  0.1370 -0.3052  0.6838
  417MOL0     C54949   6.776   7.811  11.690 -1.4044 -0.4935 -0.8299
  417MOL0     C54950   6.786   7.694  11.778 -0.2487 -0.4079  0.8390
  417MOL0     C54951   6.644   7.639  11.804 -0.2419  0.3869 -0.3696
  417MOL0     C54952   6.664   7.500  11.881 -0.1072 -0.0983 -0.8707
  417MOL0     C54953   6.726   7.530  12.022 -0.4739 -0.1288  0.6811
  417MOL0     C54954   6.771   7.393  12.083 -0.0893 -0.2093  0.3954
  417MOL0     C54955   6.823   7.409  12.232  0.5232 -0.0917  1.1229
  417MOL0    Cl54956   6.919   7.274  12.265 -0.2926  0.1700  0.3399
  417MOL0     C54957   7.177   8.002  11.625  0.2286  0.1043 -0.5380
  417MOL0     C54958   7.309   8.047  11.630  1.2521  0.6021  0.2563
  417MOL0     O54959   7.597   7.901  11.418  0.6878 -0.2748 -0.0673
  417MOL0     C54960   7.786   8.148  11.611 -0.8038  0.3276 -0.0146
  417MOL0     C54961   7.910   8.212  11.594  0.1456  0.0501 -0.4202
  417MOL0     N54962   8.754   8.174  11.242 -0.3750  0.8534 -0.1070
  417MOL0     N54963   8.879   8.142  11.228 -0.3794 -0.0221  0.0237
  417MOL0     C54964   9.901   8.289  11.084 -0.9006 -0.4130 -0.2714
  417MOL0     C54965   9.925   8.168  11.006 -0.4474  0.4931  0.0831
  417MOL0     C54966   9.784   7.805  10.732 -0.1989 -0.4177 -0.1785
  417MOL0     C54967   9.693   7.698  10.738  0.1012 -0.2726 -0.2045
  417MOL0     C54968   9.725   7.571  10.690  0.2605 -0.3705 -0.7733
  417MOL0     C54969   9.861   7.541  10.658 -0.6468 -0.1613  0.0363
  417MOL0     O54970   9.914   7.422  10.618  0.0150 -0.2370  0.4719
  417MOL0     C54971   9.815   7.324  10.594 -0.2878  0.5656 -1.3242
  417MOL0     C54972   9.889   7.203  10.520  0.3193  0.4228  1.2632
  417MOL0     C54973   9.982   7.106  10.594 -0.2517  0.3421  0.8007
  417MOL0     C54974   9.936   7.041  10.727  0.2800 -0.1049 -0.3640
  417MOL0     C54975  10.028   6.945  10.784 -0.1304  0.0379  0.6151
  417MOL0     C54976  10.098   6.862  10.828 -0.3526  0.4334 -0.9199
  417MOL0     C54977   9.949   7.646  10.656 -0.3293  1.0000 -0.0475
  417MOL0     C54978   9.913   7.776  10.697  1.6137 -0.5414  0.0476
  417MOL0     H54979   9.592   8.097  10.949 -2.0309  4.1914  2.5195
  417MOL0     H54980   9.564   8.291  11.068  0.3083  1.0080 -1.6330
  417MOL0     H54981   9.809   8.541  11.328  2.0173 -0.7121  0.7473
  417MOL0     H54982   9.837   8.371  11.329  0.3691  1.9769  1.9897
  417MOL0     H54983   9.549   8.408  11.307 -2.0134 -0.2693  4.0003
  417MOL0     H54984   9.595   8.495  11.438 -2.3302  1.0007 -1.2335
  417MOL0     H54985   9.718   8.241  11.496  0.4401 -0.1417  0.2609
  417MOL0     H54986   9.645   8.208  11.345  0.6174  0.7467 -0.1966
  417MOL0     H54987   9.516   8.123  11.551  2.0036 -0.0993 -0.2523
  417MOL0     H54988   9.477   8.292  11.601 -2.8046 -1.7450  0.4980
  417MOL0     H54989   9.401   8.191  11.330 -0.7601  1.0862  0.3763
  417MOL0     H54990   9.328   8.324  11.424 -1.4474 -0.8708  0.6063
  417MOL0     H54991   9.234   8.164  11.588  3.6357  1.4955  1.1585
  417MOL0     H54992   9.332   8.038  11.524  4.2075  0.1800 -4.3786
  417MOL0     H54993   9.194   8.031  11.314 -0.1980  0.1383 -1.0874
  417MOL0     H54994   9.079   8.040  11.455  2.0542 -2.7075  0.1471
  417MOL0     H54995   9.136   8.219  11.230 -0.3516 -4.2909 -0.1698
  417MOL0     H54996   9.095   8.317  11.381 -1.7536  0.5526 -1.1329
  417MOL0     H54997   8.892   8.349  11.469  3.3820  0.3101 -0.9003
  417MOL0     H54998   8.607   8.423  11.328 -2.7796  1.2944  1.0496
  417MOL0     H54999   8.641   8.348  11.493  0.5823  0.3705  0.5181
  417MOL0     H55000   8.528   8.150  11.440  0.0659 -0.0373  1.5072
  417MOL0     H55001   8.484   8.215  11.277  0.2116 -0.6148 -0.0402
  417MOL0     H55002   8.380   8.322  11.549 -0.8937  1.8614 -0.3346
  417MOL0     H55003   8.344   8.397  11.392 -1.1904 -0.5873 -1.1531
  417MOL0     H55004   8.262   8.105  11.439 -0.0021  0.1311 -1.9230
  417MOL0     H55005   8.214   8.216  11.315 -0.3681 -1.8764 -0.4465
  417MOL0     H55006   8.058   8.065  11.331  1.3914 -2.0369  1.9968
  417MOL0     H55007   7.847   7.953  11.329  3.9002 -0.2883 -0.1805
  417MOL0     H55008   7.469   7.751  11.594 -0.5399 -1.2302  0.8229
  417MOL0     H55009   7.235   7.660  11.595  0.7470  0.3183  0.1858
  417MOL0     H55010   6.899   7.959  11.596 -3.7307 -1.8279 -0.7069
  417MOL0     H55011   6.924   7.934  11.767  0.4299  0.9929 -0.0808
  417MOL0     H55012   6.735   7.778  11.594 -0.7919 -2.9865 -0.3175
  417MOL0     H55013   6.706   7.880  11.737 -1.6081 -1.4422  0.3040
  417MOL0     H55014   6.827   7.725  11.874 -2.2135  1.0241  1.2744
  417MOL0     H55015   6.853   7.625  11.726  0.5142  1.8102 -1.3625
  417MOL0     H55016   6.582   7.708  11.862 -3.2873  0.2963 -3.2045
  417MOL0     H55017   6.609   7.618  11.703 -1.0025 -3.6462  0.5581
  417MOL0     H55018   6.734   7.436  11.827 -0.1764 -0.8084 -0.1376
  417MOL0     H55019   6.562   7.461  11.882 -2.1673  4.6276 -1.0411
  417MOL0     H55020   6.647   7.558  12.092  0.6411 -2.0302  2.8450
  417MOL0     H55021   6.817   7.590  12.028  0.6840 -1.6632 -0.6503
  417MOL0     H55022   6.690   7.320  12.075  0.8792 -1.2152 -0.5316
  417MOL0     H55023   6.862   7.362  12.030  0.8860 -1.5427  2.7276
  417MOL0     H55024   6.743   7.415  12.306  0.4433  2.0375  0.9201
  417MOL0     H55025   6.883   7.498  12.251 -1.0050  1.5598 -1.1379
  417MOL0     H55026   7.087   8.060  11.607 -0.1434 -0.7138 -1.3726
  417MOL0     H55027   7.324   8.154  11.640  3.3972  0.1098  4.8384
  417MOL0     H55028   7.730   8.163  11.703 -1.8930 -1.4270 -0.3686
  417MOL0     H55029   7.934   8.285  11.670 -2.6418  0.6302  0.0080
  417MOL0     H55030   9.982   8.341  11.133  0.1985 -2.4222  0.1258
  417MOL0     H55031  10.029   8.140  10.993  0.3596  2.2850  2.0914
  417MOL0     H55032   9.600   7.708  10.792  0.9364 -0.8064  1.4025
  417MOL0     H55033   9.649   7.493  10.696 -0.6094  0.3521 -1.9829
  417MOL0     H55034   9.735   7.367  10.534 -1.9392  0.0176  0.3971
  417MOL0     H55035   9.777   7.282  10.688 -0.3021  1.2146 -1.0318
  417MOL0     H55036   9.811   7.133  10.490 -0.8276  2.7711 -1.7375
  417MOL0     H55037   9.944   7.240  10.433 -1.0134  0.7942  0.5627
  417MOL0     H55038  10.067   7.170  10.620  0.4019 -1.1093  2.3786
  417MOL0     H55039  10.013   7.030  10.522  0.2844  3.4087 -2.5052
  417MOL0     H55040   9.927   7.123  10.799  3.2683  1.7727 -1.9013
  417MOL0     H55041   9.842   6.992  10.699 -0.3342  1.0810 -0.4693
  417MOL0     H55042  10.182   6.816  10.875 -1.1371 -0.8712 -0.7560
  417MOL0     H55043  10.044   7.613  10.616 -0.6801 -0.3482  0.2046
  417MOL0     H55044   9.993   7.849  10.708  0.9241  0.3592 -0.7610
  418MOL0     O55045  11.087   2.619   0.732  0.2979  0.5349 -0.5931
  418MOL0     C55046  11.089   2.577   0.849 -0.3602  0.4358  0.4686
  418MOL0     O55047  11.045   2.646   0.958 -0.5350 -0.3071  0.3268
  418MOL0     C55048  11.022   2.783   0.967  0.8392 -0.2739 -0.4795
  418MOL0     C55049  11.015   2.882   0.867 -0.2948 -0.3965 -0.1392
  418MOL0     C55050  10.999   3.020   0.910 -0.5735  0.2587 -0.3320
  418MOL0     C55051  10.991   3.063   1.040 -0.4746  0.5133 -0.5797
  418MOL0     O55052  10.969   3.193   1.069  0.0812  0.6940 -0.7373
  418MOL0     C55053  10.846   3.211   1.129  0.6750 -0.5113  0.6360
  418MOL0     C55054  10.839   3.370   1.145  0.3120 -0.5229  0.4226
  418MOL0     C55055  10.961   3.439   1.212  1.1623  0.1141  0.1328
  418MOL0     C55056  10.936   3.591   1.255  0.2888 -0.4910 -0.1238
  418MOL0     C55057  10.930   3.603   1.410 -0.0279  0.3245 -0.7726
  418MOL0     C55058  11.069   3.579   1.473 -0.0289 -0.8927  0.2511
  418MOL0     C55059  11.082   3.654   1.608 -0.3680 -0.2265  0.0759
  418MOL0     C55060  10.987   3.610   1.725  0.5356  0.1024  0.5368
  418MOL0     N55061  11.014   3.474   1.773  0.3643  0.2756  0.5527
  418MOL0     C55062  11.136   3.402   1.746  0.3931 -0.2652 -0.5120
  418MOL0     C55063  11.087   3.280   1.760 -0.8868  0.7244  0.0058
  418MOL0     C55064  11.160   3.144   1.780  0.1593  0.9913  0.0575
  418MOL0     C55065  11.235   3.095   1.657  0.0235 -0.6745 -0.8219
  418MOL0     C55066  11.127   3.033   1.566 -0.5999  0.3471 -0.4597
  418MOL0     C55067  11.146   2.880   1.573 -0.7230 -0.0926 -0.5904
  418MOL0     O55068  11.042   2.826   1.490 -0.0278 -0.3373 -0.1172
  418MOL0     C55069  11.043   2.691   1.465 -0.8082 -0.2847  0.9617
  418MOL0     C55070  10.925   2.645   1.417 -0.0490  0.6346 -0.0246
  418MOL0     C55071  10.917   2.500   1.389  0.2656  0.9545 -0.8345
  418MOL0     C55072  11.016   2.410   1.430 -0.1636 -0.6674 -0.5242
  418MOL0     C55073  11.008   2.270   1.397 -1.9703  0.6461 -0.3393
  418MOL0     O55074  11.054   2.182   1.488  0.2307  0.8104  0.6371
  418MOL0     C55075  11.041   2.046   1.464  0.3844 -0.8322  0.5541
  418MOL0     C55076  10.928   1.975   1.506  0.0750  0.3509 -0.2320
  418MOL0     C55077  10.916   1.845   1.481 -0.0780 -0.1269 -0.7626
  418MOL0     C55078  11.007   1.778   1.395  0.0347  0.6504 -0.7059
  418MOL0     O55079  10.988   1.644   1.365 -0.8367  0.4438  0.0042
  418MOL0     C55080  10.947   1.542   1.468 -0.6308 -0.3325 -0.7302
  418MOL0     C55081  10.829   1.458   1.421  0.1824 -0.0052  0.3286
  418MOL0     C55082  10.725   1.459   1.537  0.0957 -0.1583  0.9151
  418MOL0     C55083  10.735   1.347   1.637 -0.1471 -0.7182 -0.0276
  418MOL0     C55084  10.623   1.361   1.743 -0.3103 -0.2177  0.0576
  418MOL0     C55085  10.624   1.253   1.849  0.4843  0.0781 -0.3465
  418MOL0     C55086  10.513   1.267   1.951 -0.8357  0.5843 -0.2508
  418MOL0     C55087  10.501   1.150   2.054 -0.6107 -0.6661 -0.2814
  418MOL0    Cl55088  10.363   1.204   2.156 -0.2972  0.3902  0.0801
  418MOL0     C55089  11.107   1.850   1.341  0.8760  0.0519  0.0957
  418MOL0     C55090  11.131   1.982   1.377  0.1504 -1.0606  0.3405
  418MOL0     O55091  10.929   2.234   1.304 -0.4662  0.0657 -0.0228
  418MOL0     C55092  11.130   2.464   1.488 -0.5822 -0.6055  0.1959
  418MOL0     C55093  11.144   2.602   1.512 -0.5040 -0.2468 -0.2684
  418MOL0     N55094  10.960   3.276   1.800  0.0213 -0.1332  0.0437
  418MOL0     N55095  10.911   3.386   1.795  0.0308 -0.4879 -0.7227
  418MOL0     C55096  10.999   2.966   1.140  0.5163  0.5676  1.0787
  418MOL0     C55097  11.003   2.830   1.105 -0.9340 -0.1441  0.3625
  418MOL0     C55098  11.141   2.437   0.874  0.5508 -0.1544 -0.6753
  418MOL0     C55099  11.104   2.376   0.990 -0.1661  0.0353 -0.1136
  418MOL0     C55100  11.154   2.250   1.031  1.1498 -0.5790 -1.0763
  418MOL0     C55101  11.221   2.164   0.945  0.0410  0.5640 -0.6841
  418MOL0     O55102  11.252   2.044   1.000 -0.0159 -0.0486 -0.9205
  418MOL0     C55103  11.360   1.979   0.929 -0.0069  0.3801  0.1854
  418MOL0     C55104  11.400   1.840   0.986 -0.2753 -0.3594  0.4171
  418MOL0     C55105  11.417   1.840   1.136  0.3843 -0.9856 -0.3172
  418MOL0     C55106  11.554   1.804   1.170 -0.6860 -0.7311 -0.2950
  418MOL0     C55107  11.596   1.866   1.291  0.4708 -0.9310 -0.2436
  418MOL0     C55108  11.614   1.923   1.399 -0.9101 -0.5774 -0.6034
  418MOL0     C55109  11.260   2.231   0.826  0.0432  0.5479 -0.6229
  418MOL0     C55110  11.233   2.365   0.796 -0.7846  0.0013  0.6243
  418MOL0     H55111  11.039   2.867   0.762 -4.0830  1.1419 -1.3881
  418MOL0     H55112  10.982   3.101   0.840 -2.5267 -0.3392 -0.6120
  418MOL0     H55113  10.844   3.163   1.228  1.4393 -0.3328  0.7445
  418MOL0     H55114  10.760   3.182   1.068 -0.7016 -0.3413  2.4167
  418MOL0     H55115  10.751   3.395   1.205 -0.3378  1.8281 -1.3383
  418MOL0     H55116  10.825   3.414   1.046  0.6580 -3.2767 -0.9302
  418MOL0     H55117  11.049   3.434   1.147  1.1898  0.1374  0.1695
  418MOL0     H55118  10.992   3.383   1.300 -0.2182  0.4972  0.8873
  418MOL0     H55119  11.016   3.656   1.218 -0.2199 -0.3418 -0.9735
  418MOL0     H55120  10.833   3.617   1.227 -0.7369 -2.3706  1.6844
  418MOL0     H55121  10.860   3.526   1.443 -1.6564  2.8568  2.0960
  418MOL0     H55122  10.901   3.703   1.442  3.1824  0.9345  0.6665
  418MOL0     H55123  11.155   3.623   1.421  1.4593 -1.5754  2.0142
  418MOL0     H55124  11.100   3.475   1.478 -1.1389 -1.2155  0.7067
  418MOL0     H55125  11.184   3.657   1.647 -0.1232  0.1853 -0.5708
  418MOL0     H55126  11.059   3.758   1.585  0.0532  0.6883  3.3680
  418MOL0     H55127  10.891   3.615   1.673  1.6382  1.5185 -1.5157
  418MOL0     H55128  10.995   3.680   1.808 -1.4037  0.4972  0.4232
  418MOL0     H55129  11.230   3.439   1.708  1.1394 -1.0443  0.5101
  418MOL0     H55130  11.079   3.074   1.802  1.7065 -0.9275 -0.0823
  418MOL0     H55131  11.224   3.153   1.869 -2.3471  1.2208  1.9515
  418MOL0     H55132  11.315   3.025   1.683 -1.6499 -2.4211 -0.0101
  418MOL0     H55133  11.276   3.179   1.602 -1.2359 -0.6497 -1.7608
  418MOL0     H55134  11.027   3.072   1.589 -0.5805 -0.6562  1.4412
  418MOL0     H55135  11.144   3.054   1.460 -2.1996  0.7069 -0.6767
  418MOL0     H55136  11.143   2.841   1.675  0.7175 -0.6919 -0.7506
  418MOL0     H55137  11.245   2.853   1.536  1.1523  1.3002  2.8950
  418MOL0     H55138  10.845   2.711   1.383 -1.1373 -0.2506  0.7434
  418MOL0     H55139  10.830   2.467   1.334  1.8597 -0.6719 -2.4865
  418MOL0     H55140  10.842   2.024   1.551 -0.3328 -1.7455  1.4676
  418MOL0     H55141  10.825   1.797   1.514  0.3485  0.7008  1.8843
  418MOL0     H55142  10.928   1.593   1.563  0.6472  0.6922 -0.9996
  418MOL0     H55143  11.030   1.471   1.472  1.1395  1.5944  3.5093
  418MOL0     H55144  10.859   1.356   1.398 -2.3999 -0.6981 -0.3192
  418MOL0     H55145  10.792   1.515   1.335  1.5429 -0.8069 -0.8121
  418MOL0     H55146  10.621   1.467   1.504  0.2898 -2.2523 -0.3986
  418MOL0     H55147  10.733   1.558   1.584  1.4484  0.0988  0.1863
  418MOL0     H55148  10.724   1.250   1.588 -0.2567 -0.4564 -0.5326
  418MOL0     H55149  10.831   1.342   1.689  0.8561  1.4066 -1.5393
  418MOL0     H55150  10.527   1.353   1.692 -1.9363  1.0944  2.6563
  418MOL0     H55151  10.627   1.455   1.798 -1.0586  0.6386 -1.3198
  418MOL0     H55152  10.714   1.258   1.911 -0.1510 -2.4616  0.9338
  418MOL0     H55153  10.634   1.156   1.799  0.1536 -0.5787  0.8105
  418MOL0     H55154  10.541   1.353   2.013  1.1209 -1.2277  1.5446
  418MOL0     H55155  10.416   1.285   1.903 -0.9823 -0.4397 -0.3672
  418MOL0     H55156  10.591   1.138   2.116 -2.3759 -0.6009  2.4689
  418MOL0     H55157  10.486   1.050   2.014  2.8082 -0.4110 -2.6979
  418MOL0     H55158  11.171   1.794   1.273  0.5506 -2.4956  1.7464
  418MOL0     H55159  11.218   2.033   1.339 -0.1942  0.5481  1.5636
  418MOL0     H55160  11.218   2.406   1.513  0.3652 -0.1845 -1.9609
  418MOL0     H55161  11.240   2.625   1.558 -0.6250  0.0080 -0.1458
  418MOL0     H55162  11.014   3.001   1.241  3.1152  2.5503  0.1150
  418MOL0     H55163  11.033   2.767   1.188  2.2076 -0.5991 -0.9681
  418MOL0     H55164  11.018   2.414   1.044 -0.8305  2.7718 -2.8163
  418MOL0     H55165  11.107   2.214   1.122 -1.7610  3.8467 -0.5188
  418MOL0     H55166  11.453   2.036   0.934  0.1144  0.1367  0.8919
  418MOL0     H55167  11.325   1.952   0.829  3.6662  1.1550 -1.4767
  418MOL0     H55168  11.325   1.762   0.970 -1.6386  0.5981  1.7444
  418MOL0     H55169  11.487   1.809   0.929 -0.3728  0.9524 -0.4817
  418MOL0     H55170  11.343   1.764   1.163 -1.1710 -0.1123 -1.8801
  418MOL0     H55171  11.391   1.936   1.181  0.6699  0.0899 -2.3033
  418MOL0     H55172  11.553   1.697   1.192  1.5362 -0.5165  1.2024
  418MOL0     H55173  11.625   1.813   1.087  1.7537  1.2189  1.8435
  418MOL0     H55174  11.627   1.963   1.498  2.7003 -0.1583 -1.1028
  418MOL0     H55175  11.317   2.180   0.749 -0.8674 -1.1371 -0.2389
  418MOL0     H55176  11.273   2.417   0.709 -1.6669  1.9911  1.3238
  419MOL0     O55177  10.346   8.803   6.242  0.5550  0.7954 -1.0597
  419MOL0     C55178  10.390   8.911   6.204 -0.4966 -1.3191  0.4624
  419MOL0     O55179  10.438   8.930   6.077  0.4550  1.0312  0.1384
  419MOL0     C55180  10.431   8.833   5.977 -0.8329 -0.0595  0.2261
  419MOL0     C55181  10.320   8.772   5.931 -0.0100  0.3745 -0.8878
  419MOL0     C55182  10.326   8.664   5.837  0.0489 -0.7216  0.3795
  419MOL0     C55183  10.441   8.632   5.767 -0.4324  0.3527 -0.3621
  419MOL0     O55184  10.440   8.550   5.647  0.3488  0.4989 -0.1796
  419MOL0     C55185  10.355   8.609   5.549  0.6422 -0.0853  0.9190
  419MOL0     C55186  10.334   8.524   5.424  0.6179  0.4763 -0.1854
  419MOL0     C55187  10.229   8.570   5.331  0.7452 -0.4305 -1.0169
  419MOL0     C55188  10.189   8.459   5.237  0.1056  0.5278  0.1215
  419MOL0     C55189  10.094   8.496   5.130  0.3545  0.3282  0.4142
  419MOL0     C55190  10.061   8.394   5.009  1.1087 -0.5042  1.3704
  419MOL0     C55191   9.996   8.451   4.879  0.0477 -0.2995  0.0887
  419MOL0     C55192   9.852   8.507   4.903 -0.2810  0.2418 -0.3031
  419MOL0     N55193   9.748   8.403   4.927  0.8277  0.5475 -0.1698
  419MOL0     C55194   9.752   8.269   4.893  0.7137  0.5613 -0.2669
  419MOL0     C55195   9.622   8.218   4.922  0.7428  0.4377  0.3330
  419MOL0     C55196   9.589   8.075   4.895  0.5808  0.8019  0.6484
  419MOL0     C55197   9.506   7.994   5.002 -0.4882  0.4461  0.1741
  419MOL0     C55198   9.365   8.051   5.003 -0.0958  0.7951  0.0063
  419MOL0     C55199   9.272   7.941   5.073  0.0928 -0.3990  0.0747
  419MOL0     O55200   9.233   7.841   4.982 -0.5338 -0.0787 -0.3520
  419MOL0     C55201   9.108   7.855   4.924 -0.1571  0.3516 -0.1629
  419MOL0     C55202   9.045   7.732   4.889 -1.1848 -0.2023  0.0436
  419MOL0     C55203   8.912   7.729   4.859  0.3899 -0.3735 -0.0407
  419MOL0     C55204   8.837   7.845   4.843 -0.6025  0.9565  0.4607
  419MOL0     C55205   8.697   7.846   4.815 -1.0144 -1.0850  1.0525
  419MOL0     O55206   8.648   7.962   4.784 -0.0432 -0.0817 -0.8424
  419MOL0     C55207   8.514   7.985   4.785 -0.0937  0.1370 -0.5476
  419MOL0     C55208   8.425   7.933   4.889  0.0587 -1.3249 -0.0806
  419MOL0     C55209   8.288   7.947   4.874 -0.2721  0.2667  0.3140
  419MOL0     C55210   8.231   8.018   4.759 -0.6378 -0.0628 -0.4880
  419MOL0     O55211   8.104   8.030   4.749 -0.1511 -0.6408  0.0685
  419MOL0     C55212   8.017   7.914   4.751  0.5305  0.6293  0.4088
  419MOL0     C55213   7.998   7.847   4.613  0.4205 -0.4746  0.0605
  419MOL0     C55214   7.895   7.926   4.526 -0.0344  0.3003  0.4653
  419MOL0     C55215   7.911   7.891   4.380  0.1081  0.5144 -0.2104
  419MOL0     C55216   7.795   7.942   4.298  0.1300 -0.5029  1.1330
  419MOL0     C55217   7.681   7.840   4.279 -0.0496  0.1061 -0.2656
  419MOL0     C55218   7.565   7.895   4.200 -0.1573 -0.2359  0.2759
  419MOL0     C55219   7.441   7.797   4.187  0.2718  0.6041 -0.0149
  419MOL0    Cl55220   7.489   7.629   4.109 -0.1250 -0.1143  0.0737
  419MOL0     C55221   8.316   8.068   4.657 -0.0123  0.9165  0.4193
  419MOL0     C55222   8.455   8.044   4.670  0.2830 -0.2112  0.6451
  419MOL0     O55223   8.631   7.744   4.824  0.2979  0.0837  0.4134
  419MOL0     C55224   8.909   7.964   4.854 -0.0161  0.7307 -0.0752
  419MOL0     C55225   9.044   7.971   4.901  0.1242  0.4770 -0.3658
  419MOL0     N55226   9.552   8.315   4.985  0.4702 -0.1373  0.1740
  419MOL0     N55227   9.630   8.419   4.994 -0.3055 -0.5329  0.2232
  419MOL0     C55228  10.563   8.683   5.817  0.0816  0.7329 -0.4804
  419MOL0     C55229  10.558   8.781   5.922  0.8920 -0.3575  0.3584
  419MOL0     C55230  10.414   9.018   6.298  0.1747  0.5246 -0.4506
  419MOL0     C55231  10.343   9.019   6.420 -0.4660  0.2200 -0.8663
  419MOL0     C55232  10.363   9.125   6.515  0.0613 -0.4498  0.3372
  419MOL0     C55233  10.460   9.225   6.489 -0.3239  0.9717 -0.5662
  419MOL0     O55234  10.496   9.324   6.573  0.1811 -0.2083 -0.8459
  419MOL0     C55235  10.517   9.291   6.714  0.7913 -0.1138 -0.8922
  419MOL0     C55236  10.545   9.413   6.799 -0.0127 -0.0586  0.0905
  419MOL0     C55237  10.407   9.499   6.812  0.1865 -0.7196  1.0041
  419MOL0     C55238  10.425   9.618   6.913 -0.1676  0.2077 -0.1609
  419MOL0     C55239  10.536   9.692   6.858  0.4616 -0.5647  0.3116
  419MOL0     C55240  10.620   9.755   6.790  0.4630 -0.4215 -0.5814
  419MOL0     C55241  10.513   9.237   6.360 -1.0606 -0.2000  0.3637
  419MOL0     C55242  10.504   9.133   6.266  0.1862 -0.8268 -0.0754
  419MOL0     H55243  10.229   8.800   5.984  1.1856  2.5944  0.1212
  419MOL0     H55244  10.231   8.629   5.799  1.6720 -1.1911 -3.8109
  419MOL0     H55245  10.392   8.707   5.518 -1.8798 -0.1162 -2.9652
  419MOL0     H55246  10.257   8.604   5.598  0.6768 -0.5039  0.9486
  419MOL0     H55247  10.295   8.427   5.456 -2.2166  1.3842 -0.5995
  419MOL0     H55248  10.434   8.517   5.379  1.4356  1.7525  1.3286
  419MOL0     H55249  10.267   8.654   5.272 -0.1112  1.7132  1.2455
  419MOL0     H55250  10.138   8.595   5.386  0.8640 -1.6687 -0.2269
  419MOL0     H55251  10.279   8.419   5.190 -1.2810 -1.9935 -0.5791
  419MOL0     H55252  10.158   8.378   5.304 -0.0281 -0.0701 -0.6599
  419MOL0     H55253  10.150   8.579   5.087 -2.3736  2.0523 -0.1142
  419MOL0     H55254  10.003   8.536   5.178  0.1446  1.3187 -0.7516
  419MOL0     H55255   9.999   8.311   5.046  1.7297 -0.4598  2.5426
  419MOL0     H55256  10.156   8.349   4.979  0.9681  1.5383 -2.7730
  419MOL0     H55257  10.061   8.533   4.847  0.7917 -1.4001 -1.3738
  419MOL0     H55258  10.009   8.371   4.805 -0.6525  1.5004 -2.0778
  419MOL0     H55259   9.823   8.569   4.818  0.0843  0.2686 -0.4108
  419MOL0     H55260   9.852   8.580   4.984  1.9437 -0.0618  0.0510
  419MOL0     H55261   9.829   8.213   4.841  0.9861 -0.1490  0.8772
  419MOL0     H55262   9.687   8.028   4.882  0.5732  1.0626 -0.4246
  419MOL0     H55263   9.539   8.078   4.797 -0.9890  3.0886  1.4498
  419MOL0     H55264   9.555   7.999   5.100 -1.3174  0.9879  0.5759
  419MOL0     H55265   9.520   7.892   4.966 -1.5931  0.7144 -1.0944
  419MOL0     H55266   9.359   8.147   5.055  0.0493  1.2729 -0.8248
  419MOL0     H55267   9.324   8.069   4.903  1.0045  0.9164 -0.4340
  419MOL0     H55268   9.185   7.981   5.125 -0.1917 -1.3752  0.3776
  419MOL0     H55269   9.333   7.896   5.152 -2.4871 -0.5691  2.0902
  419MOL0     H55270   9.089   7.634   4.902  0.4225  0.3261 -1.0963
  419MOL0     H55271   8.869   7.631   4.844  0.5280 -0.6772  1.3844
  419MOL0     H55272   8.465   7.865   4.963 -2.8528 -3.8384 -0.6703
  419MOL0     H55273   8.224   7.910   4.953 -2.9309  1.7373 -0.9998
  419MOL0     H55274   7.915   7.929   4.788  1.4384  0.9264  2.9343
  419MOL0     H55275   8.056   7.839   4.820  1.1134  0.5885  0.0413
  419MOL0     H55276   7.967   7.747   4.647 -1.1329  0.1711  0.6454
  419MOL0     H55277   8.093   7.857   4.559  0.5560 -2.4962 -0.1397
  419MOL0     H55278   7.935   8.028   4.516  3.2340 -1.0727 -2.9984
  419MOL0     H55279   7.791   7.922   4.558 -1.0320 -0.6130 -2.5990
  419MOL0     H55280   8.010   7.921   4.344  0.4790 -0.6816 -0.2373
  419MOL0     H55281   7.915   7.782   4.387 -1.9068  0.5252  2.7752
  419MOL0     H55282   7.842   7.957   4.201 -1.5682  0.0925  0.3621
  419MOL0     H55283   7.757   8.041   4.327  1.5664 -0.7438  4.2349
  419MOL0     H55284   7.654   7.824   4.383  1.9607  0.9135  0.4318
  419MOL0     H55285   7.716   7.748   4.230  0.5913 -0.0015  0.3897
  419MOL0     H55286   7.535   7.989   4.245 -0.1495  0.3841 -0.9680
  419MOL0     H55287   7.604   7.910   4.099  0.8322  1.1938  0.8380
  419MOL0     H55288   7.371   7.846   4.118 -0.5211 -0.4967 -0.0301
  419MOL0     H55289   7.395   7.798   4.286  1.0151 -1.0809  0.3755
  419MOL0     H55290   8.286   8.107   4.561 -3.4236 -2.4885 -0.1412
  419MOL0     H55291   8.512   8.067   4.580 -0.9888 -0.0772 -0.1446
  419MOL0     H55292   8.862   8.061   4.853  4.1924  3.0058  0.9360
  419MOL0     H55293   9.085   8.071   4.912  0.9761  0.2093 -0.9579
  419MOL0     H55294  10.664   8.645   5.800 -0.2404 -1.0164  1.1455
  419MOL0     H55295  10.647   8.806   5.979  0.3131  2.7968  0.0506
  419MOL0     H55296  10.261   8.954   6.450  0.1564  0.3343  1.2401
  419MOL0     H55297  10.303   9.130   6.606 -2.5392 -2.8638 -1.0902
  419MOL0     H55298  10.605   9.225   6.717  0.3434 -0.8346 -2.5839
  419MOL0     H55299  10.437   9.227   6.750  1.1177  0.0366  0.1337
  419MOL0     H55300  10.574   9.387   6.901  0.8253  0.1364 -0.0939
  419MOL0     H55301  10.630   9.464   6.754 -0.3055  0.7545  0.4529
  419MOL0     H55302  10.343   9.423   6.858  4.2918 -2.9628  3.6476
  419MOL0     H55303  10.379   9.543   6.716  0.5642 -0.6705  0.9183
  419MOL0     H55304  10.330   9.671   6.920 -0.9858 -0.8461 -2.3569
  419MOL0     H55305  10.458   9.566   7.003 -0.6114 -0.3661 -0.3234
  419MOL0     H55306  10.698   9.802   6.734  1.1712  0.3983  1.0105
  419MOL0     H55307  10.585   9.318   6.359 -0.5057 -0.6760 -0.7589
  419MOL0     H55308  10.560   9.141   6.174  0.8425  1.6894  0.4756
  420MOL0     O55309   6.768   4.515   9.672 -0.2553 -0.1865  0.0376
  420MOL0     C55310   6.678   4.597   9.662 -0.4771 -0.5848  0.1008
  420MOL0     O55311   6.548   4.571   9.690  0.0813  0.1477  1.1077
  420MOL0     C55312   6.523   4.453   9.752  0.6163  0.4175  0.2001
  420MOL0     C55313   6.538   4.454   9.887 -0.2613  0.2289 -0.1175
  420MOL0     C55314   6.531   4.333   9.957  0.8457  0.0979 -1.3497
  420MOL0     C55315   6.496   4.213   9.900 -0.9280  1.3027  0.1562
  420MOL0     O55316   6.486   4.092   9.967  0.0052  0.4178 -0.2769
  420MOL0     C55317   6.360   4.085  10.037  0.7823 -0.8595  0.1304
  420MOL0     C55318   6.338   3.949  10.106 -0.0135 -0.1946  0.1475
  420MOL0     C55319   6.195   3.909  10.157 -0.4038 -0.7191 -0.5236
  420MOL0     C55320   6.134   4.029  10.221  0.7488  0.3670 -0.3731
  420MOL0     C55321   6.187   4.054  10.359  0.0778  0.3952  0.0654
  420MOL0     C55322   6.146   3.950  10.463  0.2808 -0.1167 -0.9000
  420MOL0     C55323   6.177   3.986  10.604 -0.7093 -0.1068  0.5907
  420MOL0     C55324   6.147   4.129  10.651 -0.3216  0.2295 -0.2169
  420MOL0     N55325   6.004   4.155  10.670  0.2461 -0.4390  0.0546
  420MOL0     C55326   5.952   4.204  10.790 -0.2685  0.1830  0.1187
  420MOL0     C55327   5.850   4.273  10.749  0.0448  0.4608  0.5104
  420MOL0     C55328   5.754   4.340  10.838 -0.5378 -0.0123 -0.1296
  420MOL0     C55329   5.755   4.299  10.982  0.2286 -0.8601 -0.6286
  420MOL0     C55330   5.628   4.350  11.061 -0.7073 -0.1743  0.6393
  420MOL0     C55331   5.592   4.501  11.066  0.0404 -0.3400  0.4051
  420MOL0     O55332   5.691   4.608  11.054  0.6521  0.0729 -0.5163
  420MOL0     C55333   5.799   4.612  11.128 -0.8151 -0.7345 -0.8865
  420MOL0     C55334   5.907   4.682  11.077 -0.2282  0.3776  0.3147
  420MOL0     C55335   6.027   4.707  11.148  0.0816  0.5454 -0.9317
  420MOL0     C55336   6.043   4.641  11.279 -0.3516  0.1192 -0.5208
  420MOL0     C55337   6.159   4.650  11.371  0.6387 -0.0960  0.3925
  420MOL0     O55338   6.168   4.549  11.465 -0.0895  0.9028  0.0298
  420MOL0     C55339   6.277   4.550  11.545 -0.0173 -0.7065 -0.9684
  420MOL0     C55340   6.282   4.609  11.673 -0.5721 -0.8983  0.4320
  420MOL0     C55341   6.407   4.616  11.745 -0.5137  0.8377 -0.2668
  420MOL0     C55342   6.523   4.546  11.702  0.3784 -0.4491 -0.1719
  420MOL0     O55343   6.646   4.544  11.767 -0.0309  0.2404 -0.3216
  420MOL0     C55344   6.661   4.645  11.871 -0.7907  0.5325  0.9463
  420MOL0     C55345   6.788   4.627  11.935 -0.1377  0.1783  0.0845
  420MOL0     C55346   6.802   4.721  12.054 -0.0415 -0.0447  0.1974
  420MOL0     C55347   6.795   4.865  12.012  0.1100  0.4173  0.3951
  420MOL0     C55348   6.842   4.976  12.115  0.3850 -0.5219 -0.2835
  420MOL0     C55349   6.785   4.949  12.251  0.6382  0.9357  0.7132
  420MOL0     C55350   6.842   5.061  12.357  0.2865  0.3178  0.0604
  420MOL0     C55351   6.915   5.007  12.472  0.0894  0.0591 -0.2526
  420MOL0    Cl55352   7.056   4.904  12.410 -0.4800  0.2790  0.4085
  420MOL0     C55353   6.518   4.486  11.579  0.1363 -0.2379  1.1021
  420MOL0     C55354   6.399   4.485  11.502  0.0654 -0.6131 -0.3808
  420MOL0     O55355   6.234   4.745  11.354 -0.4294  0.7293 -0.0852
  420MOL0     C55356   5.943   4.547  11.324 -0.1199  0.4802 -0.2072
  420MOL0     C55357   5.825   4.545  11.247 -0.1772  0.0679 -0.1723
  420MOL0     N55358   5.825   4.260  10.613  1.0022 -0.5073  0.2710
  420MOL0     N55359   5.910   4.176  10.572  0.1344 -0.1359  0.5094
  420MOL0     C55360   6.478   4.215   9.760 -0.0430 -0.0003 -0.6974
  420MOL0     C55361   6.510   4.329   9.683 -0.4938  0.1023 -0.3384
  420MOL0     C55362   6.713   4.733   9.620 -0.1845 -0.2295  0.7259
  420MOL0     C55363   6.606   4.815   9.583 -0.5028 -0.3197  0.7546
  420MOL0     C55364   6.632   4.951   9.539  0.8791  0.1989 -0.4093
  420MOL0     C55365   6.763   4.999   9.534  0.6977 -1.3655  0.6785
  420MOL0     O55366   6.802   5.125   9.510 -0.2990 -0.9993  0.9386
  420MOL0     C55367   6.709   5.225   9.559  0.6411 -0.9706  0.7283
  420MOL0     C55368   6.781   5.351   9.605  0.0897  0.1824 -0.1040
  420MOL0     C55369   6.781   5.479   9.508  0.0893 -0.3087  1.0056
  420MOL0     C55370   6.885   5.579   9.553  0.3723 -0.2627 -0.3979
  420MOL0     C55371   7.016   5.563   9.489  0.0967  0.4079  0.1675
  420MOL0     C55372   7.124   5.535   9.443 -0.4130 -0.9066  0.0820
  420MOL0     C55373   6.870   4.915   9.567 -0.6812 -0.2940 -0.5842
  420MOL0     C55374   6.841   4.780   9.605  0.6119 -0.5676  0.2109
  420MOL0     H55375   6.575   4.544   9.934  0.6611  0.0305 -0.4541
  420MOL0     H55376   6.575   4.340  10.056  0.0593  0.0554 -0.9923
  420MOL0     H55377   6.284   4.111   9.963 -0.6566 -0.8817  1.5510
  420MOL0     H55378   6.364   4.160  10.116 -2.0515 -0.5652  0.0858
  420MOL0     H55379   6.401   3.945  10.196 -0.6736 -1.1410  0.5830
  420MOL0     H55380   6.368   3.874  10.032 -2.1214 -0.7486 -0.1941
  420MOL0     H55381   6.208   3.828  10.229 -0.8131 -0.7097 -0.4379
  420MOL0     H55382   6.140   3.876  10.068  0.6164 -1.7006 -0.8172
  420MOL0     H55383   6.146   4.124  10.168 -2.1648  0.1551 -1.6090
  420MOL0     H55384   6.029   4.001  10.233  1.1511 -0.0092  3.0287
  420MOL0     H55385   6.150   4.151  10.391  0.2062 -0.3367  2.6929
  420MOL0     H55386   6.296   4.064  10.358  0.1900 -0.5984 -1.3288
  420MOL0     H55387   6.185   3.851  10.439 -3.0305 -1.9125  0.3294
  420MOL0     H55388   6.037   3.943  10.450  0.5507  0.5577 -4.8137
  420MOL0     H55389   6.124   3.915  10.669  0.9433 -0.5309  1.5307
  420MOL0     H55390   6.282   3.966  10.625 -0.8071 -0.5128  0.7058
  420MOL0     H55391   6.203   4.201  10.591  0.6257  0.8368  1.3363
  420MOL0     H55392   6.201   4.125  10.747  1.3257  2.3688 -0.9754
  420MOL0     H55393   5.998   4.195  10.888 -5.6780  0.6001  3.1113
  420MOL0     H55394   5.652   4.313  10.807 -0.0678  0.2217 -2.0216
  420MOL0     H55395   5.763   4.449  10.837  1.6754 -0.0676  2.8372
  420MOL0     H55396   5.845   4.351  11.016  0.9281 -1.2338 -1.8512
  420MOL0     H55397   5.759   4.189  10.984 -1.3289 -0.9349 -0.9487
  420MOL0     H55398   5.545   4.293  11.017  1.8331 -3.2838 -0.5198
  420MOL0     H55399   5.651   4.319  11.163  0.5571 -0.5738  0.2524
  420MOL0     H55400   5.542   4.515  11.162 -2.4955 -3.0042 -0.4004
  420MOL0     H55401   5.524   4.515  10.981  1.5723 -0.4105 -0.8874
  420MOL0     H55402   5.918   4.703  10.971  1.3663  0.6649  0.5057
  420MOL0     H55403   6.103   4.775  11.111  0.8866  0.1677 -0.0210
  420MOL0     H55404   6.189   4.655  11.707  0.2577 -0.8606  2.8567
  420MOL0     H55405   6.405   4.675  11.836 -2.2394 -0.8194  0.8581
  420MOL0     H55406   6.594   4.649  11.958  2.1511 -0.2389  3.4580
  420MOL0     H55407   6.663   4.737  11.812  4.3896 -1.0853 -2.0718
  420MOL0     H55408   6.863   4.653  11.860 -2.1712  1.1766 -1.7183
  420MOL0     H55409   6.806   4.525  11.971 -0.2812 -0.7307 -2.2088
  420MOL0     H55410   6.899   4.702  12.100 -0.4681  1.2836  1.7068
  420MOL0     H55411   6.719   4.709  12.125  0.1713  0.4599  0.5358
  420MOL0     H55412   6.868   4.876  11.931 -0.4118  4.2811  0.2701
  420MOL0     H55413   6.694   4.876  11.971 -0.5357 -3.2311  0.7252
  420MOL0     H55414   6.821   5.077  12.079  2.4692 -1.4089 -4.5831
  420MOL0     H55415   6.950   4.963  12.127  0.4146  0.1153  0.2226
  420MOL0     H55416   6.815   4.850  12.288  0.4564 -0.3399 -2.2827
  420MOL0     H55417   6.676   4.941  12.254  0.6970  0.1941  1.4457
  420MOL0     H55418   6.906   5.130  12.302  1.6664 -1.7165 -0.9903
  420MOL0     H55419   6.752   5.111  12.396 -0.0241 -0.3493  0.2097
  420MOL0     H55420   6.850   4.948  12.536 -0.6727  0.1009 -0.9756
  420MOL0     H55421   6.950   5.089  12.535  0.0706  0.3311 -0.5886
  420MOL0     H55422   6.595   4.412  11.559  0.8633  0.9915 -0.8805
  420MOL0     H55423   6.415   4.436  11.406  2.0625  4.2174 -2.8672
  420MOL0     H55424   5.951   4.482  11.411  0.0705 -3.0182 -2.6238
  420MOL0     H55425   5.752   4.476  11.288 -3.7292  3.0504 -0.9784
  420MOL0     H55426   6.448   4.125   9.706  1.9951 -1.7112  0.8549
  420MOL0     H55427   6.514   4.322   9.575 -2.1942  0.1726 -0.4352
  420MOL0     H55428   6.503   4.786   9.598 -0.4257 -0.0320  1.9703
  420MOL0     H55429   6.544   5.014   9.527  0.4400 -0.2856  0.2148
  420MOL0     H55430   6.642   5.202   9.642 -1.6220  2.1064 -0.0682
  420MOL0     H55431   6.623   5.237   9.493  1.2244 -2.5346 -0.3781
  420MOL0     H55432   6.738   5.386   9.700 -0.3161 -1.4185  0.3212
  420MOL0     H55433   6.885   5.324   9.624  0.7789  0.6377 -2.8591
  420MOL0     H55434   6.679   5.518   9.514  0.3478  0.7451 -0.6322
  420MOL0     H55435   6.798   5.445   9.405 -0.4117  2.0821  0.0753
  420MOL0     H55436   6.850   5.676   9.517  1.1090  0.0966 -0.1696
  420MOL0     H55437   6.890   5.572   9.662  0.7830 -1.0863 -0.4664
  420MOL0     H55438   7.227   5.525   9.416 -0.1055  1.3569  0.2370
  420MOL0     H55439   6.971   4.945   9.594 -0.9988 -1.3200  2.0445
  420MOL0     H55440   6.915   4.709   9.640 -1.0473 -1.1287  2.8843
  421MOL0     O55441   1.002  11.400   1.012 -0.1834  0.0308 -0.5521
  421MOL0     C55442   1.018  11.408   1.133  0.4803 -0.3395  0.7083
  421MOL0     O55443   1.095  11.494   1.194  0.2923  0.3284 -0.2729
  421MOL0     C55444   1.169  11.581   1.120 -0.6513 -0.3062  0.2561
  421MOL0     C55445   1.119  11.711   1.091  0.1193  0.4036  0.0815
  421MOL0     C55446   1.202  11.797   1.007  0.7275  0.0320  0.5636
  421MOL0     C55447   1.318  11.760   0.959 -0.0998  0.5253  1.3539
  421MOL0     O55448   1.379  11.863   0.896 -0.2016 -0.2751  0.5205
  421MOL0     C55449   1.490  11.835   0.800  0.0361 -0.9109  0.7173
  421MOL0     C55450   1.533  11.960   0.726 -0.5399  0.3907 -0.1384
  421MOL0     C55451   1.419  12.043   0.669 -0.1322 -0.3766  0.0720
  421MOL0     C55452   1.372  11.960   0.550 -0.1968 -0.6584 -0.4363
  421MOL0     C55453   1.270  12.037   0.466  0.5140  0.7144  0.0349
  421MOL0     C55454   1.235  11.959   0.342  0.0819  0.2278  0.1604
  421MOL0     C55455   1.117  12.008   0.251  0.0767 -0.1918  0.2796
  421MOL0     C55456   0.980  12.026   0.326 -1.0554 -0.2093  0.2599
  421MOL0     N55457   0.888  12.076   0.226 -0.2836  0.3268 -0.1365
  421MOL0     C55458   0.901  12.202   0.171 -0.2429  0.0705 -0.8982
  421MOL0     C55459   0.780  12.224   0.108  0.4527 -0.4081  0.1592
  421MOL0     C55460   0.739  12.359   0.047 -0.7278 -0.9013 -0.6586
  421MOL0     C55461   0.730  12.478   0.129 -0.7988 -0.0686 -0.1480
  421MOL0     C55462   0.691  12.607   0.045 -0.0343 -0.2623 -0.4622
  421MOL0     C55463   0.676  12.741   0.123 -0.7037 -0.1765  0.4262
  421MOL0     O55464   0.626  12.736   0.258  0.0560  0.2363  0.0326
  421MOL0     C55465   0.491  12.707   0.274 -0.2774  0.7363 -0.2546
  421MOL0     C55466   0.399  12.715   0.165 -0.0693 -0.3980  0.4186
  421MOL0     C55467   0.259  12.702   0.192  0.7808 -0.5475  0.5862
  421MOL0     C55468   0.213  12.692   0.324 -0.0252 -0.0806 -0.1597
  421MOL0     C55469   0.065  12.683   0.354  0.4601 -0.9696 -0.0412
  421MOL0     O55470  -0.027  12.695   0.251  1.1385 -0.6102  0.3564
  421MOL0     C55471  -0.161  12.713   0.290  0.0354  0.2598 -1.4648
  421MOL0     C55472  -0.208  12.816   0.367 -0.4709 -0.1803  0.5159
  421MOL0     C55473  -0.343  12.830   0.408 -0.1426  1.0739 -0.6838
  421MOL0     C55474  -0.435  12.729   0.378  0.0135  0.3315 -0.5674
  421MOL0     O55475  -0.565  12.748   0.429  0.6927  0.1254 -0.1265
  421MOL0     C55476  -0.666  12.648   0.426  0.2513  0.2556 -0.4667
  421MOL0     C55477  -0.737  12.669   0.294  0.3695 -0.7124  0.2098
  421MOL0     C55478  -0.865  12.585   0.282 -0.4164  0.4717 -0.3476
  421MOL0     C55479  -0.971  12.653   0.198  0.4993  0.2186  0.0090
  421MOL0     C55480  -1.060  12.540   0.141  0.9864  1.0729 -0.1582
  421MOL0     C55481  -1.143  12.455   0.245  0.3660  0.1246  0.1924
  421MOL0     C55482  -1.228  12.350   0.179  0.2179  0.3917 -0.1841
  421MOL0     C55483  -1.350  12.406   0.112  0.3791 -0.5615 -1.2805
  421MOL0    Cl55484  -1.447  12.490   0.224  0.1282  0.1629  0.5752
  421MOL0     C55485  -0.393  12.628   0.292  0.1302  0.9697 -0.7836
  421MOL0     C55486  -0.257  12.620   0.248 -0.3646  0.0424  0.6279
  421MOL0     O55487   0.038  12.676   0.471  0.2010  0.0047  0.0808
  421MOL0     C55488   0.309  12.682   0.422 -0.0171  0.0239 -0.2813
  421MOL0     C55489   0.446  12.681   0.398 -0.6179 -0.2794  0.3597
  421MOL0     N55490   0.699  12.114   0.127 -0.9648  0.1644  0.3948
  421MOL0     N55491   0.764  12.026   0.194 -0.4446  0.5056 -0.2827
  421MOL0     C55492   1.370  11.638   0.987  0.6874 -0.1280 -0.8500
  421MOL0     C55493   1.297  11.544   1.068  1.0782 -0.4352  1.1891
  421MOL0     C55494   0.928  11.318   1.210 -0.0645 -0.4531  0.0650
  421MOL0     C55495   0.823  11.235   1.156  0.3693 -0.8255  0.7452
  421MOL0     C55496   0.745  11.162   1.230  0.5726  0.5928  0.0646
  421MOL0     C55497   0.762  11.146   1.361  0.4880 -0.0674  0.3824
  421MOL0     O55498   0.687  11.060   1.440 -0.0421  0.0611 -0.5956
  421MOL0     C55499   0.621  10.959   1.373  0.1278  0.0081  0.9457
  421MOL0     C55500   0.554  10.877   1.471  0.8982  0.7410 -0.1954
  421MOL0     C55501   0.485  10.746   1.417  0.5852  0.5972  0.3038
  421MOL0     C55502   0.573  10.619   1.397  0.1742  0.2591  0.1660
  421MOL0     C55503   0.543  10.537   1.281 -0.6784  0.2358  0.2593
  421MOL0     C55504   0.519  10.495   1.176 -0.4364 -0.4186  1.1019
  421MOL0     C55505   0.864  11.226   1.422  0.4908  0.1463 -0.6469
  421MOL0     C55506   0.946  11.319   1.350  0.6848 -0.6742 -0.4056
  421MOL0     H55507   1.027  11.751   1.133  2.8779  3.8092  3.5810
  421MOL0     H55508   1.162  11.893   0.975 -1.8295 -1.6141 -1.6212
  421MOL0     H55509   1.467  11.754   0.730  0.4074  1.3181 -2.1489
  421MOL0     H55510   1.575  11.799   0.859  1.5105  4.8331  2.7287
  421MOL0     H55511   1.606  11.935   0.648 -1.5480 -1.2179 -0.6061
  421MOL0     H55512   1.586  12.023   0.798  0.7264  2.2959 -2.5492
  421MOL0     H55513   1.460  12.139   0.635  1.5561  0.8496  4.6776
  421MOL0     H55514   1.346  12.071   0.746 -1.1396  0.5644 -1.1941
  421MOL0     H55515   1.453  11.932   0.482 -0.9228  1.5019 -2.3468
  421MOL0     H55516   1.332  11.867   0.591  3.4723 -1.4328  1.8742
  421MOL0     H55517   1.308  12.129   0.421 -0.9832  0.2639 -2.3902
  421MOL0     H55518   1.176  12.054   0.519 -0.3380  3.1285 -2.0406
  421MOL0     H55519   1.208  11.861   0.382 -4.3587  1.2865  0.2644
  421MOL0     H55520   1.325  11.956   0.279  0.6136  0.1030  0.9203
  421MOL0     H55521   1.144  12.105   0.209  0.9022 -0.7974 -0.6435
  421MOL0     H55522   1.101  11.933   0.172 -0.4195  1.3121 -1.1054
  421MOL0     H55523   0.975  12.102   0.405 -2.6144 -1.5038  1.4596
  421MOL0     H55524   0.954  11.929   0.369  1.4820 -1.0584  0.0690
  421MOL0     H55525   0.989  12.265   0.172 -1.3533  1.7285 -2.2819
  421MOL0     H55526   0.636  12.367   0.009 -1.3789  0.3012  1.2152
  421MOL0     H55527   0.813  12.381  -0.030  0.5181 -0.4219  0.6407
  421MOL0     H55528   0.832  12.487   0.168 -0.8989 -0.1657  0.1433
  421MOL0     H55529   0.670  12.460   0.219 -0.7477  1.2687  0.1771
  421MOL0     H55530   0.772  12.605  -0.028 -0.3272  2.5932 -0.9493
  421MOL0     H55531   0.593  12.596  -0.003  0.4677 -0.8669 -1.3810
  421MOL0     H55532   0.636  12.827   0.068  1.5835 -0.4320 -1.8541
  421MOL0     H55533   0.777  12.779   0.143 -0.0268 -0.2199 -2.4663
  421MOL0     H55534   0.427  12.730   0.061  0.2828 -0.9120  0.4349
  421MOL0     H55535   0.198  12.705   0.103 -4.2955  3.3969  3.6313
  421MOL0     H55536  -0.139  12.894   0.398  2.1724 -2.1560 -0.0885
  421MOL0     H55537  -0.378  12.925   0.446 -2.4721  0.1420 -0.3398
  421MOL0     H55538  -0.735  12.655   0.510  1.2582  1.9537  0.2646
  421MOL0     H55539  -0.635  12.543   0.427  0.9292  0.4506  0.8724
  421MOL0     H55540  -0.678  12.650   0.204 -0.3632 -0.4615 -0.3366
  421MOL0     H55541  -0.767  12.774   0.283  1.0557  0.1113  4.4726
  421MOL0     H55542  -0.908  12.572   0.381  2.5441  0.0370  1.0033
  421MOL0     H55543  -0.836  12.487   0.242  0.0058 -0.7174  2.6339
  421MOL0     H55544  -1.039  12.722   0.247 -3.0137 -1.1426 -2.5443
  421MOL0     H55545  -0.932  12.699   0.107 -2.0927 -0.8118 -1.7370
  421MOL0     H55546  -0.992  12.475   0.086 -1.5520  0.2019 -2.4280
  421MOL0     H55547  -1.125  12.584   0.065  2.3191  1.6485 -1.0145
  421MOL0     H55548  -1.204  12.517   0.311 -0.5343  2.5989 -2.7581
  421MOL0     H55549  -1.065  12.406   0.305 -1.0175 -3.5085 -0.6979
  421MOL0     H55550  -1.162  12.305   0.103  0.7712 -1.8636  1.4934
  421MOL0     H55551  -1.258  12.271   0.250 -0.6099 -0.0628 -1.0229
  421MOL0     H55552  -1.412  12.327   0.071 -0.1156  0.5315 -2.7368
  421MOL0     H55553  -1.336  12.464   0.019  0.2217 -1.7742 -2.0808
  421MOL0     H55554  -0.467  12.553   0.266 -1.2520  1.5069  1.2972
  421MOL0     H55555  -0.219  12.536   0.191  0.5059 -0.9924  2.6258
  421MOL0     H55556   0.294  12.657   0.527 -1.3778  0.1536 -0.4249
  421MOL0     H55557   0.520  12.667   0.477  1.9420  4.4761 -0.7957
  421MOL0     H55558   1.465  11.602   0.948  0.5633 -0.8784 -0.4851
  421MOL0     H55559   1.323  11.438   1.073 -1.9201 -1.2043  2.8003
  421MOL0     H55560   0.806  11.247   1.049  3.2024  0.2458  0.3248
  421MOL0     H55561   0.681  11.099   1.168  0.5999  0.5771  0.0529
  421MOL0     H55562   0.684  10.897   1.310  0.3498  1.2347 -0.0850
  421MOL0     H55563   0.539  11.006   1.318 -0.0662 -0.8996  0.4405
  421MOL0     H55564   0.628  10.863   1.551  2.4152  0.3642 -1.6099
  421MOL0     H55565   0.478  10.938   1.522  1.0074  2.4504 -1.9691
  421MOL0     H55566   0.432  10.769   1.324  1.2215 -1.9431 -0.7760
  421MOL0     H55567   0.410  10.711   1.489  2.4908 -1.8029  1.2954
  421MOL0     H55568   0.681  10.637   1.396  0.8337 -2.7905  1.9055
  421MOL0     H55569   0.561  10.551   1.482  1.9728 -0.3179  0.0243
  421MOL0     H55570   0.504  10.457   1.076  0.5072  1.4565  0.1969
  421MOL0     H55571   0.872  11.210   1.529 -3.2774  0.9197 -0.1249
  421MOL0     H55572   1.028  11.366   1.402 -1.5051  1.1322  1.6054
  422MOL0     O55573   4.229   2.509   4.931 -0.0330 -0.2132 -0.1022
  422MOL0     C55574   4.144   2.524   5.018  0.3484 -0.3652 -0.6982
  422MOL0     O55575   4.132   2.447   5.137 -0.2277  0.3113 -0.2896
  422MOL0     C55576   4.228   2.345   5.149 -0.3591  0.4311  0.5084
  422MOL0     C55577   4.199   2.213   5.143 -0.5531 -0.3963 -0.3816
  422MOL0     C55578   4.296   2.113   5.170  0.4176 -1.0406 -0.1531
  422MOL0     C55579   4.428   2.152   5.201 -0.2851 -0.4711 -0.5641
  422MOL0     O55580   4.529   2.056   5.214 -0.1058 -0.5217  0.3388
  422MOL0     C55581   4.508   1.915   5.190 -0.2467  0.2041 -0.0756
  422MOL0     C55582   4.658   1.868   5.171  1.3466 -0.6297 -0.4241
  422MOL0     C55583   4.689   1.726   5.136 -0.1222  0.4949  0.1988
  422MOL0     C55584   4.838   1.687   5.133  0.6154  0.3265 -0.7581
  422MOL0     C55585   4.858   1.535   5.158 -0.3424 -0.1387 -0.4724
  422MOL0     C55586   4.990   1.523   5.231  0.3116  0.0692  0.1889
  422MOL0     C55587   4.991   1.404   5.321 -0.7462  0.2932 -0.0725
  422MOL0     C55588   4.970   1.452   5.465  0.8130  0.0643  0.4560
  422MOL0     N55589   5.093   1.506   5.526  0.5111 -0.4506  0.1546
  422MOL0     C55590   5.094   1.588   5.640 -0.0927  0.1722  0.0364
  422MOL0     C55591   5.223   1.594   5.689 -0.6943  0.3131  0.9074
  422MOL0     C55592   5.296   1.676   5.791  0.6129  0.1527  0.0592
  422MOL0     C55593   5.380   1.783   5.717 -0.3981 -0.4080 -0.1833
  422MOL0     C55594   5.461   1.870   5.820  0.5143  0.3404 -0.5198
  422MOL0     C55595   5.360   1.974   5.860 -0.2702 -0.0198  0.4212
  422MOL0     O55596   5.351   2.063   5.746 -0.2328 -0.4564 -0.2371
  422MOL0     C55597   5.268   2.175   5.767 -0.3242 -0.6166  0.6214
  422MOL0     C55598   5.142   2.170   5.715 -0.3560  0.4215  0.2072
  422MOL0     C55599   5.049   2.270   5.743  0.9821 -0.1333  0.6861
  422MOL0     C55600   5.070   2.364   5.843 -0.2352  0.0175 -0.4808
  422MOL0     C55601   4.975   2.472   5.875  0.1027  0.1508  0.5814
  422MOL0     O55602   5.017   2.561   5.977  0.3506 -0.0239  0.1600
  422MOL0     C55603   4.947   2.681   5.977  0.0157  0.0182  0.1774
  422MOL0     C55604   4.867   2.702   6.092 -1.1149 -0.5755  0.5898
  422MOL0     C55605   4.805   2.822   6.119 -0.7263 -0.6550 -0.2896
  422MOL0     C55606   4.832   2.935   6.035 -0.5359  1.1582  1.1923
  422MOL0     O55607   4.798   3.059   6.071 -0.0722 -0.5992 -0.2307
  422MOL0     C55608   4.736   3.135   5.971 -0.3913 -0.6234  0.0836
  422MOL0     C55609   4.683   3.261   6.043 -0.0861 -0.2488 -0.9569
  422MOL0     C55610   4.570   3.319   5.968  0.6584 -0.4429  0.3680
  422MOL0     C55611   4.537   3.454   6.033  0.2517 -0.3404  0.2815
  422MOL0     C55612   4.420   3.529   5.959  0.4414 -0.7670 -0.7282
  422MOL0     C55613   4.415   3.520   5.812 -0.0446  0.3600  0.4027
  422MOL0     C55614   4.509   3.602   5.726  0.7336  0.0479 -0.5085
  422MOL0     C55615   4.481   3.751   5.734  0.9781 -0.3659 -0.0289
  422MOL0    Cl55616   4.640   3.829   5.714  0.4771 -0.3942  0.4661
  422MOL0     C55617   4.908   2.914   5.919  0.3047  1.4338 -0.2291
  422MOL0     C55618   4.965   2.789   5.899 -0.1684 -0.8299 -0.0914
  422MOL0     O55619   4.874   2.483   5.799 -1.1064  0.3486 -0.2103
  422MOL0     C55620   5.192   2.368   5.908  0.5873  0.2431  0.4796
  422MOL0     C55621   5.291   2.279   5.859  0.0787 -0.9577  0.1435
  422MOL0     N55622   5.298   1.508   5.602  0.2087 -0.0495  0.3001
  422MOL0     N55623   5.218   1.460   5.514 -0.0262  0.0862 -0.1427
  422MOL0     C55624   4.469   2.279   5.190 -0.7315 -0.6888 -0.8718
  422MOL0     C55625   4.367   2.380   5.164  0.4838  0.1883  0.4777
  422MOL0     C55626   4.053   2.642   4.990  0.6325  0.2490  0.5950
  422MOL0     C55627   3.975   2.687   5.094 -0.8828  0.7378 -0.2880
  422MOL0     C55628   3.887   2.784   5.080 -0.7055  0.9943  0.1120
  422MOL0     C55629   3.880   2.855   4.967  1.0259 -0.1659  0.5735
  422MOL0     O55630   3.811   2.973   4.942  0.7493  0.4842 -0.7675
  422MOL0     C55631   3.752   3.049   5.048  0.7207 -0.3230 -0.0528
  422MOL0     C55632   3.665   3.167   5.000  0.7236  0.6938  0.6546
  422MOL0     C55633   3.532   3.112   4.932 -0.0698  0.2767 -0.5821
  422MOL0     C55634   3.438   3.223   4.884 -0.5275 -0.9956 -0.1139
  422MOL0     C55635   3.383   3.309   4.981 -0.2325  0.2209 -0.4491
  422MOL0     C55636   3.312   3.387   5.040  0.1505 -0.1595  0.1542
  422MOL0     C55637   3.959   2.814   4.860 -0.5062 -0.0822 -0.3515
  422MOL0     C55638   4.050   2.708   4.871  0.2126 -0.4026  0.3182
  422MOL0     H55639   4.095   2.183   5.139 -1.2321  1.7024  0.0428
  422MOL0     H55640   4.257   2.012   5.181 -2.8025 -0.0197 -1.1999
  422MOL0     H55641   4.451   1.906   5.097 -0.8273 -2.4019  0.4662
  422MOL0     H55642   4.452   1.868   5.271  0.9388  0.4971  0.9443
  422MOL0     H55643   4.715   1.887   5.262 -0.9876  1.1349  0.7666
  422MOL0     H55644   4.706   1.936   5.100  1.8330 -0.3394  0.1721
  422MOL0     H55645   4.645   1.700   5.039 -1.7492 -0.7939  1.2192
  422MOL0     H55646   4.632   1.661   5.203 -0.5123 -0.8661 -1.3960
  422MOL0     H55647   4.889   1.722   5.043  0.0370 -0.5165 -1.4310
  422MOL0     H55648   4.878   1.741   5.220  0.0373 -0.6108  0.1198
  422MOL0     H55649   4.851   1.466   5.074  1.3657 -1.6131  0.5290
  422MOL0     H55650   4.790   1.499   5.236  3.0996 -1.3166  2.2444
  422MOL0     H55651   5.027   1.604   5.295  0.7487 -2.6437  3.6466
  422MOL0     H55652   5.061   1.503   5.150 -1.9000 -2.2123 -1.3182
  422MOL0     H55653   4.911   1.339   5.283 -0.1099  0.3320 -1.5381
  422MOL0     H55654   5.090   1.359   5.310 -1.3061 -0.6324 -1.6941
  422MOL0     H55655   4.943   1.372   5.534 -3.7002  2.7931  2.3365
  422MOL0     H55656   4.883   1.519   5.462 -0.7145 -1.8426  0.2107
  422MOL0     H55657   5.010   1.628   5.697 -0.7607  0.8314 -1.3436
  422MOL0     H55658   5.358   1.612   5.854  1.7001  1.0145 -0.0951
  422MOL0     H55659   5.216   1.728   5.846 -3.2953 -3.4768 -1.6226
  422MOL0     H55660   5.310   1.836   5.652 -1.4075  1.5081  2.3131
  422MOL0     H55661   5.446   1.730   5.649  0.6473 -0.6696  0.9948
  422MOL0     H55662   5.490   1.807   5.904 -1.3756 -1.1001 -0.8720
  422MOL0     H55663   5.549   1.912   5.770  0.1629 -0.0958 -1.5414
  422MOL0     H55664   5.409   2.025   5.943 -1.4127 -2.5896  2.8282
  422MOL0     H55665   5.262   1.933   5.886 -1.1628  1.2450 -0.8161
  422MOL0     H55666   5.121   2.082   5.656  0.3965 -1.0002  1.9720
  422MOL0     H55667   4.958   2.275   5.684 -0.1529 -2.5455  2.0823
  422MOL0     H55668   4.856   2.624   6.167  1.3953 -2.1126 -0.5033
  422MOL0     H55669   4.748   2.835   6.211  2.0803  0.5300  1.3958
  422MOL0     H55670   4.651   3.073   5.941 -1.4156 -0.5031  2.5730
  422MOL0     H55671   4.803   3.161   5.888  0.2207  0.6413  0.9415
  422MOL0     H55672   4.757   3.337   6.070 -1.3637  1.3518 -1.7652
  422MOL0     H55673   4.641   3.220   6.136  1.0811 -1.6680 -1.0285
  422MOL0     H55674   4.477   3.263   5.961  0.3006 -0.2726  2.8959
  422MOL0     H55675   4.617   3.337   5.871  1.9487 -5.4101 -0.2107
  422MOL0     H55676   4.507   3.436   6.136  0.8520  1.0460  0.7122
  422MOL0     H55677   4.624   3.520   6.032 -0.7594  1.0445 -0.3088
  422MOL0     H55678   4.433   3.631   5.996 -1.1218 -0.3971 -1.1179
  422MOL0     H55679   4.327   3.485   5.994  2.0236 -3.0915  0.8152
  422MOL0     H55680   4.322   3.555   5.767  0.8179  2.5426  0.1683
  422MOL0     H55681   4.428   3.416   5.783  0.8754  0.9945 -1.6204
  422MOL0     H55682   4.606   3.588   5.773  0.5591 -1.4448 -0.5603
  422MOL0     H55683   4.513   3.557   5.627  1.4864 -3.2246  0.8857
  422MOL0     H55684   4.442   3.784   5.831 -0.8358 -1.7271 -0.2329
  422MOL0     H55685   4.425   3.790   5.648  3.0136  1.0009 -0.8176
  422MOL0     H55686   4.953   2.997   5.866  3.6125  1.7319  2.6864
  422MOL0     H55687   5.037   2.790   5.817 -1.5995  3.0606 -1.5516
  422MOL0     H55688   5.219   2.442   5.982 -0.1916  2.5560 -1.3993
  422MOL0     H55689   5.383   2.300   5.912  0.3249  1.2559 -1.0174
  422MOL0     H55690   4.575   2.286   5.209 -0.8736 -1.0612  0.0778
  422MOL0     H55691   4.394   2.485   5.159  0.8446  0.1077  0.6962
  422MOL0     H55692   3.984   2.641   5.192  1.5702  2.2291  0.3017
  422MOL0     H55693   3.823   2.804   5.165 -3.0052 -1.7857 -0.8241
  422MOL0     H55694   3.824   3.099   5.114 -1.3844  0.9200  1.4055
  422MOL0     H55695   3.690   2.979   5.104  0.8981 -1.3243 -1.0658
  422MOL0     H55696   3.629   3.226   5.084 -1.6763  0.1876  0.0586
  422MOL0     H55697   3.708   3.239   4.929 -0.6643 -0.1880 -1.1739
  422MOL0     H55698   3.472   3.063   5.009 -3.8424  3.5976 -1.1196
  422MOL0     H55699   3.558   3.041   4.853  1.4713 -2.4483  2.1213
  422MOL0     H55700   3.477   3.288   4.805  1.0863 -0.3525  1.1475
  422MOL0     H55701   3.350   3.169   4.848 -0.7942 -2.0627  2.0053
  422MOL0     H55702   3.243   3.453   5.088  0.7409 -0.0021  0.7987
  422MOL0     H55703   3.972   2.871   4.769  1.3797 -1.3508 -0.9461
  422MOL0     H55704   4.109   2.670   4.789  1.6366 -1.2692  1.6959
  423MOL0     O55705   9.923  11.217   4.188  0.0663 -0.0692  1.2981
  423MOL0     C55706   9.884  11.326   4.231  0.3364  0.6174  0.3109
  423MOL0     O55707   9.960  11.443   4.205  1.2691 -0.1612 -0.3520
  423MOL0     C55708  10.075  11.433   4.137 -0.7627  0.1180  0.6614
  423MOL0     C55709  10.200  11.381   4.189  0.1791 -0.4183 -0.3062
  423MOL0     C55710  10.322  11.385   4.119  0.2647  0.5386  0.7820
  423MOL0     C55711  10.309  11.426   3.981 -0.3174 -0.5877  0.7614
  423MOL0     O55712  10.414  11.423   3.886  0.5418  0.2617  0.5293
  423MOL0     C55713  10.545  11.395   3.929 -0.1840  0.2630  0.2005
  423MOL0     C55714  10.647  11.375   3.814 -0.0368  1.1825  0.1602
  423MOL0     C55715  10.773  11.294   3.860  0.0048 -0.2094 -0.7756
  423MOL0     C55716  10.753  11.142   3.878 -0.1188  0.6486 -0.1413
  423MOL0     C55717  10.686  11.056   3.769  0.5139 -0.1899  0.0706
  423MOL0     C55718  10.766  11.056   3.636 -0.6650  0.2914 -0.2394
  423MOL0     C55719  10.703  10.974   3.531 -0.0303  0.6598  0.7482
  423MOL0     C55720  10.581  11.018   3.471  0.2569 -0.4336  0.2936
  423MOL0     N55721  10.563  11.161   3.440 -0.6585  0.0618 -0.4855
  423MOL0     C55722  10.655  11.233   3.368 -0.2129  0.1162  0.4649
  423MOL0     C55723  10.617  11.361   3.378  0.1333  0.1767 -1.4078
  423MOL0     C55724  10.680  11.476   3.310 -0.1521 -0.3582  0.5026
  423MOL0     C55725  10.831  11.500   3.346  0.1362 -0.6061 -0.5361
  423MOL0     C55726  10.842  11.539   3.494 -0.5766  0.1659 -0.2327
  423MOL0     C55727  10.985  11.550   3.544 -0.7654 -0.3233 -0.3727
  423MOL0     O55728  10.987  11.612   3.666 -0.0214  0.2254 -0.3680
  423MOL0     C55729  11.103  11.669   3.700 -0.1708 -0.1023 -0.2452
  423MOL0     C55730  11.231  11.633   3.650  0.7036  0.4963  0.7504
  423MOL0     C55731  11.346  11.682   3.708  0.8684 -0.0807  0.0768
  423MOL0     C55732  11.345  11.781   3.800  1.0089 -1.2544  0.0560
  423MOL0     C55733  11.474  11.818   3.873 -0.6692  0.0264  0.6001
  423MOL0     O55734  11.595  11.757   3.836  0.5596 -0.2200  0.2695
  423MOL0     C55735  11.722  11.791   3.870 -0.3316 -0.5629  0.1013
  423MOL0     C55736  11.749  11.870   3.979 -0.3195  0.1727  0.9935
  423MOL0     C55737  11.885  11.906   4.002  0.9657  0.4880  0.5604
  423MOL0     C55738  11.995  11.869   3.920  0.2167  0.2407 -1.4277
  423MOL0     O55739  12.122  11.906   3.936  0.9790  0.6387 -0.3696
  423MOL0     C55740  12.200  11.824   4.027 -0.0031  0.2323  0.5275
  423MOL0     C55741  12.226  11.916   4.143 -0.0444 -0.7659 -0.8234
  423MOL0     C55742  12.323  12.037   4.106  0.2857  0.1639 -0.0963
  423MOL0     C55743  12.443  12.043   4.203 -0.4282 -1.2559  0.9288
  423MOL0     C55744  12.554  12.132   4.148 -0.1150  0.7381  0.0415
  423MOL0     C55745  12.696  12.110   4.209  0.4372  0.4855 -0.7925
  423MOL0     C55746  12.705  12.089   4.361  0.6225  0.1288  0.5622
  423MOL0     C55747  12.847  12.109   4.419 -0.1163  0.9385 -0.7958
  423MOL0    Cl55748  12.940  11.968   4.365 -0.0262 -0.0577 -0.0389
  423MOL0     C55749  11.961  11.786   3.814 -0.9212 -0.0508  1.1552
  423MOL0     C55750  11.823  11.753   3.784 -0.1258 -0.7836  0.2343
  423MOL0     O55751  11.463  11.902   3.956  0.5392  0.4664  0.3057
  423MOL0     C55752  11.227  11.830   3.848  0.2010 -0.1982  0.0897
  423MOL0     C55753  11.108  11.777   3.792  0.1105 -0.4151 -0.2715
  423MOL0     N55754  10.497  11.365   3.456 -0.1839 -0.2648  1.1294
  423MOL0     N55755  10.467  11.241   3.495  0.1270 -0.3161  0.2204
  423MOL0     C55756  10.187  11.484   3.929 -0.7364 -0.4935 -0.4900
  423MOL0     C55757  10.076  11.496   4.018 -0.2397  0.5748  0.9573
  423MOL0     C55758   9.750  11.336   4.289  0.3232 -0.8550  0.2641
  423MOL0     C55759   9.688  11.460   4.290 -0.9613  0.0874 -0.0852
  423MOL0     C55760   9.562  11.471   4.348 -0.2219  0.3183  0.5363
  423MOL0     C55761   9.496  11.362   4.402 -0.3313  0.1158  0.5339
  423MOL0     O55762   9.367  11.380   4.456 -0.5389  0.5079 -0.0629
  423MOL0     C55763   9.289  11.275   4.521  0.2548 -0.3112 -0.2344
  423MOL0     C55764   9.139  11.315   4.543 -1.0938  0.1099  0.2184
  423MOL0     C55765   9.087  11.200   4.648  0.5015 -0.4940  0.2372
  423MOL0     C55766   9.111  11.228   4.802  0.2306  0.7725 -0.4988
  423MOL0     C55767   9.012  11.316   4.852  0.4909  1.0344 -0.7572
  423MOL0     C55768   8.929  11.397   4.871 -0.1603  0.6715  0.8941
  423MOL0     C55769   9.555  11.240   4.379 -1.1033  0.6407 -0.1047
  423MOL0     C55770   9.676  11.225   4.323 -0.1978  0.7338 -0.2537
  423MOL0     H55771  10.184  11.329   4.283 -3.2226 -1.3819 -1.2883
  423MOL0     H55772  10.418  11.350   4.155  1.5805 -1.4896 -3.9414
  423MOL0     H55773  10.527  11.299   3.978 -0.4991  0.5320  0.6202
  423MOL0     H55774  10.575  11.469   4.003  2.1445 -0.2077 -0.1912
  423MOL0     H55775  10.693  11.472   3.793 -1.6855  2.0751  0.5591
  423MOL0     H55776  10.601  11.330   3.726  6.1429 -4.3604 -1.0533
  423MOL0     H55777  10.829  11.351   3.936  1.3518 -1.7464 -0.5765
  423MOL0     H55778  10.842  11.306   3.776  0.1666 -1.7692 -0.8904
  423MOL0     H55779  10.853  11.108   3.904 -0.2234  1.2834  1.1728
  423MOL0     H55780  10.682  11.137   3.961 -0.5074  1.2106 -0.4267
  423MOL0     H55781  10.584  11.089   3.751 -1.7772 -5.4506  1.3546
  423MOL0     H55782  10.672  10.951   3.796  1.6039 -0.8017 -1.5152
  423MOL0     H55783  10.870  11.026   3.656  0.5796  3.2183 -1.7642
  423MOL0     H55784  10.761  11.155   3.591 -2.5197  0.1888 -0.3522
  423MOL0     H55785  10.774  10.972   3.447 -1.8686  0.3343 -0.8626
  423MOL0     H55786  10.707  10.876   3.578  2.1201  0.7695  0.8836
  423MOL0     H55787  10.498  10.993   3.538 -0.2394  2.8563  1.0540
  423MOL0     H55788  10.573  10.962   3.377 -2.4675 -0.5309  0.4888
  423MOL0     H55789  10.753  11.210   3.327  0.1048  2.7272 -0.4237
  423MOL0     H55790  10.622  11.557   3.356  1.0203 -0.8937  3.1545
  423MOL0     H55791  10.674  11.462   3.202  2.1558 -3.1658  0.6034
  423MOL0     H55792  10.872  11.587   3.295 -0.8291  1.0702  1.3764
  423MOL0     H55793  10.888  11.408   3.333 -0.5385 -0.7605 -2.7423
  423MOL0     H55794  10.805  11.642   3.507 -2.0101 -0.2749 -0.6941
  423MOL0     H55795  10.792  11.472   3.565  2.0490 -0.0713  1.5621
  423MOL0     H55796  11.031  11.614   3.468 -2.9821  0.8917 -0.7755
  423MOL0     H55797  11.044  11.458   3.546  1.4333  1.0075  2.6620
  423MOL0     H55798  11.238  11.564   3.566 -1.6271 -0.4392  1.2519
  423MOL0     H55799  11.442  11.638   3.685 -0.3128 -2.5205 -0.5617
  423MOL0     H55800  11.679  11.899   4.056 -0.4048 -0.2657  1.0866
  423MOL0     H55801  11.903  11.953   4.098 -2.8423  2.5238  0.4635
  423MOL0     H55802  12.292  11.796   3.975 -2.1377 -0.4904 -3.2525
  423MOL0     H55803  12.164  11.725   4.054  1.2563 -0.8380 -1.4110
  423MOL0     H55804  12.276  11.857   4.219 -0.3444 -2.2570 -1.7418
  423MOL0     H55805  12.134  11.964   4.177  0.7447  0.8269 -0.8444
  423MOL0     H55806  12.273  12.133   4.090 -1.0587 -0.5823 -0.5987
  423MOL0     H55807  12.358  12.017   4.004 -0.9844 -2.9260 -0.0294
  423MOL0     H55808  12.421  12.058   4.309 -0.5493 -2.3758  1.0716
  423MOL0     H55809  12.487  11.944   4.188 -0.5262 -1.1853  0.0852
  423MOL0     H55810  12.536  12.236   4.179  0.2379  0.9905 -0.5734
  423MOL0     H55811  12.553  12.123   4.039 -1.2383  2.0178 -0.0886
  423MOL0     H55812  12.752  12.195   4.169 -0.7754  1.4311 -0.5570
  423MOL0     H55813  12.732  12.019   4.159  0.2163  0.6140 -1.1922
  423MOL0     H55814  12.627  12.144   4.416  0.2942 -2.3281  2.7359
  423MOL0     H55815  12.672  11.988   4.387 -1.9488  0.0471 -2.4325
  423MOL0     H55816  12.851  12.122   4.528  2.3724 -2.4476 -0.3233
  423MOL0     H55817  12.880  12.201   4.370  0.7114  0.5477 -0.9894
  423MOL0     H55818  12.047  11.769   3.750  1.6818  3.8596  3.2400
  423MOL0     H55819  11.805  11.682   3.704  2.1122  0.0297 -1.0662
  423MOL0     H55820  11.209  11.909   3.920  1.0415  0.6092 -0.5637
  423MOL0     H55821  11.026  11.830   3.839 -0.7346 -1.4192 -0.5653
  423MOL0     H55822  10.187  11.505   3.823  6.0242 -1.1058 -1.0473
  423MOL0     H55823   9.984  11.544   3.987  0.9080  1.2360 -1.7042
  423MOL0     H55824   9.732  11.552   4.251  0.6455 -0.7388 -0.3011
  423MOL0     H55825   9.518  11.568   4.323 -0.7591  0.0879  0.5647
  423MOL0     H55826   9.332  11.269   4.621 -0.8921  2.6458  0.5405
  423MOL0     H55827   9.292  11.179   4.467 -2.0931  0.0617 -1.1068
  423MOL0     H55828   9.150  11.415   4.587  2.9907 -0.9289  2.0318
  423MOL0     H55829   9.075  11.321   4.455  1.4797  3.7606 -1.6588
  423MOL0     H55830   9.134  11.105   4.622  5.0692  1.1579  1.5523
  423MOL0     H55831   8.980  11.200   4.626  0.9623 -0.0912 -2.3130
  423MOL0     H55832   9.110  11.138   4.865  0.9770  2.5192  2.2174
  423MOL0     H55833   9.210  11.274   4.811  1.7166 -2.1758 -0.5797
  423MOL0     H55834   8.853  11.472   4.876 -1.2452 -0.4880  2.9221
  423MOL0     H55835   9.512  11.145   4.409 -0.9245  0.5860 -0.0222
  423MOL0     H55836   9.722  11.127   4.316  0.4942  0.8719  1.7692
  424MOL0     O55837   0.737   6.778   6.596 -0.1411 -0.0134  0.1539
  424MOL0     C55838   0.660   6.794   6.694 -0.9063 -0.3394 -0.1324
  424MOL0     O55839   0.528   6.746   6.706 -0.7157  0.5162 -0.0742
  424MOL0     C55840   0.470   6.707   6.588  0.3050 -0.0082 -0.3564
  424MOL0     C55841   0.395   6.796   6.511  0.4581  0.7768  1.6171
  424MOL0     C55842   0.332   6.765   6.397  0.2024  0.0363  0.3829
  424MOL0     C55843   0.309   6.621   6.367 -0.0510 -0.6550  0.1268
  424MOL0     O55844   0.223   6.589   6.266 -0.3702 -0.3590  0.4806
  424MOL0     C55845   0.184   6.451   6.261  0.5930  0.2488  0.0277
  424MOL0     C55846   0.084   6.431   6.139 -0.2729  0.3079  0.2356
  424MOL0     C55847   0.042   6.284   6.140 -1.7776 -0.0640  0.1462
  424MOL0     C55848  -0.071   6.258   6.040  0.2303 -0.6629 -0.5119
  424MOL0     C55849  -0.155   6.124   6.041  0.9010  0.4384  0.2667
  424MOL0     C55850  -0.305   6.141   6.003 -0.0781  0.3944 -0.3386
  424MOL0     C55851  -0.322   6.213   5.872 -0.6843  0.6070  0.4570
  424MOL0     C55852  -0.456   6.183   5.796  0.5483 -0.6916 -0.4470
  424MOL0     N55853  -0.456   6.060   5.716 -1.0887  1.3265 -0.4557
  424MOL0     C55854  -0.491   5.937   5.764 -0.4569  0.0789  0.6920
  424MOL0     C55855  -0.494   5.862   5.646  0.2424 -0.4306  0.9383
  424MOL0     C55856  -0.525   5.712   5.650 -0.4819  0.9066  0.0105
  424MOL0     C55857  -0.402   5.612   5.629 -0.5672  0.6388  0.2216
  424MOL0     C55858  -0.374   5.591   5.479 -0.4869  0.7090 -0.2738
  424MOL0     C55859  -0.321   5.454   5.430  0.1504 -0.5358 -0.4979
  424MOL0     O55860  -0.422   5.355   5.477  0.3102 -0.4165  0.6736
  424MOL0     C55861  -0.546   5.350   5.416  0.4945 -0.2974 -0.3012
  424MOL0     C55862  -0.662   5.354   5.495 -0.9935  0.0504  0.6835
  424MOL0     C55863  -0.786   5.362   5.441 -0.5803 -0.3620 -0.5391
  424MOL0     C55864  -0.804   5.361   5.298 -0.0869  0.3638 -0.3077
  424MOL0     C55865  -0.936   5.348   5.234  0.5609 -0.3449  0.5101
  424MOL0     O55866  -1.040   5.353   5.319  0.2470  0.4835  0.0587
  424MOL0     C55867  -1.167   5.369   5.268 -0.0695 -0.0458 -0.4574
  424MOL0     C55868  -1.245   5.461   5.334  0.0541 -0.4914 -0.2983
  424MOL0     C55869  -1.377   5.492   5.292  1.1629 -0.6374 -0.5994
  424MOL0     C55870  -1.440   5.421   5.180 -0.0213 -0.1770  0.2912
  424MOL0     O55871  -1.565   5.436   5.128 -0.2206  0.8042 -0.2446
  424MOL0     C55872  -1.646   5.534   5.186  0.6655 -0.6039  0.5042
  424MOL0     C55873  -1.771   5.550   5.109 -1.2179 -0.0837  1.0747
  424MOL0     C55874  -1.740   5.559   4.956 -0.5013 -0.6099 -0.5658
  424MOL0     C55875  -1.858   5.586   4.865 -0.3021  0.4024  0.4696
  424MOL0     C55876  -1.820   5.597   4.720  0.7810  0.2670  0.4663
  424MOL0     C55877  -1.928   5.651   4.626  0.0237  0.9106  0.8463
  424MOL0     C55878  -1.911   5.808   4.610 -0.3366  0.0148 -0.0424
  424MOL0     C55879  -1.788   5.845   4.519  0.2419  0.1947  0.1516
  424MOL0    Cl55880  -1.810   5.823   4.336 -0.1027  0.4421 -0.3050
  424MOL0     C55881  -1.364   5.319   5.128  0.3283  0.5035  1.0907
  424MOL0     C55882  -1.236   5.297   5.173  0.2797 -0.5297  0.5926
  424MOL0     O55883  -0.940   5.334   5.112  0.2463  0.3443  0.6014
  424MOL0     C55884  -0.689   5.363   5.219 -0.2426 -0.3012 -0.3961
  424MOL0     C55885  -0.560   5.352   5.276  0.5470 -0.1272 -0.3005
  424MOL0     N55886  -0.465   5.944   5.538  1.1240  0.0524  0.6243
  424MOL0     N55887  -0.434   6.058   5.583  0.1632  1.0209  0.5852
  424MOL0     C55888   0.376   6.532   6.448  0.1738 -0.3072 -0.3462
  424MOL0     C55889   0.474   6.568   6.551  0.9315 -0.2811  0.4269
  424MOL0     C55890   0.726   6.847   6.820  0.2115 -0.8105  0.9889
  424MOL0     C55891   0.836   6.930   6.794  0.1510 -0.3626 -0.2438
  424MOL0     C55892   0.900   6.992   6.902 -0.9718 -0.4874 -0.5661
  424MOL0     C55893   0.853   6.968   7.030 -0.1521 -0.4060  0.2722
  424MOL0     O55894   0.920   7.028   7.136 -0.5208  0.3971  0.6935
  424MOL0     C55895   0.977   6.935   7.216 -0.4156 -0.4706  0.5412
  424MOL0     C55896   1.097   7.004   7.282  0.0190  0.0541  0.2298
  424MOL0     C55897   1.036   7.128   7.351 -0.0987  0.5822 -0.2874
  424MOL0     C55898   1.149   7.194   7.449 -0.0986  0.0133 -0.4956
  424MOL0     C55899   1.183   7.108   7.562 -0.7129  0.0072  0.8993
  424MOL0     C55900   1.226   7.013   7.635  0.3797  0.0001  0.0800
  424MOL0     C55901   0.747   6.880   7.054  0.2099 -0.8848 -0.0346
  424MOL0     C55902   0.684   6.823   6.951  1.4995 -0.3128 -0.4158
  424MOL0     H55903   0.398   6.900   6.541 -0.2181  1.0580  0.7423
  424MOL0     H55904   0.276   6.827   6.327  0.2411 -1.0964 -0.6891
  424MOL0     H55905   0.133   6.424   6.354 -0.6279  0.0707 -0.6694
  424MOL0     H55906   0.268   6.386   6.234 -0.1853 -1.6103  1.8558
  424MOL0     H55907   0.146   6.434   6.049  1.7436  0.6994  1.5915
  424MOL0     H55908  -0.002   6.498   6.140 -1.8472 -1.4860  4.0302
  424MOL0     H55909   0.012   6.265   6.244 -2.0040 -3.0329 -0.3739
  424MOL0     H55910   0.121   6.212   6.118 -0.2281  1.3927  0.7172
  424MOL0     H55911  -0.140   6.343   6.041 -0.3903 -1.1607 -0.4758
  424MOL0     H55912  -0.038   6.267   5.936  0.7829  0.9715 -0.2225
  424MOL0     H55913  -0.145   6.081   6.141 -0.1452  0.1373  0.2536
  424MOL0     H55914  -0.119   6.044   5.976 -0.5281 -0.1681  0.1792
  424MOL0     H55915  -0.354   6.200   6.081  2.7594 -0.8729  2.6740
  424MOL0     H55916  -0.348   6.040   6.004  0.5089 -0.0040 -3.4621
  424MOL0     H55917  -0.318   6.322   5.884 -0.3389  0.4510  1.9796
  424MOL0     H55918  -0.240   6.183   5.807 -0.2275  0.0728  1.2599
  424MOL0     H55919  -0.477   6.269   5.732  0.6386 -0.8424 -0.6829
  424MOL0     H55920  -0.536   6.171   5.869 -1.0735 -0.7099 -2.1656
  424MOL0     H55921  -0.503   5.891   5.861 -1.0198 -2.3091 -0.4389
  424MOL0     H55922  -0.599   5.701   5.570 -1.7703  2.7646  0.8634
  424MOL0     H55923  -0.578   5.687   5.742 -1.1689 -1.4644 -0.9618
  424MOL0     H55924  -0.411   5.513   5.676  3.3802  1.1709  2.5314
  424MOL0     H55925  -0.318   5.653   5.686 -0.0761 -0.2347  0.1439
  424MOL0     H55926  -0.472   5.590   5.430 -2.0090  0.1426  2.5249
  424MOL0     H55927  -0.309   5.673   5.448 -0.9618  0.8935 -0.8099
  424MOL0     H55928  -0.228   5.420   5.476  0.6114  0.6636 -0.5212
  424MOL0     H55929  -0.315   5.467   5.322  0.4731  6.2853 -0.0714
  424MOL0     H55930  -0.648   5.379   5.599  0.4574 -0.4863  0.6534
  424MOL0     H55931  -0.874   5.356   5.505 -0.8209 -0.3265 -0.8624
  424MOL0     H55932  -1.188   5.510   5.412  2.3349 -0.5829 -1.8154
  424MOL0     H55933  -1.439   5.565   5.344  0.8868 -2.5876  2.0072
  424MOL0     H55934  -1.596   5.632   5.184  0.3321 -0.4066  1.2646
  424MOL0     H55935  -1.657   5.515   5.293  1.2220 -2.7576  0.2134
  424MOL0     H55936  -1.813   5.641   5.155 -0.2641 -0.5004  2.8500
  424MOL0     H55937  -1.827   5.460   5.135 -0.1051 -2.0525 -2.6981
  424MOL0     H55938  -1.697   5.469   4.911  0.4454 -0.2552 -0.3702
  424MOL0     H55939  -1.676   5.647   4.945 -1.4309  0.5210  2.1588
  424MOL0     H55940  -1.934   5.511   4.886  3.1641 -3.7708 -0.5040
  424MOL0     H55941  -1.901   5.683   4.892 -0.9658 -0.2452  1.8459
  424MOL0     H55942  -1.793   5.495   4.690  1.8797  0.4399  0.8287
  424MOL0     H55943  -1.734   5.662   4.702  2.0791 -1.7726 -1.1288
  424MOL0     H55944  -2.031   5.633   4.657  0.7240 -0.5166  2.5789
  424MOL0     H55945  -1.929   5.598   4.531 -0.2914 -0.6060  1.6658
  424MOL0     H55946  -2.000   5.850   4.563  0.1706 -0.4863 -1.5215
  424MOL0     H55947  -1.891   5.844   4.711  2.4301 -1.2429 -0.0265
  424MOL0     H55948  -1.697   5.794   4.554  0.1016  0.4536  0.9052
  424MOL0     H55949  -1.776   5.953   4.533  0.0999  0.1071  1.0433
  424MOL0     H55950  -1.406   5.252   5.054 -1.0537 -0.0219  2.2937
  424MOL0     H55951  -1.183   5.218   5.120 -0.2861  0.6379 -1.8164
  424MOL0     H55952  -0.677   5.359   5.111  0.0413 -0.2617 -0.3658
  424MOL0     H55953  -0.474   5.336   5.211  1.6230 -0.4681  1.1467
  424MOL0     H55954   0.354   6.426   6.440  3.3717 -1.1128  0.1246
  424MOL0     H55955   0.529   6.501   6.616 -0.7526 -1.6224  0.5147
  424MOL0     H55956   0.861   6.954   6.691 -0.1438 -0.5472 -0.3590
  424MOL0     H55957   0.986   7.055   6.883  0.2483 -1.5494  1.1449
  424MOL0     H55958   1.010   6.844   7.165  1.5252  0.9137 -0.8088
  424MOL0     H55959   0.904   6.917   7.295 -2.2978  3.3062 -0.1254
  424MOL0     H55960   1.145   6.930   7.347 -0.3128 -0.8520 -0.5325
  424MOL0     H55961   1.168   7.045   7.210 -0.8335 -0.1850 -0.7573
  424MOL0     H55962   0.951   7.105   7.416  0.5524  2.7736  1.4731
  424MOL0     H55963   0.999   7.195   7.272 -2.9988 -3.5320 -2.8285
  424MOL0     H55964   1.231   7.238   7.392  0.6883  0.5261  0.9876
  424MOL0     H55965   1.105   7.285   7.491  1.0855  0.4143 -0.0768
  424MOL0     H55966   1.265   6.917   7.662 -1.9084 -1.4445 -1.3989
  424MOL0     H55967   0.728   6.848   7.156  1.5996  1.2896  0.9827
  424MOL0     H55968   0.592   6.769   6.965  1.7012  0.0891  3.3974
  425MOL0     O55969   3.062   0.741  10.363  0.1187  0.0260  0.1177
  425MOL0     C55970   3.009   0.698  10.256  0.3932  0.1218 -0.1603
  425MOL0     O55971   2.954   0.576  10.243 -0.8523  0.4428  0.5971
  425MOL0     C55972   2.947   0.492  10.357 -0.3172 -0.8314  0.1688
  425MOL0     C55973   2.844   0.511  10.451  0.3167 -0.1527 -0.5002
  425MOL0     C55974   2.837   0.420  10.557 -0.9555 -0.1288 -0.3002
  425MOL0     C55975   2.937   0.330  10.586 -0.5304 -0.9533 -0.0016
  425MOL0     O55976   2.936   0.260  10.709  0.0506 -0.0891  0.0355
  425MOL0     C55977   3.067   0.247  10.780 -0.0534  0.3591 -0.2097
  425MOL0     C55978   3.132   0.379  10.824 -0.0360  0.6530 -0.2591
  425MOL0     C55979   3.036   0.456  10.912 -0.0496 -0.3885 -0.3278
  425MOL0     C55980   3.091   0.593  10.941 -0.0172 -0.4123 -0.0215
  425MOL0     C55981   3.008   0.662  11.049  0.1448  0.6884  0.4847
  425MOL0     C55982   2.994   0.600  11.194 -0.7868 -0.0836 -0.2010
  425MOL0     C55983   2.857   0.545  11.237 -0.2949  0.5425 -0.3938
  425MOL0     C55984   2.822   0.548  11.389  0.3381 -0.1667  0.3792
  425MOL0     N55985   2.684   0.501  11.417 -1.1936 -0.4901  0.7495
  425MOL0     C55986   2.657   0.378  11.484 -0.5173  0.2879 -1.2052
  425MOL0     C55987   2.524   0.383  11.520 -0.0148 -0.5258 -0.7966
  425MOL0     C55988   2.442   0.293  11.599  0.1746 -0.2046 -0.3811
  425MOL0     C55989   2.516   0.190  11.669  0.4122 -0.1513 -0.2048
  425MOL0     C55990   2.420   0.090  11.730  0.1376 -0.0531  0.0537
  425MOL0     C55991   2.499  -0.007  11.828  0.7539  0.1496 -0.2146
  425MOL0     O55992   2.602  -0.072  11.755 -0.3632 -0.7237  0.3595
  425MOL0     C55993   2.638  -0.202  11.785 -0.0178 -0.4712  0.3762
  425MOL0     C55994   2.617  -0.257  11.917  0.4291 -0.1022  1.1175
  425MOL0     C55995   2.666  -0.384  11.932 -0.8564 -0.3323 -0.0932
  425MOL0     C55996   2.731  -0.463  11.825 -0.4083 -0.2747 -0.6950
  425MOL0     C55997   2.779  -0.601  11.858  0.8505 -0.4202  0.8799
  425MOL0     O55998   2.868  -0.645  11.765 -0.5544  0.1807 -0.0031
  425MOL0     C55999   2.965  -0.743  11.793 -0.8447 -0.1881 -0.1699
  425MOL0     C56000   3.028  -0.759  11.911  0.5364 -0.3749 -0.3437
  425MOL0     C56001   3.123  -0.857  11.935  0.1259  0.4455 -0.8529
  425MOL0     C56002   3.165  -0.950  11.834 -0.0405 -0.3236  0.1700
  425MOL0     O56003   3.257  -1.040  11.867 -0.3096  0.3526 -0.0092
  425MOL0     C56004   3.238  -1.172  11.824 -0.1560 -0.1593 -0.2274
  425MOL0     C56005   3.365  -1.265  11.866  0.3471  0.4857 -0.8685
  425MOL0     C56006   3.332  -1.417  11.845  0.2932 -0.2215  0.1836
  425MOL0     C56007   3.235  -1.485  11.941 -0.8539  0.3121 -0.0041
  425MOL0     C56008   3.232  -1.638  11.893  0.0321  0.2056  0.9637
  425MOL0     C56009   3.120  -1.653  11.796  0.8415 -0.5305  0.0889
  425MOL0     C56010   3.122  -1.795  11.738 -0.9631  0.1076 -0.3043
  425MOL0     C56011   3.002  -1.819  11.651 -0.3488 -0.3534 -0.7154
  425MOL0    Cl56012   3.008  -1.737  11.497  0.1186  0.0664 -0.2618
  425MOL0     C56013   3.109  -0.922  11.713  0.6552  1.0539 -0.2247
  425MOL0     C56014   3.014  -0.828  11.690 -0.3723 -0.0981 -0.7023
  425MOL0     O56015   2.727  -0.668  11.946 -0.0198  0.2136 -0.2544
  425MOL0     C56016   2.738  -0.399  11.703  1.0135 -0.3115  0.0262
  425MOL0     C56017   2.689  -0.272  11.677  0.5576 -0.3220  0.4776
  425MOL0     N56018   2.472   0.503  11.489 -1.1292  0.3406 -0.0764
  425MOL0     N56019   2.567   0.578  11.428 -0.5018  0.1830  0.1972
  425MOL0     C56020   3.034   0.308  10.488  0.3294 -0.8472 -0.1189
  425MOL0     C56021   3.039   0.392  10.373 -0.3809  0.6451  0.1576
  425MOL0     C56022   3.012   0.779  10.130  0.4137 -0.2020 -0.4427
  425MOL0     C56023   3.083   0.903  10.122  0.7220  0.3783  0.6276
  425MOL0     C56024   3.092   0.981  10.007  0.1921  0.5369  0.0756
  425MOL0     C56025   3.036   0.951   9.886  0.0428  0.8323  0.6381
  425MOL0     O56026   3.057   1.037   9.778  0.3656  0.8528  0.2656
  425MOL0     C56027   2.979   0.995   9.663  0.3798  0.1195  0.2580
  425MOL0     C56028   2.987   1.116   9.568 -0.4238 -0.1529  0.7824
  425MOL0     C56029   3.124   1.126   9.511 -0.4744  0.3159  0.3441
  425MOL0     C56030   3.134   1.246   9.407 -0.3506  0.8938 -0.0285
  425MOL0     C56031   3.273   1.289   9.367  0.0969 -0.4965  1.1309
  425MOL0     C56032   3.379   1.340   9.337  0.0687  0.1147 -0.9353
  425MOL0     C56033   2.968   0.824   9.889  0.2182 -0.5164 -0.0338
  425MOL0     C56034   2.962   0.738  10.004  0.2823  0.2823 -0.1183
  425MOL0     H56035   2.778   0.593  10.425  2.1763  1.6684  0.2466
  425MOL0     H56036   2.763   0.427  10.636  1.4004  1.4967  1.9373
  425MOL0     H56037   3.130   0.180  10.719 -1.4806 -1.1531 -0.0967
  425MOL0     H56038   3.055   0.188  10.872  1.0360  2.8460  1.6321
  425MOL0     H56039   3.156   0.434  10.733  2.6445  0.8648  0.4779
  425MOL0     H56040   3.223   0.355  10.881 -0.3372 -1.3639 -0.5497
  425MOL0     H56041   3.028   0.409  11.011  0.6202 -1.3784 -0.7336
  425MOL0     H56042   2.936   0.446  10.869 -0.2114 -1.3014  0.2126
  425MOL0     H56043   3.190   0.582  10.986 -0.9786  1.3279  2.7444
  425MOL0     H56044   3.080   0.660  10.855  1.4109  2.2128  1.7062
  425MOL0     H56045   2.907   0.675  11.009  0.5302  0.9622 -0.4334
  425MOL0     H56046   3.071   0.752  11.046  3.7091 -1.6027 -0.6947
  425MOL0     H56047   3.022   0.675  11.268 -2.8552 -1.5765  2.2430
  425MOL0     H56048   3.072   0.524  11.204 -1.9632 -1.3340 -0.2602
  425MOL0     H56049   2.778   0.605  11.193 -1.1964  0.5246  1.1327
  425MOL0     H56050   2.839   0.447  11.192  1.3653 -0.3698  0.8167
  425MOL0     H56051   2.829   0.646  11.436 -0.9922 -0.2807  0.8444
  425MOL0     H56052   2.890   0.474  11.433 -0.0092 -0.5500  0.2838
  425MOL0     H56053   2.716   0.287  11.489  0.2687  0.8490  0.4791
  425MOL0     H56054   2.372   0.253  11.525  1.2387 -1.1498 -0.9105
  425MOL0     H56055   2.394   0.341  11.684 -0.6977 -3.1472  0.9432
  425MOL0     H56056   2.580   0.229  11.749 -0.9562 -4.7427  3.6338
  425MOL0     H56057   2.574   0.137  11.592  0.8186 -2.3329  1.4889
  425MOL0     H56058   2.340   0.143  11.783 -0.2282 -3.1126  2.8710
  425MOL0     H56059   2.374   0.033  11.649  1.0124  2.1319 -2.1083
  425MOL0     H56060   2.423  -0.076  11.867  2.0398  0.3100  2.8466
  425MOL0     H56061   2.554   0.036  11.913  0.7184  2.8264 -1.4492
  425MOL0     H56062   2.568  -0.214  12.004 -3.5294  0.6625 -1.2408
  425MOL0     H56063   2.657  -0.434  12.028 -0.8311 -0.0991  0.0288
  425MOL0     H56064   3.010  -0.690  11.993  0.5717  0.6441 -1.1638
  425MOL0     H56065   3.167  -0.867  12.033 -0.5546 -1.4345 -0.6914
  425MOL0     H56066   3.215  -1.179  11.717  0.4233  2.5238 -0.5850
  425MOL0     H56067   3.148  -1.211  11.873 -1.2672  2.0137 -0.3911
  425MOL0     H56068   3.393  -1.240  11.969 -0.2312 -0.8208 -0.3648
  425MOL0     H56069   3.439  -1.242  11.789 -3.1275 -2.8912 -5.7983
  425MOL0     H56070   3.426  -1.471  11.844 -0.4396 -1.7074  2.7005
  425MOL0     H56071   3.290  -1.421  11.744  0.8515  2.6215 -0.2539
  425MOL0     H56072   3.280  -1.482  12.041  1.9314 -3.1465 -0.9451
  425MOL0     H56073   3.133  -1.447  11.934 -1.0547 -0.3140 -0.5596
  425MOL0     H56074   3.200  -1.701  11.977 -0.6818 -0.8858 -0.1121
  425MOL0     H56075   3.329  -1.665  11.851  0.6376  2.3211  0.8638
  425MOL0     H56076   3.132  -1.583  11.712 -3.0111 -1.9869 -1.9399
  425MOL0     H56077   3.031  -1.615  11.847  0.9440  1.1307 -0.8974
  425MOL0     H56078   3.217  -1.796  11.685  0.3804  1.0051  1.9482
  425MOL0     H56079   3.127  -1.874  11.813  2.8485 -1.0386 -1.5635
  425MOL0     H56080   2.912  -1.785  11.703  2.2055  1.2345  3.1191
  425MOL0     H56081   2.988  -1.927  11.641 -0.7415 -0.4911  1.0671
  425MOL0     H56082   3.158  -0.969  11.629  0.3781 -1.4261  0.8972
  425MOL0     H56083   2.975  -0.802  11.592  0.8866 -1.9486 -1.7588
  425MOL0     H56084   2.771  -0.464  11.623 -2.2099 -2.6725  0.3804
  425MOL0     H56085   2.697  -0.241  11.574 -1.2004 -4.4746 -1.1257
  425MOL0     H56086   3.121   0.246  10.504  0.5963 -0.0774  1.6432
  425MOL0     H56087   3.120   0.384  10.301 -2.3021  1.4733 -2.2378
  425MOL0     H56088   3.128   0.950  10.209 -1.4782 -1.8758  3.1816
  425MOL0     H56089   3.158   1.066  10.023  1.3218 -0.0240 -1.4031
  425MOL0     H56090   2.875   0.985   9.697  0.0533  0.8860 -0.4662
  425MOL0     H56091   3.010   0.898   9.623  0.1687  0.9538 -2.0821
  425MOL0     H56092   2.916   1.098   9.486  1.7631 -2.0745 -0.8218
  425MOL0     H56093   2.965   1.207   9.625 -1.3421 -0.4913  0.9918
  425MOL0     H56094   3.147   1.030   9.463 -1.4847  1.1083 -1.8498
  425MOL0     H56095   3.196   1.139   9.592 -4.0058 -0.1940  3.8892
  425MOL0     H56096   3.071   1.223   9.320 -1.2644  0.2114  0.7833
  425MOL0     H56097   3.081   1.325   9.461 -1.1451  0.4099 -0.0748
  425MOL0     H56098   3.474   1.374   9.300 -0.6629  2.2536 -1.0046
  425MOL0     H56099   2.930   0.787   9.794  0.1375 -1.1923  0.2580
  425MOL0     H56100   2.919   0.638   9.995  1.6705 -0.2651 -1.1459
  426MOL0     O56101   9.426   7.695   8.509 -0.2350 -0.0196 -0.7472
  426MOL0     C56102   9.414   7.574   8.487  0.5999 -0.3975  1.4353
  426MOL0     O56103   9.518   7.486   8.497 -0.1890 -0.1807 -0.7005
  426MOL0     C56104   9.638   7.532   8.553  0.6595  0.0731 -0.2073
  426MOL0     C56105   9.722   7.607   8.487 -0.9909  0.1764 -0.0343
  426MOL0     C56106   9.849   7.644   8.540 -0.2057  0.0474 -1.1327
  426MOL0     C56107   9.880   7.607   8.674 -0.8117  0.8264  0.2859
  426MOL0     O56108   9.999   7.666   8.725  0.0864  0.3536  1.0221
  426MOL0     C56109   9.999   7.682   8.867 -0.2447 -0.9001 -0.0993
  426MOL0     C56110  10.097   7.797   8.911  0.0871  0.1026  0.9071
  426MOL0     C56111  10.147   7.780   9.053  0.5972 -0.2739  0.5658
  426MOL0     C56112  10.260   7.876   9.080 -0.2996 -0.5192  0.1154
  426MOL0     C56113  10.211   8.019   9.080 -0.0083  0.4412 -0.1489
  426MOL0     C56114  10.306   8.121   9.138  1.0780  0.2988  0.0638
  426MOL0     C56115  10.459   8.110   9.124  0.6040  0.2987 -0.1361
  426MOL0     C56116  10.525   8.220   9.207 -0.0736 -0.7868  0.1172
  426MOL0     N56117  10.673   8.215   9.231  0.0252  0.1157 -0.0326
  426MOL0     C56118  10.752   8.110   9.180 -0.5501  0.1072  0.2335
  426MOL0     C56119  10.875   8.121   9.246  1.4993  0.6126 -0.2701
  426MOL0     C56120  10.992   8.034   9.218 -0.0038  0.5047 -0.1447
  426MOL0     C56121  10.972   7.902   9.298  0.0858 -0.5439 -0.0198
  426MOL0     C56122  11.067   7.788   9.238 -0.7599 -0.0508  0.1864
  426MOL0     C56123  11.216   7.830   9.269 -0.2795  0.8356  0.4818
  426MOL0     O56124  11.298   7.711   9.248 -0.6402  0.6679  0.2708
  426MOL0     C56125  11.352   7.667   9.362  0.1348  0.1382 -0.5551
  426MOL0     C56126  11.431   7.750   9.442  0.2068  0.3275  0.1158
  426MOL0     C56127  11.501   7.694   9.551 -0.1661 -0.7173 -0.3498
  426MOL0     C56128  11.499   7.552   9.581 -0.4636 -0.8472  0.4868
  426MOL0     C56129  11.586   7.493   9.685  0.7295  0.1107  1.2108
  426MOL0     O56130  11.613   7.567   9.799  0.2162 -0.5474  0.1008
  426MOL0     C56131  11.663   7.479   9.904 -0.2982 -0.7965  0.8071
  426MOL0     C56132  11.801   7.472   9.927  0.1049 -0.2352 -0.1753
  426MOL0     C56133  11.852   7.397  10.027 -0.3516 -0.1296  1.1522
  426MOL0     C56134  11.763   7.319  10.099 -0.4478  1.3082  0.5964
  426MOL0     O56135  11.808   7.222  10.191  0.0614 -0.2737  0.8534
  426MOL0     C56136  11.873   7.278  10.307  0.2662 -0.0025 -0.3425
  426MOL0     C56137  12.028   7.251  10.300 -0.3588 -0.3721  0.1251
  426MOL0     C56138  12.053   7.113  10.295 -0.0980  0.6324  0.6601
  426MOL0     C56139  12.195   7.068  10.314  0.0080  1.1908 -0.6341
  426MOL0     C56140  12.307   7.131  10.215 -0.2634 -1.0328 -0.1397
  426MOL0     C56141  12.451   7.132  10.260  0.3205 -0.6034  0.8200
  426MOL0     C56142  12.478   7.238  10.360  0.0814 -0.0315 -0.2302
  426MOL0     C56143  12.625   7.238  10.400 -0.8313 -0.6442 -0.5243
  426MOL0    Cl56144  12.634   7.381  10.503 -0.3286 -0.0492  0.0004
  426MOL0     C56145  11.615   7.330  10.086  0.2953 -0.6378 -0.2579
  426MOL0     C56146  11.571   7.413   9.985  0.9527 -0.9124 -0.1401
  426MOL0     O56147  11.628   7.374   9.667 -0.1897 -0.1376 -0.1126
  426MOL0     C56148  11.418   7.476   9.504 -0.3603 -0.1889 -0.0828
  426MOL0     C56149  11.347   7.525   9.391  0.0382 -0.3484 -0.4756
  426MOL0     N56150  10.863   8.229   9.337  0.3643  0.3980  0.4744
  426MOL0     N56151  10.743   8.274   9.331  0.6489  0.1177  0.5633
  426MOL0     C56152   9.802   7.517   8.751 -0.3196  0.1141  0.0336
  426MOL0     C56153   9.684   7.485   8.679  0.3263  0.6272 -0.2062
  426MOL0     C56154   9.295   7.515   8.437  0.7993  0.8307 -0.8953
  426MOL0     C56155   9.278   7.375   8.458 -0.0915 -0.3729 -1.0918
  426MOL0     C56156   9.154   7.312   8.431 -0.0787  0.1923 -0.0461
  426MOL0     C56157   9.051   7.386   8.385 -0.3351  0.1541 -0.1437
  426MOL0     O56158   8.930   7.324   8.362  0.3065 -0.0003  0.3218
  426MOL0     C56159   8.801   7.383   8.398 -0.5785  0.2399  0.3683
  426MOL0     C56160   8.783   7.418   8.546 -0.0005 -0.6673  0.1136
  426MOL0     C56161   8.859   7.329   8.643 -0.2298  0.8631  0.3097
  426MOL0     C56162   8.834   7.330   8.798  0.2586 -0.6709  0.0268
  426MOL0     C56163   8.848   7.457   8.873 -1.3562  0.2962 -0.4724
  426MOL0     C56164   8.853   7.551   8.940 -0.1599 -0.5577 -0.5000
  426MOL0     C56165   9.057   7.528   8.377 -0.0871 -0.6147  1.2813
  426MOL0     C56166   9.181   7.590   8.398  0.5363  0.0690 -1.0561
  426MOL0     H56167   9.693   7.649   8.391  1.0812  0.6135 -0.5212
  426MOL0     H56168   9.902   7.719   8.482 -0.8279  1.3211 -0.1196
  426MOL0     H56169  10.042   7.592   8.913  1.5164  0.9549  2.1593
  426MOL0     H56170   9.900   7.697   8.910 -0.7529 -1.8872 -0.8741
  426MOL0     H56171  10.046   7.893   8.903 -1.4180 -0.7086  0.4453
  426MOL0     H56172  10.177   7.811   8.837 -0.2119  0.4030  0.6311
  426MOL0     H56173  10.174   7.676   9.072 -2.7067 -1.0003  2.0603
  426MOL0     H56174  10.072   7.795   9.132  2.3571  0.7051  2.1290
  426MOL0     H56175  10.300   7.850   9.178  0.5546  0.9024  0.1718
  426MOL0     H56176  10.335   7.853   9.004 -1.7576  0.3232 -1.6637
  426MOL0     H56177  10.115   8.031   9.131  0.1829 -0.8633  0.5647
  426MOL0     H56178  10.182   8.055   8.981 -2.8673  1.3174  0.9058
  426MOL0     H56179  10.295   8.122   9.247 -0.8826  2.5808 -0.0555
  426MOL0     H56180  10.280   8.221   9.100 -3.2361  1.0162  3.9848
  426MOL0     H56181  10.481   8.011   9.163  0.3461  0.6089  0.8220
  426MOL0     H56182  10.480   8.123   9.017 -1.0630  0.4282 -0.4797
  426MOL0     H56183  10.466   8.233   9.298  1.5448 -1.7648  1.3689
  426MOL0     H56184  10.522   8.315   9.153 -0.8312 -0.9655 -0.1611
  426MOL0     H56185  10.724   8.035   9.106  1.2118  0.5966 -1.0123
  426MOL0     H56186  11.075   8.090   9.262  0.3751  0.4874 -0.8191
  426MOL0     H56187  11.000   8.004   9.113  2.3978 -4.4299  1.1522
  426MOL0     H56188  10.870   7.867   9.279 -0.5840  1.9050 -1.2825
  426MOL0     H56189  10.984   7.918   9.405  2.0415 -0.6876 -0.1751
  426MOL0     H56190  11.055   7.688   9.281  2.2864  0.2471  1.9778
  426MOL0     H56191  11.055   7.769   9.130 -0.0812 -1.4616  0.3354
  426MOL0     H56192  11.220   7.864   9.373  3.4094  1.6731  0.1911
  426MOL0     H56193  11.249   7.909   9.200 -2.0798  1.7985  0.6582
  426MOL0     H56194  11.447   7.853   9.411 -0.2152 -0.2476 -2.2607
  426MOL0     H56195  11.552   7.765   9.615  0.6111 -0.7204 -0.9340
  426MOL0     H56196  11.857   7.550   9.876 -0.1121 -0.5314 -0.8795
  426MOL0     H56197  11.959   7.390  10.046 -0.4220 -0.2822  1.5019
  426MOL0     H56198  11.814   7.231  10.387  3.6302 -2.7814  0.7387
  426MOL0     H56199  11.871   7.386  10.323  3.7930  0.1788 -0.3932
  426MOL0     H56200  12.078   7.304  10.381 -0.5045  0.5900 -0.3983
  426MOL0     H56201  12.069   7.294  10.208 -0.6445  0.7912  0.5203
  426MOL0     H56202  12.021   7.082  10.195  0.9461  1.1655  0.1471
  426MOL0     H56203  11.990   7.063  10.369  1.7240  0.7278  2.3525
  426MOL0     H56204  12.213   7.086  10.421 -3.0307 -0.3780  0.2654
  426MOL0     H56205  12.199   6.960  10.303  3.2213  0.9409  1.5362
  426MOL0     H56206  12.276   7.234  10.198 -1.2652 -1.4085 -0.6540
  426MOL0     H56207  12.286   7.085  10.118 -3.8109  0.8830 -0.4344
  426MOL0     H56208  12.514   7.144  10.171  1.7252  2.7627  2.1052
  426MOL0     H56209  12.469   7.036  10.309  0.5012 -0.0472  1.8657
  426MOL0     H56210  12.442   7.332  10.316 -1.3471 -0.7999 -0.8078
  426MOL0     H56211  12.419   7.219  10.450 -1.3890  0.0408 -1.1424
  426MOL0     H56212  12.687   7.241  10.310  2.5825  0.7383  1.6548
  426MOL0     H56213  12.642   7.149  10.462  1.6553  0.9482  1.3035
  426MOL0     H56214  11.546   7.267  10.141  0.4780 -0.5818  0.0383
  426MOL0     H56215  11.468   7.401   9.953  1.2078 -5.3477  0.1625
  426MOL0     H56216  11.443   7.371   9.514  3.3699  0.6456  0.7425
  426MOL0     H56217  11.303   7.458   9.318 -0.4349 -0.0738 -0.4471
  426MOL0     H56218   9.823   7.481   8.851  0.2667 -0.8599 -0.4226
  426MOL0     H56219   9.610   7.418   8.722 -0.7335  2.3790  0.8246
  426MOL0     H56220   9.357   7.309   8.494  0.2247 -0.7867 -2.4613
  426MOL0     H56221   9.144   7.210   8.468  0.2048  0.9158  2.1854
  426MOL0     H56222   8.726   7.304   8.385  0.3281 -0.3569 -1.7337
  426MOL0     H56223   8.777   7.464   8.329 -0.7947 -1.0218 -1.1171
  426MOL0     H56224   8.817   7.522   8.556  1.5235 -1.0724 -0.5488
  426MOL0     H56225   8.677   7.418   8.573 -0.5356  1.5742 -1.6520
  426MOL0     H56226   8.965   7.348   8.623 -0.0548 -1.5074 -1.5164
  426MOL0     H56227   8.850   7.227   8.605 -2.6332  1.0457  0.2060
  426MOL0     H56228   8.731   7.297   8.812 -0.0846  0.1513 -0.4773
  426MOL0     H56229   8.920   7.267   8.824  2.6611  1.3429 -2.4681
  426MOL0     H56230   8.860   7.631   9.012  1.3223  1.1432 -2.4010
  426MOL0     H56231   8.971   7.586   8.344  2.1032  0.9313 -2.3935
  426MOL0     H56232   9.186   7.696   8.376  1.1346  0.6059  1.3802
  427MOL0     O56233   1.813  11.080   0.504 -0.4115 -0.1336  0.5567
  427MOL0     C56234   1.714  11.024   0.459  0.2272  0.0092 -1.1472
  427MOL0     O56235   1.618  11.082   0.378 -0.5259  0.4582 -0.6482
  427MOL0     C56236   1.635  11.216   0.356  0.5604 -0.2598  0.9874
  427MOL0     C56237   1.675  11.275   0.233  0.4684  0.5558 -0.3932
  427MOL0     C56238   1.692  11.415   0.214  0.6514  0.4301 -0.2783
  427MOL0     C56239   1.665  11.502   0.319 -0.2923 -0.2210 -0.1801
  427MOL0     O56240   1.668  11.639   0.299 -0.1771 -0.2595 -0.2108
  427MOL0     C56241   1.545  11.719   0.297  0.2358  1.2923  0.0175
  427MOL0     C56242   1.452  11.668   0.190 -0.2034 -0.0904  0.1605
  427MOL0     C56243   1.509  11.707   0.052 -0.3668  0.1470  0.4050
  427MOL0     C56244   1.434  11.652  -0.063  0.1978 -0.5268  0.2796
  427MOL0     C56245   1.502  11.688  -0.187  0.1537 -0.2109  0.3505
  427MOL0     C56246   1.451  11.661  -0.325  0.3820 -0.4542 -0.1663
  427MOL0     C56247   1.314  11.729  -0.356 -0.5234 -0.6104 -0.4636
  427MOL0     C56248   1.305  11.779  -0.500  0.5690 -1.7608  0.3626
  427MOL0     N56249   1.172  11.830  -0.521  0.0840  1.2403  0.5131
  427MOL0     C56250   1.074  11.754  -0.587  0.2540 -0.2779  0.0176
  427MOL0     C56251   0.969  11.844  -0.595  0.1176 -0.5704 -0.0579
  427MOL0     C56252   0.839  11.826  -0.666  0.0820 -0.0241 -0.4902
  427MOL0     C56253   0.722  11.845  -0.571  1.0648 -0.6540 -0.2683
  427MOL0     C56254   0.588  11.834  -0.647 -0.2866  0.8328  0.2011
  427MOL0     C56255   0.470  11.865  -0.566  0.1902  0.0043  0.6244
  427MOL0     O56256   0.343  11.816  -0.623 -0.0791  0.0691  0.2747
  427MOL0     C56257   0.301  11.686  -0.599  1.0312  1.4029 -0.1953
  427MOL0     C56258   0.377  11.591  -0.527 -0.2379 -0.5738  0.8237
  427MOL0     C56259   0.335  11.459  -0.528 -0.0634 -0.4196 -0.4470
  427MOL0     C56260   0.213  11.419  -0.584  0.0477  0.0005  0.2604
  427MOL0     C56261   0.163  11.280  -0.573  0.2976 -0.4624  0.1742
  427MOL0     O56262   0.036  11.257  -0.621  0.9808  0.0603 -0.0180
  427MOL0     C56263  -0.018  11.126  -0.627  0.6338 -0.9809 -0.9882
  427MOL0     C56264   0.034  10.998  -0.582 -0.2324 -0.2157 -0.1083
  427MOL0     C56265  -0.042  10.881  -0.599 -0.5983  0.4079  0.1038
  427MOL0     C56266  -0.156  10.885  -0.673  0.3120  0.0123 -0.3608
  427MOL0     O56267  -0.242  10.771  -0.678 -0.2847 -0.5192  0.3249
  427MOL0     C56268  -0.182  10.635  -0.655  0.3721 -0.5047 -0.1888
  427MOL0     C56269  -0.299  10.535  -0.680 -1.1909  0.6236  0.1546
  427MOL0     C56270  -0.389  10.543  -0.550  0.1982  1.1899  0.5944
  427MOL0     C56271  -0.511  10.449  -0.563  0.0050 -0.2407  0.6151
  427MOL0     C56272  -0.598  10.484  -0.684  0.4423  1.0906  0.2956
  427MOL0     C56273  -0.734  10.427  -0.696  0.4418  0.2266 -0.2256
  427MOL0     C56274  -0.750  10.272  -0.705  0.7617 -0.7699  0.6060
  427MOL0     C56275  -0.898  10.223  -0.720  0.3120  0.5850 -0.5605
  427MOL0    Cl56276  -0.956  10.136  -0.572 -0.2234 -0.3491  0.7181
  427MOL0     C56277  -0.206  11.001  -0.725 -0.0850  0.1150 -1.2120
  427MOL0     C56278  -0.134  11.120  -0.699 -0.3267 -0.6206  0.9258
  427MOL0     O56279   0.241  11.197  -0.537  0.6251  0.4742 -0.2809
  427MOL0     C56280   0.123  11.522  -0.635  0.0699  0.5192 -0.4249
  427MOL0     C56281   0.164  11.648  -0.634 -0.9084  0.5436 -0.5132
  427MOL0     N56282   1.012  11.968  -0.557 -0.8625 -0.2815  1.0116
  427MOL0     N56283   1.132  11.961  -0.517  0.2966  0.1238  0.4798
  427MOL0     C56284   1.629  11.447   0.445  0.3425 -0.5907 -0.6019
  427MOL0     C56285   1.604  11.310   0.459  0.5148  0.3232 -1.1666
  427MOL0     C56286   1.693  10.884   0.499 -0.1435  0.8449 -0.6491
  427MOL0     C56287   1.561  10.841   0.521 -1.0478  0.3368 -0.1787
  427MOL0     C56288   1.537  10.710   0.566  0.0550  0.3022 -0.0432
  427MOL0     C56289   1.644  10.620   0.587  0.9225 -0.2723 -0.3537
  427MOL0     O56290   1.622  10.499   0.641  0.1540 -0.8419 -0.4539
  427MOL0     C56291   1.565  10.419   0.544 -0.2527  0.2208 -0.2305
  427MOL0     C56292   1.544  10.281   0.608  0.4270  0.0348  0.3823
  427MOL0     C56293   1.483  10.180   0.514 -0.7526 -1.0088 -0.0292
  427MOL0     C56294   1.581  10.110   0.422  0.0016 -0.0282  0.2836
  427MOL0     C56295   1.509  10.024   0.327  0.3671 -0.7058  0.0357
  427MOL0     C56296   1.447   9.940   0.266 -0.2266 -1.0325 -0.6766
  427MOL0     C56297   1.766  10.666   0.582 -0.6396 -0.7923  0.0191
  427MOL0     C56298   1.796  10.796   0.547 -0.4206 -0.3582 -0.1428
  427MOL0     H56299   1.704  11.211   0.150  1.6890  0.1996  0.2806
  427MOL0     H56300   1.719  11.451   0.115  0.7520 -3.4301 -1.8384
  427MOL0     H56301   1.575  11.823   0.284  0.6681  1.3241  1.0993
  427MOL0     H56302   1.501  11.712   0.397  0.9198  0.2763  0.2661
  427MOL0     H56303   1.355  11.710   0.215  0.2688  1.8519 -1.0897
  427MOL0     H56304   1.438  11.560   0.200  1.2869 -0.5573 -1.9297
  427MOL0     H56305   1.611  11.670   0.042 -1.6987 -3.5765 -1.2928
  427MOL0     H56306   1.502  11.816   0.051 -2.5218  0.0558 -0.9916
  427MOL0     H56307   1.402  11.547  -0.062 -2.2929  0.1723  0.3850
  427MOL0     H56308   1.337  11.702  -0.065 -0.6539 -2.1023  0.7932
  427MOL0     H56309   1.599  11.638  -0.185  0.2023 -0.0993  1.1776
  427MOL0     H56310   1.523  11.796  -0.187  0.7965 -0.3026 -1.7387
  427MOL0     H56311   1.441  11.553  -0.340 -1.0077 -0.5556  1.2704
  427MOL0     H56312   1.527  11.699  -0.394 -0.6912 -1.0016 -1.6989
  427MOL0     H56313   1.227  11.671  -0.324 -1.1615 -0.8048 -2.4161
  427MOL0     H56314   1.303  11.814  -0.288  1.8343 -1.1924  0.7341
  427MOL0     H56315   1.331  11.708  -0.580  0.3866  0.0199 -1.3653
  427MOL0     H56316   1.372  11.864  -0.513 -1.9828  0.5580  1.4044
  427MOL0     H56317   1.069  11.656  -0.633 -1.9690 -1.5473  2.6290
  427MOL0     H56318   0.818  11.728  -0.710  0.3953 -0.3991  0.1677
  427MOL0     H56319   0.832  11.903  -0.743 -1.0629  2.0502  1.5666
  427MOL0     H56320   0.733  11.948  -0.536  0.2539 -1.2505  1.8996
  427MOL0     H56321   0.719  11.774  -0.488 -0.8519 -0.0930  0.1925
  427MOL0     H56322   0.580  11.909  -0.727 -1.7580  2.1085  1.4723
  427MOL0     H56323   0.576  11.735  -0.692 -2.5714  0.6609  1.0968
  427MOL0     H56324   0.477  11.974  -0.561 -1.8252  0.2839 -1.1562
  427MOL0     H56325   0.488  11.835  -0.463  1.6563 -2.4167 -0.2608
  427MOL0     H56326   0.476  11.610  -0.487  0.5983  2.9621 -2.3908
  427MOL0     H56327   0.392  11.384  -0.474 -0.7776  0.6705  1.9915
  427MOL0     H56328   0.127  10.995  -0.526 -1.0161  0.7826  1.3244
  427MOL0     H56329   0.010  10.799  -0.551 -0.2781 -0.2329 -1.2949
  427MOL0     H56330  -0.162  10.623  -0.548  0.6237  0.3648 -0.1292
  427MOL0     H56331  -0.103  10.618  -0.728  2.3834 -1.4369  2.0455
  427MOL0     H56332  -0.249  10.438  -0.695  0.8932  1.5240  0.8964
  427MOL0     H56333  -0.354  10.566  -0.769 -1.6200  0.5325  0.3843
  427MOL0     H56334  -0.418  10.647  -0.531 -2.1990  0.2893  2.2980
  427MOL0     H56335  -0.330  10.506  -0.466 -3.0896 -2.2063  1.6908
  427MOL0     H56336  -0.473  10.347  -0.574  0.1996  0.0088 -1.3804
  427MOL0     H56337  -0.580  10.460  -0.479  0.6865 -1.1534  1.3186
  427MOL0     H56338  -0.540  10.454  -0.771  2.3286 -1.1586  2.1930
  427MOL0     H56339  -0.609  10.593  -0.682  0.4846  1.2376 -2.6921
  427MOL0     H56340  -0.769  10.458  -0.795  4.4576 -0.1846 -1.9585
  427MOL0     H56341  -0.805  10.463  -0.621 -0.6528 -2.3833  0.1156
  427MOL0     H56342  -0.695  10.241  -0.795  0.0135 -0.2508 -0.0461
  427MOL0     H56343  -0.699  10.234  -0.616 -2.6057 -0.5088  2.8226
  427MOL0     H56344  -0.896  10.154  -0.805 -3.0041 -1.7793  1.0588
  427MOL0     H56345  -0.968  10.304  -0.743 -2.5247 -1.2658  0.8730
  427MOL0     H56346  -0.297  11.028  -0.776 -2.1765  2.5652  3.2360
  427MOL0     H56347  -0.172  11.210  -0.746  3.6084  0.1591 -1.2095
  427MOL0     H56348   0.031  11.501  -0.689 -2.5528  0.0018  3.7676
  427MOL0     H56349   0.104  11.728  -0.678 -0.9096 -0.3788 -2.3097
  427MOL0     H56350   1.602  11.521   0.520 -3.6806 -0.5077 -1.8583
  427MOL0     H56351   1.574  11.267   0.555  2.0137  0.0841 -0.7823
  427MOL0     H56352   1.473  10.905   0.520 -1.5329 -0.3213 -0.1871
  427MOL0     H56353   1.435  10.684   0.592  0.5441 -2.7037 -0.7693
  427MOL0     H56354   1.632  10.402   0.458  0.4081  0.7955  0.1631
  427MOL0     H56355   1.471  10.455   0.500  0.0976 -0.1578 -1.3411
  427MOL0     H56356   1.636  10.247   0.657 -0.9598 -0.7012  2.6246
  427MOL0     H56357   1.473  10.305   0.688  0.7874  3.5405 -0.2015
  427MOL0     H56358   1.406  10.238   0.463 -0.2038 -0.2890 -0.0474
  427MOL0     H56359   1.442  10.098   0.576 -1.7502 -0.4504  0.0779
  427MOL0     H56360   1.648  10.180   0.371  0.1938  1.0377  1.9202
  427MOL0     H56361   1.643  10.054   0.493  0.1326 -0.6462 -0.3053
  427MOL0     H56362   1.399   9.859   0.216 -0.6431 -2.3245  1.6796
  427MOL0     H56363   1.853  10.602   0.594 -0.5538 -0.2064  4.1045
  427MOL0     H56364   1.903  10.810   0.547 -0.1091 -2.2504 -1.9826
  428MOL0     O56365   8.069   8.771   5.723 -0.6447 -0.9621  0.9918
  428MOL0     C56366   8.022   8.671   5.766 -0.5741 -0.3820  1.2174
  428MOL0     O56367   7.912   8.670   5.848  0.1191  0.4038  0.5361
  428MOL0     C56368   7.855   8.785   5.876  0.0129 -0.6176  0.6128
  428MOL0     C56369   7.919   8.883   5.956  0.2892  0.0345  0.7324
  428MOL0     C56370   7.858   9.005   5.989  0.5156 -0.7108 -0.3535
  428MOL0     C56371   7.741   9.041   5.933  0.1751  0.6295 -0.2522
  428MOL0     O56372   7.671   9.152   5.968  0.0997 -0.1851 -0.0969
  428MOL0     C56373   7.544   9.125   6.020  0.1140 -0.3659 -0.4874
  428MOL0     C56374   7.511   9.191   6.154  0.0717 -0.0229  0.6701
  428MOL0     C56375   7.353   9.189   6.176 -0.7561 -0.5903  0.4042
  428MOL0     C56376   7.311   9.059   6.246 -0.5532  0.1957  0.1097
  428MOL0     C56377   7.161   9.027   6.223  0.8579  0.4238 -0.8566
  428MOL0     C56378   7.073   9.139   6.285 -0.8382 -0.2869  0.4570
  428MOL0     C56379   6.924   9.079   6.295  0.4550 -0.8581 -0.2998
  428MOL0     C56380   6.911   8.970   6.402  0.0932  0.4968 -0.4182
  428MOL0     N56381   6.780   8.984   6.475 -0.0491  0.2007  0.1712
  428MOL0     C56382   6.748   9.074   6.575  0.1779  1.0903  0.4795
  428MOL0     C56383   6.624   9.043   6.614  0.5333  0.3488 -0.4290
  428MOL0     C56384   6.549   9.128   6.715 -0.5307  0.2039 -1.0471
  428MOL0     C56385   6.441   9.219   6.665  0.5980 -0.3086  0.1689
  428MOL0     C56386   6.494   9.311   6.561  0.2970 -1.1062  0.4580
  428MOL0     C56387   6.387   9.387   6.476 -0.0221 -0.8618  0.5680
  428MOL0     O56388   6.461   9.476   6.386 -0.2957  0.1484 -0.0651
  428MOL0     C56389   6.398   9.516   6.267 -0.6153  0.3748  0.8275
  428MOL0     C56390   6.286   9.455   6.211 -0.7419 -0.0746 -0.3928
  428MOL0     C56391   6.252   9.509   6.078  0.8005  0.3064 -0.7770
  428MOL0     C56392   6.317   9.610   6.012 -0.3039  0.2319  0.6379
  428MOL0     C56393   6.263   9.649   5.883 -0.4721  0.1426  0.4870
  428MOL0     O56394   6.163   9.582   5.820 -0.2536 -0.7266  0.9696
  428MOL0     C56395   6.121   9.629   5.696 -0.3719  0.4154  1.8018
  428MOL0     C56396   6.061   9.750   5.679  0.1741 -0.2367  0.0139
  428MOL0     C56397   6.023   9.805   5.553 -0.2442 -0.3838 -0.7363
  428MOL0     C56398   6.041   9.725   5.440  0.1962  0.1664 -0.4619
  428MOL0     O56399   6.018   9.756   5.303 -0.0052  0.0084  0.2657
  428MOL0     C56400   5.964   9.878   5.261 -0.0868 -0.7568  0.7178
  428MOL0     C56401   5.924   9.873   5.107 -0.5129  0.6066 -0.7366
  428MOL0     C56402   5.867   9.999   5.055 -0.7078 -0.2942  0.0038
  428MOL0     C56403   5.732  10.027   5.110 -0.2309  0.2433 -0.5096
  428MOL0     C56404   5.660  10.143   5.034 -0.4475  0.7499 -0.3374
  428MOL0     C56405   5.744  10.267   5.008 -0.1738 -0.1362 -0.9720
  428MOL0     C56406   5.653  10.362   4.931 -0.0933 -0.5869 -0.2491
  428MOL0     C56407   5.727  10.490   4.937  0.5049  0.2012 -0.4613
  428MOL0    Cl56408   5.624  10.612   4.867 -0.1635 -0.3839  0.2513
  428MOL0     C56409   6.105   9.605   5.451  0.0417 -0.5314  0.3277
  428MOL0     C56410   6.149   9.558   5.579  0.4288 -0.3193  0.2845
  428MOL0     O56411   6.318   9.752   5.840  0.6186  0.1500 -0.5991
  428MOL0     C56412   6.429   9.662   6.078  0.0280 -0.3924  0.1181
  428MOL0     C56413   6.467   9.615   6.199  0.2282  0.7386  0.1730
  428MOL0     N56414   6.600   8.917   6.562  0.4185 -0.0351  0.2762
  428MOL0     N56415   6.696   8.877   6.486  0.0856  0.5335 -0.1648
  428MOL0     C56416   7.683   8.944   5.840 -0.2522 -0.2074  0.3533
  428MOL0     C56417   7.746   8.829   5.804  1.7603 -0.4442 -0.0613
  428MOL0     C56418   8.080   8.548   5.728  0.9487  0.4610  0.7001
  428MOL0     C56419   8.209   8.537   5.670  0.9294 -1.1158  0.6331
  428MOL0     C56420   8.262   8.421   5.622 -0.1037  0.2634 -0.6134
  428MOL0     C56421   8.192   8.309   5.629  0.3805 -0.3092 -0.2425
  428MOL0     O56422   8.217   8.196   5.556 -0.4294  0.8486 -0.5690
  428MOL0     C56423   8.353   8.178   5.516  0.0113  0.1951  0.4086
  428MOL0     C56424   8.345   8.045   5.441 -0.1365  0.1302 -0.8394
  428MOL0     C56425   8.486   8.020   5.401 -1.0040  0.9207 -0.0585
  428MOL0     C56426   8.476   7.917   5.293 -0.1437  0.0863  0.0911
  428MOL0     C56427   8.603   7.862   5.247  0.0031  0.4933 -0.2636
  428MOL0     C56428   8.700   7.813   5.200  0.1526 -0.6377 -0.0215
  428MOL0     C56429   8.074   8.310   5.701 -0.1536 -0.1891 -0.3595
  428MOL0     C56430   8.017   8.425   5.743 -0.4447 -0.1283 -0.3351
  428MOL0     H56431   8.016   8.847   5.987  1.3660 -1.7587 -4.0002
  428MOL0     H56432   7.895   9.088   6.048 -1.7485  2.8283 -3.4463
  428MOL0     H56433   7.530   9.017   6.032  1.9957 -0.4251  1.9044
  428MOL0     H56434   7.475   9.173   5.951  0.5969  0.8186 -0.1720
  428MOL0     H56435   7.529   9.297   6.134 -1.6949  0.0312 -0.9691
  428MOL0     H56436   7.566   9.151   6.239  1.4130 -0.7260 -0.4923
  428MOL0     H56437   7.291   9.201   6.086 -1.3104 -1.9982  0.5775
  428MOL0     H56438   7.335   9.281   6.232  1.9834  0.3391 -0.0701
  428MOL0     H56439   7.379   8.976   6.224  0.4228  0.2525  2.5997
  428MOL0     H56440   7.315   9.062   6.355 -2.3488 -0.5887  0.2317
  428MOL0     H56441   7.140   8.931   6.271  1.5873  1.4681  1.7516
  428MOL0     H56442   7.128   9.014   6.119 -5.7906 -0.6383  0.9400
  428MOL0     H56443   7.081   9.225   6.219  2.6329 -0.5076  0.4027
  428MOL0     H56444   7.102   9.155   6.389 -0.9594 -1.2005  0.6470
  428MOL0     H56445   6.864   9.163   6.331 -2.5439 -4.0972  3.0811
  428MOL0     H56446   6.889   9.049   6.195  1.8501 -2.0488 -0.4718
  428MOL0     H56447   6.996   8.964   6.470  1.3805 -5.2544 -1.9892
  428MOL0     H56448   6.927   8.875   6.351  0.5223 -1.3857  2.9715
  428MOL0     H56449   6.811   9.150   6.620  0.6212  1.2535 -0.3898
  428MOL0     H56450   6.623   9.185   6.773  1.0771 -0.1522 -2.6468
  428MOL0     H56451   6.498   9.065   6.788  1.0558  1.0467  0.9067
  428MOL0     H56452   6.399   9.265   6.755  0.5741 -0.2917  0.1491
  428MOL0     H56453   6.363   9.163   6.611  0.3278  1.1053 -0.9486
  428MOL0     H56454   6.550   9.391   6.610 -1.5495  0.8237 -0.4286
  428MOL0     H56455   6.557   9.260   6.487 -2.2918 -1.9477 -1.2812
  428MOL0     H56456   6.321   9.448   6.538  0.8374  3.1482 -2.1065
  428MOL0     H56457   6.320   9.315   6.428 -0.8855 -0.0124  0.4791
  428MOL0     H56458   6.230   9.373   6.255 -0.5516 -0.0299 -0.0629
  428MOL0     H56459   6.171   9.455   6.030  2.8644 -5.7438  1.5115
  428MOL0     H56460   6.050   9.818   5.762  3.8293  1.3339 -0.5998
  428MOL0     H56461   5.985   9.906   5.542  1.1328  0.1834 -0.5914
  428MOL0     H56462   6.042   9.953   5.275  2.3109 -3.5470  4.1986
  428MOL0     H56463   5.884   9.909   5.329  0.6845  3.4688 -0.0618
  428MOL0     H56464   5.848   9.795   5.099 -0.6599  0.8914 -2.9900
  428MOL0     H56465   6.011   9.846   5.046 -0.5375  0.1480 -0.5713
  428MOL0     H56466   5.868  10.004   4.946 -2.8464  1.4270  0.0078
  428MOL0     H56467   5.942  10.073   5.087  1.6693 -2.8334  0.7420
  428MOL0     H56468   5.675   9.934   5.100  0.5162 -0.1312 -1.4413
  428MOL0     H56469   5.737  10.053   5.216  1.8019 -0.5125 -0.3921
  428MOL0     H56470   5.572  10.186   5.083  2.1555  2.2956  3.3727
  428MOL0     H56471   5.638  10.094   4.938  1.1553 -0.9006  0.1034
  428MOL0     H56472   5.818  10.224   4.941  0.5955 -1.7308  0.8132
  428MOL0     H56473   5.793  10.316   5.093 -0.8405 -0.0170 -0.6474
  428MOL0     H56474   5.643  10.330   4.827 -2.4974 -0.3511 -0.1357
  428MOL0     H56475   5.554  10.368   4.977  0.2660 -1.1952  0.6235
  428MOL0     H56476   5.811  10.480   4.868 -1.9544  0.6202 -3.7802
  428MOL0     H56477   5.772  10.505   5.035  3.1766  0.1464 -1.6093
  428MOL0     H56478   6.128   9.555   5.358  3.5052  0.6188  0.4229
  428MOL0     H56479   6.216   9.473   5.568  1.1540  0.4937 -2.4256
  428MOL0     H56480   6.482   9.740   6.023 -0.6733  0.8296  1.1191
  428MOL0     H56481   6.560   9.653   6.240  0.3511  1.2563 -0.5530
  428MOL0     H56482   7.582   8.970   5.811 -1.0170 -2.4571  0.7885
  428MOL0     H56483   7.700   8.768   5.728  1.6826 -0.3531 -0.0869
  428MOL0     H56484   8.279   8.620   5.659  4.5775 -3.6373  2.7552
  428MOL0     H56485   8.349   8.426   5.557  0.1492  1.9746 -0.1939
  428MOL0     H56486   8.419   8.175   5.603 -0.2691 -1.8218  0.6121
  428MOL0     H56487   8.381   8.253   5.442 -1.4721  1.0413  0.6762
  428MOL0     H56488   8.318   7.965   5.511  4.3483 -0.5432  0.4689
  428MOL0     H56489   8.272   8.047   5.360 -1.8796 -0.2653  0.6535
  428MOL0     H56490   8.554   7.983   5.479  2.1812  2.3390 -1.9496
  428MOL0     H56491   8.529   8.110   5.357  0.3018  0.1880 -0.3628
  428MOL0     H56492   8.419   7.832   5.333 -1.5662  0.3018 -1.3820
  428MOL0     H56493   8.425   7.948   5.202  2.3533  2.3667 -0.6813
  428MOL0     H56494   8.801   7.804   5.165  0.0999  2.8420 -1.4551
  428MOL0     H56495   8.013   8.221   5.691  0.0449 -0.5109  1.1733
  428MOL0     H56496   7.921   8.417   5.793 -1.0696  2.5215 -0.9190
  429MOL0     O56497   1.876   2.815   2.383 -0.1918 -0.5735 -0.5839
  429MOL0     C56498   1.782   2.890   2.353 -0.3679  1.5981  0.2705
  429MOL0     O56499   1.726   2.881   2.227 -0.5049 -0.0349  0.6355
  429MOL0     C56500   1.737   2.755   2.162 -0.0303 -0.5078 -0.3134
  429MOL0     C56501   1.853   2.711   2.096 -0.5528  0.9701 -0.2946
  429MOL0     C56502   1.862   2.584   2.041 -0.8437 -0.5595 -0.8118
  429MOL0     C56503   1.757   2.500   2.040 -0.4607  0.8130 -0.3055
  429MOL0     O56504   1.786   2.373   1.990  0.0310  0.3949  0.0170
  429MOL0     C56505   1.691   2.270   1.992  0.3983  0.3568  1.1415
  429MOL0     C56506   1.756   2.125   1.981  0.5076 -0.4957  0.4118
  429MOL0     C56507   1.854   2.112   1.866  0.3794 -0.0511 -0.8674
  429MOL0     C56508   1.934   1.984   1.877 -0.1444 -0.4405  0.7210
  429MOL0     C56509   1.829   1.861   1.861  1.0509 -0.5110  0.9780
  429MOL0     C56510   1.921   1.738   1.859 -0.2401 -0.9393  0.1116
  429MOL0     C56511   1.973   1.708   1.718  0.0167 -0.1592 -0.0679
  429MOL0     C56512   2.115   1.629   1.707 -0.3902  0.3001  0.8955
  429MOL0     N56513   2.201   1.625   1.829  0.0503  0.6137  0.3009
  429MOL0     C56514   2.334   1.639   1.834  0.2465  0.7649 -0.4948
  429MOL0     C56515   2.372   1.568   1.943 -0.8171 -0.3123  0.7828
  429MOL0     C56516   2.518   1.538   1.971 -0.6176  1.0985  0.3663
  429MOL0     C56517   2.568   1.642   2.072  0.3937  0.0921 -0.3561
  429MOL0     C56518   2.529   1.613   2.211 -0.0714  0.6860 -1.1030
  429MOL0     C56519   2.530   1.746   2.299  1.2233 -0.3309  0.8960
  429MOL0     O56520   2.659   1.800   2.303 -0.0624  0.1086  0.9222
  429MOL0     C56521   2.672   1.918   2.369 -0.9998  0.0810 -0.6939
  429MOL0     C56522   2.566   2.013   2.367  0.2560 -0.4484 -0.0358
  429MOL0     C56523   2.572   2.124   2.442 -0.3047 -1.3347 -1.5149
  429MOL0     C56524   2.689   2.147   2.519 -1.2287  0.0690  0.1013
  429MOL0     C56525   2.712   2.283   2.596 -0.1483  0.0533  0.8753
  429MOL0     O56526   2.631   2.390   2.561 -0.2227 -0.0361  0.2197
  429MOL0     C56527   2.685   2.507   2.604  0.0049 -0.1216  0.1630
  429MOL0     C56528   2.618   2.561   2.719 -0.0240 -0.3021  0.5816
  429MOL0     C56529   2.651   2.685   2.771  1.1697 -0.8046 -0.0356
  429MOL0     C56530   2.752   2.765   2.695  0.5697  0.7471 -0.6289
  429MOL0     O56531   2.784   2.897   2.726 -1.0950  0.2228 -0.0080
  429MOL0     C56532   2.915   2.909   2.781 -0.4168  0.0960 -0.0588
  429MOL0     C56533   2.941   3.063   2.810 -0.2320  0.4953 -0.5388
  429MOL0     C56534   3.086   3.099   2.816  0.5451  0.5887 -0.0999
  429MOL0     C56535   3.112   3.230   2.891 -0.0220 -0.1930  0.1832
  429MOL0     C56536   3.129   3.219   3.039 -0.3981 -1.0235  0.8659
  429MOL0     C56537   3.172   3.357   3.095  0.4334  0.7579 -0.5572
  429MOL0     C56538   3.162   3.369   3.244 -0.9350  0.7085  0.0463
  429MOL0     C56539   3.035   3.419   3.301 -0.5645  1.6801  0.0065
  429MOL0    Cl56540   2.982   3.578   3.249  0.0942  0.6323  0.0515
  429MOL0     C56541   2.815   2.705   2.588  0.1750 -0.1584  0.4106
  429MOL0     C56542   2.794   2.574   2.546 -0.2784 -0.5170  0.6140
  429MOL0     O56543   2.779   2.272   2.696  0.0436  0.0474 -0.5991
  429MOL0     C56544   2.792   2.052   2.516 -0.2085  0.0140 -1.0298
  429MOL0     C56545   2.785   1.939   2.433 -0.1135  0.2936 -0.4294
  429MOL0     N56546   2.264   1.517   2.008 -0.2908  0.5951  0.4170
  429MOL0     N56547   2.161   1.559   1.949 -0.1798 -0.6854 -0.0353
  429MOL0     C56548   1.632   2.539   2.100 -0.8919 -0.4474  0.6152
  429MOL0     C56549   1.627   2.669   2.161 -0.0856  0.6828  1.1356
  429MOL0     C56550   1.726   2.982   2.438 -0.6930 -0.4408  0.3957
  429MOL0     C56551   1.778   3.012   2.568  0.1005  0.5818 -0.4342
  429MOL0     C56552   1.704   3.101   2.648 -0.4458  0.7739  0.0564
  429MOL0     C56553   1.595   3.184   2.604 -0.0557 -0.3306 -0.2177
  429MOL0     O56554   1.560   3.275   2.704  0.2073 -0.0125  0.0774
  429MOL0     C56555   1.451   3.368   2.698  0.0611 -0.0278  0.6174
  429MOL0     C56556   1.315   3.312   2.745  0.4591 -0.1461  0.3184
  429MOL0     C56557   1.228   3.249   2.625 -0.1324  0.1861 -0.7230
  429MOL0     C56558   1.079   3.224   2.672 -0.3608 -0.0598 -0.5835
  429MOL0     C56559   1.055   3.162   2.805  0.1217  0.3378 -0.1195
  429MOL0     C56560   1.023   3.104   2.909 -0.7436 -0.1299  0.0141
  429MOL0     C56561   1.551   3.161   2.471  0.5012 -0.2288  0.6862
  429MOL0     C56562   1.609   3.054   2.390 -0.2302 -0.8260 -0.0415
  429MOL0     H56563   1.938   2.773   2.124 -1.2257  0.8573  2.2709
  429MOL0     H56564   1.961   2.551   2.013  0.3856  0.9342  1.4783
  429MOL0     H56565   1.612   2.267   1.916 -0.0440  2.0729  1.4910
  429MOL0     H56566   1.632   2.259   2.083 -1.7467 -1.4202 -0.3573
  429MOL0     H56567   1.674   2.056   1.961 -0.2622  1.1019 -2.4673
  429MOL0     H56568   1.813   2.105   2.073 -0.6609 -0.8560  1.0710
  429MOL0     H56569   1.915   2.203   1.863  1.9249 -0.9311  1.1449
  429MOL0     H56570   1.798   2.101   1.772  0.4859  0.7417 -1.0258
  429MOL0     H56571   1.999   1.998   1.790 -0.6135  0.1842  0.4662
  429MOL0     H56572   1.997   1.973   1.966  0.4876  0.8003  0.4578
  429MOL0     H56573   1.773   1.868   1.768  3.2838  0.1706 -0.4047
  429MOL0     H56574   1.759   1.856   1.944  0.6794 -2.1765  0.5892
  429MOL0     H56575   1.844   1.670   1.895  1.1589 -1.0532  3.2312
  429MOL0     H56576   1.999   1.745   1.935 -2.6159  2.0984  2.5119
  429MOL0     H56577   1.894   1.646   1.673  0.3598  0.1884 -1.1948
  429MOL0     H56578   1.975   1.798   1.656 -0.2413 -0.0984  0.0110
  429MOL0     H56579   2.172   1.662   1.619 -3.4366 -2.0564 -2.2683
  429MOL0     H56580   2.092   1.525   1.683  0.7531  0.7275 -2.7213
  429MOL0     H56581   2.388   1.678   1.748  0.7253  0.0670 -0.5196
  429MOL0     H56582   2.587   1.542   1.887 -0.5725 -1.9734  0.1711
  429MOL0     H56583   2.538   1.441   2.017  0.3974  0.5831 -1.1104
  429MOL0     H56584   2.550   1.741   2.030  0.2493  0.8000  1.3009
  429MOL0     H56585   2.677   1.633   2.082  0.2736 -2.7483 -0.7135
  429MOL0     H56586   2.423   1.587   2.215  0.2508 -0.5607  2.3720
  429MOL0     H56587   2.598   1.544   2.261  3.0847  2.5454 -2.6082
  429MOL0     H56588   2.494   1.721   2.400 -1.7456 -3.0527 -0.6544
  429MOL0     H56589   2.455   1.809   2.250 -2.7784 -3.2896  2.6167
  429MOL0     H56590   2.472   1.998   2.314  0.8503  0.5531 -1.4307
  429MOL0     H56591   2.503   2.208   2.444 -1.3475 -2.1404  0.6582
  429MOL0     H56592   2.545   2.492   2.760  0.6202 -2.2788 -1.3542
  429MOL0     H56593   2.594   2.721   2.856 -2.7739 -0.4472 -2.5534
  429MOL0     H56594   2.971   2.863   2.699 -3.7719  0.2659 -2.6860
  429MOL0     H56595   2.923   2.852   2.874  2.6312 -2.3496 -1.6312
  429MOL0     H56596   2.921   3.066   2.918  0.0059 -0.6904 -0.4425
  429MOL0     H56597   2.883   3.135   2.753  0.0382  0.8776 -0.3363
  429MOL0     H56598   3.128   3.099   2.715  2.4843  0.6177  0.6572
  429MOL0     H56599   3.143   3.026   2.876  0.9443 -0.2059 -1.3971
  429MOL0     H56600   3.196   3.279   2.842 -1.8520  2.5048 -0.5090
  429MOL0     H56601   3.023   3.289   2.866 -0.6580 -1.0622  0.3372
  429MOL0     H56602   3.202   3.139   3.057 -0.2954 -1.5185 -1.4633
  429MOL0     H56603   3.040   3.176   3.086  2.1855 -1.9955  5.4447
  429MOL0     H56604   3.104   3.434   3.058 -0.7537  0.6532  1.2597
  429MOL0     H56605   3.274   3.375   3.059  1.0375 -1.8121 -0.3290
  429MOL0     H56606   3.183   3.276   3.298 -1.1912  0.8824  0.4530
  429MOL0     H56607   3.219   3.450   3.290 -1.2062  0.6696  0.4605
  429MOL0     H56608   3.050   3.426   3.409 -0.9741 -0.3997  0.2602
  429MOL0     H56609   2.953   3.348   3.284  3.9789 -4.5825  0.5060
  429MOL0     H56610   2.891   2.768   2.543  0.8331  0.2350  2.0160
  429MOL0     H56611   2.854   2.526   2.469  2.1652 -2.4311  3.4582
  429MOL0     H56612   2.880   2.060   2.580 -0.6867 -0.5480 -0.2772
  429MOL0     H56613   2.869   1.870   2.424 -0.7614 -0.7376  1.1670
  429MOL0     H56614   1.549   2.470   2.104 -0.4248 -1.1135 -0.7459
  429MOL0     H56615   1.535   2.701   2.208 -3.6134 -1.4749 -3.5181
  429MOL0     H56616   1.862   2.967   2.620 -0.2642 -0.8850 -1.0810
  429MOL0     H56617   1.745   3.122   2.746  0.4561 -1.4545  0.2149
  429MOL0     H56618   1.445   3.415   2.599 -0.0174 -0.0605  0.6067
  429MOL0     H56619   1.490   3.441   2.769 -0.2931 -1.6118  2.5276
  429MOL0     H56620   1.314   3.252   2.836 -0.8844  1.6407  1.5447
  429MOL0     H56621   1.263   3.404   2.773  2.9488  0.8485  2.0135
  429MOL0     H56622   1.290   3.169   2.583  1.8441  2.2735 -2.0492
  429MOL0     H56623   1.223   3.317   2.539 -4.4959  0.5587 -0.3903
  429MOL0     H56624   1.044   3.328   2.675  0.7844  0.3876 -1.8159
  429MOL0     H56625   1.032   3.168   2.590 -2.1865 -1.7050  1.4576
  429MOL0     H56626   1.037   3.029   2.984 -1.7507 -0.2365  0.1089
  429MOL0     H56627   1.464   3.215   2.437  2.0100  2.7330  1.1742
  429MOL0     H56628   1.565   3.031   2.294 -0.9229  1.9729 -0.4688
  430MOL0     O56629   2.953   4.988  10.126 -0.3027  0.0489 -0.2708
  430MOL0     C56630   2.917   4.927  10.224 -0.5501  0.3742  0.0672
  430MOL0     O56631   2.908   4.971  10.356  0.0324  0.5892  0.0760
  430MOL0     C56632   2.948   5.090  10.386 -0.3994 -0.6499 -0.0035
  430MOL0     C56633   2.890   5.205  10.335  0.0754  0.7672  0.0080
  430MOL0     C56634   2.951   5.334  10.364  0.1874 -0.3145 -0.7266
  430MOL0     C56635   3.063   5.336  10.446 -1.6998  0.5073  0.1426
  430MOL0     O56636   3.123   5.466  10.471 -0.2098  0.4106  0.1470
  430MOL0     C56637   3.264   5.474  10.454 -0.5125 -0.1534  0.3377
  430MOL0     C56638   3.328   5.482  10.588 -1.0865  0.8859 -0.2107
  430MOL0     C56639   3.482   5.457  10.572  0.3908  0.4957 -0.5931
  430MOL0     C56640   3.553   5.473  10.713 -0.8062 -0.2007  0.1887
  430MOL0     C56641   3.702   5.414  10.704  0.2072  0.3194  0.0832
  430MOL0     C56642   3.817   5.500  10.657 -0.3197 -0.6519  1.2489
  430MOL0     C56643   3.847   5.625  10.745 -0.2361  0.8562  0.5816
  430MOL0     C56644   3.903   5.582  10.878  0.0698  0.0972  0.1413
  430MOL0     N56645   3.968   5.694  10.941  0.7639 -0.5402 -0.8046
  430MOL0     C56646   4.096   5.732  10.928  0.0618 -0.5837  0.0501
  430MOL0     C56647   4.112   5.834  11.024 -0.1261  0.3454 -0.6966
  430MOL0     C56648   4.239   5.913  11.049 -0.0899 -0.9788 -0.0122
  430MOL0     C56649   4.249   6.038  10.952 -0.1388  0.2593 -1.1067
  430MOL0     C56650   4.274   5.988  10.808  0.4046  0.8311  0.3030
  430MOL0     C56651   4.411   5.927  10.775  0.3107 -0.1224 -1.1236
  430MOL0     O56652   4.410   5.881  10.644  0.0661 -0.0365  0.0300
  430MOL0     C56653   4.343   5.760  10.615 -0.3531  0.7694  0.5785
  430MOL0     C56654   4.222   5.753  10.538  0.2979 -1.4894 -0.9956
  430MOL0     C56655   4.178   5.638  10.469  0.2016  1.7632  0.1615
  430MOL0     C56656   4.246   5.519  10.475 -0.7982  0.2209 -0.9060
  430MOL0     C56657   4.184   5.386  10.428 -0.8426  0.4137  0.8457
  430MOL0     O56658   4.157   5.292  10.523  0.7997  0.1731  0.5274
  430MOL0     C56659   4.089   5.184  10.481 -0.1363  0.1031  0.4237
  430MOL0     C56660   3.951   5.195  10.477  0.0531  1.4837  0.8736
  430MOL0     C56661   3.887   5.080  10.427  0.1620  0.3037  0.4293
  430MOL0     C56662   3.943   4.965  10.391 -0.4420 -0.0937  0.1269
  430MOL0     O56663   3.864   4.867  10.328  0.2585  0.3983  0.4372
  430MOL0     C56664   3.934   4.766  10.249  0.9795 -0.1246  0.5531
  430MOL0     C56665   3.835   4.668  10.183  0.2812 -0.7264 -1.4720
  430MOL0     C56666   3.734   4.722  10.075 -0.0737 -0.7972  0.2568
  430MOL0     C56667   3.801   4.796   9.950  0.0704 -0.0241  0.1150
  430MOL0     C56668   3.909   4.716   9.880 -0.5400 -0.5521 -1.0204
  430MOL0     C56669   3.867   4.609   9.785  0.1305 -0.7623  0.4467
  430MOL0     C56670   3.825   4.656   9.639 -0.9558 -1.0895 -0.3853
  430MOL0     C56671   3.827   4.538   9.552  0.3598 -0.1782 -0.3372
  430MOL0    Cl56672   3.795   4.589   9.382  0.2876  0.4654 -0.1005
  430MOL0     C56673   4.077   4.965  10.413 -0.0668  0.8679 -0.7079
  430MOL0     C56674   4.151   5.067  10.463 -0.5917  0.3315  1.0303
  430MOL0     O56675   4.151   5.387  10.307  0.3573  0.4088 -0.7097
  430MOL0     C56676   4.354   5.514  10.573 -0.2447  0.5773  0.3941
  430MOL0     C56677   4.410   5.632  10.631  0.4762 -0.9744 -0.4712
  430MOL0     N56678   3.995   5.839  11.097  0.3749 -0.1389 -0.1643
  430MOL0     N56679   3.909   5.754  11.046  0.8703  0.4669 -0.3889
  430MOL0     C56680   3.119   5.214  10.494  0.5299  0.4907  0.3089
  430MOL0     C56681   3.059   5.085  10.464 -0.0164 -0.5746 -0.4553
  430MOL0     C56682   2.858   4.796  10.188  0.2154  0.5617  0.2089
  430MOL0     C56683   2.782   4.726  10.288  0.1046  0.0917  0.6692
  430MOL0     C56684   2.752   4.590  10.269  0.1298 -0.8004 -0.1035
  430MOL0     C56685   2.770   4.537  10.141  0.1160  0.2838 -0.0516
  430MOL0     O56686   2.739   4.406  10.122  0.0108  0.1654 -0.6130
  430MOL0     C56687   2.816   4.321  10.055  0.0439  0.6153  0.3221
  430MOL0     C56688   2.930   4.257  10.142  0.1336 -1.0259  0.0353
  430MOL0     C56689   2.880   4.207  10.276 -0.2673  0.3069  0.2404
  430MOL0     C56690   2.799   4.071  10.252  0.6071  0.3418 -0.3582
  430MOL0     C56691   2.883   3.952  10.203  0.4822 -0.2791  0.0510
  430MOL0     C56692   2.949   3.865  10.149  0.0473 -0.5687 -0.2654
  430MOL0     C56693   2.815   4.614  10.038 -1.1470  0.2091 -0.5642
  430MOL0     C56694   2.861   4.745  10.061 -1.1177 -0.0402  0.1230
  430MOL0     H56695   2.801   5.209  10.273  1.2559  2.0459 -1.6720
  430MOL0     H56696   2.915   5.430  10.330 -0.0058  0.5010  1.5788
  430MOL0     H56697   3.285   5.570  10.407 -1.8721 -1.2614 -2.7897
  430MOL0     H56698   3.310   5.401  10.386 -2.9516 -2.0101  0.5202
  430MOL0     H56699   3.280   5.409  10.654  0.1534 -1.2230 -1.5222
  430MOL0     H56700   3.297   5.580  10.625 -0.3175  1.2991 -0.6446
  430MOL0     H56701   3.515   5.537  10.505  0.9627 -1.7177 -3.1096
  430MOL0     H56702   3.502   5.356  10.534  0.1329 -0.8762  2.6230
  430MOL0     H56703   3.558   5.577  10.748 -1.2045 -0.0876 -0.0869
  430MOL0     H56704   3.497   5.408  10.781 -0.5801 -1.3176 -0.6683
  430MOL0     H56705   3.700   5.330  10.633  1.1978 -1.6340  2.2329
  430MOL0     H56706   3.729   5.367  10.799 -0.0108 -2.8714 -1.2869
  430MOL0     H56707   3.791   5.543  10.559  0.9189  1.1736  1.6591
  430MOL0     H56708   3.904   5.436  10.641 -0.2186  0.1108 -1.9329
  430MOL0     H56709   3.926   5.684  10.699  0.3286  0.5684  1.1565
  430MOL0     H56710   3.765   5.697  10.745 -0.7027  0.3407  0.6562
  430MOL0     H56711   3.977   5.501  10.875  1.2517  1.1572 -0.3332
  430MOL0     H56712   3.814   5.546  10.930 -1.3921  1.1411 -1.4995
  430MOL0     H56713   4.172   5.691  10.863 -1.0205 -0.9457 -1.0313
  430MOL0     H56714   4.328   5.850  11.044 -0.0174 -0.9884  1.1530
  430MOL0     H56715   4.234   5.946  11.153 -0.2067 -1.2456  0.0694
  430MOL0     H56716   4.335   6.095  10.990 -1.5719  1.4245  0.5340
  430MOL0     H56717   4.155   6.093  10.959  0.8438  2.1348 -1.7140
  430MOL0     H56718   4.195   5.916  10.782  2.7387 -0.9485 -2.5734
  430MOL0     H56719   4.261   6.078  10.746  2.0991 -0.3930 -1.9900
  430MOL0     H56720   4.435   5.847  10.846 -2.5852 -0.4241 -0.3604
  430MOL0     H56721   4.482   6.009  10.789  2.2611 -1.9114  0.0463
  430MOL0     H56722   4.179   5.851  10.521 -1.9421 -2.2967 -0.3360
  430MOL0     H56723   4.080   5.653  10.423  0.0694 -0.3887 -0.3613
  430MOL0     H56724   3.908   5.294  10.485 -1.5060  1.0959 -1.5990
  430MOL0     H56725   3.780   5.092  10.413 -0.1274 -1.5028  0.8016
  430MOL0     H56726   4.008   4.716  10.312  1.6306 -1.1304 -0.9494
  430MOL0     H56727   4.000   4.816  10.178 -0.5116 -0.6985 -1.3105
  430MOL0     H56728   3.787   4.619  10.268  0.6835  2.9528  1.0836
  430MOL0     H56729   3.900   4.589  10.143 -0.0193 -1.8539  0.1205
  430MOL0     H56730   3.656   4.786  10.118 -0.8130 -1.7715  0.3847
  430MOL0     H56731   3.677   4.637  10.035  2.2621 -1.8915 -0.9520
  430MOL0     H56732   3.728   4.825   9.874 -1.6508 -2.8818  0.5102
  430MOL0     H56733   3.849   4.887   9.986  1.2199 -0.8533  0.7293
  430MOL0     H56734   3.966   4.675   9.964  1.6239  3.8095 -0.0400
  430MOL0     H56735   3.981   4.783   9.832  1.6703 -4.1717 -3.2427
  430MOL0     H56736   3.802   4.534   9.829  1.5118 -0.6099  2.9622
  430MOL0     H56737   3.960   4.554   9.765  0.2424 -0.0807 -1.0002
  430MOL0     H56738   3.725   4.700   9.645 -0.2021  0.5048  0.9195
  430MOL0     H56739   3.901   4.728   9.608  1.6796 -1.6605  3.9227
  430MOL0     H56740   3.754   4.463   9.585  2.1738 -1.1903  1.5921
  430MOL0     H56741   3.925   4.491   9.562  0.5001  0.5520  2.2961
  430MOL0     H56742   4.127   4.875  10.380 -0.4871  0.5461 -0.4713
  430MOL0     H56743   4.257   5.048  10.460 -0.6150 -0.0237  2.0647
  430MOL0     H56744   4.387   5.412  10.591  0.9701  0.7385 -0.7923
  430MOL0     H56745   4.498   5.614  10.692  1.0360 -1.4113 -1.3673
  430MOL0     H56746   3.210   5.217  10.553  1.1634 -3.2419 -0.2307
  430MOL0     H56747   3.095   4.985  10.490  0.4555 -1.5632 -4.3589
  430MOL0     H56748   2.766   4.786  10.377 -3.4138  0.7030 -0.2292
  430MOL0     H56749   2.715   4.533  10.353  0.4606  0.0998  0.6687
  430MOL0     H56750   2.860   4.360   9.963  1.7014  1.3155  1.3748
  430MOL0     H56751   2.747   4.241  10.025  0.3544 -0.6077  2.6828
  430MOL0     H56752   2.976   4.177  10.084  0.3805 -0.2172 -0.9158
  430MOL0     H56753   3.004   4.338  10.145  0.7254 -0.7692 -6.5234
  430MOL0     H56754   2.833   4.296  10.320  1.0312  1.5632 -0.8041
  430MOL0     H56755   2.969   4.185  10.336 -2.1266 -0.9874  2.7087
  430MOL0     H56756   2.750   4.038  10.344 -1.8410  1.6522 -1.0857
  430MOL0     H56757   2.730   4.089  10.169  0.3575 -1.3381 -0.5341
  430MOL0     H56758   2.997   3.788  10.093 -2.0193 -1.6134 -0.6795
  430MOL0     H56759   2.829   4.574   9.938  0.1029 -0.2777 -0.2098
  430MOL0     H56760   2.905   4.804   9.981  3.0454 -3.0812 -0.1724
  431MOL0     O56761   7.470   3.902  10.757 -0.1951  1.0551  0.0856
  431MOL0     C56762   7.563   3.976  10.733 -0.2289 -0.5163 -0.2782
  431MOL0     O56763   7.693   3.948  10.775 -0.8977  0.3850 -0.1771
  431MOL0     C56764   7.706   3.814  10.830  0.4691  0.1977  0.6193
  431MOL0     C56765   7.755   3.723  10.738  0.3335  0.0457  0.2713
  431MOL0     C56766   7.772   3.593  10.780  0.0739  0.4042 -0.0665
  431MOL0     C56767   7.761   3.557  10.915  0.8371  0.7864  0.0444
  431MOL0     O56768   7.807   3.435  10.948  0.3935  0.1304 -0.5853
  431MOL0     C56769   7.879   3.409  11.068 -0.2588 -0.7019  0.4941
  431MOL0     C56770   7.793   3.354  11.180  0.7087  0.6459  0.2136
  431MOL0     C56771   7.685   3.255  11.133  0.1364 -0.1832 -1.0209
  431MOL0     C56772   7.614   3.178  11.254 -0.1235 -1.8046  0.5133
  431MOL0     C56773   7.671   3.045  11.294  0.1392 -0.1241  0.1688
  431MOL0     C56774   7.629   2.995  11.431 -0.9211  0.1932 -0.0034
  431MOL0     C56775   7.630   2.849  11.448 -0.5562  0.4431  0.4053
  431MOL0     C56776   7.758   2.773  11.427 -0.0411  0.4485 -0.1575
  431MOL0     N56777   7.875   2.830  11.479  0.3200  0.1273  0.1162
  431MOL0     C56778   7.918   2.823  11.614  0.0424  0.1167  0.1993
  431MOL0     C56779   8.032   2.893  11.604  0.1073  0.7247 -0.4541
  431MOL0     C56780   8.108   2.926  11.727 -0.0928 -0.3383 -0.0457
  431MOL0     C56781   8.039   3.057  11.789 -0.1882 -0.0064 -0.1832
  431MOL0     C56782   8.082   3.113  11.921  0.4861  0.5959  0.9103
  431MOL0     C56783   8.218   3.184  11.933  0.4481  0.4538  0.0934
  431MOL0     O56784   8.243   3.222  12.069 -0.4941  0.2560  1.3401
  431MOL0     C56785   8.371   3.271  12.084  0.0486  0.7600  0.7041
  431MOL0     C56786   8.479   3.195  12.133 -0.0444  0.1350  0.0292
  431MOL0     C56787   8.609   3.252  12.140 -0.4217 -0.6358  0.2686
  431MOL0     C56788   8.627   3.385  12.102 -0.0301 -0.1718  0.3632
  431MOL0     C56789   8.752   3.453  12.112 -0.9670 -0.9304 -0.1601
  431MOL0     O56790   8.840   3.408  12.204  0.1801 -0.1568  0.2461
  431MOL0     C56791   8.925   3.495  12.257  0.3009  0.8048  0.2659
  431MOL0     C56792   9.059   3.466  12.281  0.9071 -0.0422  0.1613
  431MOL0     C56793   9.133   3.554  12.350  1.0203  0.1027  0.6905
  431MOL0     C56794   9.082   3.676  12.396 -0.4602 -0.1973  0.6934
  431MOL0     O56795   9.170   3.767  12.449  0.1090 -0.1132  0.0037
  431MOL0     C56796   9.201   3.871  12.354 -0.8716 -0.8847  0.1275
  431MOL0     C56797   9.323   3.967  12.395  0.2869  0.4109 -0.1207
  431MOL0     C56798   9.288   4.063  12.514  0.6259 -0.8188 -0.1239
  431MOL0     C56799   9.402   4.139  12.562  0.5292  0.1687  0.4243
  431MOL0     C56800   9.358   4.210  12.690 -0.3780  0.3151 -0.1176
  431MOL0     C56801   9.472   4.294  12.753 -0.8195 -0.2108 -0.7979
  431MOL0     C56802   9.538   4.394  12.661 -0.7502  0.5603 -0.0847
  431MOL0     C56803   9.681   4.339  12.617  0.2075  0.7742 -0.5100
  431MOL0    Cl56804   9.785   4.477  12.546 -0.4766  0.3149  0.1984
  431MOL0     C56805   8.947   3.694  12.398  0.5885  0.0995  0.1658
  431MOL0     C56806   8.869   3.613  12.320  0.4430  1.1851  0.6881
  431MOL0     O56807   8.767   3.554  12.041  0.3682 -0.4530  0.6808
  431MOL0     C56808   8.513   3.459  12.062  1.2425  0.0761 -0.6167
  431MOL0     C56809   8.388   3.406  12.045  0.2688  0.2642 -0.4089
  431MOL0     N56810   8.064   2.955  11.484  0.0577  0.2019 -0.1908
  431MOL0     N56811   7.968   2.906  11.407  0.5036 -0.9882 -0.3573
  431MOL0     C56812   7.720   3.656  11.015 -0.0263  0.4867  1.2612
  431MOL0     C56813   7.683   3.782  10.969 -0.1610 -0.2940  0.1060
  431MOL0     C56814   7.518   4.113  10.684 -0.1116  0.7824  0.6684
  431MOL0     C56815   7.601   4.224  10.671 -0.0706  0.5326  0.6599
  431MOL0     C56816   7.555   4.350  10.625  0.7925  0.3706 -0.7665
  431MOL0     C56817   7.429   4.362  10.591 -0.5009 -0.3720  0.9656
  431MOL0     O56818   7.393   4.483  10.543  0.0123 -0.6789 -0.3352
  431MOL0     C56819   7.259   4.512  10.497 -0.3843 -0.2540  0.5175
  431MOL0     C56820   7.276   4.648  10.421 -0.5039  0.1330 -1.3115
  431MOL0     C56821   7.146   4.662  10.346 -0.1877  0.0631  0.2973
  431MOL0     C56822   7.172   4.609  10.201  1.1675  0.5033  0.3540
  431MOL0     C56823   7.040   4.606  10.134  0.4810  1.1508  0.2816
  431MOL0     C56824   6.927   4.608  10.097 -0.0987  0.2377  0.8560
  431MOL0     C56825   7.347   4.252  10.584  0.1458 -0.2099 -0.0697
  431MOL0     C56826   7.393   4.128  10.628 -1.2837  0.3880 -1.4221
  431MOL0     H56827   7.755   3.752  10.634 -3.0404 -1.6596 -0.3491
  431MOL0     H56828   7.828   3.516  10.727 -1.5410 -1.6158  1.0206
  431MOL0     H56829   7.932   3.495  11.110 -1.9914  1.3085 -1.2237
  431MOL0     H56830   7.947   3.328  11.039  1.2962  0.6245  0.2820
  431MOL0     H56831   7.744   3.428  11.243  0.1638 -0.6809  1.4072
  431MOL0     H56832   7.844   3.291  11.253  0.4153  0.7416  0.5056
  431MOL0     H56833   7.712   3.170  11.070 -2.0225 -3.6808  2.3370
  431MOL0     H56834   7.605   3.313  11.085  0.9838  3.0741  1.1276
  431MOL0     H56835   7.616   3.251  11.335  0.9002 -1.7342  0.4303
  431MOL0     H56836   7.509   3.156  11.229  0.0428 -2.1442  0.0888
  431MOL0     H56837   7.779   3.054  11.275  0.2688  0.1209  0.9889
  431MOL0     H56838   7.627   2.975  11.222 -1.2462  1.5677 -0.6835
  431MOL0     H56839   7.532   3.033  11.464 -0.2779  0.2194  1.9837
  431MOL0     H56840   7.688   3.045  11.508 -1.7155  0.5866  0.3571
  431MOL0     H56841   7.591   2.842  11.550 -1.3589  0.6332  0.1183
  431MOL0     H56842   7.569   2.792  11.377  0.2333  0.2269 -0.1099
  431MOL0     H56843   7.778   2.765  11.319  2.3256 -0.6127  0.3000
  431MOL0     H56844   7.753   2.669  11.460  1.6383  0.9202  1.7994
  431MOL0     H56845   7.881   2.766  11.699 -3.9876  3.2337  0.8470
  431MOL0     H56846   8.213   2.936  11.700 -0.7459  1.9983 -2.1352
  431MOL0     H56847   8.093   2.846  11.800 -1.3965  0.9018  1.1208
  431MOL0     H56848   7.930   3.046  11.802 -0.2924  0.6115 -0.5170
  431MOL0     H56849   8.052   3.136  11.715  0.6196  0.8229  0.8057
  431MOL0     H56850   8.006   3.184  11.956 -1.7571 -1.1130 -0.2292
  431MOL0     H56851   8.075   3.038  12.000  1.6345 -0.7416 -0.1938
  431MOL0     H56852   8.218   3.276  11.873 -1.4008  0.6967  0.3920
  431MOL0     H56853   8.303   3.124  11.901  0.3389 -1.6974  3.4641
  431MOL0     H56854   8.467   3.089  12.149 -2.3433  0.1789 -1.0331
  431MOL0     H56855   8.695   3.193  12.171  0.1308  0.2550  0.4317
  431MOL0     H56856   9.094   3.368  12.251 -0.3582 -0.7797  0.9787
  431MOL0     H56857   9.238   3.531  12.367  0.5602 -1.3047  1.9502
  431MOL0     H56858   9.111   3.932  12.337 -1.3277 -2.1174 -2.2908
  431MOL0     H56859   9.230   3.828  12.258  0.3440  0.5507 -0.1824
  431MOL0     H56860   9.352   4.021  12.305 -0.6372  2.1735  0.5980
  431MOL0     H56861   9.412   3.908  12.419 -0.5741 -0.2940  1.5284
  431MOL0     H56862   9.238   4.006  12.593  0.3718 -0.6900 -0.1942
  431MOL0     H56863   9.210   4.130  12.480  0.9097  0.4479  1.5942
  431MOL0     H56864   9.498   4.091  12.582  1.5581  1.1013 -1.9334
  431MOL0     H56865   9.422   4.210  12.481  1.5744  1.3855  1.6787
  431MOL0     H56866   9.330   4.130  12.760  1.0922  0.2050  0.3675
  431MOL0     H56867   9.281   4.287  12.675  2.1485  3.5861  2.2611
  431MOL0     H56868   9.549   4.225  12.787  0.1698  0.9273 -0.6831
  431MOL0     H56869   9.431   4.341  12.842  0.7296 -0.2560 -0.0302
  431MOL0     H56870   9.482   4.396  12.567 -1.2812 -0.5584  0.1882
  431MOL0     H56871   9.544   4.491  12.712  2.6585 -0.0980  1.0450
  431MOL0     H56872   9.671   4.270  12.532 -0.9530  0.3192 -0.0233
  431MOL0     H56873   9.729   4.284  12.698 -1.6344  0.9901  0.7806
  431MOL0     H56874   8.910   3.786  12.441 -1.3516 -0.1543 -0.8314
  431MOL0     H56875   8.765   3.619  12.290 -0.5470 -4.7390  1.6954
  431MOL0     H56876   8.516   3.566  12.041  1.1725 -0.0030 -1.0382
  431MOL0     H56877   8.305   3.455  11.995 -1.3763 -2.0255 -0.0522
  431MOL0     H56878   7.720   3.644  11.123 -3.3475 -1.3148  1.1794
  431MOL0     H56879   7.648   3.868  11.025  2.1516  2.5873 -2.5446
  431MOL0     H56880   7.707   4.222  10.695  0.0537  0.3086  0.1051
  431MOL0     H56881   7.623   4.434  10.618  1.7728 -0.0847  1.9203
  431MOL0     H56882   7.200   4.518  10.589  0.8696  1.9046  1.2551
  431MOL0     H56883   7.222   4.433  10.430  2.6754  0.6846 -2.5710
  431MOL0     H56884   7.294   4.728  10.494 -1.0691 -0.0657 -0.9434
  431MOL0     H56885   7.360   4.650  10.352  0.2708 -1.5003 -0.4851
  431MOL0     H56886   7.112   4.766  10.354  0.8939  0.3031  2.5684
  431MOL0     H56887   7.069   4.598  10.390  0.3447  0.4068  1.8082
  431MOL0     H56888   7.242   4.666  10.139 -0.2618 -1.3491 -3.2697
  431MOL0     H56889   7.218   4.510  10.200  2.9717  1.3054 -0.6446
  431MOL0     H56890   6.839   4.624  10.039 -1.0496 -1.9732  1.6049
  431MOL0     H56891   7.246   4.239  10.547 -0.4385 -1.5328  1.8289
  431MOL0     H56892   7.338   4.037  10.606  1.9463 -2.4206  0.8353
  432MOL0     O56893   9.563   2.041   3.189  0.1206  0.5952 -0.3682
  432MOL0     C56894   9.626   2.032   3.291  0.3470 -0.3995 -0.4034
  432MOL0     O56895   9.753   1.976   3.298 -0.1990  0.6973  0.1753
  432MOL0     C56896   9.802   1.914   3.188  1.0021 -0.0493  0.4892
  432MOL0     C56897   9.914   1.984   3.145  1.0875 -0.8607 -0.8312
  432MOL0     C56898   9.984   1.920   3.050 -0.2221 -0.7204 -0.4149
  432MOL0     C56899   9.957   1.796   3.002  0.4245  0.0782 -0.6738
  432MOL0     O56900  10.029   1.756   2.896 -0.2947 -0.5853 -0.2941
  432MOL0     C56901  10.164   1.743   2.907  0.2209 -0.6091  0.1722
  432MOL0     C56902  10.225   1.693   2.784 -0.1113  0.0831 -0.7747
  432MOL0     C56903  10.177   1.737   2.650 -0.6176  0.2971 -0.2996
  432MOL0     C56904  10.181   1.880   2.629 -0.5403  0.0887  0.4746
  432MOL0     C56905  10.091   1.929   2.518 -0.5468 -0.7312  0.0149
  432MOL0     C56906  10.112   1.878   2.383  0.7903 -0.4288  0.0726
  432MOL0     C56907  10.038   1.974   2.282 -1.3554  0.6900  0.5317
  432MOL0     C56908  10.120   2.085   2.209 -0.6865 -1.2967  1.0361
  432MOL0     N56909  10.044   2.160   2.120 -0.3581 -0.7514 -0.3344
  432MOL0     C56910   9.970   2.107   2.018 -0.2543  0.2833 -0.5601
  432MOL0     C56911   9.904   2.213   1.968  0.2518  0.2053  0.3895
  432MOL0     C56912   9.811   2.207   1.851  0.5523  0.6459  0.0279
  432MOL0     C56913   9.856   2.119   1.736  0.3022  0.6617 -0.8591
  432MOL0     C56914   9.756   2.129   1.619 -0.3052  0.1922 -1.1842
  432MOL0     C56915   9.780   2.016   1.517 -0.0387 -1.3214  0.2313
  432MOL0     O56916   9.717   2.049   1.389  0.4412  0.2416 -0.4955
  432MOL0     C56917   9.770   2.151   1.319  0.0887 -0.6349 -0.3098
  432MOL0     C56918   9.902   2.193   1.319  0.1775 -0.5420 -0.2055
  432MOL0     C56919   9.946   2.313   1.258  0.2532 -0.4977 -0.3511
  432MOL0     C56920   9.850   2.397   1.196  0.4654  0.0547  0.0958
  432MOL0     C56921   9.893   2.528   1.124  0.4428 -0.0589 -0.4917
  432MOL0     O56922  10.020   2.547   1.096 -0.2701  0.3783  0.5488
  432MOL0     C56923  10.059   2.659   1.038  0.0636  0.1206  0.9236
  432MOL0     C56924  10.128   2.666   0.918  0.2255  0.6878 -0.7489
  432MOL0     C56925  10.170   2.788   0.856  0.5723 -0.0348  0.6572
  432MOL0     C56926  10.120   2.914   0.910  0.4950 -0.1610  0.9634
  432MOL0     O56927  10.157   3.030   0.843 -0.0586  0.0296  0.2747
  432MOL0     C56928  10.100   3.154   0.879  1.1291  0.1316 -0.2242
  432MOL0     C56929  10.060   3.246   0.766 -0.2425  0.0713  0.2873
  432MOL0     C56930  10.178   3.316   0.698  0.3430 -0.0441  0.4191
  432MOL0     C56931  10.294   3.355   0.797 -0.6618 -0.9932 -0.0935
  432MOL0     C56932  10.423   3.397   0.724 -0.5845  0.4446 -0.5475
  432MOL0     C56933  10.502   3.478   0.834 -0.6575 -0.6947  0.5038
  432MOL0     C56934  10.628   3.549   0.775  0.4177 -1.2995  0.6612
  432MOL0     C56935  10.712   3.466   0.677  0.2047  0.0245  0.7361
  432MOL0    Cl56936  10.788   3.347   0.783 -0.3595 -0.0146 -0.0863
  432MOL0     C56937  10.034   2.912   1.018 -0.9517  0.1978  0.4534
  432MOL0     C56938  10.014   2.791   1.081  0.4214  0.2589  0.2775
  432MOL0     O56939   9.798   2.603   1.092  0.4739 -0.5536 -0.2537
  432MOL0     C56940   9.712   2.350   1.184  0.8427 -0.8463 -0.3696
  432MOL0     C56941   9.676   2.233   1.252  0.6263  0.1919  0.4276
  432MOL0     N56942   9.931   2.325   2.046  0.5908 -0.2793  0.7757
  432MOL0     N56943  10.009   2.290   2.141 -0.4975 -0.2295  0.2557
  432MOL0     C56944   9.854   1.723   3.054  0.2499  0.0720  0.4252
  432MOL0     C56945   9.774   1.785   3.148  0.0829  0.4165  0.3603
  432MOL0     C56946   9.570   2.088   3.418 -0.4121  0.0640  0.2245
  432MOL0     C56947   9.649   2.086   3.534 -0.1264  1.0404 -0.0006
  432MOL0     C56948   9.625   2.165   3.643  0.6016  0.0008 -0.6784
  432MOL0     C56949   9.500   2.226   3.651 -0.0099  0.8095 -0.1902
  432MOL0     O56950   9.479   2.300   3.764  0.1692 -0.7820 -0.2077
  432MOL0     C56951   9.396   2.421   3.764  0.1770 -0.3543 -0.8285
  432MOL0     C56952   9.427   2.532   3.872  0.8264  0.2858  0.3506
  432MOL0     C56953   9.288   2.592   3.919  0.4436  0.2487 -1.0077
  432MOL0     C56954   9.302   2.685   4.047  0.0083  0.5325 -0.2769
  432MOL0     C56955   9.343   2.601   4.157 -0.2227  0.5016 -1.0948
  432MOL0     C56956   9.391   2.562   4.259  0.0446 -0.0130  0.3069
  432MOL0     C56957   9.401   2.208   3.546 -0.2576 -0.3611  0.3358
  432MOL0     C56958   9.443   2.135   3.426  0.1329 -0.4116 -0.1633
  432MOL0     H56959   9.952   2.074   3.192  3.9279 -1.4639 -1.7927
  432MOL0     H56960  10.072   1.968   3.009 -0.8604  1.8061  0.9758
  432MOL0     H56961  10.183   1.675   2.990 -0.2194  1.3212  1.9541
  432MOL0     H56962  10.223   1.833   2.929 -1.2356  0.0930  1.4788
  432MOL0     H56963  10.199   1.587   2.780 -0.6956  0.2414 -1.5549
  432MOL0     H56964  10.334   1.696   2.789 -0.0818  2.8219 -1.4263
  432MOL0     H56965  10.070   1.711   2.644 -0.8302  1.4590 -3.1084
  432MOL0     H56966  10.226   1.679   2.571 -0.8734 -0.5611  0.1547
  432MOL0     H56967  10.132   1.927   2.714 -0.7063  0.3718  0.2265
  432MOL0     H56968  10.288   1.905   2.630  0.1411 -2.5562  1.3828
  432MOL0     H56969  10.097   2.038   2.507 -2.5028 -0.4178  1.5563
  432MOL0     H56970   9.990   1.896   2.545  0.1604 -2.3979  0.7432
  432MOL0     H56971  10.069   1.777   2.391 -2.0176  0.6373 -0.2574
  432MOL0     H56972  10.217   1.872   2.353  0.4652  0.9573 -1.5335
  432MOL0     H56973   9.997   1.918   2.197  2.0866  1.8438 -2.1345
  432MOL0     H56974   9.957   2.032   2.326  1.3252  4.7857  0.5839
  432MOL0     H56975  10.205   2.032   2.164  1.2522  3.6803 -1.9022
  432MOL0     H56976  10.167   2.149   2.284  1.3998 -0.4495 -0.8826
  432MOL0     H56977   9.962   2.003   1.989 -0.0427  0.4696 -1.3044
  432MOL0     H56978   9.807   2.306   1.803 -1.1148 -0.3420 -2.0383
  432MOL0     H56979   9.711   2.182   1.888  0.8436 -0.3649  0.1398
  432MOL0     H56980   9.870   2.014   1.764  3.2992  1.1800 -0.0244
  432MOL0     H56981   9.956   2.140   1.696 -0.8511  1.5072 -3.5031
  432MOL0     H56982   9.660   2.099   1.662  0.4694 -4.6943 -2.2595
  432MOL0     H56983   9.747   2.231   1.580  1.2737  0.8766  0.0970
  432MOL0     H56984   9.748   1.917   1.551  2.5378 -2.2877  0.0706
  432MOL0     H56985   9.888   1.996   1.511 -0.0778 -2.6268  2.7192
  432MOL0     H56986   9.975   2.125   1.361  1.6036 -1.2403 -3.4508
  432MOL0     H56987  10.047   2.354   1.264 -0.1167  0.3835  0.0083
  432MOL0     H56988  10.174   2.577   0.876 -0.7767 -1.1791  1.8499
  432MOL0     H56989  10.229   2.785   0.765  0.9257  0.8757  0.8468
  432MOL0     H56990  10.165   3.202   0.953  1.3398  3.6874 -2.5042
  432MOL0     H56991  10.001   3.136   0.923  0.2528  2.1091 -1.2966
  432MOL0     H56992   9.992   3.320   0.810 -1.5311 -1.9952  2.0619
  432MOL0     H56993  10.006   3.203   0.682 -2.6905  2.7509  0.3305
  432MOL0     H56994  10.158   3.407   0.641 -1.9435 -0.1386  0.9712
  432MOL0     H56995  10.224   3.251   0.623  0.7401  1.7385 -0.9467
  432MOL0     H56996  10.272   3.439   0.863 -4.9594 -1.0049 -1.2674
  432MOL0     H56997  10.329   3.271   0.857  1.9396  0.1797  0.2144
  432MOL0     H56998  10.413   3.467   0.641  0.3043 -0.0012 -1.0502
  432MOL0     H56999  10.481   3.315   0.679  0.4721 -0.0464  1.5532
  432MOL0     H57000  10.530   3.405   0.911 -0.6131  0.4509  1.6156
  432MOL0     H57001  10.444   3.554   0.888  1.1146  1.4118 -0.4020
  432MOL0     H57002  10.587   3.625   0.708 -1.4356 -4.6118 -2.3094
  432MOL0     H57003  10.694   3.588   0.852 -1.4218  0.1281  1.5719
  432MOL0     H57004  10.780   3.532   0.623 -0.9916  1.4263  0.8597
  432MOL0     H57005  10.664   3.411   0.595 -0.9488 -0.6715  1.8535
  432MOL0     H57006   9.983   2.998   1.060 -1.4512 -0.3955  1.0829
  432MOL0     H57007   9.948   2.787   1.167 -0.1723 -3.7084 -0.1502
  432MOL0     H57008   9.629   2.394   1.130  0.4091  2.7961  2.7818
  432MOL0     H57009   9.574   2.196   1.244  0.8450 -0.7692  1.7734
  432MOL0     H57010   9.852   1.617   3.032 -0.3369  0.3136 -0.7876
  432MOL0     H57011   9.702   1.732   3.210 -0.5957  0.4351 -0.4094
  432MOL0     H57012   9.738   2.025   3.524 -0.4904  0.6944 -1.1814
  432MOL0     H57013   9.697   2.178   3.723  1.2335  6.0470 -1.8012
  432MOL0     H57014   9.293   2.393   3.788 -1.6092  3.1898 -3.4321
  432MOL0     H57015   9.390   2.461   3.663 -3.9540 -1.6975 -1.2994
  432MOL0     H57016   9.488   2.493   3.954  0.5996 -1.1856 -0.1497
  432MOL0     H57017   9.483   2.608   3.816  1.3970 -0.0095  0.5179
  432MOL0     H57018   9.222   2.512   3.953 -0.8419  1.7045  0.1064
  432MOL0     H57019   9.235   2.643   3.838 -1.1812  1.8348  0.9101
  432MOL0     H57020   9.364   2.770   4.016  0.0467 -0.0529 -1.9113
  432MOL0     H57021   9.198   2.718   4.051  0.2394  1.2393  0.1141
  432MOL0     H57022   9.426   2.517   4.350  0.6118 -2.7985 -1.1979
  432MOL0     H57023   9.302   2.248   3.562 -0.1185 -0.0357  0.3827
  432MOL0     H57024   9.370   2.118   3.347 -1.5714 -1.9664  1.6279
  433MOL0     O57025   4.649   8.945   6.286 -0.7398  0.2756 -0.4764
  433MOL0     C57026   4.650   8.874   6.190  1.6077  0.2328 -0.1971
  433MOL0     O57027   4.734   8.891   6.077 -1.4453 -0.7621 -0.1907
  433MOL0     C57028   4.852   8.972   6.084 -0.4429  0.7340 -0.1968
  433MOL0     C57029   4.959   8.940   6.175  0.2072 -0.3711  0.9292
  433MOL0     C57030   5.068   9.022   6.188 -0.6122  0.3972 -0.3709
  433MOL0     C57031   5.069   9.146   6.122 -0.1517 -1.0425 -0.3697
  433MOL0     O57032   5.186   9.219   6.139  0.0694 -0.1220  0.6372
  433MOL0     C57033   5.199   9.347   6.064  0.3024  0.5893  0.4895
  433MOL0     C57034   5.339   9.390   6.095  0.2132  0.4181  0.9506
  433MOL0     C57035   5.357   9.535   6.043 -0.0357 -0.5612  0.8831
  433MOL0     C57036   5.377   9.554   5.889  0.3186 -0.3948  0.8750
  433MOL0     C57037   5.392   9.712   5.876 -0.0015 -0.4480  0.6959
  433MOL0     C57038   5.452   9.753   5.741  0.8356  0.2708  0.2607
  433MOL0     C57039   5.467   9.908   5.746  0.2128  0.3778  0.1788
  433MOL0     C57040   5.560   9.956   5.636 -0.2633 -0.1094  0.7945
  433MOL0     N57041   5.567  10.110   5.625  0.1084  0.1984 -0.2174
  433MOL0     C57042   5.543  10.183   5.738 -0.7966  0.4351  0.7464
  433MOL0     C57043   5.577  10.315   5.708 -1.2254 -0.9609 -0.4079
  433MOL0     C57044   5.574  10.436   5.812 -0.0523 -0.8332  0.4471
  433MOL0     C57045   5.704  10.517   5.827  0.3040  0.4237  0.3179
  433MOL0     C57046   5.754  10.584   5.695 -0.9584  0.6482 -0.6194
  433MOL0     C57047   5.905  10.558   5.686 -1.2026  0.3937 -0.3794
  433MOL0     O57048   5.952  10.628   5.568 -0.1099 -0.3173  0.0942
  433MOL0     C57049   6.035  10.566   5.473 -0.4067  0.3798 -0.4384
  433MOL0     C57050   6.013  10.441   5.413  0.5953 -0.2499 -1.2491
  433MOL0     C57051   6.074  10.392   5.303 -1.0083 -0.6938  0.5871
  433MOL0     C57052   6.155  10.478   5.223  0.0062  0.0595  0.4534
  433MOL0     C57053   6.205  10.422   5.095 -0.8146  0.6778 -0.0557
  433MOL0     O57054   6.144  10.315   5.033 -0.3110 -0.4039  1.2663
  433MOL0     C57055   6.197  10.279   4.902 -0.0026 -0.2917  0.0965
  433MOL0     C57056   6.295  10.180   4.894 -0.5808 -1.0295  0.8251
  433MOL0     C57057   6.353  10.150   4.763  0.7747 -0.7563  0.2673
  433MOL0     C57058   6.311  10.212   4.646  0.2331 -0.4684  0.3953
  433MOL0     O57059   6.382  10.185   4.536  0.4138  0.5472  0.0592
  433MOL0     C57060   6.336  10.239   4.409 -0.6572  0.5867 -0.8338
  433MOL0     C57061   6.440  10.207   4.301  0.9764 -0.0398 -0.2709
  433MOL0     C57062   6.416  10.301   4.177 -0.3499  0.0398 -0.5544
  433MOL0     C57063   6.492  10.249   4.052  0.2576  0.6321 -0.0769
  433MOL0     C57064   6.449  10.335   3.935 -0.5916 -0.8490  0.0540
  433MOL0     C57065   6.521  10.471   3.904 -0.0239 -0.0749  0.2105
  433MOL0     C57066   6.452  10.531   3.778 -0.2137 -0.2432  0.3567
  433MOL0     C57067   6.515  10.660   3.726  1.3571  0.3321 -0.1209
  433MOL0    Cl57068   6.525  10.788   3.852 -0.4966  0.0189 -0.0623
  433MOL0     C57069   6.210  10.303   4.653 -0.2056 -0.1724 -0.2493
  433MOL0     C57070   6.148  10.332   4.778  0.2419  1.4045  0.5040
  433MOL0     O57071   6.294  10.492   5.051  0.2248  1.0853  0.9935
  433MOL0     C57072   6.202  10.596   5.289  0.0457  0.4826  0.2355
  433MOL0     C57073   6.126  10.637   5.404  0.7874  0.4289 -0.5428
  433MOL0     N57074   5.624  10.316   5.576  0.1939 -0.0477  0.7907
  433MOL0     N57075   5.620  10.194   5.532  0.5171 -0.5003  1.0277
  433MOL0     C57076   4.970   9.177   6.036  0.5558 -0.8403 -0.9760
  433MOL0     C57077   4.858   9.095   6.022 -0.2428 -0.6247 -0.4696
  433MOL0     C57078   4.561   8.757   6.176 -0.4858  0.6889 -0.0454
  433MOL0     C57079   4.464   8.723   6.273  0.1982  0.7702  0.6010
  433MOL0     C57080   4.369   8.625   6.238 -0.7035 -0.2614 -0.3918
  433MOL0     C57081   4.383   8.548   6.120  0.6987 -0.7114  0.1696
  433MOL0     O57082   4.304   8.434   6.116  0.0326  0.2411 -0.0285
  433MOL0     C57083   4.340   8.307   6.060  0.4679  0.2759  0.5045
  433MOL0     C57084   4.473   8.268   6.119 -0.6774  0.4019  0.4446
  433MOL0     C57085   4.544   8.168   6.030 -0.9209  0.0475  0.7954
  433MOL0     C57086   4.584   8.237   5.899 -0.1796 -0.9352  0.0450
  433MOL0     C57087   4.662   8.139   5.819  0.5935 -0.0569 -0.3122
  433MOL0     C57088   4.722   8.050   5.761 -0.4508 -0.2632  0.0817
  433MOL0     C57089   4.480   8.585   6.027  0.3381  0.3019 -0.6839
  433MOL0     C57090   4.565   8.688   6.044 -1.4419  1.0756 -0.5350
  433MOL0     H57091   4.953   8.847   6.230 -2.2701 -0.1546  1.1332
  433MOL0     H57092   5.150   9.008   6.259 -1.1758  1.2129  0.4706
  433MOL0     H57093   5.124   9.420   6.095 -0.4407 -0.7743  2.0821
  433MOL0     H57094   5.190   9.343   5.955  0.8209 -0.0299  0.4576
  433MOL0     H57095   5.406   9.320   6.043 -0.4975  0.2512  0.2449
  433MOL0     H57096   5.366   9.384   6.201  0.9070 -3.3982  0.7145
  433MOL0     H57097   5.444   9.573   6.098 -1.4755 -0.2453  3.0701
  433MOL0     H57098   5.270   9.589   6.081 -0.1925 -0.3629  0.2466
  433MOL0     H57099   5.460   9.493   5.850 -0.1348  0.8648 -2.3091
  433MOL0     H57100   5.288   9.533   5.830  1.9669 -0.0296 -1.9179
  433MOL0     H57101   5.463   9.743   5.953  0.9553  0.9750 -0.6818
  433MOL0     H57102   5.302   9.772   5.894 -0.5159 -0.8565 -0.4151
  433MOL0     H57103   5.384   9.724   5.660  0.0541  0.4833  0.8346
  433MOL0     H57104   5.542   9.692   5.730 -1.0951 -3.0062  1.4160
  433MOL0     H57105   5.368   9.956   5.749 -0.3578 -0.7366 -0.1802
  433MOL0     H57106   5.513   9.929   5.843  0.5013 -2.4023  0.7191
  433MOL0     H57107   5.518   9.924   5.540 -0.8782 -0.1747  1.0751
  433MOL0     H57108   5.658   9.909   5.637  0.7798  1.6430 -2.3924
  433MOL0     H57109   5.502  10.155   5.834 -3.1850  1.8798  0.2431
  433MOL0     H57110   5.545  10.398   5.910  0.3775 -2.9670 -0.2137
  433MOL0     H57111   5.497  10.505   5.777  0.3793 -1.2098 -1.3150
  433MOL0     H57112   5.777  10.436   5.845  2.3015  0.9467 -4.1514
  433MOL0     H57113   5.689  10.582   5.913 -0.2964  0.0967  0.4655
  433MOL0     H57114   5.713  10.540   5.604 -2.5364  4.9544 -2.2358
  433MOL0     H57115   5.727  10.689   5.687  1.6762  1.3894 -0.5782
  433MOL0     H57116   5.927  10.451   5.688 -3.2618 -0.1000 -1.3765
  433MOL0     H57117   5.940  10.610   5.776 -1.0075 -2.4683  1.3308
  433MOL0     H57118   5.942  10.367   5.449 -0.7324  2.0790  1.4383
  433MOL0     H57119   6.045  10.293   5.270 -1.5178 -0.2913 -0.1884
  433MOL0     H57120   6.338  10.129   4.979 -2.0135  0.8380  2.7677
  433MOL0     H57121   6.442  10.089   4.755  0.9045 -0.6963  1.1447
  433MOL0     H57122   6.352  10.347   4.414  3.4166  0.1458 -1.2085
  433MOL0     H57123   6.234  10.203   4.393 -0.5097 -0.4736  0.4301
  433MOL0     H57124   6.445  10.102   4.270  0.8886  0.3575 -1.7444
  433MOL0     H57125   6.535  10.238   4.345  0.2246  2.0665  0.0187
  433MOL0     H57126   6.448  10.405   4.190 -0.1608 -0.2460  1.6370
  433MOL0     H57127   6.308  10.301   4.158 -0.3900 -0.7153 -0.3505
  433MOL0     H57128   6.601  10.251   4.059  0.5735 -2.0642 -2.4997
  433MOL0     H57129   6.462  10.149   4.019  1.5993  0.7134 -1.6961
  433MOL0     H57130   6.344  10.361   3.952 -0.8344 -2.8819  2.0656
  433MOL0     H57131   6.458  10.274   3.845  1.4441  1.8822 -1.7631
  433MOL0     H57132   6.628  10.451   3.900  0.1406  0.6178  0.9939
  433MOL0     H57133   6.516  10.544   3.986 -1.1758 -0.7524  0.7717
  433MOL0     H57134   6.455  10.456   3.698  1.8654 -2.6167  2.5092
  433MOL0     H57135   6.348  10.550   3.804 -0.6227 -1.6439 -0.1628
  433MOL0     H57136   6.459  10.699   3.640 -0.5059  1.3863  1.4830
  433MOL0     H57137   6.620  10.648   3.698  1.9573  1.9534  1.2253
  433MOL0     H57138   6.183  10.363   4.566 -1.0002  0.2072  0.2527
  433MOL0     H57139   6.078  10.415   4.783 -2.8444 -0.6191 -3.2393
  433MOL0     H57140   6.266  10.662   5.232  1.3327 -1.7802 -1.0550
  433MOL0     H57141   6.142  10.730   5.458 -0.5112 -0.3130  1.1870
  433MOL0     H57142   4.966   9.272   5.984  1.0704  0.8285  1.7846
  433MOL0     H57143   4.776   9.124   5.957  0.9603  1.0727 -1.3226
  433MOL0     H57144   4.453   8.778   6.365 -1.9950  0.5593  0.5039
  433MOL0     H57145   4.290   8.598   6.307  1.7265 -3.0979  1.5523
  433MOL0     H57146   4.346   8.318   5.951 -2.0561  0.9951  0.3750
  433MOL0     H57147   4.269   8.229   6.089 -0.0110  0.1060 -1.0445
  433MOL0     H57148   4.537   8.355   6.138 -1.3684  0.9070  0.5268
  433MOL0     H57149   4.459   8.212   6.211  0.6867 -0.3145  0.2367
  433MOL0     H57150   4.471   8.087   6.020 -0.5773 -0.2923  1.0323
  433MOL0     H57151   4.636   8.130   6.075 -1.4188 -1.7843  0.3718
  433MOL0     H57152   4.505   8.289   5.843  2.6438  5.4506  1.1333
  433MOL0     H57153   4.660   8.311   5.921 -1.0791 -0.2409  0.9134
  433MOL0     H57154   4.790   7.981   5.716  0.0314 -0.7788  1.5394
  433MOL0     H57155   4.480   8.536   5.930 -0.0234 -0.4624 -0.3135
  433MOL0     H57156   4.638   8.715   5.969 -0.8794  1.4528  0.1337
  434MOL0     O57157   4.046   0.477   1.044 -0.2275  0.2959 -0.3573
  434MOL0     C57158   4.000   0.399   1.131 -0.5642  0.6160  0.0614
  434MOL0     O57159   4.059   0.369   1.252 -0.5486  0.0512 -0.1013
  434MOL0     C57160   4.174   0.421   1.287 -0.4933  0.0071  0.3473
  434MOL0     C57161   4.279   0.436   1.191 -0.4664  0.3669  0.2094
  434MOL0     C57162   4.406   0.494   1.219  0.6605 -0.2819  0.7839
  434MOL0     C57163   4.424   0.538   1.351 -0.3974  1.0846 -0.6781
  434MOL0     O57164   4.541   0.608   1.377 -0.1752  1.0120  0.6415
  434MOL0     C57165   4.555   0.723   1.292  0.6935  0.4593  0.5436
  434MOL0     C57166   4.610   0.830   1.383 -0.7883  0.3965 -0.2056
  434MOL0     C57167   4.671   0.945   1.302  0.0843 -0.5939 -0.5510
  434MOL0     C57168   4.705   1.057   1.397  0.0480  0.7669 -0.4215
  434MOL0     C57169   4.801   1.160   1.341  0.3384 -0.2546 -0.2068
  434MOL0     C57170   4.803   1.283   1.431  0.1152  0.2912 -1.0194
  434MOL0     C57171   4.826   1.258   1.581 -0.1233  1.2077  0.1333
  434MOL0     C57172   4.861   1.386   1.653 -0.1357  0.1638  0.0511
  434MOL0     N57173   4.746   1.455   1.695  0.1904  1.1531  0.8392
  434MOL0     C57174   4.707   1.579   1.646  0.7542 -0.8055  0.1148
  434MOL0     C57175   4.603   1.615   1.729  0.1262 -0.3429  0.2858
  434MOL0     C57176   4.509   1.731   1.711 -0.0033  0.5700 -0.7561
  434MOL0     C57177   4.369   1.679   1.748 -0.1022  0.0413 -0.6285
  434MOL0     C57178   4.311   1.585   1.636  0.3885 -0.3077  0.2858
  434MOL0     C57179   4.163   1.558   1.650 -0.7094  0.6743 -0.1178
  434MOL0     O57180   4.096   1.672   1.647  0.2720 -0.5341 -0.5491
  434MOL0     C57181   3.962   1.674   1.626 -1.1913  0.1850  0.6634
  434MOL0     C57182   3.904   1.782   1.681  0.1910 -0.7427 -0.4640
  434MOL0     C57183   3.761   1.799   1.671 -0.2431  0.2335  0.7527
  434MOL0     C57184   3.676   1.718   1.587 -1.4611 -0.0163 -0.7200
  434MOL0     C57185   3.534   1.723   1.582 -0.4523 -0.4548 -0.5665
  434MOL0     O57186   3.473   1.625   1.530 -0.1695  0.5936  0.9465
  434MOL0     C57187   3.356   1.641   1.459  0.1307  0.0908  0.8971
  434MOL0     C57188   3.290   1.525   1.437  0.2062  0.1122  0.5292
  434MOL0     C57189   3.178   1.530   1.353  0.0733 -0.2435  0.5026
  434MOL0     C57190   3.117   1.652   1.309  0.3516 -0.5396 -0.7066
  434MOL0     O57191   3.005   1.660   1.218 -1.4563  0.5889 -0.4569
  434MOL0     C57192   2.942   1.787   1.199 -0.4212  0.1500 -0.3339
  434MOL0     C57193   2.798   1.748   1.150 -0.4093 -0.6559 -1.1039
  434MOL0     C57194   2.721   1.866   1.086  0.0425 -0.5545 -0.4221
  434MOL0     C57195   2.585   1.823   1.019  1.3353 -0.1616  0.0359
  434MOL0     C57196   2.475   1.926   1.004  1.1036  0.7629 -0.2413
  434MOL0     C57197   2.343   1.873   0.953 -0.0437  0.2029  1.0245
  434MOL0     C57198   2.367   1.828   0.806  0.9697  0.0112  0.2352
  434MOL0     C57199   2.230   1.799   0.740 -0.0567 -0.6445  0.4464
  434MOL0    Cl57200   2.236   1.724   0.594  0.0739  0.5731  0.9303
  434MOL0     C57201   3.181   1.779   1.348 -0.7441  0.5846  1.4950
  434MOL0     C57202   3.293   1.761   1.430 -0.6366  1.0114  0.2842
  434MOL0     O57203   3.490   1.826   1.626 -1.1794  0.5622 -0.3498
  434MOL0     C57204   3.749   1.607   1.528  0.0575 -0.3129 -0.5864
  434MOL0     C57205   3.896   1.586   1.548  0.0131 -0.0674  0.4299
  434MOL0     N57206   4.592   1.526   1.833 -1.0082  0.7161 -0.1463
  434MOL0     N57207   4.677   1.430   1.805  0.2014  0.1403  0.0531
  434MOL0     C57208   4.325   0.508   1.446  0.0401 -0.0041  0.0231
  434MOL0     C57209   4.199   0.464   1.418 -1.3665  0.2264  1.0299
  434MOL0     C57210   3.869   0.333   1.104  0.2745 -0.2221 -0.8777
  434MOL0     C57211   3.777   0.294   1.208  0.2528 -0.0810 -0.6564
  434MOL0     C57212   3.634   0.287   1.176  0.0086  0.4765  0.2221
  434MOL0     C57213   3.587   0.278   1.041 -0.8314  0.2439 -0.4227
  434MOL0     O57214   3.452   0.265   1.011  0.5256 -0.4412  0.2697
  434MOL0     C57215   3.407   0.146   0.956  1.0635 -0.2523  0.1075
  434MOL0     C57216   3.252   0.142   0.922 -0.6058  0.1458  0.0981
  434MOL0     C57217   3.219   0.245   0.811 -1.1951 -0.4872 -0.3144
  434MOL0     C57218   3.077   0.246   0.755 -0.2706  0.3240 -0.0563
  434MOL0     C57219   2.978   0.260   0.857 -0.6490  0.1099 -1.2306
  434MOL0     C57220   2.880   0.284   0.928 -0.4073 -0.6200 -0.5578
  434MOL0     C57221   3.684   0.294   0.937  0.4411  0.0317 -0.3606
  434MOL0     C57222   3.820   0.338   0.969 -0.7095 -0.1386  0.0356
  434MOL0     H57223   4.264   0.392   1.093 -3.3732  1.7407 -0.0727
  434MOL0     H57224   4.490   0.496   1.150 -0.3438  2.2564 -0.4761
  434MOL0     H57225   4.459   0.756   1.252 -0.1368 -1.1212  1.1329
  434MOL0     H57226   4.620   0.694   1.209 -1.0453 -1.0816 -0.3523
  434MOL0     H57227   4.682   0.785   1.451 -0.0014  2.1439  0.1724
  434MOL0     H57228   4.540   0.873   1.456  1.4909  1.2868  1.5506
  434MOL0     H57229   4.596   0.974   1.227 -0.2171 -0.7022 -0.2971
  434MOL0     H57230   4.764   0.918   1.253  2.3981  3.6432  0.9781
  434MOL0     H57231   4.605   1.087   1.428 -0.4441 -0.3811 -0.8182
  434MOL0     H57232   4.756   1.033   1.492  1.1636  2.0493 -0.6645
  434MOL0     H57233   4.783   1.191   1.238  0.7961  5.0114  1.0038
  434MOL0     H57234   4.900   1.115   1.358  0.9171  1.6754  2.0885
  434MOL0     H57235   4.710   1.337   1.412  0.5089  0.5793 -2.1945
  434MOL0     H57236   4.883   1.347   1.392  0.4854 -0.3581 -1.3550
  434MOL0     H57237   4.748   1.198   1.628  0.9098 -0.3527 -0.0880
  434MOL0     H57238   4.913   1.192   1.583 -0.8687  0.1909 -0.0507
  434MOL0     H57239   4.907   1.460   1.587 -1.8548  2.2513  1.0590
  434MOL0     H57240   4.918   1.365   1.744 -0.0659  0.6678  0.1312
  434MOL0     H57241   4.733   1.637   1.558 -1.8962  2.3648  1.2077
  434MOL0     H57242   4.510   1.776   1.611  1.9180  0.2616 -0.9042
  434MOL0     H57243   4.531   1.816   1.775 -3.9232 -0.2226  2.0060
  434MOL0     H57244   4.303   1.766   1.751 -0.0242  0.0873  0.8801
  434MOL0     H57245   4.358   1.631   1.846 -1.6137 -0.9847 -1.2686
  434MOL0     H57246   4.323   1.652   1.550  0.1405  2.5176  2.2898
  434MOL0     H57247   4.369   1.495   1.618  0.7034 -0.0557  0.0181
  434MOL0     H57248   4.133   1.494   1.733  1.8786 -0.9863 -0.3774
  434MOL0     H57249   4.127   1.506   1.560 -1.0876 -0.7527  0.8263
  434MOL0     H57250   3.965   1.836   1.752 -1.1291 -0.4895  0.5233
  434MOL0     H57251   3.715   1.871   1.738 -1.1538 -2.2494  2.9660
  434MOL0     H57252   3.341   1.434   1.468 -1.0867 -0.4661  1.0038
  434MOL0     H57253   3.152   1.431   1.317  3.2118 -0.3962 -1.7157
  434MOL0     H57254   2.991   1.840   1.116 -0.3667  0.7814  0.0956
  434MOL0     H57255   2.941   1.863   1.277  1.5147 -0.4054  0.2831
  434MOL0     H57256   2.754   1.698   1.238  0.7285 -0.0955 -0.1920
  434MOL0     H57257   2.820   1.675   1.072 -0.8469 -0.0650 -1.7889
  434MOL0     H57258   2.788   1.920   1.019  1.5669 -1.6570  0.1714
  434MOL0     H57259   2.705   1.930   1.174  5.1831  0.4389  0.1028
  434MOL0     H57260   2.601   1.784   0.918 -2.5036  2.8089 -1.9601
  434MOL0     H57261   2.547   1.747   1.088 -0.0328  1.2822  0.9324
  434MOL0     H57262   2.509   1.999   0.929 -0.2951  0.1153 -1.5598
  434MOL0     H57263   2.458   1.986   1.094  0.6629 -2.5532  2.0468
  434MOL0     H57264   2.265   1.950   0.962  1.2441  1.7430 -0.5143
  434MOL0     H57265   2.300   1.795   1.017  2.4476 -1.9997  0.1760
  434MOL0     H57266   2.428   1.904   0.756  1.5638 -1.1953 -0.9268
  434MOL0     H57267   2.428   1.737   0.807  1.6255  0.4464  0.5645
  434MOL0     H57268   2.169   1.890   0.735  0.1917 -0.5317 -1.1976
  434MOL0     H57269   2.170   1.731   0.800 -1.1361  0.4802  0.6998
  434MOL0     H57270   3.146   1.879   1.327  1.0665  1.1728  1.0329
  434MOL0     H57271   3.350   1.853   1.442  5.2968 -1.9002 -1.4153
  434MOL0     H57272   3.694   1.546   1.457 -1.5000  0.4722 -0.0828
  434MOL0     H57273   3.954   1.511   1.495  2.2340  0.0702  2.5101
  434MOL0     H57274   4.341   0.527   1.552 -0.7200 -1.5039  0.4335
  434MOL0     H57275   4.139   0.441   1.506  2.6620 -2.9987  3.2916
  434MOL0     H57276   3.799   0.291   1.314 -0.4927 -1.3075 -0.5212
  434MOL0     H57277   3.565   0.288   1.260 -0.3509  4.1771  0.0712
  434MOL0     H57278   3.420   0.068   1.032 -2.4595  1.1326  2.4247
  434MOL0     H57279   3.465   0.120   0.867  0.0088 -0.2353 -0.6103
  434MOL0     H57280   3.226   0.040   0.891 -2.6504  0.7181 -0.2496
  434MOL0     H57281   3.188   0.161   1.009 -1.6769 -2.4153 -0.0242
  434MOL0     H57282   3.284   0.212   0.729 -0.0750 -0.6266  0.6003
  434MOL0     H57283   3.244   0.348   0.838  0.6236 -0.3885 -2.1150
  434MOL0     H57284   3.082   0.322   0.676  1.1941  1.5449  1.1571
  434MOL0     H57285   3.066   0.150   0.704  2.3163 -1.5451  2.6002
  434MOL0     H57286   2.817   0.342   0.993  0.8619  1.4549 -1.1134
  434MOL0     H57287   3.646   0.301   0.836 -0.5093 -3.2978 -0.3550
  434MOL0     H57288   3.881   0.386   0.893 -0.2988  1.6576  1.4323
  435MOL0     O57289   0.404   9.018   0.699  0.0994  0.0875 -0.6683
  435MOL0     C57290   0.339   9.041   0.805  1.0616  0.6031  0.0078
  435MOL0     O57291   0.264   8.952   0.871 -0.2680  0.2315 -0.1221
  435MOL0     C57292   0.240   8.822   0.828  0.5953  0.3465  0.3641
  435MOL0     C57293   0.267   8.766   0.697 -1.2526  0.9597  0.5084
  435MOL0     C57294   0.247   8.632   0.670 -0.0347 -0.8654  0.0439
  435MOL0     C57295   0.177   8.544   0.762 -0.1971  1.4434 -0.0725
  435MOL0     O57296   0.167   8.407   0.742  0.2699  0.3107 -0.4016
  435MOL0     C57297   0.085   8.354   0.639  0.4951 -0.4700 -0.2383
  435MOL0     C57298   0.089   8.203   0.638 -0.0665 -0.3425 -0.4320
  435MOL0     C57299   0.008   8.127   0.522  0.1225  0.1832  0.4891
  435MOL0     C57300  -0.125   8.194   0.484  0.0891  0.8627 -1.0005
  435MOL0     C57301  -0.190   8.135   0.355  0.3349  0.1659  0.3153
  435MOL0     C57302  -0.326   8.201   0.319 -0.0866 -0.1727  0.8229
  435MOL0     C57303  -0.324   8.307   0.211 -1.0703 -0.5493 -1.2374
  435MOL0     C57304  -0.435   8.411   0.217  0.1409 -0.0069  0.8163
  435MOL0     N57305  -0.566   8.339   0.213  0.2388  0.9526 -0.5770
  435MOL0     C57306  -0.638   8.299   0.326 -1.0602 -1.1614 -0.5947
  435MOL0     C57307  -0.741   8.221   0.287  0.1393 -0.1365  0.2028
  435MOL0     C57308  -0.840   8.157   0.384 -0.1200  0.0587 -0.1621
  435MOL0     C57309  -0.973   8.247   0.392  0.0432 -0.7383  0.9761
  435MOL0     C57310  -1.052   8.237   0.263 -0.5605  0.1345  0.3359
  435MOL0     C57311  -1.184   8.314   0.268 -0.2230 -0.6225 -0.0635
  435MOL0     O57312  -1.282   8.242   0.194  0.3068 -0.0072  0.9023
  435MOL0     C57313  -1.413   8.263   0.243  0.8048  0.2346 -0.0212
  435MOL0     C57314  -1.482   8.151   0.302 -0.6050 -0.5927 -1.2782
  435MOL0     C57315  -1.614   8.168   0.346 -0.2504 -0.1712  0.8312
  435MOL0     C57316  -1.671   8.292   0.339  0.6699 -0.7258 -0.3618
  435MOL0     C57317  -1.810   8.314   0.400 -0.0010  0.2835  0.1560
  435MOL0     O57318  -1.857   8.204   0.488 -0.6051 -0.5399  0.2047
  435MOL0     C57319  -1.990   8.205   0.523 -0.1812  0.1146 -0.1134
  435MOL0     C57320  -2.068   8.101   0.492 -0.6732  0.0474  0.6414
  435MOL0     C57321  -2.205   8.096   0.523  0.6061 -0.0354 -0.0116
  435MOL0     C57322  -2.267   8.209   0.579  0.2394  0.0263  0.2684
  435MOL0     O57323  -2.396   8.214   0.630  0.3686  0.3868  0.2483
  435MOL0     C57324  -2.483   8.098   0.592 -0.1041 -0.3444 -0.0292
  435MOL0     C57325  -2.632   8.108   0.637 -0.4935 -1.5767 -0.8445
  435MOL0     C57326  -2.713   7.994   0.586  0.9782 -1.3732 -0.1171
  435MOL0     C57327  -2.869   8.016   0.584  0.0853  0.7591 -0.5462
  435MOL0     C57328  -2.947   7.894   0.526  0.6920 -0.6077 -0.3293
  435MOL0     C57329  -2.928   7.764   0.604 -0.4780 -0.1332 -0.2033
  435MOL0     C57330  -3.024   7.652   0.557  0.1219 -0.8494  0.0599
  435MOL0     C57331  -3.056   7.646   0.404 -0.1808  0.4862 -0.5616
  435MOL0    Cl57332  -2.915   7.589   0.305  0.0967 -0.0553  0.3717
  435MOL0     C57333  -2.187   8.325   0.603  0.4534 -0.4377  0.2036
  435MOL0     C57334  -2.048   8.321   0.589 -0.0236  1.0581  0.5674
  435MOL0     O57335  -1.869   8.416   0.374  0.5271  0.1756  0.5432
  435MOL0     C57336  -1.601   8.402   0.294 -0.7891  0.2906  0.3674
  435MOL0     C57337  -1.479   8.386   0.235 -0.6862  0.5840  0.1040
  435MOL0     N57338  -0.740   8.228   0.143 -1.3006 -0.2899 -0.2098
  435MOL0     N57339  -0.637   8.304   0.103 -0.1211  0.4937 -0.7335
  435MOL0     C57340   0.147   8.602   0.886 -0.4542 -0.2901  0.7738
  435MOL0     C57341   0.180   8.728   0.912  0.6715 -0.1974 -0.3604
  435MOL0     C57342   0.347   9.179   0.857  0.1550  0.4700  0.5027
  435MOL0     C57343   0.252   9.221   0.951 -0.1242  0.5471  0.0807
  435MOL0     C57344   0.256   9.364   0.988 -0.4725  1.3624 -0.6380
  435MOL0     C57345   0.344   9.454   0.939  0.1895 -0.3860  0.0187
  435MOL0     O57346   0.351   9.587   0.966 -0.4605  0.1114  0.0882
  435MOL0     C57347   0.256   9.652   1.043  0.2744 -0.2351 -0.0063
  435MOL0     C57348   0.313   9.788   1.079  0.0263 -0.4128  0.2752
  435MOL0     C57349   0.214   9.882   1.150  0.3481 -0.2953 -0.3084
  435MOL0     C57350   0.232  10.039   1.111  0.6815  0.5053  0.5114
  435MOL0     C57351   0.356  10.101   1.148  0.6278 -0.7249  0.5450
  435MOL0     C57352   0.463  10.135   1.188  0.6586 -0.0798 -0.4285
  435MOL0     C57353   0.432   9.401   0.850  0.8623  0.4699  0.7563
  435MOL0     C57354   0.433   9.263   0.809 -0.2353  0.3469  0.5569
  435MOL0     H57355   0.323   8.820   0.621  2.9995 -2.7466  0.5816
  435MOL0     H57356   0.278   8.579   0.581 -1.4830  4.0314 -3.8556
  435MOL0     H57357   0.115   8.396   0.543 -3.2301  2.0740 -0.5017
  435MOL0     H57358  -0.016   8.382   0.672  0.2083 -3.6520  2.1179
  435MOL0     H57359   0.055   8.166   0.735 -2.0114 -1.3759 -1.4359
  435MOL0     H57360   0.196   8.181   0.635  0.1204  0.2606  1.3533
  435MOL0     H57361   0.002   8.024   0.558 -0.1823 -0.3644 -1.0373
  435MOL0     H57362   0.079   8.111   0.440  0.5336 -1.5243  1.1510
  435MOL0     H57363  -0.200   8.190   0.563 -1.3037  2.0128 -2.1964
  435MOL0     H57364  -0.096   8.299   0.474  0.9213  1.1488  2.9569
  435MOL0     H57365  -0.203   8.028   0.374  3.6474 -0.4741 -0.3926
  435MOL0     H57366  -0.123   8.137   0.268  0.2229 -1.4849  0.1622
  435MOL0     H57367  -0.368   8.230   0.416 -1.2177  2.1903 -0.2909
  435MOL0     H57368  -0.392   8.121   0.282 -1.2456 -0.8278  3.9485
  435MOL0     H57369  -0.233   8.367   0.221 -0.3787 -1.7014 -0.4177
  435MOL0     H57370  -0.326   8.258   0.113 -0.5036  1.8663 -2.5313
  435MOL0     H57371  -0.425   8.486   0.138  3.2709  0.2923  1.3767
  435MOL0     H57372  -0.425   8.471   0.308  1.3741  3.3959 -1.3521
  435MOL0     H57373  -0.628   8.329   0.429 -0.3100 -3.5420  0.0806
  435MOL0     H57374  -0.799   8.155   0.486 -0.5054  1.4670  0.0468
  435MOL0     H57375  -0.874   8.061   0.346  2.0236 -1.3860  1.3129
  435MOL0     H57376  -0.946   8.351   0.410 -0.1731 -0.3190 -0.8389
  435MOL0     H57377  -1.034   8.212   0.475  0.1162 -0.7857  1.0091
  435MOL0     H57378  -0.991   8.287   0.187 -0.5881  0.3821  0.4777
  435MOL0     H57379  -1.076   8.136   0.228  1.3584  0.4850 -2.3010
  435MOL0     H57380  -1.181   8.411   0.217  0.8587  0.0859  1.2666
  435MOL0     H57381  -1.215   8.327   0.372  1.6059  0.0921  0.4414
  435MOL0     H57382  -1.415   8.068   0.322  2.3512  1.7299 -0.9424
  435MOL0     H57383  -1.672   8.087   0.391 -2.6588  1.1331  0.2780
  435MOL0     H57384  -2.018   8.027   0.430 -1.6194 -0.8941  0.9844
  435MOL0     H57385  -2.254   8.007   0.487 -2.0045  1.4309 -0.3365
  435MOL0     H57386  -2.445   8.003   0.630 -0.6869 -0.8133 -0.6094
  435MOL0     H57387  -2.477   8.086   0.484  0.0536 -0.5917  0.0069
  435MOL0     H57388  -2.672   8.200   0.591 -0.7828  0.3479  2.8789
  435MOL0     H57389  -2.632   8.116   0.746  2.0757 -0.5886 -0.8511
  435MOL0     H57390  -2.679   7.906   0.640  1.8601 -0.0909  1.5123
  435MOL0     H57391  -2.696   7.972   0.480 -1.7144 -2.4755 -0.4157
  435MOL0     H57392  -2.908   8.040   0.683  0.0642  5.3987 -1.4580
  435MOL0     H57393  -2.897   8.104   0.525 -2.4941 -0.6341 -1.5711
  435MOL0     H57394  -2.932   7.872   0.420  1.2368 -2.2901  0.0777
  435MOL0     H57395  -3.052   7.924   0.534  0.1546 -2.4031 -0.2606
  435MOL0     H57396  -2.937   7.779   0.712 -2.9709  3.2899 -0.7239
  435MOL0     H57397  -2.824   7.733   0.593 -0.3620  0.1702  0.0044
  435MOL0     H57398  -2.984   7.556   0.594 -1.5900 -1.0941  1.3696
  435MOL0     H57399  -3.118   7.686   0.599  0.7040  2.6760 -1.1181
  435MOL0     H57400  -3.089   7.744   0.369  1.0914  1.3024  0.4583
  435MOL0     H57401  -3.140   7.579   0.382  1.2490 -1.1000 -1.4892
  435MOL0     H57402  -2.232   8.418   0.637 -3.4521 -2.5053  1.3745
  435MOL0     H57403  -2.000   8.415   0.610  1.5994 -0.0062  1.8321
  435MOL0     H57404  -1.645   8.501   0.289 -2.4380 -0.4565 -0.4296
  435MOL0     H57405  -1.419   8.466   0.194  3.0654 -0.8414  2.3578
  435MOL0     H57406   0.101   8.538   0.962  0.3574 -2.2610 -0.3223
  435MOL0     H57407   0.164   8.766   1.013 -1.8862 -2.2442  0.1188
  435MOL0     H57408   0.191   9.152   1.007  2.9954 -2.8817 -0.3501
  435MOL0     H57409   0.181   9.394   1.060  0.4726  4.4583 -0.7550
  435MOL0     H57410   0.238   9.602   1.139 -0.7274  1.4920  0.7455
  435MOL0     H57411   0.158   9.667   0.999  0.2717  1.8502  0.6367
  435MOL0     H57412   0.404   9.778   1.139 -0.3187 -0.4867  0.7978
  435MOL0     H57413   0.330   9.835   0.982  1.6134  1.7973  1.5409
  435MOL0     H57414   0.219   9.879   1.260  1.1880  1.6020 -0.2595
  435MOL0     H57415   0.113   9.846   1.129 -0.4348  1.8895 -0.4814
  435MOL0     H57416   0.222  10.039   1.002  2.0520  2.5683  0.3256
  435MOL0     H57417   0.153  10.102   1.154  1.8546  0.5765  2.6965
  435MOL0     H57418   0.561  10.161   1.223  1.1423 -1.1475 -0.9431
  435MOL0     H57419   0.505   9.468   0.805 -1.9011  3.8834  0.9448
  435MOL0     H57420   0.517   9.229   0.750  0.3843 -0.4716  1.8589
  436MOL0     O57421   1.166   2.239   1.483  0.3212 -0.0151 -0.2829
  436MOL0     C57422   1.096   2.282   1.576  0.0712 -1.2148 -0.2857
  436MOL0     O57423   1.007   2.213   1.646  0.3114  0.2650 -0.4494
  436MOL0     C57424   1.005   2.082   1.612  0.7343 -0.0714 -0.2585
  436MOL0     C57425   0.930   2.047   1.499 -0.0438 -0.3897 -0.3233
  436MOL0     C57426   0.913   1.910   1.471 -0.1703  1.1111  0.3978
  436MOL0     C57427   0.965   1.804   1.559  0.7657 -0.6382 -0.2846
  436MOL0     O57428   0.941   1.674   1.544  0.5683 -0.2682 -0.8412
  436MOL0     C57429   0.896   1.632   1.416 -0.6171  0.3164  0.8314
  436MOL0     C57430   0.865   1.478   1.414 -0.2560  0.2878 -0.5197
  436MOL0     C57431   0.786   1.418   1.521 -0.9725 -0.1929  0.8522
  436MOL0     C57432   0.763   1.272   1.527 -0.3038  0.3184 -0.4431
  436MOL0     C57433   0.663   1.222   1.629  0.3891  0.5687  0.3738
  436MOL0     C57434   0.524   1.275   1.599  0.5486 -0.3251  0.5829
  436MOL0     C57435   0.488   1.244   1.444  0.2331 -0.2256  0.7902
  436MOL0     C57436   0.339   1.248   1.397  0.2557 -0.3753  0.6447
  436MOL0     N57437   0.325   1.256   1.253  0.1272  0.6421 -0.5901
  436MOL0     C57438   0.265   1.368   1.189 -1.1090 -0.5452 -0.7482
  436MOL0     C57439   0.268   1.337   1.059 -0.2480 -0.1879  0.0198
  436MOL0     C57440   0.226   1.410   0.934  0.4921 -0.7223  0.2743
  436MOL0     C57441   0.082   1.397   0.909 -0.2165  0.1514  0.2570
  436MOL0     C57442   0.025   1.445   0.779  0.1956 -0.0219  1.3977
  436MOL0     C57443  -0.121   1.388   0.749  0.6768  0.1450 -0.0924
  436MOL0     O57444  -0.198   1.435   0.858  0.9077  0.1316  0.0066
  436MOL0     C57445  -0.331   1.389   0.871 -0.1491  0.8101  0.6748
  436MOL0     C57446  -0.389   1.414   0.995  0.7486 -0.2950 -0.6024
  436MOL0     C57447  -0.513   1.364   1.024 -0.2708 -0.2286 -0.5995
  436MOL0     C57448  -0.581   1.285   0.933  0.9138  0.3424 -0.0921
  436MOL0     C57449  -0.712   1.226   0.980 -0.2361  0.0997 -0.0850
  436MOL0     O57450  -0.796   1.205   0.879 -0.5475 -0.8797  0.4903
  436MOL0     C57451  -0.909   1.129   0.896 -0.0303 -0.1461  0.0124
  436MOL0     C57452  -1.021   1.170   0.834 -0.0173 -0.3980 -0.1758
  436MOL0     C57453  -1.140   1.102   0.839 -0.2743 -0.7047  1.1534
  436MOL0     C57454  -1.149   0.977   0.897 -0.1403 -0.8878 -0.0408
  436MOL0     O57455  -1.269   0.906   0.907 -0.2008  0.2697  0.2409
  436MOL0     C57456  -1.392   0.945   0.839 -0.0813  1.2493 -0.9392
  436MOL0     C57457  -1.464   1.049   0.928  0.7116  0.4902 -0.5355
  436MOL0     C57458  -1.518   0.986   1.058 -0.4146 -0.1083 -0.0996
  436MOL0     C57459  -1.646   0.909   1.023  0.8159  1.1481 -0.8822
  436MOL0     C57460  -1.701   0.831   1.148 -0.2137  0.4029  0.1299
  436MOL0     C57461  -1.830   0.754   1.117  0.2954  0.0386  0.0043
  436MOL0     C57462  -1.932   0.836   1.037 -0.1138 -0.6508 -0.7286
  436MOL0     C57463  -2.070   0.787   1.079  0.5388 -0.1614  0.4249
  436MOL0    Cl57464  -2.107   0.671   0.957 -0.0027 -0.4402  0.4301
  436MOL0     C57465  -1.029   0.922   0.942  0.3802  0.7708 -0.2120
  436MOL0     C57466  -0.905   0.993   0.934 -0.7966  0.8669 -0.5261
  436MOL0     O57467  -0.736   1.193   1.097 -1.0061 -0.8956  1.4929
  436MOL0     C57468  -0.534   1.277   0.803 -0.5613 -0.4261 -0.1085
  436MOL0     C57469  -0.399   1.315   0.773 -0.3434  0.7272 -0.4813
  436MOL0     N57470   0.308   1.207   1.043  0.2478  0.2868 -0.1895
  436MOL0     N57471   0.357   1.165   1.153  0.0600  0.0215  0.3875
  436MOL0     C57472   1.032   1.847   1.671 -0.7414  0.2075  0.5369
  436MOL0     C57473   1.063   1.982   1.698 -0.7421  0.0450  0.3149
  436MOL0     C57474   1.109   2.428   1.625 -0.7814 -0.2919  0.7083
  436MOL0     C57475   1.060   2.465   1.740  0.2787 -0.1409  0.1304
  436MOL0     C57476   1.081   2.593   1.793 -0.6552 -0.6564  0.1577
  436MOL0     C57477   1.163   2.685   1.714  0.5539 -1.4706  1.1481
  436MOL0     O57478   1.174   2.812   1.755  0.1832  0.4195 -0.8310
  436MOL0     C57479   1.293   2.882   1.765  0.1106  0.6449  0.8668
  436MOL0     C57480   1.388   2.817   1.857  0.6094 -0.7773 -0.2226
  436MOL0     C57481   1.329   2.836   2.002 -0.1856 -0.0300 -0.2163
  436MOL0     C57482   1.310   2.978   2.055 -0.0822  0.1881 -0.4431
  436MOL0     C57483   1.273   2.973   2.195  0.2715 -0.0708 -0.5693
  436MOL0     C57484   1.251   2.986   2.314  0.9041  0.9426  0.0391
  436MOL0     C57485   1.198   2.660   1.578  1.1990  0.1085  0.2304
  436MOL0     C57486   1.172   2.529   1.546 -0.2471  0.5038  0.1219
  436MOL0     H57487   0.905   2.123   1.425  5.9035  1.4891 -0.9333
  436MOL0     H57488   0.868   1.880   1.377  2.9407 -2.7233 -0.1157
  436MOL0     H57489   0.971   1.646   1.338  0.8807  0.2624  2.2090
  436MOL0     H57490   0.802   1.679   1.386  0.1902  0.3174 -1.9394
  436MOL0     H57491   0.969   1.444   1.420  0.6041  2.8179  0.0055
  436MOL0     H57492   0.820   1.450   1.318 -1.0416  2.8525 -0.9727
  436MOL0     H57493   0.686   1.459   1.506  0.3725  3.4007  0.8143
  436MOL0     H57494   0.821   1.469   1.612  2.5707  3.6809 -2.2691
  436MOL0     H57495   0.731   1.228   1.432 -3.1180 -3.3843  1.9169
  436MOL0     H57496   0.853   1.214   1.550  0.4236  2.2110  1.8420
  436MOL0     H57497   0.687   1.250   1.732 -0.9643  0.3029  0.7803
  436MOL0     H57498   0.659   1.113   1.625 -0.5195  0.6214 -0.5837
  436MOL0     H57499   0.512   1.378   1.631  1.5029  0.4732 -1.4075
  436MOL0     H57500   0.455   1.228   1.669  0.7013  0.0171  0.9624
  436MOL0     H57501   0.540   1.316   1.380 -3.4891  1.6596 -0.3625
  436MOL0     H57502   0.513   1.138   1.433 -2.5882 -0.8020 -1.1482
  436MOL0     H57503   0.298   1.341   1.438  3.5187  2.5967 -2.1715
  436MOL0     H57504   0.283   1.160   1.429  2.6636 -2.2664 -0.0493
  436MOL0     H57505   0.249   1.467   1.231  2.2619 -1.0417  2.1732
  436MOL0     H57506   0.282   1.372   0.849 -0.3537 -1.9107  0.2169
  436MOL0     H57507   0.250   1.516   0.949  0.0498 -0.5489 -0.1905
  436MOL0     H57508   0.029   1.453   0.987  0.8002  0.8464  0.4648
  436MOL0     H57509   0.057   1.291   0.916 -0.3058  0.1485 -0.0815
  436MOL0     H57510   0.014   1.554   0.771  2.9551  0.2433 -3.6099
  436MOL0     H57511   0.088   1.416   0.694 -1.8149  0.3741 -0.3245
  436MOL0     H57512  -0.119   1.279   0.737  2.8847  0.0826  0.3975
  436MOL0     H57513  -0.150   1.427   0.651  2.5200  2.0059  0.0344
  436MOL0     H57514  -0.339   1.467   1.076 -2.8400 -0.5086  1.9790
  436MOL0     H57515  -0.549   1.388   1.124 -2.3542  0.8682 -1.5717
  436MOL0     H57516  -1.010   1.272   0.799  0.4689 -0.6926 -0.9099
  436MOL0     H57517  -1.228   1.157   0.809  0.5289  0.1004  0.1949
  436MOL0     H57518  -1.461   0.862   0.823 -0.0939  0.9185  0.6556
  436MOL0     H57519  -1.357   0.988   0.745  1.0982  3.1626  0.3057
  436MOL0     H57520  -1.552   1.095   0.881 -1.2726 -2.5023 -0.0193
  436MOL0     H57521  -1.396   1.131   0.953  2.0450 -0.5020 -0.8278
  436MOL0     H57522  -1.533   1.064   1.133  1.0582 -0.3959  0.5479
  436MOL0     H57523  -1.441   0.917   1.094 -1.0090 -2.1447 -2.4496
  436MOL0     H57524  -1.720   0.980   0.987 -0.6637 -0.5188 -1.2527
  436MOL0     H57525  -1.631   0.833   0.946 -0.4078  0.8401 -0.8331
  436MOL0     H57526  -1.725   0.902   1.228 -2.3760  2.0636 -1.8501
  436MOL0     H57527  -1.623   0.765   1.186 -0.0513  0.2433 -0.4666
  436MOL0     H57528  -1.871   0.718   1.212 -2.3316 -0.6555 -1.2758
  436MOL0     H57529  -1.806   0.668   1.054  2.8252  1.0555 -0.5286
  436MOL0     H57530  -1.907   0.941   1.058  3.4380 -1.7971  1.5907
  436MOL0     H57531  -1.917   0.835   0.929 -3.0747  1.3614 -1.3017
  436MOL0     H57532  -2.129   0.878   1.068  0.7413 -0.3063 -2.8122
  436MOL0     H57533  -2.079   0.743   1.179 -0.1204 -2.2341 -0.4953
  436MOL0     H57534  -1.025   0.824   0.990  1.3328  0.9855  0.1696
  436MOL0     H57535  -0.807   0.960   0.967 -1.3873 -3.3203 -2.3631
  436MOL0     H57536  -0.581   1.221   0.724  2.6155 -0.6186 -2.0446
  436MOL0     H57537  -0.357   1.305   0.674 -0.5796 -3.7248 -0.3005
  436MOL0     H57538   1.090   1.782   1.737  2.3005  1.8494 -0.3098
  436MOL0     H57539   1.126   2.026   1.774 -5.5374  4.1242  2.5183
  436MOL0     H57540   1.004   2.397   1.803 -1.3586  1.3324  0.3340
  436MOL0     H57541   1.052   2.636   1.889  1.4092  1.6315 -0.1417
  436MOL0     H57542   1.279   2.982   1.808 -1.4416  3.0369 -4.4003
  436MOL0     H57543   1.326   2.897   1.662 -2.0976 -0.0941 -0.0113
  436MOL0     H57544   1.393   2.714   1.820 -0.5856 -0.2551 -1.9870
  436MOL0     H57545   1.487   2.861   1.852  1.1048 -1.9775 -1.5070
  436MOL0     H57546   1.413   2.792   2.057 -0.2565  0.6722  0.4810
  436MOL0     H57547   1.241   2.773   2.012 -0.1559 -0.0028  0.2092
  436MOL0     H57548   1.394   3.044   2.029  0.8409 -1.4566 -1.8213
  436MOL0     H57549   1.220   3.026   2.015  0.5337  1.8430  0.0605
  436MOL0     H57550   1.232   2.991   2.420 -1.4727 -2.4013 -0.0761
  436MOL0     H57551   1.249   2.736   1.520  0.8832  0.2806  0.1694
  436MOL0     H57552   1.205   2.506   1.444  1.2735 -1.3488  0.9567
  437MOL0     O57553   3.057   9.168   2.585  0.9943  0.5828 -0.1777
  437MOL0     C57554   2.983   9.068   2.591 -0.3250  1.1510 -0.1122
  437MOL0     O57555   2.903   9.035   2.686  0.6610 -0.3151 -0.7455
  437MOL0     C57556   2.894   9.094   2.813  0.1641 -1.1762  0.3172
  437MOL0     C57557   3.005   9.122   2.887  0.3733  0.8397 -0.9182
  437MOL0     C57558   2.990   9.189   3.006 -0.8281 -0.3660 -0.2371
  437MOL0     C57559   2.851   9.234   3.051  0.0855  1.0878  0.6730
  437MOL0     O57560   2.818   9.286   3.173 -0.3323 -0.6182 -0.1019
  437MOL0     C57561   2.910   9.386   3.225  0.0471 -0.4148  0.6711
  437MOL0     C57562   2.973   9.344   3.359  0.5119  0.0743  0.3524
  437MOL0     C57563   3.114   9.281   3.340 -0.6190 -0.4731  0.2185
  437MOL0     C57564   3.198   9.268   3.470  0.0934 -0.3188 -0.0932
  437MOL0     C57565   3.353   9.303   3.458  0.2797 -0.5404  0.5433
  437MOL0     C57566   3.383   9.452   3.417  0.5710  0.3098 -0.5412
  437MOL0     C57567   3.516   9.469   3.344 -0.2100 -0.1031 -0.6906
  437MOL0     C57568   3.644   9.419   3.411  0.6951  0.3187  0.3913
  437MOL0     N57569   3.691   9.540   3.496  0.3690  0.7422  0.0396
  437MOL0     C57570   3.634   9.571   3.612 -0.0842 -0.3091 -1.5904
  437MOL0     C57571   3.661   9.700   3.643  1.0533  0.0941  0.5078
  437MOL0     C57572   3.624   9.792   3.748 -0.0995  0.1071  0.0896
  437MOL0     C57573   3.466   9.817   3.745  0.4247 -0.6645  0.7999
  437MOL0     C57574   3.401   9.848   3.604  0.3493 -0.2759  1.0479
  437MOL0     C57575   3.273   9.920   3.606  0.0737 -0.9259 -1.1645
  437MOL0     O57576   3.229   9.938   3.473  0.1479 -0.2693  0.4813
  437MOL0     C57577   3.094   9.911   3.456  0.0481  0.4375 -0.2909
  437MOL0     C57578   3.061   9.814   3.366 -0.1319 -0.4396 -0.1249
  437MOL0     C57579   2.926   9.763   3.368 -0.7410  0.0814 -0.4711
  437MOL0     C57580   2.829   9.816   3.456 -0.6277 -0.4297 -0.7340
  437MOL0     C57581   2.707   9.733   3.484  0.1230 -0.3833 -0.6356
  437MOL0     O57582   2.686   9.602   3.437  0.0030  0.4378 -0.9661
  437MOL0     C57583   2.591   9.519   3.496  0.6748  0.2883  0.2135
  437MOL0     C57584   2.618   9.401   3.560 -0.2278  0.8117 -0.0496
  437MOL0     C57585   2.526   9.312   3.612  0.0146  0.0510 -0.5079
  437MOL0     C57586   2.386   9.351   3.611  0.6485 -0.7792 -0.7469
  437MOL0     O57587   2.277   9.272   3.646 -0.2824  0.3410 -0.3516
  437MOL0     C57588   2.309   9.214   3.777  0.4760  0.4499 -0.2894
  437MOL0     C57589   2.223   9.086   3.780 -0.4309 -0.9267 -0.7931
  437MOL0     C57590   2.261   8.971   3.674  1.6038  0.6487 -0.5845
  437MOL0     C57591   2.168   8.845   3.691  0.2130 -0.5814 -0.4791
  437MOL0     C57592   2.181   8.781   3.828  0.9944 -0.1312  0.3638
  437MOL0     C57593   2.086   8.666   3.844  0.4032  0.0047  0.3886
  437MOL0     C57594   1.935   8.721   3.844 -0.0520  0.4588  1.1181
  437MOL0     C57595   1.891   8.812   3.958 -0.2067 -0.1647  0.7912
  437MOL0    Cl57596   1.873   8.726   4.120 -0.4159  0.3912 -0.0327
  437MOL0     C57597   2.360   9.476   3.552  0.1100 -0.4010 -0.0746
  437MOL0     C57598   2.452   9.556   3.487  0.2100 -0.1514  0.4603
  437MOL0     O57599   2.619   9.799   3.550 -0.0198  0.2559  0.5836
  437MOL0     C57600   2.863   9.924   3.528 -0.2901 -0.4679  0.4243
  437MOL0     C57601   2.996   9.965   3.539 -0.2141  0.4220 -0.3198
  437MOL0     N57602   3.747   9.749   3.545 -0.6661  0.6857 -0.1274
  437MOL0     N57603   3.761   9.647   3.459 -0.3946  0.1242  0.9040
  437MOL0     C57604   2.740   9.211   2.964 -0.4928  0.3406  0.1373
  437MOL0     C57605   2.756   9.141   2.840 -0.5275 -0.7762  0.6377
  437MOL0     C57606   2.982   8.976   2.484 -0.0811  0.0997  0.4868
  437MOL0     C57607   3.092   8.975   2.395 -0.2392 -0.2550 -0.0690
  437MOL0     C57608   3.098   8.877   2.281  0.0244 -0.1511 -0.0206
  437MOL0     C57609   2.986   8.801   2.251 -0.4564 -0.9685 -0.6111
  437MOL0     O57610   2.964   8.719   2.145 -0.0829  0.1442 -0.3529
  437MOL0     C57611   3.078   8.633   2.108  0.6805  0.5843  0.0777
  437MOL0     C57612   3.047   8.543   1.988 -0.1662  0.3009 -0.8122
  437MOL0     C57613   2.963   8.610   1.872  0.8386  1.1012 -0.3749
  437MOL0     C57614   2.839   8.533   1.860  0.9725  0.2906  0.2594
  437MOL0     C57615   2.772   8.564   1.731  0.3275  0.1302  0.3057
  437MOL0     C57616   2.715   8.595   1.630  0.3424 -0.2690 -0.7659
  437MOL0     C57617   2.875   8.814   2.341 -0.1020  0.1034 -0.7276
  437MOL0     C57618   2.868   8.907   2.447 -0.2011 -0.1411  0.2079
  437MOL0     H57619   3.102   9.088   2.852 -1.1153 -1.5214 -3.0968
  437MOL0     H57620   3.085   9.208   3.054 -0.7153 -2.2599  0.3485
  437MOL0     H57621   2.859   9.479   3.250 -2.0188 -1.5894  1.0480
  437MOL0     H57622   2.979   9.415   3.145  1.1220  2.3939  2.4651
  437MOL0     H57623   2.905   9.289   3.424 -0.1860  3.2168  2.4809
  437MOL0     H57624   2.972   9.429   3.427  0.8325 -1.0963  1.8574
  437MOL0     H57625   3.166   9.357   3.281  3.0783 -0.5603  2.9709
  437MOL0     H57626   3.118   9.193   3.277  1.2995  0.0632 -0.4581
  437MOL0     H57627   3.170   9.343   3.545  0.1575 -1.3055  0.9517
  437MOL0     H57628   3.193   9.165   3.505 -0.2959 -0.9683 -1.9488
  437MOL0     H57629   3.411   9.246   3.384  0.9815  0.6762  0.1251
  437MOL0     H57630   3.408   9.267   3.546  0.9012 -2.1700 -0.4598
  437MOL0     H57631   3.369   9.525   3.497 -1.3423 -1.6113  0.9940
  437MOL0     H57632   3.308   9.483   3.344 -0.4176  1.3697  0.8863
  437MOL0     H57633   3.502   9.405   3.256 -1.3358  1.7170 -1.9169
  437MOL0     H57634   3.525   9.569   3.300  0.7239 -0.5214 -1.5241
  437MOL0     H57635   3.718   9.383   3.339 -0.1350  1.7529 -1.2506
  437MOL0     H57636   3.623   9.336   3.480 -0.7867  0.6741  0.3988
  437MOL0     H57637   3.582   9.508   3.684 -3.5070  3.6681 -0.1340
  437MOL0     H57638   3.676   9.888   3.750  2.9335 -1.4419  0.5837
  437MOL0     H57639   3.650   9.741   3.841 -1.7069 -5.0400 -1.9536
  437MOL0     H57640   3.454   9.904   3.811  1.6014  0.6250 -0.5977
  437MOL0     H57641   3.413   9.728   3.780  2.9654 -2.4908  0.2102
  437MOL0     H57642   3.477   9.917   3.567 -0.5414  1.0303  1.5831
  437MOL0     H57643   3.393   9.752   3.553 -1.3862  0.1500  0.4591
  437MOL0     H57644   3.294  10.020   3.646 -3.0244 -0.3663 -0.6824
  437MOL0     H57645   3.205   9.865   3.671 -1.7369  0.1782 -2.0548
  437MOL0     H57646   3.133   9.782   3.291 -0.6044 -1.5247 -0.1238
  437MOL0     H57647   2.901   9.673   3.311 -2.2337 -1.3448  2.2324
  437MOL0     H57648   2.725   9.382   3.555 -0.4201 -0.0282 -1.8699
  437MOL0     H57649   2.543   9.212   3.650  2.2385 -0.5427 -2.7794
  437MOL0     H57650   2.276   9.289   3.850  0.5268  1.5646 -1.3717
  437MOL0     H57651   2.414   9.190   3.799  0.1386 -0.8320 -0.0278
  437MOL0     H57652   2.117   9.111   3.768 -0.5169 -1.5487 -1.4338
  437MOL0     H57653   2.224   9.043   3.881 -2.7508 -2.3620 -1.2805
  437MOL0     H57654   2.362   8.931   3.690  0.7926 -1.3972 -0.2459
  437MOL0     H57655   2.253   9.010   3.573  1.0569 -2.1131 -1.7177
  437MOL0     H57656   2.067   8.878   3.667  0.4078 -0.9330 -1.8276
  437MOL0     H57657   2.206   8.780   3.611 -1.4114 -1.8420 -0.2759
  437MOL0     H57658   2.168   8.853   3.909  1.6430 -1.1886  1.4264
  437MOL0     H57659   2.278   8.731   3.835  1.1226  0.3617  2.7744
  437MOL0     H57660   2.111   8.625   3.943  4.2913  4.4396  1.6132
  437MOL0     H57661   2.095   8.592   3.765 -0.0895  0.8497 -0.4774
  437MOL0     H57662   1.904   8.772   3.752 -1.7692 -1.4313  0.5633
  437MOL0     H57663   1.865   8.637   3.835  0.7864 -0.1418 -0.2950
  437MOL0     H57664   1.795   8.849   3.921 -1.7980 -0.2412  4.4066
  437MOL0     H57665   1.954   8.901   3.966  0.7595 -0.6527 -0.9487
  437MOL0     H57666   2.264   9.526   3.564  1.2393  1.5295  1.6771
  437MOL0     H57667   2.413   9.655   3.465  2.7004  1.4370  2.5463
  437MOL0     H57668   2.794   9.970   3.599 -0.9630  0.2883 -0.6916
  437MOL0     H57669   3.023  10.024   3.626  2.8513 -1.4230  0.1366
  437MOL0     H57670   2.649   9.263   2.990  0.4084  3.6032 -2.5620
  437MOL0     H57671   2.672   9.127   2.772  0.5873  4.2898 -2.4028
  437MOL0     H57672   3.174   9.044   2.413  0.4744 -1.3339  0.9683
  437MOL0     H57673   3.194   8.878   2.231  0.4119  2.9197  0.5968
  437MOL0     H57674   3.118   8.580   2.195  0.3922 -3.6903 -2.0802
  437MOL0     H57675   3.156   8.697   2.066  0.8177 -0.0408 -0.6545
  437MOL0     H57676   3.141   8.515   1.939 -0.5998  2.7955 -3.3290
  437MOL0     H57677   2.998   8.454   2.028 -1.1118  2.1976  2.6720
  437MOL0     H57678   3.026   8.610   1.783  1.4333 -0.0354  0.0377
  437MOL0     H57679   2.936   8.716   1.877 -1.2616  1.1999 -5.9044
  437MOL0     H57680   2.863   8.426   1.866  2.8339  0.5622 -1.3219
  437MOL0     H57681   2.768   8.562   1.938 -1.6267  0.4572 -1.9976
  437MOL0     H57682   2.660   8.634   1.547  2.1964  0.9674 -1.4519
  437MOL0     H57683   2.791   8.748   2.322 -0.1521 -0.5851  1.5627
  437MOL0     H57684   2.775   8.923   2.500 -0.4667 -0.0791 -0.2636
  438MOL0     O57685   7.780   7.003   7.795  0.8168  0.1659 -0.0416
  438MOL0     C57686   7.702   7.097   7.817 -0.6918  0.4746 -0.1995
  438MOL0     O57687   7.674   7.201   7.731 -0.2643  0.2723 -0.4121
  438MOL0     C57688   7.691   7.187   7.597  0.6983  0.6335 -0.4278
  438MOL0     C57689   7.825   7.193   7.551  0.2756 -1.3791 -0.1269
  438MOL0     C57690   7.850   7.170   7.427  0.3238  1.0508 -0.1528
  438MOL0     C57691   7.745   7.144   7.335 -0.7146  0.9896 -0.0080
  438MOL0     O57692   7.765   7.155   7.206  0.4834  0.0086  0.8079
  438MOL0     C57693   7.867   7.248   7.157 -0.2069  0.5402  0.5299
  438MOL0     C57694   7.841   7.290   7.012  0.5882  0.2346  0.8636
  438MOL0     C57695   7.705   7.352   7.010  0.0866  0.7175 -0.0200
  438MOL0     C57696   7.678   7.428   6.879  0.2140 -0.2273  0.2900
  438MOL0     C57697   7.561   7.530   6.890  0.1250  0.6686  0.1497
  438MOL0     C57698   7.605   7.650   6.967 -0.1423 -0.0777 -0.4087
  438MOL0     C57699   7.541   7.777   6.945  0.2476  0.3314  0.5710
  438MOL0     C57700   7.411   7.802   7.016  0.1789 -0.0379  0.5225
  438MOL0     N57701   7.308   7.884   6.950  0.8101 -0.2779  0.7159
  438MOL0     C57702   7.308   8.026   6.950 -0.5790 -0.0920 -0.8999
  438MOL0     C57703   7.184   8.053   6.938 -0.3458  0.0994  0.1974
  438MOL0     C57704   7.149   8.199   6.963  0.4870 -0.1948 -0.4540
  438MOL0     C57705   7.117   8.274   6.838 -0.5568 -0.0003 -0.5348
  438MOL0     C57706   6.978   8.246   6.779 -0.2759 -0.0306 -0.5326
  438MOL0     C57707   6.953   8.313   6.635 -0.2832  0.0631 -0.0529
  438MOL0     O57708   6.918   8.205   6.544 -0.2249  0.1474 -0.9472
  438MOL0     C57709   7.012   8.145   6.460  0.3222 -0.2580  0.1965
  438MOL0     C57710   7.152   8.163   6.479  0.0577  1.2548  0.0628
  438MOL0     C57711   7.247   8.095   6.400 -0.1973  0.0372 -0.3519
  438MOL0     C57712   7.201   8.007   6.298 -1.1282 -1.2463  0.8377
  438MOL0     C57713   7.302   7.944   6.203  0.3141  0.2109 -0.0800
  438MOL0     O57714   7.247   7.851   6.112 -0.4169 -0.0287 -0.1971
  438MOL0     C57715   7.337   7.768   6.046 -0.1523  0.4354 -0.3480
  438MOL0     C57716   7.410   7.671   6.115 -0.4162 -1.0355  0.1923
  438MOL0     C57717   7.479   7.571   6.054 -0.1156 -0.8774  0.3753
  438MOL0     C57718   7.490   7.554   5.914  0.1044 -0.2816  0.2982
  438MOL0     O57719   7.573   7.453   5.862  0.2114 -0.7477  0.2369
  438MOL0     C57720   7.582   7.445   5.721  0.3417 -0.4055 -0.0357
  438MOL0     C57721   7.638   7.309   5.692 -0.2483  0.5172 -0.7910
  438MOL0     C57722   7.792   7.294   5.724  0.9911 -0.7592  0.3513
  438MOL0     C57723   7.866   7.169   5.676 -0.7761 -0.1814  0.0699
  438MOL0     C57724   8.018   7.206   5.659  0.4456  0.3578 -0.8688
  438MOL0     C57725   8.085   7.081   5.592 -0.3811 -1.3153  0.2370
  438MOL0     C57726   8.235   7.103   5.577 -0.1165 -0.0595  1.0538
  438MOL0     C57727   8.282   7.003   5.470 -0.8308  0.0608 -0.1621
  438MOL0    Cl57728   8.451   6.969   5.483  0.1208  0.3190 -0.3831
  438MOL0     C57729   7.433   7.662   5.835 -0.0884 -0.4278 -0.3141
  438MOL0     C57730   7.358   7.770   5.904 -0.0482  0.4390  0.4088
  438MOL0     O57731   7.420   7.968   6.214 -0.5639 -0.3773 -0.1752
  438MOL0     C57732   7.071   8.004   6.274 -0.5280 -0.5109 -0.7303
  438MOL0     C57733   6.976   8.069   6.351  1.1666 -0.8585  0.2643
  438MOL0     N57734   7.104   7.947   6.909  0.5928 -0.1837  0.5293
  438MOL0     N57735   7.177   7.846   6.914 -1.0636  0.0003  0.2774
  438MOL0     C57736   7.603   7.144   7.379 -0.2591  1.1277 -0.5046
  438MOL0     C57737   7.582   7.173   7.511  0.8154  0.2624 -0.2128
  438MOL0     C57738   7.664   7.115   7.958 -0.9569 -0.6003 -0.2723
  438MOL0     C57739   7.564   7.208   7.997 -0.3192  1.2061  0.1001
  438MOL0     C57740   7.537   7.214   8.133  0.2993 -0.1835 -0.7632
  438MOL0     C57741   7.591   7.131   8.228 -0.1238  0.8943 -0.5010
  438MOL0     O57742   7.534   7.137   8.357 -0.5803 -0.8063  0.0990
  438MOL0     C57743   7.580   7.048   8.463  0.2589 -1.0366 -0.0648
  438MOL0     C57744   7.506   7.078   8.593 -0.3548  0.4050  0.4516
  438MOL0     C57745   7.361   7.018   8.604 -0.4872  0.0807 -0.8074
  438MOL0     C57746   7.355   6.874   8.662  1.0953 -0.0590 -0.0788
  438MOL0     C57747   7.423   6.779   8.572 -0.6526  0.1714 -0.2376
  438MOL0     C57748   7.469   6.702   8.480  1.2676 -0.2895 -0.2353
  438MOL0     C57749   7.699   7.041   8.192 -0.4546  0.1186 -1.4535
  438MOL0     C57750   7.730   7.035   8.056  0.3375 -0.1611 -0.3089
  438MOL0     H57751   7.911   7.207   7.616  0.5651 -2.0426 -0.3609
  438MOL0     H57752   7.956   7.179   7.406  1.2158  0.6559  3.5315
  438MOL0     H57753   7.967   7.205   7.158 -1.3527 -2.5697 -1.5443
  438MOL0     H57754   7.872   7.336   7.221  1.5817  0.6693  0.2379
  438MOL0     H57755   7.849   7.213   6.935  0.7574 -0.5788  1.6786
  438MOL0     H57756   7.910   7.366   6.975  0.7399 -0.7791 -1.0266
  438MOL0     H57757   7.704   7.428   7.088 -3.2161  1.0126 -0.2063
  438MOL0     H57758   7.630   7.277   7.034  1.3050 -0.3595  0.5383
  438MOL0     H57759   7.769   7.483   6.855 -0.3820  2.0759  2.7623
  438MOL0     H57760   7.667   7.354   6.800  1.4031  1.7149 -1.7978
  438MOL0     H57761   7.480   7.477   6.941  1.7573 -1.4588  0.6600
  438MOL0     H57762   7.536   7.547   6.785  3.9946  2.4947 -0.6399
  438MOL0     H57763   7.701   7.667   6.917 -0.1646  0.9164 -0.1329
  438MOL0     H57764   7.617   7.645   7.075 -1.9908  1.6095 -0.0662
  438MOL0     H57765   7.624   7.849   6.955  0.4059  0.5454 -1.7779
  438MOL0     H57766   7.517   7.788   6.839 -3.2057 -0.9875  1.0901
  438MOL0     H57767   7.423   7.833   7.120 -3.6532 -1.0993  1.4268
  438MOL0     H57768   7.388   7.695   7.019  3.0012 -0.7403  4.1161
  438MOL0     H57769   7.392   8.085   6.983 -0.5243 -1.3502  1.3618
  438MOL0     H57770   7.242   8.237   7.008  1.8092 -3.6589  0.0786
  438MOL0     H57771   7.068   8.201   7.037  0.7031 -3.5951  0.0329
  438MOL0     H57772   7.205   8.264   6.773  0.0495 -2.8152  0.5830
  438MOL0     H57773   7.124   8.377   6.872  1.3443 -0.6707  1.3436
  438MOL0     H57774   6.962   8.139   6.762 -0.7298 -0.3698  1.6555
  438MOL0     H57775   6.911   8.285   6.856  1.7557  3.9589 -0.5101
  438MOL0     H57776   7.038   8.374   6.602  1.1401 -1.1477  1.2015
  438MOL0     H57777   6.869   8.382   6.639  0.2126  0.8558 -2.1489
  438MOL0     H57778   7.185   8.214   6.569  2.4887 -0.0578 -0.0131
  438MOL0     H57779   7.350   8.094   6.434 -0.2486  0.0657 -0.1940
  438MOL0     H57780   7.408   7.670   6.224 -0.1042 -3.9024  0.2499
  438MOL0     H57781   7.540   7.504   6.114 -1.7264 -0.2531  2.8717
  438MOL0     H57782   7.657   7.521   5.695  0.4601 -0.5126 -0.0107
  438MOL0     H57783   7.484   7.453   5.673  0.2116 -2.4836 -0.2392
  438MOL0     H57784   7.633   7.296   5.584  2.2068 -0.1057 -0.8882
  438MOL0     H57785   7.583   7.240   5.758  0.1971  1.9842  1.2249
  438MOL0     H57786   7.820   7.306   5.829 -3.0925 -1.1345  1.6724
  438MOL0     H57787   7.831   7.370   5.656 -0.8906 -0.4256 -0.4144
  438MOL0     H57788   7.853   7.086   5.747 -1.1783  0.0356  0.2527
  438MOL0     H57789   7.832   7.130   5.580  1.2482  1.2372 -1.2875
  438MOL0     H57790   8.069   7.234   5.752 -1.6580  0.2620  0.3956
  438MOL0     H57791   8.014   7.293   5.593 -4.2045  2.9016  2.1808
  438MOL0     H57792   8.031   7.056   5.500 -0.0426  1.5413 -0.8309
  438MOL0     H57793   8.073   7.002   5.667 -2.1436 -0.7828  0.5679
  438MOL0     H57794   8.265   7.204   5.546 -0.8238 -0.1647 -0.0005
  438MOL0     H57795   8.279   7.089   5.677  3.3583 -0.8408 -0.4448
  438MOL0     H57796   8.253   7.032   5.368 -0.1844  1.2883 -0.0083
  438MOL0     H57797   8.228   6.910   5.488  2.2312 -1.2039  3.9964
  438MOL0     H57798   7.451   7.683   5.730  0.2480  1.7466  0.1287
  438MOL0     H57799   7.309   7.847   5.844 -1.2754 -1.0867 -0.6375
  438MOL0     H57800   7.038   7.941   6.192 -3.7140  2.0061 -1.5889
  438MOL0     H57801   6.870   8.071   6.325  0.3146 -0.7273  3.3727
  438MOL0     H57802   7.524   7.116   7.310 -3.4373  1.7012  2.6345
  438MOL0     H57803   7.478   7.177   7.543  0.4912 -0.3171 -1.1613
  438MOL0     H57804   7.494   7.257   7.931 -2.5385 -2.3737 -0.4893
  438MOL0     H57805   7.455   7.280   8.156 -0.1563 -0.4989 -1.4540
  438MOL0     H57806   7.688   7.044   8.475  0.7467 -0.6344 -3.4112
  438MOL0     H57807   7.550   6.949   8.427 -1.9875  0.0223 -1.3527
  438MOL0     H57808   7.554   7.053   8.688  1.0429  0.3297 -0.2557
  438MOL0     H57809   7.499   7.187   8.598  0.2840  0.6012 -1.7455
  438MOL0     H57810   7.314   7.021   8.506  1.1054  2.2730 -1.5598
  438MOL0     H57811   7.307   7.089   8.668  0.6113  0.0292  0.2315
  438MOL0     H57812   7.389   6.874   8.766 -0.2594  0.1802  0.3885
  438MOL0     H57813   7.249   6.846   8.660  1.2841 -0.7807 -0.7446
  438MOL0     H57814   7.477   6.644   8.390 -1.2634 -0.3418 -0.5025
  438MOL0     H57815   7.741   6.967   8.260 -0.6970 -2.5764 -4.0371
  438MOL0     H57816   7.814   6.970   8.031  0.8606 -1.2426  3.5576
  439MOL0     O57817   8.879   3.083   1.047  0.5249  0.0671  0.8508
  439MOL0     C57818   8.889   3.175   1.132  0.1953  0.1783 -0.3536
  439MOL0     O57819   8.787   3.215   1.218  0.7110 -0.1277 -0.2393
  439MOL0     C57820   8.656   3.168   1.195 -0.9117  0.0640 -0.2055
  439MOL0     C57821   8.576   3.127   1.300  0.4536 -1.1407  0.1957
  439MOL0     C57822   8.444   3.097   1.279  0.1181  0.2390  0.1752
  439MOL0     C57823   8.387   3.092   1.156 -0.0714  0.4578  0.9764
  439MOL0     O57824   8.256   3.052   1.158  0.0552  0.6043  0.2063
  439MOL0     C57825   8.209   3.020   1.033  0.5378 -0.1559 -0.6222
  439MOL0     C57826   8.054   2.985   1.050 -0.4646  0.2476 -0.2842
  439MOL0     C57827   8.014   2.856   0.971  0.3996 -0.2218 -0.2702
  439MOL0     C57828   8.054   2.719   1.034  0.9662  1.0662 -0.5721
  439MOL0     C57829   7.940   2.655   1.129 -0.2701 -0.0559  1.1806
  439MOL0     C57830   7.907   2.739   1.255 -1.1745  0.2581 -1.7167
  439MOL0     C57831   7.830   2.650   1.356  0.8001 -1.1704  0.2856
  439MOL0     C57832   7.675   2.663   1.347  0.3095  0.2104 -0.7507
  439MOL0     N57833   7.627   2.794   1.404  0.2085  0.1614 -0.0332
  439MOL0     C57834   7.665   2.851   1.523  0.2068  0.5181 -1.1806
  439MOL0     C57835   7.622   2.974   1.529  0.7725 -0.6751 -0.1344
  439MOL0     C57836   7.671   3.075   1.618 -0.0496  0.5585 -0.3045
  439MOL0     C57837   7.829   3.086   1.611  0.5490 -0.7672  0.2409
  439MOL0     C57838   7.863   3.125   1.463  0.2472 -0.4424 -0.6713
  439MOL0     C57839   8.002   3.168   1.432  0.5887 -0.0294  0.2136
  439MOL0     O57840   8.090   3.059   1.468  0.2603 -0.8897 -0.2297
  439MOL0     C57841   8.174   3.053   1.579  1.0692  0.3910 -0.0275
  439MOL0     C57842   8.218   3.157   1.649  0.8709 -0.4216 -0.1576
  439MOL0     C57843   8.293   3.145   1.774  0.5609 -0.1481  0.7235
  439MOL0     C57844   8.336   3.028   1.821  1.4341  0.0000 -0.1106
  439MOL0     C57845   8.393   3.012   1.958 -0.0886  0.6475  0.6360
  439MOL0     O57846   8.445   2.889   1.987 -0.2727 -0.0139 -0.4035
  439MOL0     C57847   8.390   2.813   2.085  0.4322 -0.5511  0.4163
  439MOL0     C57848   8.445   2.701   2.101 -0.5626  0.3535 -0.1269
  439MOL0     C57849   8.404   2.607   2.199  0.1740 -1.1533  1.0104
  439MOL0     C57850   8.298   2.630   2.283  0.7050  0.1820 -0.4524
  439MOL0     O57851   8.258   2.540   2.380  0.5037 -0.7072  0.3731
  439MOL0     C57852   8.165   2.443   2.330  0.3674 -0.5219 -0.2586
  439MOL0     C57853   8.227   2.300   2.365  0.2632 -0.7533 -0.2352
  439MOL0     C57854   8.209   2.265   2.512  0.5213  0.1629  0.3003
  439MOL0     C57855   8.261   2.129   2.557  0.8675 -0.5893  0.4891
  439MOL0     C57856   8.257   2.079   2.705  0.3039  1.2575 -0.0972
  439MOL0     C57857   8.115   2.026   2.740  0.2367  1.2861 -0.2037
  439MOL0     C57858   8.121   1.943   2.862  0.3037  0.5708 -0.1566
  439MOL0     C57859   7.984   1.896   2.904 -0.9510  1.7847  0.1959
  439MOL0    Cl57860   7.905   1.791   2.773  0.0051 -0.0107  0.0931
  439MOL0     C57861   8.229   2.755   2.269  0.0557 -0.4196 -0.4714
  439MOL0     C57862   8.277   2.846   2.167  0.3631 -0.8131  0.2904
  439MOL0     O57863   8.396   3.110   2.028 -0.2355  0.2603 -0.0607
  439MOL0     C57864   8.296   2.916   1.735  0.2173 -0.0323 -0.1912
  439MOL0     C57865   8.221   2.928   1.616 -0.4162  0.6440  0.8426
  439MOL0     N57866   7.551   2.990   1.411  0.0988 -0.3833 -0.0273
  439MOL0     N57867   7.538   2.882   1.346 -0.8220  0.3483 -0.4209
  439MOL0     C57868   8.475   3.108   1.049  0.9944  0.2693 -0.4536
  439MOL0     C57869   8.609   3.149   1.067  0.0987 -0.0746  0.8080
  439MOL0     C57870   9.023   3.237   1.140 -0.2232 -0.3414 -0.0800
  439MOL0     C57871   9.129   3.162   1.087  0.1475 -0.5256  1.5914
  439MOL0     C57872   9.260   3.212   1.091 -0.6652  0.7202  0.4128
  439MOL0     C57873   9.288   3.330   1.165  0.4971  0.7142 -0.0798
  439MOL0     O57874   9.408   3.387   1.185  0.1410  0.1336  1.1753
  439MOL0     C57875   9.506   3.355   1.084 -0.1839  0.6356  0.4867
  439MOL0     C57876   9.641   3.412   1.126 -0.1434 -0.9596  0.1463
  439MOL0     C57877   9.635   3.564   1.152  0.0668  0.2599 -0.5451
  439MOL0     C57878   9.599   3.653   1.025  0.3551  0.1944 -0.0685
  439MOL0     C57879   9.704   3.659   0.926 -0.3630  0.5810 -0.3435
  439MOL0     C57880   9.778   3.661   0.833 -0.9300  0.1651 -0.6773
  439MOL0     C57881   9.189   3.392   1.235 -0.9369 -0.2733 -0.0765
  439MOL0     C57882   9.056   3.354   1.224  0.2398 -0.0802 -0.1413
  439MOL0     H57883   8.594   3.136   1.406 -2.0328 -2.9786  0.8667
  439MOL0     H57884   8.388   3.072   1.368  1.3381  0.1551  0.9469
  439MOL0     H57885   8.266   2.938   0.989 -2.8550 -1.1720 -3.6245
  439MOL0     H57886   8.207   3.104   0.962  2.2124 -0.8900 -1.6006
  439MOL0     H57887   7.999   3.073   1.017  0.8935  0.9306 -0.8368
  439MOL0     H57888   8.023   2.989   1.155 -0.3847 -3.6233  0.0536
  439MOL0     H57889   8.067   2.864   0.876  2.6089 -0.9984  0.8362
  439MOL0     H57890   7.905   2.857   0.960 -0.1060 -0.9299  3.3635
  439MOL0     H57891   8.089   2.653   0.954 -1.0736 -1.3097  0.3547
  439MOL0     H57892   8.141   2.736   1.099 -0.9141 -1.7306  3.0680
  439MOL0     H57893   7.973   2.558   1.167 -0.3742 -0.3510  0.5286
  439MOL0     H57894   7.860   2.624   1.061  1.7859  2.5214 -2.8030
  439MOL0     H57895   7.848   2.824   1.222 -1.4264  0.1436 -1.5625
  439MOL0     H57896   8.000   2.778   1.298 -1.3189 -0.8530 -0.3075
  439MOL0     H57897   7.857   2.546   1.335  2.6985 -0.2510 -2.3792
  439MOL0     H57898   7.871   2.678   1.454  0.3551 -0.9605  0.4143
  439MOL0     H57899   7.631   2.586   1.411  0.9987  1.1492  0.9098
  439MOL0     H57900   7.647   2.653   1.242  1.2039 -0.7895 -0.9097
  439MOL0     H57901   7.730   2.800   1.594 -0.7627  0.6766 -0.1533
  439MOL0     H57902   7.635   3.062   1.720  1.1919  1.2420  0.2447
  439MOL0     H57903   7.623   3.168   1.585 -2.5058 -1.1186 -1.7844
  439MOL0     H57904   7.870   2.988   1.633  1.2051 -0.8182 -1.0971
  439MOL0     H57905   7.871   3.157   1.682 -0.1829  1.4330 -1.3840
  439MOL0     H57906   7.857   3.036   1.400 -1.1906 -0.3234 -0.7392
  439MOL0     H57907   7.792   3.197   1.421  0.7347 -0.2744 -1.2275
  439MOL0     H57908   8.017   3.265   1.480 -0.1221  0.0834  0.2222
  439MOL0     H57909   8.002   3.188   1.324 -0.7757 -0.5386  0.1065
  439MOL0     H57910   8.181   3.253   1.616  2.1128  0.5169  1.0684
  439MOL0     H57911   8.320   3.240   1.818  1.5056  0.6179 -1.3557
  439MOL0     H57912   8.526   2.663   2.039 -2.0249 -0.4695 -1.5982
  439MOL0     H57913   8.460   2.514   2.189  2.8146  0.3702  0.5547
  439MOL0     H57914   8.169   2.466   2.223 -0.9014  1.6791  0.1008
  439MOL0     H57915   8.058   2.457   2.347 -0.1586  2.2300 -4.3525
  439MOL0     H57916   8.333   2.304   2.336 -0.0336  0.4410 -1.2320
  439MOL0     H57917   8.175   2.222   2.309 -0.0631  0.8274 -2.2675
  439MOL0     H57918   8.101   2.268   2.530  0.3489 -1.9367 -0.1321
  439MOL0     H57919   8.263   2.347   2.561 -0.7790  2.0181 -1.2233
  439MOL0     H57920   8.223   2.057   2.484  1.1675  0.4689 -0.7624
  439MOL0     H57921   8.368   2.131   2.532  0.3642 -0.6532 -1.8858
  439MOL0     H57922   8.287   2.155   2.778  0.6932  1.4281 -0.4359
  439MOL0     H57923   8.325   1.995   2.720 -2.8624 -1.0807  2.6211
  439MOL0     H57924   8.079   1.956   2.664 -0.0139  0.7692  0.3858
  439MOL0     H57925   8.049   2.110   2.761  1.4203  1.2746  4.8248
  439MOL0     H57926   8.175   1.852   2.833 -2.0682 -0.5779 -1.2100
  439MOL0     H57927   8.168   2.000   2.943  1.3640  0.6475 -0.8109
  439MOL0     H57928   7.926   1.986   2.923 -2.4371  0.9569 -0.2381
  439MOL0     H57929   7.992   1.835   2.995 -0.6939  1.9560  0.2876
  439MOL0     H57930   8.145   2.794   2.325  1.3872  0.7279  0.8170
  439MOL0     H57931   8.222   2.934   2.136  1.7751  0.0183  0.0839
  439MOL0     H57932   8.335   2.818   1.762 -3.1982 -1.5338 -0.0400
  439MOL0     H57933   8.201   2.843   1.551  2.5136  0.1273  0.4568
  439MOL0     H57934   8.442   3.091   0.947  1.9319 -0.8166 -0.5896
  439MOL0     H57935   8.680   3.157   0.985  0.5484 -0.1342  1.1878
  439MOL0     H57936   9.104   3.072   1.031 -1.2726 -1.3817  3.4825
  439MOL0     H57937   9.337   3.160   1.035 -1.6549  0.1973 -0.4856
  439MOL0     H57938   9.473   3.390   0.985 -0.7845  1.0118  0.8158
  439MOL0     H57939   9.523   3.248   1.074  0.7305  0.6969  1.2427
  439MOL0     H57940   9.674   3.374   1.223 -0.1623 -1.9581 -0.2306
  439MOL0     H57941   9.721   3.379   1.060  2.8605  2.2390  1.8499
  439MOL0     H57942   9.728   3.592   1.203  0.7750 -1.1740 -0.9879
  439MOL0     H57943   9.562   3.569   1.233  2.0456 -0.8734  1.4096
  439MOL0     H57944   9.509   3.604   0.987 -1.1672  0.4403  2.9744
  439MOL0     H57945   9.570   3.748   1.071 -4.3639 -1.5678  1.2039
  439MOL0     H57946   9.845   3.673   0.751 -1.6651  0.3340 -1.2705
  439MOL0     H57947   9.213   3.475   1.300  0.6765 -0.9094  0.2047
  439MOL0     H57948   8.982   3.427   1.255 -0.7313 -1.1579  0.1605
  440MOL0     O57949  11.160  10.831   7.216 -0.2212 -0.6441 -0.6132
  440MOL0     C57950  11.080  10.926   7.212  1.1537  0.0887  0.2151
  440MOL0     O57951  10.945  10.909   7.161 -0.4408  0.1661  0.2410
  440MOL0     C57952  10.930  10.773   7.129  0.1938  0.5053  1.4065
  440MOL0     C57953  10.863  10.687   7.214 -0.1070 -0.1885 -0.0105
  440MOL0     C57954  10.857  10.553   7.195 -0.3408  0.1192 -0.0977
  440MOL0     C57955  10.902  10.495   7.078 -0.1051 -0.0318  0.0664
  440MOL0     O57956  10.894  10.361   7.064 -0.3063  0.0001 -0.5099
  440MOL0     C57957  10.863  10.311   6.936 -0.6673  0.8746  0.0960
  440MOL0     C57958  10.762  10.200   6.948  0.1661  0.0216 -0.5127
  440MOL0     C57959  10.780  10.111   7.075 -0.2171  0.1738 -0.0485
  440MOL0     C57960  10.693   9.983   7.037 -0.4565  0.3551  0.1002
  440MOL0     C57961  10.623   9.919   7.153  0.3009 -0.2753  0.1548
  440MOL0     C57962  10.724   9.842   7.239  0.0276 -0.0080 -1.0086
  440MOL0     C57963  10.644   9.740   7.341  0.0216  0.1317 -0.2864
  440MOL0     C57964  10.563   9.817   7.453 -0.0714 -0.2829  0.6965
  440MOL0     N57965  10.642   9.886   7.556 -0.4865 -0.8202 -0.2164
  440MOL0     C57966  10.704  10.009   7.543 -0.2212 -0.2472 -0.3188
  440MOL0     C57967  10.756  10.047   7.672  0.6828  1.4996  0.2467
  440MOL0     C57968  10.834  10.171   7.705  0.6861  0.5538  0.0840
  440MOL0     C57969  10.934  10.212   7.593  1.0740  0.4325 -0.2787
  440MOL0     C57970  11.003  10.349   7.630 -0.0949  0.9345 -0.3254
  440MOL0     C57971  11.102  10.389   7.513 -0.7993  0.2150 -0.8445
  440MOL0     O57972  11.213  10.294   7.500 -0.3388  0.2500  0.7582
  440MOL0     C57973  11.246  10.258   7.376 -0.1413 -0.3625  0.4347
  440MOL0     C57974  11.350  10.173   7.363 -0.3536  0.2549  0.0282
  440MOL0     C57975  11.404  10.128   7.238 -0.9049  0.8276  0.4166
  440MOL0     C57976  11.337  10.169   7.119 -0.0819  0.7430  0.2578
  440MOL0     C57977  11.381  10.115   6.990 -0.1805 -1.2761  0.0558
  440MOL0     O57978  11.470  10.007   6.997  0.1674  0.1622 -0.4121
  440MOL0     C57979  11.515   9.938   6.881  0.9352  0.5343 -0.6129
  440MOL0     C57980  11.539   9.805   6.886  0.0964 -0.0566  0.3537
  440MOL0     C57981  11.572   9.732   6.769 -0.8012 -0.1502  0.1365
  440MOL0     C57982  11.596   9.801   6.649 -0.2289  0.4043  0.7277
  440MOL0     O57983  11.644   9.733   6.545 -0.3812 -0.2238  0.7655
  440MOL0     C57984  11.773   9.658   6.558 -0.4393  0.7406  1.0463
  440MOL0     C57985  11.869   9.695   6.450 -0.3841 -0.5086  0.5908
  440MOL0     C57986  11.800   9.706   6.311  0.2250  1.0783 -0.1285
  440MOL0     C57987  11.776   9.577   6.227 -0.2530 -0.5563  0.1475
  440MOL0     C57988  11.729   9.610   6.087 -0.4128  0.5942 -0.3584
  440MOL0     C57989  11.698   9.492   6.007  0.1077  0.4886  0.1889
  440MOL0     C57990  11.622   9.518   5.868  0.4643  0.1769 -0.0854
  440MOL0     C57991  11.528   9.396   5.832  1.3580 -0.0090 -0.0551
  440MOL0    Cl57992  11.362   9.433   5.892  0.0485 -0.0577  0.0344
  440MOL0     C57993  11.582   9.937   6.640  0.6280  0.0548  0.0640
  440MOL0     C57994  11.552  10.008   6.759 -0.5767  0.2509  0.2416
  440MOL0     O57995  11.339  10.174   6.890 -0.2118 -0.3791 -0.8293
  440MOL0     C57996  11.246  10.264   7.124  0.1515  0.3662 -1.0137
  440MOL0     C57997  11.202  10.310   7.250 -0.0199 -0.1086 -0.0952
  440MOL0     N57998  10.731   9.943   7.752  0.1891  0.1988 -0.2052
  440MOL0     N57999  10.658   9.855   7.683 -0.2646 -0.5335 -0.0642
  440MOL0     C58000  10.961  10.577   6.977 -0.1221  0.4017  0.0627
  440MOL0     C58001  10.968  10.712   7.004 -1.0104  0.0469 -0.0666
  440MOL0     C58002  11.110  11.060   7.264 -0.2581 -0.7179  0.7228
  440MOL0     C58003  11.011  11.142   7.315 -1.3369 -0.9463  0.4128
  440MOL0     C58004  11.035  11.276   7.358 -0.4762 -0.1228  0.1499
  440MOL0     C58005  11.165  11.335   7.347 -0.5283 -0.2974  0.2892
  440MOL0     O58006  11.182  11.474   7.381 -0.5356  0.5751 -0.3099
  440MOL0     C58007  11.308  11.539   7.382 -0.3558  1.0212 -0.2765
  440MOL0     C58008  11.310  11.676   7.432  0.8892  0.3242 -0.0109
  440MOL0     C58009  11.225  11.762   7.349 -0.3541 -0.3431 -0.0020
  440MOL0     C58010  11.246  11.911   7.368 -0.7616  0.8569 -0.5817
  440MOL0     C58011  11.258  11.955   7.507 -0.3304 -0.7270 -0.6053
  440MOL0     C58012  11.273  11.985   7.626 -0.3944  0.6854 -0.7191
  440MOL0     C58013  11.267  11.254   7.299 -0.1939  0.7698 -0.8353
  440MOL0     C58014  11.243  11.120   7.260 -0.2832  0.7846  0.1268
  440MOL0     H58015  10.819  10.732   7.303 -1.5524  0.3095 -0.9391
  440MOL0     H58016  10.819  10.491   7.276  0.9408 -1.4260 -0.6416
  440MOL0     H58017  10.951  10.263   6.891 -2.2319 -1.4194 -0.7045
  440MOL0     H58018  10.820  10.382   6.865  0.5156  2.7419  1.1725
  440MOL0     H58019  10.776  10.127   6.867  0.4533 -0.7104  0.1815
  440MOL0     H58020  10.657  10.229   6.941 -0.1855 -1.1571 -0.3121
  440MOL0     H58021  10.744  10.152   7.170  0.1704 -1.1923  0.7052
  440MOL0     H58022  10.883  10.076   7.088 -0.1834 -0.8285 -2.4574
  440MOL0     H58023  10.620  10.009   6.960 -2.3500 -3.2558  0.4446
  440MOL0     H58024  10.757   9.905   6.994  1.7358  2.8706 -1.5753
  440MOL0     H58025  10.557   9.842   7.112  1.3041 -1.9634  1.5394
  440MOL0     H58026  10.576  10.001   7.208  0.7592  0.7368 -0.9079
  440MOL0     H58027  10.798   9.907   7.287 -0.0126  0.7445 -1.9396
  440MOL0     H58028  10.800   9.785   7.187  2.3586 -3.2155  4.9175
  440MOL0     H58029  10.586   9.666   7.285 -1.8789 -0.2272  2.0232
  440MOL0     H58030  10.714   9.684   7.403  1.3085  0.2825 -1.5616
  440MOL0     H58031  10.493   9.750   7.504 -1.1630  2.2722  2.7609
  440MOL0     H58032  10.491   9.883   7.405  1.4003  2.9605  2.5835
  440MOL0     H58033  10.708  10.067   7.451 -3.2656 -0.3879 -0.6492
  440MOL0     H58034  10.883  10.165   7.803  1.6537  2.1038 -0.2688
  440MOL0     H58035  10.759  10.248   7.722  2.4274  1.7722  3.0916
  440MOL0     H58036  10.873  10.225   7.503  1.2357 -2.2624 -0.8525
  440MOL0     H58037  11.006  10.131   7.579  1.4136  0.6401  0.2117
  440MOL0     H58038  10.925  10.424   7.644 -0.3617  0.3384  1.5929
  440MOL0     H58039  11.062  10.345   7.722  0.4003  2.1285 -0.5677
  440MOL0     H58040  11.136  10.492   7.529 -3.4247  0.7938  1.7481
  440MOL0     H58041  11.041  10.376   7.423 -0.7669 -0.7003 -0.7409
  440MOL0     H58042  11.391  10.134   7.456  0.5193 -0.9651 -0.8286
  440MOL0     H58043  11.483  10.054   7.231 -0.3768  1.3309  0.8714
  440MOL0     H58044  11.498   9.743   6.966 -3.3259  1.3821 -0.0973
  440MOL0     H58045  11.596   9.628   6.785 -0.9498 -0.0595  0.9820
  440MOL0     H58046  11.748   9.552   6.555 -1.0086  0.8427  1.9559
  440MOL0     H58047  11.825   9.665   6.654 -1.5334  1.0203  1.6260
  440MOL0     H58048  11.958   9.634   6.435  1.0842  1.3493  1.4224
  440MOL0     H58049  11.916   9.791   6.470  0.3801  0.4840 -4.5519
  440MOL0     H58050  11.855   9.777   6.248  1.8025  0.7721  0.8277
  440MOL0     H58051  11.698   9.741   6.326 -0.5030 -1.8171  2.5926
  440MOL0     H58052  11.875   9.532   6.213  0.5414  1.1482 -0.0374
  440MOL0     H58053  11.702   9.508   6.270 -0.1155 -1.5515 -1.1548
  440MOL0     H58054  11.797   9.672   6.026 -0.7521  1.1468 -0.1779
  440MOL0     H58055  11.635   9.664   6.088 -0.2456  1.0118  2.8313
  440MOL0     H58056  11.625   9.429   6.059  4.0433 -4.2965  0.6678
  440MOL0     H58057  11.789   9.436   5.984 -0.0796  0.1994  0.1415
  440MOL0     H58058  11.561   9.607   5.883  0.0887 -0.6107  4.3228
  440MOL0     H58059  11.687   9.540   5.783  2.3696 -2.1980  0.6452
  440MOL0     H58060  11.541   9.299   5.881 -1.6315 -0.6264 -0.2573
  440MOL0     H58061  11.515   9.389   5.724  0.0084  0.1401  0.0841
  440MOL0     H58062  11.606   9.999   6.554  2.0323 -1.1335 -0.4355
  440MOL0     H58063  11.555  10.116   6.763  0.2474  0.2195  3.3306
  440MOL0     H58064  11.202  10.307   7.035  0.2333  1.4353 -0.5591
  440MOL0     H58065  11.126  10.385   7.231  0.8642  0.2572 -2.5048
  440MOL0     H58066  11.000  10.528   6.888  0.9002  0.9830  0.1749
  440MOL0     H58067  11.024  10.777   6.938 -0.4165 -0.4799 -0.0868
  440MOL0     H58068  10.907  11.110   7.316 -2.4433  1.7868 -3.3765
  440MOL0     H58069  10.949  11.340   7.377 -0.8027 -0.3181 -0.6259
  440MOL0     H58070  11.345  11.540   7.278  1.1332 -1.9037  0.1118
  440MOL0     H58071  11.383  11.482   7.437 -0.1437 -0.5200 -2.0476
  440MOL0     H58072  11.263  11.681   7.531  1.0485 -1.0036  0.1425
  440MOL0     H58073  11.412  11.715   7.428  1.5601 -1.4660 -1.1219
  440MOL0     H58074  11.120  11.746   7.374 -0.8323  0.1015 -1.6590
  440MOL0     H58075  11.251  11.755   7.243 -1.7060 -2.4976 -0.2481
  440MOL0     H58076  11.329  11.949   7.307 -1.2124  2.4625 -0.2618
  440MOL0     H58077  11.155  11.963   7.335 -0.6738  1.7676  0.5675
  440MOL0     H58078  11.293  12.009   7.729 -1.2082  0.0978 -0.4161
  440MOL0     H58079  11.368  11.289   7.284  1.5042 -3.0016  0.4282
  440MOL0     H58080  11.320  11.049   7.234  2.5476  3.2295  1.2901
  441MOL0     O58081  10.396   1.726   7.108 -0.3914 -0.0874 -0.5914
  441MOL0     C58082  10.346   1.687   7.005 -0.5553  0.0304  0.2433
  441MOL0     O58083  10.407   1.591   6.912  0.4405  0.0354 -0.7910
  441MOL0     C58084  10.528   1.530   6.929 -0.2728 -1.1554  0.0757
  441MOL0     C58085  10.618   1.549   6.827 -0.6933  0.1776  0.3872
  441MOL0     C58086  10.750   1.501   6.844  0.8563 -0.3654 -0.0791
  441MOL0     C58087  10.787   1.409   6.943  0.5652 -0.6474  0.5680
  441MOL0     O58088  10.919   1.376   6.951  0.4414 -0.3182  0.0388
  441MOL0     C58089  10.976   1.338   7.078 -0.6403  0.5285  0.3584
  441MOL0     C58090  11.129   1.297   7.057 -0.1080 -0.1517 -0.1170
  441MOL0     C58091  11.181   1.251   7.194 -0.2443 -0.4388  0.4621
  441MOL0     C58092  11.337   1.261   7.209  0.7622 -0.1578 -0.5111
  441MOL0     C58093  11.376   1.243   7.359  0.6732 -0.2146 -0.3415
  441MOL0     C58094  11.408   1.105   7.405 -0.7675  0.1852  0.5408
  441MOL0     C58095  11.437   1.099   7.563 -0.6591 -0.4417  0.0703
  441MOL0     C58096  11.466   0.949   7.601  0.0192 -0.6900  0.1883
  441MOL0     N58097  11.471   0.907   7.743  0.2400 -0.1713 -0.2630
  441MOL0     C58098  11.547   0.969   7.831 -0.1657  0.4087 -0.6567
  441MOL0     C58099  11.518   0.921   7.952  0.5166  0.5369  0.0071
  441MOL0     C58100  11.581   0.954   8.088  0.2815  0.0084  0.2240
  441MOL0     C58101  11.729   0.926   8.075  0.2947 -0.0549  0.0468
  441MOL0     C58102  11.756   0.772   8.057 -0.6101  0.8111 -0.3630
  441MOL0     C58103  11.678   0.686   8.156  0.6550  0.1975 -0.1168
  441MOL0     O58104  11.719   0.543   8.155  0.0509  0.1157 -0.6484
  441MOL0     C58105  11.689   0.455   8.055 -0.1873  0.3793 -0.7098
  441MOL0     C58106  11.594   0.490   7.960  0.3450  0.0630 -0.3503
  441MOL0     C58107  11.556   0.385   7.870  0.2453 -1.5291  0.1684
  441MOL0     C58108  11.620   0.266   7.857  0.8757  0.8572  0.7999
  441MOL0     C58109  11.582   0.169   7.748  1.5360  0.1062 -0.1351
  441MOL0     O58110  11.664   0.065   7.751  0.4389  0.7281  0.2400
  441MOL0     C58111  11.673  -0.015   7.635  0.4638 -0.2809  1.4600
  441MOL0     C58112  11.731   0.033   7.515 -0.1345 -1.2478 -0.2485
  441MOL0     C58113  11.756  -0.057   7.415  0.1729 -0.7144  0.4323
  441MOL0     C58114  11.729  -0.193   7.426  0.1035  0.6996 -1.0036
  441MOL0     O58115  11.740  -0.282   7.318  0.2942  0.3553  0.6290
  441MOL0     C58116  11.729  -0.236   7.179 -0.7623 -0.4131 -0.2003
  441MOL0     C58117  11.872  -0.195   7.123  0.3276 -0.3963 -0.6565
  441MOL0     C58118  11.861  -0.085   7.012 -0.2366  0.2763 -1.5009
  441MOL0     C58119  11.866   0.064   7.066  0.0137  0.2872  1.4253
  441MOL0     C58120  11.875   0.160   6.947  0.1422 -0.2167 -0.3920
  441MOL0     C58121  11.910   0.305   6.992  0.3226  0.4765  0.8317
  441MOL0     C58122  11.881   0.398   6.860 -0.6509  0.1909 -0.6624
  441MOL0     C58123  11.945   0.531   6.873  0.0270  0.4113 -0.2019
  441MOL0    Cl58124  12.125   0.518   6.854 -0.2453 -0.3293  0.0876
  441MOL0     C58125  11.661  -0.234   7.545 -0.0761 -0.1222  0.1786
  441MOL0     C58126  11.639  -0.149   7.646  0.9176  0.6519  0.2497
  441MOL0     O58127  11.480   0.180   7.676 -0.0033 -0.2278  0.5582
  441MOL0     C58128  11.715   0.230   7.955  0.2587  0.6014 -0.0014
  441MOL0     C58129  11.747   0.323   8.056 -0.5405  0.7907 -0.1730
  441MOL0     N58130  11.419   0.828   7.926  0.2589  0.1399 -0.1857
  441MOL0     N58131  11.386   0.820   7.808  0.3334  0.1132 -0.2564
  441MOL0     C58132  10.687   1.387   7.049 -0.2870  0.3419 -0.1911
  441MOL0     C58133  10.551   1.442   7.035 -0.7699  0.9467 -0.0692
  441MOL0     C58134  10.211   1.728   6.961 -0.0922  0.2016  0.3955
  441MOL0     C58135  10.136   1.816   7.042  0.5642  0.2671 -0.4685
  441MOL0     C58136  10.002   1.854   7.011  0.2947  0.0055 -1.3653
  441MOL0     C58137   9.943   1.798   6.897 -1.0159 -0.4411 -0.3328
  441MOL0     O58138   9.814   1.828   6.879 -0.1801  0.5298 -0.1716
  441MOL0     C58139   9.729   1.769   6.783  0.4461 -0.2055 -0.7343
  441MOL0     C58140   9.590   1.833   6.811 -0.0279 -0.5510 -0.8399
  441MOL0     C58141   9.490   1.774   6.713  0.0502 -0.1070 -0.2366
  441MOL0     C58142   9.344   1.801   6.758 -0.0971  0.1080 -0.1857
  441MOL0     C58143   9.295   1.932   6.760  0.0741  0.8285  1.4151
  441MOL0     C58144   9.273   2.049   6.761  0.0418 -0.3037 -0.2991
  441MOL0     C58145  10.012   1.710   6.815  0.5004  0.0223  0.2807
  441MOL0     C58146  10.141   1.672   6.858 -0.2445  0.4046 -0.5173
  441MOL0     H58147  10.598   1.609   6.738  0.7003  2.7314  1.6708
  441MOL0     H58148  10.826   1.538   6.776  0.3591  1.6949  0.4351
  441MOL0     H58149  10.921   1.249   7.110  0.2433 -0.6843 -1.3158
  441MOL0     H58150  10.963   1.419   7.150 -0.2745 -1.8686  3.3283
  441MOL0     H58151  11.183   1.384   7.020 -0.2550 -0.9449 -2.3134
  441MOL0     H58152  11.145   1.220   6.981  5.3660 -2.0046  2.3123
  441MOL0     H58153  11.150   1.151   7.225 -2.6141  0.8005  2.4321
  441MOL0     H58154  11.149   1.325   7.268  2.4310  1.4027 -0.0664
  441MOL0     H58155  11.399   1.197   7.145 -0.4421 -0.7885 -1.0638
  441MOL0     H58156  11.367   1.362   7.177 -2.0448  0.9428  0.0373
  441MOL0     H58157  11.290   1.264   7.424  0.6044 -0.7584 -0.2484
  441MOL0     H58158  11.464   1.304   7.381  0.3368 -0.1874  1.0329
  441MOL0     H58159  11.491   1.073   7.341 -2.0177 -3.2240  0.3921
  441MOL0     H58160  11.333   1.032   7.374 -0.2066  0.1017 -0.6763
  441MOL0     H58161  11.515   1.175   7.579 -1.6497  1.8648 -4.5476
  441MOL0     H58162  11.355   1.133   7.627 -0.3135  0.3477  0.1149
  441MOL0     H58163  11.570   0.930   7.573 -0.2517 -0.2860 -1.1564
  441MOL0     H58164  11.412   0.870   7.547  1.8641 -1.3478 -0.7534
  441MOL0     H58165  11.611   1.057   7.824 -2.9335  2.9408  2.4261
  441MOL0     H58166  11.534   0.902   8.171 -0.1675 -0.1607 -0.1343
  441MOL0     H58167  11.552   1.056   8.115  0.2123 -0.5898  2.6104
  441MOL0     H58168  11.776   0.956   8.170 -1.7996  2.0139  0.5182
  441MOL0     H58169  11.769   0.988   7.995  1.5385  0.6721  1.1854
  441MOL0     H58170  11.737   0.744   7.952  1.4273 -2.0280 -0.0961
  441MOL0     H58171  11.864   0.761   8.069 -0.7441 -1.4682 -0.7364
  441MOL0     H58172  11.569   0.692   8.150  0.5042  0.1066  1.8804
  441MOL0     H58173  11.719   0.732   8.246 -1.1296  2.4009 -0.3430
  441MOL0     H58174  11.546   0.588   7.958 -2.8858 -1.3852 -0.2400
  441MOL0     H58175  11.483   0.422   7.798  0.7641  1.2882  0.9700
  441MOL0     H58176  11.759   0.137   7.500 -0.2541 -0.8058  2.2986
  441MOL0     H58177  11.815  -0.029   7.329  2.0947 -0.3349  1.7888
  441MOL0     H58178  11.659  -0.151   7.175 -2.2836 -1.6522 -1.0021
  441MOL0     H58179  11.684  -0.309   7.111 -1.5443  0.1519 -0.3038
  441MOL0     H58180  11.920  -0.285   7.083  1.6193 -0.1776  0.3351
  441MOL0     H58181  11.936  -0.163   7.206  1.0053 -0.1517 -1.2727
  441MOL0     H58182  11.771  -0.103   6.951 -0.9299  0.5345 -0.5842
  441MOL0     H58183  11.952  -0.107   6.956 -1.1897  0.0930 -3.0311
  441MOL0     H58184  11.786   0.092   7.136 -0.3953  1.1937  0.6148
  441MOL0     H58185  11.965   0.057   7.110  2.5648  7.4150 -1.7545
  441MOL0     H58186  11.780   0.165   6.892  0.0265 -0.0141 -0.1759
  441MOL0     H58187  11.961   0.132   6.885  3.5369  1.2376  3.2164
  441MOL0     H58188  12.014   0.319   7.021  0.0628  1.7383  1.2210
  441MOL0     H58189  11.850   0.335   7.079  1.5576  4.3114  0.5361
  441MOL0     H58190  11.923   0.342   6.776 -0.6395 -0.2679 -0.3570
  441MOL0     H58191  11.776   0.408   6.835 -0.4486  0.0218 -1.6025
  441MOL0     H58192  11.927   0.579   6.970  0.8863  0.7029 -0.1748
  441MOL0     H58193  11.898   0.596   6.798  1.2586  2.1117  0.4372
  441MOL0     H58194  11.630  -0.338   7.554  0.6851 -0.5517 -1.6548
  441MOL0     H58195  11.590  -0.204   7.725  1.5913 -3.9078 -2.1595
  441MOL0     H58196  11.756   0.130   7.950 -0.6249  0.2392 -0.3232
  441MOL0     H58197  11.811   0.311   8.143 -1.4113 -1.5382  0.2175
  441MOL0     H58198  10.719   1.339   7.141  4.2749 -0.2338 -1.8333
  441MOL0     H58199  10.480   1.416   7.113 -1.5641  2.6539 -0.1989
  441MOL0     H58200  10.181   1.862   7.129 -0.2712 -1.6445  1.0329
  441MOL0     H58201   9.938   1.914   7.075  3.2149  1.3209  0.5233
  441MOL0     H58202   9.725   1.661   6.798 -0.7449 -0.3152 -1.6763
  441MOL0     H58203   9.765   1.786   6.682  2.3869 -0.2560 -0.0870
  441MOL0     H58204   9.567   1.819   6.917 -3.6709 -0.2575 -1.4705
  441MOL0     H58205   9.584   1.939   6.786 -2.4441 -0.0204  1.5803
  441MOL0     H58206   9.510   1.666   6.716  0.3961 -0.0246  0.6676
  441MOL0     H58207   9.513   1.811   6.613  1.4405 -1.6265 -0.5342
  441MOL0     H58208   9.279   1.749   6.687 -0.3282  1.1163 -0.7270
  441MOL0     H58209   9.332   1.758   6.858  0.8712 -1.3643 -0.6720
  441MOL0     H58210   9.234   2.147   6.779  1.7386  0.3578 -0.0523
  441MOL0     H58211   9.959   1.671   6.729  1.5641  1.2775 -0.9955
  441MOL0     H58212  10.184   1.582   6.815 -0.9319 -0.2108  0.0480
  442MOL0     O58213  10.725   7.261   0.361 -0.0478 -0.3518  0.2194
  442MOL0     C58214  10.802   7.233   0.272 -1.0840 -0.0376 -0.2934
  442MOL0     O58215  10.913   7.306   0.232  0.3411 -0.3147 -0.3030
  442MOL0     C58216  10.947   7.425   0.287  0.4776 -0.1125  0.2178
  442MOL0     C58217  10.954   7.535   0.204 -0.8005 -0.7900  0.5292
  442MOL0     C58218  10.979   7.665   0.261 -0.1526 -0.7745  0.2277
  442MOL0     C58219  11.009   7.678   0.390 -0.4384  0.2008 -0.5003
  442MOL0     O58220  11.028   7.802   0.432  0.4821 -0.3744 -0.2980
  442MOL0     C58221  11.006   7.828   0.574 -1.0220 -0.7260 -0.1213
  442MOL0     C58222  11.038   7.979   0.587  0.6318  0.1812  0.6256
  442MOL0     C58223  10.985   8.031   0.727 -0.2502 -0.5443  0.2508
  442MOL0     C58224  11.059   7.965   0.844 -0.7657 -0.0660 -0.5444
  442MOL0     C58225  11.061   8.043   0.973  0.2565 -1.5115  0.7204
  442MOL0     C58226  11.064   7.970   1.107 -0.1006 -0.5890  0.7936
  442MOL0     C58227  11.149   7.845   1.087 -0.7586  0.1117  0.0396
  442MOL0     C58228  11.184   7.789   1.225  0.2196 -0.2912  0.8229
  442MOL0     N58229  11.295   7.871   1.285  0.2805  0.4059  0.7198
  442MOL0     C58230  11.429   7.836   1.310 -0.5882 -0.7974  1.1763
  442MOL0     C58231  11.464   7.928   1.400  0.5981 -1.0521 -0.5274
  442MOL0     C58232  11.597   7.952   1.464 -0.2007  0.0860 -0.2504
  442MOL0     C58233  11.599   7.922   1.613  0.4060  0.6012 -0.2565
  442MOL0     C58234  11.736   7.952   1.669  0.2603  0.0458 -0.0178
  442MOL0     C58235  11.741   7.936   1.817 -0.0016  0.7346  0.5526
  442MOL0     O58236  11.866   7.980   1.863  0.3667  0.3607 -0.1125
  442MOL0     C58237  11.882   7.986   1.993  0.5224  0.0798  0.2333
  442MOL0     C58238  12.002   8.043   2.032  0.0843  0.2534  0.0939
  442MOL0     C58239  12.027   8.080   2.160  0.7144 -0.0829  0.7244
  442MOL0     C58240  11.939   8.049   2.263  0.3269  0.0515  0.2968
  442MOL0     C58241  11.967   8.100   2.397  0.5221  0.0274  0.8860
  442MOL0     O58242  12.088   8.138   2.429 -0.4984 -0.6565  0.2210
  442MOL0     C58243  12.127   8.155   2.557 -0.3494 -0.0780  0.2636
  442MOL0     C58244  12.061   8.233   2.648 -0.5809  0.2277 -1.3531
  442MOL0     C58245  12.096   8.236   2.781 -0.2403 -0.1215  0.7821
  442MOL0     C58246  12.215   8.176   2.821 -0.1761  0.3393  0.2095
  442MOL0     O58247  12.257   8.194   2.954 -0.0682  0.1805  0.2640
  442MOL0     C58248  12.184   8.118   3.051  0.3286  1.1902  0.2767
  442MOL0     C58249  12.245   8.118   3.190 -0.0427 -0.0420 -0.3334
  442MOL0     C58250  12.233   8.261   3.256 -0.9697  0.4726  0.1582
  442MOL0     C58251  12.305   8.250   3.387 -0.6305 -0.8313 -0.8094
  442MOL0     C58252  12.290   8.389   3.459  0.1333  0.2555 -0.3391
  442MOL0     C58253  12.351   8.398   3.598 -0.4857  0.5158 -0.5367
  442MOL0     C58254  12.322   8.533   3.653 -0.7845 -0.5705 -0.2666
  442MOL0     C58255  12.427   8.573   3.757  0.0199 -1.0662 -0.0686
  442MOL0    Cl58256  12.580   8.651   3.707  0.1214 -0.3194  0.5428
  442MOL0     C58257  12.296   8.102   2.729  0.3520 -0.6761  0.9236
  442MOL0     C58258  12.248   8.097   2.603 -0.5962  0.7183 -0.4440
  442MOL0     O58259  11.881   8.068   2.486  0.0735 -0.1400 -0.2863
  442MOL0     C58260  11.817   7.994   2.223  1.2862  0.8749 -0.7751
  442MOL0     C58261  11.788   7.947   2.095 -0.2542  0.1672 -0.5068
  442MOL0     N58262  11.367   8.020   1.426 -0.3930  0.0740  0.4990
  442MOL0     N58263  11.269   7.980   1.357  0.8615  0.1806  1.2892
  442MOL0     C58264  11.010   7.566   0.473 -0.9924  0.1282 -0.5965
  442MOL0     C58265  10.970   7.439   0.427 -0.4602  0.5656 -0.2975
  442MOL0     C58266  10.785   7.106   0.197 -0.1559 -0.8933 -0.3981
  442MOL0     C58267  10.884   7.052   0.112 -0.0590 -1.0159 -0.8372
  442MOL0     C58268  10.854   6.940   0.028 -0.5105  0.0425 -0.1915
  442MOL0     C58269  10.731   6.871   0.031  0.4473 -0.2746  0.0371
  442MOL0     O58270  10.719   6.768  -0.055  0.0330  0.0541  0.0210
  442MOL0     C58271  10.592   6.695  -0.051  0.7527 -0.7050  0.0033
  442MOL0     C58272  10.598   6.595  -0.156 -0.2038  0.4369  0.1108
  442MOL0     C58273  10.693   6.472  -0.119  0.9577 -0.2029  0.0828
  442MOL0     C58274  10.722   6.368  -0.228 -0.4891 -0.5659  0.2028
  442MOL0     C58275  10.848   6.311  -0.194 -0.1508 -0.0632  0.2254
  442MOL0     C58276  10.945   6.248  -0.175 -0.7574 -0.5045 -0.5518
  442MOL0     C58277  10.637   6.922   0.115 -0.1479  0.1860  0.1530
  442MOL0     C58278  10.667   7.033   0.192  1.1846  0.0126 -0.4290
  442MOL0     H58279  10.912   7.527   0.104 -1.7385 -1.8469  0.9927
  442MOL0     H58280  10.972   7.747   0.190 -0.0864 -0.7849  0.2082
  442MOL0     H58281  11.084   7.782   0.634  0.3924  0.0939 -1.2694
  442MOL0     H58282  10.899   7.810   0.591 -1.8335  2.9809 -0.3052
  442MOL0     H58283  10.986   8.029   0.504  1.3653 -0.8692 -0.4978
  442MOL0     H58284  11.145   7.997   0.576  0.7994 -1.6150 -1.6185
  442MOL0     H58285  10.877   8.017   0.739 -0.8504  0.7810 -2.6994
  442MOL0     H58286  10.997   8.139   0.732  0.1016 -0.6490  2.6811
  442MOL0     H58287  11.017   7.866   0.863 -0.1897 -0.7228 -2.4419
  442MOL0     H58288  11.159   7.947   0.803  1.0817 -0.5618  3.6530
  442MOL0     H58289  10.969   8.101   0.979  0.8469 -0.3862 -0.6115
  442MOL0     H58290  11.143   8.115   0.964 -2.2418  1.2242 -3.3564
  442MOL0     H58291  10.962   7.936   1.128  0.0749 -0.7587  1.4147
  442MOL0     H58292  11.098   8.042   1.183  1.6702 -0.4878 -0.0474
  442MOL0     H58293  11.103   7.760   1.036 -0.8140  1.1681 -1.7638
  442MOL0     H58294  11.246   7.857   1.037 -0.2695 -1.2955  0.5897
  442MOL0     H58295  11.226   7.688   1.223  0.1700 -0.3047  0.3152
  442MOL0     H58296  11.099   7.779   1.294  0.8941  1.2584  1.9205
  442MOL0     H58297  11.482   7.744   1.287 -0.2948 -1.0009  2.5768
  442MOL0     H58298  11.634   8.055   1.461 -0.8154  0.3206 -0.0070
  442MOL0     H58299  11.666   7.887   1.410 -1.4586 -0.3959 -1.3333
  442MOL0     H58300  11.599   7.814   1.634  3.3578  0.9668  2.5346
  442MOL0     H58301  11.515   7.970   1.664 -0.6621 -2.0975  0.7403
  442MOL0     H58302  11.811   7.883   1.630  1.0573  1.8145 -1.7755
  442MOL0     H58303  11.779   8.049   1.642  2.8415 -1.2202 -0.7828
  442MOL0     H58304  11.741   7.829   1.844 -0.5296  0.2347 -1.2882
  442MOL0     H58305  11.648   7.975   1.859 -1.7972 -0.3426 -2.1432
  442MOL0     H58306  12.070   8.072   1.952 -2.2708  1.1592 -1.7087
  442MOL0     H58307  12.124   8.129   2.161  0.6228  0.1071  0.4083
  442MOL0     H58308  11.970   8.287   2.623 -1.1555  0.9751  1.8195
  442MOL0     H58309  12.042   8.294   2.856  0.4540 -0.1960  1.3508
  442MOL0     H58310  12.180   8.018   3.006 -3.0704  3.4540 -5.5677
  442MOL0     H58311  12.084   8.157   3.068  0.4887  0.5952  3.1401
  442MOL0     H58312  12.350   8.089   3.182  0.0227  0.5507 -2.3235
  442MOL0     H58313  12.196   8.043   3.252  3.4208 -2.5521 -0.3471
  442MOL0     H58314  12.131   8.291   3.282 -0.3608 -0.0763  3.6931
  442MOL0     H58315  12.291   8.332   3.196  0.9567 -0.8438  0.3559
  442MOL0     H58316  12.262   8.171   3.450 -0.9966 -1.1599 -1.4545
  442MOL0     H58317  12.408   8.228   3.361 -0.9928 -0.5164 -2.6566
  442MOL0     H58318  12.183   8.410   3.470  0.8105  2.5833  3.1968
  442MOL0     H58319  12.324   8.457   3.379 -2.4001 -0.0586 -1.8077
  442MOL0     H58320  12.458   8.375   3.596 -0.0645  2.4152 -2.1029
  442MOL0     H58321  12.309   8.321   3.665  1.9428 -1.3674 -1.0300
  442MOL0     H58322  12.321   8.607   3.572  1.1921  1.3457  1.3377
  442MOL0     H58323  12.223   8.542   3.698 -0.3618 -0.4885  0.6614
  442MOL0     H58324  12.452   8.479   3.806  0.0557 -1.9613 -1.7347
  442MOL0     H58325  12.378   8.635   3.833  0.1774 -0.3636 -0.5314
  442MOL0     H58326  12.386   8.058   2.770  0.2749 -0.3119  1.5020
  442MOL0     H58327  12.292   8.030   2.529  0.2763  0.3795  0.3502
  442MOL0     H58328  11.740   7.965   2.294  3.1201 -0.3964  0.8290
  442MOL0     H58329  11.691   7.907   2.069  0.0618 -0.8075 -0.2248
  442MOL0     H58330  11.030   7.579   0.579  0.1343  0.1519 -0.8052
  442MOL0     H58331  10.957   7.354   0.494  2.7484  0.8358  0.8154
  442MOL0     H58332  10.981   7.098   0.094  0.0315  0.2095  2.2178
  442MOL0     H58333  10.933   6.915  -0.042 -0.9133  1.8525 -1.3730
  442MOL0     H58334  10.506   6.760  -0.066  1.0915 -0.2881 -0.1666
  442MOL0     H58335  10.569   6.646   0.045  0.0053  0.1736  0.2821
  442MOL0     H58336  10.497   6.554  -0.172 -0.3238  0.0774  1.6328
  442MOL0     H58337  10.642   6.633  -0.249  0.5144 -0.6811 -0.0188
  442MOL0     H58338  10.651   6.418  -0.033 -1.4999  0.2145 -0.7777
  442MOL0     H58339  10.789   6.510  -0.084  0.7460  1.1550 -0.7599
  442MOL0     H58340  10.639   6.296  -0.230 -0.2235 -0.9856  2.0344
  442MOL0     H58341  10.724   6.427  -0.320 -1.0097 -1.5972 -0.4828
  442MOL0     H58342  11.031   6.189  -0.152  1.6622  3.3302  1.0733
  442MOL0     H58343  10.539   6.878   0.130  0.0700 -1.7872 -3.0638
  442MOL0     H58344  10.587   7.060   0.260  1.2008 -0.9853  0.0022
  443MOL0     O58345   7.818  10.472   4.970  0.2402 -0.9760  0.2723
  443MOL0     C58346   7.726  10.405   5.016 -0.4675 -0.2891  0.1645
  443MOL0     O58347   7.612  10.460   5.068  0.1661 -0.3249  0.1200
  443MOL0     C58348   7.583  10.591   5.088 -0.6845 -0.0384  0.4654
  443MOL0     C58349   7.450  10.627   5.062  0.0816 -0.1763 -0.5186
  443MOL0     C58350   7.412  10.757   5.100 -0.4322 -0.6697  0.1774
  443MOL0     C58351   7.499  10.851   5.169 -0.0005  0.1970  0.4838
  443MOL0     O58352   7.461  10.977   5.206  0.3196 -0.4892 -0.4108
  443MOL0     C58353   7.394  11.057   5.102 -0.4779  0.5083 -0.4304
  443MOL0     C58354   7.456  11.189   5.112  0.7907 -0.2505 -0.0393
  443MOL0     C58355   7.383  11.303   5.035 -0.8027 -0.4042 -0.1699
  443MOL0     C58356   7.469  11.429   5.026 -0.3557 -0.2456  0.3428
  443MOL0     C58357   7.409  11.542   4.932 -0.0251  1.0590 -0.4701
  443MOL0     C58358   7.502  11.667   4.938 -0.2580  0.9129 -1.0656
  443MOL0     C58359   7.599  11.674   4.831 -0.6436 -0.6641 -0.7540
  443MOL0     C58360   7.677  11.795   4.861 -0.4452 -0.5326  0.5356
  443MOL0     N58361   7.635  11.911   4.782 -0.6237 -0.3188 -0.0560
  443MOL0     C58362   7.605  11.928   4.643 -0.0148  0.1893  0.8446
  443MOL0     C58363   7.612  12.057   4.627  0.5641 -0.6954 -0.4631
  443MOL0     C58364   7.566  12.128   4.499 -0.3825 -0.7205  0.2492
  443MOL0     C58365   7.454  12.241   4.517 -0.6746 -0.7556  0.3597
  443MOL0     C58366   7.414  12.304   4.384 -0.2044  0.1098 -0.1086
  443MOL0     C58367   7.292  12.394   4.416 -0.6709 -0.5039  0.6155
  443MOL0     O58368   7.216  12.400   4.288 -0.0948  0.0416  0.4862
  443MOL0     C58369   7.255  12.483   4.186  0.3029  0.2328 -0.1334
  443MOL0     C58370   7.182  12.468   4.072 -0.0717 -0.2270 -0.7587
  443MOL0     C58371   7.191  12.548   3.964  0.3572 -0.6561 -0.2008
  443MOL0     C58372   7.297  12.651   3.968  0.3436  0.1667 -0.1713
  443MOL0     C58373   7.325  12.727   3.845  0.1811  0.6741 -0.6973
  443MOL0     O58374   7.224  12.748   3.755  0.4509 -1.3021  0.0809
  443MOL0     C58375   7.234  12.863   3.672  0.1133  0.8541 -0.4345
  443MOL0     C58376   7.350  12.897   3.602 -0.2041 -0.3727  0.0313
  443MOL0     C58377   7.359  13.016   3.533  0.5294  0.0368 -0.2891
  443MOL0     C58378   7.254  13.104   3.541 -0.1050  0.2312  0.0414
  443MOL0     O58379   7.282  13.224   3.477  0.1141  0.0779 -0.3453
  443MOL0     C58380   7.174  13.320   3.467 -0.5563  0.1195  0.3380
  443MOL0     C58381   7.220  13.421   3.350 -0.2276  0.1136 -0.3676
  443MOL0     C58382   7.244  13.346   3.215 -0.5641  0.4068 -0.0707
  443MOL0     C58383   7.117  13.272   3.165  0.1486 -0.2918 -0.1462
  443MOL0     C58384   7.106  13.262   3.008  0.2099  0.1588 -0.3644
  443MOL0     C58385   7.221  13.194   2.929  0.6494 -0.2381 -0.8286
  443MOL0     C58386   7.179  13.204   2.781 -0.6860 -1.0798  0.3145
  443MOL0     C58387   7.215  13.337   2.715 -0.2994  0.1471 -0.0775
  443MOL0    Cl58388   7.391  13.386   2.722 -0.4685  0.2668  0.1826
  443MOL0     C58389   7.146  13.071   3.621  0.3436 -0.8124 -0.2105
  443MOL0     C58390   7.129  12.951   3.683 -0.9301  0.3602 -0.3953
  443MOL0     O58391   7.438  12.777   3.844  0.3444  0.0607 -0.2325
  443MOL0     C58392   7.371  12.670   4.089  0.8869  0.3645 -0.8430
  443MOL0     C58393   7.345  12.587   4.196 -0.0242 -0.7019 -0.7731
  443MOL0     N58394   7.641  12.121   4.749  0.6191  0.2350  0.6174
  443MOL0     N58395   7.658  12.037   4.831 -0.2770  0.8016 -1.0154
  443MOL0     C58396   7.630  10.805   5.195  0.0411  0.0810 -1.0465
  443MOL0     C58397   7.677  10.680   5.149  0.1226  0.7188 -0.2825
  443MOL0     C58398   7.743  10.259   5.022  0.8071  0.2228 -0.8292
  443MOL0     C58399   7.656  10.188   5.107 -1.1380  0.0175  0.4435
  443MOL0     C58400   7.661  10.048   5.115 -0.1622 -0.2474 -0.4972
  443MOL0     C58401   7.761   9.980   5.039  0.2011  0.0601 -0.1287
  443MOL0     O58402   7.768   9.841   5.037  0.3167 -0.5989  0.0865
  443MOL0     C58403   7.700   9.789   4.919 -0.7940 -0.4253 -0.5699
  443MOL0     C58404   7.659   9.647   4.940  0.4288  1.3811 -0.0019
  443MOL0     C58405   7.623   9.576   4.809 -0.1264 -1.2988  0.9723
  443MOL0     C58406   7.559   9.445   4.811 -0.1414  0.5000 -0.3085
  443MOL0     C58407   7.635   9.347   4.879 -0.2167  0.1915 -0.3479
  443MOL0     C58408   7.702   9.269   4.939 -0.0448 -0.5140  0.9079
  443MOL0     C58409   7.852  10.054   4.964  0.3121  0.1612  0.1214
  443MOL0     C58410   7.840  10.189   4.952  0.1791  0.4862  1.4460
  443MOL0     H58411   7.383  10.551   5.021 -1.6900 -0.7703  3.0645
  443MOL0     H58412   7.312  10.784   5.066 -0.5049 -2.3479 -1.0555
  443MOL0     H58413   7.287  11.058   5.127 -0.3421 -3.2866  0.9884
  443MOL0     H58414   7.411  11.024   4.999 -0.8058 -1.4173  0.0984
  443MOL0     H58415   7.553  11.182   5.062  0.6068  0.6514 -0.5503
  443MOL0     H58416   7.464  11.219   5.217 -0.8737  0.7330 -0.1491
  443MOL0     H58417   7.290  11.327   5.089 -1.1317 -0.3352 -0.7580
  443MOL0     H58418   7.358  11.257   4.939 -1.2802 -2.0746  0.7145
  443MOL0     H58419   7.478  11.466   5.128 -1.1315 -2.3879  1.2375
  443MOL0     H58420   7.563  11.393   4.983 -0.0089 -1.5841  2.1179
  443MOL0     H58421   7.307  11.562   4.967 -1.2081 -3.3580 -0.7161
  443MOL0     H58422   7.398  11.508   4.828 -0.4748 -0.6731  0.1137
  443MOL0     H58423   7.558  11.667   5.032 -0.9512 -0.3381 -0.6243
  443MOL0     H58424   7.437  11.754   4.926 -4.8215 -2.1680 -1.3040
  443MOL0     H58425   7.661  11.584   4.831  1.7805  0.9171 -0.4084
  443MOL0     H58426   7.544  11.674   4.736 -1.3752 -1.3360 -0.3427
  443MOL0     H58427   7.775  11.768   4.820 -1.9152 -1.6389 -2.5208
  443MOL0     H58428   7.693  11.813   4.968 -2.3193 -1.4090  1.0121
  443MOL0     H58429   7.581  11.855   4.566  3.0536 -0.1347  0.0986
  443MOL0     H58430   7.547  12.053   4.422 -0.1675 -0.3447 -0.1728
  443MOL0     H58431   7.651  12.185   4.460 -1.8793  1.2203 -0.3426
  443MOL0     H58432   7.507  12.305   4.589  0.2850 -0.0474 -0.9459
  443MOL0     H58433   7.364  12.194   4.558 -2.4117 -1.1444 -3.4550
  443MOL0     H58434   7.500  12.363   4.349 -1.1693  1.4179 -0.3249
  443MOL0     H58435   7.386  12.230   4.308  0.3356  0.7252 -0.9230
  443MOL0     H58436   7.329  12.491   4.448  2.2217 -0.5045 -2.1778
  443MOL0     H58437   7.227  12.350   4.492  0.3767 -3.5842 -0.1221
  443MOL0     H58438   7.103  12.394   4.063  1.6735 -2.2188 -0.3356
  443MOL0     H58439   7.140  12.529   3.871  3.0391 -0.4633 -1.8147
  443MOL0     H58440   7.435  12.830   3.611 -0.3992 -0.5006  0.9916
  443MOL0     H58441   7.449  13.038   3.477 -0.4033 -0.8624 -2.2091
  443MOL0     H58442   7.163  13.373   3.562 -2.9907  4.5750 -2.1179
  443MOL0     H58443   7.079  13.282   3.428  0.9035 -1.8017 -1.5856
  443MOL0     H58444   7.308  13.481   3.370 -2.7918  3.2332  2.7607
  443MOL0     H58445   7.141  13.494   3.331  0.0792  0.2517 -1.1545
  443MOL0     H58446   7.317  13.266   3.231 -0.2360  0.4156 -1.4070
  443MOL0     H58447   7.283  13.411   3.136 -0.7052  0.6907  0.0959
  443MOL0     H58448   7.117  13.169   3.203  0.7581 -0.3720 -0.3546
  443MOL0     H58449   7.028  13.320   3.208 -0.9166 -2.9451  0.8360
  443MOL0     H58450   7.097  13.370   2.990  2.3745  1.1138  3.1702
  443MOL0     H58451   7.017  13.207   2.976 -0.0627 -0.9001  2.0444
  443MOL0     H58452   7.224  13.087   2.954 -0.8552 -0.4784 -1.5322
  443MOL0     H58453   7.311  13.246   2.962 -0.9172  3.0113 -1.3053
  443MOL0     H58454   7.242  13.133   2.727  2.5521  1.2735  0.7383
  443MOL0     H58455   7.071  13.201   2.761 -1.3810  5.7303  0.5924
  443MOL0     H58456   7.153  13.417   2.757 -4.1712 -0.9555 -3.0584
  443MOL0     H58457   7.176  13.343   2.613  0.9187  0.6993 -0.5285
  443MOL0     H58458   7.067  13.143   3.635  0.9004 -0.3618  0.6875
  443MOL0     H58459   7.037  12.918   3.731 -0.0291 -1.1699  0.3714
  443MOL0     H58460   7.440  12.754   4.097 -1.5511  2.4296  0.1862
  443MOL0     H58461   7.393  12.617   4.289 -0.3097 -1.2770 -0.4332
  443MOL0     H58462   7.706  10.876   5.227 -0.2612  0.3505 -0.9251
  443MOL0     H58463   7.778  10.656   5.182 -0.5429  2.0655  3.1992
  443MOL0     H58464   7.586  10.237   5.173  0.0312 -1.9884  3.4065
  443MOL0     H58465   7.599   9.986   5.180 -0.4339  2.2632  1.8493
  443MOL0     H58466   7.780   9.797   4.846 -3.1467  0.4228 -3.2467
  443MOL0     H58467   7.622   9.858   4.884  0.2215  0.7900 -0.4913
  443MOL0     H58468   7.739   9.594   4.992  2.7431  3.4990 -1.2041
  443MOL0     H58469   7.573   9.641   5.007  1.7279  1.0723  1.6998
  443MOL0     H58470   7.714   9.567   4.749 -0.3079  1.1236  0.2121
  443MOL0     H58471   7.547   9.642   4.767 -1.2298 -1.1875  2.9990
  443MOL0     H58472   7.454   9.451   4.839 -1.0758 -2.2819 -2.6533
  443MOL0     H58473   7.556   9.409   4.707 -0.6939 -3.1094  0.8000
  443MOL0     H58474   7.774   9.197   4.974  1.4295  1.8939  3.2336
  443MOL0     H58475   7.929   9.996   4.914 -0.5660  0.2909 -1.4172
  443MOL0     H58476   7.897  10.243   4.877 -0.1577  1.8665  2.1380
  444MOL0     O58477   5.218   7.159   2.568  1.0824  0.4489 -0.1360
  444MOL0     C58478   5.250   7.270   2.610  0.8138  0.9406 -0.3703
  444MOL0     O58479   5.369   7.325   2.600 -1.3526  0.3526  0.0084
  444MOL0     C58480   5.469   7.256   2.533 -0.5385  0.4317 -0.9567
  444MOL0     C58481   5.475   7.263   2.394 -0.3349 -0.3808  0.0658
  444MOL0     C58482   5.589   7.219   2.327  0.6337 -0.2574  0.0496
  444MOL0     C58483   5.687   7.139   2.394  0.0719 -0.2601  1.0481
  444MOL0     O58484   5.792   7.096   2.316 -0.2712 -0.3197 -0.0867
  444MOL0     C58485   5.916   7.060   2.378  0.1712  1.1430 -0.0492
  444MOL0     C58486   6.002   7.167   2.454 -1.0850 -0.6705 -0.1975
  444MOL0     C58487   6.047   7.279   2.355  0.3043 -0.3599  0.1676
  444MOL0     C58488   5.933   7.373   2.307  0.7645 -0.8801 -0.8780
  444MOL0     C58489   5.865   7.462   2.418  0.6031  0.3089 -0.3619
  444MOL0     C58490   5.788   7.577   2.361 -0.2338  1.4181  0.0141
  444MOL0     C58491   5.706   7.662   2.455 -0.8607 -0.3864  0.0910
  444MOL0     C58492   5.557   7.622   2.478  0.4773  0.1072  0.4146
  444MOL0     N58493   5.481   7.715   2.555 -0.3258 -0.0838 -0.7184
  444MOL0     C58494   5.469   7.856   2.538 -0.0957  0.5581 -0.3817
  444MOL0     C58495   5.396   7.891   2.640  0.1173 -0.1130  0.4735
  444MOL0     C58496   5.320   8.014   2.635  0.1342 -0.2348 -0.2905
  444MOL0     C58497   5.174   7.985   2.608 -0.1212  0.0747  0.4478
  444MOL0     C58498   5.079   8.080   2.683  1.3555 -0.3273  0.3744
  444MOL0     C58499   5.021   8.184   2.590 -0.1711 -0.2915 -0.0645
  444MOL0     O58500   4.877   8.201   2.614  0.3875  1.0276  0.5382
  444MOL0     C58501   4.821   8.323   2.625 -0.6238 -0.1911  0.0703
  444MOL0     C58502   4.884   8.440   2.658  0.6058 -0.1045 -0.2258
  444MOL0     C58503   4.815   8.562   2.642 -0.6464  0.5415 -0.3964
  444MOL0     C58504   4.677   8.569   2.625 -0.2382 -0.3225 -0.0093
  444MOL0     C58505   4.604   8.693   2.610 -0.2693  0.0625  0.1980
  444MOL0     O58506   4.682   8.808   2.634 -0.5947  0.1881 -0.2626
  444MOL0     C58507   4.613   8.924   2.637  0.4583 -0.1756 -0.0791
  444MOL0     C58508   4.613   9.016   2.521  0.4567 -0.1393  0.6250
  444MOL0     C58509   4.527   9.131   2.541 -0.2761 -0.1593  1.1044
  444MOL0     C58510   4.466   9.168   2.664  0.3788  0.2724  0.2603
  444MOL0     O58511   4.387   9.279   2.661  0.2473  0.4902  0.4230
  444MOL0     C58512   4.422   9.360   2.779 -0.1627  0.6223  0.3293
  444MOL0     C58513   4.566   9.410   2.796  0.4415  0.2077  0.7063
  444MOL0     C58514   4.620   9.494   2.683  0.2724 -0.3444 -0.2786
  444MOL0     C58515   4.533   9.613   2.630 -0.1604 -0.8316 -0.7309
  444MOL0     C58516   4.613   9.714   2.563  0.4252 -0.2483  0.3494
  444MOL0     C58517   4.531   9.778   2.451  1.0130  0.8768 -0.7899
  444MOL0     C58518   4.599   9.894   2.389 -0.0903  0.2735 -0.1949
  444MOL0     C58519   4.568  10.031   2.473  0.0409 -0.4040  0.3304
  444MOL0    Cl58520   4.703  10.150   2.429  0.1538  0.0802  0.1013
  444MOL0     C58521   4.455   9.072   2.766 -0.3736  0.0861 -0.7127
  444MOL0     C58522   4.525   8.954   2.750 -0.5543 -0.3284  0.3853
  444MOL0     O58523   4.479   8.685   2.596 -0.1248 -0.5688  0.2327
  444MOL0     C58524   4.607   8.446   2.596 -0.2815 -0.9923  0.3818
  444MOL0     C58525   4.683   8.326   2.591  0.8819  0.0082 -0.0516
  444MOL0     N58526   5.382   7.788   2.726  0.6873  0.2563  0.1209
  444MOL0     N58527   5.430   7.685   2.677  0.7905  0.4459 -0.2082
  444MOL0     C58528   5.673   7.128   2.529  0.1329 -0.6366  0.3546
  444MOL0     C58529   5.567   7.176   2.602  0.2629 -0.1214  0.2160
  444MOL0     C58530   5.140   7.350   2.679  0.3462  0.2537  0.7883
  444MOL0     C58531   5.174   7.463   2.761 -0.2742 -0.2241 -0.5572
  444MOL0     C58532   5.074   7.553   2.801 -0.0797 -0.8474 -0.8194
  444MOL0     C58533   4.944   7.541   2.764 -0.1494  0.0472 -0.2043
  444MOL0     O58534   4.855   7.650   2.787  0.1272  0.2501 -0.1949
  444MOL0     C58535   4.721   7.647   2.738 -0.2303  0.6532  0.5049
  444MOL0     C58536   4.712   7.719   2.604  0.8427 -0.1470  0.1603
  444MOL0     C58537   4.798   7.850   2.588  0.3508  0.1643 -0.3724
  444MOL0     C58538   4.794   7.909   2.448 -0.5032  1.5070 -0.8478
  444MOL0     C58539   4.778   7.809   2.334 -0.3731  0.3384 -0.3866
  444MOL0     C58540   4.764   7.722   2.252 -0.7414  0.5155  0.3192
  444MOL0     C58541   4.911   7.425   2.687 -0.5933  0.2114 -0.2205
  444MOL0     C58542   5.010   7.337   2.638 -0.3692 -0.6598 -0.2200
  444MOL0     H58543   5.413   7.331   2.337 -0.0957 -1.5755 -1.6892
  444MOL0     H58544   5.591   7.250   2.223  1.3648  1.5198  0.5571
  444MOL0     H58545   5.973   7.008   2.300  0.0890  0.0388  0.5949
  444MOL0     H58546   5.901   6.976   2.447  1.1429  1.5905  0.7393
  444MOL0     H58547   6.085   7.108   2.494  0.0754  1.3120  0.4265
  444MOL0     H58548   5.954   7.220   2.536  0.6375  0.5372  0.0962
  444MOL0     H58549   6.089   7.213   2.278 -1.8760 -3.1721  1.1990
  444MOL0     H58550   6.128   7.334   2.402  1.8137 -1.8794 -0.5448
  444MOL0     H58551   5.987   7.451   2.252 -0.9546 -0.4182 -1.9802
  444MOL0     H58552   5.860   7.332   2.237 -1.8852  2.4078 -0.2750
  444MOL0     H58553   5.941   7.493   2.491  0.8292 -0.5343 -0.2239
  444MOL0     H58554   5.789   7.403   2.470  1.3450 -0.5217 -0.1777
  444MOL0     H58555   5.720   7.524   2.292  2.0579 -3.5367  1.1191
  444MOL0     H58556   5.864   7.639   2.313 -0.0702  1.9425  0.9306
  444MOL0     H58557   5.763   7.655   2.548 -1.3425  1.6154  0.5842
  444MOL0     H58558   5.711   7.766   2.423  1.5651 -0.4907 -0.0339
  444MOL0     H58559   5.539   7.527   2.530  0.4587  0.6862  1.4988
  444MOL0     H58560   5.501   7.632   2.385 -0.3144  1.2124  0.9887
  444MOL0     H58561   5.491   7.912   2.448  0.7529  1.8328  0.5902
  444MOL0     H58562   5.364   8.080   2.559  1.4130 -2.5038 -1.6585
  444MOL0     H58563   5.323   8.055   2.736 -0.4967 -1.8172  0.3952
  444MOL0     H58564   5.148   7.881   2.632  3.0436 -0.6186  1.2502
  444MOL0     H58565   5.148   7.999   2.502 -1.8331  3.3352  1.1910
  444MOL0     H58566   5.000   8.022   2.733 -1.9092  3.1875 -0.2067
  444MOL0     H58567   5.132   8.124   2.768 -0.5458  3.1380 -0.0174
  444MOL0     H58568   5.026   8.156   2.485  1.5858  0.4207 -0.2069
  444MOL0     H58569   5.075   8.279   2.602 -2.1372  0.8457  0.2068
  444MOL0     H58570   4.987   8.448   2.691 -0.1758  3.3019  1.9511
  444MOL0     H58571   4.865   8.657   2.660  0.8325 -0.6775  2.8276
  444MOL0     H58572   4.669   8.992   2.431 -0.8133 -4.9369  0.8337
  444MOL0     H58573   4.513   9.214   2.472  0.1061  1.0037  2.3818
  444MOL0     H58574   4.390   9.297   2.862  0.3217 -1.6150 -1.0680
  444MOL0     H58575   4.358   9.448   2.776  1.6575  1.9800 -2.2292
  444MOL0     H58576   4.634   9.327   2.817  1.7186  1.1666  0.4494
  444MOL0     H58577   4.575   9.480   2.880  0.1679  1.0481  0.0477
  444MOL0     H58578   4.625   9.426   2.598 -5.0651 -1.3090 -0.1634
  444MOL0     H58579   4.718   9.539   2.703 -0.3393  0.1289  1.9702
  444MOL0     H58580   4.459   9.564   2.567 -0.7204 -0.4566 -0.3751
  444MOL0     H58581   4.483   9.663   2.714 -0.7236 -1.5202 -0.6458
  444MOL0     H58582   4.702   9.674   2.513 -0.0253 -0.0496 -0.6555
  444MOL0     H58583   4.641   9.788   2.638 -1.8105 -2.0245  3.1275
  444MOL0     H58584   4.437   9.821   2.488  1.1562 -0.0950  0.8025
  444MOL0     H58585   4.508   9.708   2.371  1.5496  1.9025 -1.8659
  444MOL0     H58586   4.706   9.875   2.380 -0.2571  0.3129 -3.1461
  444MOL0     H58587   4.565   9.919   2.288 -1.4793  1.8159  0.6070
  444MOL0     H58588   4.576  10.018   2.581  5.2510  1.2884  0.4496
  444MOL0     H58589   4.474  10.077   2.443  0.1236 -0.2345  0.3293
  444MOL0     H58590   4.392   9.093   2.852 -0.1094 -0.1675 -0.4605
  444MOL0     H58591   4.527   8.882   2.832 -0.9583 -0.7377  0.0421
  444MOL0     H58592   4.504   8.456   2.563 -0.1367  2.0620  0.5554
  444MOL0     H58593   4.647   8.228   2.561 -0.3357  0.6724 -0.8335
  444MOL0     H58594   5.738   7.063   2.586 -1.3416 -1.0525  1.6298
  444MOL0     H58595   5.552   7.142   2.704  2.2188 -1.9672 -0.0454
  444MOL0     H58596   5.276   7.494   2.779 -2.0466  5.1679  2.4569
  444MOL0     H58597   5.087   7.634   2.873 -0.5423 -1.4197 -0.0866
  444MOL0     H58598   4.665   7.695   2.818  1.1049  0.4366  1.6111
  444MOL0     H58599   4.677   7.548   2.724 -3.0126  1.7247  1.1919
  444MOL0     H58600   4.731   7.644   2.526 -0.7315  1.3722 -1.8133
  444MOL0     H58601   4.607   7.748   2.588  0.8261 -1.1878 -2.1360
  444MOL0     H58602   4.900   7.822   2.616 -0.0068  1.2038  2.3274
  444MOL0     H58603   4.761   7.922   2.661  0.9509  1.7314 -1.5510
  444MOL0     H58604   4.724   7.990   2.428 -2.0556 -0.0149 -1.8905
  444MOL0     H58605   4.891   7.951   2.423 -0.1866  0.2671 -1.7947
  444MOL0     H58606   4.738   7.658   2.170 -0.4938  0.4107  0.3209
  444MOL0     H58607   4.814   7.415   2.639 -0.3538 -0.1746 -0.6284
  444MOL0     H58608   4.984   7.271   2.556 -2.1465 -0.1565 -0.1117
  445MOL0     O58609   0.273   9.049  10.296 -0.0065  0.5065 -0.1362
  445MOL0     C58610   0.235   9.158  10.331  0.4035 -0.1899 -0.5379
  445MOL0     O58611   0.130   9.177  10.404  0.2338  0.3621 -0.3634
  445MOL0     C58612   0.050   9.080  10.450  0.4396  0.1406  0.1442
  445MOL0     C58613   0.000   8.967  10.373  0.6275  0.1775 -0.4698
  445MOL0     C58614  -0.084   8.872  10.426  0.6789 -0.0274 -0.5580
  445MOL0     C58615  -0.133   8.891  10.561  0.0268  1.6937  0.2700
  445MOL0     O58616  -0.228   8.811  10.629 -0.4325  0.0272  0.1116
  445MOL0     C58617  -0.296   8.704  10.566  1.0340 -0.1193 -0.4719
  445MOL0     C58618  -0.391   8.639  10.668  0.3506 -0.5413 -0.1339
  445MOL0     C58619  -0.447   8.502  10.621  0.3833  0.3665  0.5462
  445MOL0     C58620  -0.532   8.526  10.508  0.2553 -0.3122  0.2686
  445MOL0     C58621  -0.630   8.413  10.470  0.4867 -0.6292 -0.4844
  445MOL0     C58622  -0.705   8.449  10.340  0.2898 -0.7090  0.2398
  445MOL0     C58623  -0.844   8.377  10.325 -0.2163  0.3210 -0.3538
  445MOL0     C58624  -0.831   8.221  10.327 -0.0174 -0.4566  0.1255
  445MOL0     N58625  -0.968   8.163  10.331 -0.9117  0.0012  0.2054
  445MOL0     C58626  -1.031   8.100  10.432  0.1924 -0.2102 -0.5795
  445MOL0     C58627  -1.137   8.045  10.367 -0.5762 -0.9648  0.2866
  445MOL0     C58628  -1.247   7.964  10.426  0.6317 -0.4012 -0.6196
  445MOL0     C58629  -1.233   7.820  10.407  0.5624 -1.0684 -0.1487
  445MOL0     C58630  -1.118   7.769  10.495  0.6591 -0.2606 -0.2615
  445MOL0     C58631  -1.095   7.619  10.470  0.4689  0.3275  0.6432
  445MOL0     O58632  -1.218   7.541  10.502 -0.3596 -0.2362 -0.0070
  445MOL0     C58633  -1.191   7.405  10.489  1.1517  0.1101  0.6406
  445MOL0     C58634  -1.224   7.342  10.364  0.5161  0.1691 -0.5439
  445MOL0     C58635  -1.206   7.205  10.358  0.2063 -1.4287  0.7807
  445MOL0     C58636  -1.153   7.129  10.456  0.5606  0.2146  0.4855
  445MOL0     C58637  -1.130   6.982  10.437  0.1424 -0.2784  0.4285
  445MOL0     O58638  -1.081   6.906  10.543 -0.7354 -0.5181 -0.1796
  445MOL0     C58639  -1.016   6.781  10.524 -0.4098 -0.5360 -0.7059
  445MOL0     C58640  -0.956   6.744  10.404  0.3469  1.1144 -1.6602
  445MOL0     C58641  -0.884   6.620  10.406  0.9039 -0.9281 -1.0152
  445MOL0     C58642  -0.877   6.547  10.524 -0.1749  0.2971  0.8450
  445MOL0     O58643  -0.832   6.414  10.521 -0.2172 -0.2618 -0.5502
  445MOL0     C58644  -0.929   6.326  10.475 -0.5621 -0.4030  0.6733
  445MOL0     C58645  -0.857   6.212  10.391  0.5905 -0.2264  1.2653
  445MOL0     C58646  -0.761   6.138  10.473  0.1605  0.8969 -0.4062
  445MOL0     C58647  -0.676   6.056  10.382 -0.1906 -0.3298 -0.2723
  445MOL0     C58648  -0.581   5.968  10.457  0.4774 -0.3469  0.3325
  445MOL0     C58649  -0.441   6.018  10.487  0.6640 -0.0156 -1.0606
  445MOL0     C58650  -0.352   6.030  10.365 -0.4527 -0.6316  0.3565
  445MOL0     C58651  -0.199   6.079  10.392  0.3854 -0.5411 -0.4394
  445MOL0    Cl58652  -0.195   6.260  10.409 -0.3351  0.0469 -0.2293
  445MOL0     C58653  -0.945   6.589  10.635  0.3099  0.5831  0.7033
  445MOL0     C58654  -1.023   6.699  10.634 -0.1636 -0.3587  0.0438
  445MOL0     O58655  -1.133   6.946  10.320  0.4084  0.8856  0.3414
  445MOL0     C58656  -1.117   7.194  10.576 -0.3801  0.9718 -0.3028
  445MOL0     C58657  -1.138   7.334  10.595 -0.5341 -1.1403 -1.4073
  445MOL0     N58658  -1.144   8.073  10.232 -0.0276 -0.4867 -0.0463
  445MOL0     N58659  -1.047   8.164  10.214 -0.1640  0.4651  0.0557
  445MOL0     C58660  -0.085   8.999  10.632  0.3630 -0.2337 -0.4470
  445MOL0     C58661   0.011   9.089  10.585 -0.1818 -0.6570  0.7954
  445MOL0     C58662   0.321   9.274  10.308  0.1267  0.8411  0.5412
  445MOL0     C58663   0.285   9.402  10.342  1.6696  0.0430 -1.3357
  445MOL0     C58664   0.369   9.509  10.326 -0.1285 -0.7179 -0.8556
  445MOL0     C58665   0.494   9.492  10.256  0.0990  0.1576  0.5051
  445MOL0     O58666   0.571   9.604  10.228 -0.3658 -0.5046  0.4083
  445MOL0     C58667   0.705   9.591  10.184  0.1419 -0.0749 -0.1618
  445MOL0     C58668   0.780   9.707  10.230  0.3410 -0.1449  0.8446
  445MOL0     C58669   0.930   9.691  10.217 -0.3326 -0.6059  0.3005
  445MOL0     C58670   1.018   9.768  10.326  0.2435 -0.1268  0.7006
  445MOL0     C58671   1.029   9.914  10.308  0.6864 -0.2124  0.1553
  445MOL0     C58672   1.051  10.113  10.307 -0.2396  1.0105  0.0260
  445MOL0     C58673   0.522   9.361  10.210 -0.6698 -0.6033  0.7763
  445MOL0     C58674   0.443   9.247  10.239  0.1943 -0.8161 -0.2603
  445MOL0     H58675   0.026   8.947  10.270  3.7033  0.9844  0.0389
  445MOL0     H58676  -0.113   8.794  10.357  0.2137 -0.1194 -0.2628
  445MOL0     H58677  -0.225   8.635  10.520 -2.1962 -1.6484 -3.6826
  445MOL0     H58678  -0.348   8.737  10.476  0.0289 -1.7490 -0.5252
  445MOL0     H58679  -0.468   8.708  10.703  1.9909  0.3057  2.0934
  445MOL0     H58680  -0.331   8.627  10.759  2.1888  4.0538 -0.4907
  445MOL0     H58681  -0.496   8.462  10.710 -0.1499 -0.9953 -0.3161
  445MOL0     H58682  -0.377   8.420  10.602  0.2295  0.4066 -0.2452
  445MOL0     H58683  -0.587   8.618  10.529  0.4310  0.6002 -2.8108
  445MOL0     H58684  -0.490   8.553  10.411 -1.9488 -0.1273 -0.6870
  445MOL0     H58685  -0.701   8.404  10.552  0.9451  1.6690  0.2568
  445MOL0     H58686  -0.570   8.323  10.454  1.2543 -0.7164  2.2726
  445MOL0     H58687  -0.645   8.442  10.249  1.1485 -0.0930  0.7461
  445MOL0     H58688  -0.738   8.553  10.339  1.6068 -0.2481 -1.7319
  445MOL0     H58689  -0.895   8.404  10.418  0.6008  1.0170 -0.0887
  445MOL0     H58690  -0.882   8.425  10.235  0.5819  1.7440  0.0271
  445MOL0     H58691  -0.761   8.191  10.405  1.7183  1.5016 -0.5702
  445MOL0     H58692  -0.794   8.181  10.232  1.5148 -1.8147  1.2296
  445MOL0     H58693  -1.004   8.084  10.536 -1.1347 -2.4814 -0.5008
  445MOL0     H58694  -1.339   7.977  10.368 -0.4247 -3.8093  0.0510
  445MOL0     H58695  -1.264   7.971  10.534  1.6742 -2.2273 -0.3035
  445MOL0     H58696  -1.226   7.789  10.302  0.7084 -1.3882 -0.0475
  445MOL0     H58697  -1.317   7.777  10.461 -1.5911  1.5700 -1.1983
  445MOL0     H58698  -1.022   7.815  10.468  0.8280 -0.1603  0.4782
  445MOL0     H58699  -1.148   7.781  10.600  1.7005 -2.6186  0.3736
  445MOL0     H58700  -1.014   7.584  10.536 -1.3860 -0.9564  2.3552
  445MOL0     H58701  -1.050   7.610  10.371  0.8881  1.4924  0.7045
  445MOL0     H58702  -1.264   7.389  10.275 -0.6401 -0.3573 -0.3293
  445MOL0     H58703  -1.240   7.151  10.271 -1.7575 -1.5562  1.5650
  445MOL0     H58704  -0.971   6.794  10.309 -1.2716  2.1876 -0.8874
  445MOL0     H58705  -0.853   6.580  10.310 -0.0910 -0.7109 -1.4422
  445MOL0     H58706  -1.005   6.371  10.411  0.5353 -2.7060 -2.5208
  445MOL0     H58707  -0.982   6.280  10.559  2.1404 -2.9622  1.1414
  445MOL0     H58708  -0.804   6.263  10.311  0.0705 -1.0623  0.3609
  445MOL0     H58709  -0.935   6.157  10.338  0.8535  1.2823 -0.7866
  445MOL0     H58710  -0.811   6.089  10.557  1.4041  0.3155  0.0186
  445MOL0     H58711  -0.692   6.201  10.529 -1.0056  2.2868 -0.4791
  445MOL0     H58712  -0.738   5.987  10.324  1.5499 -1.3406 -1.0200
  445MOL0     H58713  -0.617   6.124  10.320 -0.5606  1.6146  1.3904
  445MOL0     H58714  -0.567   5.882  10.390 -1.0036 -1.5305  1.4666
  445MOL0     H58715  -0.621   5.920  10.547 -1.4099 -0.0026 -0.2888
  445MOL0     H58716  -0.400   5.947  10.559 -1.6150  0.4950  0.8888
  445MOL0     H58717  -0.460   6.104  10.552  0.0944  1.1444 -2.6902
  445MOL0     H58718  -0.351   5.928  10.324  2.0731 -0.1614 -0.9900
  445MOL0     H58719  -0.394   6.098  10.290  2.7117 -0.1600 -1.1491
  445MOL0     H58720  -0.146   6.082  10.296 -0.3273  4.1607 -0.9426
  445MOL0     H58721  -0.142   6.036  10.474 -2.2139 -0.2894  1.6529
  445MOL0     H58722  -0.933   6.527  10.722  1.6886  0.4931  0.4635
  445MOL0     H58723  -1.071   6.730  10.727 -0.1900  2.1928 -0.7531
  445MOL0     H58724  -1.065   7.142  10.656  1.3972  1.7590 -0.8922
  445MOL0     H58725  -1.115   7.369  10.695 -0.8966 -1.5042 -1.1943
  445MOL0     H58726  -0.133   9.016  10.727 -0.5521  0.1686 -0.9732
  445MOL0     H58727   0.037   9.167  10.656  0.1116 -0.2539  0.2443
  445MOL0     H58728   0.184   9.430  10.371  1.8248  0.7753 -1.4723
  445MOL0     H58729   0.346   9.610  10.358  3.8321  1.0856 -3.0187
  445MOL0     H58730   0.703   9.572  10.077  0.0640 -1.6189  0.0893
  445MOL0     H58731   0.761   9.506  10.224  1.8753  1.9623  2.0863
  445MOL0     H58732   0.740   9.791  10.172  4.7383 -0.2304 -2.8799
  445MOL0     H58733   0.763   9.732  10.335  3.2735  1.6802  0.9986
  445MOL0     H58734   0.953   9.742  10.123  2.3778  0.6577  1.5577
  445MOL0     H58735   0.969   9.589  10.210  4.0388  0.8438  0.6419
  445MOL0     H58736   0.987   9.743  10.428  1.2895 -3.4848  0.3159
  445MOL0     H58737   1.117   9.725  10.316 -1.5179 -5.0445  1.8014
  445MOL0     H58738   1.072  10.218  10.307  0.5069  0.8829  1.3850
  445MOL0     H58739   0.611   9.347  10.149  0.7428  3.9955  1.3767
  445MOL0     H58740   0.451   9.147  10.196  0.0041 -1.2731  0.7459
  446MOL0     O58741   2.950   0.687   9.589 -0.1281 -0.5666 -0.1704
  446MOL0     C58742   2.920   0.662   9.474  0.3971  0.6226  0.4403
  446MOL0     O58743   2.797   0.697   9.411  0.3775  0.9341  0.3760
  446MOL0     C58744   2.707   0.772   9.480 -0.1058  0.4749 -0.4668
  446MOL0     C58745   2.625   0.704   9.574 -0.2037  0.1225 -0.2773
  446MOL0     C58746   2.526   0.784   9.638 -0.7703 -0.0087 -0.2631
  446MOL0     C58747   2.519   0.925   9.615  0.5044  0.5930 -1.2473
  446MOL0     O58748   2.430   1.007   9.691  0.5088  0.7450 -0.3236
  446MOL0     C58749   2.367   0.954   9.812 -0.3197  0.9283 -0.5783
  446MOL0     C58750   2.287   1.058   9.897 -0.5584  0.7203 -0.0808
  446MOL0     C58751   2.183   0.984   9.984 -0.4133  0.5561  0.8070
  446MOL0     C58752   2.147   1.063  10.109  0.3446  0.7748 -0.5429
  446MOL0     C58753   2.012   1.007  10.177  0.2868 -0.0797  0.0076
  446MOL0     C58754   1.990   1.077  10.305  0.1103 -0.1509 -0.0681
  446MOL0     C58755   1.876   1.011  10.381  0.3651  0.6186 -0.1412
  446MOL0     C58756   1.892   1.044  10.532 -0.1855 -0.4111 -0.1039
  446MOL0     N58757   1.794   0.991  10.630  0.0302 -0.4387  0.4042
  446MOL0     C58758   1.826   0.879  10.709  0.4082 -1.0835 -0.5129
  446MOL0     C58759   1.713   0.857  10.789 -0.4376 -0.1222 -0.6625
  446MOL0     C58760   1.688   0.754  10.898 -0.3253  0.2085  0.2240
  446MOL0     C58761   1.566   0.665  10.879 -0.7502 -0.3495 -0.1398
  446MOL0     C58762   1.436   0.716  10.937 -1.6747 -0.2532  0.1124
  446MOL0     C58763   1.420   0.693  11.088  0.1402  1.4215 -0.6157
  446MOL0     O58764   1.463   0.808  11.172  0.0588 -0.0863  0.3026
  446MOL0     C58765   1.511   0.793  11.293 -0.7354 -0.3809 -0.3166
  446MOL0     C58766   1.484   0.691  11.389 -0.1399  0.0100  0.6171
  446MOL0     C58767   1.546   0.693  11.520 -0.3587 -0.1171  0.0271
  446MOL0     C58768   1.633   0.797  11.556 -0.2954  1.5913  0.0350
  446MOL0     C58769   1.711   0.786  11.681 -0.0474 -0.5919  0.7477
  446MOL0     O58770   1.697   0.682  11.768  0.4758 -0.9031  0.0462
  446MOL0     C58771   1.775   0.676  11.881  0.3073  0.5817  0.6874
  446MOL0     C58772   1.855   0.562  11.902 -0.8348 -0.1486  0.7257
  446MOL0     C58773   1.947   0.566  12.009  0.0300  0.7002 -0.1213
  446MOL0     C58774   1.938   0.657  12.111  1.0058  0.1466  0.3494
  446MOL0     O58775   1.998   0.636  12.235  0.4144 -0.7524  0.2026
  446MOL0     C58776   2.087   0.527  12.252  0.0561  0.0005  0.3029
  446MOL0     C58777   2.172   0.573  12.370  0.4611  1.0555 -0.0399
  446MOL0     C58778   2.311   0.527  12.352 -0.4336  0.6947  0.7154
  446MOL0     C58779   2.401   0.578  12.456 -0.5878 -0.9448  0.4249
  446MOL0     C58780   2.546   0.523  12.451 -0.7269  0.6897 -0.7362
  446MOL0     C58781   2.621   0.561  12.591  0.9779  0.4707  0.2462
  446MOL0     C58782   2.654   0.714  12.591  0.1390 -0.5639 -0.2185
  446MOL0     C58783   2.713   0.751  12.737 -0.9864  0.0357  0.5330
  446MOL0    Cl58784   2.842   0.642  12.769 -0.1940  0.3778  0.3974
  446MOL0     C58785   1.868   0.773  12.092 -0.1788  0.5135  0.3466
  446MOL0     C58786   1.789   0.786  11.977  0.4889  0.0419  0.4033
  446MOL0     O58787   1.800   0.874  11.696 -0.8038  0.6319 -0.0357
  446MOL0     C58788   1.655   0.896  11.464  0.0677 -0.9954  0.7534
  446MOL0     C58789   1.601   0.892  11.332 -0.5920 -0.4276  1.0422
  446MOL0     N58790   1.624   0.969  10.765 -0.1452  0.2577  0.2067
  446MOL0     N58791   1.682   1.048  10.672  0.6359 -0.0193  0.5074
  446MOL0     C58792   2.593   0.976   9.507  0.1741  0.1148  0.0336
  446MOL0     C58793   2.681   0.900   9.437 -0.9531  0.6591  0.1856
  446MOL0     C58794   3.023   0.595   9.397 -0.3376 -0.2949  0.2744
  446MOL0     C58795   2.988   0.552   9.264 -0.9894  0.6666 -1.1773
  446MOL0     C58796   3.094   0.492   9.193  0.3685 -0.0898 -0.4811
  446MOL0     C58797   3.226   0.490   9.238 -0.0394  0.8123 -0.6177
  446MOL0     O58798   3.310   0.418   9.152 -0.0404 -0.0004  1.3425
  446MOL0     C58799   3.443   0.461   9.140 -0.1836  0.3308 -0.6167
  446MOL0     C58800   3.433   0.541   9.014 -0.2030  0.3130  0.0240
  446MOL0     C58801   3.562   0.611   8.989 -0.2960 -0.0457 -0.2483
  446MOL0     C58802   3.628   0.579   8.847 -0.4023 -0.6575 -1.1647
  446MOL0     C58803   3.659   0.433   8.844 -1.0463 -0.2556  0.5894
  446MOL0     C58804   3.663   0.311   8.836  0.7685  0.3509 -0.2156
  446MOL0     C58805   3.262   0.540   9.371 -1.0270 -0.3648  0.2700
  446MOL0     C58806   3.156   0.599   9.436 -1.0707 -1.0600 -1.2179
  446MOL0     H58807   2.628   0.599   9.597  0.9804 -0.4668 -2.7366
  446MOL0     H58808   2.446   0.739   9.697 -0.0924 -1.4530 -0.3926
  446MOL0     H58809   2.450   0.911   9.870 -2.4873 -0.2928  1.8305
  446MOL0     H58810   2.298   0.873   9.789 -1.9224  1.1168  2.9466
  446MOL0     H58811   2.236   1.133   9.836  1.7828 -0.1077 -3.2644
  446MOL0     H58812   2.358   1.105   9.966 -0.8800 -0.6047  1.2195
  446MOL0     H58813   2.234   0.893  10.015 -1.8019  0.1797  2.0640
  446MOL0     H58814   2.097   0.980   9.916  2.4972  3.0317 -3.5593
  446MOL0     H58815   2.231   1.062  10.179 -2.0302  0.0758  2.4914
  446MOL0     H58816   2.121   1.168  10.090  0.4841  0.3703 -3.5183
  446MOL0     H58817   2.029   0.901  10.197  2.2127  0.1503 -0.2707
  446MOL0     H58818   1.926   1.017  10.109 -0.0575 -1.7029  0.1645
  446MOL0     H58819   1.965   1.183  10.292  3.9528  0.9438  0.3224
  446MOL0     H58820   2.078   1.071  10.368 -0.6294 -2.9670  0.8438
  446MOL0     H58821   1.783   1.054  10.343  0.1230 -0.8893 -1.3355
  446MOL0     H58822   1.861   0.906  10.352  1.6029  0.8614 -1.7864
  446MOL0     H58823   1.881   1.152  10.539  1.0561 -0.3643  2.3471
  446MOL0     H58824   1.995   1.012  10.551  0.1179 -2.1713 -3.7889
  446MOL0     H58825   1.917   0.822  10.693  0.2633 -1.9348  1.4071
  446MOL0     H58826   1.678   0.806  10.993 -1.6083  1.7192 -0.6879
  446MOL0     H58827   1.778   0.691  10.907  0.0157  1.0608  5.0095
  446MOL0     H58828   1.582   0.567  10.924 -2.2349 -0.4151  0.2928
  446MOL0     H58829   1.555   0.665  10.770 -0.3592  1.3435 -0.2139
  446MOL0     H58830   1.432   0.824  10.920 -0.7583 -0.1706  0.3633
  446MOL0     H58831   1.355   0.666  10.883 -2.9160  0.9959  0.7505
  446MOL0     H58832   1.451   0.593  11.118  1.0786  2.0521  0.6250
  446MOL0     H58833   1.312   0.693  11.106  0.0980 -2.5939  0.0777
  446MOL0     H58834   1.409   0.614  11.374  0.9454 -0.8256 -0.7475
  446MOL0     H58835   1.526   0.617  11.595 -2.3197  1.8431  1.6062
  446MOL0     H58836   1.845   0.473  11.840  2.4484 -0.0719 -0.0982
  446MOL0     H58837   2.015   0.482  12.018  1.0784  1.5660  0.2900
  446MOL0     H58838   2.148   0.520  12.161  0.4280 -3.1713  0.6643
  446MOL0     H58839   2.053   0.423  12.263  0.6494 -0.2345 -0.0112
  446MOL0     H58840   2.130   0.533  12.462  0.0189 -0.3882 -0.8334
  446MOL0     H58841   2.169   0.680  12.388  2.1953  1.1709 -0.2227
  446MOL0     H58842   2.351   0.567  12.259 -0.8583  0.3689  0.3907
  446MOL0     H58843   2.310   0.418  12.343  1.1475  0.7831 -0.9942
  446MOL0     H58844   2.411   0.684  12.431  2.9374 -0.7053  2.1841
  446MOL0     H58845   2.354   0.552  12.551 -2.6311  0.6783 -0.0581
  446MOL0     H58846   2.591   0.552  12.356 -1.9978 -3.0978 -2.6937
  446MOL0     H58847   2.541   0.414  12.451  0.2892  0.6397 -0.6852
  446MOL0     H58848   2.706   0.493  12.589 -1.4931 -2.8974  0.1394
  446MOL0     H58849   2.560   0.536  12.678 -1.7523  2.2313 -0.9917
  446MOL0     H58850   2.728   0.735  12.513  1.3175 -1.0151  0.7369
  446MOL0     H58851   2.565   0.775  12.574  0.3218 -0.0340  0.6561
  446MOL0     H58852   2.638   0.741  12.816  0.2237 -0.3765  1.6517
  446MOL0     H58853   2.747   0.855  12.729 -2.2775  0.5174  0.9610
  446MOL0     H58854   1.870   0.847  12.171  0.8902  0.7810  0.0881
  446MOL0     H58855   1.715   0.864  11.962  0.8504  0.3704  0.3003
  446MOL0     H58856   1.726   0.976  11.481  0.3006 -1.1765  0.6310
  446MOL0     H58857   1.621   0.973  11.262  0.6455  2.1229  4.1211
  446MOL0     H58858   2.582   1.077   9.471  1.8821  1.2280  2.3435
  446MOL0     H58859   2.742   0.942   9.358 -1.0716 -1.9198 -1.4018
  446MOL0     H58860   2.889   0.559   9.220 -0.3742 -0.2610 -2.7701
  446MOL0     H58861   3.062   0.456   9.096 -0.9203 -1.6714  0.4891
  446MOL0     H58862   3.517   0.381   9.138  3.4530  3.1238  3.6025
  446MOL0     H58863   3.472   0.524   9.225  2.1582  1.8599 -2.4200
  446MOL0     H58864   3.409   0.474   8.932  2.4873  1.5052 -1.8957
  446MOL0     H58865   3.355   0.616   9.029  2.2750  2.8357  1.3739
  446MOL0     H58866   3.639   0.593   9.065  0.7658  1.7711 -0.8415
  446MOL0     H58867   3.555   0.720   8.987 -0.0147  0.0178  1.3035
  446MOL0     H58868   3.576   0.602   8.753 -0.0609 -2.3699 -1.8094
  446MOL0     H58869   3.726   0.627   8.855 -1.9404  2.4499  4.2712
  446MOL0     H58870   3.657   0.204   8.832 -1.0298  0.3097  1.6548
  446MOL0     H58871   3.363   0.551   9.408 -0.3729  1.7757 -1.9146
  446MOL0     H58872   3.186   0.628   9.536  2.0665 -1.8301 -1.8417
  447MOL0     O58873   8.243   0.484   8.777 -0.2667 -0.0140  0.3199
  447MOL0     C58874   8.253   0.369   8.732 -0.0737  0.1924  0.4377
  447MOL0     O58875   8.162   0.269   8.743 -0.4416 -0.3914 -0.2709
  447MOL0     C58876   8.037   0.272   8.801  0.0422  0.4344  0.2731
  447MOL0     C58877   7.937   0.192   8.764  0.0232 -0.0296 -0.2873
  447MOL0     C58878   7.806   0.202   8.817 -0.5845  1.0619 -0.1313
  447MOL0     C58879   7.776   0.293   8.916 -0.7089 -1.2390  0.1276
  447MOL0     O58880   7.653   0.296   8.973 -0.2914  0.0024 -0.9321
  447MOL0     C58881   7.658   0.236   9.109  1.5479  0.0948  0.6323
  447MOL0     C58882   7.599   0.332   9.209  0.0933 -1.0695 -0.8010
  447MOL0     C58883   7.570   0.258   9.346  0.1715  1.8875  0.2479
  447MOL0     C58884   7.433   0.190   9.339  0.1438 -0.2115 -0.7944
  447MOL0     C58885   7.371   0.186   9.476  0.2018  0.0137 -0.5097
  447MOL0     C58886   7.228   0.108   9.500  0.3949  0.6180 -0.7107
  447MOL0     C58887   7.157   0.174   9.616  0.0147  0.3586 -0.0361
  447MOL0     C58888   7.008   0.127   9.634 -0.9097 -0.2640 -0.0568
  447MOL0     N58889   6.976   0.109   9.779  0.1573  0.5833 -0.1811
  447MOL0     C58890   6.935   0.210   9.865  0.4244  0.0499  0.3334
  447MOL0     C58891   6.912   0.149   9.979  0.3108  0.0805 -0.5817
  447MOL0     C58892   6.865   0.224  10.094 -0.5201 -0.8353  0.0193
  447MOL0     C58893   6.934   0.358  10.135 -0.0920 -0.6159 -0.1107
  447MOL0     C58894   7.078   0.345  10.178  0.2836  0.8992 -0.8110
  447MOL0     C58895   7.118   0.226  10.267  0.2765 -0.2738  0.0483
  447MOL0     O58896   7.264   0.230  10.296 -0.2813  1.0485  0.0909
  447MOL0     C58897   7.353   0.179  10.201  0.4716  0.0545  0.0203
  447MOL0     C58898   7.307   0.138  10.072  0.5776  0.2155 -0.6367
  447MOL0     C58899   7.395   0.084   9.978  0.4967  0.3228  0.6768
  447MOL0     C58900   7.534   0.071  10.011  1.0028  0.0611 -0.5345
  447MOL0     C58901   7.614  -0.000   9.923  0.3388 -0.3153 -0.8148
  447MOL0     O58902   7.558  -0.015   9.799 -0.0683 -0.5282  0.2352
  447MOL0     C58903   7.626  -0.057   9.682 -0.1879  0.2074  0.3942
  447MOL0     C58904   7.765  -0.054   9.658  0.2599  0.5455  0.2314
  447MOL0     C58905   7.819  -0.081   9.527 -0.1029 -0.8751 -1.3432
  447MOL0     C58906   7.727  -0.105   9.427  0.9069 -0.9739  0.4252
  447MOL0     O58907   7.780  -0.143   9.303 -0.5040 -0.3843  0.1385
  447MOL0     C58908   7.692  -0.161   9.193 -0.6799  1.0580  0.2233
  447MOL0     C58909   7.789  -0.138   9.079 -0.3556 -0.0771 -0.0768
  447MOL0     C58910   7.730  -0.144   8.930  0.5284  0.2520 -0.0300
  447MOL0     C58911   7.840  -0.162   8.815  0.3015 -0.4115  0.8050
  447MOL0     C58912   7.786  -0.171   8.663  0.1211 -0.1523 -0.2296
  447MOL0     C58913   7.645  -0.225   8.644 -0.0029  0.4535 -0.0946
  447MOL0     C58914   7.604  -0.262   8.497 -0.4770  0.5480 -0.9452
  447MOL0     C58915   7.479  -0.338   8.468  1.0154 -0.0292  0.9906
  447MOL0    Cl58916   7.439  -0.309   8.294  0.1893  0.2201  0.2821
  447MOL0     C58917   7.595  -0.121   9.447  0.4581 -0.2426 -0.4477
  447MOL0     C58918   7.540  -0.091   9.571  0.7697  0.0238 -0.0368
  447MOL0     O58919   7.722  -0.030   9.958 -0.6528  0.6712 -0.4081
  447MOL0     C58920   7.579   0.127  10.134  0.6232  0.2629 -0.2087
  447MOL0     C58921   7.490   0.184  10.224 -0.5656 -0.2960  0.2304
  447MOL0     N58922   6.928   0.014   9.966 -0.7089 -0.0500  0.9327
  447MOL0     N58923   6.982  -0.007   9.842  0.5533 -0.3550 -0.1265
  447MOL0     C58924   7.874   0.373   8.959  0.3219  0.7537 -0.1690
  447MOL0     C58925   8.000   0.364   8.904  0.4927 -0.2879 -0.1035
  447MOL0     C58926   8.378   0.335   8.661  0.5202 -0.0240  0.0054
  447MOL0     C58927   8.492   0.422   8.656  0.5377  0.0184  0.5526
  447MOL0     C58928   8.608   0.397   8.574 -0.2424 -1.0782  0.4296
  447MOL0     C58929   8.614   0.281   8.503  0.7591  0.5311 -0.2337
  447MOL0     O58930   8.722   0.242   8.426  0.1447  0.7171  0.2475
  447MOL0     C58931   8.841   0.310   8.429 -0.5563  0.3998 -0.2634
  447MOL0     C58932   8.948   0.235   8.337  0.3009 -0.8980  0.0659
  447MOL0     C58933   8.943   0.075   8.349 -0.4675  0.1811  0.9732
  447MOL0     C58934   9.063   0.000   8.280  0.7591  0.3889  0.0116
  447MOL0     C58935   9.041  -0.144   8.290  0.1128 -0.1320 -0.5167
  447MOL0     C58936   9.023  -0.264   8.277  0.0020  0.3030  0.3818
  447MOL0     C58937   8.504   0.193   8.508 -0.0266  0.8041  0.1619
  447MOL0     C58938   8.390   0.217   8.581 -0.1977 -0.0607 -0.4703
  447MOL0     H58939   7.964   0.125   8.683  3.0311 -2.6891  2.6091
  447MOL0     H58940   7.733   0.145   8.761 -1.7488  1.3825  0.9874
  447MOL0     H58941   7.758   0.204   9.138  0.9952 -0.2219  2.3007
  447MOL0     H58942   7.595   0.147   9.098 -0.7088  1.4689  1.6804
  447MOL0     H58943   7.520   0.384   9.155  1.1027 -0.7267 -2.0019
  447MOL0     H58944   7.680   0.404   9.226 -1.7545  0.8676  0.3027
  447MOL0     H58945   7.576   0.327   9.431  0.9644  3.1244 -0.7694
  447MOL0     H58946   7.648   0.187   9.376 -0.5035  2.0598  2.6343
  447MOL0     H58947   7.365   0.231   9.264 -2.8985 -1.7400  0.9705
  447MOL0     H58948   7.450   0.087   9.306  0.4638 -0.6832  0.7395
  447MOL0     H58949   7.344   0.292   9.483 -0.4217  0.1708 -3.7019
  447MOL0     H58950   7.442   0.162   9.555  0.5217  3.2268  0.3198
  447MOL0     H58951   7.225  -0.000   9.513 -1.4928  0.4038 -2.3849
  447MOL0     H58952   7.171   0.123   9.408 -4.1930 -0.9950  1.5687
  447MOL0     H58953   7.207   0.159   9.712 -3.5379  1.6921  2.2054
  447MOL0     H58954   7.151   0.281   9.594 -5.9479  0.5108  0.6297
  447MOL0     H58955   6.997   0.033   9.580  0.3225 -1.3448  1.4734
  447MOL0     H58956   6.949   0.205   9.585 -0.2999  1.4422  1.7678
  447MOL0     H58957   6.900   0.311   9.844 -0.2715 -0.1206  0.6449
  447MOL0     H58958   6.870   0.157  10.180 -1.0144 -0.8394  0.0478
  447MOL0     H58959   6.759   0.248  10.079  0.1160  0.8761 -2.1905
  447MOL0     H58960   6.880   0.406  10.218  0.4171  0.1089 -0.1910
  447MOL0     H58961   6.916   0.441  10.066  0.2144  2.5838  3.2894
  447MOL0     H58962   7.151   0.350  10.097  0.4018  2.3050 -0.6448
  447MOL0     H58963   7.095   0.437  10.235  1.8579  0.9053 -1.2336
  447MOL0     H58964   7.089   0.129  10.226  2.8817 -1.0139 -0.2493
  447MOL0     H58965   7.065   0.228  10.363 -0.1973 -0.5702 -0.2106
  447MOL0     H58966   7.207   0.148  10.032  1.6376  1.4405 -3.2181
  447MOL0     H58967   7.359   0.056   9.879  1.0019  0.6836  0.3842
  447MOL0     H58968   7.834  -0.049   9.742 -1.1324  1.5633  1.3599
  447MOL0     H58969   7.925  -0.074   9.506  0.1001 -1.2165 -0.4826
  447MOL0     H58970   7.610  -0.089   9.186 -1.1095  0.5931  0.3916
  447MOL0     H58971   7.656  -0.264   9.189  0.9755  0.4689 -0.2129
  447MOL0     H58972   7.857  -0.221   9.099  0.8078  1.8052  5.7362
  447MOL0     H58973   7.842  -0.045   9.096  2.5426 -0.9729 -3.1542
  447MOL0     H58974   7.669  -0.054   8.914 -3.7253 -2.4959 -0.8961
  447MOL0     H58975   7.653  -0.220   8.920  0.3639  0.3510  0.4398
  447MOL0     H58976   7.916  -0.084   8.818 -0.6984  0.5550  2.3053
  447MOL0     H58977   7.879  -0.263   8.835 -0.2828 -0.4399  1.8923
  447MOL0     H58978   7.863  -0.231   8.614  0.9687 -0.7844  1.7652
  447MOL0     H58979   7.780  -0.077   8.609  3.1489  1.9593  2.7325
  447MOL0     H58980   7.567  -0.156   8.677 -3.2486 -2.3913 -1.2701
  447MOL0     H58981   7.633  -0.319   8.699  0.7857 -0.5341 -1.5528
  447MOL0     H58982   7.585  -0.175   8.434  1.0610 -1.2248 -4.1226
  447MOL0     H58983   7.689  -0.312   8.449  0.5970  1.1952  0.2377
  447MOL0     H58984   7.401  -0.306   8.538  2.3903  3.2564  1.2180
  447MOL0     H58985   7.497  -0.445   8.482 -0.9258 -0.5737 -0.3037
  447MOL0     H58986   7.529  -0.153   9.366 -0.6874  0.4829  0.1747
  447MOL0     H58987   7.437  -0.096   9.604  1.2267 -1.8764  1.2462
  447MOL0     H58988   7.684   0.140  10.161  0.2416  0.7420  1.0993
  447MOL0     H58989   7.539   0.241  10.302 -0.4780  3.3830 -2.2700
  447MOL0     H58990   7.845   0.445   9.035  0.1074  1.7142 -1.1454
  447MOL0     H58991   8.079   0.431   8.939 -0.1237  1.9644 -2.6302
  447MOL0     H58992   8.488   0.503   8.728 -0.3220 -1.3003  2.0566
  447MOL0     H58993   8.688   0.471   8.575 -1.8404  0.8980 -2.3268
  447MOL0     H58994   8.875   0.293   8.532 -0.5603 -1.7950 -0.5763
  447MOL0     H58995   8.832   0.414   8.398  0.3932  1.1375  1.7406
  447MOL0     H58996   8.954   0.271   8.234 -0.0072 -2.0582 -0.3687
  447MOL0     H58997   9.047   0.258   8.376  0.4060 -0.2111 -0.5690
  447MOL0     H58998   8.848   0.048   8.302  1.5439 -0.4308 -3.1632
  447MOL0     H58999   8.955   0.036   8.450  0.2687 -2.9690 -0.2348
  447MOL0     H59000   9.078   0.015   8.173  1.0776  0.8839  0.1236
  447MOL0     H59001   9.150   0.038   8.335 -0.8145  1.6248  1.8124
  447MOL0     H59002   9.002  -0.369   8.280 -3.5363  0.8239 -1.5483
  447MOL0     H59003   8.512   0.101   8.451  1.1058 -0.2401  1.9387
  447MOL0     H59004   8.312   0.142   8.592 -0.5511  0.1917 -1.1627
  448MOL0     O59005   5.159   7.966   8.638  0.0905  0.2328  0.3129
  448MOL0     C59006   5.269   7.919   8.661  0.7361  0.3390 -0.2480
  448MOL0     O59007   5.367   7.986   8.736  0.5310 -0.8355 -0.1781
  448MOL0     C59008   5.359   8.119   8.752  0.4564  0.2212  0.0371
  448MOL0     C59009   5.310   8.211   8.667 -0.5615  0.5273  0.7087
  448MOL0     C59010   5.305   8.348   8.694  0.9704 -1.4731 -0.1814
  448MOL0     C59011   5.334   8.388   8.826  0.0734  0.3365 -0.1692
  448MOL0     O59012   5.318   8.514   8.873  0.5288  0.0554 -0.9711
  448MOL0     C59013   5.260   8.615   8.788 -1.3296 -0.5338  0.3258
  448MOL0     C59014   5.260   8.754   8.855  0.0662  0.2216 -0.5707
  448MOL0     C59015   5.165   8.851   8.788 -0.1743 -0.4357  0.5217
  448MOL0     C59016   5.183   8.994   8.827  0.6087  0.2375  0.0039
  448MOL0     C59017   5.125   9.091   8.736 -0.2412 -0.7220  0.9960
  448MOL0     C59018   5.158   9.244   8.767  0.1662 -0.0470 -0.4330
  448MOL0     C59019   5.090   9.313   8.891  1.0809 -0.1263  0.0571
  448MOL0     C59020   4.939   9.344   8.871  0.1124 -0.0327  0.6256
  448MOL0     N59021   4.867   9.384   8.995 -1.3888 -0.0922  0.0970
  448MOL0     C59022   4.940   9.403   9.116 -0.9777  0.0530 -0.1590
  448MOL0     C59023   4.855   9.470   9.187 -0.0851  0.1177 -0.2276
  448MOL0     C59024   4.870   9.527   9.334  0.2536 -0.1657  0.4754
  448MOL0     C59025   4.891   9.417   9.432  0.7166 -0.5395 -0.0189
  448MOL0     C59026   4.875   9.461   9.572 -0.4614 -0.9592 -0.6954
  448MOL0     C59027   4.975   9.569   9.620 -0.2428 -0.2615  0.2748
  448MOL0     O59028   4.962   9.698   9.561 -0.4429  0.3189 -0.0820
  448MOL0     C59029   5.071   9.782   9.541  0.1940 -0.4973 -0.7217
  448MOL0     C59030   5.066   9.887   9.454  0.7696  0.2323  0.2986
  448MOL0     C59031   5.159   9.991   9.468  0.0691  0.2736 -0.7816
  448MOL0     C59032   5.270   9.977   9.540 -1.1441 -0.1757 -0.3658
  448MOL0     C59033   5.379  10.084   9.539  0.1835 -0.1074  0.1320
  448MOL0     O59034   5.500  10.059   9.606  0.3606  0.4159  0.8804
  448MOL0     C59035   5.600  10.152   9.613 -0.6386  0.0822  0.9470
  448MOL0     C59036   5.641  10.243   9.508 -0.2177 -0.5366 -0.3164
  448MOL0     C59037   5.755  10.326   9.516 -0.9191 -0.5156 -0.2751
  448MOL0     C59038   5.833  10.312   9.633 -0.3855  0.2642 -0.9766
  448MOL0     O59039   5.939  10.396   9.645 -0.0230 -0.3325  0.1205
  448MOL0     C59040   5.908  10.525   9.684 -0.2989  0.7836  0.1811
  448MOL0     C59041   6.038  10.594   9.702  0.7003  1.1290  0.0704
  448MOL0     C59042   6.007  10.736   9.729 -0.3934  0.3291 -0.2220
  448MOL0     C59043   6.139  10.811   9.744  0.0070  0.6447 -0.2499
  448MOL0     C59044   6.204  10.852   9.617 -0.8071 -0.5769  0.7204
  448MOL0     C59045   6.359  10.840   9.619 -0.8985  0.1083 -0.6663
  448MOL0     C59046   6.427  10.957   9.694  0.2873  0.0732  0.4418
  448MOL0     C59047   6.580  10.966   9.681 -0.3608  0.3649  0.4999
  448MOL0    Cl59048   6.657  10.825   9.744 -0.1220  0.5533 -0.0853
  448MOL0     C59049   5.806  10.220   9.736 -0.1052 -0.7645  0.2241
  448MOL0     C59050   5.692  10.141   9.717  0.5512  0.5860  0.4465
  448MOL0     O59051   5.349  10.185   9.476  0.0832 -0.4669  0.0298
  448MOL0     C59052   5.276   9.876   9.631 -0.3654 -0.7938 -0.7928
  448MOL0     C59053   5.181   9.775   9.635 -0.0875 -0.4907 -0.1530
  448MOL0     N59054   4.736   9.488   9.118  0.2931 -1.4113 -0.0160
  448MOL0     N59055   4.746   9.440   9.001  0.5665  0.0729  0.3533
  448MOL0     C59056   5.383   8.296   8.914  0.1102  0.6932  0.3817
  448MOL0     C59057   5.407   8.165   8.871 -0.1442 -0.2890 -0.4155
  448MOL0     C59058   5.295   7.772   8.638  0.6298  0.7151 -0.2962
  448MOL0     C59059   5.180   7.702   8.601  0.0382 -1.3080 -0.1629
  448MOL0     C59060   5.178   7.565   8.576 -0.0860  0.0399 -0.0962
  448MOL0     C59061   5.295   7.498   8.586 -0.1234  0.5332 -0.0172
  448MOL0     O59062   5.325   7.360   8.551 -0.3436  0.5126 -0.1385
  448MOL0     C59063   5.220   7.258   8.577 -0.5424  0.3221 -0.4596
  448MOL0     C59064   5.161   7.234   8.716 -0.0479  0.4728  0.4628
  448MOL0     C59065   5.276   7.216   8.826 -0.3071  0.2346  1.0555
  448MOL0     C59066   5.330   7.075   8.832  0.0933  0.4617 -0.9347
  448MOL0     C59067   5.259   7.006   8.937 -0.7744  0.3417 -1.1932
  448MOL0     C59068   5.222   6.947   9.040 -0.3160 -0.6452 -0.5438
  448MOL0     C59069   5.409   7.561   8.635 -0.7077  0.1095 -0.1136
  448MOL0     C59070   5.413   7.701   8.658  1.3160 -1.1571 -0.7818
  448MOL0     H59071   5.266   8.180   8.573 -0.5648  3.4995 -0.3848
  448MOL0     H59072   5.278   8.420   8.618  0.0004  1.8850  3.0041
  448MOL0     H59073   5.162   8.585   8.750 -1.3991 -0.1918  0.2303
  448MOL0     H59074   5.322   8.619   8.698 -2.0018  0.2998 -0.1132
  448MOL0     H59075   5.362   8.796   8.851  0.3073 -0.4700 -2.5228
  448MOL0     H59076   5.226   8.751   8.959  0.4598  0.4499 -0.4326
  448MOL0     H59077   5.071   8.803   8.817  1.4911 -4.0803  0.5220
  448MOL0     H59078   5.188   8.846   8.681  0.2675  2.5468  0.3837
  448MOL0     H59079   5.146   9.020   8.926  1.1944  1.0430  0.0198
  448MOL0     H59080   5.292   9.004   8.826  0.9071 -2.2605 -1.2913
  448MOL0     H59081   5.021   9.069   8.712 -0.6123  1.0293  0.8684
  448MOL0     H59082   5.177   9.080   8.640  0.0845  0.0668  1.0736
  448MOL0     H59083   5.147   9.311   8.681  0.3640 -0.1200 -0.5161
  448MOL0     H59084   5.266   9.251   8.782  0.1364  2.2480 -0.8608
  448MOL0     H59085   5.109   9.244   8.973  5.8849  1.9018  0.9489
  448MOL0     H59086   5.141   9.405   8.918 -2.2723  2.1396 -0.6760
  448MOL0     H59087   4.900   9.243   8.854  0.2015  0.0642 -0.1787
  448MOL0     H59088   4.911   9.419   8.796 -3.7006 -2.3272 -0.4660
  448MOL0     H59089   5.038   9.371   9.151 -1.7993 -1.6764  0.6621
  448MOL0     H59090   4.781   9.589   9.344 -0.7251 -0.6776 -3.4501
  448MOL0     H59091   4.958   9.591   9.319 -0.3922  0.7060  0.3115
  448MOL0     H59092   4.982   9.361   9.405 -0.3411 -1.8758 -0.9788
  448MOL0     H59093   4.804   9.355   9.409  1.9445 -4.2969  4.0773
  448MOL0     H59094   4.774   9.501   9.583 -0.2656 -0.3053 -1.1726
  448MOL0     H59095   4.894   9.374   9.636  4.9072  0.3475  0.0034
  448MOL0     H59096   5.073   9.533   9.589 -0.5810  1.2083 -2.8048
  448MOL0     H59097   4.971   9.578   9.729  1.0138 -3.0699  0.6614
  448MOL0     H59098   4.981   9.898   9.387  1.9826  4.7145 -0.8704
  448MOL0     H59099   5.149  10.079   9.405 -0.5526 -0.3082 -1.5272
  448MOL0     H59100   5.594  10.259   9.412  2.9105 -0.3066 -1.9484
  448MOL0     H59101   5.790  10.397   9.442 -2.5020 -0.4314 -0.9778
  448MOL0     H59102   5.870  10.533   9.786  1.5537 -0.9270  1.0706
  448MOL0     H59103   5.845  10.578   9.611 -2.5376 -0.2917  1.2220
  448MOL0     H59104   6.115  10.578   9.625  0.9180 -1.4004  0.7016
  448MOL0     H59105   6.077  10.541   9.790 -0.2955 -0.8815 -0.6391
  448MOL0     H59106   5.970  10.746   9.831 -1.0214  0.7800 -0.4885
  448MOL0     H59107   5.946  10.787   9.654  2.5547  3.7226 -0.5953
  448MOL0     H59108   6.120  10.905   9.795  0.4987  1.2474 -1.1444
  448MOL0     H59109   6.207  10.750   9.805  1.6913  0.6556 -2.0334
  448MOL0     H59110   6.184  10.957   9.595  0.2120 -0.7201 -1.0554
  448MOL0     H59111   6.158  10.791   9.539 -1.3524  1.4316 -0.5952
  448MOL0     H59112   6.390  10.839   9.514  0.3229 -1.0306 -0.3135
  448MOL0     H59113   6.389  10.741   9.655 -0.0644  0.8225  0.6835
  448MOL0     H59114   6.392  11.053   9.656  2.1064  0.2573 -0.8802
  448MOL0     H59115   6.410  10.953   9.802 -1.2940 -0.3136  0.2089
  448MOL0     H59116   6.629  11.050   9.731  2.1536 -1.5316  1.4549
  448MOL0     H59117   6.602  10.966   9.574  0.6049  0.1990  0.6834
  448MOL0     H59118   5.871  10.224   9.823  0.2768 -1.8792  0.0160
  448MOL0     H59119   5.652  10.072   9.791  0.7443  1.0009  0.9332
  448MOL0     H59120   5.363   9.867   9.696 -0.7392  0.6645 -0.0521
  448MOL0     H59121   5.193   9.715   9.725  4.0110  0.5511  0.1527
  448MOL0     H59122   5.417   8.326   9.013 -2.4174  0.4038  1.4122
  448MOL0     H59123   5.464   8.101   8.938  2.2705  0.4857 -1.6011
  448MOL0     H59124   5.088   7.760   8.594  1.6012  1.7621  2.3731
  448MOL0     H59125   5.091   7.516   8.534 -0.2582 -1.6660  2.0434
  448MOL0     H59126   5.251   7.158   8.546  1.2299  0.6892 -0.0060
  448MOL0     H59127   5.133   7.279   8.514 -0.3560 -0.4563 -0.9959
  448MOL0     H59128   5.099   7.322   8.734 -0.8403  0.0419 -0.1250
  448MOL0     H59129   5.096   7.147   8.722  1.3781 -0.6796 -0.2435
  448MOL0     H59130   5.241   7.261   8.919 -2.1971 -0.1633  0.5710
  448MOL0     H59131   5.365   7.279   8.812  0.2634 -0.5706  0.9813
  448MOL0     H59132   5.316   7.024   8.736 -1.3277 -0.1039 -0.4629
  448MOL0     H59133   5.439   7.079   8.836  0.0163  2.1372  1.4966
  448MOL0     H59134   5.185   6.918   9.136 -1.2071 -0.7422 -0.9000
  448MOL0     H59135   5.499   7.500   8.639 -1.1090 -0.6037 -1.5413
  448MOL0     H59136   5.505   7.753   8.684 -1.0090  1.1899  4.2120
  449MOL0     O59137   7.095   8.587   4.287 -0.1720 -0.4736  0.3312
  449MOL0     C59138   7.072   8.533   4.184  1.1708  0.1435  0.6369
  449MOL0     O59139   6.985   8.582   4.088  0.9093  0.0746 -0.8785
  449MOL0     C59140   6.927   8.707   4.109  0.3194 -0.4760  0.3535
  449MOL0     C59141   6.786   8.719   4.140  0.1204 -0.4284  0.5614
  449MOL0     C59142   6.725   8.845   4.120 -0.2430  0.1338 -1.5455
  449MOL0     C59143   6.808   8.959   4.104  0.3630 -0.4049 -0.8406
  449MOL0     O59144   6.731   9.074   4.104 -0.2147  1.2574  0.3741
  449MOL0     C59145   6.795   9.180   4.173  0.2237  0.3120  0.2988
  449MOL0     C59146   6.687   9.283   4.191 -0.5823 -0.0355 -0.6886
  449MOL0     C59147   6.754   9.411   4.246 -1.1776  0.0559 -0.8050
  449MOL0     C59148   6.645   9.505   4.272  0.3664  0.1753 -0.7790
  449MOL0     C59149   6.685   9.629   4.355 -0.6517 -0.4505 -0.7481
  449MOL0     C59150   6.576   9.700   4.430  0.1892 -0.3031 -0.1720
  449MOL0     C59151   6.614   9.844   4.472 -0.5288  0.1108 -1.1011
  449MOL0     C59152   6.727   9.849   4.573  0.1836  0.5157  0.4116
  449MOL0     N59153   6.772   9.982   4.610  0.9261  0.7620 -0.1499
  449MOL0     C59154   6.723  10.103   4.581 -0.0593 -0.4103  0.5573
  449MOL0     C59155   6.814  10.194   4.634  0.3039  1.3443 -0.3729
  449MOL0     C59156   6.814  10.343   4.619  0.5093  0.0005  0.4885
  449MOL0     C59157   6.767  10.416   4.759 -0.6168 -0.2189  0.7432
  449MOL0     C59158   6.631  10.470   4.756  0.9525  0.0258 -0.1361
  449MOL0     C59159   6.601  10.542   4.887  0.2214 -0.3877 -0.2272
  449MOL0     O59160   6.654  10.670   4.900  0.5932 -0.8267 -0.8055
  449MOL0     C59161   6.590  10.773   4.964  0.0318 -0.2590 -0.0557
  449MOL0     C59162   6.455  10.783   4.974 -0.5014  0.2540  0.0392
  449MOL0     C59163   6.389  10.891   5.036 -0.4983 -0.6057 -0.8950
  449MOL0     C59164   6.470  11.004   5.079  0.4564  1.1517 -0.6924
  449MOL0     C59165   6.419  11.123   5.150  0.2166  0.3796 -0.9770
  449MOL0     O59166   6.501  11.234   5.145  0.2110  0.5363 -0.2781
  449MOL0     C59167   6.491  11.350   5.216  0.3877 -0.4792 -0.7325
  449MOL0     C59168   6.572  11.453   5.172 -0.3126  1.0712  0.3211
  449MOL0     C59169   6.574  11.575   5.239  0.0774  0.4590 -0.1279
  449MOL0     C59170   6.498  11.602   5.358  0.3712  0.8714  0.1138
  449MOL0     O59171   6.470  11.720   5.424  0.0346 -0.6158  0.5106
  449MOL0     C59172   6.579  11.814   5.421 -0.2517  0.5456  1.0588
  449MOL0     C59173   6.526  11.949   5.459  0.2983 -0.9367  0.3793
  449MOL0     C59174   6.618  12.062   5.415 -1.1541 -0.4584  0.7112
  449MOL0     C59175   6.570  12.195   5.459  0.7816  0.9837  0.6333
  449MOL0     C59176   6.459  12.260   5.367 -0.1637 -0.5770  0.6288
  449MOL0     C59177   6.451  12.413   5.372 -0.1585  0.0460  0.4911
  449MOL0     C59178   6.362  12.483   5.270  0.5414  0.1721 -0.0590
  449MOL0     C59179   6.210  12.453   5.319 -0.5195  0.1229 -0.0220
  449MOL0    Cl59180   6.151  12.315   5.233  0.6959 -0.0972 -0.4167
  449MOL0     C59181   6.430  11.487   5.403 -0.7628 -0.1036 -0.4528
  449MOL0     C59182   6.419  11.363   5.337  0.0091 -0.0839  0.0099
  449MOL0     O59183   6.315  11.108   5.214  0.4486 -0.3959  0.3522
  449MOL0     C59184   6.614  10.983   5.063  0.3136  0.0079 -0.4374
  449MOL0     C59185   6.672  10.870   5.008  1.2987 -0.0204 -1.0436
  449MOL0     N59186   6.911  10.122   4.700 -0.4424 -0.2380 -0.7388
  449MOL0     N59187   6.876  10.000   4.697 -0.0868 -1.2158  0.6092
  449MOL0     C59188   6.952   8.951   4.095  0.3886  0.5108  0.8148
  449MOL0     C59189   7.007   8.823   4.107  0.1879 -0.5063  0.2951
  449MOL0     C59190   7.134   8.399   4.151 -0.8225  0.7636  0.1397
  449MOL0     C59191   7.084   8.321   4.048  0.2852  0.1635  0.2941
  449MOL0     C59192   7.158   8.216   3.988  0.4841  0.1976  0.1228
  449MOL0     C59193   7.278   8.169   4.046  1.0249  0.7765  0.0400
  449MOL0     O59194   7.331   8.044   4.012 -0.3025 -0.6610  0.4328
  449MOL0     C59195   7.442   8.049   3.925  0.5481  0.3246 -0.3945
  449MOL0     C59196   7.428   7.921   3.855  0.2978  0.8319 -0.6372
  449MOL0     C59197   7.508   7.915   3.726 -0.4098 -0.8345  0.1456
  449MOL0     C59198   7.659   7.943   3.727  0.7428 -0.0741  0.7771
  449MOL0     C59199   7.721   7.840   3.800 -0.9711 -0.0107 -0.6040
  449MOL0     C59200   7.776   7.752   3.861  0.1518 -0.5599 -1.0580
  449MOL0     C59201   7.334   8.244   4.144  0.6943 -0.3712  0.2760
  449MOL0     C59202   7.264   8.359   4.197  0.3367  0.0026 -0.8412
  449MOL0     H59203   6.736   8.624   4.160  0.9084 -1.7423 -2.9133
  449MOL0     H59204   6.618   8.862   4.119  0.2753  5.3130  0.0556
  449MOL0     H59205   6.883   9.220   4.124  1.4251 -1.7361  0.6385
  449MOL0     H59206   6.838   9.151   4.270  1.1922 -1.1332 -0.5221
  449MOL0     H59207   6.619   9.243   4.267 -0.7947  3.5194  1.2075
  449MOL0     H59208   6.621   9.305   4.106 -3.4756  1.9093  1.8155
  449MOL0     H59209   6.825   9.448   4.172  0.7055  2.5660  2.0030
  449MOL0     H59210   6.816   9.388   4.334 -0.3306 -1.0486 -1.6596
  449MOL0     H59211   6.600   9.528   4.175 -3.7022 -3.5587 -0.0833
  449MOL0     H59212   6.561   9.463   4.328  1.5464  2.1146  2.8011
  449MOL0     H59213   6.737   9.696   4.285  1.3703 -1.3587 -0.1815
  449MOL0     H59214   6.753   9.599   4.434 -0.0675  4.3192  0.9004
  449MOL0     H59215   6.546   9.655   4.525 -1.2708 -0.6765 -0.7886
  449MOL0     H59216   6.495   9.706   4.357 -0.1649  2.5513  0.3302
  449MOL0     H59217   6.642   9.903   4.384  1.5293  0.0231 -0.5506
  449MOL0     H59218   6.524   9.887   4.517  0.3029 -3.0137  4.4685
  449MOL0     H59219   6.815   9.795   4.538  0.5582  0.8769  0.7969
  449MOL0     H59220   6.686   9.787   4.653 -4.8264 -0.1751 -2.2063
  449MOL0     H59221   6.629  10.127   4.534  0.0502  1.2123  1.1255
  449MOL0     H59222   6.750  10.380   4.539 -1.0826 -1.2196  1.1490
  449MOL0     H59223   6.917  10.369   4.590  1.0728 -3.6637 -1.4025
  449MOL0     H59224   6.831  10.504   4.775 -0.3188 -0.3026  0.0530
  449MOL0     H59225   6.793  10.352   4.843 -0.0913 -0.2462  0.5647
  449MOL0     H59226   6.624  10.539   4.672 -0.5004  0.5931  0.4081
  449MOL0     H59227   6.567  10.384   4.735  3.1480 -1.2168 -2.2003
  449MOL0     H59228   6.644  10.476   4.962  1.1613 -0.3569 -0.7281
  449MOL0     H59229   6.492  10.556   4.892 -0.3400 -2.6793 -3.1214
  449MOL0     H59230   6.381  10.712   4.939 -2.3656  2.3467 -0.4944
  449MOL0     H59231   6.281  10.887   5.039 -0.4849 -0.5499  1.6023
  449MOL0     H59232   6.631  11.445   5.081  0.7108  0.8265  0.9962
  449MOL0     H59233   6.631  11.656   5.194 -0.9677  1.3321  0.1025
  449MOL0     H59234   6.618  11.843   5.323 -1.3952  0.8249  0.6654
  449MOL0     H59235   6.652  11.779   5.494 -1.7862 -0.4037  2.1777
  449MOL0     H59236   6.501  11.951   5.565 -2.2642  3.6319 -0.0461
  449MOL0     H59237   6.427  11.968   5.417  0.7812  1.4796  0.1657
  449MOL0     H59238   6.620  12.068   5.305  0.3816 -0.8438  0.6945
  449MOL0     H59239   6.722  12.055   5.449 -0.2651  0.3264 -1.5842
  449MOL0     H59240   6.531  12.179   5.560 -2.3907 -0.0039 -0.6196
  449MOL0     H59241   6.650  12.269   5.462  2.0074 -0.0255 -2.7289
  449MOL0     H59242   6.361  12.221   5.397 -0.6448 -1.0362 -1.3913
  449MOL0     H59243   6.469  12.237   5.261 -0.1019 -1.9252  0.9069
  449MOL0     H59244   6.556  12.435   5.353 -0.3574  0.0295 -0.7275
  449MOL0     H59245   6.422  12.455   5.469 -1.2386 -0.0751  0.2325
  449MOL0     H59246   6.382  12.590   5.257 -1.0199  0.5683  0.6087
  449MOL0     H59247   6.376  12.448   5.168 -0.7200 -0.2540 -0.0936
  449MOL0     H59248   6.147  12.541   5.301 -0.6319 -0.0392 -0.4395
  449MOL0     H59249   6.208  12.444   5.428 -0.4136 -0.3336 -0.0556
  449MOL0     H59250   6.372  11.483   5.495 -0.9743 -0.3699 -0.5935
  449MOL0     H59251   6.352  11.285   5.372 -0.2991  0.3385  0.3745
  449MOL0     H59252   6.681  11.054   5.110 -1.0899  0.4516  0.9846
  449MOL0     H59253   6.778  10.857   5.026  0.8253 -1.4693  1.2635
  449MOL0     H59254   7.023   9.032   4.082  1.0105  0.0846  1.5350
  449MOL0     H59255   7.116   8.816   4.101  0.1379 -0.6232 -4.3958
  449MOL0     H59256   6.981   8.341   4.018 -0.5020  2.5535  3.9732
  449MOL0     H59257   7.109   8.162   3.907 -0.8043  2.7521 -0.9116
  449MOL0     H59258   7.536   8.051   3.982 -0.0156  2.2886  0.5782
  449MOL0     H59259   7.430   8.137   3.861 -4.1888  0.0837 -0.1321
  449MOL0     H59260   7.463   7.834   3.912 -0.1806  0.8877 -0.2477
  449MOL0     H59261   7.326   7.889   3.832  0.4895  1.2015 -2.0823
  449MOL0     H59262   7.456   7.982   3.656  1.8354  0.8039 -0.0889
  449MOL0     H59263   7.493   7.813   3.691  1.2445 -0.5241 -1.7037
  449MOL0     H59264   7.708   7.944   3.629  2.1967 -0.5138  1.4700
  449MOL0     H59265   7.684   8.037   3.777 -2.1969  1.0334  0.3557
  449MOL0     H59266   7.824   7.673   3.915 -2.2889 -0.7873  0.9725
  449MOL0     H59267   7.430   8.208   4.180  1.3832 -0.1384 -1.2662
  449MOL0     H59268   7.307   8.418   4.277 -0.7194 -1.5765  0.9707
  450MOL0     O59269   4.406   1.390   0.301 -0.6326  0.0341  0.1601
  450MOL0     C59270   4.325   1.466   0.242 -0.7123  0.2843  0.2436
  450MOL0     O59271   4.296   1.462   0.112  0.5227 -0.1997  0.9204
  450MOL0     C59272   4.379   1.402   0.019  0.8271  0.3424  0.5611
  450MOL0     C59273   4.324   1.291  -0.051  0.8472  0.4009 -0.0098
  450MOL0     C59274   4.397   1.236  -0.156  0.1654 -0.1010  0.2661
  450MOL0     C59275   4.530   1.270  -0.169  0.8866  0.2284 -0.4689
  450MOL0     O59276   4.605   1.214  -0.263  1.0630  0.7959 -0.2906
  450MOL0     C59277   4.655   1.293  -0.370  0.6032  0.3300 -0.2748
  450MOL0     C59278   4.626   1.237  -0.509 -0.4173 -0.8716 -0.6232
  450MOL0     C59279   4.599   1.333  -0.624  0.8274 -0.9333  0.2601
  450MOL0     C59280   4.500   1.444  -0.594  0.3124 -0.5086 -0.5327
  450MOL0     C59281   4.441   1.509  -0.726 -0.8547 -0.8983 -0.0651
  450MOL0     C59282   4.345   1.621  -0.701 -0.5425 -0.1918 -0.0217
  450MOL0     C59283   4.300   1.662  -0.838  1.0641  0.5656  0.1763
  450MOL0     C59284   4.222   1.794  -0.838  0.1706  0.0892  0.4664
  450MOL0     N59285   4.085   1.777  -0.807 -0.4697 -0.2604  1.4788
  450MOL0     C59286   3.982   1.754  -0.889  1.0206  0.1981  0.1253
  450MOL0     C59287   3.872   1.738  -0.797 -1.1573 -1.1340 -0.6491
  450MOL0     C59288   3.725   1.698  -0.825 -0.8498 -0.2800 -0.1175
  450MOL0     C59289   3.624   1.803  -0.765 -0.1233  1.0110 -0.1903
  450MOL0     C59290   3.474   1.777  -0.796 -0.2044  0.6233 -0.0616
  450MOL0     C59291   3.383   1.819  -0.684  0.0295  0.7471  0.4044
  450MOL0     O59292   3.366   1.958  -0.690  0.1243  0.0348 -0.2011
  450MOL0     C59293   3.340   2.031  -0.573  0.3644 -0.1241 -0.4514
  450MOL0     C59294   3.369   2.176  -0.570 -0.1313 -0.2024  0.4978
  450MOL0     C59295   3.338   2.257  -0.466 -0.2201  0.2839 -0.4769
  450MOL0     C59296   3.266   2.198  -0.358 -0.0561  0.8563  0.9883
  450MOL0     C59297   3.201   2.276  -0.243 -0.3241 -0.0879  0.8145
  450MOL0     O59298   3.136   2.207  -0.156  0.2439 -0.4603  0.3156
  450MOL0     C59299   3.034   2.259  -0.078  0.1443  0.3810  0.3168
  450MOL0     C59300   2.988   2.177   0.028 -0.7519  0.2319  0.9200
  450MOL0     C59301   2.888   2.214   0.115  0.5318 -0.9325 -0.3036
  450MOL0     C59302   2.831   2.339   0.106 -0.2826 -0.6203  0.6573
  450MOL0     O59303   2.743   2.375   0.205  0.3575  0.4225 -0.5795
  450MOL0     C59304   2.709   2.508   0.225  0.0193 -0.1944  0.9869
  450MOL0     C59305   2.630   2.513   0.350 -0.1086 -0.5369 -0.3765
  450MOL0     C59306   2.577   2.651   0.390 -0.4732  0.6052  0.2886
  450MOL0     C59307   2.500   2.646   0.530 -0.3914  0.0148  0.0744
  450MOL0     C59308   2.493   2.790   0.582  0.1731 -0.5666  0.3118
  450MOL0     C59309   2.381   2.877   0.521 -0.2935 -0.1978  0.6689
  450MOL0     C59310   2.248   2.840   0.573 -0.6867  0.6218 -0.8960
  450MOL0     C59311   2.135   2.914   0.494 -1.0119  0.4521  0.4385
  450MOL0    Cl59312   1.977   2.863   0.566  0.0957 -0.3827  0.0142
  450MOL0     C59313   2.868   2.422  -0.002  0.1218 -0.3709 -0.4035
  450MOL0     C59314   2.974   2.386  -0.087 -0.2000 -0.1309  0.1597
  450MOL0     O59315   3.214   2.402  -0.243 -0.5168 -0.4039  0.5684
  450MOL0     C59316   3.241   2.061  -0.353  0.2179 -0.1777 -0.3258
  450MOL0     C59317   3.265   1.980  -0.464  0.4409  0.0284 -0.4104
  450MOL0     N59318   3.919   1.779  -0.670  0.7233 -0.3418  0.7464
  450MOL0     N59319   4.044   1.791  -0.680  0.5466 -0.8153  0.1331
  450MOL0     C59320   4.591   1.362  -0.089  1.4325  0.0073  0.2039
  450MOL0     C59321   4.508   1.434  -0.009  0.4049  0.4002 -0.2332
  450MOL0     C59322   4.225   1.534   0.329 -0.1786  0.1039  0.0943
  450MOL0     C59323   4.171   1.461   0.438  0.2330 -0.4621 -0.5390
  450MOL0     C59324   4.071   1.530   0.521 -0.2431  0.2749 -0.2618
  450MOL0     C59325   4.017   1.656   0.493  0.2649 -0.3927  0.3164
  450MOL0     O59326   3.921   1.717   0.565 -0.0635  0.5257 -0.2791
  450MOL0     C59327   3.787   1.722   0.516 -0.4450 -0.2267  0.8117
  450MOL0     C59328   3.776   1.793   0.369 -0.3954  0.7584 -0.2921
  450MOL0     C59329   3.626   1.809   0.334 -0.0751 -0.8890  0.3289
  450MOL0     C59330   3.620   1.787   0.178 -1.0413 -0.2383 -0.4774
  450MOL0     C59331   3.495   1.829   0.118  0.0550  0.2111  0.6439
  450MOL0     C59332   3.393   1.859   0.060  0.6172  1.2961 -0.6620
  450MOL0     C59333   4.083   1.730   0.390 -0.1621 -0.8764 -0.2628
  450MOL0     C59334   4.187   1.675   0.313 -0.3053 -0.0129 -0.0602
  450MOL0     H59335   4.224   1.256  -0.030  1.4778 -1.8199 -0.3637
  450MOL0     H59336   4.349   1.166  -0.224  0.3491  1.8598 -2.0006
  450MOL0     H59337   4.761   1.322  -0.372  0.2140  1.9093 -2.8862
  450MOL0     H59338   4.613   1.393  -0.371 -1.9144 -0.6477 -2.1141
  450MOL0     H59339   4.546   1.163  -0.501 -0.5288 -0.7327 -0.4616
  450MOL0     H59340   4.710   1.169  -0.530  1.5697  1.1880  0.2411
  450MOL0     H59341   4.554   1.276  -0.706 -1.1822 -1.3442  1.5982
  450MOL0     H59342   4.690   1.388  -0.651 -0.4737  1.1484 -0.0572
  450MOL0     H59343   4.418   1.408  -0.532 -1.4499 -0.1742 -2.5531
  450MOL0     H59344   4.559   1.522  -0.545  2.6029 -0.4260 -3.1420
  450MOL0     H59345   4.387   1.429  -0.777  0.5446 -1.1248 -1.2478
  450MOL0     H59346   4.521   1.552  -0.787 -1.7187  1.1320  0.1569
  450MOL0     H59347   4.399   1.702  -0.651  1.4254 -1.4745  0.0702
  450MOL0     H59348   4.271   1.595  -0.624 -1.6593  3.6605  0.4107
  450MOL0     H59349   4.374   1.657  -0.919  0.1989  0.4106 -0.6274
  450MOL0     H59350   4.223   1.592  -0.873 -0.2235  2.1095 -0.2140
  450MOL0     H59351   4.219   1.836  -0.939 -3.6352  0.2547  0.5063
  450MOL0     H59352   4.266   1.847  -0.752  4.6623 -2.3143 -0.0170
  450MOL0     H59353   3.967   1.732  -0.994 -0.9698  1.7083  0.0365
  450MOL0     H59354   3.715   1.599  -0.780  2.2229 -1.4043 -1.6006
  450MOL0     H59355   3.707   1.687  -0.933 -1.0220 -0.2476 -0.0929
  450MOL0     H59356   3.656   1.905  -0.791  3.0863 -0.4957 -2.9382
  450MOL0     H59357   3.638   1.792  -0.657  1.1939  0.8255 -0.3656
  450MOL0     H59358   3.446   1.820  -0.892  2.2343  0.7985 -0.7424
  450MOL0     H59359   3.456   1.670  -0.809 -1.2651  0.8327 -0.4464
  450MOL0     H59360   3.429   1.789  -0.589  0.3652 -1.9436 -0.5081
  450MOL0     H59361   3.290   1.762  -0.698  0.2464  0.5096 -0.0835
  450MOL0     H59362   3.413   2.226  -0.655  0.4441  0.6737  1.2787
  450MOL0     H59363   3.361   2.362  -0.478  1.6407  0.0117  0.4571
  450MOL0     H59364   3.039   2.088   0.062  2.0478  0.6078 -1.8338
  450MOL0     H59365   2.849   2.148   0.191 -4.9764  0.2242 -1.6819
  450MOL0     H59366   2.641   2.551   0.151 -0.0176  1.7917  2.1137
  450MOL0     H59367   2.792   2.578   0.237 -1.5037  1.6667  1.0854
  450MOL0     H59368   2.692   2.480   0.434 -0.7725 -0.7599  0.0305
  450MOL0     H59369   2.543   2.448   0.337 -0.0488 -0.1892 -3.0435
  450MOL0     H59370   2.513   2.690   0.311 -2.6635 -0.8617  1.2473
  450MOL0     H59371   2.664   2.717   0.403  1.9186 -2.4001  0.8412
  450MOL0     H59372   2.398   2.606   0.532 -0.2968 -0.9284 -4.0214
  450MOL0     H59373   2.564   2.590   0.599  1.4716 -0.0655 -1.6226
  450MOL0     H59374   2.586   2.847   0.576  0.1275 -0.3874  1.1949
  450MOL0     H59375   2.475   2.784   0.690 -1.7520 -1.7362 -0.0325
  450MOL0     H59376   2.372   2.856   0.414 -1.3172 -1.3885  0.9687
  450MOL0     H59377   2.402   2.985   0.520  0.6184 -0.3678 -0.4548
  450MOL0     H59378   2.225   2.733   0.575  1.2178  0.1551 -1.9876
  450MOL0     H59379   2.239   2.870   0.678 -2.0430 -3.6216  0.4075
  450MOL0     H59380   2.137   2.884   0.388 -0.2707  2.0415 -0.0347
  450MOL0     H59381   2.147   3.023   0.493 -1.7165  0.5845  2.4428
  450MOL0     H59382   2.824   2.521  -0.009  1.2065  0.5274  3.2632
  450MOL0     H59383   2.988   2.456  -0.169 -2.9300 -1.1282 -1.2476
  450MOL0     H59384   3.204   2.006  -0.267 -0.2080  2.3538  1.2285
  450MOL0     H59385   3.224   1.881  -0.443 -2.2611  1.2310  0.3992
  450MOL0     H59386   4.695   1.389  -0.106  1.4547 -0.2630 -0.0850
  450MOL0     H59387   4.555   1.527   0.023  0.8923  0.7809 -1.9919
  450MOL0     H59388   4.188   1.356   0.458 -1.6477 -1.1261 -2.0917
  450MOL0     H59389   4.050   1.468   0.608 -0.7546 -0.5066 -0.9240
  450MOL0     H59390   3.718   1.758   0.593 -0.6736  0.2764  0.3802
  450MOL0     H59391   3.763   1.615   0.518  0.2181 -0.5765 -2.7859
  450MOL0     H59392   3.813   1.895   0.384  0.4056  0.7988 -2.2758
  450MOL0     H59393   3.846   1.751   0.297  1.3866 -0.1707  1.8651
  450MOL0     H59394   3.582   1.906   0.361 -1.5106 -0.7218 -2.2790
  450MOL0     H59395   3.567   1.730   0.383  1.1016 -0.6395  2.2594
  450MOL0     H59396   3.709   1.835   0.137  1.0710 -1.1148  2.7699
  450MOL0     H59397   3.642   1.681   0.164  3.5999  0.1896  1.7065
  450MOL0     H59398   3.296   1.890   0.027  0.7016  4.0844  1.2844
  450MOL0     H59399   4.050   1.831   0.371  0.5589 -0.5646  0.1038
  450MOL0     H59400   4.213   1.737   0.228 -0.8543 -2.6332 -2.2794
  451MOL0     O59401   2.133   2.635   0.270  0.2004 -0.0776  0.0089
  451MOL0     C59402   2.033   2.564   0.267  0.1087  0.4010  0.8248
  451MOL0     O59403   2.023   2.434   0.311 -0.4506  0.5470 -0.5239
  451MOL0     C59404   2.116   2.398   0.397 -0.2493 -0.5526 -0.0952
  451MOL0     C59405   2.123   2.464   0.522 -0.3207  0.6631  1.0927
  451MOL0     C59406   2.223   2.428   0.614  0.8377 -0.2899  0.7053
  451MOL0     C59407   2.302   2.309   0.593 -0.4106 -0.5572  0.2552
  451MOL0     O59408   2.397   2.271   0.684  0.1647 -0.0937 -0.3006
  451MOL0     C59409   2.524   2.225   0.635  0.4014  0.0464 -0.7684
  451MOL0     C59410   2.633   2.241   0.739 -0.2071  0.0921  0.3585
  451MOL0     C59411   2.771   2.207   0.679 -0.3672  0.2387 -0.7042
  451MOL0     C59412   2.876   2.238   0.794 -0.0396 -0.1134  0.8995
  451MOL0     C59413   3.015   2.219   0.714 -0.4708  0.3241 -0.0214
  451MOL0     C59414   3.135   2.211   0.815  0.2740 -0.1054 -0.4837
  451MOL0     C59415   3.173   2.338   0.874  0.7066 -0.3121  0.3444
  451MOL0     C59416   3.309   2.329   0.947 -0.4162  0.4646 -0.5603
  451MOL0     N59417   3.293   2.260   1.072  0.2440 -0.1967  0.7756
  451MOL0     C59418   3.247   2.315   1.186 -1.0498  0.5521  0.2110
  451MOL0     C59419   3.257   2.214   1.275 -0.5739  0.5044  0.4942
  451MOL0     C59420   3.253   2.223   1.424 -0.3264 -0.7487  0.2841
  451MOL0     C59421   3.403   2.250   1.461  1.2118  0.0799  0.5260
  451MOL0     C59422   3.418   2.309   1.597  0.5195 -1.0292  0.3251
  451MOL0     C59423   3.389   2.218   1.714  0.3143  0.9103 -0.3282
  451MOL0     O59424   3.446   2.282   1.829 -0.4173 -0.7954 -0.4782
  451MOL0     C59425   3.417   2.229   1.951 -0.6643 -0.3148  1.1770
  451MOL0     C59426   3.419   2.315   2.061  0.4823 -0.0101 -0.0410
  451MOL0     C59427   3.371   2.268   2.182  0.2339 -0.7222 -0.2559
  451MOL0     C59428   3.341   2.131   2.207  0.6199 -0.0850  0.0831
  451MOL0     C59429   3.306   2.084   2.335  0.0989  0.0354  0.0836
  451MOL0     O59430   3.223   1.975   2.331  0.0548  0.3056  0.5959
  451MOL0     C59431   3.172   1.914   2.445  0.4800  0.2453 -0.4725
  451MOL0     C59432   3.149   1.975   2.571  0.2750  0.8942  0.0689
  451MOL0     C59433   3.121   1.901   2.680 -0.3936  0.9558 -1.1979
  451MOL0     C59434   3.105   1.758   2.678 -0.1113 -1.4434 -0.3410
  451MOL0     O59435   3.096   1.699   2.796 -0.1747  0.4795 -0.2196
  451MOL0     C59436   3.029   1.577   2.802 -0.5037 -0.0349 -0.0395
  451MOL0     C59437   3.063   1.499   2.936 -0.9686 -1.2720  0.2096
  451MOL0     C59438   2.956   1.398   2.988  0.0988  0.3665  0.4543
  451MOL0     C59439   2.830   1.480   3.035  0.1307  0.7714  0.5535
  451MOL0     C59440   2.759   1.394   3.145 -0.5863 -0.0866 -0.2769
  451MOL0     C59441   2.694   1.271   3.080  0.5166 -0.6557  0.6999
  451MOL0     C59442   2.662   1.172   3.194  0.2963 -0.7689 -0.1672
  451MOL0     C59443   2.775   1.068   3.208  0.6357  0.5733  0.2506
  451MOL0    Cl59444   2.774   0.990   3.377 -0.2734  0.0314 -0.3440
  451MOL0     C59445   3.122   1.698   2.554 -0.0761 -0.0314  1.0189
  451MOL0     C59446   3.150   1.778   2.438  0.2125  0.4550 -0.2025
  451MOL0     O59447   3.320   2.165   2.428 -0.6858  0.7683 -0.5915
  451MOL0     C59448   3.338   2.040   2.095 -0.2116  0.2863  0.6112
  451MOL0     C59449   3.383   2.096   1.975  0.8116  0.8045 -0.2601
  451MOL0     N59450   3.272   2.095   1.204  0.3366 -0.1573 -0.5440
  451MOL0     N59451   3.300   2.124   1.084 -0.7176  0.9884 -1.0204
  451MOL0     C59452   2.279   2.241   0.469 -0.3142 -0.0718  0.3113
  451MOL0     C59453   2.193   2.282   0.371  0.9274 -0.5000  0.6883
  451MOL0     C59454   1.910   2.626   0.217  0.7397 -0.4587  0.9454
  451MOL0     C59455   1.787   2.564   0.215  0.9249 -0.2707 -1.1610
  451MOL0     C59456   1.668   2.619   0.159 -1.2680 -0.3053  0.0805
  451MOL0     C59457   1.671   2.738   0.094 -0.3559 -0.0952  0.2652
  451MOL0     O59458   1.561   2.778   0.038  0.2151 -1.0284 -1.1650
  451MOL0     C59459   1.560   2.855  -0.082  0.1699 -0.0888  0.5967
  451MOL0     C59460   1.423   2.832  -0.148 -0.4000 -0.0884 -0.5282
  451MOL0     C59461   1.295   2.870  -0.056  0.1968 -0.0210  0.7461
  451MOL0     C59462   1.318   3.006   0.017  0.9149  1.0591 -0.1631
  451MOL0     C59463   1.184   3.071   0.020  0.7641  0.2276 -0.0787
  451MOL0     C59464   1.071   3.113   0.023  0.2337  0.0160  0.2219
  451MOL0     C59465   1.792   2.811   0.093  0.5390 -0.5863  0.0301
  451MOL0     C59466   1.910   2.753   0.147  0.4190 -0.2863 -0.3280
  451MOL0     H59467   2.059   2.552   0.528  2.4234  2.9201 -0.3195
  451MOL0     H59468   2.237   2.481   0.707 -2.4738 -2.6474  2.7516
  451MOL0     H59469   2.552   2.290   0.551 -1.9066  0.9183 -0.9257
  451MOL0     H59470   2.516   2.118   0.611  0.0651  0.2496 -1.5963
  451MOL0     H59471   2.616   2.170   0.821 -1.3692 -4.2287 -3.2181
  451MOL0     H59472   2.636   2.341   0.782  1.8728 -0.0996  0.7538
  451MOL0     H59473   2.793   2.274   0.595  0.2945  0.5374 -0.3000
  451MOL0     H59474   2.787   2.104   0.643  1.6730 -0.5803  2.2035
  451MOL0     H59475   2.863   2.335   0.842 -1.5188 -1.1868  2.8161
  451MOL0     H59476   2.868   2.159   0.869 -1.7834  0.8515  1.7867
  451MOL0     H59477   3.039   2.307   0.654  0.2489  0.2164  0.0937
  451MOL0     H59478   3.008   2.126   0.657 -2.5311 -1.8962  3.4504
  451MOL0     H59479   3.221   2.176   0.757  0.2352 -2.9918  1.0121
  451MOL0     H59480   3.107   2.134   0.888  0.0670  1.4196  1.1037
  451MOL0     H59481   3.186   2.423   0.807 -3.4244  1.0890  1.0356
  451MOL0     H59482   3.089   2.369   0.937  1.4695  2.0265  0.3059
  451MOL0     H59483   3.360   2.420   0.977 -0.5826  0.4373 -0.1887
  451MOL0     H59484   3.375   2.280   0.875 -0.2609  1.6318 -1.2297
  451MOL0     H59485   3.221   2.419   1.204 -1.3705  0.2890  1.3645
  451MOL0     H59486   3.218   2.130   1.470 -2.4986 -0.6664 -1.0685
  451MOL0     H59487   3.181   2.301   1.450  1.9884  1.6462 -0.0939
  451MOL0     H59488   3.451   2.315   1.386  1.1155 -1.1360 -0.6360
  451MOL0     H59489   3.459   2.156   1.456  1.6830  0.2787  1.7001
  451MOL0     H59490   3.521   2.346   1.603  0.2786 -0.5649  2.1834
  451MOL0     H59491   3.353   2.397   1.601 -0.8365 -2.0487  2.0382
  451MOL0     H59492   3.436   2.119   1.714 -2.0381 -0.3177  1.6118
  451MOL0     H59493   3.281   2.199   1.711  0.5639 -0.8292  0.4937
  451MOL0     H59494   3.427   2.423   2.048 -6.1565  1.0497  1.0809
  451MOL0     H59495   3.379   2.343   2.260  0.8197  1.0788 -1.9292
  451MOL0     H59496   3.164   2.077   2.605 -1.4752  0.4976  2.2384
  451MOL0     H59497   3.105   1.960   2.769 -3.3099  0.1077 -1.0659
  451MOL0     H59498   3.059   1.515   2.717 -0.2575  0.4635 -0.3234
  451MOL0     H59499   2.921   1.595   2.802 -0.3203  1.2680  1.1082
  451MOL0     H59500   3.088   1.565   3.020  3.2825 -0.8020 -1.1786
  451MOL0     H59501   3.158   1.446   2.923  0.6392  0.6804  2.9660
  451MOL0     H59502   3.004   1.348   3.073 -3.6543 -1.4712  1.7123
  451MOL0     H59503   2.931   1.321   2.914  0.0430  1.9670 -1.2487
  451MOL0     H59504   2.856   1.582   3.063 -0.4375  1.7779 -2.2556
  451MOL0     H59505   2.763   1.492   2.950  0.6655 -0.2410 -0.0414
  451MOL0     H59506   2.679   1.457   3.184  1.7281  3.7165 -1.1885
  451MOL0     H59507   2.824   1.366   3.229  1.7479 -2.4644 -2.6945
  451MOL0     H59508   2.760   1.223   3.006 -1.5987  0.1197 -1.8693
  451MOL0     H59509   2.596   1.303   3.045  1.5004  1.9676  0.0800
  451MOL0     H59510   2.626   1.216   3.287 -1.3241  0.7786 -1.4673
  451MOL0     H59511   2.577   1.118   3.151 -1.6556 -0.1839  2.6680
  451MOL0     H59512   2.873   1.112   3.191  2.1642 -2.7330 -0.1778
  451MOL0     H59513   2.758   0.988   3.135 -0.8157 -0.0530  1.2045
  451MOL0     H59514   3.103   1.594   2.527 -1.1477  0.8970 -2.4056
  451MOL0     H59515   3.166   1.724   2.345  0.5913  1.9885 -1.0751
  451MOL0     H59516   3.312   1.935   2.103  1.0519 -0.2239 -1.4213
  451MOL0     H59517   3.399   2.039   1.884 -1.2896  3.7411 -2.6402
  451MOL0     H59518   2.324   2.144   0.450 -3.0799 -1.1216 -1.5599
  451MOL0     H59519   2.174   2.219   0.285  1.1242  2.6003 -1.7764
  451MOL0     H59520   1.774   2.462   0.251 -3.7758 -0.3757 -2.5500
  451MOL0     H59521   1.573   2.566   0.159 -0.9999 -0.8561  2.0986
  451MOL0     H59522   1.635   2.826  -0.156 -1.7967  0.8007 -1.9535
  451MOL0     H59523   1.581   2.960  -0.060 -1.5808 -0.1410  2.9094
  451MOL0     H59524   1.439   2.887  -0.241  2.0186  0.8420  0.3579
  451MOL0     H59525   1.411   2.725  -0.165  0.8518 -0.6029  1.4789
  451MOL0     H59526   1.274   2.791   0.017 -0.4723  0.0141  0.6024
  451MOL0     H59527   1.208   2.876  -0.122  0.1970  0.8110  0.8157
  451MOL0     H59528   1.348   2.987   0.120 -0.4604 -0.3349  0.0220
  451MOL0     H59529   1.384   3.076  -0.035  1.6465  0.3937 -0.1539
  451MOL0     H59530   0.967   3.139   0.028  0.6032  1.3183  2.4143
  451MOL0     H59531   1.793   2.905   0.039  0.2033 -0.6467 -0.0880
  451MOL0     H59532   2.008   2.796   0.128 -0.5661  1.9063 -0.6743
  452MOL0     O59533   3.609   0.876   6.281  0.4605  0.4517 -0.4680
  452MOL0     C59534   3.494   0.909   6.293  0.9041  0.3057  0.3496
  452MOL0     O59535   3.435   1.031   6.267 -0.7257  0.5308 -0.7319
  452MOL0     C59536   3.527   1.136   6.249  0.6774  0.5495  0.8020
  452MOL0     C59537   3.478   1.265   6.275  1.3774  1.2890  0.7238
  452MOL0     C59538   3.545   1.383   6.237  0.2705 -0.2040 -0.7106
  452MOL0     C59539   3.657   1.370   6.157 -0.2241 -0.0977  0.0692
  452MOL0     O59540   3.715   1.489   6.112 -0.0808  0.7208 -0.3664
  452MOL0     C59541   3.711   1.499   5.964  0.3648  0.6455 -0.1071
  452MOL0     C59542   3.762   1.634   5.922 -0.6403 -0.3422 -0.1334
  452MOL0     C59543   3.794   1.668   5.778 -0.1323  0.7975  0.9431
  452MOL0     C59544   3.893   1.793   5.779 -0.4669 -0.4613 -0.8451
  452MOL0     C59545   3.896   1.872   5.653  0.4592  0.8331 -0.0749
  452MOL0     C59546   3.767   1.939   5.610 -0.3543  0.5254 -0.3973
  452MOL0     C59547   3.740   1.939   5.462 -0.1331  0.8938 -0.5785
  452MOL0     C59548   3.588   1.971   5.431 -0.0786 -0.0989  1.3420
  452MOL0     N59549   3.567   1.984   5.279 -0.8772  0.1523  0.2290
  452MOL0     C59550   3.444   1.953   5.225 -0.2889 -0.2285  0.6213
  452MOL0     C59551   3.464   1.953   5.091  0.5147 -0.0187 -0.7300
  452MOL0     C59552   3.354   1.911   5.000  0.5489  0.0125  0.5303
  452MOL0     C59553   3.261   2.023   4.950  0.7355  0.3471  0.7617
  452MOL0     C59554   3.121   1.980   4.877 -1.1462 -0.3854  0.6407
  452MOL0     C59555   3.009   1.930   4.964  0.2940  1.8501  1.0305
  452MOL0     O59556   3.067   1.828   5.044  0.4854 -0.3521 -0.0199
  452MOL0     C59557   2.999   1.784   5.154  0.7030 -0.5579 -0.1951
  452MOL0     C59558   2.874   1.830   5.196  0.8890  0.3449 -0.3861
  452MOL0     C59559   2.805   1.756   5.294  0.6133  0.1756 -0.3166
  452MOL0     C59560   2.865   1.653   5.366 -0.4011 -0.0949 -0.0691
  452MOL0     C59561   2.769   1.566   5.444 -0.3421 -0.4369 -0.0575
  452MOL0     O59562   2.668   1.625   5.517 -0.4377  0.0613 -1.1233
  452MOL0     C59563   2.585   1.542   5.591 -1.1051 -0.5801  0.5090
  452MOL0     C59564   2.541   1.600   5.716 -0.0662 -0.1260 -1.1739
  452MOL0     C59565   2.459   1.536   5.802  0.2158 -0.1986  0.4264
  452MOL0     C59566   2.420   1.398   5.772 -0.6261 -0.1252  0.1469
  452MOL0     O59567   2.339   1.325   5.856  0.2272 -0.2009 -0.6877
  452MOL0     C59568   2.297   1.374   5.981  0.2714  1.4208 -0.6908
  452MOL0     C59569   2.185   1.290   6.045 -0.0436  0.4172 -0.3728
  452MOL0     C59570   2.151   1.334   6.192  0.5710  0.4849  0.1794
  452MOL0     C59571   2.052   1.249   6.259  0.0857 -0.2762 -0.8782
  452MOL0     C59572   1.938   1.216   6.191  1.2272 -0.3183  0.3925
  452MOL0     C59573   1.816   1.161   6.270 -0.2059  1.3309 -0.2494
  452MOL0     C59574   1.678   1.185   6.205 -0.1688  0.3001  0.5667
  452MOL0     C59575   1.553   1.162   6.274  0.4597  0.6339  0.6653
  452MOL0    Cl59576   1.407   1.153   6.175  0.1194 -0.2063 -0.0691
  452MOL0     C59577   2.464   1.342   5.655  0.0938  0.5485  0.1949
  452MOL0     C59578   2.546   1.411   5.562 -0.1104 -0.4962  0.3363
  452MOL0     O59579   2.804   1.448   5.456  0.7789 -0.3559 -0.3953
  452MOL0     C59580   2.994   1.621   5.340  0.0855 -0.3905 -0.8485
  452MOL0     C59581   3.066   1.691   5.237  0.4873 -0.1341 -0.5011
  452MOL0     N59582   3.593   1.987   5.064  0.8849 -0.3720 -0.6513
  452MOL0     N59583   3.650   2.023   5.174 -0.1510  0.1926 -0.0290
  452MOL0     C59584   3.704   1.250   6.123 -0.8456  1.1036  0.3436
  452MOL0     C59585   3.640   1.129   6.163 -1.2378 -0.8225 -0.2646
  452MOL0     C59586   3.403   0.801   6.334  0.4031  1.1204  0.4124
  452MOL0     C59587   3.445   0.667   6.338 -0.3336  0.3313 -0.7085
  452MOL0     C59588   3.353   0.567   6.385 -1.0973  0.0463 -1.1689
  452MOL0     C59589   3.228   0.599   6.418  0.7787 -0.4178  0.7740
  452MOL0     O59590   3.141   0.499   6.462  0.9570 -0.0800 -0.0299
  452MOL0     C59591   3.175   0.362   6.426 -0.0025 -0.1758 -0.2576
  452MOL0     C59592   3.205   0.322   6.286 -0.4649  0.1463  0.3566
  452MOL0     C59593   3.087   0.346   6.200 -0.0273 -0.3765  0.1572
  452MOL0     C59594   3.139   0.403   6.068  0.8576 -0.5936  0.2578
  452MOL0     C59595   3.022   0.412   5.978  0.3370 -0.5644 -0.0698
  452MOL0     C59596   2.912   0.425   5.922  0.0200  0.1675  0.4470
  452MOL0     C59597   3.179   0.726   6.411 -0.5832 -1.4013 -0.2878
  452MOL0     C59598   3.274   0.826   6.375 -0.1799  0.4205  0.4041
  452MOL0     H59599   3.389   1.274   6.337  1.1391 -1.4791  0.9222
  452MOL0     H59600   3.516   1.481   6.275 -3.0669 -1.2089 -0.3705
  452MOL0     H59601   3.602   1.497   5.954 -0.2030  3.8456  3.1960
  452MOL0     H59602   3.768   1.421   5.912  1.6295  1.9675 -0.7691
  452MOL0     H59603   3.858   1.637   5.974  1.0234  0.3604 -3.0102
  452MOL0     H59604   3.706   1.706   5.983 -1.5484 -2.7588  2.0780
  452MOL0     H59605   3.711   1.682   5.709  2.6486  2.0400 -2.4848
  452MOL0     H59606   3.863   1.592   5.741  0.1812  1.1646  0.7621
  452MOL0     H59607   3.846   1.862   5.850  1.9637  1.2358 -0.7534
  452MOL0     H59608   3.994   1.765   5.812  0.0781  3.3829  1.3069
  452MOL0     H59609   3.917   1.792   5.582 -2.7651  0.0601 -0.3255
  452MOL0     H59610   3.980   1.942   5.658  1.7397 -0.6891  0.4567
  452MOL0     H59611   3.776   2.042   5.646 -0.0950  1.7330 -3.6670
  452MOL0     H59612   3.682   1.894   5.664  1.5666 -3.4871 -0.3620
  452MOL0     H59613   3.806   2.017   5.422  2.3139  0.1139  1.6742
  452MOL0     H59614   3.774   1.841   5.426  1.3816  0.1868  2.4617
  452MOL0     H59615   3.562   2.065   5.481 -2.2881  2.6532 -4.0809
  452MOL0     H59616   3.529   1.893   5.479 -0.1207 -0.6870  0.3641
  452MOL0     H59617   3.359   1.915   5.282 -0.6848  0.1310  0.2831
  452MOL0     H59618   3.292   1.833   5.043 -0.5080  0.2060 -0.5790
  452MOL0     H59619   3.410   1.875   4.913  2.9251  1.1801  1.4803
  452MOL0     H59620   3.302   2.076   4.863 -1.8645 -0.5329 -1.1407
  452MOL0     H59621   3.236   2.107   5.015 -1.4462  0.9627 -0.7526
  452MOL0     H59622   3.093   2.073   4.826  0.9126 -0.4390 -0.7091
  452MOL0     H59623   3.152   1.912   4.796  0.3256  5.1270 -4.1066
  452MOL0     H59624   2.931   1.882   4.904  1.7745  2.1598 -1.2600
  452MOL0     H59625   2.975   2.025   5.005  1.3480  2.4978  0.4418
  452MOL0     H59626   2.837   1.923   5.154 -0.4319 -0.1016 -0.2489
  452MOL0     H59627   2.700   1.783   5.305  0.1244 -2.2174  1.8635
  452MOL0     H59628   2.559   1.706   5.733 -1.2956 -0.2824  1.5525
  452MOL0     H59629   2.440   1.593   5.892  3.3590 -0.0683  1.1280
  452MOL0     H59630   2.265   1.478   5.975 -0.3467  1.3782  1.1084
  452MOL0     H59631   2.380   1.382   6.052  0.5600  1.3980 -1.0249
  452MOL0     H59632   2.230   1.191   6.046 -1.1511 -0.1225 -1.3490
  452MOL0     H59633   2.098   1.290   5.979 -0.4312 -1.6335  0.0710
  452MOL0     H59634   2.111   1.435   6.207 -1.0384 -0.4498  2.8863
  452MOL0     H59635   2.245   1.333   6.248  0.3805  1.9406  0.5665
  452MOL0     H59636   2.102   1.156   6.288  1.3162  1.3320  2.7732
  452MOL0     H59637   2.028   1.301   6.353  0.6534  0.1750 -0.9720
  452MOL0     H59638   1.957   1.134   6.121 -2.3046 -3.7747  3.0521
  452MOL0     H59639   1.897   1.299   6.133 -1.2141 -0.7683  1.3647
  452MOL0     H59640   1.818   1.209   6.368  0.6006 -1.0159  0.9658
  452MOL0     H59641   1.820   1.055   6.296 -0.2357  0.2667 -3.9559
  452MOL0     H59642   1.671   1.281   6.154  1.5651  1.2401  2.0248
  452MOL0     H59643   1.675   1.122   6.116  0.4457  0.4118  0.4654
  452MOL0     H59644   1.554   1.236   6.354 -1.3776  1.1779  0.2338
  452MOL0     H59645   1.564   1.063   6.320 -3.5672  0.1612  0.9560
  452MOL0     H59646   2.438   1.241   5.628  0.8277 -1.2809  5.3307
  452MOL0     H59647   2.583   1.364   5.471  1.8917  0.9143  0.3444
  452MOL0     H59648   3.044   1.547   5.402  0.2800 -0.1472 -0.7146
  452MOL0     H59649   3.167   1.656   5.217  0.8066  1.5124 -2.1234
  452MOL0     H59650   3.798   1.233   6.071 -0.4536 -1.3665  1.6812
  452MOL0     H59651   3.697   1.041   6.133  0.0911 -0.1767  0.2695
  452MOL0     H59652   3.545   0.630   6.318 -1.0662 -0.4052 -3.4322
  452MOL0     H59653   3.392   0.468   6.406 -1.0676  0.6467  2.1543
  452MOL0     H59654   3.088   0.303   6.455 -0.4056 -0.3779 -1.8046
  452MOL0     H59655   3.263   0.325   6.481 -0.4387 -1.8105 -0.6063
  452MOL0     H59656   3.294   0.371   6.245 -1.5109  0.3485 -1.7921
  452MOL0     H59657   3.228   0.215   6.284 -0.7000  0.0964 -1.0310
  452MOL0     H59658   3.021   0.423   6.240 -1.7819 -1.9351  0.3948
  452MOL0     H59659   3.025   0.257   6.181 -1.9623  0.1747  3.2528
  452MOL0     H59660   3.196   0.497   6.069 -0.5964  0.3529  2.2192
  452MOL0     H59661   3.212   0.332   6.029 -0.7005 -1.5563 -1.0711
  452MOL0     H59662   2.815   0.426   5.877  0.6418  1.5045 -0.9586
  452MOL0     H59663   3.074   0.750   6.426 -0.9813 -2.1070 -1.7147
  452MOL0     H59664   3.250   0.932   6.367 -0.0275  0.4714  0.6074
  453MOL0     O59665   0.144   0.895   1.235 -0.7792  0.8091  0.7071
  453MOL0     C59666   0.252   0.854   1.185 -0.3227 -0.2766  0.9453
  453MOL0     O59667   0.274   0.828   1.055 -0.7805  0.2090 -0.1273
  453MOL0     C59668   0.175   0.847   0.959  0.6939  0.6230 -0.0621
  453MOL0     C59669   0.075   0.745   0.955  0.1092 -1.2362  0.2162
  453MOL0     C59670  -0.031   0.745   0.855 -0.2761 -1.1719  0.2034
  453MOL0     C59671  -0.027   0.854   0.768 -0.1391  0.3664  0.8058
  453MOL0     O59672  -0.134   0.866   0.677 -0.5827  0.0316  0.3916
  453MOL0     C59673  -0.096   0.900   0.544 -1.1373 -0.4971  0.2017
  453MOL0     C59674  -0.170   0.832   0.435  0.5050  0.9706  0.8314
  453MOL0     C59675  -0.108   0.680   0.412 -0.2094  0.5594 -0.1868
  453MOL0     C59676  -0.164   0.596   0.295 -0.4530 -0.9667  0.8213
  453MOL0     C59677  -0.088   0.464   0.265  0.1288  0.1814 -0.6454
  453MOL0     C59678  -0.077   0.374   0.395  0.4835 -0.4400  0.4867
  453MOL0     C59679  -0.218   0.313   0.452  0.2733  0.0643 -0.1908
  453MOL0     C59680  -0.278   0.215   0.353 -0.2830  1.1231 -0.0294
  453MOL0     N59681  -0.201   0.091   0.354  0.5358 -0.3335  0.3579
  453MOL0     C59682  -0.218  -0.003   0.448 -0.2610  0.1122  0.1580
  453MOL0     C59683  -0.127  -0.096   0.422 -0.3278  0.2646  0.7510
  453MOL0     C59684  -0.126  -0.232   0.485 -1.3210 -0.2934 -0.8723
  453MOL0     C59685  -0.234  -0.320   0.433 -0.5332 -1.1455 -0.9694
  453MOL0     C59686  -0.231  -0.450   0.502  0.0580 -0.0340 -0.3509
  453MOL0     C59687  -0.319  -0.563   0.435  0.1345 -0.6506 -0.0039
  453MOL0     O59688  -0.449  -0.569   0.492 -0.3533 -0.7425 -0.3925
  453MOL0     C59689  -0.483  -0.674   0.569 -1.0034  0.1027 -0.0491
  453MOL0     C59690  -0.614  -0.712   0.585  0.8451 -0.4114 -0.1439
  453MOL0     C59691  -0.648  -0.826   0.653 -0.3792  0.1056 -0.6210
  453MOL0     C59692  -0.560  -0.890   0.740 -0.0167 -0.2634  0.0810
  453MOL0     C59693  -0.607  -1.007   0.823 -0.5038 -0.3741  0.2928
  453MOL0     O59694  -0.743  -1.010   0.827  0.5917  0.8615  0.1279
  453MOL0     C59695  -0.802  -1.104   0.912 -0.0249  0.8740  0.6014
  453MOL0     C59696  -0.768  -1.122   1.046  0.0896  0.5299  0.9178
  453MOL0     C59697  -0.833  -1.215   1.127 -1.0101 -0.4310 -0.2633
  453MOL0     C59698  -0.909  -1.317   1.071 -0.1845 -0.7141  0.0402
  453MOL0     O59699  -0.966  -1.407   1.163  0.8560 -1.0579  0.4224
  453MOL0     C59700  -0.969  -1.546   1.127 -1.7122  0.3440 -0.6539
  453MOL0     C59701  -1.110  -1.589   1.125  0.2844  0.9201  0.0047
  453MOL0     C59702  -1.141  -1.735   1.093  0.2854 -1.3911 -0.6111
  453MOL0     C59703  -1.295  -1.765   1.106 -0.4286  1.2668 -0.4619
  453MOL0     C59704  -1.367  -1.806   1.245 -0.1866 -0.5995  0.9874
  453MOL0     C59705  -1.382  -1.677   1.340 -0.6535 -0.1064 -0.0135
  453MOL0     C59706  -1.467  -1.701   1.466  0.0160 -0.2283 -0.2832
  453MOL0     C59707  -1.578  -1.597   1.479 -0.7694 -0.0895  0.8326
  453MOL0    Cl59708  -1.679  -1.661   1.607  0.0924 -0.0978  0.1632
  453MOL0     C59709  -0.941  -1.312   0.932 -0.7578  0.4562  0.1888
  453MOL0     C59710  -0.889  -1.209   0.851  0.2244 -0.4398 -0.2408
  453MOL0     O59711  -0.528  -1.090   0.867 -0.3067 -0.1383  0.5102
  453MOL0     C59712  -0.422  -0.859   0.731  0.2772  0.4463 -0.6659
  453MOL0     C59713  -0.388  -0.749   0.647  0.9518  0.1478  0.5444
  453MOL0     N59714  -0.052  -0.065   0.312  0.8114 -1.0429  0.6229
  453MOL0     N59715  -0.097   0.061   0.276  0.1783  0.4561 -0.4826
  453MOL0     C59716   0.075   0.956   0.774 -1.3627 -0.7998 -0.1236
  453MOL0     C59717   0.173   0.955   0.870 -0.1505  0.8354 -0.0409
  453MOL0     C59718   0.357   0.826   1.280  0.6007 -0.3824 -0.9983
  453MOL0     C59719   0.332   0.798   1.413  0.0372 -0.2467 -0.0579
  453MOL0     C59720   0.426   0.756   1.514 -0.4028 -0.5271 -0.5530
  453MOL0     C59721   0.561   0.761   1.485 -0.1582  0.2257 -0.7816
  453MOL0     O59722   0.656   0.721   1.584  0.0538 -0.5058  0.3506
  453MOL0     C59723   0.641   0.773   1.717 -0.3589 -0.6543  1.0872
  453MOL0     C59724   0.775   0.778   1.784  0.0602  0.5807  0.9965
  453MOL0     C59725   0.894   0.847   1.711  0.7469  0.3691  0.9113
  453MOL0     C59726   1.023   0.816   1.793  0.0644 -0.2824  0.1983
  453MOL0     C59727   1.143   0.839   1.715  0.7826 -1.0550  1.0520
  453MOL0     C59728   1.233   0.874   1.640 -0.6423  0.0969  0.4104
  453MOL0     C59729   0.589   0.793   1.345  0.2941  0.7999  0.3661
  453MOL0     C59730   0.489   0.826   1.246 -0.1227 -0.1868 -0.2419
  453MOL0     H59731   0.068   0.687   1.046 -0.2469 -2.2270 -0.4283
  453MOL0     H59732  -0.106   0.668   0.845 -0.7025 -0.4199 -4.8444
  453MOL0     H59733   0.009   0.879   0.520 -1.5005 -0.4578 -1.5810
  453MOL0     H59734  -0.098   1.010   0.545  1.0442 -0.4004  1.6852
  453MOL0     H59735  -0.152   0.885   0.341 -1.6781 -0.3471 -0.4342
  453MOL0     H59736  -0.276   0.842   0.460  1.0643  2.6245  2.7715
  453MOL0     H59737  -0.137   0.627   0.503  2.1547 -0.9318 -0.2101
  453MOL0     H59738   0.001   0.687   0.414 -0.0326 -1.6296 -0.1047
  453MOL0     H59739  -0.272   0.582   0.300 -0.6694  0.7331  1.5152
  453MOL0     H59740  -0.149   0.661   0.208 -1.0172  0.8099  1.9954
  453MOL0     H59741   0.014   0.493   0.235 -0.8390  4.4401 -0.4135
  453MOL0     H59742  -0.135   0.407   0.184  0.7990 -0.2577 -0.7335
  453MOL0     H59743  -0.047   0.438   0.479 -4.4195  1.0823  1.4474
  453MOL0     H59744  -0.005   0.295   0.374  1.6772  1.4587 -3.4402
  453MOL0     H59745  -0.198   0.260   0.545 -2.4186 -3.1206 -1.2531
  453MOL0     H59746  -0.292   0.390   0.477  0.1389 -0.8549  2.6667
  453MOL0     H59747  -0.296   0.247   0.250  0.5503 -2.6943 -1.5244
  453MOL0     H59748  -0.382   0.196   0.380 -1.6865  2.6254 -3.8282
  453MOL0     H59749  -0.273  -0.003   0.542  1.1235  0.9695  0.9905
  453MOL0     H59750  -0.108  -0.225   0.593  1.8733 -0.2978 -1.3063
  453MOL0     H59751  -0.030  -0.280   0.467  0.2017  0.0246  4.5897
  453MOL0     H59752  -0.233  -0.333   0.324 -4.6578 -1.0549 -1.1777
  453MOL0     H59753  -0.325  -0.264   0.456  0.3802  0.5022 -1.2177
  453MOL0     H59754  -0.127  -0.484   0.503 -0.1964 -0.8394  0.5459
  453MOL0     H59755  -0.261  -0.427   0.605 -1.9200 -0.1007 -0.8714
  453MOL0     H59756  -0.279  -0.664   0.429  2.2357  0.2352 -2.8161
  453MOL0     H59757  -0.340  -0.522   0.336  0.0656  2.2128  1.1009
  453MOL0     H59758  -0.689  -0.656   0.529  1.4728  1.2346  0.6016
  453MOL0     H59759  -0.752  -0.858   0.643  0.2017 -2.5332  0.7784
  453MOL0     H59760  -0.702  -1.043   1.083 -0.8426  1.5062  0.5589
  453MOL0     H59761  -0.803  -1.226   1.231 -0.2026  1.3843 -0.2626
  453MOL0     H59762  -0.910  -1.596   1.205  1.8063  3.9337 -0.7031
  453MOL0     H59763  -0.924  -1.568   1.030 -0.2983  0.7278 -0.0957
  453MOL0     H59764  -1.160  -1.529   1.048 -1.2918  2.2128  1.9508
  453MOL0     H59765  -1.139  -1.560   1.226  0.0735 -0.2214  0.2835
  453MOL0     H59766  -1.080  -1.804   1.154  0.6181  0.8477  1.7536
  453MOL0     H59767  -1.105  -1.743   0.990 -0.1506  1.8159 -1.0937
  453MOL0     H59768  -1.353  -1.682   1.064  1.3074  2.0949 -1.2944
  453MOL0     H59769  -1.315  -1.851   1.040 -0.3888  3.5166 -3.6224
  453MOL0     H59770  -1.317  -1.889   1.296 -1.5077 -0.9631  1.7363
  453MOL0     H59771  -1.460  -1.854   1.216 -0.5263  0.5924  0.0002
  453MOL0     H59772  -1.420  -1.599   1.274  0.3147 -0.9507 -1.6326
  453MOL0     H59773  -1.283  -1.644   1.375 -1.4638  1.4911  0.9024
  453MOL0     H59774  -1.508  -1.803   1.469 -1.9319  0.4230  4.5848
  453MOL0     H59775  -1.405  -1.680   1.553 -0.0911 -0.5554 -0.1221
  453MOL0     H59776  -1.628  -1.569   1.386  1.6048  0.0573 -0.4721
  453MOL0     H59777  -1.520  -1.512   1.517  1.2404 -1.3885  0.8369
  453MOL0     H59778  -1.012  -1.391   0.908 -0.9767  0.7932 -0.2868
  453MOL0     H59779  -0.914  -1.192   0.747  1.7948  0.0087 -0.5783
  453MOL0     H59780  -0.348  -0.912   0.790  3.0650  4.4644 -0.1004
  453MOL0     H59781  -0.288  -0.707   0.660  0.9379  0.1096  0.7870
  453MOL0     H59782   0.072   1.035   0.699  3.1491  0.5570  0.8141
  453MOL0     H59783   0.244   1.037   0.876 -0.1714  0.7480  3.4164
  453MOL0     H59784   0.229   0.790   1.446 -0.1028  0.2191 -0.3647
  453MOL0     H59785   0.399   0.720   1.613  4.7654 -3.1085  0.2636
  453MOL0     H59786   0.579   0.705   1.775 -0.7469 -0.6524  0.6815
  453MOL0     H59787   0.593   0.871   1.713  2.0820  0.5838  0.0614
  453MOL0     H59788   0.760   0.834   1.877 -0.5680  1.2687  0.4931
  453MOL0     H59789   0.815   0.677   1.801  1.5738  0.8380 -0.7581
  453MOL0     H59790   0.860   0.951   1.705 -0.8003 -0.2000 -1.9558
  453MOL0     H59791   0.898   0.808   1.609  0.2263  3.4588 -0.4109
  453MOL0     H59792   1.019   0.885   1.878  0.5734  1.7073 -1.3430
  453MOL0     H59793   1.033   0.711   1.823 -1.2047 -0.3383  0.5029
  453MOL0     H59794   1.316   0.919   1.590 -0.4920 -0.9546 -0.3198
  453MOL0     H59795   0.690   0.801   1.306  0.3616 -2.9235 -0.5877
  453MOL0     H59796   0.511   0.856   1.144 -0.4288  2.6830  0.4420
  454MOL0     O59797   4.985   8.315   3.518  0.5721  0.0144 -0.6611
  454MOL0     C59798   4.915   8.259   3.600 -0.0275  0.3196 -0.2071
  454MOL0     O59799   4.944   8.138   3.660  0.5393 -0.5029 -0.0205
  454MOL0     C59800   5.055   8.066   3.630  0.3671 -0.1942 -0.7000
  454MOL0     C59801   5.056   7.976   3.520 -0.9603 -0.3250 -0.5041
  454MOL0     C59802   5.171   7.896   3.491  0.2027 -0.4895 -0.3456
  454MOL0     C59803   5.280   7.898   3.578 -0.2364  0.3708  0.0627
  454MOL0     O59804   5.388   7.815   3.583  0.0441  0.4411  0.0597
  454MOL0     C59805   5.388   7.704   3.501  0.2684 -0.0862 -1.3300
  454MOL0     C59806   5.524   7.654   3.483  0.9732 -1.5023  0.4335
  454MOL0     C59807   5.525   7.522   3.395  0.6272  0.1420  0.2991
  454MOL0     C59808   5.668   7.470   3.387 -0.0370 -1.2065 -0.2674
  454MOL0     C59809   5.647   7.324   3.334  0.5060 -0.0019  0.4009
  454MOL0     C59810   5.781   7.242   3.342  0.0072  1.0066 -0.0165
  454MOL0     C59811   5.821   7.199   3.485 -0.6766  1.2542 -0.3707
  454MOL0     C59812   5.888   7.058   3.480 -0.4224 -1.0461  1.1478
  454MOL0     N59813   6.021   7.074   3.402 -0.3827  0.0029 -0.7396
  454MOL0     C59814   6.139   7.126   3.455 -0.3192  0.5344  0.0358
  454MOL0     C59815   6.215   7.159   3.349  0.0913  0.1926  1.3177
  454MOL0     C59816   6.340   7.247   3.343  0.8451 -0.6122 -0.0201
  454MOL0     C59817   6.454   7.167   3.301 -0.5679  0.5573  0.5114
  454MOL0     C59818   6.576   7.270   3.298 -0.2515  0.0860  0.1306
  454MOL0     C59819   6.718   7.212   3.291 -0.0885 -0.4256 -0.1336
  454MOL0     O59820   6.780   7.203   3.423  0.1287 -0.2843 -0.4723
  454MOL0     C59821   6.904   7.269   3.429  0.6128 -0.4904  0.1044
  454MOL0     C59822   6.942   7.316   3.551 -0.7282  0.2168  0.2914
  454MOL0     C59823   7.060   7.383   3.589 -0.3711 -0.5527  1.1060
  454MOL0     C59824   7.153   7.404   3.482  0.2037 -0.8829 -0.1740
  454MOL0     C59825   7.286   7.471   3.513  0.3820  0.9628  0.1269
  454MOL0     O59826   7.384   7.454   3.419  0.2334 -0.2959  0.3107
  454MOL0     C59827   7.443   7.570   3.371  0.5090  0.6617 -0.2238
  454MOL0     C59828   7.410   7.701   3.399 -0.1027 -0.5757  0.8561
  454MOL0     C59829   7.447   7.812   3.324  0.0296 -0.2570  0.6275
  454MOL0     C59830   7.539   7.791   3.220 -0.0320 -0.0776  0.1061
  454MOL0     O59831   7.622   7.885   3.166  0.7004  0.4777 -0.2450
  454MOL0     C59832   7.655   8.012   3.231 -0.1106  0.2335 -0.3186
  454MOL0     C59833   7.776   8.086   3.178 -0.0205 -0.1614 -0.7597
  454MOL0     C59834   7.916   8.015   3.206 -0.2467  0.1506  0.7174
  454MOL0     C59835   7.945   7.942   3.340 -0.1441 -0.4639 -0.4906
  454MOL0     C59836   7.962   8.056   3.456  0.1542  0.3685 -0.2734
  454MOL0     C59837   8.014   7.991   3.588 -0.4024  0.1761 -0.5485
  454MOL0     C59838   7.995   8.070   3.708  0.5192 -1.1124 -0.2602
  454MOL0     C59839   8.079   8.195   3.714 -0.6219  1.2215 -0.5945
  454MOL0    Cl59840   8.022   8.315   3.830 -0.1625 -0.4491  0.0643
  454MOL0     C59841   7.578   7.667   3.187 -0.4906 -0.6213 -0.2876
  454MOL0     C59842   7.531   7.557   3.263 -0.3017  0.8568 -0.0772
  454MOL0     O59843   7.295   7.525   3.612 -0.4073 -0.2475  0.1578
  454MOL0     C59844   7.120   7.353   3.354  0.6898  0.4553  0.2959
  454MOL0     C59845   7.000   7.283   3.329 -1.0937  0.5871  0.4378
  454MOL0     N59846   6.150   7.110   3.230 -0.4658  1.5115 -0.7852
  454MOL0     N59847   6.037   7.058   3.267  0.2414  0.1035  0.2193
  454MOL0     C59848   5.271   7.991   3.681 -0.6421 -0.0650 -0.5869
  454MOL0     C59849   5.169   8.077   3.711  0.2479 -0.7856  0.6510
  454MOL0     C59850   4.782   8.320   3.625  0.2795 -0.2388  0.9979
  454MOL0     C59851   4.723   8.413   3.535  0.3420 -0.0126 -1.3860
  454MOL0     C59852   4.603   8.480   3.568  0.0763  0.4738  0.2949
  454MOL0     C59853   4.526   8.441   3.678 -0.3722  0.4755  0.1535
  454MOL0     O59854   4.404   8.495   3.675 -0.2482  0.6258 -0.4953
  454MOL0     C59855   4.322   8.474   3.792 -0.7962  0.8600  1.2179
  454MOL0     C59856   4.189   8.544   3.765 -0.4016 -0.5534  0.1891
  454MOL0     C59857   4.225   8.697   3.761  0.6320 -0.3960 -0.4091
  454MOL0     C59858   4.251   8.767   3.626  0.7328 -0.7813  0.7984
  454MOL0     C59859   4.326   8.893   3.638 -0.2723 -0.1858  0.0265
  454MOL0     C59860   4.378   8.996   3.680 -0.0741 -0.1732 -0.6643
  454MOL0     C59861   4.578   8.337   3.756 -0.0128  0.8122 -1.1984
  454MOL0     C59862   4.701   8.277   3.732  0.3150 -0.7850 -1.3978
  454MOL0     H59863   4.979   7.950   3.448  2.6122 -2.6923 -3.7883
  454MOL0     H59864   5.166   7.822   3.412  1.1206 -0.3877 -0.5016
  454MOL0     H59865   5.350   7.735   3.403  0.8196  1.4455 -1.0859
  454MOL0     H59866   5.321   7.632   3.551  0.1181  2.0034  1.7947
  454MOL0     H59867   5.556   7.624   3.584  2.4786 -4.3622 -0.7607
  454MOL0     H59868   5.581   7.738   3.442 -0.5955  0.6980  2.4892
  454MOL0     H59869   5.492   7.533   3.292  0.3238  1.0120  0.4816
  454MOL0     H59870   5.457   7.451   3.442  1.3469 -1.3864 -0.8731
  454MOL0     H59871   5.723   7.522   3.309  2.7814 -2.6011  0.6504
  454MOL0     H59872   5.726   7.468   3.480  0.4678 -0.6569 -0.5640
  454MOL0     H59873   5.604   7.325   3.234  0.2222  4.0118  0.4046
  454MOL0     H59874   5.572   7.269   3.393  0.0473  0.0199 -0.1513
  454MOL0     H59875   5.850   7.304   3.285 -1.5552  2.8493 -0.0010
  454MOL0     H59876   5.774   7.149   3.286  0.8364 -0.6753  2.4902
  454MOL0     H59877   5.881   7.280   3.527  0.6914  0.1184 -0.0457
  454MOL0     H59878   5.739   7.180   3.554  2.1453  1.3173  3.3249
  454MOL0     H59879   5.828   6.980   3.432  0.0292 -2.8747  3.4093
  454MOL0     H59880   5.905   7.031   3.584  0.1471  2.9899  2.2767
  454MOL0     H59881   6.146   7.156   3.560 -2.2600  1.7526 -0.1319
  454MOL0     H59882   6.356   7.283   3.446  2.9625 -2.7855  0.4879
  454MOL0     H59883   6.316   7.334   3.280 -0.7812  0.5075  1.9903
  454MOL0     H59884   6.452   7.117   3.203 -0.6955  0.9711  0.3007
  454MOL0     H59885   6.468   7.088   3.375  2.2169 -0.2035 -0.6803
  454MOL0     H59886   6.568   7.332   3.208  1.8015 -1.4675 -1.2092
  454MOL0     H59887   6.567   7.324   3.393 -0.7498 -2.2826  1.5088
  454MOL0     H59888   6.763   7.288   3.228 -0.8817  0.7769  0.7087
  454MOL0     H59889   6.724   7.114   3.241 -1.0317 -0.6861  0.2288
  454MOL0     H59890   6.876   7.283   3.631  1.1111 -1.2994  1.2612
  454MOL0     H59891   7.082   7.427   3.686  2.5557 -0.4368  0.4716
  454MOL0     H59892   7.340   7.719   3.481  1.6911  4.5661  1.6449
  454MOL0     H59893   7.429   7.916   3.348  2.5065  0.9418 -2.0789
  454MOL0     H59894   7.666   7.991   3.337  0.0324 -3.9130 -1.0082
  454MOL0     H59895   7.575   8.085   3.212  0.7888  0.7473 -2.5009
  454MOL0     H59896   7.783   8.186   3.222  2.0706 -0.3856 -0.4752
  454MOL0     H59897   7.785   8.099   3.070  1.8996  2.8044 -0.3737
  454MOL0     H59898   7.994   8.092   3.196 -0.1632  0.2689  2.0547
  454MOL0     H59899   7.915   7.936   3.130  1.6094  0.2377  0.5472
  454MOL0     H59900   7.858   7.881   3.366 -1.0149 -0.8779 -3.9080
  454MOL0     H59901   8.042   7.891   3.337  0.4449  0.6580 -3.0438
  454MOL0     H59902   7.872   8.113   3.475  1.4175  3.8161 -3.3970
  454MOL0     H59903   8.045   8.119   3.423  1.0283  2.0409  4.3579
  454MOL0     H59904   8.115   7.948   3.586 -0.9795 -1.2253 -1.5834
  454MOL0     H59905   7.949   7.908   3.617  2.4518 -1.6263  1.2453
  454MOL0     H59906   7.889   8.097   3.702  1.3231  2.2005 -1.7704
  454MOL0     H59907   8.021   8.009   3.795 -1.5079 -2.0447 -0.2529
  454MOL0     H59908   8.080   8.257   3.624 -2.9220  0.7072 -1.0472
  454MOL0     H59909   8.182   8.165   3.730 -1.1166  0.3118  1.0996
  454MOL0     H59910   7.652   7.664   3.107  0.5324 -0.1491  0.6156
  454MOL0     H59911   7.545   7.453   3.234  1.1772 -0.1402  3.5963
  454MOL0     H59912   7.201   7.363   3.282  2.7866  1.0097  2.6072
  454MOL0     H59913   6.997   7.235   3.231  1.6376 -0.2367  0.6599
  454MOL0     H59914   5.348   8.009   3.756 -0.2602  1.5238 -1.3127
  454MOL0     H59915   5.173   8.151   3.790 -4.7952  1.1067 -0.5198
  454MOL0     H59916   4.785   8.442   3.451  1.7306 -2.0619 -1.1441
  454MOL0     H59917   4.554   8.553   3.505 -1.8026 -0.7896  0.2087
  454MOL0     H59918   4.358   8.516   3.887 -3.0750  1.4743  1.8807
  454MOL0     H59919   4.311   8.365   3.795  1.3361  0.4357 -1.6241
  454MOL0     H59920   4.131   8.511   3.678 -5.4614  4.2780  1.1461
  454MOL0     H59921   4.126   8.529   3.852 -0.6184 -0.1477  0.1040
  454MOL0     H59922   4.308   8.723   3.827  2.3911  2.1660 -3.3337
  454MOL0     H59923   4.146   8.761   3.802  1.8332  0.3125  0.8912
  454MOL0     H59924   4.305   8.700   3.559  0.7565  1.6175 -1.7341
  454MOL0     H59925   4.156   8.779   3.573 -0.2300 -0.5682  2.4681
  454MOL0     H59926   4.417   9.092   3.706 -0.4747 -0.2277  0.1496
  454MOL0     H59927   4.519   8.287   3.832  1.0165  2.5195  0.8167
  454MOL0     H59928   4.729   8.201   3.804 -2.1123 -0.6249 -0.1742
  455MOL0     O59929   1.701   2.526  10.644 -0.2123 -0.6486 -0.2155
  455MOL0     C59930   1.801   2.466  10.675 -0.8004 -0.5980 -1.1154
  455MOL0     O59931   1.838   2.352  10.624 -0.1825  0.2960  1.6071
  455MOL0     C59932   1.767   2.303  10.517 -0.1605  0.8366  0.4741
  455MOL0     C59933   1.789   2.354  10.381 -0.2190 -0.2900 -0.8068
  455MOL0     C59934   1.704   2.315  10.272 -0.9804  0.1985 -0.0325
  455MOL0     C59935   1.616   2.207  10.296 -0.6205 -0.6143 -0.1829
  455MOL0     O59936   1.554   2.157  10.182  0.1395 -0.5286 -0.4797
  455MOL0     C59937   1.416   2.129  10.186 -0.0571 -0.2553 -0.5556
  455MOL0     C59938   1.351   2.121  10.051 -0.9227  0.3564  0.3700
  455MOL0     C59939   1.414   2.024   9.951 -0.7244 -0.1140 -0.3151
  455MOL0     C59940   1.360   2.054   9.812  0.3239 -0.8531  0.7132
  455MOL0     C59941   1.393   1.961   9.695  0.5903  1.4279  0.5293
  455MOL0     C59942   1.544   1.948   9.680  0.7415  0.4325  0.6852
  455MOL0     C59943   1.581   1.843   9.573  0.6684  0.0048 -0.4804
  455MOL0     C59944   1.734   1.846   9.540  0.3679  0.1999 -1.0862
  455MOL0     N59945   1.767   1.750   9.438 -0.1031  0.1142 -0.0472
  455MOL0     C59946   1.742   1.763   9.301 -0.3106 -0.3204  0.1724
  455MOL0     C59947   1.805   1.655   9.251  0.1600  0.2084 -0.2527
  455MOL0     C59948   1.814   1.610   9.102 -0.4323  1.0654 -0.9760
  455MOL0     C59949   1.703   1.502   9.078  0.1457 -0.0549 -0.4008
  455MOL0     C59950   1.717   1.432   8.944 -1.1020  0.0351  0.0477
  455MOL0     C59951   1.868   1.373   8.918 -0.7010 -0.5104 -1.0514
  455MOL0     O59952   1.942   1.481   8.856  0.6758 -0.1839 -0.0822
  455MOL0     C59953   2.062   1.455   8.801 -0.9269 -0.0050  0.1622
  455MOL0     C59954   2.116   1.326   8.773  1.3861 -0.7324 -0.1237
  455MOL0     C59955   2.235   1.305   8.716  0.3741 -0.5774 -0.1793
  455MOL0     C59956   2.301   1.414   8.664 -0.5041 -0.3351 -0.4167
  455MOL0     C59957   2.430   1.406   8.594  0.7304 -0.0695 -0.0868
  455MOL0     O59958   2.495   1.515   8.545  0.2190 -0.3482 -0.1719
  455MOL0     C59959   2.619   1.484   8.484  0.8638  1.2052  0.2076
  455MOL0     C59960   2.741   1.487   8.563  0.1635  0.7308  0.2893
  455MOL0     C59961   2.847   1.439   8.497  0.2960 -0.1370  1.1389
  455MOL0     C59962   2.851   1.403   8.360 -0.3870  0.0778  0.6411
  455MOL0     O59963   2.964   1.345   8.300 -0.1605  0.0105 -0.0721
  455MOL0     C59964   3.103   1.398   8.337 -0.0672 -0.3964 -0.3447
  455MOL0     C59965   3.177   1.388   8.209 -0.4880 -0.4442 -0.4945
  455MOL0     C59966   3.306   1.460   8.237  0.0498 -0.1477  0.1532
  455MOL0     C59967   3.385   1.470   8.102 -0.1661  0.4958  0.1429
  455MOL0     C59968   3.521   1.501   8.133 -0.2421 -0.3990  0.2708
  455MOL0     C59969   3.604   1.492   8.005  0.9746  0.2012 -0.5414
  455MOL0     C59970   3.732   1.571   8.020  0.1447  0.6649  0.1841
  455MOL0     C59971   3.835   1.509   7.916  0.4148  0.6326 -0.3175
  455MOL0    Cl59972   3.785   1.556   7.750 -0.0639  0.3030 -0.3697
  455MOL0     C59973   2.736   1.408   8.280 -0.4180 -0.0482 -0.9481
  455MOL0     C59974   2.624   1.445   8.347  0.7081  0.1703  0.2007
  455MOL0     O59975   2.462   1.286   8.575 -0.3077 -0.3872  0.2602
  455MOL0     C59976   2.256   1.545   8.698  0.0203 -0.1012  0.5589
  455MOL0     C59977   2.140   1.573   8.766  0.3181  0.1146  0.7834
  455MOL0     N59978   1.849   1.573   9.356 -0.0984  0.2142  0.1934
  455MOL0     N59979   1.829   1.636   9.467 -0.9804  0.4538  0.7647
  455MOL0     C59980   1.595   2.160  10.428 -0.3146  0.5049 -0.1304
  455MOL0     C59981   1.676   2.195  10.532  0.3116  0.4144 -0.4664
  455MOL0     C59982   1.878   2.525  10.786 -0.2813  0.3702  0.3889
  455MOL0     C59983   1.993   2.456  10.841  0.7419 -0.8428  0.5365
  455MOL0     C59984   2.057   2.512  10.950  0.5756 -0.4115 -0.6784
  455MOL0     C59985   2.016   2.627  11.011 -0.3335  0.2553 -0.9103
  455MOL0     O59986   2.085   2.670  11.119  0.1056 -0.5288 -1.2083
  455MOL0     C59987   2.042   2.778  11.200 -0.0438  0.2867  0.6495
  455MOL0     C59988   2.134   2.775  11.316 -0.6789  0.4981 -1.0725
  455MOL0     C59989   2.283   2.821  11.281 -0.3769 -0.1495  0.1469
  455MOL0     C59990   2.384   2.840  11.392  0.8875  0.0879 -0.6639
  455MOL0     C59991   2.340   2.918  11.508 -0.2918  0.3265 -0.3437
  455MOL0     C59992   2.308   2.968  11.616  0.2899  0.1175 -0.4683
  455MOL0     C59993   1.909   2.696  10.961  0.4540 -0.0624  0.2484
  455MOL0     C59994   1.836   2.643  10.853  0.7426  0.9060  0.2257
  455MOL0     H59995   1.863   2.433  10.371  0.9785 -0.8687  2.2240
  455MOL0     H59996   1.728   2.350  10.172  0.9890  2.0994  1.0232
  455MOL0     H59997   1.368   2.214  10.234  0.5274 -0.9619  1.3852
  455MOL0     H59998   1.404   2.032  10.236 -0.1765 -0.3731 -0.8050
  455MOL0     H59999   1.366   2.225  10.020 -1.9626  1.0219  1.9323
  455MOL0     H60000   1.245   2.109  10.073 -0.9386  1.1832  0.8096
  455MOL0     H60001   1.405   1.917   9.970 -0.2329 -0.1717 -0.4103
  455MOL0     H60002   1.522   2.040   9.952 -0.8131  0.6177  1.3621
  455MOL0     H60003   1.251   2.064   9.812  0.3503 -0.3741 -0.6521
  455MOL0     H60004   1.394   2.153   9.779 -0.5650 -0.6668  0.3121
  455MOL0     H60005   1.346   2.014   9.612 -1.9479  0.0610  0.9659
  455MOL0     H60006   1.346   1.862   9.699 -0.1657  1.5994 -2.3482
  455MOL0     H60007   1.599   1.929   9.773  2.0387 -0.9237 -0.3050
  455MOL0     H60008   1.574   2.050   9.654 -0.4393  1.1814  2.1308
  455MOL0     H60009   1.556   1.747   9.619 -1.1370  0.8720  0.4625
  455MOL0     H60010   1.520   1.848   9.482  0.5140 -2.6463 -0.6102
  455MOL0     H60011   1.794   1.809   9.624  0.1347  1.4093 -0.3673
  455MOL0     H60012   1.760   1.945   9.502  2.8633 -0.8974 -2.4341
  455MOL0     H60013   1.674   1.831   9.253 -0.2981 -1.6745 -1.9147
  455MOL0     H60014   1.910   1.559   9.095 -1.2411 -0.9228  1.3018
  455MOL0     H60015   1.811   1.693   9.030  0.7870  0.6707 -1.5126
  455MOL0     H60016   1.600   1.538   9.079  0.6998  1.7320  2.5266
  455MOL0     H60017   1.718   1.421   9.150  1.1608 -2.2731 -2.9285
  455MOL0     H60018   1.646   1.349   8.955 -0.7438 -0.2730  0.0713
  455MOL0     H60019   1.691   1.511   8.873  0.2636 -0.0690 -0.5930
  455MOL0     H60020   1.855   1.288   8.850  0.4409 -0.7572 -0.9894
  455MOL0     H60021   1.912   1.342   9.013 -2.5299  1.8942  0.6919
  455MOL0     H60022   2.051   1.240   8.787  0.9834 -0.3618  0.3182
  455MOL0     H60023   2.247   1.201   8.689 -0.0410 -0.0586 -2.5861
  455MOL0     H60024   2.747   1.502   8.670 -0.3088 -1.3640  0.6556
  455MOL0     H60025   2.938   1.426   8.555  0.3105 -0.2481  1.0922
  455MOL0     H60026   3.143   1.336   8.417  2.2560  2.3716  0.8197
  455MOL0     H60027   3.107   1.500   8.378  0.4305 -1.2549  1.8444
  455MOL0     H60028   3.121   1.451   8.139  1.8072 -0.9771 -2.9906
  455MOL0     H60029   3.186   1.284   8.177 -1.7445  0.3764 -3.9634
  455MOL0     H60030   3.359   1.395   8.307  1.0272  0.4614 -0.0035
  455MOL0     H60031   3.285   1.557   8.283  1.0311  1.5707 -2.7739
  455MOL0     H60032   3.382   1.378   8.043  1.6505  0.0281  0.7123
  455MOL0     H60033   3.340   1.545   8.037 -2.6242  0.4963  1.7162
  455MOL0     H60034   3.569   1.443   8.212  1.9075  1.2736  0.2752
  455MOL0     H60035   3.517   1.603   8.172  1.2571  0.3865 -1.4317
  455MOL0     H60036   3.543   1.522   7.919 -1.5652 -1.4718  0.5751
  455MOL0     H60037   3.632   1.388   7.987 -1.1383 -0.5644  0.2647
  455MOL0     H60038   3.720   1.674   7.987  1.0243  0.7681  0.1472
  455MOL0     H60039   3.775   1.566   8.120  2.8433 -3.5451 -0.8778
  455MOL0     H60040   3.826   1.400   7.922  0.4026  0.4881 -2.2418
  455MOL0     H60041   3.936   1.538   7.948  1.5410 -1.6938 -1.4948
  455MOL0     H60042   2.761   1.384   8.177  0.1793  0.1609 -0.8590
  455MOL0     H60043   2.531   1.444   8.292 -0.8111 -2.1525  2.6201
  455MOL0     H60044   2.320   1.633   8.689  1.4951 -1.0999  1.0234
  455MOL0     H60045   2.091   1.669   8.781  4.1681  2.5746 -0.8781
  455MOL0     H60046   1.529   2.077  10.448  0.5435 -0.1082  0.1900
  455MOL0     H60047   1.659   2.156  10.632 -1.2209 -0.8417 -1.1804
  455MOL0     H60048   2.033   2.368  10.791 -1.5702 -1.9469  0.4910
  455MOL0     H60049   2.141   2.459  10.995  1.2804  0.5442 -0.8238
  455MOL0     H60050   1.936   2.769  11.226  0.1867 -1.5353  1.1131
  455MOL0     H60051   2.065   2.873  11.150  1.6007 -0.0002  0.8116
  455MOL0     H60052   2.088   2.844  11.387  2.7603  2.8135 -0.8557
  455MOL0     H60053   2.147   2.675  11.360 -0.5064  0.6281 -0.8224
  455MOL0     H60054   2.265   2.914  11.225  0.6238  2.7046  4.0984
  455MOL0     H60055   2.320   2.746  11.212 -0.9728  0.3250 -0.7041
  455MOL0     H60056   2.415   2.739  11.419 -0.7705 -0.0347  0.9616
  455MOL0     H60057   2.476   2.893  11.364  2.5709 -0.7061  2.7354
  455MOL0     H60058   2.272   2.994  11.714 -2.6966 -4.2610 -0.1472
  455MOL0     H60059   1.861   2.787  10.996  1.1674  1.0612 -1.5534
  455MOL0     H60060   1.742   2.689  10.822  2.3738  0.6030 -6.6615
  456MOL0     O60061   9.272   3.611  10.817 -0.1336  0.1096  0.3992
  456MOL0     C60062   9.335   3.705  10.770  0.3921  0.9386  0.1503
  456MOL0     O60063   9.398   3.706  10.644 -0.4766  0.8705  0.0394
  456MOL0     C60064   9.395   3.582  10.584  0.3620  0.0582 -0.8444
  456MOL0     C60065   9.302   3.552  10.494  0.1449 -0.0759 -0.9448
  456MOL0     C60066   9.300   3.427  10.437 -0.6691  0.7612 -0.0253
  456MOL0     C60067   9.408   3.332  10.461  0.2405 -0.1179 -0.0866
  456MOL0     O60068   9.396   3.220  10.381 -0.1596 -0.2743 -0.4722
  456MOL0     C60069   9.487   3.115  10.419 -0.2233  0.6013 -0.6266
  456MOL0     C60070   9.481   3.013  10.307  0.7312  1.3433  0.7490
  456MOL0     C60071   9.349   2.945  10.290  1.2514 -0.0426 -0.1557
  456MOL0     C60072   9.340   2.841  10.172  0.2627  0.1464  0.3655
  456MOL0     C60073   9.203   2.762  10.173  0.1864  0.5510  0.0326
  456MOL0     C60074   9.222   2.634  10.086 -0.1090 -0.7184  0.1862
  456MOL0     C60075   9.096   2.559  10.036  0.1966 -0.4175 -0.2274
  456MOL0     C60076   8.999   2.636   9.954  0.8611  0.1354  0.1650
  456MOL0     N60077   8.880   2.542   9.918  0.7200  0.2139 -0.3783
  456MOL0     C60078   8.760   2.524   9.987  0.0563  0.3782  0.4566
  456MOL0     C60079   8.694   2.420   9.924 -0.0644 -0.8150  0.7809
  456MOL0     C60080   8.557   2.367   9.956  1.5793 -0.4911 -0.0868
  456MOL0     C60081   8.495   2.319   9.830 -0.0811  0.0327 -0.6478
  456MOL0     C60082   8.352   2.282   9.856  0.2377 -0.3347 -0.7733
  456MOL0     C60083   8.297   2.154   9.799  0.0122 -0.2592 -0.0919
  456MOL0     O60084   8.348   2.049   9.883 -0.6195 -0.1841  0.4671
  456MOL0     C60085   8.353   1.918   9.830  0.4771 -0.5352  0.5865
  456MOL0     C60086   8.415   1.823   9.904  0.0641  0.0735 -0.0980
  456MOL0     C60087   8.412   1.693   9.864 -0.7297  0.8278  0.4158
  456MOL0     C60088   8.332   1.647   9.756 -0.5096 -0.0579 -0.2985
  456MOL0     C60089   8.325   1.505   9.720 -0.2617 -0.3378 -0.3311
  456MOL0     O60090   8.246   1.464   9.610 -0.1023 -0.7683 -0.7697
  456MOL0     C60091   8.239   1.334   9.588 -0.1595  0.1521  0.2331
  456MOL0     C60092   8.344   1.268   9.508 -0.0776  0.3148 -0.2793
  456MOL0     C60093   8.344   1.126   9.483  1.0436  0.1571  0.7488
  456MOL0     C60094   8.242   1.052   9.524  0.3087  0.2403 -0.5756
  456MOL0     O60095   8.234   0.924   9.476  0.2019 -0.3530 -0.5653
  456MOL0     C60096   8.098   0.853   9.461 -0.3399 -0.1526 -0.6296
  456MOL0     C60097   8.079   0.777   9.331 -0.1732 -0.5932 -0.5103
  456MOL0     C60098   8.042   0.867   9.212  0.9993  0.0870 -0.4049
  456MOL0     C60099   8.014   0.782   9.091  0.1377  0.2050 -0.2957
  456MOL0     C60100   7.947   0.869   8.990  0.2097 -0.4649  0.8036
  456MOL0     C60101   7.877   0.770   8.892  0.0397 -0.3377 -0.0559
  456MOL0     C60102   7.817   0.857   8.772  0.0967 -0.0482  0.4146
  456MOL0     C60103   7.680   0.939   8.799  0.2777  0.7491 -0.3882
  456MOL0    Cl60104   7.626   1.000   8.639  0.0537  0.3033 -0.3042
  456MOL0     C60105   8.140   1.120   9.602 -0.3629  0.8207 -0.4819
  456MOL0     C60106   8.133   1.256   9.633  0.3122  0.5448 -0.8242
  456MOL0     O60107   8.384   1.431   9.795  0.7312  0.8150 -0.0196
  456MOL0     C60108   8.266   1.749   9.681  0.4542  0.9856  1.3320
  456MOL0     C60109   8.288   1.882   9.712 -0.2083 -0.4347 -0.3535
  456MOL0     N60110   8.774   2.386   9.823  0.0342  0.0148 -0.0800
  456MOL0     N60111   8.882   2.448   9.823 -0.1882 -0.0849  0.6261
  456MOL0     C60112   9.509   3.365  10.553  0.0086 -0.2751  1.1769
  456MOL0     C60113   9.497   3.493  10.616  0.2853  0.6782  0.7300
  456MOL0     C60114   9.332   3.833  10.838  0.2894  0.5466  0.0238
  456MOL0     C60115   9.392   3.948  10.785 -0.9829 -1.4960  0.1521
  456MOL0     C60116   9.395   4.069  10.854  1.0055 -1.0327  0.7982
  456MOL0     C60117   9.316   4.087  10.969  0.0039 -0.1497 -0.3905
  456MOL0     O60118   9.318   4.204  11.046  0.3758 -0.0921  1.1692
  456MOL0     C60119   9.352   4.319  10.960 -0.5088  0.7841  0.1507
  456MOL0     C60120   9.308   4.456  11.006  0.5928 -0.8272 -0.1182
  456MOL0     C60121   9.153   4.455  11.030 -0.1267  0.7669 -0.7251
  456MOL0     C60122   9.124   4.604  11.077  0.1697  0.7435  0.0706
  456MOL0     C60123   9.133   4.693  10.969 -0.3033 -0.0021 -0.2289
  456MOL0     C60124   9.146   4.770  10.872 -0.5408 -0.8579 -0.2198
  456MOL0     C60125   9.251   3.977  11.015 -0.6732 -0.3083 -0.3732
  456MOL0     C60126   9.261   3.848  10.954  0.0634 -0.7026 -0.2046
  456MOL0     H60127   9.228   3.631  10.479  0.2648  0.6489  1.8440
  456MOL0     H60128   9.218   3.393  10.375  0.8382 -1.0787 -1.1118
  456MOL0     H60129   9.471   3.058  10.511  0.7833 -0.6803 -1.2121
  456MOL0     H60130   9.588   3.157  10.423 -0.9144  2.4550 -1.3885
  456MOL0     H60131   9.557   2.936  10.317  0.9876  1.5946  0.7618
  456MOL0     H60132   9.494   3.050  10.204 -1.8526 -1.6673 -0.8261
  456MOL0     H60133   9.280   3.028  10.274  1.8672  0.4768 -0.1795
  456MOL0     H60134   9.317   2.893  10.381  0.4882 -2.1118 -1.5313
  456MOL0     H60135   9.354   2.882  10.072  3.2475  0.5585  0.8403
  456MOL0     H60136   9.418   2.765  10.183  1.1935  0.0951 -4.4965
  456MOL0     H60137   9.113   2.813  10.137 -0.4534 -1.3866 -1.2717
  456MOL0     H60138   9.197   2.727  10.277  2.5923  0.1673  0.1130
  456MOL0     H60139   9.295   2.563  10.126  2.2804 -0.3539 -3.1570
  456MOL0     H60140   9.273   2.666   9.995 -0.4064  1.2425  0.6669
  456MOL0     H60141   9.130   2.467   9.989 -1.0187 -0.9507 -0.1205
  456MOL0     H60142   9.041   2.522  10.123 -3.0556  0.0269 -1.9281
  456MOL0     H60143   9.041   2.677   9.861  1.4705  0.1563  0.4438
  456MOL0     H60144   8.960   2.710  10.024 -0.6604 -1.3768  0.9928
  456MOL0     H60145   8.724   2.574  10.076 -1.7252 -0.6713  0.3739
  456MOL0     H60146   8.497   2.438  10.014 -0.2650  1.7469 -4.3035
  456MOL0     H60147   8.579   2.284  10.024 -0.4381 -1.9527 -1.1359
  456MOL0     H60148   8.559   2.234   9.804  1.2510 -0.3152  3.0547
  456MOL0     H60149   8.496   2.396   9.753 -1.1527 -0.0554 -0.7583
  456MOL0     H60150   8.335   2.286   9.964  1.4192  1.7340 -0.6098
  456MOL0     H60151   8.298   2.371   9.824  0.1916  0.0490  0.3247
  456MOL0     H60152   8.338   2.151   9.698 -2.5122 -0.9179 -1.1789
  456MOL0     H60153   8.190   2.135   9.804  0.0466 -0.1362  1.4090
  456MOL0     H60154   8.460   1.856   9.998  0.4634  4.6032 -1.6151
  456MOL0     H60155   8.476   1.626   9.922 -2.4232  1.0202  2.6596
  456MOL0     H60156   8.428   1.335   9.492 -1.1838  1.3942 -1.8733
  456MOL0     H60157   8.430   1.073   9.441  0.2931 -2.0103  1.7924
  456MOL0     H60158   8.013   0.921   9.475  1.5191  2.2822 -0.3864
  456MOL0     H60159   8.084   0.797   9.554  1.0359  3.2390  1.8524
  456MOL0     H60160   7.994   0.710   9.350 -0.0201 -0.7290 -0.3010
  456MOL0     H60161   8.165   0.714   9.308 -0.8233 -0.9523 -2.0560
  456MOL0     H60162   8.127   0.932   9.188  0.1872  0.0850 -3.7018
  456MOL0     H60163   7.958   0.935   9.229  2.9218  2.5172 -0.0194
  456MOL0     H60164   8.099   0.722   9.059  1.6732  1.1491  1.7354
  456MOL0     H60165   7.943   0.706   9.122 -0.9632  2.4007  3.1116
  456MOL0     H60166   8.030   0.918   8.938 -0.5450 -0.1634 -0.1420
  456MOL0     H60167   7.878   0.941   9.033 -0.2751  1.7159 -3.1637
  456MOL0     H60168   7.806   0.715   8.954  3.2134 -0.0358  4.3192
  456MOL0     H60169   7.955   0.704   8.855  2.3789  2.9948 -1.5952
  456MOL0     H60170   7.897   0.919   8.731  2.0780 -1.6670  1.6266
  456MOL0     H60171   7.795   0.783   8.694  1.7346 -0.9563  0.7646
  456MOL0     H60172   7.696   1.017   8.874  0.3542 -0.3490  0.7747
  456MOL0     H60173   7.601   0.880   8.845 -1.1030  2.3328 -0.6202
  456MOL0     H60174   8.067   1.055   9.649 -1.6539  3.6561  1.7341
  456MOL0     H60175   8.053   1.297   9.693 -0.2692  0.3512 -1.4598
  456MOL0     H60176   8.204   1.726   9.595 -0.8156 -3.7181  3.1863
  456MOL0     H60177   8.254   1.960   9.645  1.6280 -0.1981 -1.0750
  456MOL0     H60178   9.581   3.287  10.572 -1.0334 -1.2235  1.2752
  456MOL0     H60179   9.571   3.520  10.692 -0.5274 -1.2822  2.2860
  456MOL0     H60180   9.441   3.939  10.689 -1.0197 -3.3208  0.2762
  456MOL0     H60181   9.451   4.146  10.804  0.3923 -3.1754 -3.6806
  456MOL0     H60182   9.288   4.304  10.872 -1.7841 -0.4150  1.2302
  456MOL0     H60183   9.459   4.337  10.948 -1.0360  3.8171 -1.0107
  456MOL0     H60184   9.360   4.478  11.100  4.1022  2.9982 -2.5980
  456MOL0     H60185   9.353   4.527  10.936  5.3991 -1.3182  2.0191
  456MOL0     H60186   9.117   4.393  11.113  1.7382  1.0635  0.3571
  456MOL0     H60187   9.102   4.431  10.936  1.3629 -4.5823 -0.4765
  456MOL0     H60188   9.018   4.603  11.102  0.6032  0.4968  1.9985
  456MOL0     H60189   9.181   4.645  11.160  2.1897 -0.5750 -0.5954
  456MOL0     H60190   9.168   4.834  10.788 -4.6889  2.0180  0.6041
  456MOL0     H60191   9.189   3.996  11.102  0.7575  2.1748  0.2015
  456MOL0     H60192   9.197   3.771  10.995  0.2508  0.2732  2.0520
  457MOL0     O60193   6.991   8.294   5.188 -0.8024  0.0681 -0.0439
  457MOL0     C60194   7.067   8.369   5.248  0.7273  0.7665 -0.2902
  457MOL0     O60195   7.028   8.442   5.357 -0.3421  0.0892 -0.2745
  457MOL0     C60196   6.914   8.430   5.423 -0.6079 -0.9706  0.5150
  457MOL0     C60197   6.811   8.346   5.392  0.0669 -0.3857  0.1217
  457MOL0     C60198   6.692   8.354   5.471  0.4943 -0.4472 -0.2432
  457MOL0     C60199   6.679   8.437   5.580  0.3925  0.0352  1.4126
  457MOL0     O60200   6.564   8.447   5.652 -0.5427  0.0456 -0.2697
  457MOL0     C60201   6.518   8.314   5.701  0.1020 -0.0271  0.2141
  457MOL0     C60202   6.482   8.312   5.846  0.0289  0.1408  0.3655
  457MOL0     C60203   6.599   8.343   5.935  0.4199 -0.0091 -0.7319
  457MOL0     C60204   6.566   8.335   6.091  0.0342  1.0440  1.7429
  457MOL0     C60205   6.689   8.386   6.156 -0.2169 -0.9732 -0.6142
  457MOL0     C60206   6.670   8.436   6.303 -0.4917  0.4916  0.1116
  457MOL0     C60207   6.619   8.319   6.388 -0.3832 -0.1946  0.6018
  457MOL0     C60208   6.573   8.382   6.514  0.4941  0.6126  0.2224
  457MOL0     N60209   6.543   8.282   6.616  0.2898  0.6501 -0.3157
  457MOL0     C60210   6.626   8.175   6.652  0.7282 -0.0152 -0.3924
  457MOL0     C60211   6.580   8.115   6.768 -1.0778  1.4457 -0.6685
  457MOL0     C60212   6.623   7.980   6.835 -1.5739 -0.4264  0.4234
  457MOL0     C60213   6.726   7.988   6.949  0.2698  0.1596 -0.0818
  457MOL0     C60214   6.647   8.041   7.075 -0.6465  0.6965 -0.2471
  457MOL0     C60215   6.743   8.048   7.187 -0.8179  0.2745  0.1003
  457MOL0     O60216   6.677   8.111   7.300 -1.0188 -0.7691  0.3507
  457MOL0     C60217   6.659   8.241   7.320  0.2732  0.3602 -0.4841
  457MOL0     C60218   6.690   8.336   7.232  0.4359 -0.4112 -0.1938
  457MOL0     C60219   6.667   8.476   7.252  0.4220  0.3823  0.2107
  457MOL0     C60220   6.607   8.517   7.374  0.4301  0.6293 -0.6004
  457MOL0     C60221   6.594   8.658   7.418 -0.8374 -0.2475 -0.8796
  457MOL0     O60222   6.553   8.672   7.546 -0.5179 -0.5336  0.2442
  457MOL0     C60223   6.552   8.798   7.602 -0.0889  0.2951  0.1604
  457MOL0     C60224   6.626   8.823   7.716 -0.5028  0.6942  0.3711
  457MOL0     C60225   6.619   8.952   7.779  0.4859  0.0136  0.2887
  457MOL0     C60226   6.541   9.052   7.719  0.8315 -0.4312  0.3462
  457MOL0     O60227   6.548   9.184   7.759 -0.0502  0.5519  0.0854
  457MOL0     C60228   6.450   9.239   7.847  1.0075 -0.7778  0.2327
  457MOL0     C60229   6.489   9.258   7.994 -0.2707  0.5696 -0.8351
  457MOL0     C60230   6.631   9.326   8.023  0.3860  0.8948  0.6018
  457MOL0     C60231   6.638   9.379   8.164  0.4933  0.6529 -1.1564
  457MOL0     C60232   6.752   9.468   8.170 -0.2193 -0.0983 -0.2310
  457MOL0     C60233   6.755   9.539   8.313 -1.0215 -0.1738 -0.7773
  457MOL0     C60234   6.872   9.636   8.314  0.2851 -0.3155 -0.9630
  457MOL0     C60235   6.900   9.691   8.459 -0.0248 -0.1914  0.0871
  457MOL0    Cl60236   6.921   9.573   8.587  0.0218 -0.3162 -0.0586
  457MOL0     C60237   6.472   9.027   7.607  1.3357  0.2370 -0.4053
  457MOL0     C60238   6.468   8.899   7.550  0.1478 -0.3859  0.8045
  457MOL0     O60239   6.642   8.748   7.347 -0.0566 -0.9823 -0.0047
  457MOL0     C60240   6.573   8.411   7.466 -0.5385 -0.2341  0.7105
  457MOL0     C60241   6.600   8.287   7.440  0.1654  0.9377 -0.9479
  457MOL0     N60242   6.466   8.195   6.810 -1.9682  0.1399 -0.0691
  457MOL0     N60243   6.450   8.291   6.722 -0.4219 -1.4470  0.1301
  457MOL0     C60244   6.780   8.529   5.607  0.2876  0.3781 -0.2096
  457MOL0     C60245   6.906   8.513   5.539  1.1811  0.9219 -0.1079
  457MOL0     C60246   7.204   8.377   5.202  0.0572 -0.8686  0.9950
  457MOL0     C60247   7.289   8.469   5.270  0.3533 -0.4376  0.1263
  457MOL0     C60248   7.411   8.494   5.215 -0.2217 -0.1783 -0.2811
  457MOL0     C60249   7.453   8.438   5.096  0.1317  0.6734  0.5855
  457MOL0     O60250   7.585   8.456   5.059 -1.1288 -0.3466  0.5867
  457MOL0     C60251   7.634   8.591   5.034 -0.2259  0.7885  0.5682
  457MOL0     C60252   7.787   8.579   5.029 -0.6868 -0.6626  0.4247
  457MOL0     C60253   7.864   8.681   4.940  0.6938 -0.8512 -1.1198
  457MOL0     C60254   8.016   8.674   4.958 -0.5197 -0.1869 -0.2441
  457MOL0     C60255   8.058   8.707   5.099 -0.6345 -0.0566 -0.8098
  457MOL0     C60256   8.077   8.746   5.218  0.2468 -0.0145  0.6461
  457MOL0     C60257   7.369   8.343   5.031 -0.4929 -0.2704 -1.1090
  457MOL0     C60258   7.253   8.304   5.093  0.7584 -0.1522 -0.4790
  457MOL0     H60259   6.795   8.279   5.308 -4.3062  0.7358 -0.1923
  457MOL0     H60260   6.606   8.295   5.443 -1.5401  2.0550  0.3692
  457MOL0     H60261   6.593   8.235   5.684  0.5147  0.2338  0.7975
  457MOL0     H60262   6.427   8.292   5.643 -0.1717  1.3254  0.1146
  457MOL0     H60263   6.443   8.213   5.871 -4.9555  0.9624 -2.6386
  457MOL0     H60264   6.395   8.375   5.868 -1.8615 -1.7817 -1.2368
  457MOL0     H60265   6.621   8.449   5.921 -3.7687  0.8094 -2.6803
  457MOL0     H60266   6.693   8.291   5.915 -0.4459 -1.8637 -0.1513
  457MOL0     H60267   6.471   8.386   6.109 -0.4961 -0.1736  2.5918
  457MOL0     H60268   6.550   8.233   6.127 -1.4591  0.8420  0.6300
  457MOL0     H60269   6.733   8.472   6.103 -0.0679 -1.4280 -1.2397
  457MOL0     H60270   6.768   8.310   6.152  2.5856  1.8034 -2.5690
  457MOL0     H60271   6.605   8.524   6.292  0.8360  1.6881  1.3835
  457MOL0     H60272   6.767   8.473   6.338 -1.2416  1.1287  1.6028
  457MOL0     H60273   6.532   8.283   6.331 -1.5992  1.0981  1.5588
  457MOL0     H60274   6.700   8.249   6.410  1.5130  0.8794 -2.4515
  457MOL0     H60275   6.487   8.449   6.506  0.6367  0.6075 -1.7825
  457MOL0     H60276   6.660   8.436   6.553  0.8019 -0.6678  1.3748
  457MOL0     H60277   6.711   8.136   6.597  0.5684  1.0193 -1.4099
  457MOL0     H60278   6.675   7.920   6.761 -0.1845 -2.4519  2.8717
  457MOL0     H60279   6.547   7.913   6.876 -0.9347 -2.4070 -1.4612
  457MOL0     H60280   6.809   8.058   6.932  1.0467 -0.9763 -1.2402
  457MOL0     H60281   6.757   7.885   6.968  1.4671  0.9236  2.5098
  457MOL0     H60282   6.602   8.136   7.042 -1.4222  0.7279  0.8341
  457MOL0     H60283   6.571   7.968   7.104  0.5364 -2.8322 -4.9692
  457MOL0     H60284   6.828   8.112   7.161 -0.0776 -0.9019 -0.4074
  457MOL0     H60285   6.776   7.945   7.200  2.6860  0.9223 -2.2788
  457MOL0     H60286   6.707   8.301   7.131 -3.0936  4.8694 -3.0907
  457MOL0     H60287   6.690   8.553   7.180 -0.6234  0.3876 -0.1320
  457MOL0     H60288   6.692   8.751   7.763  0.7886  1.1653 -0.6817
  457MOL0     H60289   6.682   8.966   7.867  0.8002 -4.0947  0.9157
  457MOL0     H60290   6.351   9.194   7.854  2.0835 -3.5685 -1.1844
  457MOL0     H60291   6.438   9.342   7.811 -1.4658 -1.1634 -0.2022
  457MOL0     H60292   6.486   9.162   8.045 -3.5789  1.2542  0.5121
  457MOL0     H60293   6.410   9.313   8.046 -1.3317 -0.8273 -0.9332
  457MOL0     H60294   6.638   9.404   7.946 -2.1070 -1.2938 -2.0712
  457MOL0     H60295   6.714   9.257   8.007 -0.7059  0.1706 -2.6406
  457MOL0     H60296   6.550   9.440   8.186  1.3652  2.5567 -2.6903
  457MOL0     H60297   6.637   9.298   8.238 -1.2441  0.4144 -1.3871
  457MOL0     H60298   6.744   9.535   8.084 -1.9674 -1.3291 -1.0875
  457MOL0     H60299   6.843   9.414   8.146 -0.6531 -1.4346  1.0303
  457MOL0     H60300   6.767   9.465   8.393 -1.5307 -1.7016 -2.0734
  457MOL0     H60301   6.669   9.604   8.329  0.2884  1.6080 -0.5495
  457MOL0     H60302   6.958   9.577   8.283  0.8617 -1.0629  1.7933
  457MOL0     H60303   6.854   9.718   8.244  0.3952  1.7487  1.2897
  457MOL0     H60304   6.819   9.759   8.487 -0.3961 -0.3537 -0.5534
  457MOL0     H60305   6.990   9.754   8.460  1.2670 -1.9695  1.5432
  457MOL0     H60306   6.427   9.109   7.550 -1.5143 -1.6653 -1.1108
  457MOL0     H60307   6.402   8.889   7.464 -0.2728  2.1071  0.7749
  457MOL0     H60308   6.519   8.441   7.555  0.7784  1.9684  0.8360
  457MOL0     H60309   6.582   8.210   7.514 -0.8936  3.0963  1.1920
  457MOL0     H60310   6.761   8.607   5.680  2.3915 -0.0825  0.9126
  457MOL0     H60311   6.995   8.570   5.564 -0.0912  2.1655  1.8155
  457MOL0     H60312   7.250   8.507   5.364 -2.7263  0.9621 -1.5570
  457MOL0     H60313   7.487   8.536   5.281  0.8209 -1.4695 -0.6146
  457MOL0     H60314   7.606   8.652   5.120 -1.7655 -1.1853  1.5374
  457MOL0     H60315   7.579   8.626   4.946 -3.2248  0.1568  2.0673
  457MOL0     H60316   7.836   8.584   5.126  0.3609 -0.5292 -0.0996
  457MOL0     H60317   7.813   8.479   4.991 -1.8926 -0.3087 -1.4851
  457MOL0     H60318   7.821   8.776   4.974 -0.6029 -1.8751  0.3046
  457MOL0     H60319   7.838   8.681   4.834 -2.0081  2.9957 -0.7016
  457MOL0     H60320   8.053   8.578   4.919  2.1263  0.8188 -0.4193
  457MOL0     H60321   8.068   8.744   4.893  1.4684  1.4895  2.9117
  457MOL0     H60322   8.084   8.775   5.321 -1.7199  1.2600  0.4809
  457MOL0     H60323   7.399   8.298   4.937  2.0513 -3.4286  0.9957
  457MOL0     H60324   7.188   8.236   5.038  0.0566 -0.1198  0.2902
  458MOL0     O60325   0.409   1.958   3.442  0.3391 -0.6265 -0.3926
  458MOL0     C60326   0.471   1.942   3.541 -0.1206  0.6074  0.6563
  458MOL0     O60327   0.424   1.947   3.669 -0.3559  0.1488  0.0441
  458MOL0     C60328   0.310   2.014   3.693 -0.5668  0.1657 -0.3901
  458MOL0     C60329   0.194   1.936   3.685  0.8755  0.1975 -1.7680
  458MOL0     C60330   0.070   1.994   3.703  0.4360 -0.5362  0.1812
  458MOL0     C60331   0.053   2.127   3.719 -0.7922 -0.2074  0.5642
  458MOL0     O60332  -0.061   2.192   3.733  0.2565 -0.0426  0.2443
  458MOL0     C60333  -0.166   2.129   3.666  0.0399  0.0461 -0.5919
  458MOL0     C60334  -0.289   2.219   3.674  0.2641  0.5913 -0.8833
  458MOL0     C60335  -0.364   2.202   3.806  0.1844  0.2517  0.9362
  458MOL0     C60336  -0.501   2.282   3.796 -0.6558  0.2171  0.6831
  458MOL0     C60337  -0.569   2.273   3.931  0.4172  0.6513  0.6112
  458MOL0     C60338  -0.719   2.297   3.921 -0.9553 -0.6267  0.0804
  458MOL0     C60339  -0.756   2.436   3.861 -0.7153  0.7321  0.2483
  458MOL0     C60340  -0.900   2.462   3.890  0.2120 -0.2024  0.0534
  458MOL0     N60341  -0.929   2.604   3.844  0.3229 -0.4763 -1.0260
  458MOL0     C60342  -0.929   2.712   3.933  0.6079 -0.9185  0.0676
  458MOL0     C60343  -0.910   2.821   3.862 -0.0274 -0.1407 -0.4085
  458MOL0     C60344  -0.922   2.960   3.910  0.7304  0.7217 -0.5835
  458MOL0     C60345  -1.047   3.016   3.851 -0.2146 -0.1568 -0.2246
  458MOL0     C60346  -1.177   2.943   3.887 -0.7467 -0.7022  0.5403
  458MOL0     C60347  -1.290   3.031   3.834 -0.0762 -0.3416 -0.7412
  458MOL0     O60348  -1.413   2.961   3.833 -0.0252 -0.7043  0.1647
  458MOL0     C60349  -1.514   3.039   3.774  0.5407 -0.3053 -0.0839
  458MOL0     C60350  -1.512   3.173   3.742  0.1474 -0.3501  0.3219
  458MOL0     C60351  -1.627   3.244   3.714 -0.5122 -0.1556 -0.2584
  458MOL0     C60352  -1.756   3.186   3.732  0.9278  0.1928  0.3272
  458MOL0     C60353  -1.887   3.268   3.710 -0.7004 -1.4315  0.6818
  458MOL0     O60354  -2.008   3.203   3.704  0.1869  0.3130  0.1379
  458MOL0     C60355  -2.111   3.270   3.641 -0.4488 -0.1297  0.7757
  458MOL0     C60356  -2.098   3.340   3.516 -0.1569 -0.3098 -0.3824
  458MOL0     C60357  -2.198   3.410   3.452 -0.3159 -0.2487 -0.4145
  458MOL0     C60358  -2.324   3.411   3.521  0.2252 -1.2128 -0.2615
  458MOL0     O60359  -2.435   3.481   3.489 -1.0068 -0.0496  0.2168
  458MOL0     C60360  -2.403   3.611   3.426 -1.2066  0.8620 -1.0248
  458MOL0     C60361  -2.528   3.692   3.400  0.4200 -0.2018  1.4467
  458MOL0     C60362  -2.599   3.706   3.528  0.0634 -0.4660 -0.5136
  458MOL0     C60363  -2.732   3.794   3.523 -0.2667  0.5790 -0.5057
  458MOL0     C60364  -2.761   3.842   3.667  0.6246 -0.0112 -1.1967
  458MOL0     C60365  -2.846   3.738   3.749 -0.6731 -0.0776 -0.4170
  458MOL0     C60366  -2.900   3.790   3.887  0.0183  1.2398  0.3011
  458MOL0     C60367  -3.028   3.857   3.843  0.0974 -0.1800 -0.3147
  458MOL0    Cl60368  -3.099   3.951   3.978  0.0062  0.2133  0.7751
  458MOL0     C60369  -2.345   3.333   3.639  0.7234  0.1830 -0.3614
  458MOL0     C60370  -2.234   3.260   3.694  0.7129  0.5216 -0.0886
  458MOL0     O60371  -1.873   3.381   3.688 -0.1183  0.4033 -0.6014
  458MOL0     C60372  -1.765   3.054   3.759  0.5640 -0.0508  0.1190
  458MOL0     C60373  -1.646   2.981   3.781  0.4839 -0.0049  0.6988
  458MOL0     N60374  -0.887   2.783   3.728 -1.1653  0.6047 -0.5401
  458MOL0     N60375  -0.901   2.660   3.721 -0.1111 -0.2672 -0.4887
  458MOL0     C60376   0.172   2.202   3.718  0.7197 -0.0182  0.1535
  458MOL0     C60377   0.302   2.151   3.710 -0.5773 -0.1296  0.7051
  458MOL0     C60378   0.606   1.885   3.513 -0.0987  0.8840 -0.8174
  458MOL0     C60379   0.668   1.895   3.388 -0.3529 -0.6314 -0.5147
  458MOL0     C60380   0.790   1.825   3.362 -0.0310 -1.5009 -0.2106
  458MOL0     C60381   0.849   1.756   3.466  0.4583 -0.6267  0.2467
  458MOL0     O60382   0.959   1.683   3.447 -0.2778  0.5584  0.2115
  458MOL0     C60383   1.017   1.660   3.309  0.6158 -1.3942 -0.0516
  458MOL0     C60384   1.140   1.566   3.334  1.4761  0.9176  0.4254
  458MOL0     C60385   1.176   1.491   3.202  0.4414 -1.2028 -0.1161
  458MOL0     C60386   1.231   1.577   3.091 -0.8341 -0.7670  0.2799
  458MOL0     C60387   1.369   1.620   3.135  0.2982  0.0195 -0.8117
  458MOL0     C60388   1.473   1.640   3.191  0.3653  0.8044 -0.4220
  458MOL0     C60389   0.789   1.750   3.586  0.5585  0.2396  0.1388
  458MOL0     C60390   0.675   1.828   3.616  0.3791 -0.6471 -0.1541
  458MOL0     H60391   0.204   1.829   3.674  1.1848  0.0808 -0.5529
  458MOL0     H60392  -0.014   1.926   3.716 -0.6988  1.0193  1.2040
  458MOL0     H60393  -0.191   2.030   3.706 -1.2248  1.0443  1.2192
  458MOL0     H60394  -0.149   2.100   3.562 -1.5688 -3.4774 -0.0307
  458MOL0     H60395  -0.345   2.206   3.581  1.0621  2.3363 -1.6540
  458MOL0     H60396  -0.260   2.325   3.670 -0.4559  1.0182  2.3397
  458MOL0     H60397  -0.293   2.236   3.881  1.9124  0.3669 -0.6755
  458MOL0     H60398  -0.387   2.097   3.824  0.9572 -0.5863 -2.3111
  458MOL0     H60399  -0.488   2.389   3.774 -2.9366 -0.3154 -5.2120
  458MOL0     H60400  -0.564   2.251   3.712  3.7395 -0.3193 -2.7526
  458MOL0     H60401  -0.520   2.340   4.002 -0.3940  2.2920 -0.3329
  458MOL0     H60402  -0.553   2.174   3.975  0.5984  0.6177  0.4709
  458MOL0     H60403  -0.756   2.290   4.024 -1.0695 -2.4194 -0.0495
  458MOL0     H60404  -0.763   2.229   3.847 -1.5557  0.1291 -0.2843
  458MOL0     H60405  -0.695   2.514   3.907  1.0783  0.9602 -2.2582
  458MOL0     H60406  -0.746   2.434   3.752 -2.4207  0.0006  0.0678
  458MOL0     H60407  -0.908   2.447   3.998 -2.6773  0.0025 -0.0568
  458MOL0     H60408  -0.974   2.408   3.832  1.3245 -2.7453  0.8507
  458MOL0     H60409  -0.957   2.715   4.038 -0.0249  1.5919 -0.1025
  458MOL0     H60410  -0.843   3.026   3.873  1.1493  1.4444  1.4480
  458MOL0     H60411  -0.927   2.962   4.019 -2.3748 -2.4155 -0.4729
  458MOL0     H60412  -1.031   3.002   3.744  2.3168 -0.6004  0.1453
  458MOL0     H60413  -1.063   3.124   3.859 -2.3908 -0.3822 -0.9804
  458MOL0     H60414  -1.182   2.845   3.840 -0.1439 -0.3914 -0.2051
  458MOL0     H60415  -1.183   2.930   3.995  0.0796  3.1218  1.1915
  458MOL0     H60416  -1.266   3.068   3.734 -5.7467  2.3340 -1.4999
  458MOL0     H60417  -1.301   3.125   3.889 -1.0227  1.1992 -3.3764
  458MOL0     H60418  -1.421   3.232   3.741 -0.8663  1.2623 -0.5904
  458MOL0     H60419  -1.615   3.349   3.691  1.4384  0.0076  1.2375
  458MOL0     H60420  -2.004   3.364   3.466 -0.9210  3.3561 -0.3521
  458MOL0     H60421  -2.168   3.472   3.368  0.4180 -0.2845 -0.1846
  458MOL0     H60422  -2.345   3.602   3.333 -1.6865  1.0275 -1.3481
  458MOL0     H60423  -2.342   3.664   3.499  1.6604  0.6491 -3.0955
  458MOL0     H60424  -2.590   3.654   3.318 -2.1466  1.8841  2.2701
  458MOL0     H60425  -2.490   3.788   3.364  0.5803 -0.6018  0.5222
  458MOL0     H60426  -2.530   3.753   3.599  0.4661 -0.8102 -0.6718
  458MOL0     H60427  -2.636   3.610   3.566  1.7451 -1.0016 -0.1380
  458MOL0     H60428  -2.706   3.887   3.473 -1.2828  0.7061 -0.8268
  458MOL0     H60429  -2.815   3.737   3.479 -1.2215  0.7663  0.9730
  458MOL0     H60430  -2.812   3.938   3.665 -0.7229 -0.6884 -0.6623
  458MOL0     H60431  -2.667   3.862   3.719  2.5589 -5.8491 -1.6769
  458MOL0     H60432  -2.787   3.647   3.760 -4.1203 -2.3111  1.2328
  458MOL0     H60433  -2.935   3.717   3.688 -0.9147 -1.4340  0.3748
  458MOL0     H60434  -2.923   3.710   3.957 -0.2732  2.8888  2.1723
  458MOL0     H60435  -2.825   3.859   3.928  0.5678  0.2618  0.9605
  458MOL0     H60436  -3.106   3.791   3.805 -0.9990  1.5134 -1.1569
  458MOL0     H60437  -3.016   3.921   3.755  2.7375 -1.9729 -1.3948
  458MOL0     H60438  -2.438   3.328   3.696  1.3575  0.7789  0.7489
  458MOL0     H60439  -2.246   3.194   3.779  6.0598 -1.1970 -0.2961
  458MOL0     H60440  -1.855   3.001   3.789  1.5783 -1.8014  0.2338
  458MOL0     H60441  -1.669   2.876   3.800 -3.1554 -0.1250 -2.9806
  458MOL0     H60442   0.156   2.309   3.707 -2.7030 -0.4378 -0.3825
  458MOL0     H60443   0.393   2.208   3.696 -0.6004 -0.3703 -0.5869
  458MOL0     H60444   0.605   1.928   3.307  0.0488 -1.3520 -1.1317
  458MOL0     H60445   0.830   1.826   3.262  2.0777 -2.0351  0.5766
  458MOL0     H60446   1.053   1.757   3.274 -1.5309  0.3581  2.2373
  458MOL0     H60447   0.949   1.604   3.244  1.8706 -2.7997 -0.1889
  458MOL0     H60448   1.231   1.616   3.370  1.9842  0.3926 -0.1102
  458MOL0     H60449   1.111   1.484   3.401 -1.7546  2.0383  0.5421
  458MOL0     H60450   1.086   1.444   3.161 -0.7248  3.6192 -3.9749
  458MOL0     H60451   1.243   1.411   3.235  0.1692 -1.1177  0.6503
  458MOL0     H60452   1.244   1.515   3.002  0.8051 -2.5727  1.7045
  458MOL0     H60453   1.168   1.662   3.063  0.0948 -0.5753 -1.3803
  458MOL0     H60454   1.570   1.648   3.235  0.6856  1.8480 -1.2824
  458MOL0     H60455   0.842   1.694   3.662  0.9077 -2.8196 -2.1467
  458MOL0     H60456   0.631   1.820   3.715 -0.9900  2.1608 -0.4217
  459MOL0     O60457  11.263   4.717   9.898 -0.0942  1.1741  0.4059
  459MOL0     C60458  11.301   4.761   9.789  1.1313 -0.1157 -0.2653
  459MOL0     O60459  11.233   4.846   9.708 -1.1805 -0.3285  0.5747
  459MOL0     C60460  11.099   4.861   9.715 -0.2881  0.0549 -1.0376
  459MOL0     C60461  11.023   4.891   9.603  0.5528 -0.4835 -0.8455
  459MOL0     C60462  10.882   4.912   9.608 -0.3514  0.1434 -0.8691
  459MOL0     C60463  10.822   4.916   9.734  0.7684  0.4495 -0.5317
  459MOL0     O60464  10.687   4.947   9.732  0.1560  0.1368  0.1316
  459MOL0     C60465  10.600   4.881   9.830  0.0095  0.8718  0.5020
  459MOL0     C60466  10.453   4.913   9.787  0.7771 -0.1645  0.3865
  459MOL0     C60467  10.415   4.859   9.644 -0.5234  0.1020  1.0365
  459MOL0     C60468  10.273   4.897   9.611  0.6445 -0.2993  0.5930
  459MOL0     C60469  10.249   4.896   9.450 -0.0368 -0.1130  0.1522
  459MOL0     C60470  10.102   4.905   9.417 -0.1971  0.3575 -0.8096
  459MOL0     C60471  10.033   5.041   9.455  0.4841 -0.2960 -0.2635
  459MOL0     C60472   9.889   5.061   9.400  0.3581 -0.4297 -0.0971
  459MOL0     N60473   9.788   4.993   9.483  0.7757  0.0022 -0.1651
  459MOL0     C60474   9.734   4.879   9.449  0.0773  0.1875  0.9661
  459MOL0     C60475   9.613   4.856   9.514  0.9141 -0.6886  0.4860
  459MOL0     C60476   9.518   4.748   9.491  0.6472  0.1123  0.1020
  459MOL0     C60477   9.421   4.775   9.365  0.5980 -0.4741  0.5931
  459MOL0     C60478   9.332   4.645   9.346 -0.5245  0.1979  0.3344
  459MOL0     C60479   9.285   4.613   9.199 -0.1824  0.7724  0.7013
  459MOL0     O60480   9.209   4.492   9.181 -1.1307  0.2605 -0.6054
  459MOL0     C60481   9.127   4.461   9.076  0.2883  0.8448  1.3368
  459MOL0     C60482   9.121   4.518   8.944  0.2876  0.0755 -0.9123
  459MOL0     C60483   9.021   4.488   8.849 -0.3389  0.2815 -0.0752
  459MOL0     C60484   8.926   4.395   8.883 -0.5878 -0.3707 -0.0631
  459MOL0     C60485   8.833   4.377   8.772  0.0742  0.5961 -0.0724
  459MOL0     O60486   8.801   4.476   8.677  0.2080 -0.2354  0.1009
  459MOL0     C60487   8.759   4.442   8.547  0.4557 -0.2396 -0.8068
  459MOL0     C60488   8.684   4.526   8.472 -0.2898 -0.0479 -0.4434
  459MOL0     C60489   8.652   4.502   8.336  0.0628 -0.2461 -0.0831
  459MOL0     C60490   8.705   4.394   8.268  0.1062 -0.2663 -0.0187
  459MOL0     O60491   8.668   4.389   8.139  0.0106  0.6649 -0.3073
  459MOL0     C60492   8.699   4.272   8.072 -0.0222 -0.9952  0.3399
  459MOL0     C60493   8.682   4.293   7.926 -0.0705  0.0216 -0.4603
  459MOL0     C60494   8.543   4.330   7.872 -0.1177  0.0210 -1.0604
  459MOL0     C60495   8.552   4.414   7.744  0.3580 -0.2627 -0.4735
  459MOL0     C60496   8.409   4.422   7.687 -0.5879 -0.2509  0.2054
  459MOL0     C60497   8.360   4.303   7.608  0.8994 -0.2127 -0.4966
  459MOL0     C60498   8.204   4.317   7.578 -0.6298 -0.0698 -0.4568
  459MOL0     C60499   8.112   4.194   7.608  0.8050 -0.5884  1.0084
  459MOL0    Cl60500   7.956   4.204   7.506 -0.2145  0.2049 -0.1162
  459MOL0     C60501   8.794   4.312   8.343 -0.4651  0.6705  1.0707
  459MOL0     C60502   8.815   4.335   8.483 -0.7026  0.0872  0.4232
  459MOL0     O60503   8.771   4.271   8.777  0.5031 -0.6143  0.1246
  459MOL0     C60504   8.930   4.338   9.008 -0.1383  0.2798  0.7845
  459MOL0     C60505   9.020   4.373   9.099  0.0127 -0.3702 -0.6576
  459MOL0     N60506   9.593   4.965   9.595  0.5880 -0.8392 -0.4866
  459MOL0     N60507   9.695   5.050   9.569 -0.0681  0.0861  0.0352
  459MOL0     C60508  10.898   4.906   9.851 -0.6602  0.0902  0.2993
  459MOL0     C60509  11.037   4.876   9.841 -0.3117 -0.3466 -1.0271
  459MOL0     C60510  11.435   4.730   9.759 -0.1134  0.1438  0.9609
  459MOL0     C60511  11.485   4.768   9.629 -0.3277  0.9256  0.4241
  459MOL0     C60512  11.624   4.739   9.598 -0.0982  0.6235  0.1821
  459MOL0     C60513  11.698   4.659   9.683 -0.6075 -0.4400 -0.3955
  459MOL0     O60514  11.821   4.634   9.646  0.0800 -0.4739 -0.6640
  459MOL0     C60515  11.832   4.505   9.592 -0.2510 -0.4269  0.0212
  459MOL0     C60516  11.908   4.512   9.465  0.1655  0.2373 -0.9793
  459MOL0     C60517  11.917   4.378   9.380 -0.3763 -0.6686 -0.7573
  459MOL0     C60518  11.956   4.387   9.236 -0.7026  0.0153  0.2703
  459MOL0     C60519  12.095   4.411   9.214 -0.2756 -0.3503  0.2988
  459MOL0     C60520  12.216   4.415   9.198  0.0233  0.6507  0.2308
  459MOL0     C60521  11.646   4.621   9.809  0.4671 -1.2353 -0.4129
  459MOL0     C60522  11.517   4.655   9.849 -0.1190  0.9587 -0.7909
  459MOL0     H60523  11.074   4.909   9.509  1.0975 -0.8300 -0.6206
  459MOL0     H60524  10.829   4.954   9.523 -0.1263  1.5365 -0.3296
  459MOL0     H60525  10.613   4.925   9.929 -0.7700  2.3231 -0.0046
  459MOL0     H60526  10.598   4.771   9.833 -2.1228  0.5963 -3.2908
  459MOL0     H60527  10.448   5.022   9.791  1.4045 -0.1478  0.7909
  459MOL0     H60528  10.383   4.876   9.862  1.1474  1.9655  1.8665
  459MOL0     H60529  10.443   4.753   9.643  0.8676  0.4316 -1.1406
  459MOL0     H60530  10.489   4.905   9.578  1.5083  0.1833  3.2381
  459MOL0     H60531  10.200   4.850   9.677  2.1285 -1.9093  1.1445
  459MOL0     H60532  10.263   5.000   9.646 -4.7367 -0.0366 -0.7591
  459MOL0     H60533  10.278   4.799   9.407 -3.9286 -0.2192 -2.7269
  459MOL0     H60534  10.307   4.983   9.419 -0.3328  0.7379  1.8799
  459MOL0     H60535  10.056   4.819   9.467 -3.0966  1.4847 -1.3310
  459MOL0     H60536  10.100   4.905   9.308 -3.1880  0.3313 -0.8461
  459MOL0     H60537  10.047   5.054   9.563  2.1667  3.3530 -0.7438
  459MOL0     H60538  10.096   5.114   9.403  1.8175 -2.2081 -1.4768
  459MOL0     H60539   9.874   5.040   9.294  3.0857  4.5565 -1.8098
  459MOL0     H60540   9.852   5.163   9.414 -2.7045 -1.5030  0.4892
  459MOL0     H60541   9.786   4.818   9.376  1.5155  1.9680  0.4428
  459MOL0     H60542   9.448   4.749   9.575  2.9121  1.9222  2.0926
  459MOL0     H60543   9.581   4.658   9.495  1.4341  0.6960  1.2702
  459MOL0     H60544   9.483   4.796   9.278  0.5451  3.6011  1.3535
  459MOL0     H60545   9.357   4.864   9.364 -1.1451 -1.6813 -0.1476
  459MOL0     H60546   9.390   4.556   9.371  0.5893  0.4202 -1.2697
  459MOL0     H60547   9.255   4.660   9.422 -0.1457 -2.8553  1.4501
  459MOL0     H60548   9.379   4.600   9.144  0.9641  2.4227  2.1550
  459MOL0     H60549   9.246   4.701   9.147  0.1309  1.1464  1.0876
  459MOL0     H60550   9.211   4.573   8.921  0.2121 -1.1748 -5.1001
  459MOL0     H60551   9.043   4.549   8.763 -0.4813 -0.2997 -0.5275
  459MOL0     H60552   8.631   4.611   8.515 -1.2908 -1.4510  1.2455
  459MOL0     H60553   8.595   4.583   8.291 -2.9028 -1.7780  0.6593
  459MOL0     H60554   8.626   4.200   8.108 -0.4048 -0.6843  0.1935
  459MOL0     H60555   8.804   4.242   8.084 -0.0684 -1.6400 -0.7038
  459MOL0     H60556   8.716   4.193   7.896  2.1075 -0.1755  2.2923
  459MOL0     H60557   8.750   4.375   7.900  0.3724  0.2894  1.4328
  459MOL0     H60558   8.493   4.375   7.958 -1.5689 -4.9203  1.0433
  459MOL0     H60559   8.484   4.241   7.848  0.9310 -1.6950  2.1481
  459MOL0     H60560   8.588   4.512   7.778 -2.6297  0.6179  0.4908
  459MOL0     H60561   8.613   4.370   7.665 -1.9817 -1.0129 -1.9603
  459MOL0     H60562   8.409   4.510   7.622  0.6810  0.5901  1.2900
  459MOL0     H60563   8.343   4.445   7.771 -1.0020 -0.0116 -0.1809
  459MOL0     H60564   8.347   4.212   7.668 -5.1107  0.6419  0.1174
  459MOL0     H60565   8.430   4.276   7.529  0.3558 -4.8168  0.3365
  459MOL0     H60566   8.144   4.393   7.628 -2.1517 -1.0616 -0.7202
  459MOL0     H60567   8.192   4.355   7.476  1.4276  1.3580 -0.2374
  459MOL0     H60568   8.081   4.185   7.712 -1.0204 -1.2393  0.4484
  459MOL0     H60569   8.168   4.104   7.579  1.1371  0.2408 -1.1104
  459MOL0     H60570   8.842   4.229   8.293 -0.3296  1.9082 -0.9401
  459MOL0     H60571   8.875   4.263   8.539  0.9442 -0.1133 -1.4814
  459MOL0     H60572   8.846   4.272   9.028 -3.8752  4.3517  0.0775
  459MOL0     H60573   9.025   4.333   9.200  3.9896 -5.0808 -2.2615
  459MOL0     H60574  10.847   4.933   9.943 -2.2897 -0.6026 -0.3638
  459MOL0     H60575  11.092   4.871   9.934 -3.1501  1.6902  0.9779
  459MOL0     H60576  11.423   4.806   9.548  0.1607 -0.7871 -0.8129
  459MOL0     H60577  11.668   4.771   9.504 -1.5903 -2.0289 -1.5705
  459MOL0     H60578  11.736   4.461   9.563 -2.3650  3.8212 -0.1586
  459MOL0     H60579  11.898   4.438   9.649  2.0946  1.6853 -0.0543
  459MOL0     H60580  11.869   4.590   9.399  0.2669  3.0510  2.0045
  459MOL0     H60581  12.001   4.558   9.498 -0.5874 -0.7998  3.2844
  459MOL0     H60582  11.819   4.327   9.381 -0.7315 -0.0232  1.3267
  459MOL0     H60583  11.987   4.303   9.418  0.2931  0.9681  1.4116
  459MOL0     H60584  11.928   4.287   9.204 -3.5714  0.8346 -0.0890
  459MOL0     H60585  11.899   4.461   9.178 -1.0096  0.5558  1.2450
  459MOL0     H60586  12.320   4.409   9.175  0.4336  0.5405  1.9353
  459MOL0     H60587  11.713   4.559   9.868 -0.4644 -3.8015 -1.8712
  459MOL0     H60588  11.477   4.622   9.944  1.2534  0.9225 -0.1988
  460MOL0     O60589   5.535   0.624   2.118  0.5949  0.0671 -0.0075
  460MOL0     C60590   5.535   0.527   2.193  0.1485 -0.0869 -0.1414
  460MOL0     O60591   5.491   0.407   2.163 -0.9129  0.5137  0.1824
  460MOL0     C60592   5.415   0.396   2.056 -0.7459  0.6663  0.1669
  460MOL0     C60593   5.476   0.373   1.933 -0.8423  0.1031  0.5267
  460MOL0     C60594   5.397   0.340   1.817 -0.5508 -2.1740  0.0108
  460MOL0     C60595   5.256   0.324   1.828 -0.0194 -1.1849 -1.1770
  460MOL0     O60596   5.175   0.287   1.729 -0.0905 -0.0932 -0.4813
  460MOL0     C60597   5.217   0.173   1.650  0.1963 -0.0048 -1.0449
  460MOL0     C60598   5.277   0.212   1.516  1.1328 -0.3545  0.4470
  460MOL0     C60599   5.354   0.100   1.446 -0.3639 -0.1788  0.5294
  460MOL0     C60600   5.271   0.008   1.362  0.0367 -0.2147 -0.3131
  460MOL0     C60601   5.350  -0.119   1.314 -0.6289 -0.3332 -0.0409
  460MOL0     C60602   5.300  -0.206   1.195  0.0654 -0.0456 -0.0575
  460MOL0     C60603   5.158  -0.260   1.223  0.0455 -0.8097  0.6182
  460MOL0     C60604   5.152  -0.392   1.304 -0.1469 -1.1295  0.3153
  460MOL0     N60605   5.234  -0.373   1.427  0.3231  0.1390  0.1910
  460MOL0     C60606   5.192  -0.324   1.549  0.6912  0.1693 -1.2181
  460MOL0     C60607   5.268  -0.384   1.642  0.8774  0.0894  0.4715
  460MOL0     C60608   5.257  -0.399   1.789  0.3505 -0.3298 -0.4604
  460MOL0     C60609   5.288  -0.275   1.875  0.0653  0.3828  0.3948
  460MOL0     C60610   5.231  -0.141   1.851  0.3258  0.2541 -0.3287
  460MOL0     C60611   5.244  -0.037   1.964 -0.4651  0.3118 -0.3056
  460MOL0     O60612   5.384   0.004   2.003 -0.4632 -0.2632  0.0723
  460MOL0     C60613   5.442  -0.039   2.119  0.3174  1.0063  0.1105
  460MOL0     C60614   5.557   0.027   2.158  0.6475 -0.0545  0.3997
  460MOL0     C60615   5.618  -0.007   2.275  0.5143 -0.2388  0.2626
  460MOL0     C60616   5.585  -0.125   2.344  0.3401  0.4483 -0.3838
  460MOL0     C60617   5.670  -0.165   2.454  0.9418  0.7013  0.4336
  460MOL0     O60618   5.618  -0.259   2.536 -0.6725  0.3032 -0.2159
  460MOL0     C60619   5.679  -0.300   2.658 -0.4121  0.6410  0.8155
  460MOL0     C60620   5.589  -0.357   2.754  0.0283  0.4233 -0.2754
  460MOL0     C60621   5.620  -0.410   2.883 -1.3106 -0.7581 -0.3833
  460MOL0     C60622   5.763  -0.406   2.913  0.6362 -0.1020  0.6669
  460MOL0     O60623   5.807  -0.445   3.033 -0.1575 -0.4279 -0.5620
  460MOL0     C60624   5.742  -0.402   3.155 -1.1951 -0.8147  0.3951
  460MOL0     C60625   5.751  -0.256   3.187  0.9409  0.5095  0.0699
  460MOL0     C60626   5.901  -0.221   3.218  0.0388 -0.3426  0.3823
  460MOL0     C60627   5.906  -0.089   3.297 -0.2325  0.8120 -0.2337
  460MOL0     C60628   6.053  -0.041   3.312  0.3871 -0.5148 -0.3386
  460MOL0     C60629   6.121   0.009   3.190  0.0356  0.5722 -0.2823
  460MOL0     C60630   6.260   0.068   3.220  1.2743 -0.0551 -0.2679
  460MOL0     C60631   6.334   0.090   3.086  0.0163  0.0174  0.1337
  460MOL0    Cl60632   6.278   0.232   3.007  0.4724  0.2503  0.2000
  460MOL0     C60633   5.853  -0.350   2.829  1.0601 -0.2637 -0.1947
  460MOL0     C60634   5.816  -0.299   2.699 -0.3902 -0.5061 -0.4099
  460MOL0     O60635   5.771  -0.100   2.485 -0.0270  0.2632 -0.5689
  460MOL0     C60636   5.472  -0.194   2.305  0.8893 -0.9525 -0.1755
  460MOL0     C60637   5.395  -0.155   2.203 -0.0198 -0.0521 -0.0718
  460MOL0     N60638   5.364  -0.454   1.572 -0.6452 -0.4253 -0.5544
  460MOL0     N60639   5.344  -0.438   1.444  0.3289  0.2188 -0.0748
  460MOL0     C60640   5.200   0.368   1.953  0.1673  1.0336  0.3017
  460MOL0     C60641   5.273   0.393   2.065 -0.3951  0.2489 -0.7041
  460MOL0     C60642   5.613   0.538   2.317 -0.3627 -0.4735  0.1484
  460MOL0     C60643   5.687   0.658   2.347 -0.3774  0.8883 -0.1045
  460MOL0     C60644   5.762   0.669   2.469 -0.3250  0.7689  1.2140
  460MOL0     C60645   5.777   0.562   2.560 -0.4779 -0.7024 -0.2117
  460MOL0     O60646   5.845   0.580   2.681  0.3006  0.0552 -0.6002
  460MOL0     C60647   5.980   0.615   2.672  0.1503  0.3380 -0.0107
  460MOL0     C60648   6.061   0.583   2.799  0.6178  0.5764 -1.1652
  460MOL0     C60649   6.076   0.684   2.909 -0.4165  0.6678  0.7815
  460MOL0     C60650   6.157   0.809   2.862  0.1794  0.0628 -0.5920
  460MOL0     C60651   6.295   0.799   2.813 -0.4191  0.2288  0.8273
  460MOL0     C60652   6.408   0.783   2.771  0.4754  0.1067 -0.2893
  460MOL0     C60653   5.703   0.450   2.533  0.8417  0.3806  0.3280
  460MOL0     C60654   5.610   0.437   2.426 -0.6415 -0.0573 -0.0039
  460MOL0     H60655   5.584   0.371   1.927 -0.8683 -1.4934  0.1145
  460MOL0     H60656   5.446   0.336   1.720  0.4772  2.6117  0.0825
  460MOL0     H60657   5.134   0.107   1.625 -1.1583  1.3960 -0.4476
  460MOL0     H60658   5.288   0.116   1.711  1.7361  0.7622 -2.0401
  460MOL0     H60659   5.345   0.298   1.520 -1.8154  2.2545 -0.8966
  460MOL0     H60660   5.202   0.245   1.444 -0.0964 -2.1278  0.8715
  460MOL0     H60661   5.413   0.036   1.512 -0.0700 -1.3888 -0.8390
  460MOL0     H60662   5.425   0.150   1.379 -2.1445  2.7902  0.6686
  460MOL0     H60663   5.176  -0.012   1.413 -0.6692  2.3185 -0.4911
  460MOL0     H60664   5.249   0.057   1.267 -1.3247  0.8089  0.4947
  460MOL0     H60665   5.361  -0.187   1.399 -0.9856 -0.3563 -0.0116
  460MOL0     H60666   5.451  -0.081   1.295 -0.2732 -1.5440 -0.6727
  460MOL0     H60667   5.375  -0.285   1.182  1.4972  1.3053 -0.3089
  460MOL0     H60668   5.298  -0.132   1.114 -1.4297 -2.2213 -2.1367
  460MOL0     H60669   5.094  -0.182   1.266  2.2540  1.6864 -0.3338
  460MOL0     H60670   5.122  -0.282   1.122 -1.3673  0.8484  0.7154
  460MOL0     H60671   5.193  -0.477   1.248 -0.5930 -0.8937 -0.3884
  460MOL0     H60672   5.052  -0.423   1.335 -0.7124 -0.9418 -1.2269
  460MOL0     H60673   5.105  -0.261   1.562 -2.6323 -3.8910 -1.7137
  460MOL0     H60674   5.312  -0.486   1.825 -0.5352 -0.8115 -0.2523
  460MOL0     H60675   5.151  -0.414   1.811  0.4179  1.0044  0.8837
  460MOL0     H60676   5.396  -0.260   1.884  0.2955 -1.1639  0.4506
  460MOL0     H60677   5.246  -0.305   1.971 -0.4412 -3.6938 -0.9156
  460MOL0     H60678   5.276  -0.100   1.760 -1.3145 -1.1453 -1.8475
  460MOL0     H60679   5.128  -0.160   1.820 -0.6790 -2.2543  3.7498
  460MOL0     H60680   5.190  -0.080   2.050 -0.3445  1.0312  0.1314
  460MOL0     H60681   5.190   0.048   1.923  1.8111  1.3903 -1.2239
  460MOL0     H60682   5.603   0.090   2.083 -2.1950  1.4974 -0.1908
  460MOL0     H60683   5.714   0.035   2.303  0.6608  1.0174 -1.9021
  460MOL0     H60684   5.481  -0.357   2.746  0.0046  0.7971 -0.0090
  460MOL0     H60685   5.548  -0.447   2.954 -2.3373 -0.3199 -1.1675
  460MOL0     H60686   5.784  -0.444   3.247  1.8003 -2.3991 -1.5453
  460MOL0     H60687   5.634  -0.417   3.142 -1.4212  0.0950  1.0894
  460MOL0     H60688   5.676  -0.233   3.263  0.1405 -0.9768 -0.2106
  460MOL0     H60689   5.704  -0.203   3.103 -1.1122 -0.4600  0.5401
  460MOL0     H60690   5.958  -0.208   3.126 -0.1555  1.6565  0.5106
  460MOL0     H60691   5.945  -0.302   3.277 -0.2592 -0.6047  0.2495
  460MOL0     H60692   5.841  -0.015   3.249  3.4779  1.8398 -4.2710
  460MOL0     H60693   5.879  -0.106   3.402  2.1380  0.3322  0.3505
  460MOL0     H60694   6.095  -0.134   3.350  1.0342  0.7342  2.2188
  460MOL0     H60695   6.050   0.039   3.387  2.8738  1.1651 -1.8975
  460MOL0     H60696   6.057   0.077   3.134 -0.2761  0.1289 -0.4660
  460MOL0     H60697   6.133  -0.083   3.132 -1.0923 -1.2440  2.1772
  460MOL0     H60698   6.255   0.157   3.282  0.7543 -0.5035  0.3405
  460MOL0     H60699   6.325  -0.001   3.273 -0.5325 -0.6334  1.3066
  460MOL0     H60700   6.319   0.009   3.014  1.3776 -1.5362  1.5086
  460MOL0     H60701   6.443   0.089   3.094  0.0035 -3.3676  1.1892
  460MOL0     H60702   5.955  -0.341   2.866  0.5743 -1.0021  1.4121
  460MOL0     H60703   5.900  -0.249   2.652  1.5029 -2.1777  1.0116
  460MOL0     H60704   5.440  -0.281   2.362  2.0299 -0.5915  1.0866
  460MOL0     H60705   5.307  -0.212   2.176 -0.7591  1.2898 -0.5706
  460MOL0     H60706   5.091   0.373   1.949  0.2364  2.2893 -2.8171
  460MOL0     H60707   5.233   0.421   2.162  1.1400 -1.6999  0.5795
  460MOL0     H60708   5.689   0.741   2.276 -0.0492  0.0306 -1.1274
  460MOL0     H60709   5.810   0.767   2.464 -0.1563  0.6194 -1.3747
  460MOL0     H60710   5.986   0.723   2.658 -0.2241  0.7515  2.5073
  460MOL0     H60711   6.027   0.563   2.588  1.5980  2.9871 -0.9458
  460MOL0     H60712   6.011   0.509   2.862 -1.6909  2.2874 -0.8194
  460MOL0     H60713   6.161   0.544   2.778  0.2430 -0.7932 -0.5213
  460MOL0     H60714   6.123   0.637   2.996  1.0433 -2.3768 -1.4670
  460MOL0     H60715   5.981   0.722   2.947 -1.0796 -2.3514  2.4724
  460MOL0     H60716   6.089   0.860   2.792  0.4282 -1.1234 -1.7401
  460MOL0     H60717   6.163   0.884   2.942 -1.9604  0.6349 -0.8840
  460MOL0     H60718   6.508   0.783   2.735 -0.0512  2.0872 -1.9457
  460MOL0     H60719   5.700   0.370   2.606  1.1172 -0.2400 -0.3204
  460MOL0     H60720   5.561   0.341   2.417  3.4220 -2.7124  3.1041
  461MOL0     O60721   9.104   6.562   7.846 -1.6871  0.9084 -0.7042
  461MOL0     C60722   9.064   6.665   7.797 -0.4682 -0.1365  0.0834
  461MOL0     O60723   9.008   6.769   7.859  1.2712 -0.2321  0.3379
  461MOL0     C60724   8.994   6.780   7.994  0.6921 -0.1362  0.5052
  461MOL0     C60725   8.962   6.670   8.080  0.0699 -0.0546  0.0522
  461MOL0     C60726   8.948   6.694   8.216  0.1500  0.4127 -0.6385
  461MOL0     C60727   8.947   6.823   8.274 -0.3583  0.1248  0.2696
  461MOL0     O60728   8.924   6.847   8.406  0.5650  0.4484 -0.0408
  461MOL0     C60729   8.868   6.744   8.489  0.8043 -0.6287 -1.7946
  461MOL0     C60730   8.843   6.814   8.626 -0.4554  0.2309  0.6045
  461MOL0     C60731   8.729   6.914   8.619  0.4255 -0.5373  0.2392
  461MOL0     C60732   8.587   6.857   8.607 -0.5666 -0.1416  0.3946
  461MOL0     C60733   8.473   6.961   8.627 -0.8641 -0.8792 -0.3485
  461MOL0     C60734   8.477   7.058   8.514 -0.7217 -0.3747  0.9137
  461MOL0     C60735   8.397   7.187   8.547 -0.1295  0.5699  0.1136
  461MOL0     C60736   8.397   7.285   8.423 -1.0998  0.5309 -0.2937
  461MOL0     N60737   8.313   7.401   8.448 -0.4957 -0.8557 -0.9041
  461MOL0     C60738   8.184   7.429   8.410  0.0151  0.0742  1.0381
  461MOL0     C60739   8.160   7.560   8.429  0.2810  1.0396 -0.0250
  461MOL0     C60740   8.027   7.631   8.387  0.2215  0.1206  0.3554
  461MOL0     C60741   7.973   7.718   8.501  0.1827  0.8541 -0.8209
  461MOL0     C60742   8.055   7.846   8.523 -0.4470 -0.7871 -0.7467
  461MOL0     C60743   7.998   7.942   8.625  0.1823  0.6957 -0.1210
  461MOL0     O60744   7.861   7.967   8.590 -1.1951 -0.1060  0.0162
  461MOL0     C60745   7.809   8.062   8.674  0.2330 -0.3528  0.0338
  461MOL0     C60746   7.698   8.123   8.617  0.2455 -0.0181 -1.1792
  461MOL0     C60747   7.617   8.212   8.695  0.5951 -0.9158 -0.0116
  461MOL0     C60748   7.656   8.252   8.820  0.3254  0.8747 -0.5965
  461MOL0     C60749   7.576   8.326   8.920  1.1167 -0.5427 -0.0646
  461MOL0     O60750   7.450   8.338   8.900 -0.4103  0.2198  0.9716
  461MOL0     C60751   7.364   8.384   8.988  0.7430  0.0492  0.9504
  461MOL0     C60752   7.249   8.450   8.938 -0.7474  0.1525  0.4175
  461MOL0     C60753   7.136   8.484   9.012 -0.4038 -0.4403  0.2602
  461MOL0     C60754   7.125   8.440   9.144  0.8008 -0.3051 -0.0407
  461MOL0     O60755   7.007   8.476   9.210 -0.0528  0.0696  0.5524
  461MOL0     C60756   6.973   8.393   9.321 -0.2802  0.8432  0.3673
  461MOL0     C60757   6.829   8.435   9.381  0.3589 -0.1631 -0.2259
  461MOL0     C60758   6.713   8.465   9.282  0.7579  0.0299  0.0599
  461MOL0     C60759   6.583   8.519   9.360  0.1907 -0.2277 -0.4881
  461MOL0     C60760   6.523   8.398   9.438  0.1594 -0.0341 -0.1202
  461MOL0     C60761   6.458   8.282   9.373 -0.0177 -0.2689 -0.1510
  461MOL0     C60762   6.400   8.181   9.473  0.8895 -0.5166 -1.0313
  461MOL0     C60763   6.350   8.059   9.397  0.7075  0.0215 -0.1179
  461MOL0    Cl60764   6.294   7.940   9.515  0.2087 -0.3010  0.6023
  461MOL0     C60765   7.245   8.380   9.200  0.3729  0.3139  0.5181
  461MOL0     C60766   7.356   8.349   9.122 -0.4536 -0.0867  0.2772
  461MOL0     O60767   7.639   8.364   9.015  0.1990 -1.0650 -0.4650
  461MOL0     C60768   7.786   8.202   8.862 -0.0898 -0.7773 -0.6707
  461MOL0     C60769   7.856   8.096   8.800  0.2647 -0.5248 -0.9777
  461MOL0     N60770   8.274   7.617   8.495 -0.2615 -0.4873 -0.6526
  461MOL0     N60771   8.367   7.523   8.500  0.6180 -0.0381 -1.7690
  461MOL0     C60772   8.975   6.931   8.183 -0.3756  0.2014 -1.1525
  461MOL0     C60773   9.004   6.908   8.040  0.3775 -0.3929 -0.2054
  461MOL0     C60774   9.058   6.673   7.650  0.7282  0.0155  0.3922
  461MOL0     C60775   9.077   6.558   7.579 -0.2387  0.8034  0.2038
  461MOL0     C60776   9.060   6.553   7.446  0.4129 -0.0974  0.3285
  461MOL0     C60777   9.049   6.673   7.368 -0.1964 -0.2557 -0.1209
  461MOL0     O60778   9.044   6.686   7.232  0.0631 -0.2946 -0.4196
  461MOL0     C60779   8.983   6.581   7.155 -0.3315 -0.4300 -0.4628
  461MOL0     C60780   8.983   6.625   7.008  0.0552  0.0984 -0.1840
  461MOL0     C60781   9.114   6.594   6.940  1.1560  0.0201  0.5714
  461MOL0     C60782   9.245   6.606   7.018  0.6876 -0.2699 -1.2498
  461MOL0     C60783   9.363   6.554   6.950  1.0999 -0.3148 -0.2353
  461MOL0     C60784   9.443   6.502   6.884  0.2963 -0.6815  0.2820
  461MOL0     C60785   9.057   6.790   7.444  1.6750 -0.3332 -1.2884
  461MOL0     C60786   9.055   6.791   7.581 -1.0001 -0.8324 -0.0804
  461MOL0     H60787   8.940   6.569   8.045 -1.3225 -0.3277  1.5455
  461MOL0     H60788   8.910   6.611   8.274 -1.6358  1.0293 -0.8531
  461MOL0     H60789   8.939   6.662   8.502  2.1920  0.8311  0.3757
  461MOL0     H60790   8.773   6.703   8.454  0.0144 -0.2606 -0.2016
  461MOL0     H60791   8.937   6.857   8.661 -0.4762  2.5296 -1.7690
  461MOL0     H60792   8.823   6.734   8.697  1.7527 -0.9335 -0.0035
  461MOL0     H60793   8.740   6.978   8.531 -0.1208 -1.4123 -0.4823
  461MOL0     H60794   8.723   6.959   8.719 -1.1171 -0.7953  0.2945
  461MOL0     H60795   8.581   6.806   8.511 -1.1594  1.4582 -0.4520
  461MOL0     H60796   8.561   6.778   8.678 -2.2296  0.1920  0.1940
  461MOL0     H60797   8.471   7.016   8.722 -0.7297  3.9230 -2.7803
  461MOL0     H60798   8.375   6.914   8.635 -0.0104 -2.5155  1.2285
  461MOL0     H60799   8.429   7.020   8.423  1.2205 -0.2922 -0.2107
  461MOL0     H60800   8.579   7.088   8.487 -0.9358  0.4491  0.9756
  461MOL0     H60801   8.293   7.178   8.577  0.0045  1.9781  1.0981
  461MOL0     H60802   8.437   7.233   8.637  1.1413 -2.1187  1.0500
  461MOL0     H60803   8.347   7.235   8.339  0.7863 -1.7819 -0.1447
  461MOL0     H60804   8.499   7.318   8.405 -2.0144  2.5938 -2.0418
  461MOL0     H60805   8.106   7.364   8.372 -0.6106 -0.5170  3.2018
  461MOL0     H60806   7.955   7.553   8.361  0.3206  0.2504 -0.3185
  461MOL0     H60807   8.044   7.701   8.305 -1.6677  0.6785  0.4092
  461MOL0     H60808   7.967   7.664   8.596 -0.2998  4.3630  1.2962
  461MOL0     H60809   7.878   7.749   8.456  0.7750  2.1032 -1.2454
  461MOL0     H60810   8.160   7.826   8.545 -0.7129 -1.8498 -0.3676
  461MOL0     H60811   8.042   7.903   8.431  2.7755  2.0323  0.3631
  461MOL0     H60812   8.054   8.035   8.621  1.4448 -0.0661 -0.6349
  461MOL0     H60813   7.996   7.907   8.729 -1.8260  2.8710  0.6669
  461MOL0     H60814   7.653   8.093   8.523  0.2919  0.1175 -1.2439
  461MOL0     H60815   7.520   8.247   8.661  0.3720 -0.1990  1.2918
  461MOL0     H60816   7.251   8.476   8.832  0.9709 -1.5652 -0.0364
  461MOL0     H60817   7.071   8.552   8.958 -2.0744 -0.7336  1.8170
  461MOL0     H60818   7.045   8.403   9.403  0.1934  4.1300 -0.3139
  461MOL0     H60819   6.975   8.290   9.285  3.1277  1.8347 -2.8614
  461MOL0     H60820   6.851   8.532   9.428  1.1357 -0.3682 -0.1474
  461MOL0     H60821   6.803   8.363   9.459  3.4873  1.8197  2.9598
  461MOL0     H60822   6.688   8.382   9.214  1.2786  0.9304 -1.2670
  461MOL0     H60823   6.752   8.543   9.217  0.0146  1.6624  1.5103
  461MOL0     H60824   6.602   8.597   9.433  0.1938 -2.9956  2.7380
  461MOL0     H60825   6.510   8.565   9.293  0.0757  0.5092  0.1310
  461MOL0     H60826   6.448   8.438   9.507 -1.2250 -3.5647  0.6292
  461MOL0     H60827   6.592   8.349   9.507 -1.2847 -4.9635 -1.7986
  461MOL0     H60828   6.536   8.244   9.307  0.9433  1.0098  0.1997
  461MOL0     H60829   6.374   8.321   9.314 -0.2872  1.1216  1.0870
  461MOL0     H60830   6.461   8.169   9.564  1.5739  2.3814 -1.0102
  461MOL0     H60831   6.301   8.216   9.504  1.7638  0.9222  0.3613
  461MOL0     H60832   6.424   8.015   9.328  0.9824 -0.9386  0.7634
  461MOL0     H60833   6.262   8.092   9.342  1.5655  0.7098 -1.1346
  461MOL0     H60834   7.256   8.377   9.307 -1.9402  1.0544  0.8374
  461MOL0     H60835   7.441   8.311   9.179  0.4275  1.0940 -0.2031
  461MOL0     H60836   7.818   8.247   8.955  1.2411  0.3921 -1.6424
  461MOL0     H60837   7.943   8.059   8.852 -1.0240 -1.9230  0.2942
  461MOL0     H60838   8.968   7.029   8.229  1.9768 -0.1654  0.1043
  461MOL0     H60839   9.021   6.987   7.969  0.1220  0.3302  0.5193
  461MOL0     H60840   9.099   6.465   7.630 -3.1388 -0.1476 -0.1082
  461MOL0     H60841   9.058   6.455   7.401  0.8622 -1.1089  2.3939
  461MOL0     H60842   8.883   6.564   7.196  0.1262 -1.1160  0.3877
  461MOL0     H60843   9.033   6.484   7.158 -0.4385 -0.5097 -1.0612
  461MOL0     H60844   8.894   6.582   6.960 -0.4734  0.7881  0.1677
  461MOL0     H60845   8.961   6.731   6.995 -3.3148 -0.3733  0.6412
  461MOL0     H60846   9.121   6.637   6.840  4.2217 -1.0147  0.2427
  461MOL0     H60847   9.118   6.486   6.925  5.6803  0.0277  0.3791
  461MOL0     H60848   9.272   6.710   7.036  2.5080 -0.4478 -2.6288
  461MOL0     H60849   9.242   6.555   7.114  0.0803  2.8275  0.5075
  461MOL0     H60850   9.497   6.452   6.806 -0.0737 -0.6889  0.0272
  461MOL0     H60851   9.079   6.879   7.387 -2.2575  1.0336 -1.0292
  461MOL0     H60852   9.071   6.886   7.631 -2.6764 -1.0015  0.8575
  462MOL0     O60853   5.442   7.998   5.223  0.9144 -0.0921 -0.2447
  462MOL0     C60854   5.357   7.980   5.313  0.7868  1.2496  0.1856
  462MOL0     O60855   5.346   7.865   5.384  0.3174  0.3943  0.0573
  462MOL0     C60856   5.435   7.759   5.359  0.0969  0.0491  1.0077
  462MOL0     C60857   5.575   7.773   5.362 -0.8671  0.2781  0.6657
  462MOL0     C60858   5.659   7.677   5.300  0.8346 -0.1161  0.3254
  462MOL0     C60859   5.601   7.559   5.243  0.4684 -0.5061 -0.0436
  462MOL0     O60860   5.682   7.463   5.199  0.3694  0.2518 -0.4250
  462MOL0     C60861   5.794   7.505   5.129  0.6063  0.3856  0.1877
  462MOL0     C60862   5.877   7.389   5.090  0.4416 -0.5621 -1.0744
  462MOL0     C60863   5.960   7.429   4.972 -1.4041  0.6622  1.1473
  462MOL0     C60864   6.093   7.493   5.013  0.3369 -0.7727 -0.1536
  462MOL0     C60865   6.194   7.515   4.904 -0.3697  0.7662  0.1240
  462MOL0     C60866   6.241   7.376   4.849 -0.5016 -0.2768  0.0778
  462MOL0     C60867   6.341   7.366   4.728  0.3075 -0.0086 -0.5485
  462MOL0     C60868   6.440   7.485   4.715  0.9351 -0.1282 -1.1579
  462MOL0     N60869   6.550   7.468   4.816  0.7187 -0.7194  0.0395
  462MOL0     C60870   6.666   7.395   4.793  0.4661  0.1714 -0.8310
  462MOL0     C60871   6.724   7.390   4.919 -0.6696 -0.3216 -0.0947
  462MOL0     C60872   6.837   7.299   4.947  0.4267 -0.3945  0.4330
  462MOL0     C60873   6.967   7.362   4.893 -0.6069  0.1785  1.2953
  462MOL0     C60874   7.021   7.486   4.975 -0.8849 -0.6609  0.6052
  462MOL0     C60875   7.164   7.519   4.919 -0.0721 -0.6546  0.8820
  462MOL0     O60876   7.264   7.424   4.977 -0.0316 -0.0591  0.2839
  462MOL0     C60877   7.366   7.403   4.889 -0.3306 -1.1217  0.6318
  462MOL0     C60878   7.424   7.509   4.808 -0.2648 -0.2646 -0.1421
  462MOL0     C60879   7.534   7.480   4.728 -0.0261  0.4165 -0.7765
  462MOL0     C60880   7.589   7.352   4.719 -1.5376  0.1921  0.1613
  462MOL0     C60881   7.714   7.330   4.633  0.1407 -0.3338  0.5662
  462MOL0     O60882   7.799   7.216   4.648 -0.6610 -0.2075  0.3076
  462MOL0     C60883   7.914   7.205   4.573  1.3735  0.0683  0.3960
  462MOL0     C60884   7.970   7.079   4.557  0.4226  0.4395  0.0391
  462MOL0     C60885   8.103   7.054   4.497  0.2420 -0.9481  0.4913
  462MOL0     C60886   8.177   7.172   4.454  0.2122  0.8865  0.3252
  462MOL0     O60887   8.306   7.165   4.401  0.1011 -0.0592  0.6569
  462MOL0     C60888   8.381   7.291   4.394  0.0254  0.7112  0.4489
  462MOL0     C60889   8.529   7.262   4.349  0.3160  0.8551 -0.5030
  462MOL0     C60890   8.602   7.152   4.434  0.9984 -0.4859 -0.1086
  462MOL0     C60891   8.584   7.170   4.585  0.6029 -0.0601  0.5809
  462MOL0     C60892   8.655   7.048   4.641  0.6678  0.8023 -0.7041
  462MOL0     C60893   8.804   7.070   4.689  0.2919 -0.1746 -0.4289
  462MOL0     C60894   8.851   6.961   4.795  0.8297  0.0635 -0.1185
  462MOL0     C60895   8.855   6.823   4.738  0.1677  0.3012  0.9279
  462MOL0    Cl60896   8.911   6.690   4.841 -1.0188 -0.0895  0.1495
  462MOL0     C60897   8.111   7.296   4.477  0.1683  0.1518  1.1642
  462MOL0     C60898   7.985   7.314   4.529  1.1138  0.5953  0.1840
  462MOL0     O60899   7.727   7.416   4.547 -0.3841 -0.4474  0.7542
  462MOL0     C60900   7.542   7.257   4.803 -0.3847  0.4870  0.1506
  462MOL0     C60901   7.434   7.284   4.885  0.1176  0.4374  0.2108
  462MOL0     N60902   6.652   7.463   5.009 -0.4950 -0.0930  0.4184
  462MOL0     N60903   6.554   7.519   4.945  0.1309  0.2041  0.2371
  462MOL0     C60904   5.466   7.546   5.251 -0.2630  0.8787 -0.2402
  462MOL0     C60905   5.381   7.641   5.310  0.0510 -0.8027 -0.1834
  462MOL0     C60906   5.251   8.085   5.338 -0.0266 -0.0729 -0.5717
  462MOL0     C60907   5.134   8.055   5.417 -1.0268 -0.1336 -0.3305
  462MOL0     C60908   5.028   8.134   5.413 -0.0109 -0.4005  0.9800
  462MOL0     C60909   5.031   8.259   5.347 -0.8461 -0.1496  0.0163
  462MOL0     O60910   4.924   8.344   5.353  0.0623  0.2043 -0.7025
  462MOL0     C60911   4.927   8.443   5.454 -0.2462 -0.1013  0.5264
  462MOL0     C60912   4.860   8.569   5.401  0.1708  0.2526  0.2781
  462MOL0     C60913   4.903   8.610   5.259 -0.3397  1.1750  0.4816
  462MOL0     C60914   4.822   8.722   5.204  0.4804  0.8961 -0.1293
  462MOL0     C60915   4.880   8.741   5.069 -0.9523  0.8734 -0.3344
  462MOL0     C60916   4.952   8.732   4.970  0.0513  0.7699 -0.1953
  462MOL0     C60917   5.150   8.293   5.279 -1.0258 -0.3547 -0.1849
  462MOL0     C60918   5.257   8.209   5.267 -0.5547  0.4975  0.5915
  462MOL0     H60919   5.606   7.872   5.394 -0.0223 -0.1179  1.1061
  462MOL0     H60920   5.763   7.706   5.302 -0.0604  3.7016 -0.0380
  462MOL0     H60921   5.857   7.555   5.204  0.3834  0.1865  0.5080
  462MOL0     H60922   5.770   7.568   5.043  4.0961  2.7639  0.6948
  462MOL0     H60923   5.809   7.310   5.056  1.1280 -2.8918  2.3795
  462MOL0     H60924   5.917   7.336   5.178  0.2533  0.4117 -0.3854
  462MOL0     H60925   5.909   7.496   4.903  1.2229  2.8907  1.1961
  462MOL0     H60926   5.974   7.329   4.929  0.9642  0.7854  1.4689
  462MOL0     H60927   6.072   7.588   5.065 -0.2320  0.4225 -2.4576
  462MOL0     H60928   6.151   7.436   5.086  1.6636  0.3828 -0.2672
  462MOL0     H60929   6.278   7.579   4.935 -0.3510  0.5975  0.4245
  462MOL0     H60930   6.137   7.560   4.822 -1.7370 -1.8827 -0.4594
  462MOL0     H60931   6.155   7.317   4.817 -0.4896 -1.0975  1.4637
  462MOL0     H60932   6.288   7.319   4.930  1.8537  2.0824  0.5104
  462MOL0     H60933   6.398   7.274   4.739  1.3892  0.6099 -0.8584
  462MOL0     H60934   6.289   7.347   4.633  0.1361 -0.7647 -0.3053
  462MOL0     H60935   6.397   7.584   4.733 -2.1640 -1.8185  1.8858
  462MOL0     H60936   6.478   7.484   4.612  1.6168 -0.2796 -0.9113
  462MOL0     H60937   6.688   7.329   4.709  1.0264 -1.8878  0.8373
  462MOL0     H60938   6.825   7.203   4.897 -0.6685 -0.1215  0.1415
  462MOL0     H60939   6.842   7.283   5.055 -0.2076 -2.1050  0.2494
  462MOL0     H60940   6.969   7.382   4.786  2.0314  2.2815  1.6166
  462MOL0     H60941   7.042   7.283   4.905 -2.1532 -1.8077 -1.0754
  462MOL0     H60942   6.955   7.570   4.953  2.5090  2.2245  0.5354
  462MOL0     H60943   7.037   7.470   5.082 -0.0884  0.3180  0.6457
  462MOL0     H60944   7.203   7.615   4.953  2.8448 -1.4151 -0.0378
  462MOL0     H60945   7.169   7.502   4.811  1.2566 -2.9511  1.2391
  462MOL0     H60946   7.391   7.612   4.812  1.7233  0.4098  0.2978
  462MOL0     H60947   7.552   7.562   4.659 -1.0426 -0.3861 -2.0177
  462MOL0     H60948   7.907   6.995   4.581 -2.9386  1.4513 -4.0551
  462MOL0     H60949   8.141   6.952   4.488 -1.0951 -1.4845  0.6859
  462MOL0     H60950   8.364   7.331   4.494 -1.3895 -1.3244  1.1036
  462MOL0     H60951   8.337   7.359   4.321 -0.0850 -1.3140 -1.4968
  462MOL0     H60952   8.589   7.353   4.337  1.7114 -0.0681 -0.7005
  462MOL0     H60953   8.508   7.216   4.252 -0.5546 -3.4273  1.4868
  462MOL0     H60954   8.704   7.179   4.404  0.5460  1.3152 -0.1296
  462MOL0     H60955   8.560   7.054   4.406  2.2415 -1.0422 -0.1197
  462MOL0     H60956   8.637   7.263   4.607  0.7798 -0.7635  3.4683
  462MOL0     H60957   8.478   7.172   4.612  0.7579  0.2282  1.1807
  462MOL0     H60958   8.661   6.974   4.561  0.0275 -0.2738  0.2217
  462MOL0     H60959   8.593   7.009   4.722 -0.1532 -1.4101 -2.2931
  462MOL0     H60960   8.818   7.162   4.748  3.3868 -1.5942  1.2726
  462MOL0     H60961   8.858   7.059   4.595 -3.4700 -6.8786 -2.4545
  462MOL0     H60962   8.945   6.990   4.844  2.8239 -2.0243 -2.4208
  462MOL0     H60963   8.768   6.972   4.865 -0.2871  0.3441 -1.4506
  462MOL0     H60964   8.913   6.828   4.645  1.5713 -1.2868  1.6764
  462MOL0     H60965   8.754   6.798   4.706  1.7856 -1.1159 -4.0951
  462MOL0     H60966   8.159   7.391   4.457 -2.7753  0.7670 -6.6343
  462MOL0     H60967   7.946   7.415   4.542 -3.8984 -0.7448 -2.1469
  462MOL0     H60968   7.576   7.154   4.815 -1.2615 -0.1626 -2.2189
  462MOL0     H60969   7.381   7.208   4.942 -2.5472  1.5331 -0.6360
  462MOL0     H60970   5.429   7.449   5.221 -1.6484  1.2282  0.2645
  462MOL0     H60971   5.275   7.619   5.322  0.0163  0.0316  1.1900
  462MOL0     H60972   5.124   7.956   5.460  2.0886 -0.1216  0.6597
  462MOL0     H60973   4.936   8.096   5.454  0.0430 -2.5772 -0.7004
  462MOL0     H60974   5.031   8.456   5.485 -0.3556 -2.9221  2.3609
  462MOL0     H60975   4.876   8.420   5.548  0.6167 -1.0504  0.7749
  462MOL0     H60976   4.759   8.530   5.389  1.0325 -2.8057  1.8770
  462MOL0     H60977   4.874   8.644   5.479  1.0280 -0.4744  0.8553
  462MOL0     H60978   4.885   8.527   5.190 -0.9557  0.2960  1.6701
  462MOL0     H60979   5.008   8.638   5.266 -0.2966  0.7112  2.1330
  462MOL0     H60980   4.718   8.696   5.185  0.8660  1.9569 -4.6702
  462MOL0     H60981   4.821   8.812   5.266  0.1491  0.0692  1.1055
  462MOL0     H60982   5.009   8.745   4.879  0.5663  1.6461  0.2446
  462MOL0     H60983   5.159   8.394   5.241  2.5606 -0.0675  1.0761
  462MOL0     H60984   5.340   8.228   5.200 -2.0141 -0.1885 -1.5176
  463MOL0     O60985   6.179   1.449   9.790 -1.0047  0.3510  0.5726
  463MOL0     C60986   6.144   1.517   9.690 -0.8290  0.0812 -0.3071
  463MOL0     O60987   6.138   1.648   9.681 -0.1981  0.3875 -0.5357
  463MOL0     C60988   6.148   1.726   9.793 -0.0648  0.4394 -0.0350
  463MOL0     C60989   6.050   1.729   9.892  0.6283 -0.0557  0.9955
  463MOL0     C60990   6.060   1.798  10.010  0.2337  0.3555  0.2935
  463MOL0     C60991   6.188   1.869  10.026 -1.0938  0.3155  0.7383
  463MOL0     O60992   6.207   1.937  10.140 -0.4692  0.2007 -0.0006
  463MOL0     C60993   6.265   2.062  10.133 -0.6133 -0.1310  0.1529
  463MOL0     C60994   6.396   2.060  10.204  0.9259 -0.0280 -0.7119
  463MOL0     C60995   6.386   2.026  10.353 -0.3886  0.1677  0.3666
  463MOL0     C60996   6.521   2.048  10.415  0.0414  0.2561 -0.3316
  463MOL0     C60997   6.560   2.196  10.442  0.4247  0.5054 -0.0394
  463MOL0     C60998   6.700   2.206  10.500  0.0217 -0.1332  0.1680
  463MOL0     C60999   6.740   2.355  10.511  0.3116  0.4715  0.5227
  463MOL0     C61000   6.888   2.366  10.566 -0.1376  0.1853 -0.6268
  463MOL0     N61001   6.909   2.494  10.642 -0.0857 -0.9076 -0.1926
  463MOL0     C61002   6.889   2.513  10.775  1.0015 -0.1618 -0.1001
  463MOL0     C61003   6.946   2.633  10.801 -0.3464  0.3361  0.8683
  463MOL0     C61004   6.964   2.704  10.933 -1.0189  0.2096 -0.9642
  463MOL0     C61005   6.934   2.852  10.933  0.6393  1.0411  0.1426
  463MOL0     C61006   6.955   2.934  11.064  0.4870  0.4072  0.5341
  463MOL0     C61007   6.884   2.880  11.184  0.7571  0.3257 -0.0088
  463MOL0     O61008   6.744   2.887  11.157 -0.0457  1.2786 -0.5007
  463MOL0     C61009   6.662   2.835  11.257  0.9677  0.1754 -0.0034
  463MOL0     C61010   6.522   2.825  11.228 -0.2125  0.1160  0.4681
  463MOL0     C61011   6.429   2.793  11.333 -0.4767  0.3963 -0.2955
  463MOL0     C61012   6.461   2.759  11.463 -0.4589 -0.1096  0.5458
  463MOL0     C61013   6.356   2.729  11.561 -0.4995 -0.0549 -1.1840
  463MOL0     O61014   6.223   2.752  11.534  0.4716  0.2202  0.0282
  463MOL0     C61015   6.112   2.721  11.615  0.7015 -0.1881  0.2089
  463MOL0     C61016   5.987   2.743  11.557  0.4771  0.2260  0.0277
  463MOL0     C61017   5.860   2.718  11.614  1.1018  0.0300  0.2343
  463MOL0     C61018   5.862   2.672  11.751  0.2047  0.0719  0.1017
  463MOL0     O61019   5.752   2.645  11.826 -0.4427  0.2919  0.7222
  463MOL0     C61020   5.640   2.593  11.751 -0.6741  0.7199  0.8062
  463MOL0     C61021   5.522   2.695  11.741  0.4739  0.2426  0.0375
  463MOL0     C61022   5.432   2.687  11.867 -1.0211 -0.1272 -1.1828
  463MOL0     C61023   5.505   2.716  12.005  0.0985  0.5195 -0.0065
  463MOL0     C61024   5.422   2.683  12.129  0.1656  0.1334  0.6178
  463MOL0     C61025   5.484   2.708  12.265 -0.3711  0.0105 -0.4655
  463MOL0     C61026   5.486   2.856  12.305  0.1945 -0.8439  0.1013
  463MOL0     C61027   5.626   2.893  12.330 -0.1063 -0.8132 -0.5709
  463MOL0    Cl61028   5.672   2.847  12.500  0.2474 -0.0059 -0.0317
  463MOL0     C61029   5.995   2.653  11.811  0.5393  0.9681  0.0568
  463MOL0     C61030   6.109   2.668  11.743  0.3013 -0.7440 -1.1311
  463MOL0     O61031   6.399   2.695  11.670 -0.0472  0.1877 -0.9206
  463MOL0     C61032   6.599   2.768  11.487 -0.4471  0.4276  0.0181
  463MOL0     C61033   6.698   2.801  11.391 -0.1578 -0.1409 -0.1252
  463MOL0     N61034   6.985   2.681  10.674 -0.6773 -0.6325 -0.5219
  463MOL0     N61035   6.968   2.600  10.583 -0.3301  0.0159  0.1867
  463MOL0     C61036   6.284   1.873   9.927 -0.4987 -1.2190  1.1378
  463MOL0     C61037   6.270   1.805   9.806  0.2671  0.7822 -0.4234
  463MOL0     C61038   6.095   1.446   9.566  0.3154  0.0001  0.3459
  463MOL0     C61039   5.988   1.497   9.486 -1.2449 -0.2555 -0.0561
  463MOL0     C61040   5.935   1.423   9.387  0.1426 -0.2986 -0.1854
  463MOL0     C61041   5.983   1.298   9.349 -0.5604  0.1309 -0.1670
  463MOL0     O61042   5.959   1.229   9.231  0.3976 -0.3211 -0.0776
  463MOL0     C61043   5.888   1.281   9.120  0.4010  0.3706  0.0683
  463MOL0     C61044   5.910   1.185   8.998  0.8475 -0.1514  0.7004
  463MOL0     C61045   5.870   1.036   9.022 -1.0473  0.5944 -0.5473
  463MOL0     C61046   5.890   0.963   8.886 -0.2079  0.0135 -0.1155
  463MOL0     C61047   5.802   1.016   8.775  0.3059  0.8765 -0.0897
  463MOL0     C61048   5.728   1.044   8.692  0.3561 -0.2625  0.1043
  463MOL0     C61049   6.088   1.245   9.433 -0.4361  0.3075  0.2046
  463MOL0     C61050   6.135   1.313   9.545  0.0320 -0.4348 -0.0810
  463MOL0     H61051   5.944   1.705   9.882  0.4500 -0.6857  3.6186
  463MOL0     H61052   5.987   1.803  10.090  0.0193  0.8187  0.0743
  463MOL0     H61053   6.194   2.128  10.183 -2.3253 -1.5741 -0.2639
  463MOL0     H61054   6.269   2.109  10.034 -0.1995  4.8554  2.2627
  463MOL0     H61055   6.437   2.161  10.199  0.2866  0.3658  1.1724
  463MOL0     H61056   6.459   1.984  10.157 -0.8091  0.0230 -3.2876
  463MOL0     H61057   6.359   1.920  10.355  1.5815 -0.3632  0.4210
  463MOL0     H61058   6.300   2.082  10.391 -2.3820 -2.5913  0.2514
  463MOL0     H61059   6.513   1.988  10.506 -4.2748  0.7602 -0.1370
  463MOL0     H61060   6.598   2.011  10.348  0.3739  0.0234  0.1789
  463MOL0     H61061   6.479   2.248  10.494 -0.5670 -0.1760 -0.8607
  463MOL0     H61062   6.563   2.239  10.342 -1.1677 -1.2539 -0.9197
  463MOL0     H61063   6.769   2.158  10.430  0.2731 -3.0710  2.2554
  463MOL0     H61064   6.696   2.149  10.593  1.3802 -3.0288 -1.4266
  463MOL0     H61065   6.744   2.407  10.415  2.2816  1.3427  1.0206
  463MOL0     H61066   6.668   2.403  10.579 -0.9903 -2.0173  1.0104
  463MOL0     H61067   6.964   2.340  10.492  1.7285  0.2313  1.1687
  463MOL0     H61068   6.905   2.283  10.635 -1.4014 -2.7932 -3.5892
  463MOL0     H61069   6.867   2.441  10.853  0.1536  1.0989  0.8580
  463MOL0     H61070   7.069   2.681  10.955 -1.3914 -1.0754 -0.3936
  463MOL0     H61071   6.912   2.639  11.004  0.5878 -1.8044 -1.5037
  463MOL0     H61072   6.832   2.874  10.900 -1.0206 -1.5845  3.0408
  463MOL0     H61073   6.997   2.886  10.850  1.1629 -0.1372  0.0399
  463MOL0     H61074   7.063   2.944  11.079  0.5168  4.3074 -1.1153
  463MOL0     H61075   6.923   3.038  11.058 -0.9322  0.0798  1.7894
  463MOL0     H61076   6.898   2.947  11.270 -0.8756 -1.0153  1.3963
  463MOL0     H61077   6.913   2.781  11.221 -0.8041 -0.0059  0.3760
  463MOL0     H61078   6.492   2.838  11.125  3.7237  2.2432 -0.5908
  463MOL0     H61079   6.322   2.774  11.325 -0.5781  0.7156  0.2753
  463MOL0     H61080   5.980   2.799  11.465 -0.3615  1.1172  0.6102
  463MOL0     H61081   5.765   2.724  11.562  0.7989 -1.8418  0.4850
  463MOL0     H61082   5.606   2.507  11.810 -3.3295  1.0253 -0.1476
  463MOL0     H61083   5.658   2.539  11.658  2.6820  0.2837  1.5949
  463MOL0     H61084   5.459   2.671  11.655  2.1679 -2.1438 -0.6615
  463MOL0     H61085   5.565   2.791  11.710  0.4315 -0.6437 -3.1919
  463MOL0     H61086   5.392   2.585  11.880 -1.2621  0.1603  0.6670
  463MOL0     H61087   5.352   2.761  11.864  0.5859  1.7240 -0.3700
  463MOL0     H61088   5.599   2.660  12.012 -0.2602 -0.3073 -1.4008
  463MOL0     H61089   5.538   2.819  12.023 -0.4819  0.4509  1.6324
  463MOL0     H61090   5.392   2.578  12.135 -0.2343  0.0260 -1.9611
  463MOL0     H61091   5.333   2.743  12.108 -0.3124 -1.3435 -1.9963
  463MOL0     H61092   5.586   2.669  12.253  0.2752 -0.5009  4.3970
  463MOL0     H61093   5.436   2.641  12.337  1.2887  0.0669  0.7584
  463MOL0     H61094   5.459   2.923  12.223  0.6034  1.0150  1.4354
  463MOL0     H61095   5.424   2.883  12.392  1.8973  0.7087  0.8906
  463MOL0     H61096   5.633   3.002  12.331  0.1798 -0.8241 -0.8744
  463MOL0     H61097   5.705   2.857  12.262 -0.3299 -2.9604  0.2387
  463MOL0     H61098   5.997   2.617  11.914 -0.3605 -1.1295 -0.6022
  463MOL0     H61099   6.197   2.648  11.804 -1.6134  0.7661  2.3888
  463MOL0     H61100   6.632   2.755  11.590 -1.4111  1.8470  0.5194
  463MOL0     H61101   6.798   2.803  11.432  0.1798 -2.5945 -0.6731
  463MOL0     H61102   6.374   1.931   9.944 -0.7879 -0.7174  0.9590
  463MOL0     H61103   6.349   1.803   9.732 -0.9490 -0.2826 -1.7308
  463MOL0     H61104   5.965   1.603   9.499  2.8524  0.6240  1.5179
  463MOL0     H61105   5.852   1.474   9.339 -0.7214 -0.5837  0.9536
  463MOL0     H61106   5.935   1.374   9.086 -0.7934  0.9884  0.0147
  463MOL0     H61107   5.780   1.288   9.140  0.0758 -3.6955  0.6161
  463MOL0     H61108   5.856   1.221   8.910 -0.7218 -0.5510  1.4691
  463MOL0     H61109   6.017   1.182   8.973  1.1096  1.2597  1.5360
  463MOL0     H61110   5.765   1.031   9.055 -1.9996  4.2259 -2.4867
  463MOL0     H61111   5.939   0.992   9.094 -0.4848  2.7873  0.3393
  463MOL0     H61112   5.995   0.982   8.864  0.1489  2.3302  2.9087
  463MOL0     H61113   5.879   0.854   8.897  1.2429  0.1128  4.0674
  463MOL0     H61114   5.638   1.053   8.635  0.5090  1.0865  0.0457
  463MOL0     H61115   6.140   1.153   9.411  0.7310  1.5288 -2.6490
  463MOL0     H61116   6.202   1.269   9.618 -1.8745 -1.1154  1.3179
  464MOL0     O61117   3.680   7.865   3.587  0.1433  0.2039 -0.4004
  464MOL0     C61118   3.805   7.858   3.599 -0.3794 -0.2971  0.5923
  464MOL0     O61119   3.868   7.848   3.713  0.2276  0.2095  0.7894
  464MOL0     C61120   3.804   7.779   3.811  0.6996 -0.4941 -1.7921
  464MOL0     C61121   3.786   7.643   3.789  0.0985 -0.0458 -0.5681
  464MOL0     C61122   3.734   7.567   3.890  0.2166  0.5501 -0.3332
  464MOL0     C61123   3.684   7.627   4.008 -1.3867 -0.5857  0.6823
  464MOL0     O61124   3.632   7.534   4.092 -0.0394  0.0378  0.3063
  464MOL0     C61125   3.522   7.585   4.161 -0.2290  0.0205 -0.6947
  464MOL0     C61126   3.398   7.596   4.063 -0.0228  0.2507 -0.0862
  464MOL0     C61127   3.274   7.656   4.149 -1.7877  1.2495 -0.1519
  464MOL0     C61128   3.285   7.801   4.204 -0.4694  0.4207  0.0143
  464MOL0     C61129   3.312   7.894   4.095  0.2183 -0.0217  0.2120
  464MOL0     C61130   3.288   8.045   4.127 -0.3616 -0.0072  0.1481
  464MOL0     C61131   3.324   8.130   4.012  0.3603  1.2528  0.1028
  464MOL0     C61132   3.475   8.153   3.993  0.0652  0.2969  0.4375
  464MOL0     N61133   3.514   8.213   3.863 -0.5884  0.2977 -0.0736
  464MOL0     C61134   3.522   8.151   3.736  0.3500 -0.0015 -0.5203
  464MOL0     C61135   3.531   8.246   3.640 -0.2619 -1.0382 -0.1645
  464MOL0     C61136   3.553   8.217   3.495  0.7413  0.1632 -0.8848
  464MOL0     C61137   3.688   8.258   3.453  0.0467  0.1850  0.7778
  464MOL0     C61138   3.728   8.207   3.312 -0.4120 -1.0832 -0.0045
  464MOL0     C61139   3.649   8.273   3.201 -0.0299 -0.0682  0.6112
  464MOL0     O61140   3.703   8.246   3.071  0.3697  0.2622 -0.5993
  464MOL0     C61141   3.704   8.123   3.009 -0.3954  0.0391  0.0310
  464MOL0     C61142   3.635   8.010   3.053 -0.2941  0.3448 -0.8036
  464MOL0     C61143   3.628   7.889   2.979  0.5916 -0.5688 -0.0408
  464MOL0     C61144   3.699   7.871   2.866 -0.1533  0.7687  0.1691
  464MOL0     C61145   3.725   7.729   2.814  0.9655 -0.9039  0.1295
  464MOL0     O61146   3.840   7.708   2.749 -0.1758  0.6910  0.8103
  464MOL0     C61147   3.875   7.577   2.705 -0.4795 -0.9646  0.5970
  464MOL0     C61148   3.836   7.461   2.775  0.1981  0.6454 -0.6021
  464MOL0     C61149   3.869   7.331   2.737 -0.2144  0.3234 -0.4240
  464MOL0     C61150   3.970   7.315   2.644 -1.3515 -0.5150 -0.0636
  464MOL0     O61151   3.982   7.183   2.607 -0.4744 -1.1226 -0.2648
  464MOL0     C61152   4.121   7.142   2.579 -0.1696  0.8437 -0.1574
  464MOL0     C61153   4.216   7.121   2.707  1.0118  0.3483  0.4703
  464MOL0     C61154   4.316   7.023   2.662 -0.0859 -0.0487 -0.8235
  464MOL0     C61155   4.289   6.870   2.648  0.4146  0.2046  0.4833
  464MOL0     C61156   4.416   6.801   2.593 -0.1656 -0.4324  0.2177
  464MOL0     C61157   4.505   6.769   2.708 -0.0106  0.6244 -0.1642
  464MOL0     C61158   4.447   6.656   2.795 -0.2554 -0.0783 -0.1871
  464MOL0     C61159   4.545   6.585   2.882  0.0520  0.8081  0.4699
  464MOL0    Cl61160   4.651   6.699   2.961 -0.1751 -0.0969  0.5517
  464MOL0     C61161   4.016   7.428   2.569  1.2581  0.3617  0.6586
  464MOL0     C61162   3.966   7.556   2.593  0.2837 -1.4150  0.9162
  464MOL0     O61163   3.637   7.647   2.841 -0.5696  0.2499 -0.2326
  464MOL0     C61164   3.785   7.977   2.821 -0.5456 -0.3620 -0.3148
  464MOL0     C61165   3.780   8.103   2.892  1.3985 -0.1418  0.4061
  464MOL0     N61166   3.537   8.370   3.710  1.3510  0.7066  0.7570
  464MOL0     N61167   3.509   8.346   3.836  1.0799 -0.5755 -0.5484
  464MOL0     C61168   3.692   7.765   4.028  0.4056 -0.4102 -0.3132
  464MOL0     C61169   3.757   7.844   3.931  0.7880  0.1753 -0.6731
  464MOL0     C61170   3.876   7.865   3.469 -0.3015 -0.7262  0.4613
  464MOL0     C61171   4.018   7.838   3.478 -0.0871  0.3576 -0.5307
  464MOL0     C61172   4.085   7.803   3.357  0.2642  1.3638 -0.0498
  464MOL0     C61173   4.021   7.786   3.238  0.4026 -0.1120  0.9315
  464MOL0     O61174   4.104   7.747   3.135  0.5134 -1.0446  0.1491
  464MOL0     C61175   4.046   7.744   3.003  0.2202 -0.7250 -0.1523
  464MOL0     C61176   4.149   7.728   2.892  0.3714  0.5117  0.4171
  464MOL0     C61177   4.191   7.867   2.831  0.4215  0.1907 -0.0002
  464MOL0     C61178   4.347   7.850   2.801  0.1003 -0.2480  0.2856
  464MOL0     C61179   4.429   7.860   2.925  0.6649  0.8130  0.2664
  464MOL0     C61180   4.502   7.875   3.020 -0.4686  0.3755  0.1557
  464MOL0     C61181   3.885   7.820   3.229  0.1859  0.2220 -0.5431
  464MOL0     C61182   3.808   7.846   3.348 -0.0480  0.0358 -0.5128
  464MOL0     H61183   3.828   7.606   3.696 -3.5170  0.7231 -2.6922
  464MOL0     H61184   3.727   7.459   3.892 -1.5562  0.5876  2.9557
  464MOL0     H61185   3.540   7.675   4.220 -1.5810  1.6144 -2.5917
  464MOL0     H61186   3.481   7.514   4.233 -0.1026 -0.1942 -0.8329
  464MOL0     H61187   3.372   7.499   4.020 -0.6080 -0.2378  1.3244
  464MOL0     H61188   3.418   7.659   3.976  0.4386 -1.7502 -1.5041
  464MOL0     H61189   3.260   7.589   4.234  0.3945  0.8845 -0.0113
  464MOL0     H61190   3.191   7.641   4.079  1.3399  0.5528 -4.0881
  464MOL0     H61191   3.196   7.823   4.264 -0.8506 -0.3615 -0.2511
  464MOL0     H61192   3.372   7.806   4.270 -0.4837  0.5922  0.0199
  464MOL0     H61193   3.259   7.867   4.003  1.8068  0.0278 -0.7579
  464MOL0     H61194   3.416   7.879   4.063 -0.4989 -0.5867 -1.9907
  464MOL0     H61195   3.351   8.076   4.212  1.0609 -4.6444  1.0390
  464MOL0     H61196   3.182   8.057   4.152  0.4929  2.1905  3.5546
  464MOL0     H61197   3.276   8.089   3.922  0.8801 -0.0501  0.3998
  464MOL0     H61198   3.289   8.232   4.031 -0.8639  0.9236 -0.2566
  464MOL0     H61199   3.533   8.060   4.002  1.6435  1.2780  0.9184
  464MOL0     H61200   3.509   8.222   4.071  0.2367 -1.7693  2.3285
  464MOL0     H61201   3.531   8.048   3.705  2.0757  0.4172 -1.5528
  464MOL0     H61202   3.479   8.266   3.431  1.2087  2.5953  0.3204
  464MOL0     H61203   3.537   8.110   3.484  0.4061 -0.3910  3.3455
  464MOL0     H61204   3.751   8.199   3.521 -2.9091 -2.8440  1.1064
  464MOL0     H61205   3.707   8.364   3.473  0.8396 -0.0244  1.2134
  464MOL0     H61206   3.830   8.245   3.302 -0.1088 -1.9330 -0.2179
  464MOL0     H61207   3.724   8.098   3.300 -1.9869 -1.0383 -0.1669
  464MOL0     H61208   3.641   8.382   3.210 -1.6754 -0.0696 -0.3484
  464MOL0     H61209   3.544   8.242   3.207 -1.1083  2.2656 -2.8460
  464MOL0     H61210   3.587   8.021   3.150  3.9378 -1.5853  1.8474
  464MOL0     H61211   3.573   7.808   3.026 -2.0905  1.6317  0.8977
  464MOL0     H61212   3.771   7.463   2.862 -2.1020 -0.5705 -2.1682
  464MOL0     H61213   3.825   7.238   2.772  5.0235 -2.7582 -0.9486
  464MOL0     H61214   4.168   7.212   2.510 -2.7377  2.5291 -0.3488
  464MOL0     H61215   4.118   7.050   2.520  1.5605  2.2701 -2.6584
  464MOL0     H61216   4.162   7.079   2.792  1.0789 -3.5425 -1.1963
  464MOL0     H61217   4.267   7.214   2.735 -0.2904  0.0830  4.2373
  464MOL0     H61218   4.392   7.031   2.741  2.1167 -1.5585 -2.6340
  464MOL0     H61219   4.374   7.061   2.577  0.2615  1.6849  0.1395
  464MOL0     H61220   4.251   6.824   2.740  1.1033  0.9562  1.1553
  464MOL0     H61221   4.199   6.863   2.587  0.0850 -0.0544  0.9892
  464MOL0     H61222   4.475   6.856   2.519 -0.5625 -3.6492 -2.7799
  464MOL0     H61223   4.392   6.711   2.534 -0.9918 -2.2091  3.0602
  464MOL0     H61224   4.517   6.858   2.769  0.9123  0.8130 -0.6123
  464MOL0     H61225   4.601   6.738   2.666  0.5378 -0.6180  1.8440
  464MOL0     H61226   4.360   6.685   2.854 -2.1166 -4.0184 -0.6610
  464MOL0     H61227   4.390   6.591   2.728 -0.3379  0.9790 -1.1922
  464MOL0     H61228   4.611   6.515   2.830 -2.3377 -0.8763 -0.5010
  464MOL0     H61229   4.494   6.527   2.959 -0.2028  2.0782  1.2951
  464MOL0     H61230   4.079   7.415   2.482 -3.1612  0.0385 -2.8635
  464MOL0     H61231   4.001   7.645   2.542 -2.1526 -0.7335  0.3248
  464MOL0     H61232   3.852   7.974   2.736  2.1190  3.9580  1.3119
  464MOL0     H61233   3.826   8.194   2.854 -0.5987  0.1144 -1.6760
  464MOL0     H61234   3.656   7.818   4.115  1.0424 -0.1352 -0.2117
  464MOL0     H61235   3.763   7.952   3.937 -4.2451  0.6696 -0.8503
  464MOL0     H61236   4.073   7.847   3.571 -1.1785  1.0763  0.0702
  464MOL0     H61237   4.192   7.784   3.362 -0.0256 -0.3755  0.0651
  464MOL0     H61238   3.985   7.831   2.978  1.5693 -0.0169 -1.0318
  464MOL0     H61239   3.986   7.652   3.001  1.2045 -1.3725 -2.0698
  464MOL0     H61240   4.228   7.659   2.922  2.1585  2.5723  0.6738
  464MOL0     H61241   4.096   7.665   2.820 -0.6505 -1.6015  2.8653
  464MOL0     H61242   4.164   7.945   2.903 -2.3129 -1.4433  0.8834
  464MOL0     H61243   4.152   7.897   2.733 -1.3975 -0.6123  0.4476
  464MOL0     H61244   4.379   7.760   2.748  1.1735  0.1219  0.2789
  464MOL0     H61245   4.381   7.923   2.726 -0.2416  0.4976  0.8474
  464MOL0     H61246   4.558   7.891   3.111  1.8338 -0.1671 -1.0736
  464MOL0     H61247   3.818   7.797   3.147 -1.1333 -0.4091  0.6620
  464MOL0     H61248   3.700   7.851   3.338 -0.1153  0.1502  0.2715
  465MOL0     O61249   1.841   7.134   9.137 -0.0815  0.5412 -0.3125
  465MOL0     C61250   1.863   7.242   9.199  0.3699 -0.4757  1.0613
  465MOL0     O61251   1.913   7.356   9.146 -0.3201 -0.4723 -0.7857
  465MOL0     C61252   1.975   7.354   9.024  0.5471  0.7572  0.5286
  465MOL0     C61253   1.906   7.365   8.900 -0.4631 -0.2442 -0.0729
  465MOL0     C61254   1.976   7.371   8.778 -1.1083  0.3755  0.6149
  465MOL0     C61255   2.110   7.322   8.763  1.0172 -0.0553 -0.0189
  465MOL0     O61256   2.177   7.297   8.645  0.1161  1.3325 -1.5362
  465MOL0     C61257   2.122   7.187   8.561  0.7428 -0.1291 -0.3013
  465MOL0     C61258   2.203   7.158   8.438 -0.6463 -0.1644 -0.1309
  465MOL0     C61259   2.348   7.126   8.480  0.2811  0.0908  1.0600
  465MOL0     C61260   2.425   7.060   8.351  0.8693 -0.2297 -0.4258
  465MOL0     C61261   2.578   7.041   8.395  0.4427  0.0552 -0.3055
  465MOL0     C61262   2.605   6.939   8.506  0.4285  0.4013 -0.1704
  465MOL0     C61263   2.759   6.925   8.525  0.1952  0.0194 -0.3915
  465MOL0     C61264   2.836   7.044   8.569 -0.4901  0.1351  0.4773
  465MOL0     N61265   2.773   7.129   8.680 -0.8799 -0.0596 -0.1353
  465MOL0     C61266   2.787   7.108   8.815 -0.0361  0.4315 -0.4327
  465MOL0     C61267   2.691   7.189   8.866 -0.0092  0.2281 -0.5428
  465MOL0     C61268   2.667   7.196   9.009  0.9428  0.0001  0.7227
  465MOL0     C61269   2.769   7.280   9.078 -0.9784  0.0802  0.6901
  465MOL0     C61270   2.904   7.212   9.117 -0.1388 -0.9701  0.0707
  465MOL0     C61271   3.006   7.303   9.192 -0.1905 -0.4745  0.1509
  465MOL0     O61272   3.143   7.268   9.163  0.0100 -0.3059  0.1044
  465MOL0     C61273   3.246   7.314   9.249 -0.8236 -1.0207 -0.8576
  465MOL0     C61274   3.233   7.410   9.356  0.2417 -0.3515  0.6952
  465MOL0     C61275   3.344   7.481   9.408  0.2017 -0.4713  0.3229
  465MOL0     C61276   3.468   7.441   9.372 -0.0431 -0.0983 -0.4793
  465MOL0     C61277   3.582   7.491   9.447 -0.8445  0.9951  0.4982
  465MOL0     O61278   3.708   7.435   9.444  0.1064  0.5120  0.6344
  465MOL0     C61279   3.812   7.498   9.507 -0.0717  0.0285  0.0420
  465MOL0     C61280   3.811   7.533   9.642 -0.5827 -0.3986  0.2422
  465MOL0     C61281   3.918   7.595   9.695 -0.4235 -0.5142 -0.6175
  465MOL0     C61282   4.033   7.619   9.626 -0.5782  0.1725 -0.3727
  465MOL0     O61283   4.129   7.681   9.707  0.5136 -0.2806 -0.4791
  465MOL0     C61284   4.263   7.620   9.699  0.2684  0.2109  0.5296
  465MOL0     C61285   4.347   7.713   9.613 -0.4345 -0.1104 -0.7260
  465MOL0     C61286   4.483   7.667   9.587 -0.3281 -1.0124  0.2992
  465MOL0     C61287   4.498   7.523   9.528  0.4291 -0.7290  0.5407
  465MOL0     C61288   4.554   7.428   9.639 -0.0533 -0.0270  0.5045
  465MOL0     C61289   4.527   7.277   9.612 -0.7634  0.1330  0.1044
  465MOL0     C61290   4.382   7.223   9.617  0.4749 -0.2820 -0.5327
  465MOL0     C61291   4.321   7.201   9.752  0.5887  0.0153 -0.8903
  465MOL0    Cl61292   4.428   7.084   9.846  0.1442  0.0758 -0.0068
  465MOL0     C61293   4.050   7.570   9.499  0.5834 -1.4841 -0.1367
  465MOL0     C61294   3.931   7.520   9.436  0.8781  0.6633  1.1277
  465MOL0     O61295   3.564   7.598   9.504 -0.0547  0.6427 -0.0720
  465MOL0     C61296   3.490   7.344   9.266 -0.0178 -0.0401 -0.9916
  465MOL0     C61297   3.371   7.292   9.206  0.3761 -0.4028  0.5691
  465MOL0     N61298   2.630   7.267   8.769 -0.1855  0.3250 -0.3420
  465MOL0     N61299   2.688   7.235   8.658 -1.1886  0.2651  0.6509
  465MOL0     C61300   2.179   7.306   8.887 -0.4233  0.6698 -0.4228
  465MOL0     C61301   2.114   7.323   9.016  0.1765  0.8861 -0.0785
  465MOL0     C61302   1.821   7.254   9.340 -0.8499  0.0394 -1.5072
  465MOL0     C61303   1.771   7.148   9.414  0.3308 -0.5377 -0.7990
  465MOL0     C61304   1.722   7.169   9.547  0.5023  0.1175 -0.2090
  465MOL0     C61305   1.726   7.287   9.619 -0.4670 -0.7502 -0.2876
  465MOL0     O61306   1.682   7.286   9.750 -1.1897 -0.1117  0.0690
  465MOL0     C61307   1.708   7.409   9.827  0.5730  0.4208 -0.4816
  465MOL0     C61308   1.648   7.409   9.967 -0.7946  0.2783  0.6909
  465MOL0     C61309   1.500   7.384   9.945  0.2818  0.7121 -0.5979
  465MOL0     C61310   1.407   7.414  10.071 -0.5306  0.6060  1.1235
  465MOL0     C61311   1.271   7.384  10.032  0.0993  0.2015 -0.4338
  465MOL0     C61312   1.154   7.356  10.017  0.3827 -0.2892  1.0809
  465MOL0     C61313   1.793   7.389   9.548 -0.1616  0.9486  0.4306
  465MOL0     C61314   1.838   7.378   9.416 -0.5131  0.4385 -0.8049
  465MOL0     H61315   1.799   7.386   8.900 -0.3066  0.5766 -0.3754
  465MOL0     H61316   1.932   7.393   8.681  0.8969  2.2232  0.0451
  465MOL0     H61317   2.021   7.221   8.535  1.6662  1.4042 -2.1208
  465MOL0     H61318   2.114   7.100   8.626 -2.6947 -0.1532 -0.5827
  465MOL0     H61319   2.195   7.246   8.374 -3.8897  0.9379  1.5358
  465MOL0     H61320   2.158   7.067   8.398  1.3033 -1.4107  0.3982
  465MOL0     H61321   2.351   7.057   8.565 -1.0597  2.0350  2.7917
  465MOL0     H61322   2.405   7.217   8.500 -0.3968  0.6612  0.4254
  465MOL0     H61323   2.381   6.963   8.326  0.6136 -1.0023  2.6094
  465MOL0     H61324   2.421   7.125   8.263 -2.1470 -2.3172 -2.0107
  465MOL0     H61325   2.626   7.138   8.411  1.5712 -0.1392 -2.2139
  465MOL0     H61326   2.625   7.003   8.304 -1.6115  2.7783 -2.7317
  465MOL0     H61327   2.566   6.840   8.482  1.2523  0.2445 -0.9264
  465MOL0     H61328   2.543   6.976   8.589  0.2988  0.8144 -0.4451
  465MOL0     H61329   2.777   6.844   8.597  3.2122 -0.4756 -1.5297
  465MOL0     H61330   2.787   6.887   8.426 -2.9720 -0.7975 -1.0829
  465MOL0     H61331   2.834   7.104   8.478 -0.3048 -2.3998 -1.2830
  465MOL0     H61332   2.939   7.019   8.598  0.4453  2.3504 -0.6698
  465MOL0     H61333   2.838   7.033   8.874 -2.3339 -1.3119 -0.5258
  465MOL0     H61334   2.670   7.096   9.055  1.9283 -1.3086 -1.9568
  465MOL0     H61335   2.566   7.234   9.025  2.1799  3.3730  1.4528
  465MOL0     H61336   2.725   7.315   9.172 -1.1454 -2.7920  1.7725
  465MOL0     H61337   2.783   7.363   9.009 -1.4569 -1.4073 -1.2586
  465MOL0     H61338   2.876   7.129   9.182 -3.5005 -0.6696 -0.8000
  465MOL0     H61339   2.949   7.162   9.030 -0.9963  0.7725 -1.4499
  465MOL0     H61340   2.995   7.292   9.300  0.7610  4.1068  0.9285
  465MOL0     H61341   2.993   7.408   9.166 -2.5438 -0.4596  1.2128
  465MOL0     H61342   3.133   7.444   9.381 -0.2009 -2.2206  1.6847
  465MOL0     H61343   3.338   7.573   9.466  4.6727  2.2977 -3.0295
  465MOL0     H61344   3.721   7.511   9.698 -0.8974  1.1684  0.3761
  465MOL0     H61345   3.921   7.621   9.800  0.6565 -0.2483 -0.7047
  465MOL0     H61346   4.259   7.520   9.654 -2.0840 -0.0691  1.2380
  465MOL0     H61347   4.309   7.610   9.798  2.6140 -3.0458 -0.7235
  465MOL0     H61348   4.362   7.809   9.664  0.8690  0.6742 -2.4786
  465MOL0     H61349   4.293   7.730   9.519  0.3673  2.9145 -0.7266
  465MOL0     H61350   4.550   7.685   9.672  1.3023 -0.4148 -1.0346
  465MOL0     H61351   4.522   7.742   9.517 -4.2021  2.0489  1.0929
  465MOL0     H61352   4.401   7.489   9.489 -1.2043 -0.8807  4.2151
  465MOL0     H61353   4.566   7.517   9.443  1.5288 -4.0117  1.4823
  465MOL0     H61354   4.518   7.462   9.736 -1.4463  1.1834 -0.3934
  465MOL0     H61355   4.662   7.441   9.641 -0.1914  1.9862 -1.2703
  465MOL0     H61356   4.600   7.214   9.664  0.9863  0.3351 -1.9666
  465MOL0     H61357   4.552   7.262   9.507 -1.9354 -0.5013 -0.1082
  465MOL0     H61358   4.313   7.294   9.569  1.0000  0.5121 -0.1341
  465MOL0     H61359   4.374   7.130   9.561  3.4879 -1.0530  0.1613
  465MOL0     H61360   4.223   7.153   9.744  0.6572 -0.5461  1.0699
  465MOL0     H61361   4.307   7.295   9.807  0.9176 -1.2323  1.4571
  465MOL0     H61362   4.148   7.566   9.452  1.3849  0.6287  1.1782
  465MOL0     H61363   3.935   7.490   9.331 -2.0784 -2.7257  1.8021
  465MOL0     H61364   3.588   7.304   9.243  0.5725  1.1571 -0.6830
  465MOL0     H61365   3.391   7.213   9.134  0.9901  1.3295 -1.2521
  465MOL0     H61366   2.286   7.305   8.898 -0.3912  1.3412 -0.5973
  465MOL0     H61367   2.173   7.313   9.106 -0.3758  0.2516  0.2181
  465MOL0     H61368   1.748   7.049   9.378  0.5726 -0.6611 -0.6147
  465MOL0     H61369   1.659   7.091   9.588 -0.9640  1.7256  0.7389
  465MOL0     H61370   1.665   7.492   9.771 -1.9624 -2.4322 -3.1542
  465MOL0     H61371   1.817   7.417   9.841  0.3827 -0.7576  2.3681
  465MOL0     H61372   1.703   7.331  10.019 -2.1881 -0.7548  0.6727
  465MOL0     H61373   1.678   7.502  10.017  1.3347 -0.3874  0.7355
  465MOL0     H61374   1.482   7.277   9.929 -1.3668  0.6168  1.3538
  465MOL0     H61375   1.463   7.433   9.855 -0.4212 -0.4373 -0.9563
  465MOL0     H61376   1.442   7.358  10.158  1.2402 -0.0811  0.0268
  465MOL0     H61377   1.414   7.519  10.102  0.7969  0.7949  0.2654
  465MOL0     H61378   1.052   7.325  10.021  0.8967 -2.5211 -1.1167
  465MOL0     H61379   1.801   7.481   9.605 -1.3605 -0.5772  3.2966
  465MOL0     H61380   1.874   7.469   9.369  1.9675 -2.1575 -4.6084
  466MOL0     O61381   4.632   0.956   6.493 -0.6523  1.0411  0.3361
  466MOL0     C61382   4.623   1.075   6.457  0.2004  0.6227  0.3969
  466MOL0     O61383   4.642   1.118   6.340  0.1799 -0.4011  0.6495
  466MOL0     C61384   4.633   1.035   6.227  0.5300  0.0942 -1.0684
  466MOL0     C61385   4.563   1.068   6.110  0.3715  0.0091 -0.3253
  466MOL0     C61386   4.581   1.010   5.988 -0.3828 -0.3180  0.3207
  466MOL0     C61387   4.663   0.899   5.978 -0.5460 -0.6341  0.3713
  466MOL0     O61388   4.679   0.828   5.859  0.4411 -0.5015  0.3660
  466MOL0     C61389   4.664   0.891   5.731 -0.7309  0.4371 -0.2785
  466MOL0     C61390   4.692   0.780   5.636  0.0743  0.0292  0.0971
  466MOL0     C61391   4.575   0.667   5.639 -0.6313 -0.5451 -0.2403
  466MOL0     C61392   4.652   0.532   5.646  0.5605 -0.7609  0.7147
  466MOL0     C61393   4.543   0.422   5.631 -0.1465 -1.0413  0.4246
  466MOL0     C61394   4.587   0.275   5.622 -0.4832  0.8338  0.3484
  466MOL0     C61395   4.507   0.192   5.728  0.1581  0.3000  0.0439
  466MOL0     C61396   4.374   0.143   5.683 -1.0979  0.2555 -0.1916
  466MOL0     N61397   4.269   0.248   5.669 -0.5420  0.3471 -0.0321
  466MOL0     C61398   4.243   0.323   5.560 -0.0143 -0.6432  0.5459
  466MOL0     C61399   4.134   0.398   5.588 -0.3742 -0.8623 -0.5432
  466MOL0     C61400   4.082   0.506   5.503  1.2376 -0.6512  1.0133
  466MOL0     C61401   4.178   0.628   5.481 -0.5260  0.4701  0.3635
  466MOL0     C61402   4.114   0.754   5.422  0.4939 -0.2283  0.2181
  466MOL0     C61403   4.225   0.857   5.393 -0.5695  0.6455  0.5867
  466MOL0     O61404   4.254   0.830   5.248 -0.4147 -0.1116  0.1642
  466MOL0     C61405   4.358   0.747   5.222 -0.2334 -1.8256 -0.9589
  466MOL0     C61406   4.487   0.760   5.287  0.2905  0.3886  0.3964
  466MOL0     C61407   4.587   0.660   5.270 -0.5914  0.1815  0.1579
  466MOL0     C61408   4.556   0.538   5.198  0.5087 -0.5817 -0.3851
  466MOL0     C61409   4.655   0.434   5.189 -0.0936 -0.3875  0.6631
  466MOL0     O61410   4.774   0.465   5.248  0.1110  0.6094 -0.1483
  466MOL0     C61411   4.875   0.376   5.233 -0.9121  0.0932 -0.1308
  466MOL0     C61412   4.948   0.343   5.111  0.1061  0.0785 -0.4968
  466MOL0     C61413   5.047   0.252   5.120  0.1868 -0.1806  0.8028
  466MOL0     C61414   5.085   0.192   5.242  0.0940 -0.5136  0.9624
  466MOL0     O61415   5.174   0.093   5.238  0.4268 -0.1505  0.1699
  466MOL0     C61416   5.303   0.118   5.178 -0.5522 -0.9964  0.0265
  466MOL0     C61417   5.406   0.029   5.250  0.1589  0.2806  0.4759
  466MOL0     C61418   5.392   0.025   5.404 -0.3238  0.8994 -0.5963
  466MOL0     C61419   5.401   0.152   5.476  0.1515 -0.0255  0.1483
  466MOL0     C61420   5.549   0.168   5.507  0.1636 -1.3759 -0.0317
  466MOL0     C61421   5.555   0.281   5.612  0.3462 -1.3242 -0.6527
  466MOL0     C61422   5.701   0.331   5.632  0.4800 -0.0386 -0.0571
  466MOL0     C61423   5.719   0.432   5.747  0.6706  0.6134 -0.3645
  466MOL0    Cl61424   5.703   0.350   5.913  0.5809 -0.1524  0.2231
  466MOL0     C61425   5.027   0.232   5.364  0.4856  0.5325 -0.9092
  466MOL0     C61426   4.922   0.331   5.359 -0.4470  0.7537 -0.9413
  466MOL0     O61427   4.631   0.342   5.109 -0.1857 -0.1563 -0.0064
  466MOL0     C61428   4.432   0.527   5.133 -0.0731  0.1821 -0.2265
  466MOL0     C61429   4.337   0.634   5.153 -0.0677 -0.3683 -0.4423
  466MOL0     N61430   4.108   0.379   5.727 -0.4166  0.0961  0.9196
  466MOL0     N61431   4.184   0.287   5.771 -0.0032  0.3969 -0.0434
  466MOL0     C61432   4.710   0.845   6.099  0.4410 -0.0398 -0.9527
  466MOL0     C61433   4.707   0.916   6.218 -0.6923 -1.0442  0.8399
  466MOL0     C61434   4.627   1.171   6.569 -0.7960  0.7534  0.3553
  466MOL0     C61435   4.674   1.130   6.692 -0.8166  0.7874  0.5122
  466MOL0     C61436   4.649   1.219   6.807  0.2329  1.1421  2.0146
  466MOL0     C61437   4.590   1.347   6.785 -0.3220  0.1968 -0.2158
  466MOL0     O61438   4.579   1.414   6.897 -0.6747  0.0219 -0.1304
  466MOL0     C61439   4.577   1.561   6.897 -0.3756  1.2533 -0.2192
  466MOL0     C61440   4.462   1.613   6.980 -0.0346  0.3204 -0.4353
  466MOL0     C61441   4.496   1.581   7.131 -0.0888  0.8082  0.6838
  466MOL0     C61442   4.384   1.647   7.219  0.6870 -0.4031 -0.5161
  466MOL0     C61443   4.433   1.618   7.358  0.7193 -0.0316 -0.4969
  466MOL0     C61444   4.452   1.605   7.473  0.5790  0.0646  1.2576
  466MOL0     C61445   4.552   1.384   6.655  0.7851 -0.5440 -0.7189
  466MOL0     C61446   4.571   1.288   6.550  0.1541 -1.0810 -1.3444
  466MOL0     H61447   4.496   1.153   6.113 -0.5870 -0.6907  3.0562
  466MOL0     H61448   4.519   1.037   5.903  0.9540 -3.0837 -1.7014
  466MOL0     H61449   4.739   0.971   5.725  0.7564 -0.7544  1.2941
  466MOL0     H61450   4.572   0.943   5.703 -1.9542 -0.2448  2.1736
  466MOL0     H61451   4.795   0.747   5.653  1.1846  3.0314 -0.3742
  466MOL0     H61452   4.698   0.815   5.533 -0.5345 -2.8586 -1.0102
  466MOL0     H61453   4.514   0.673   5.548  0.6423  0.2593 -1.0712
  466MOL0     H61454   4.517   0.684   5.730  0.7765 -1.3448  0.8472
  466MOL0     H61455   4.723   0.518   5.564  0.9796  4.9042 -0.2823
  466MOL0     H61456   4.706   0.516   5.739 -0.0599  0.6185  1.3393
  466MOL0     H61457   4.490   0.443   5.537 -1.9835 -0.5183  1.5206
  466MOL0     H61458   4.481   0.429   5.721  1.0917  0.1883  1.2320
  466MOL0     H61459   4.693   0.266   5.646 -0.1551 -2.1760 -1.7193
  466MOL0     H61460   4.594   0.231   5.522  1.1970  3.0913 -0.6147
  466MOL0     H61461   4.568   0.102   5.738 -3.6523 -2.7980 -2.0308
  466MOL0     H61462   4.498   0.237   5.827  1.8857  1.9904 -0.4970
  466MOL0     H61463   4.336   0.066   5.751 -0.9118  1.5270  1.4087
  466MOL0     H61464   4.389   0.104   5.582  1.0358 -0.9422  0.5279
  466MOL0     H61465   4.281   0.320   5.458  1.9381  0.9710  1.1629
  466MOL0     H61466   3.989   0.534   5.552 -0.5625 -0.2705 -2.3585
  466MOL0     H61467   4.057   0.465   5.405 -1.1683  1.1400  0.7948
  466MOL0     H61468   4.254   0.587   5.414 -1.9058 -1.5702 -0.0507
  466MOL0     H61469   4.225   0.647   5.577  1.0303  2.5539 -0.7249
  466MOL0     H61470   4.063   0.738   5.326  0.6144 -0.9286  0.2721
  466MOL0     H61471   4.056   0.814   5.492  3.2577 -0.1249  2.6017
  466MOL0     H61472   4.309   0.846   5.463  1.9172  0.6429 -2.2285
  466MOL0     H61473   4.194   0.960   5.413 -4.4668 -0.5429  1.5947
  466MOL0     H61474   4.517   0.851   5.338 -2.7194  1.5351  0.3306
  466MOL0     H61475   4.671   0.671   5.338 -2.0324 -1.3460  2.3291
  466MOL0     H61476   4.928   0.391   5.016 -0.8526  0.1717 -0.2614
  466MOL0     H61477   5.103   0.229   5.030 -0.8200 -1.4900  0.4782
  466MOL0     H61478   5.323   0.225   5.192 -3.0428 -0.0152 -2.9719
  466MOL0     H61479   5.305   0.092   5.072 -1.2293  2.8734 -1.1069
  466MOL0     H61480   5.509   0.061   5.228 -0.1761 -0.2325 -2.1714
  466MOL0     H61481   5.408  -0.073   5.211  2.6118  0.1132  0.8729
  466MOL0     H61482   5.477  -0.035   5.439 -0.6630 -0.3300 -1.8096
  466MOL0     H61483   5.291  -0.013   5.424  0.5809 -1.9560 -0.9700
  466MOL0     H61484   5.356   0.237   5.424 -0.0678  1.0877  2.0483
  466MOL0     H61485   5.339   0.153   5.567  1.5167  0.5856  1.1109
  466MOL0     H61486   5.591   0.206   5.414 -1.3415 -0.1097 -0.2324
  466MOL0     H61487   5.613   0.092   5.554 -0.7181 -2.7329 -0.9790
  466MOL0     H61488   5.512   0.238   5.704 -0.3916  1.4793  0.4075
  466MOL0     H61489   5.501   0.368   5.573  2.6912  0.6591  0.3032
  466MOL0     H61490   5.762   0.248   5.670  0.3841 -0.4105 -0.6905
  466MOL0     H61491   5.744   0.376   5.542  0.5764  1.1567  0.5631
  466MOL0     H61492   5.637   0.503   5.731  0.0829 -0.4951 -2.8407
  466MOL0     H61493   5.817   0.480   5.737  1.1008 -0.4657 -1.6505
  466MOL0     H61494   5.064   0.196   5.460 -3.7468  2.1534  1.6244
  466MOL0     H61495   4.880   0.377   5.448  0.0809  1.2868 -0.9646
  466MOL0     H61496   4.400   0.438   5.079  2.2343 -1.3423  0.7730
  466MOL0     H61497   4.232   0.631   5.125  0.1456 -4.1098 -1.2827
  466MOL0     H61498   4.753   0.745   6.090 -0.6833 -0.9148  2.2063
  466MOL0     H61499   4.752   0.871   6.307  1.9459 -2.6783 -1.1444
  466MOL0     H61500   4.722   1.035   6.713 -0.6297  1.2179  2.1909
  466MOL0     H61501   4.681   1.172   6.899  1.1432  0.9317  1.6088
  466MOL0     H61502   4.592   1.587   6.792  1.8747 -2.7364 -1.0874
  466MOL0     H61503   4.666   1.587   6.954 -2.0078  1.6031  2.3282
  466MOL0     H61504   4.474   1.722   6.984  2.8604  0.0326  1.7025
  466MOL0     H61505   4.364   1.580   6.945  0.7103  0.1209 -2.4496
  466MOL0     H61506   4.592   1.626   7.153 -0.6356  0.9202  3.1755
  466MOL0     H61507   4.505   1.472   7.137  1.1897  0.3175 -4.9678
  466MOL0     H61508   4.392   1.754   7.201  3.0721 -0.8097 -2.5124
  466MOL0     H61509   4.283   1.606   7.206  0.8992 -0.8108 -0.8931
  466MOL0     H61510   4.480   1.593   7.576  3.3001  1.1594  0.7483
  466MOL0     H61511   4.500   1.476   6.634  1.0784 -0.1654  0.1635
  466MOL0     H61512   4.533   1.332   6.458  0.0628  2.3275  0.1845
  467MOL0     O61513   5.910   3.330   5.488  0.2124  0.6085 -0.3998
  467MOL0     C61514   5.958   3.221   5.494 -0.6052 -0.4525  0.2232
  467MOL0     O61515   5.974   3.133   5.391 -0.4814 -0.0846 -0.5656
  467MOL0     C61516   5.914   3.172   5.272 -0.0510  0.6780 -0.3838
  467MOL0     C61517   5.788   3.136   5.261  1.2033  0.7890  0.2406
  467MOL0     C61518   5.719   3.156   5.144  0.7318  0.6528  1.2173
  467MOL0     C61519   5.784   3.224   5.038 -0.0688  0.6268 -0.8428
  467MOL0     O61520   5.712   3.277   4.934 -0.2282 -0.0117 -0.0882
  467MOL0     C61521   5.647   3.191   4.837 -0.8377 -0.8624  0.0690
  467MOL0     C61522   5.510   3.246   4.806  0.2265 -0.9943  0.0652
  467MOL0     C61523   5.426   3.123   4.784 -0.8301 -0.1810  0.1222
  467MOL0     C61524   5.462   3.047   4.652 -0.5247 -0.3821  0.9403
  467MOL0     C61525   5.390   2.915   4.651 -0.8463  0.5010  0.0350
  467MOL0     C61526   5.242   2.903   4.617 -0.2519 -0.8602  0.8387
  467MOL0     C61527   5.210   2.754   4.566  0.1523  1.1305 -0.8886
  467MOL0     C61528   5.064   2.716   4.559  0.8870 -1.0321  0.6085
  467MOL0     N61529   5.018   2.586   4.542 -0.3199 -0.2176  0.4771
  467MOL0     C61530   5.053   2.509   4.437 -0.1901 -0.4445  0.1472
  467MOL0     C61531   4.994   2.388   4.457 -0.2072  0.6428 -0.2345
  467MOL0     C61532   4.980   2.265   4.376  0.5786  0.2962 -0.3201
  467MOL0     C61533   4.937   2.277   4.227  0.4576  0.6625 -0.7265
  467MOL0     C61534   4.781   2.322   4.203 -0.2140 -0.0500 -0.1150
  467MOL0     C61535   4.775   2.397   4.072 -0.1773 -0.7608 -0.2996
  467MOL0     O61536   4.860   2.518   4.061  0.3109 -0.2727  0.3070
  467MOL0     C61537   4.956   2.509   3.965  0.1784 -0.5667  0.6728
  467MOL0     C61538   5.089   2.528   4.002 -0.6851 -0.0306  0.6308
  467MOL0     C61539   5.190   2.525   3.916 -0.1147 -0.7567  0.1644
  467MOL0     C61540   5.171   2.505   3.774 -0.8176  0.5728 -1.1759
  467MOL0     C61541   5.278   2.479   3.684 -0.4182  0.6703  0.1714
  467MOL0     O61542   5.404   2.506   3.720 -0.0031 -0.5550 -0.2965
  467MOL0     C61543   5.520   2.499   3.649  0.1030  0.2053  0.0039
  467MOL0     C61544   5.532   2.480   3.509  0.2317  0.8662 -0.2704
  467MOL0     C61545   5.654   2.485   3.443 -0.3662  0.9991 -0.3930
  467MOL0     C61546   5.776   2.496   3.514 -0.0248  0.2809 -0.0346
  467MOL0     O61547   5.881   2.480   3.430  0.3348 -0.5192  0.2024
  467MOL0     C61548   6.016   2.442   3.480 -0.2145  0.3647  0.6450
  467MOL0     C61549   6.022   2.301   3.525 -0.7567  0.1739 -0.0454
  467MOL0     C61550   6.161   2.262   3.591  0.6587  0.1785  0.2454
  467MOL0     C61551   6.148   2.129   3.656  0.6147  0.5414  0.5710
  467MOL0     C61552   6.275   2.099   3.738  0.1244 -1.1722 -0.1139
  467MOL0     C61553   6.409   2.127   3.677 -0.9229 -0.4624 -0.2324
  467MOL0     C61554   6.513   2.045   3.748  0.1039  0.0661 -1.1589
  467MOL0     C61555   6.523   1.898   3.702  0.2805  0.1255  0.9228
  467MOL0    Cl61556   6.586   1.816   3.847 -0.6664 -0.1607 -0.2781
  467MOL0     C61557   5.766   2.520   3.644  0.5005  0.5417 -0.3381
  467MOL0     C61558   5.642   2.531   3.715 -0.7393 -1.4321  0.5274
  467MOL0     O61559   5.239   2.429   3.575  1.0188  0.2202 -0.2778
  467MOL0     C61560   5.034   2.485   3.739 -0.2440  1.0553 -0.6670
  467MOL0     C61561   4.932   2.476   3.830  0.3093  0.1671 -0.0915
  467MOL0     N61562   4.945   2.389   4.580 -0.1718  0.0333 -0.3169
  467MOL0     N61563   4.962   2.509   4.632  0.1277  0.4136  0.5936
  467MOL0     C61564   5.917   3.272   5.054  0.1485 -0.0442  0.3073
  467MOL0     C61565   5.984   3.252   5.180 -0.8665 -0.2541  1.0045
  467MOL0     C61566   6.037   3.195   5.623  0.6029 -0.3937 -0.8210
  467MOL0     C61567   6.104   3.079   5.634  0.0678 -0.0968 -0.2822
  467MOL0     C61568   6.157   3.042   5.752  0.2200  0.4409 -0.9013
  467MOL0     C61569   6.170   3.124   5.870  0.0221  0.0658  0.9829
  467MOL0     O61570   6.226   3.067   5.979 -0.0296  0.7472  0.4490
  467MOL0     C61571   6.199   3.128   6.111 -0.1069 -0.3199 -0.0731
  467MOL0     C61572   6.308   3.080   6.215 -0.2321  0.2929  0.4662
  467MOL0     C61573   6.456   3.107   6.183  0.5089 -0.9899 -0.3026
  467MOL0     C61574   6.543   3.121   6.305 -1.1746 -0.8769  0.4184
  467MOL0     C61575   6.576   2.992   6.375 -0.1976 -1.0672  0.4774
  467MOL0     C61576   6.583   2.872   6.419  0.3109 -0.1035  0.1571
  467MOL0     C61577   6.121   3.257   5.847 -0.7430 -0.8449 -0.0725
  467MOL0     C61578   6.058   3.290   5.728 -0.8387 -0.1095 -0.0076
  467MOL0     H61579   5.736   3.073   5.332  0.5019 -0.8420 -1.6386
  467MOL0     H61580   5.614   3.132   5.136  0.8221 -0.5958  3.2192
  467MOL0     H61581   5.644   3.090   4.878 -5.0974 -0.4232  1.3427
  467MOL0     H61582   5.704   3.184   4.744 -1.5728  0.1916 -0.4858
  467MOL0     H61583   5.512   3.313   4.720  1.2173  0.8634  1.4781
  467MOL0     H61584   5.464   3.291   4.895 -1.5818 -1.1857 -0.7134
  467MOL0     H61585   5.321   3.151   4.776 -0.5941  0.9643  0.9235
  467MOL0     H61586   5.444   3.053   4.866  2.1574  0.6006  0.2565
  467MOL0     H61587   5.430   3.099   4.561  0.3317 -0.7658  0.4109
  467MOL0     H61588   5.571   3.039   4.655 -0.3113  0.4651 -1.9588
  467MOL0     H61589   5.413   2.858   4.742  1.2747 -0.5710 -1.0823
  467MOL0     H61590   5.431   2.865   4.563 -0.0341  1.1439  0.0403
  467MOL0     H61591   5.219   2.960   4.526  3.2318 -1.1378 -0.3734
  467MOL0     H61592   5.174   2.927   4.699  0.1287 -2.3091  1.6098
  467MOL0     H61593   5.244   2.729   4.465  1.5360  0.8343 -0.3747
  467MOL0     H61594   5.273   2.693   4.632  0.1759  3.0057  0.9493
  467MOL0     H61595   5.023   2.764   4.470 -0.7492 -2.1708  0.6907
  467MOL0     H61596   5.009   2.755   4.646  0.4102  0.7489 -0.4405
  467MOL0     H61597   5.110   2.555   4.357  0.1652 -1.8393 -0.4440
  467MOL0     H61598   4.906   2.204   4.427  1.5847  0.3439  1.2594
  467MOL0     H61599   5.073   2.210   4.390 -0.1607 -0.9237 -0.0886
  467MOL0     H61600   4.941   2.173   4.193 -3.1351  0.2877 -0.4065
  467MOL0     H61601   5.021   2.312   4.167  1.5131 -3.9538 -2.3551
  467MOL0     H61602   4.705   2.243   4.194 -1.9152  1.4042  0.8465
  467MOL0     H61603   4.738   2.382   4.283 -2.1097 -0.7382 -0.5585
  467MOL0     H61604   4.676   2.435   4.044  1.1227  1.1329 -2.8020
  467MOL0     H61605   4.797   2.327   3.991 -1.3076  2.1452 -3.3620
  467MOL0     H61606   5.108   2.567   4.101  0.9855  5.2933 -1.4207
  467MOL0     H61607   5.280   2.556   3.968 -1.1604  1.2095  0.9209
  467MOL0     H61608   5.441   2.457   3.454 -2.1675  1.0659  3.3304
  467MOL0     H61609   5.663   2.453   3.340  4.2435  0.3361  0.0184
  467MOL0     H61610   6.042   2.514   3.559  0.3543  1.4387 -0.4819
  467MOL0     H61611   6.079   2.461   3.393 -2.2646  0.5479 -0.8546
  467MOL0     H61612   5.996   2.230   3.446 -0.1471  0.2801 -0.3491
  467MOL0     H61613   5.953   2.281   3.607 -1.5210  0.2204 -0.6748
  467MOL0     H61614   6.201   2.337   3.661  0.3417 -0.0448  0.6728
  467MOL0     H61615   6.226   2.259   3.503 -1.3282 -0.2888 -1.2618
  467MOL0     H61616   6.064   2.116   3.725  2.3555 -1.4619  2.4885
  467MOL0     H61617   6.137   2.057   3.575  2.8349 -0.1704  0.8147
  467MOL0     H61618   6.266   1.993   3.767 -0.7780 -1.2169 -0.5104
  467MOL0     H61619   6.251   2.160   3.826 -0.3173  0.0001 -1.0297
  467MOL0     H61620   6.422   2.234   3.699 -2.6411  0.0168 -1.3316
  467MOL0     H61621   6.398   2.105   3.571  2.9689  1.3926 -1.2120
  467MOL0     H61622   6.610   2.092   3.729  0.9288 -1.3907 -0.6872
  467MOL0     H61623   6.476   2.046   3.851  0.7215 -2.5468 -0.8333
  467MOL0     H61624   6.601   1.903   3.625 -2.2520 -1.5443 -1.9625
  467MOL0     H61625   6.433   1.851   3.660  1.7753 -0.9508 -1.2589
  467MOL0     H61626   5.863   2.544   3.688  0.4953  0.6453 -0.3838
  467MOL0     H61627   5.638   2.566   3.818  2.0323 -0.7893  0.4980
  467MOL0     H61628   5.000   2.460   3.639 -2.6031 -3.9280  1.0621
  467MOL0     H61629   4.828   2.464   3.802  0.3588 -3.2246  0.7027
  467MOL0     H61630   5.978   3.335   4.989  1.0958 -0.3756  0.8563
  467MOL0     H61631   6.085   3.285   5.202  0.6497 -2.8316 -1.3348
  467MOL0     H61632   6.106   3.006   5.553 -0.1504  0.2450 -0.6014
  467MOL0     H61633   6.191   2.939   5.762  2.5658  1.0723 -1.5356
  467MOL0     H61634   6.099   3.111   6.151 -0.2916  0.1768 -0.3220
  467MOL0     H61635   6.208   3.236   6.101 -0.2898 -0.1643  1.2914
  467MOL0     H61636   6.288   3.129   6.311 -1.4759  0.9475 -0.1013
  467MOL0     H61637   6.306   2.972   6.231 -0.2090 -0.0322 -1.5192
  467MOL0     H61638   6.458   3.207   6.138 -2.3768  0.1553  1.7971
  467MOL0     H61639   6.488   3.040   6.103 -0.2938 -0.0243 -1.4635
  467MOL0     H61640   6.635   3.155   6.257 -2.2329 -0.2942 -1.3086
  467MOL0     H61641   6.520   3.200   6.376  0.4605  1.5032 -1.5141
  467MOL0     H61642   6.592   2.780   6.473  0.8520  0.0823  0.3962
  467MOL0     H61643   6.107   3.332   5.924 -1.7107 -0.6002 -0.4712
  467MOL0     H61644   6.016   3.389   5.713 -1.7804 -0.8280 -2.7022
  468MOL0     O61645   1.963   3.496   5.708 -0.9434  0.3914  0.1913
  468MOL0     C61646   2.060   3.527   5.638  0.1362  0.1248 -0.9479
  468MOL0     O61647   2.054   3.571   5.508  0.3421  0.0003 -0.5426
  468MOL0     C61648   1.943   3.563   5.440 -0.0028  0.4986  0.4270
  468MOL0     C61649   1.832   3.639   5.480  0.2331  0.6980  0.2351
  468MOL0     C61650   1.706   3.630   5.420 -0.2560 -0.3550 -0.3248
  468MOL0     C61651   1.697   3.545   5.309 -0.2943 -0.3767  0.0955
  468MOL0     O61652   1.574   3.533   5.243 -0.3089 -0.0760 -0.0054
  468MOL0     C61653   1.582   3.482   5.109 -0.5240 -0.0218 -0.2965
  468MOL0     C61654   1.455   3.498   5.031 -0.1261  0.4978 -0.2407
  468MOL0     C61655   1.446   3.430   4.905 -0.6531 -0.2035  0.8154
  468MOL0     C61656   1.322   3.468   4.822 -0.5743  0.3594  0.2818
  468MOL0     C61657   1.279   3.381   4.701 -0.7569 -0.2254 -0.9294
  468MOL0     C61658   1.384   3.401   4.582  0.4043  0.6073 -0.0375
  468MOL0     C61659   1.344   3.320   4.450  0.4838 -0.1748  0.1551
  468MOL0     C61660   1.212   3.385   4.387  0.5339  0.8871 -0.6722
  468MOL0     N61661   1.136   3.292   4.292  0.2493  0.2221 -0.3115
  468MOL0     C61662   1.197   3.217   4.190 -0.0086  0.1068 -0.0788
  468MOL0     C61663   1.089   3.132   4.150 -1.2714 -0.5628  0.7675
  468MOL0     C61664   1.098   3.002   4.081 -0.2720 -0.6687 -1.7320
  468MOL0     C61665   1.027   2.990   3.946 -1.1042  0.5096  0.5806
  468MOL0     C61666   1.075   3.087   3.840  0.3719 -0.3483  0.4048
  468MOL0     C61667   0.968   3.164   3.768 -0.9175 -0.2828 -1.1463
  468MOL0     O61668   1.006   3.250   3.660 -0.1341 -0.4039  0.7585
  468MOL0     C61669   1.098   3.350   3.680  0.3410  0.1909 -0.3597
  468MOL0     C61670   1.176   3.379   3.566 -0.1029  0.5943  0.2249
  468MOL0     C61671   1.272   3.480   3.564 -0.3630 -0.6030 -0.1519
  468MOL0     C61672   1.300   3.545   3.690 -0.5183  0.3858 -0.0348
  468MOL0     C61673   1.398   3.655   3.702  0.4463  1.1149 -0.2073
  468MOL0     O61674   1.485   3.672   3.599 -0.0748  0.0223  0.6823
  468MOL0     C61675   1.591   3.758   3.606  0.2694  0.7054 -0.7098
  468MOL0     C61676   1.579   3.899   3.600  0.0102 -0.1950  0.1376
  468MOL0     C61677   1.688   3.980   3.597 -0.0997 -0.0264  0.5637
  468MOL0     C61678   1.815   3.926   3.581 -0.0764  0.2592 -0.2685
  468MOL0     O61679   1.923   4.013   3.587  0.3242 -0.4531 -0.2968
  468MOL0     C61680   2.060   3.973   3.581 -0.4682 -0.2740  0.5801
  468MOL0     C61681   2.139   4.102   3.549 -0.5750  0.9345 -0.2181
  468MOL0     C61682   2.103   4.175   3.420 -0.8760 -0.6358 -0.0352
  468MOL0     C61683   2.214   4.266   3.376 -0.1595 -0.5077  0.3709
  468MOL0     C61684   2.165   4.378   3.279 -0.3710 -0.1588  0.5269
  468MOL0     C61685   2.069   4.490   3.334  0.2249  0.3722 -0.2949
  468MOL0     C61686   2.047   4.610   3.241  0.1112 -0.3958  0.2111
  468MOL0     C61687   1.923   4.678   3.285 -0.3404  0.1146 -0.8772
  468MOL0    Cl61688   1.775   4.626   3.194  0.3324  0.0525  0.1028
  468MOL0     C61689   1.830   3.787   3.583 -0.2254  0.0887 -0.5872
  468MOL0     C61690   1.718   3.703   3.602  0.1530 -0.5173  0.4269
  468MOL0     O61691   1.382   3.737   3.790 -0.1664 -0.5058  0.4826
  468MOL0     C61692   1.230   3.505   3.804  0.1344 -0.0607  0.0530
  468MOL0     C61693   1.134   3.407   3.805  0.2696 -0.6645 -0.6916
  468MOL0     N61694   0.966   3.178   4.200 -0.2011 -0.3206 -0.2996
  468MOL0     N61695   0.995   3.286   4.278 -0.6495  1.2208 -0.8995
  468MOL0     C61696   1.811   3.468   5.265  0.1630  0.3380 -0.1769
  468MOL0     C61697   1.929   3.468   5.339 -0.5465 -1.4695 -0.3208
  468MOL0     C61698   2.193   3.519   5.711  1.0293  0.2131  0.2250
  468MOL0     C61699   2.212   3.434   5.818 -0.6155 -0.1801 -0.3232
  468MOL0     C61700   2.346   3.417   5.866  0.5002 -0.1937  0.4188
  468MOL0     C61701   2.451   3.479   5.805 -0.4343  0.4674 -0.5676
  468MOL0     O61702   2.577   3.474   5.857 -0.9825  0.0247  1.0441
  468MOL0     C61703   2.634   3.339   5.839 -0.0183  0.2986  0.0351
  468MOL0     C61704   2.776   3.327   5.826  0.7913  0.3652  0.2436
  468MOL0     C61705   2.840   3.429   5.733  0.4612 -0.7982  0.5867
  468MOL0     C61706   2.975   3.380   5.682  0.0439  0.0248  0.5036
  468MOL0     C61707   3.024   3.480   5.590 -0.3396 -0.4497  0.3655
  468MOL0     C61708   3.052   3.554   5.496  1.1560  1.1386  0.1548
  468MOL0     C61709   2.437   3.559   5.693 -0.9139  0.3179 -0.2972
  468MOL0     C61710   2.305   3.580   5.649 -0.0621  0.0186  0.4413
  468MOL0     H61711   1.832   3.705   5.566 -2.7765 -0.3715  1.1958
  468MOL0     H61712   1.620   3.678   5.465  0.4603  0.0851  0.6203
  468MOL0     H61713   1.608   3.377   5.099  1.5320  0.2272  1.5284
  468MOL0     H61714   1.660   3.537   5.055  1.2467 -1.9826  0.1674
  468MOL0     H61715   1.431   3.601   5.003  0.1011  0.4163 -0.7554
  468MOL0     H61716   1.375   3.457   5.092  0.1389  0.3243 -0.0070
  468MOL0     H61717   1.448   3.320   4.911  2.1558 -0.1656  2.0304
  468MOL0     H61718   1.527   3.453   4.836 -0.3416 -1.1759  0.8313
  468MOL0     H61719   1.238   3.466   4.892 -0.1937 -0.6235  0.7170
  468MOL0     H61720   1.338   3.572   4.792  1.1263  1.4995  4.4544
  468MOL0     H61721   1.177   3.407   4.672  0.2252  0.2286 -4.4699
  468MOL0     H61722   1.269   3.279   4.739 -0.1723  0.6270  1.7938
  468MOL0     H61723   1.482   3.358   4.605  0.7082 -0.0430 -2.2845
  468MOL0     H61724   1.391   3.507   4.557 -1.9784  1.1832  1.4223
  468MOL0     H61725   1.436   3.340   4.394  1.1167 -0.2083  1.1658
  468MOL0     H61726   1.321   3.214   4.465  1.3341 -0.2131  1.3081
  468MOL0     H61727   1.242   3.482   4.345 -1.4942  2.3035  0.9338
  468MOL0     H61728   1.143   3.417   4.465  0.1070 -1.9971  0.2378
  468MOL0     H61729   1.303   3.207   4.168  0.1032 -0.1131  0.5225
  468MOL0     H61730   1.058   2.928   4.151  1.3393  0.3404  0.3553
  468MOL0     H61731   1.200   2.963   4.078  0.2791  0.6156 -0.5239
  468MOL0     H61732   0.917   2.986   3.947 -1.1350  1.0775  1.8334
  468MOL0     H61733   1.054   2.889   3.914 -0.6237 -0.2625  3.1460
  468MOL0     H61734   1.150   3.157   3.876 -0.3590  0.8661 -0.3491
  468MOL0     H61735   1.119   3.024   3.762  1.5143  0.6027  0.2581
  468MOL0     H61736   0.915   3.228   3.839 -1.1425 -1.6866  0.0027
  468MOL0     H61737   0.904   3.085   3.726 -0.5814  0.3607 -2.9564
  468MOL0     H61738   1.151   3.325   3.475 -0.6417  1.0541  0.0984
  468MOL0     H61739   1.334   3.505   3.478  1.2408  2.9350  1.8261
  468MOL0     H61740   1.476   3.931   3.583  0.2720  0.7247  0.2000
  468MOL0     H61741   1.676   4.088   3.595  0.3782  0.0515 -2.0605
  468MOL0     H61742   2.070   3.904   3.497  1.8450 -0.2280  0.7551
  468MOL0     H61743   2.107   3.919   3.664  0.5297 -1.1192 -0.5008
  468MOL0     H61744   2.242   4.067   3.544 -0.2747  1.9698 -1.8534
  468MOL0     H61745   2.138   4.163   3.640 -2.3858 -0.3520  0.6778
  468MOL0     H61746   2.011   4.234   3.429 -1.2603 -0.9964 -1.3472
  468MOL0     H61747   2.088   4.101   3.341 -1.6571 -2.5570  1.8035
  468MOL0     H61748   2.261   4.313   3.463  0.2967  1.0415 -0.6768
  468MOL0     H61749   2.285   4.208   3.316 -1.0499  1.2934 -2.6174
  468MOL0     H61750   2.104   4.326   3.205 -1.0913 -1.0053  1.6762
  468MOL0     H61751   2.248   4.429   3.229 -1.6392  2.0227  0.5359
  468MOL0     H61752   2.117   4.512   3.430 -0.8616 -2.0194  0.8864
  468MOL0     H61753   1.975   4.442   3.363 -1.1074 -0.2853 -4.9297
  468MOL0     H61754   2.132   4.678   3.233  0.5442 -1.1535 -2.8313
  468MOL0     H61755   2.024   4.567   3.143 -3.5348 -2.9688  1.9643
  468MOL0     H61756   1.942   4.784   3.272  5.1733 -0.6766 -1.7226
  468MOL0     H61757   1.924   4.670   3.394  2.2436 -2.3915 -0.9357
  468MOL0     H61758   1.927   3.739   3.573  0.9149  2.2094 -0.4060
  468MOL0     H61759   1.724   3.598   3.574 -0.4259 -0.4807  0.1458
  468MOL0     H61760   1.255   3.550   3.900  3.0941  2.2108 -1.6049
  468MOL0     H61761   1.075   3.376   3.892 -0.3376  2.5841  0.1790
  468MOL0     H61762   1.814   3.402   5.178 -0.5508 -0.9134  0.7248
  468MOL0     H61763   2.013   3.404   5.313 -0.3927 -2.1876  1.7503
  468MOL0     H61764   2.128   3.384   5.867 -2.5364  2.8811 -0.1882
  468MOL0     H61765   2.369   3.362   5.956 -0.9166 -0.1673  0.8101
  468MOL0     H61766   2.585   3.287   5.756  0.0387  0.5475 -0.1568
  468MOL0     H61767   2.611   3.284   5.930  0.9662 -0.1574  0.0181
  468MOL0     H61768   2.808   3.338   5.930 -0.0975 -0.1531  0.5872
  468MOL0     H61769   2.793   3.221   5.805 -0.3700 -0.4298  2.8978
  468MOL0     H61770   2.852   3.530   5.774  0.6888  1.0307 -3.4742
  468MOL0     H61771   2.784   3.446   5.640  0.3177  0.0732  0.8271
  468MOL0     H61772   3.035   3.362   5.771 -2.1239 -0.1955  1.9829
  468MOL0     H61773   2.957   3.281   5.641 -1.0947  0.9684 -1.4548
  468MOL0     H61774   3.075   3.611   5.408 -2.8093  0.8364 -1.2992
  468MOL0     H61775   2.527   3.587   5.639 -0.2568 -0.6852  0.2473
  468MOL0     H61776   2.303   3.646   5.563  3.1670 -1.1695 -0.6785
  469MOL0     O61777   3.858   3.010   6.170  0.4573  0.2572  0.0801
  469MOL0     C61778   3.810   3.069   6.075  0.9187 -0.7019  0.1763
  469MOL0     O61779   3.668   3.074   6.052  0.1026  0.3452  0.6790
  469MOL0     C61780   3.585   2.992   6.119 -0.6295  0.3821  0.1871
  469MOL0     C61781   3.589   2.860   6.089 -1.6328  0.1586 -0.0012
  469MOL0     C61782   3.500   2.765   6.143 -0.0798 -0.1295  0.0101
  469MOL0     C61783   3.407   2.806   6.243  0.1688  0.9590  0.0708
  469MOL0     O61784   3.330   2.698   6.285 -0.5358 -0.0069  0.0510
  469MOL0     C61785   3.288   2.722   6.425 -0.7278 -0.5662  0.2570
  469MOL0     C61786   3.230   2.586   6.468 -0.1064 -0.1260 -0.1202
  469MOL0     C61787   3.226   2.539   6.610 -0.8461  0.0957 -0.3472
  469MOL0     C61788   3.089   2.475   6.643 -0.9557 -0.3953  0.3578
  469MOL0     C61789   3.111   2.391   6.751 -0.5315 -0.4724  0.2107
  469MOL0     C61790   3.179   2.265   6.717 -0.0005  0.0638 -0.7438
  469MOL0     C61791   3.147   2.194   6.581 -0.5359 -0.7734 -0.0520
  469MOL0     C61792   3.202   2.057   6.541  0.1708 -0.2711 -0.4734
  469MOL0     N61793   3.308   2.021   6.624  0.0993 -0.7418  0.5787
  469MOL0     C61794   3.305   1.960   6.746 -0.2746 -1.2702  0.4210
  469MOL0     C61795   3.429   1.941   6.784 -0.7292 -0.0022  0.8575
  469MOL0     C61796   3.463   1.870   6.909  0.9524  0.5395 -0.4802
  469MOL0     C61797   3.446   1.722   6.875 -0.3947  1.5283  0.0890
  469MOL0     C61798   3.482   1.632   6.996  0.6090  0.8499 -0.3602
  469MOL0     C61799   3.417   1.490   6.993  0.3137  0.7119 -0.2877
  469MOL0     O61800   3.380   1.460   7.136 -0.0774  0.1334  1.1013
  469MOL0     C61801   3.335   1.338   7.169 -0.9743 -0.3533 -0.2278
  469MOL0     C61802   3.357   1.226   7.095  0.8164 -0.9478 -0.1195
  469MOL0     C61803   3.303   1.101   7.135  0.4526 -1.0610  0.0236
  469MOL0     C61804   3.211   1.087   7.236  0.1224  0.3265 -0.2552
  469MOL0     C61805   3.145   0.953   7.261  1.1810  0.2666 -0.0187
  469MOL0     O61806   3.202   0.848   7.195  0.0961  1.1588  0.3894
  469MOL0     C61807   3.181   0.714   7.219  0.3957  0.2981  0.1904
  469MOL0     C61808   3.109   0.670   7.334 -0.0016  0.7271  1.2010
  469MOL0     C61809   3.084   0.529   7.346 -1.0512 -0.3408 -0.3571
  469MOL0     C61810   3.144   0.441   7.260 -0.8963  0.0895  0.7915
  469MOL0     O61811   3.115   0.319   7.285 -0.2539  0.6205 -0.4774
  469MOL0     C61812   3.141   0.215   7.186 -0.2886 -0.8883  0.3063
  469MOL0     C61813   3.100   0.075   7.224  0.1008 -1.3173 -0.2151
  469MOL0     C61814   3.219  -0.025   7.231  0.2523 -0.2500  0.4563
  469MOL0     C61815   3.209  -0.129   7.351  0.4250 -0.1389 -0.4771
  469MOL0     C61816   3.228  -0.048   7.484  0.0905  0.4937  0.6824
  469MOL0     C61817   3.141  -0.111   7.594 -1.0610  0.5834  0.3523
  469MOL0     C61818   3.008  -0.031   7.614  0.0410 -0.3596  0.2952
  469MOL0     C61819   2.931  -0.119   7.714  0.2320  0.5772 -0.5658
  469MOL0    Cl61820   3.011  -0.134   7.868  0.5999 -0.4260 -0.1965
  469MOL0     C61821   3.225   0.493   7.149  0.7777  0.0291 -0.3927
  469MOL0     C61822   3.243   0.627   7.135  0.0861  0.3167  0.4228
  469MOL0     O61823   3.033   0.963   7.319  0.6572  0.5587 -0.3160
  469MOL0     C61824   3.182   1.203   7.312  0.5375 -0.5107 -0.1256
  469MOL0     C61825   3.254   1.325   7.280 -0.5563  0.0914 -0.3031
  469MOL0     N61826   3.513   1.986   6.682 -0.6737  0.4624 -0.2294
  469MOL0     N61827   3.438   2.024   6.594  0.1816  1.3664 -1.2229
  469MOL0     C61828   3.408   2.937   6.279  0.1073 -0.2928 -0.4604
  469MOL0     C61829   3.495   3.031   6.213  0.1131 -0.0865 -0.6424
  469MOL0     C61830   3.893   3.137   5.970 -0.0172 -0.7374 -0.1552
  469MOL0     C61831   4.030   3.126   5.986  0.5556 -0.3970  0.3788
  469MOL0     C61832   4.120   3.195   5.902  0.0586 -0.2112 -0.1446
  469MOL0     C61833   4.064   3.275   5.802 -0.2226  0.4239  0.6003
  469MOL0     O61834   4.159   3.350   5.727  0.2475  0.1646  0.0072
  469MOL0     C61835   4.120   3.429   5.616 -0.3632  0.2913  1.0276
  469MOL0     C61836   4.074   3.570   5.655  0.3448  0.2384 -0.7335
  469MOL0     C61837   4.053   3.685   5.551  0.2401  0.1289 -0.7696
  469MOL0     C61838   4.181   3.715   5.474  0.1407 -0.8885  0.3645
  469MOL0     C61839   4.180   3.623   5.358  0.6871  0.4282 -0.1754
  469MOL0     C61840   4.166   3.536   5.274  0.1067  0.0417 -0.7850
  469MOL0     C61841   3.928   3.289   5.789 -0.3182  0.7121 -0.3896
  469MOL0     C61842   3.841   3.218   5.869  0.3881 -0.4245 -0.3462
  469MOL0     H61843   3.655   2.817   6.014 -1.0200  1.7378 -0.4113
  469MOL0     H61844   3.513   2.662   6.109 -1.0486  0.3615 -1.9982
  469MOL0     H61845   3.222   2.808   6.437 -0.5499 -0.2289 -1.0565
  469MOL0     H61846   3.373   2.746   6.490 -1.0131 -0.6248  0.6546
  469MOL0     H61847   3.279   2.510   6.407 -0.7247  0.0744 -0.8858
  469MOL0     H61848   3.129   2.577   6.427  1.0082 -2.3973 -2.6064
  469MOL0     H61849   3.245   2.616   6.684  1.2229 -1.6895  1.0977
  469MOL0     H61850   3.303   2.463   6.627  2.9164  3.7400  0.6389
  469MOL0     H61851   3.034   2.558   6.688  0.6480 -0.9577  3.6650
  469MOL0     H61852   3.040   2.425   6.558  1.1820 -6.2153  2.0468
  469MOL0     H61853   3.005   2.375   6.774 -1.6655 -0.5723 -4.2383
  469MOL0     H61854   3.168   2.441   6.829  2.1083  0.8040 -2.3654
  469MOL0     H61855   3.143   2.205   6.802  0.1291 -0.2388 -0.9005
  469MOL0     H61856   3.287   2.278   6.725 -0.1161  0.7056 -0.1371
  469MOL0     H61857   3.038   2.191   6.574 -0.5205 -0.1265 -0.6690
  469MOL0     H61858   3.192   2.260   6.506  0.4482  2.3042  2.9751
  469MOL0     H61859   3.240   2.060   6.439 -2.8153  3.9973 -1.7221
  469MOL0     H61860   3.110   1.998   6.535  0.9371 -1.7823  1.5249
  469MOL0     H61861   3.217   1.944   6.808 -0.5405 -1.1403  0.0806
  469MOL0     H61862   3.395   1.888   6.992 -0.0330  0.8211 -1.3293
  469MOL0     H61863   3.561   1.896   6.949 -0.6659  1.8968  2.9607
  469MOL0     H61864   3.511   1.688   6.794 -1.2058  0.0811  0.0079
  469MOL0     H61865   3.342   1.693   6.853  0.5370  0.1576 -3.1913
  469MOL0     H61866   3.587   1.604   7.009  0.3147 -0.0489  0.2121
  469MOL0     H61867   3.445   1.683   7.085 -0.7199 -1.2377  0.3561
  469MOL0     H61868   3.479   1.407   6.958 -1.0334  0.4798 -2.2947
  469MOL0     H61869   3.324   1.493   6.937 -0.1515  4.7302  0.4134
  469MOL0     H61870   3.422   1.208   7.010  3.0431  1.7040  0.8852
  469MOL0     H61871   3.340   1.015   7.080  1.4558 -1.7061  1.6302
  469MOL0     H61872   3.075   0.741   7.409 -2.0248 -1.8673  2.9116
  469MOL0     H61873   3.020   0.495   7.427  0.0300 -2.4264 -0.3162
  469MOL0     H61874   3.246   0.229   7.158 -0.4657  1.5148  0.7074
  469MOL0     H61875   3.078   0.245   7.102 -0.0735  1.2236  0.8665
  469MOL0     H61876   3.029   0.039   7.149 -0.5119  2.1037 -1.4439
  469MOL0     H61877   3.046   0.094   7.317  0.7896 -0.6452  0.0639
  469MOL0     H61878   3.317   0.022   7.233  0.4338 -0.5693 -0.4815
  469MOL0     H61879   3.205  -0.087   7.142 -1.1840  0.0053  0.4739
  469MOL0     H61880   3.112  -0.177   7.335 -1.1144  2.0415  1.7223
  469MOL0     H61881   3.290  -0.203   7.349  3.5673  2.7673  3.0850
  469MOL0     H61882   3.193   0.055   7.473 -0.9658 -0.0494 -1.6064
  469MOL0     H61883   3.335  -0.056   7.509  0.1999 -5.1455 -0.2189
  469MOL0     H61884   3.201  -0.114   7.685 -1.2960 -0.9002  0.4804
  469MOL0     H61885   3.123  -0.216   7.569 -0.8589  1.1073 -2.2235
  469MOL0     H61886   3.017   0.073   7.647 -1.6169 -0.3782  0.9104
  469MOL0     H61887   2.954  -0.021   7.520  0.0934  0.8416  0.3670
  469MOL0     H61888   2.916  -0.218   7.671  3.6737  0.2253 -1.3048
  469MOL0     H61889   2.836  -0.071   7.738  0.1412  1.0766 -1.8257
  469MOL0     H61890   3.267   0.432   7.070  0.1843 -1.1892  0.2055
  469MOL0     H61891   3.301   0.679   7.059 -1.7340  2.1195  0.1795
  469MOL0     H61892   3.113   1.208   7.395  0.3352 -0.0335 -0.3178
  469MOL0     H61893   3.262   1.406   7.351 -1.3104  1.4267 -1.6703
  469MOL0     H61894   3.354   2.983   6.361 -1.4364  0.2555 -1.7519
  469MOL0     H61895   3.496   3.130   6.256 -0.7841 -0.3292 -0.0306
  469MOL0     H61896   4.058   3.053   6.060  0.1107 -1.0337 -0.0673
  469MOL0     H61897   4.228   3.182   5.910 -0.2744 -2.5101  1.8316
  469MOL0     H61898   4.051   3.380   5.546  0.3887  1.3618 -0.5240
  469MOL0     H61899   4.210   3.436   5.554 -1.6188 -0.2334 -0.9332
  469MOL0     H61900   3.984   3.565   5.717  1.2514 -0.4172  0.5864
  469MOL0     H61901   4.146   3.612   5.726 -2.2388  0.1401  2.1434
  469MOL0     H61902   4.011   3.776   5.597  0.8077 -1.0961  2.4585
  469MOL0     H61903   3.970   3.653   5.488 -1.7372  2.2130  0.5766
  469MOL0     H61904   4.176   3.815   5.429 -0.5403 -1.6509 -1.3518
  469MOL0     H61905   4.274   3.696   5.527  0.8495 -0.2883 -0.6366
  469MOL0     H61906   4.176   3.440   5.227  2.1967 -0.4400  0.4765
  469MOL0     H61907   3.893   3.348   5.705  1.0953  0.3946 -1.2467
  469MOL0     H61908   3.735   3.242   5.858 -0.1178 -2.6264 -0.7271
  470MOL0     O61909   7.960   6.785   8.933 -0.6897  0.3796 -0.9200
  470MOL0     C61910   7.874   6.773   8.842 -0.0391  0.5584  0.3146
  470MOL0     O61911   7.751   6.827   8.844 -0.2189 -0.7006  0.3567
  470MOL0     C61912   7.707   6.878   8.962  0.8334  0.2888 -0.3575
  470MOL0     C61913   7.707   7.011   8.965  0.3564 -0.3335  0.4273
  470MOL0     C61914   7.638   7.065   9.071 -0.4296 -0.0614  0.2533
  470MOL0     C61915   7.563   6.987   9.170 -0.3918  0.0354  0.8399
  470MOL0     O61916   7.498   7.049   9.270  0.7381  0.3108  0.1759
  470MOL0     C61917   7.479   6.982   9.396  0.8423 -0.1496  0.5963
  470MOL0     C61918   7.448   7.095   9.489 -1.1491 -0.2206  0.4831
  470MOL0     C61919   7.569   7.182   9.523 -1.3996  0.7998 -0.1094
  470MOL0     C61920   7.567   7.258   9.654  0.2908 -0.2871 -0.2927
  470MOL0     C61921   7.667   7.375   9.654  0.6189  1.1293  0.0202
  470MOL0     C61922   7.809   7.328   9.652  0.0676 -1.1050  0.6228
  470MOL0     C61923   7.898   7.445   9.664  0.0708  0.1410 -0.4310
  470MOL0     C61924   8.050   7.401   9.653 -0.1086 -0.2588  0.7659
  470MOL0     N61925   8.128   7.524   9.662 -0.6859 -0.0251  0.3640
  470MOL0     C61926   8.138   7.593   9.778 -0.0468 -0.0627 -0.0387
  470MOL0     C61927   8.178   7.718   9.751  0.8077 -0.1675  0.3201
  470MOL0     C61928   8.219   7.817   9.853 -0.3766 -0.5809 -0.3142
  470MOL0     C61929   8.109   7.850   9.949  1.1996 -0.6241  0.3605
  470MOL0     C61930   8.151   7.852  10.104  0.4472 -0.5862  0.8160
  470MOL0     C61931   8.260   7.952  10.137 -0.3008  0.0447 -0.5190
  470MOL0     O61932   8.317   7.916  10.259  0.4920 -0.6035 -0.5973
  470MOL0     C61933   8.369   8.026  10.338  0.4231  0.1711  0.7625
  470MOL0     C61934   8.426   8.149  10.282  0.2185  0.0299  1.1495
  470MOL0     C61935   8.471   8.248  10.368  0.2045  0.5733 -0.7456
  470MOL0     C61936   8.466   8.228  10.510  0.5508 -0.0598 -0.2474
  470MOL0     C61937   8.496   8.349  10.592 -0.0582 -0.1744  0.1383
  470MOL0     O61938   8.518   8.321  10.719  0.7728  0.5996  0.5067
  470MOL0     C61939   8.540   8.417  10.812 -0.1406 -1.7950  0.1700
  470MOL0     C61940   8.596   8.367  10.926 -0.7463  0.6725  0.6982
  470MOL0     C61941   8.609   8.441  11.047 -0.4643 -1.2829 -0.8393
  470MOL0     C61942   8.571   8.574  11.054  0.1520 -0.1231 -0.8328
  470MOL0     O61943   8.587   8.647  11.172  0.0573  0.3929 -0.2962
  470MOL0     C61944   8.543   8.785  11.182  0.0052 -0.1765  0.2755
  470MOL0     C61945   8.395   8.790  11.209  0.2683  0.2835  0.9784
  470MOL0     C61946   8.351   8.758  11.344  0.6260 -0.1206  0.1321
  470MOL0     C61947   8.199   8.712  11.350 -0.1749  0.5442 -0.1994
  470MOL0     C61948   8.110   8.817  11.288  0.9854 -0.0695  0.1674
  470MOL0     C61949   8.115   8.953  11.356 -0.8931 -0.3410  0.1092
  470MOL0     C61950   7.985   9.044  11.330 -0.6049 -0.3359  0.2567
  470MOL0     C61951   7.956   9.141  11.450 -0.5722 -0.5617  0.8405
  470MOL0    Cl61952   8.097   9.249  11.498 -0.0318  0.0583 -0.5407
  470MOL0     C61953   8.513   8.621  10.935  0.1289 -0.1141  1.0412
  470MOL0     C61954   8.492   8.551  10.817 -0.1627  0.4243 -0.1646
  470MOL0     O61955   8.512   8.465  10.546  0.0234 -0.1213  0.6100
  470MOL0     C61956   8.425   8.109  10.563 -0.3173 -0.8648 -0.5699
  470MOL0     C61957   8.380   8.004  10.479 -0.4381  0.3202 -0.3541
  470MOL0     N61958   8.192   7.726   9.607 -1.1870  0.3923 -1.0750
  470MOL0     N61959   8.156   7.609   9.562  0.4154  1.1375  0.5205
  470MOL0     C61960   7.567   6.849   9.163 -0.3508  0.2048 -0.0553
  470MOL0     C61961   7.649   6.798   9.061 -0.4404 -0.0535  0.5958
  470MOL0     C61962   7.906   6.691   8.719 -0.1664  0.6404  0.6414
  470MOL0     C61963   7.821   6.679   8.610  0.1277 -0.1398  0.9362
  470MOL0     C61964   7.840   6.586   8.511  0.4724 -0.2492  0.9968
  470MOL0     C61965   7.957   6.516   8.507  0.0706 -0.4093  0.4309
  470MOL0     O61966   7.990   6.442   8.404  1.1010  0.1271 -1.2463
  470MOL0     C61967   7.907   6.328   8.401  1.5013 -0.4604 -0.3933
  470MOL0     C61968   7.916   6.259   8.264  0.4935 -0.4443 -0.9365
  470MOL0     C61969   8.057   6.199   8.230 -0.3130 -0.2013 -0.3245
  470MOL0     C61970   8.047   6.127   8.095 -0.9840 -0.4941 -0.8677
  470MOL0     C61971   8.173   6.076   8.043  0.6019 -0.4146  0.6460
  470MOL0     C61972   8.284   6.035   8.004  0.2781 -0.1214 -0.3324
  470MOL0     C61973   8.051   6.526   8.605  0.0165 -0.7691 -0.5005
  470MOL0     C61974   8.025   6.613   8.715 -0.2816 -1.1037 -0.9734
  470MOL0     H61975   7.761   7.063   8.887  1.4569 -2.3370 -0.1943
  470MOL0     H61976   7.649   7.173   9.071  1.0531 -0.1466 -2.4035
  470MOL0     H61977   7.555   6.909   9.425  1.5476 -0.9691 -2.8287
  470MOL0     H61978   7.382   6.933   9.385  0.7358  0.3940 -1.2241
  470MOL0     H61979   7.422   7.045   9.583 -0.0450 -1.4090  0.1812
  470MOL0     H61980   7.362   7.156   9.460 -0.4606  1.0869  1.0893
  470MOL0     H61981   7.578   7.252   9.439  2.1131 -0.9072 -1.3631
  470MOL0     H61982   7.658   7.120   9.510 -2.1923 -0.1148 -1.4075
  470MOL0     H61983   7.473   7.310   9.679 -0.9585 -3.0083  1.1735
  470MOL0     H61984   7.581   7.211   9.751  1.9805 -0.0250 -0.3866
  470MOL0     H61985   7.647   7.440   9.740 -1.3633  1.7949 -0.8827
  470MOL0     H61986   7.633   7.444   9.577 -1.2080  1.8318  1.3900
  470MOL0     H61987   7.816   7.278   9.555 -2.8217 -0.2405 -0.1245
  470MOL0     H61988   7.815   7.252   9.731  3.8009 -0.4819  1.1335
  470MOL0     H61989   7.861   7.518   9.591 -1.0218  2.4748  2.2498
  470MOL0     H61990   7.868   7.480   9.763 -2.7099  1.7868 -1.7402
  470MOL0     H61991   8.058   7.358   9.553 -2.6211  0.2421  0.2893
  470MOL0     H61992   8.084   7.327   9.727 -2.1165 -1.1778  0.8304
  470MOL0     H61993   8.110   7.568   9.880  0.3283  1.6358  0.5246
  470MOL0     H61994   8.249   7.908   9.800 -1.7947 -0.2851 -0.6407
  470MOL0     H61995   8.309   7.778   9.901  1.0658  0.2699 -2.1868
  470MOL0     H61996   8.024   7.785   9.927  1.4344 -0.6161 -0.6481
  470MOL0     H61997   8.059   7.947   9.939  2.8585  0.3115  0.8508
  470MOL0     H61998   8.055   7.863  10.154  0.5197 -1.5333  1.1732
  470MOL0     H61999   8.193   7.753  10.123 -1.6330 -1.6064  0.3389
  470MOL0     H62000   8.236   8.059  10.129  1.9088  0.5874 -0.6204
  470MOL0     H62001   8.345   7.938  10.070  0.7713 -0.2015  0.8433
  470MOL0     H62002   8.440   8.159  10.175  2.6490 -1.9844  1.2109
  470MOL0     H62003   8.499   8.337  10.311 -2.4295  0.2811 -2.7090
  470MOL0     H62004   8.623   8.262  10.932 -1.8288  0.3705  0.5555
  470MOL0     H62005   8.654   8.391  11.131 -0.8168 -1.2531 -0.6307
  470MOL0     H62006   8.575   8.848  11.099  2.2369 -2.1240 -0.4303
  470MOL0     H62007   8.598   8.841  11.258  0.6559 -2.6518  1.7485
  470MOL0     H62008   8.353   8.722  11.135  4.4678  0.7800 -2.2548
  470MOL0     H62009   8.360   8.891  11.187 -1.1888 -0.4719 -0.3515
  470MOL0     H62010   8.368   8.842  11.413  1.2153  0.9313 -1.2417
  470MOL0     H62011   8.408   8.668  11.370 -0.3233 -0.8045 -0.0851
  470MOL0     H62012   8.206   8.618  11.294 -1.5325  0.7256 -0.6956
  470MOL0     H62013   8.174   8.682  11.452  3.1921 -6.4588 -0.8432
  470MOL0     H62014   8.016   8.766  11.313  2.2475 -1.4064  2.5035
  470MOL0     H62015   8.126   8.822  11.180  1.4523  2.1351  0.3057
  470MOL0     H62016   8.208   8.995  11.316  0.2515 -2.0623  0.8764
  470MOL0     H62017   8.125   8.934  11.463 -0.5318 -0.4978  0.0467
  470MOL0     H62018   7.997   9.082  11.229  2.7131 -1.2863  0.1764
  470MOL0     H62019   7.902   8.973  11.340 -2.3132  1.8285  7.3233
  470MOL0     H62020   7.931   9.087  11.542 -0.0688 -2.3502 -0.0219
  470MOL0     H62021   7.867   9.201  11.425  0.5813  1.0252  0.3912
  470MOL0     H62022   8.466   8.719  10.928 -3.7471 -1.7418  1.5999
  470MOL0     H62023   8.441   8.600  10.735 -1.0111 -0.7279 -0.3575
  470MOL0     H62024   8.440   8.097  10.670  1.3056  4.3100  0.0411
  470MOL0     H62025   8.372   7.900  10.511  3.1761 -0.6434 -2.0865
  470MOL0     H62026   7.506   6.788   9.229  0.1687  0.4414  0.6528
  470MOL0     H62027   7.644   6.692   9.043 -2.2851  0.4194 -2.3431
  470MOL0     H62028   7.734   6.743   8.615 -0.3065 -0.7969  2.1453
  470MOL0     H62029   7.776   6.566   8.426  3.7408 -1.0170 -1.5010
  470MOL0     H62030   7.803   6.354   8.423  1.9005 -0.7552  2.0605
  470MOL0     H62031   7.941   6.259   8.478 -0.9744 -2.3878 -0.8895
  470MOL0     H62032   7.839   6.182   8.268  1.8732 -1.8573 -0.2654
  470MOL0     H62033   7.894   6.339   8.192  2.3801  1.2004  0.1768
  470MOL0     H62034   8.098   6.131   8.306 -0.3153 -0.0359 -0.1732
  470MOL0     H62035   8.127   6.283   8.228 -0.7747  0.3275  2.1341
  470MOL0     H62036   7.983   6.040   8.110 -1.6531  0.1437  0.1157
  470MOL0     H62037   8.004   6.200   8.026 -3.3771  0.3795  1.3762
  470MOL0     H62038   8.381   6.007   7.971  1.3725  2.1343  0.7629
  470MOL0     H62039   8.141   6.467   8.589 -1.0413 -2.4564 -0.3969
  470MOL0     H62040   8.103   6.607   8.790 -1.8319 -0.5955  0.7524
  471MOL0     O62041   3.366   3.030   6.813 -0.3192  0.3263  0.3449
  471MOL0     C62042   3.389   2.922   6.853  0.8821  0.4163 -0.4817
  471MOL0     O62043   3.500   2.840   6.830  0.2712  0.0791 -0.2658
  471MOL0     C62044   3.611   2.901   6.769 -0.0140  1.1980  0.2275
  471MOL0     C62045   3.616   2.921   6.638  0.5081 -0.2350 -0.0445
  471MOL0     C62046   3.724   2.990   6.582  0.4264 -1.2710  0.1009
  471MOL0     C62047   3.829   3.042   6.657  0.7475 -0.3891  0.2882
  471MOL0     O62048   3.935   3.112   6.604 -0.3860  1.1081  0.0906
  471MOL0     C62049   3.920   3.177   6.472 -0.2888 -0.0841  0.2496
  471MOL0     C62050   4.039   3.264   6.454  0.0511  0.3033  0.3653
  471MOL0     C62051   4.017   3.398   6.383 -0.3730 -0.8552  0.7227
  471MOL0     C62052   3.964   3.390   6.239 -0.0712  0.1304  0.2017
  471MOL0     C62053   3.925   3.532   6.178 -0.0366  0.2765 -0.1754
  471MOL0     C62054   4.042   3.628   6.185  0.2863  0.2714 -1.1967
  471MOL0     C62055   4.063   3.715   6.061 -0.6846  0.3637 -0.3437
  471MOL0     C62056   3.959   3.823   6.065  0.2958  0.5276  0.8701
  471MOL0     N62057   3.969   3.915   5.950 -0.0704 -0.9669  0.2108
  471MOL0     C62058   4.052   4.022   5.945 -0.6850 -0.4869  0.0731
  471MOL0     C62059   4.001   4.099   5.849  0.9971 -1.1191  0.2983
  471MOL0     C62060   4.076   4.221   5.789 -0.2469 -0.2102 -0.3280
  471MOL0     C62061   4.003   4.279   5.669 -0.4925 -0.2429 -0.0713
  471MOL0     C62062   4.063   4.417   5.631 -0.2439  0.1559 -0.7749
  471MOL0     C62063   3.984   4.519   5.535 -0.5595  0.9962  0.2348
  471MOL0     O62064   4.056   4.511   5.410  0.0838 -0.1638  0.4024
  471MOL0     C62065   4.000   4.575   5.299 -0.1630  0.7009  0.4361
  471MOL0     C62066   3.860   4.573   5.275 -0.3073 -0.3569 -1.1266
  471MOL0     C62067   3.815   4.616   5.150  0.3380 -0.6609  0.5712
  471MOL0     C62068   3.903   4.681   5.060  0.6128  0.5377  0.0252
  471MOL0     C62069   3.854   4.716   4.929  0.6979  0.2822  0.5803
  471MOL0     O62070   3.724   4.697   4.905  0.7452  0.0091 -0.0048
  471MOL0     C62071   3.675   4.688   4.776 -0.1000  0.1371  0.4300
  471MOL0     C62072   3.557   4.749   4.737  0.5191 -0.6292 -0.2817
  471MOL0     C62073   3.489   4.708   4.626 -0.1099  1.3278 -0.8577
  471MOL0     C62074   3.545   4.611   4.536  0.4042 -0.8282  0.2052
  471MOL0     O62075   3.460   4.577   4.427  0.5073 -0.2237 -0.7361
  471MOL0     C62076   3.526   4.551   4.297  0.3269 -0.1595 -1.1156
  471MOL0     C62077   3.411   4.511   4.204  0.8898 -0.1988  0.3659
  471MOL0     C62078   3.340   4.626   4.139 -0.4907 -0.0549  0.0111
  471MOL0     C62079   3.219   4.585   4.042 -0.2512  0.2795  0.0952
  471MOL0     C62080   3.256   4.601   3.899 -0.4856  0.4796  0.1517
  471MOL0     C62081   3.149   4.534   3.817  0.3081  0.0466 -0.1100
  471MOL0     C62082   3.183   4.545   3.667  0.5725  0.0351  0.0728
  471MOL0     C62083   3.070   4.500   3.580  0.3400  0.9049  0.7334
  471MOL0    Cl62084   3.028   4.331   3.583 -0.0002 -0.0163 -0.2597
  471MOL0     C62085   3.670   4.559   4.568  0.5639  1.0640  0.5362
  471MOL0     C62086   3.736   4.596   4.689 -0.0455 -0.2488  0.5524
  471MOL0     O62087   3.932   4.756   4.846 -0.6858 -1.3929  0.4867
  471MOL0     C62088   4.033   4.699   5.095 -0.0987  0.1115 -0.5411
  471MOL0     C62089   4.088   4.648   5.214  0.3838  0.1277  0.2245
  471MOL0     N62090   3.875   4.053   5.802 -0.4434  0.1892 -0.8677
  471MOL0     N62091   3.865   3.939   5.862  0.7357  0.7347 -0.6727
  471MOL0     C62092   3.830   3.020   6.796  1.3535 -0.5740  0.4564
  471MOL0     C62093   3.716   2.951   6.848  0.6393  0.1392 -0.3033
  471MOL0     C62094   3.293   2.856   6.944 -0.1195 -0.3161 -0.2198
  471MOL0     C62095   3.335   2.758   7.031  0.1845 -0.8335 -1.1853
  471MOL0     C62096   3.245   2.710   7.127  0.4244 -0.2488 -1.3699
  471MOL0     C62097   3.114   2.758   7.142  0.2833 -0.4201  0.1082
  471MOL0     O62098   3.053   2.709   7.248  0.1527 -0.2771 -0.7000
  471MOL0     C62099   2.913   2.740   7.275 -0.1557 -0.0070 -0.0546
  471MOL0     C62100   2.828   2.636   7.210 -0.0806 -1.1117 -0.2482
  471MOL0     C62101   2.827   2.516   7.292  0.1173  0.4110 -0.2387
  471MOL0     C62102   2.740   2.399   7.227 -0.1310 -0.2289 -0.1281
  471MOL0     C62103   2.806   2.337   7.105  0.9778  0.2867  0.3136
  471MOL0     C62104   2.865   2.267   7.022  0.2262 -0.6944  0.6108
  471MOL0     C62105   3.071   2.855   7.044 -1.0767 -0.3081  0.5300
  471MOL0     C62106   3.159   2.900   6.948  0.1357  0.5242  0.4569
  471MOL0     H62107   3.542   2.875   6.574 -1.8390  1.4037  1.3656
  471MOL0     H62108   3.715   3.005   6.474 -0.6558  0.6071  0.4014
  471MOL0     H62109   3.829   3.238   6.468  1.1016  2.2179  1.9736
  471MOL0     H62110   3.914   3.101   6.393  4.4553  0.6377 -1.0928
  471MOL0     H62111   4.112   3.197   6.407 -0.9635 -2.4775  2.4652
  471MOL0     H62112   4.074   3.296   6.553 -2.8270  2.9833  0.6543
  471MOL0     H62113   4.115   3.448   6.380  0.2930 -2.1395 -0.3586
  471MOL0     H62114   3.958   3.455   6.455  2.9058 -0.2517  3.1622
  471MOL0     H62115   4.039   3.343   6.174 -0.7680  1.4270 -1.6458
  471MOL0     H62116   3.873   3.330   6.243  0.3027 -0.3826  1.0647
  471MOL0     H62117   3.837   3.558   6.239  0.0579 -3.3550  1.8528
  471MOL0     H62118   3.903   3.530   6.071  1.0266  0.1068 -0.3945
  471MOL0     H62119   4.135   3.573   6.197 -0.4156 -0.3302  3.3479
  471MOL0     H62120   4.029   3.695   6.271  3.2382  2.3444 -2.2388
  471MOL0     H62121   4.153   3.776   6.049 -0.2317 -0.7152 -3.2219
  471MOL0     H62122   4.065   3.650   5.974  1.9034  2.2281 -1.8093
  471MOL0     H62123   3.965   3.865   6.166 -1.0815  0.4495  0.9989
  471MOL0     H62124   3.857   3.784   6.060  0.2182  0.3700  2.8804
  471MOL0     H62125   4.142   4.052   5.999 -0.3874 -1.9790  0.4632
  471MOL0     H62126   4.170   4.181   5.752 -0.8340 -1.1328 -0.8825
  471MOL0     H62127   4.106   4.297   5.862  0.4325 -0.6093 -0.1862
  471MOL0     H62128   3.896   4.286   5.691 -1.4441 -3.0098 -3.0377
  471MOL0     H62129   3.999   4.210   5.584  1.7390 -0.1451 -0.2997
  471MOL0     H62130   4.083   4.453   5.732  1.5484 -2.4308 -0.1124
  471MOL0     H62131   4.159   4.405   5.581  0.1054  0.6818 -0.2387
  471MOL0     H62132   3.982   4.622   5.573 -1.2068  0.9157  0.4414
  471MOL0     H62133   3.886   4.470   5.540  1.5172 -3.7744 -0.8149
  471MOL0     H62134   3.783   4.541   5.344 -0.1362  2.4890  0.5478
  471MOL0     H62135   3.707   4.627   5.139 -0.1285 -0.1810  4.4403
  471MOL0     H62136   3.525   4.817   4.815  3.1649  0.6731 -0.2252
  471MOL0     H62137   3.384   4.736   4.621 -0.5907  0.2892  1.5973
  471MOL0     H62138   3.589   4.462   4.302  0.6378  0.0809 -0.6934
  471MOL0     H62139   3.584   4.640   4.270  0.5163 -0.5262 -1.9575
  471MOL0     H62140   3.340   4.451   4.262  0.3031  0.6152  0.5038
  471MOL0     H62141   3.447   4.443   4.126  1.9917  0.6681  0.0763
  471MOL0     H62142   3.413   4.688   4.086 -1.1768  0.5859 -0.2014
  471MOL0     H62143   3.301   4.685   4.223 -5.7262 -2.6201 -0.2385
  471MOL0     H62144   3.197   4.481   4.069  1.4336 -0.0126  0.4503
  471MOL0     H62145   3.129   4.642   4.069  0.2821  0.8467  0.7054
  471MOL0     H62146   3.348   4.546   3.877 -1.6310 -1.9246  0.9874
  471MOL0     H62147   3.266   4.708   3.880 -1.5326  0.7001  0.7344
  471MOL0     H62148   3.053   4.583   3.835  1.0514  2.1603 -1.5619
  471MOL0     H62149   3.150   4.431   3.853 -2.1867  0.0697  0.1533
  471MOL0     H62150   3.197   4.649   3.633  4.0340  0.9256  3.5254
  471MOL0     H62151   3.274   4.489   3.644  1.0999  1.8117 -2.6177
  471MOL0     H62152   3.085   4.514   3.472  0.8888 -0.4169  0.6211
  471MOL0     H62153   2.984   4.552   3.623 -2.5692 -0.8255 -2.5283
  471MOL0     H62154   3.705   4.488   4.494 -0.9703  0.6827  0.1504
  471MOL0     H62155   3.822   4.540   4.723  0.2676  0.5020  1.0330
  471MOL0     H62156   4.100   4.759   5.034  1.3453 -0.5584  0.3298
  471MOL0     H62157   4.190   4.657   5.251  1.5281 -0.8075 -2.4479
  471MOL0     H62158   3.919   3.031   6.857  0.6855  2.0278  1.0938
  471MOL0     H62159   3.721   2.917   6.951  1.3157  1.3788  0.0831
  471MOL0     H62160   3.433   2.712   7.030  0.5623 -0.0783 -0.1795
  471MOL0     H62161   3.278   2.632   7.194 -1.4724 -0.1650 -0.2658
  471MOL0     H62162   2.887   2.846   7.265 -1.1928  0.1619  3.3078
  471MOL0     H62163   2.904   2.732   7.383 -1.2675 -2.2020 -0.2522
  471MOL0     H62164   2.729   2.682   7.206  1.4434  2.3714 -2.3331
  471MOL0     H62165   2.863   2.620   7.107  0.8032  1.9413 -0.5132
  471MOL0     H62166   2.790   2.530   7.394 -4.2701  1.7510 -1.7898
  471MOL0     H62167   2.929   2.478   7.302 -0.0880  0.1411  1.0683
  471MOL0     H62168   2.732   2.324   7.307  1.0039  0.2159  0.4272
  471MOL0     H62169   2.640   2.431   7.198 -1.1273 -0.1040  3.0722
  471MOL0     H62170   2.915   2.201   6.954  0.4716 -0.7394  0.8307
  471MOL0     H62171   2.966   2.884   7.050 -0.6587  2.5621 -2.8148
  471MOL0     H62172   3.127   2.975   6.876  3.2092 -0.7842 -2.5662
  472MOL0     O62173   8.079   4.342   6.397  1.2986 -0.0289 -0.2697
  472MOL0     C62174   8.054   4.361   6.515 -0.6774 -0.4290  0.1825
  472MOL0     O62175   7.988   4.273   6.592  0.5497  0.0617 -0.2194
  472MOL0     C62176   7.949   4.139   6.552  1.3963  0.0108  0.0830
  472MOL0     C62177   7.908   4.061   6.658 -1.1995  0.1453  0.1226
  472MOL0     C62178   7.873   3.934   6.640 -0.3893 -0.1623 -0.3190
  472MOL0     C62179   7.880   3.873   6.516  0.4697  1.0145  0.7912
  472MOL0     O62180   7.873   3.743   6.487  0.1591 -0.1745  0.3158
  472MOL0     C62181   7.750   3.683   6.456 -0.1180 -0.0629  0.0876
  472MOL0     C62182   7.701   3.563   6.547 -0.8648  0.4146 -0.5080
  472MOL0     C62183   7.578   3.487   6.495  0.1658  0.0525  0.5805
  472MOL0     C62184   7.544   3.365   6.587 -0.5603  0.8561  0.8697
  472MOL0     C62185   7.414   3.302   6.537  0.2648 -0.2585  0.5556
  472MOL0     C62186   7.407   3.166   6.625 -0.2972  0.2592 -0.0619
  472MOL0     C62187   7.308   3.067   6.571  0.5384  0.1208 -0.4176
  472MOL0     C62188   7.315   2.921   6.632  0.0927  0.8310  0.0415
  472MOL0     N62189   7.195   2.835   6.633  1.3130 -0.9307 -0.3819
  472MOL0     C62190   7.136   2.784   6.738 -0.5920 -1.0138 -0.3737
  472MOL0     C62191   7.041   2.695   6.689 -0.5486 -0.7682 -0.0248
  472MOL0     C62192   6.956   2.607   6.768 -0.8879  0.3846 -0.3817
  472MOL0     C62193   6.831   2.666   6.816 -0.4403 -0.6863  0.0932
  472MOL0     C62194   6.778   2.556   6.910 -1.3350 -0.4808 -0.1972
  472MOL0     C62195   6.695   2.436   6.844 -0.1515 -0.3442  0.3097
  472MOL0     O62196   6.596   2.491   6.753  0.4991 -0.4028 -0.1403
  472MOL0     C62197   6.465   2.444   6.758 -0.4672 -0.0261  0.6541
  472MOL0     C62198   6.437   2.306   6.771 -0.6575  0.3518 -0.0038
  472MOL0     C62199   6.310   2.263   6.772  0.1626 -0.1069 -0.4498
  472MOL0     C62200   6.201   2.357   6.768 -0.2865 -0.0696  0.0156
  472MOL0     C62201   6.065   2.311   6.796  0.6820  0.4392 -0.4205
  472MOL0     O62202   6.042   2.179   6.838 -0.7824 -0.6297 -0.5568
  472MOL0     C62203   5.903   2.152   6.847 -0.2671  0.1039 -0.7343
  472MOL0     C62204   5.852   2.110   6.977 -0.0305  0.0867 -0.1222
  472MOL0     C62205   5.720   2.069   6.992 -0.4848  0.4484 -0.0043
  472MOL0     C62206   5.623   2.083   6.885  0.6505  0.6865  1.0052
  472MOL0     O62207   5.493   2.041   6.904  0.1543 -0.2754 -0.7933
  472MOL0     C62208   5.438   1.934   6.825  0.2412  0.6092  0.8842
  472MOL0     C62209   5.522   1.802   6.843  0.3045 -1.1774 -0.3987
  472MOL0     C62210   5.511   1.750   6.989  0.2705  0.5196 -0.3747
  472MOL0     C62211   5.634   1.657   7.030  0.7712  0.3077 -0.6444
  472MOL0     C62212   5.606   1.563   7.147  0.5864 -0.4764 -0.2064
  472MOL0     C62213   5.733   1.484   7.190 -0.0251 -0.5372  0.1489
  472MOL0     C62214   5.749   1.356   7.127  0.0061  0.5483  0.1008
  472MOL0     C62215   5.878   1.270   7.169 -0.4642  0.7892 -0.2303
  472MOL0    Cl62216   5.907   1.100   7.093 -0.2714  0.2205  0.1914
  472MOL0     C62217   5.668   2.142   6.764 -1.8778 -0.4465  0.9529
  472MOL0     C62218   5.810   2.171   6.744  0.9273 -0.8929 -0.3552
  472MOL0     O62219   5.977   2.399   6.793  0.2656  0.1459  0.1065
  472MOL0     C62220   6.231   2.487   6.741  0.2122  0.2867 -0.0474
  472MOL0     C62221   6.358   2.531   6.741 -0.9791 -0.0001  0.4153
  472MOL0     N62222   7.053   2.690   6.554 -0.4025  0.2574  0.1092
  472MOL0     N62223   7.153   2.770   6.524 -0.4831  0.5851 -0.0288
  472MOL0     C62224   7.896   3.956   6.408  0.7953 -0.4260  0.8793
  472MOL0     C62225   7.934   4.092   6.418  0.2783  0.0613  0.0239
  472MOL0     C62226   8.103   4.485   6.576 -0.0260 -0.2604 -0.0161
  472MOL0     C62227   8.168   4.589   6.505  0.0434 -0.0245 -0.4885
  472MOL0     C62228   8.193   4.717   6.553  0.0001 -0.5458 -0.1944
  472MOL0     C62229   8.174   4.729   6.694  1.5095 -0.1110 -1.2353
  472MOL0     O62230   8.211   4.832   6.767  0.9555 -0.4607 -0.3482
  472MOL0     C62231   8.340   4.895   6.728  0.5713 -0.7273  0.5816
  472MOL0     C62232   8.364   5.012   6.832 -0.5198  0.6507 -0.4927
  472MOL0     C62233   8.391   4.946   6.971  0.7528  0.3949  0.5713
  472MOL0     C62234   8.426   5.036   7.085 -0.0930 -0.1013 -0.9276
  472MOL0     C62235   8.538   5.124   7.060 -0.0880 -0.5661  0.0659
  472MOL0     C62236   8.631   5.203   7.064  1.2389 -0.4273  1.0914
  472MOL0     C62237   8.096   4.639   6.762 -0.1623  1.0931 -0.2265
  472MOL0     C62238   8.075   4.513   6.708  0.3516 -0.0864  1.1771
  472MOL0     H62239   7.920   4.111   6.753 -0.7309  1.0084 -0.3759
  472MOL0     H62240   7.870   3.862   6.721 -0.7396 -1.1205 -1.1596
  472MOL0     H62241   7.772   3.648   6.355  1.8681  1.8262 -0.2137
  472MOL0     H62242   7.670   3.757   6.440 -0.8685 -1.0080 -0.6146
  472MOL0     H62243   7.678   3.595   6.649  1.3292 -0.6302  0.3863
  472MOL0     H62244   7.780   3.488   6.556 -3.2901 -2.0885  1.8755
  472MOL0     H62245   7.597   3.466   6.390  2.0788 -2.9891  1.3982
  472MOL0     H62246   7.498   3.561   6.500 -1.3420 -1.3471 -1.3020
  472MOL0     H62247   7.634   3.303   6.589  0.6249  2.5273  1.9648
  472MOL0     H62248   7.533   3.407   6.687 -1.7330 -0.1008  1.1613
  472MOL0     H62249   7.418   3.284   6.429 -2.2805  0.0396  0.3558
  472MOL0     H62250   7.325   3.362   6.558 -0.3195 -1.0757  0.4664
  472MOL0     H62251   7.397   3.186   6.732 -0.3234 -4.1293  0.9255
  472MOL0     H62252   7.507   3.122   6.621 -0.9955 -1.5544  1.1291
  472MOL0     H62253   7.208   3.108   6.586  1.1270  1.3992  0.1583
  472MOL0     H62254   7.334   3.048   6.466 -3.9021  1.6164 -2.0294
  472MOL0     H62255   7.353   2.935   6.734 -1.0780 -1.4383  0.8654
  472MOL0     H62256   7.396   2.866   6.583 -1.4005  1.7307 -3.8273
  472MOL0     H62257   7.149   2.806   6.844 -2.7719  1.9953 -0.5912
  472MOL0     H62258   7.012   2.581   6.858 -0.8592  3.4931  0.5963
  472MOL0     H62259   6.921   2.522   6.709  0.3535 -2.0049  2.0846
  472MOL0     H62260   6.759   2.681   6.735  0.0096  1.8588  0.0974
  472MOL0     H62261   6.863   2.757   6.867  4.6015 -1.1736 -1.6235
  472MOL0     H62262   6.853   2.505   6.971 -1.0932  0.4814  0.3402
  472MOL0     H62263   6.705   2.600   6.978 -1.9175 -1.0888 -0.4218
  472MOL0     H62264   6.666   2.362   6.919  1.2094 -2.5574 -1.2122
  472MOL0     H62265   6.766   2.384   6.779 -2.3402 -0.6695 -1.9914
  472MOL0     H62266   6.516   2.231   6.773 -0.1056  0.8990 -0.6682
  472MOL0     H62267   6.288   2.156   6.774  0.5407 -0.1766  0.4646
  472MOL0     H62268   5.926   2.107   7.056  0.2284 -0.0601 -0.3705
  472MOL0     H62269   5.683   2.024   7.084 -0.7468 -0.3004 -0.4606
  472MOL0     H62270   5.438   1.968   6.721  4.5946  0.3570  0.6409
  472MOL0     H62271   5.336   1.904   6.854  0.9542 -0.5307  2.3503
  472MOL0     H62272   5.626   1.830   6.826 -0.5670  3.7426  0.8072
  472MOL0     H62273   5.509   1.714   6.779  0.6684 -1.1275 -0.5465
  472MOL0     H62274   5.415   1.698   6.991 -0.4105  1.6633 -1.6128
  472MOL0     H62275   5.517   1.823   7.070  1.2366 -0.4690  0.4764
  472MOL0     H62276   5.659   1.600   6.940 -1.4228 -0.4424 -0.8523
  472MOL0     H62277   5.717   1.728   7.039 -2.0032  5.3735 -6.9955
  472MOL0     H62278   5.524   1.494   7.128  0.1611  0.7818 -3.6524
  472MOL0     H62279   5.592   1.624   7.236 -1.2866  2.3528 -2.2772
  472MOL0     H62280   5.731   1.483   7.300  0.4354 -3.1313  0.1969
  472MOL0     H62281   5.824   1.543   7.176 -1.4825  2.4765  2.2017
  472MOL0     H62282   5.661   1.293   7.144  1.3955 -1.1412  1.3061
  472MOL0     H62283   5.757   1.362   7.018  3.2154 -4.3048 -0.1983
  472MOL0     H62284   5.885   1.258   7.277  0.3239 -1.8330 -0.5103
  472MOL0     H62285   5.967   1.328   7.140 -0.8999  0.6865 -1.9044
  472MOL0     H62286   5.601   2.158   6.680 -0.2411  0.3701 -0.2531
  472MOL0     H62287   5.854   2.211   6.653  0.9833 -1.9040 -0.7908
  472MOL0     H62288   6.146   2.554   6.741  0.3079  0.5337  2.7545
  472MOL0     H62289   6.371   2.636   6.714 -3.1379  1.3576  3.9427
  472MOL0     H62290   7.896   3.910   6.309  2.0480 -0.9859  1.1179
  472MOL0     H62291   7.964   4.144   6.328 -0.1086  1.5417  0.7188
  472MOL0     H62292   8.197   4.579   6.401  0.7835  1.0291 -0.4042
  472MOL0     H62293   8.246   4.795   6.499 -1.3710 -0.4050 -1.3667
  472MOL0     H62294   8.329   4.938   6.628  0.7301 -1.8770  0.0610
  472MOL0     H62295   8.410   4.811   6.732  0.2282 -0.9906  1.2534
  472MOL0     H62296   8.453   5.072   6.812  0.1166  1.0137  2.8999
  472MOL0     H62297   8.276   5.077   6.825  0.0226  1.3064 -1.3626
  472MOL0     H62298   8.466   4.870   6.948 -1.2439 -1.1778 -1.2164
  472MOL0     H62299   8.304   4.886   6.999  0.2380 -1.2941 -3.8602
  472MOL0     H62300   8.346   5.103   7.116  1.2733  1.5685 -0.8465
  472MOL0     H62301   8.428   4.978   7.177 -2.8989  0.2158 -0.5950
  472MOL0     H62302   8.711   5.275   7.060  1.1169 -0.3252  0.2553
  472MOL0     H62303   8.052   4.658   6.860  1.1918  1.0531  0.4081
  472MOL0     H62304   8.021   4.441   6.770 -2.5190  0.1230 -0.9053
  473MOL0     O62305   0.387   5.787   2.566 -0.3936 -0.1463  0.4414
  473MOL0     C62306   0.278   5.794   2.626  0.3323  0.3910  0.1799
  473MOL0     O62307   0.224   5.910   2.684 -0.1926 -0.4051  0.2398
  473MOL0     C62308   0.278   6.031   2.648 -0.3728  0.0045 -0.4945
  473MOL0     C62309   0.248   6.092   2.531  0.0946 -0.0476 -0.9196
  473MOL0     C62310   0.300   6.222   2.489  0.7881  0.1888 -0.8730
  473MOL0     C62311   0.389   6.292   2.570 -0.1228  0.6314 -0.0171
  473MOL0     O62312   0.437   6.411   2.521 -0.3759 -0.0381  0.3083
  473MOL0     C62313   0.561   6.465   2.576  1.0862 -0.2166 -0.1791
  473MOL0     C62314   0.595   6.605   2.525 -0.6464  0.0578 -0.2173
  473MOL0     C62315   0.703   6.599   2.420 -0.2588 -0.8234  0.3379
  473MOL0     C62316   0.730   6.737   2.360  0.1973 -1.4711 -0.0856
  473MOL0     C62317   0.799   6.744   2.228 -0.0259 -0.4481  0.7832
  473MOL0     C62318   0.948   6.762   2.246  0.9710  0.0779  0.6959
  473MOL0     C62319   1.017   6.859   2.154 -0.5983 -0.1603  0.2774
  473MOL0     C62320   1.149   6.796   2.091 -0.5214  0.5897 -0.4570
  473MOL0     N62321   1.198   6.882   1.993 -0.3130 -0.3051 -0.5938
  473MOL0     C62322   1.229   6.853   1.864 -0.4057  0.3334  0.9169
  473MOL0     C62323   1.283   6.955   1.808 -0.0636  0.0238 -0.4446
  473MOL0     C62324   1.322   6.972   1.667 -0.0920  0.0131  0.4410
  473MOL0     C62325   1.228   7.066   1.596 -0.7690 -0.2167  0.7641
  473MOL0     C62326   1.264   7.092   1.444 -0.2772 -0.0373 -0.6277
  473MOL0     C62327   1.221   6.970   1.357  0.8034  0.8694 -0.2203
  473MOL0     O62328   1.299   6.851   1.379  0.8385 -0.5615  0.0240
  473MOL0     C62329   1.290   6.739   1.298 -0.3952 -0.6132  0.8898
  473MOL0     C62330   1.205   6.731   1.180 -0.3973  0.0339  0.1435
  473MOL0     C62331   1.193   6.600   1.121  0.6163  0.0816 -0.3045
  473MOL0     C62332   1.269   6.495   1.162 -0.0469  0.7101 -0.3219
  473MOL0     C62333   1.270   6.364   1.090 -0.8726 -0.3078  0.2860
  473MOL0     O62334   1.344   6.257   1.131  0.6306 -0.3901  0.5219
  473MOL0     C62335   1.381   6.177   1.028  0.2627  0.4018 -0.8839
  473MOL0     C62336   1.431   6.221   0.896  0.2745 -0.7944 -0.3711
  473MOL0     C62337   1.477   6.125   0.804  0.0200  0.9400 -0.2887
  473MOL0     C62338   1.477   5.991   0.839  0.0720  0.3453  0.0190
  473MOL0     O62339   1.531   5.893   0.770 -0.7419  0.1794  0.1206
  473MOL0     C62340   1.528   5.909   0.622 -0.0091  0.0447  0.6555
  473MOL0     C62341   1.590   5.784   0.552 -0.1543 -0.2782 -0.4668
  473MOL0     C62342   1.736   5.789   0.547 -0.3673  0.5219  0.7828
  473MOL0     C62343   1.783   5.663   0.482  0.2124 -1.1081  0.0422
  473MOL0     C62344   1.936   5.675   0.468  0.5287 -0.1591 -0.2834
  473MOL0     C62345   1.994   5.555   0.393  0.6742 -1.1056  0.2565
  473MOL0     C62346   1.936   5.518   0.258  0.7370 -0.5127 -0.0945
  473MOL0     C62347   2.014   5.402   0.201  0.0318  0.0644  0.5176
  473MOL0    Cl62348   1.972   5.364   0.028  0.2831 -0.1872  0.4494
  473MOL0     C62349   1.430   5.951   0.969 -0.3726  1.4084 -0.5961
  473MOL0     C62350   1.390   6.042   1.057 -1.1865  0.5408 -1.0440
  473MOL0     O62351   1.183   6.358   1.006  0.1967 -0.7249 -0.4309
  473MOL0     C62352   1.377   6.521   1.252  0.2292 -0.0008  0.4416
  473MOL0     C62353   1.379   6.634   1.325 -0.3512 -0.7974 -0.4176
  473MOL0     N62354   1.290   7.057   1.904  0.1266  0.2984  0.6340
  473MOL0     N62355   1.240   7.006   2.012  0.8715 -1.2001  0.0736
  473MOL0     C62356   0.427   6.227   2.686  0.6503  0.0214  0.6028
  473MOL0     C62357   0.371   6.103   2.728 -0.0840  0.2336  0.5047
  473MOL0     C62358   0.215   5.664   2.655  0.2509  0.1959  0.1954
  473MOL0     C62359   0.219   5.568   2.565  0.1754  0.0282  0.1281
  473MOL0     C62360   0.164   5.437   2.581  0.5667 -1.1839  0.0101
  473MOL0     C62361   0.087   5.419   2.694  0.4610  1.4922 -0.0609
  473MOL0     O62362   0.026   5.296   2.735 -0.1541 -0.6622 -0.2827
  473MOL0     C62363  -0.035   5.212   2.639  0.1342 -0.0286 -0.7903
  473MOL0     C62364  -0.168   5.267   2.598  0.6394  0.6141 -0.1214
  473MOL0     C62365  -0.267   5.157   2.627 -0.4564  0.3056 -1.3057
  473MOL0     C62366  -0.291   5.064   2.514  0.3424  0.5233  0.6101
  473MOL0     C62367  -0.395   4.968   2.564 -1.1309 -0.5097  0.8523
  473MOL0     C62368  -0.484   4.897   2.589  0.3469 -0.1510  0.8542
  473MOL0     C62369   0.067   5.528   2.782 -0.3511  0.6441  0.3011
  473MOL0     C62370   0.142   5.651   2.773 -0.4119 -0.4280  0.7640
  473MOL0     H62371   0.167   6.048   2.474 -0.5404  1.8462 -1.5600
  473MOL0     H62372   0.272   6.268   2.395  2.4891  1.1304 -0.9667
  473MOL0     H62373   0.643   6.393   2.571 -0.9690 -2.7491  0.4117
  473MOL0     H62374   0.531   6.477   2.680 -0.6807 -1.7937 -0.4470
  473MOL0     H62375   0.628   6.672   2.605  1.2692 -1.4808  0.3880
  473MOL0     H62376   0.508   6.648   2.475 -1.3904 -2.3345 -1.1340
  473MOL0     H62377   0.666   6.534   2.340 -0.6913  0.9103 -0.9316
  473MOL0     H62378   0.798   6.554   2.451  2.1630  2.9812 -0.8873
  473MOL0     H62379   0.636   6.792   2.346  0.4285 -0.8152  0.8704
  473MOL0     H62380   0.780   6.784   2.445 -1.6250 -2.2727  1.5015
  473MOL0     H62381   0.760   6.831   2.175  0.6333 -0.5696  0.0668
  473MOL0     H62382   0.773   6.666   2.156 -0.9997  0.2961  0.2962
  473MOL0     H62383   0.980   6.659   2.227  1.1518  0.0575  1.1128
  473MOL0     H62384   0.964   6.796   2.348  0.5651  1.0043  0.4606
  473MOL0     H62385   0.949   6.875   2.069 -0.8477  1.0372  0.6809
  473MOL0     H62386   1.046   6.959   2.187  1.4557 -1.0220  1.2291
  473MOL0     H62387   1.114   6.700   2.052 -0.0175  0.7665 -1.3637
  473MOL0     H62388   1.237   6.784   2.154 -0.8626  3.1609  0.6368
  473MOL0     H62389   1.210   6.762   1.809  1.3631 -1.1547  2.6206
  473MOL0     H62390   1.342   6.876   1.618  2.9653  2.1428 -3.0783
  473MOL0     H62391   1.416   7.028   1.668 -0.6084  0.9647 -0.7704
  473MOL0     H62392   1.234   7.163   1.644 -2.2643 -0.0738  0.7116
  473MOL0     H62393   1.126   7.027   1.595 -1.4762  1.5606 -0.4778
  473MOL0     H62394   1.216   7.187   1.420  1.7442  2.3783  3.7097
  473MOL0     H62395   1.371   7.102   1.424 -0.3667  0.5204 -0.8524
  473MOL0     H62396   1.232   6.996   1.252  1.3132 -1.4205 -0.7853
  473MOL0     H62397   1.113   6.950   1.364  0.7692  1.3982  1.0949
  473MOL0     H62398   1.141   6.814   1.152 -0.7801  0.3870  1.9636
  473MOL0     H62399   1.120   6.586   1.042  1.4493 -2.2031 -0.7607
  473MOL0     H62400   1.425   6.324   0.862 -1.9219 -0.2876  1.3410
  473MOL0     H62401   1.519   6.162   0.711 -0.0679 -0.7881 -1.0466
  473MOL0     H62402   1.598   5.992   0.602  1.6767 -1.2335  1.0295
  473MOL0     H62403   1.429   5.941   0.588  2.1120  3.4210 -3.3346
  473MOL0     H62404   1.544   5.769   0.454  1.2360 -1.3603 -0.9903
  473MOL0     H62405   1.574   5.695   0.613  0.2944 -1.0086 -1.3883
  473MOL0     H62406   1.783   5.805   0.644  0.2982 -0.2364  0.6025
  473MOL0     H62407   1.777   5.869   0.485 -1.9687  0.9867  0.2768
  473MOL0     H62408   1.747   5.585   0.550  1.8880 -1.1515  0.9249
  473MOL0     H62409   1.740   5.671   0.381  1.9110 -0.2202 -0.6522
  473MOL0     H62410   1.974   5.681   0.571 -1.2979 -1.2032  0.4969
  473MOL0     H62411   1.972   5.763   0.414 -0.7427  1.0664  0.7985
  473MOL0     H62412   1.979   5.473   0.464 -0.7448  0.9900  2.5391
  473MOL0     H62413   2.099   5.575   0.372  0.3080 -0.2898 -0.8732
  473MOL0     H62414   1.836   5.478   0.274  1.2788 -1.9997 -0.3241
  473MOL0     H62415   1.932   5.604   0.190 -2.2142  0.4507  1.1427
  473MOL0     H62416   2.010   5.309   0.259  2.3504  1.1474  2.6215
  473MOL0     H62417   2.122   5.415   0.208  0.5417 -2.3393 -1.3636
  473MOL0     H62418   1.429   5.848   1.003  2.1181  1.6201  0.2812
  473MOL0     H62419   1.362   6.008   1.156 -1.3617  2.3656 -0.4338
  473MOL0     H62420   1.450   6.445   1.276 -1.4862 -1.5980  0.8406
  473MOL0     H62421   1.459   6.648   1.397 -0.1476  1.0624 -0.9595
  473MOL0     H62422   0.514   6.261   2.742 -0.4846 -1.7841  3.7457
  473MOL0     H62423   0.414   6.056   2.816 -3.8068 -1.3124  1.6765
  473MOL0     H62424   0.281   5.589   2.478 -0.2524 -0.0374 -0.1941
  473MOL0     H62425   0.185   5.358   2.510  1.8210 -2.2538  1.5069
  473MOL0     H62426  -0.035   5.106   2.665 -0.1855  0.0528 -0.4599
  473MOL0     H62427   0.025   5.217   2.547 -0.9444  6.5349 -1.6161
  473MOL0     H62428  -0.190   5.349   2.667  1.1995 -1.0082  2.1160
  473MOL0     H62429  -0.165   5.305   2.496 -0.9520  4.2338  1.0233
  473MOL0     H62430  -0.360   5.210   2.647 -0.2703  0.0357  0.5116
  473MOL0     H62431  -0.234   5.093   2.710 -0.1848 -1.1621 -2.5050
  473MOL0     H62432  -0.330   5.120   2.429 -2.7203 -0.2846  1.3530
  473MOL0     H62433  -0.203   5.018   2.469 -0.9640  1.9518 -3.8844
  473MOL0     H62434  -0.558   4.819   2.597  0.1702  0.0977  1.6883
  473MOL0     H62435   0.014   5.496   2.871  1.2681 -0.3022  0.9821
  473MOL0     H62436   0.131   5.742   2.832 -0.4350  2.6140 -3.4288
  474MOL0     O62437   0.931   0.557   5.542 -0.7030  0.7143  0.4052
  474MOL0     C62438   0.920   0.597   5.661 -1.1258 -0.5855  0.4630
  474MOL0     O62439   0.950   0.531   5.772  0.4769  0.7504 -0.0236
  474MOL0     C62440   0.988   0.403   5.765 -0.7993  0.6245 -0.5414
  474MOL0     C62441   1.089   0.362   5.686 -0.1825  0.2265  0.2165
  474MOL0     C62442   1.130   0.227   5.680  0.0312  0.4624 -0.1458
  474MOL0     C62443   1.072   0.129   5.759 -0.3065 -0.1086 -0.2318
  474MOL0     O62444   1.108  -0.002   5.770 -0.4418  0.2047 -0.0408
  474MOL0     C62445   1.213  -0.053   5.683  0.1113  0.0581  0.6386
  474MOL0     C62446   1.346  -0.028   5.748  0.6632  0.1982  0.0564
  474MOL0     C62447   1.364  -0.110   5.878 -0.2733  0.4545 -0.2615
  474MOL0     C62448   1.397  -0.260   5.853 -0.7130  0.7537 -0.0570
  474MOL0     C62449   1.492  -0.323   5.956  0.0326 -0.8921 -0.5243
  474MOL0     C62450   1.445  -0.328   6.104 -0.8691  0.2749 -0.8186
  474MOL0     C62451   1.550  -0.389   6.201  0.2541 -0.3195  0.3187
  474MOL0     C62452   1.506  -0.393   6.345 -1.2415 -0.8237 -0.8585
  474MOL0     N62453   1.508  -0.254   6.412  0.0032  0.0772 -0.2501
  474MOL0     C62454   1.393  -0.178   6.437 -0.5404  1.0329 -1.1874
  474MOL0     C62455   1.431  -0.047   6.432 -1.0055 -0.0158 -0.0738
  474MOL0     C62456   1.337   0.067   6.460  0.4713  0.2367  0.9261
  474MOL0     C62457   1.400   0.179   6.546 -0.5522  0.7964  0.8494
  474MOL0     C62458   1.322   0.309   6.544 -0.4772 -0.1261 -0.1090
  474MOL0     C62459   1.391   0.401   6.649  0.3199  0.0843  0.1127
  474MOL0     O62460   1.374   0.351   6.778 -0.2543 -0.1573 -0.3939
  474MOL0     C62461   1.414   0.422   6.887  0.0578 -0.6056 -0.2829
  474MOL0     C62462   1.438   0.561   6.881 -0.5910 -0.0619 -0.0847
  474MOL0     C62463   1.481   0.630   6.993  0.1045 -0.0556 -0.0669
  474MOL0     C62464   1.478   0.558   7.114 -0.7871 -0.8394 -0.0127
  474MOL0     C62465   1.519   0.635   7.242 -0.1506 -0.1146  0.5191
  474MOL0     O62466   1.488   0.576   7.368 -0.4190 -0.5016 -0.0882
  474MOL0     C62467   1.577   0.617   7.466  0.5039  0.0766  0.6447
  474MOL0     C62468   1.526   0.674   7.586 -0.0609  0.1463 -0.0897
  474MOL0     C62469   1.602   0.691   7.707  0.7402 -0.1660  0.2692
  474MOL0     C62470   1.738   0.655   7.700  0.5245 -0.6609  0.0818
  474MOL0     O62471   1.808   0.675   7.822  0.5164  0.1449  0.3897
  474MOL0     C62472   1.906   0.591   7.875 -0.6792 -0.0079  0.3663
  474MOL0     C62473   1.860   0.557   8.016 -0.2525  0.7187 -0.4915
  474MOL0     C62474   1.976   0.509   8.107 -0.4881 -0.3554 -1.0659
  474MOL0     C62475   2.022   0.360   8.085 -0.7576 -0.5368 -0.1268
  474MOL0     C62476   2.113   0.299   8.192 -0.1900  0.7448 -0.0303
  474MOL0     C62477   2.133   0.144   8.160  1.3085  0.7191 -0.0095
  474MOL0     C62478   2.262   0.091   8.208 -0.0297  0.1060 -0.6628
  474MOL0     C62479   2.300   0.136   8.353 -0.0645 -0.3935  0.0714
  474MOL0    Cl62480   2.172   0.113   8.485 -0.2141 -0.4224  0.1123
  474MOL0     C62481   1.793   0.600   7.589  1.2105  0.7196 -0.0929
  474MOL0     C62482   1.714   0.584   7.469 -1.0566 -0.8549 -0.0397
  474MOL0     O62483   1.569   0.748   7.229 -0.0981  0.4024 -0.6046
  474MOL0     C62484   1.442   0.420   7.125 -0.5572 -0.0642 -0.3368
  474MOL0     C62485   1.409   0.354   7.007  0.5902 -0.2880 -0.4018
  474MOL0     N62486   1.563  -0.035   6.385 -0.0415 -0.5752  0.1219
  474MOL0     N62487   1.609  -0.161   6.392 -0.1671 -0.7359  0.2904
  474MOL0     C62488   0.982   0.167   5.847 -0.0769 -0.5581 -0.2487
  474MOL0     C62489   0.932   0.299   5.854  0.2977  1.1782  0.6570
  474MOL0     C62490   0.886   0.744   5.675 -0.5890 -0.2820 -0.7524
  474MOL0     C62491   0.826   0.822   5.575  1.2260 -0.2747 -0.9183
  474MOL0     C62492   0.776   0.951   5.600 -0.1870  0.5831  0.1983
  474MOL0     C62493   0.792   1.014   5.714 -0.4815 -0.1438  0.1953
  474MOL0     O62494   0.734   1.137   5.714 -0.3511  0.9694 -0.3941
  474MOL0     C62495   0.758   1.219   5.836  0.9442 -0.3473 -0.3643
  474MOL0     C62496   0.687   1.351   5.812 -0.4039 -0.9135  0.7334
  474MOL0     C62497   0.704   1.454   5.917 -0.0009  0.4594 -0.1047
  474MOL0     C62498   0.847   1.517   5.953  0.0049 -0.0715 -0.6701
  474MOL0     C62499   0.853   1.572   6.089 -0.2645 -0.0116  0.2519
  474MOL0     C62500   0.868   1.608   6.203 -0.1028 -0.4928  1.1816
  474MOL0     C62501   0.852   0.937   5.822  0.3423 -0.0555  0.3764
  474MOL0     C62502   0.913   0.813   5.795  1.2358 -0.2661  0.5408
  474MOL0     H62503   1.124   0.451   5.633 -1.2546  1.2910  1.2410
  474MOL0     H62504   1.214   0.197   5.618  0.8287 -2.8192  2.2073
  474MOL0     H62505   1.208  -0.008   5.583 -0.1573  1.6399  1.3201
  474MOL0     H62506   1.209  -0.161   5.667  0.4984  0.4080 -2.4206
  474MOL0     H62507   1.349   0.080   5.763  0.9210  0.0547  1.1286
  474MOL0     H62508   1.421  -0.056   5.674  0.5327  1.5801 -0.6247
  474MOL0     H62509   1.277  -0.102   5.943  0.2362 -0.5232  0.5737
  474MOL0     H62510   1.440  -0.060   5.938  0.5735 -2.7469  1.5633
  474MOL0     H62511   1.304  -0.316   5.844  0.8693 -1.7428 -3.9290
  474MOL0     H62512   1.455  -0.270   5.761  1.7527  2.0485  1.2510
  474MOL0     H62513   1.574  -0.252   5.964 -1.2443  0.6908 -0.8750
  474MOL0     H62514   1.534  -0.413   5.911 -2.2971 -0.3984 -4.1480
  474MOL0     H62515   1.369  -0.407   6.106 -2.7599  2.0117  2.3546
  474MOL0     H62516   1.415  -0.228   6.136  3.7275  0.1152  6.2976
  474MOL0     H62517   1.569  -0.493   6.170  0.5336 -0.0811 -0.3293
  474MOL0     H62518   1.643  -0.330   6.198 -1.0281  1.7879  0.2694
  474MOL0     H62519   1.571  -0.460   6.400  3.3176  0.6024 -3.9195
  474MOL0     H62520   1.405  -0.428   6.367 -1.4213  1.1697  1.9748
  474MOL0     H62521   1.304  -0.219   6.482  0.5688  2.2739  2.5041
  474MOL0     H62522   1.249   0.022   6.508 -0.1009 -1.0873 -1.2295
  474MOL0     H62523   1.300   0.103   6.364 -3.0397 -0.6718  1.7668
  474MOL0     H62524   1.505   0.187   6.515 -0.7295 -2.5635 -1.0868
  474MOL0     H62525   1.420   0.142   6.647 -1.2455  2.4577  1.6313
  474MOL0     H62526   1.338   0.355   6.446  1.6071 -1.7636 -0.6036
  474MOL0     H62527   1.218   0.279   6.557 -0.1256 -1.9554 -1.2077
  474MOL0     H62528   1.341   0.498   6.648 -2.7725 -1.1838  3.8960
  474MOL0     H62529   1.495   0.426   6.624  0.7061  0.2170  1.7224
  474MOL0     H62530   1.439   0.617   6.788  3.0997 -0.9732 -0.7581
  474MOL0     H62531   1.508   0.735   6.988 -1.9481  0.5424  0.4248
  474MOL0     H62532   1.419   0.688   7.590 -0.1783 -0.4370 -1.0141
  474MOL0     H62533   1.570   0.753   7.791 -3.8022  1.9544 -2.6317
  474MOL0     H62534   2.008   0.631   7.876 -0.4270 -0.6640  0.8089
  474MOL0     H62535   1.912   0.499   7.816  2.2176  0.1319  0.3261
  474MOL0     H62536   1.766   0.501   8.014  0.2158 -0.1010  0.2881
  474MOL0     H62537   1.818   0.650   8.056 -1.8604 -0.8208  1.6398
  474MOL0     H62538   1.954   0.529   8.212 -0.3894 -0.2032 -1.0740
  474MOL0     H62539   2.064   0.572   8.094  0.2490 -1.2594 -0.5013
  474MOL0     H62540   1.936   0.293   8.073  0.9034 -4.2526  4.9638
  474MOL0     H62541   2.080   0.353   7.992  0.8740  5.3047  0.0462
  474MOL0     H62542   2.070   0.319   8.290  0.1002  0.6710  0.1136
  474MOL0     H62543   2.210   0.348   8.182  0.4069 -0.2882  0.5460
  474MOL0     H62544   2.121   0.120   8.054  1.0959 -0.3421  0.2384
  474MOL0     H62545   2.043   0.093   8.196  2.9211 -1.1384  1.6757
  474MOL0     H62546   2.253  -0.018   8.212 -0.6292  0.1566 -0.4870
  474MOL0     H62547   2.335   0.127   8.135 -0.1621 -1.2385 -1.4800
  474MOL0     H62548   2.341   0.238   8.350 -0.0718 -0.3932 -0.0085
  474MOL0     H62549   2.390   0.079   8.378 -0.5396 -1.3212 -0.2905
  474MOL0     H62550   1.890   0.563   7.619  0.5615  1.4910  3.2689
  474MOL0     H62551   1.767   0.545   7.383 -0.7985 -0.3841 -0.0936
  474MOL0     H62552   1.440   0.373   7.223 -1.5333  0.6642  0.0140
  474MOL0     H62553   1.375   0.251   7.013  0.3113 -0.1312  1.0183
  474MOL0     H62554   0.936   0.098   5.917  0.5630  0.7450  1.5473
  474MOL0     H62555   0.844   0.316   5.915  1.8076  1.2517  2.9325
  474MOL0     H62556   0.795   0.783   5.479 -0.4561  0.7816 -0.8540
  474MOL0     H62557   0.739   0.999   5.510  0.9963 -1.3040 -1.3832
  474MOL0     H62558   0.867   1.225   5.848  1.1393 -2.5722 -0.5613
  474MOL0     H62559   0.719   1.180   5.930  0.7278 -0.6266 -0.5662
  474MOL0     H62560   0.707   1.389   5.711  0.9371 -1.6792  0.6911
  474MOL0     H62561   0.579   1.336   5.807 -0.3251 -1.2310 -0.3900
  474MOL0     H62562   0.657   1.404   6.002  0.2941 -0.6127 -0.5549
  474MOL0     H62563   0.641   1.536   5.882 -0.4060 -0.3861 -1.4124
  474MOL0     H62564   0.912   1.431   5.936 -1.1957 -1.0892 -0.2278
  474MOL0     H62565   0.885   1.587   5.878  2.6847 -2.3705 -1.6305
  474MOL0     H62566   0.881   1.660   6.296  0.4744  2.5590 -0.4843
  474MOL0     H62567   0.866   0.980   5.920 -0.1469  1.7867 -0.3215
  474MOL0     H62568   0.951   0.758   5.881 -1.6375 -2.0683  0.8100
  475MOL0     O62569  10.698   6.033   9.062  0.0019  1.0010 -0.0583
  475MOL0     C62570  10.633   6.134   9.076  0.6067 -0.0244 -0.6031
  475MOL0     O62571  10.568   6.196   8.966 -0.0427  0.7082 -0.1968
  475MOL0     C62572  10.590   6.162   8.831  0.2416  0.2742 -0.2657
  475MOL0     C62573  10.493   6.209   8.747  0.6486 -0.4957 -0.3455
  475MOL0     C62574  10.499   6.187   8.610  1.2718  0.4895  0.6681
  475MOL0     C62575  10.612   6.123   8.556  0.7083 -0.1264  0.9937
  475MOL0     O62576  10.611   6.080   8.424  0.4278  0.8547 -0.1754
  475MOL0     C62577  10.521   5.970   8.406  0.0675  0.6013 -0.1487
  475MOL0     C62578  10.609   5.858   8.352  0.4283 -1.2495 -0.4516
  475MOL0     C62579  10.668   5.894   8.214 -1.0462  0.2091  0.1360
  475MOL0     C62580  10.776   5.794   8.193 -1.0522 -0.0915 -0.5509
  475MOL0     C62581  10.859   5.843   8.084  0.4258  0.1274  1.1128
  475MOL0     C62582  10.984   5.769   8.040 -0.2988 -0.1168  0.0448
  475MOL0     C62583  11.053   5.847   7.920 -0.2776 -1.6597 -0.3314
  475MOL0     C62584  11.165   5.768   7.859  0.4274  0.0330  0.0615
  475MOL0     N62585  11.132   5.626   7.833  0.3810  0.0322 -0.5429
  475MOL0     C62586  11.165   5.518   7.908 -0.2089 -0.1254  0.1979
  475MOL0     C62587  11.125   5.408   7.831  1.0419 -0.4896  0.6531
  475MOL0     C62588  11.130   5.263   7.863  1.2407 -0.4189  0.4432
  475MOL0     C62589  11.201   5.183   7.756 -0.8453 -0.0565 -0.6952
  475MOL0     C62590  11.181   5.036   7.794  1.1462  0.4896 -0.3234
  475MOL0     C62591  11.249   4.952   7.695 -0.1431 -0.5607 -0.3622
  475MOL0     O62592  11.396   4.975   7.697 -0.4992 -0.5683 -0.3701
  475MOL0     C62593  11.476   4.862   7.667  0.4200 -0.3324 -1.1391
  475MOL0     C62594  11.457   4.747   7.736 -0.1031  0.9951 -0.4222
  475MOL0     C62595  11.523   4.624   7.704 -0.0765 -0.7347 -1.0417
  475MOL0     C62596  11.620   4.627   7.598 -0.6407 -0.2863 -0.1317
  475MOL0     C62597  11.690   4.501   7.560 -0.6666 -0.0685  0.6661
  475MOL0     O62598  11.660   4.388   7.622 -0.1487 -0.5895 -0.7139
  475MOL0     C62599  11.738   4.275   7.603 -0.7963 -0.2701  0.6055
  475MOL0     C62600  11.878   4.283   7.573 -0.5622 -0.1621  0.8683
  475MOL0     C62601  11.953   4.164   7.565 -0.5893 -0.1270  1.0312
  475MOL0     C62602  11.904   4.042   7.599  0.2668  0.4065  0.2260
  475MOL0     O62603  11.994   3.939   7.600  0.5126 -0.1850 -0.9689
  475MOL0     C62604  11.955   3.821   7.533  0.3166 -0.1662 -0.3681
  475MOL0     C62605  12.073   3.742   7.477 -0.6429  0.6286 -0.7151
  475MOL0     C62606  12.045   3.603   7.430 -1.3129 -0.4405 -0.0136
  475MOL0     C62607  11.934   3.592   7.334 -0.0533  0.3305  1.0561
  475MOL0     C62608  11.943   3.481   7.229 -0.1237 -0.6731  0.8038
  475MOL0     C62609  11.805   3.457   7.170  0.5725  0.4764  0.0441
  475MOL0     C62610  11.752   3.576   7.091 -1.6461  0.4377  0.1059
  475MOL0     C62611  11.641   3.531   6.988 -0.7739 -0.7685  0.1283
  475MOL0    Cl62612  11.489   3.484   7.076  0.1390 -0.0725 -0.0970
  475MOL0     C62613  11.765   4.045   7.607 -1.1831 -0.5059 -0.7672
  475MOL0     C62614  11.685   4.154   7.621 -0.4657 -1.0783  1.3089
  475MOL0     O62615  11.769   4.522   7.464  0.2299 -0.5094 -0.5328
  475MOL0     C62616  11.645   4.754   7.537 -1.0356 -0.2537 -0.5843
  475MOL0     C62617  11.571   4.863   7.565 -0.9650 -0.0058 -0.2937
  475MOL0     N62618  11.056   5.460   7.722 -0.1706 -0.2459  0.0495
  475MOL0     N62619  11.064   5.589   7.718  0.5658  0.1122 -0.5756
  475MOL0     C62620  10.716   6.080   8.641  0.5781 -0.1222  0.1349
  475MOL0     C62621  10.701   6.102   8.774 -0.3363  0.5457 -0.4585
  475MOL0     C62622  10.633   6.215   9.200 -0.3398  1.3066  0.7480
  475MOL0     C62623  10.667   6.154   9.323 -0.7262 -0.8789 -0.6395
  475MOL0     C62624  10.675   6.224   9.443  0.4293 -0.3941  0.5340
  475MOL0     C62625  10.635   6.360   9.451 -1.1366  0.8002 -0.3044
  475MOL0     O62626  10.665   6.427   9.566  0.6719 -1.1479 -0.2558
  475MOL0     C62627  10.618   6.562   9.584 -0.7125 -0.8884 -0.6011
  475MOL0     C62628  10.618   6.627   9.726 -0.9428  0.7638 -0.0978
  475MOL0     C62629  10.556   6.526   9.837 -0.5899  0.1256  0.2297
  475MOL0     C62630  10.503   6.610   9.950  0.4651  0.3010  0.4180
  475MOL0     C62631  10.607   6.694  10.005 -0.5164  0.5513 -1.4722
  475MOL0     C62632  10.674   6.763  10.080  0.1348 -0.9961 -0.7023
  475MOL0     C62633  10.600   6.422   9.329 -0.4037 -0.4903  0.2133
  475MOL0     C62634  10.591   6.348   9.204 -0.6277 -0.0418  0.1864
  475MOL0     H62635  10.403   6.259   8.784 -0.2121 -0.1277 -2.7259
  475MOL0     H62636  10.422   6.208   8.536  1.2223 -1.1945  0.1969
  475MOL0     H62637  10.432   5.986   8.345 -0.5370 -0.7518  0.3202
  475MOL0     H62638  10.483   5.939   8.504  0.3913 -0.8926 -0.4660
  475MOL0     H62639  10.553   5.766   8.330  2.3857 -2.5617 -0.1686
  475MOL0     H62640  10.691   5.837   8.421  1.5501 -1.2255 -1.7456
  475MOL0     H62641  10.706   5.996   8.215 -0.7700  0.1171 -0.7219
  475MOL0     H62642  10.603   5.880   8.127 -1.1545  0.8558  0.1074
  475MOL0     H62643  10.835   5.776   8.283 -1.9554 -2.6923 -0.3853
  475MOL0     H62644  10.723   5.701   8.173 -2.9341  0.8172 -0.0096
  475MOL0     H62645  10.901   5.940   8.112 -0.1205  0.2149  1.6536
  475MOL0     H62646  10.800   5.853   7.992  1.9676 -0.4973  0.0245
  475MOL0     H62647  10.961   5.666   8.011 -0.8731 -0.6866  2.2955
  475MOL0     H62648  11.055   5.769   8.123 -0.1547  1.2519 -0.0560
  475MOL0     H62649  10.985   5.876   7.840 -1.2611 -0.4487  0.9053
  475MOL0     H62650  11.090   5.944   7.954 -1.3511 -0.1526 -3.1187
  475MOL0     H62651  11.241   5.774   7.938 -1.7244  0.7496  2.1835
  475MOL0     H62652  11.195   5.809   7.762 -3.8647 -1.0209 -1.9691
  475MOL0     H62653  11.193   5.513   8.013  1.5887 -0.2968 -0.2494
  475MOL0     H62654  11.029   5.228   7.887  1.1839 -0.0276  0.7837
  475MOL0     H62655  11.184   5.251   7.957 -0.9132 -1.9929  1.5781
  475MOL0     H62656  11.309   5.199   7.756 -0.6889 -0.9834 -1.3358
  475MOL0     H62657  11.156   5.209   7.660 -0.5000 -1.9434 -1.4206
  475MOL0     H62658  11.219   5.016   7.895 -1.4837  0.9528  0.8275
  475MOL0     H62659  11.073   5.022   7.785  1.2923  0.6047 -4.6126
  475MOL0     H62660  11.213   4.972   7.593  2.9558  2.0621 -1.1009
  475MOL0     H62661  11.231   4.845   7.711 -0.9074 -0.5662 -1.1604
  475MOL0     H62662  11.381   4.733   7.813  2.8040 -3.8934  2.0900
  475MOL0     H62663  11.488   4.531   7.748  0.2548 -0.2421  0.3056
  475MOL0     H62664  11.927   4.377   7.549 -0.2080 -0.2040  1.4120
  475MOL0     H62665  12.058   4.181   7.544 -0.2770 -0.4838  2.2316
  475MOL0     H62666  11.896   3.852   7.446  1.0339 -1.2534 -1.2627
  475MOL0     H62667  11.908   3.759   7.609 -0.3463 -2.9978 -2.9117
  475MOL0     H62668  12.151   3.722   7.550  0.4989 -2.0571 -2.4899
  475MOL0     H62669  12.120   3.795   7.394  0.7562 -1.1869 -1.1294
  475MOL0     H62670  12.024   3.551   7.524  1.0487  1.6159  1.7974
  475MOL0     H62671  12.135   3.570   7.377 -0.4279 -1.3397  1.9670
  475MOL0     H62672  11.842   3.576   7.391  0.4047 -0.3203  1.6286
  475MOL0     H62673  11.926   3.688   7.281 -1.2514 -0.6049 -0.5654
  475MOL0     H62674  11.964   3.384   7.276 -3.2164 -2.1220 -0.5766
  475MOL0     H62675  12.009   3.502   7.143 -2.9246 -1.1672 -1.6302
  475MOL0     H62676  11.740   3.433   7.254 -0.1110 -2.0454 -1.1203
  475MOL0     H62677  11.806   3.371   7.103  0.7625  0.0805  0.5553
  475MOL0     H62678  11.705   3.641   7.165 -2.4227 -0.3779  0.3483
  475MOL0     H62679  11.844   3.620   7.051 -0.9293 -0.3628  0.8343
  475MOL0     H62680  11.679   3.450   6.926  0.9496 -1.3462  1.8462
  475MOL0     H62681  11.628   3.624   6.932  2.8416  1.1847  2.2042
  475MOL0     H62682  11.719   3.948   7.622  1.3001 -1.8113 -1.1473
  475MOL0     H62683  11.580   4.141   7.645 -0.6121 -3.4111 -0.2303
  475MOL0     H62684  11.727   4.763   7.466  1.0890  2.7627  2.0069
  475MOL0     H62685  11.591   4.957   7.514 -1.3349 -0.6129 -1.5755
  475MOL0     H62686  10.799   6.028   8.593  0.7524  0.4922 -0.2300
  475MOL0     H62687  10.779   6.062   8.837  1.1014  1.4050 -1.6176
  475MOL0     H62688  10.698   6.051   9.316  2.5393 -0.0729  0.0068
  475MOL0     H62689  10.713   6.174   9.531  1.7213  0.2749  0.3709
  475MOL0     H62690  10.513   6.567   9.552 -0.1845 -0.5356 -2.3848
  475MOL0     H62691  10.683   6.617   9.515 -2.0904  1.1568 -0.3843
  475MOL0     H62692  10.715   6.663   9.761 -1.2448 -1.0429  2.9629
  475MOL0     H62693  10.559   6.719   9.720  3.0444  3.4756 -2.5027
  475MOL0     H62694  10.633   6.457   9.872  0.3431  2.6263  3.5557
  475MOL0     H62695  10.466   6.471   9.806 -0.0007 -0.8166  0.1276
  475MOL0     H62696  10.414   6.660   9.911 -2.2038 -2.6938  2.1288
  475MOL0     H62697  10.466   6.546  10.031  2.6602 -0.3229  1.0058
  475MOL0     H62698  10.751   6.810  10.139  1.4079 -0.2972 -2.8067
  475MOL0     H62699  10.578   6.528   9.328 -0.6219 -0.5300  0.5086
  475MOL0     H62700  10.573   6.394   9.107  2.1719  1.7305  0.3708
  476MOL0     O62701   8.383  10.659   0.825 -0.0415 -0.0808 -0.3849
  476MOL0     C62702   8.297  10.569   0.805 -0.0968 -1.1774  0.6681
  476MOL0     O62703   8.176  10.557   0.868  0.3400 -0.2658 -0.1250
  476MOL0     C62704   8.130  10.663   0.948  0.1250 -0.3060  0.4086
  476MOL0     C62705   8.195  10.727   1.056  1.0379 -0.2297 -0.4271
  476MOL0     C62706   8.128  10.834   1.129 -0.0395  0.3964  0.3813
  476MOL0     C62707   8.001  10.880   1.089  0.5745  0.1127 -0.7901
  476MOL0     O62708   7.941  10.986   1.146  0.2206 -0.5474  1.1725
  476MOL0     C62709   8.025  11.108   1.150 -0.4075 -0.5515 -0.1844
  476MOL0     C62710   7.945  11.206   1.245 -0.3145 -1.2610 -0.7421
  476MOL0     C62711   7.884  11.153   1.370 -0.2504 -0.1840 -0.4141
  476MOL0     C62712   7.985  11.087   1.469 -0.6065 -0.4977 -0.4200
  476MOL0     C62713   7.912  11.018   1.598 -0.3260 -0.7402 -0.9642
  476MOL0     C62714   8.016  10.913   1.652 -0.2821  0.5865 -1.0830
  476MOL0     C62715   7.966  10.801   1.756 -1.0708  0.3982  0.1485
  476MOL0     C62716   7.855  10.713   1.702 -0.5138 -0.5591  0.6539
  476MOL0     N62717   7.805  10.629   1.807  0.0951 -0.2585  0.0992
  476MOL0     C62718   7.761  10.662   1.936  0.1861 -0.0815  0.7415
  476MOL0     C62719   7.718  10.552   2.001 -0.2500 -0.6176 -0.5390
  476MOL0     C62720   7.653  10.544   2.131  0.5030 -1.0978 -0.2206
  476MOL0     C62721   7.751  10.534   2.249 -0.7408 -0.4638  0.8138
  476MOL0     C62722   7.847  10.407   2.247  0.7124  0.4730  0.3249
  476MOL0     C62723   7.969  10.421   2.337  0.8793  0.0905  0.4156
  476MOL0     O62724   8.101  10.412   2.275 -0.2047 -0.9445 -0.2763
  476MOL0     C62725   8.213  10.443   2.342  0.9762 -0.5851 -0.5115
  476MOL0     C62726   8.223  10.493   2.469  0.6862 -1.0711  0.0683
  476MOL0     C62727   8.346  10.513   2.522 -0.0490 -0.0918  0.2515
  476MOL0     C62728   8.460  10.500   2.450 -0.3872  0.0242 -0.6913
  476MOL0     C62729   8.597  10.516   2.520 -0.2785  0.3435  0.2925
  476MOL0     O62730   8.598  10.552   2.651 -0.2254 -0.3930  0.8822
  476MOL0     C62731   8.722  10.600   2.696 -0.3538 -0.1194 -1.4834
  476MOL0     C62732   8.751  10.733   2.669 -0.6571 -0.4183  0.3084
  476MOL0     C62733   8.863  10.788   2.731  0.0866 -0.5216  0.9406
  476MOL0     C62734   8.940  10.705   2.820  0.0555 -0.8039  0.8433
  476MOL0     O62735   9.045  10.772   2.890 -0.4706  0.4170  1.2492
  476MOL0     C62736   9.159  10.706   2.944  0.2442 -0.1477 -0.0831
  476MOL0     C62737   9.244  10.627   2.844  0.1010  0.3801  0.6828
  476MOL0     C62738   9.307  10.706   2.735 -0.4452 -0.1436 -0.3806
  476MOL0     C62739   9.365  10.616   2.633 -0.0266 -0.4857 -0.6644
  476MOL0     C62740   9.397  10.706   2.510 -0.5625 -0.1567 -0.2537
  476MOL0     C62741   9.488  10.645   2.413 -0.1235  1.1294  0.3725
  476MOL0     C62742   9.489  10.709   2.283 -1.6818 -0.2363 -0.0431
  476MOL0     C62743   9.564  10.621   2.174 -0.6697  0.7848 -0.2077
  476MOL0    Cl62744   9.743  10.608   2.205  0.1870  0.1096  0.0873
  476MOL0     C62745   8.911  10.577   2.857 -0.2497  0.1062  0.5309
  476MOL0     C62746   8.799  10.530   2.793  0.0360 -0.6521  0.0068
  476MOL0     O62747   8.701  10.496   2.448  0.2319 -0.9975 -0.3288
  476MOL0     C62748   8.455  10.449   2.326 -0.3185 -0.3322 -0.2492
  476MOL0     C62749   8.328  10.422   2.271 -0.1961  0.9865  0.5287
  476MOL0     N62750   7.752  10.455   1.908 -0.4091  0.1803  0.3522
  476MOL0     N62751   7.794  10.502   1.797 -0.0047  0.2648  0.2972
  476MOL0     C62752   7.924  10.786   1.006  0.2441  0.1171 -0.1227
  476MOL0     C62753   7.995  10.693   0.925 -0.1725 -0.9224  0.4219
  476MOL0     C62754   8.323  10.475   0.689  0.0536 -0.1752 -1.2163
  476MOL0     C62755   8.218  10.406   0.621  0.1498  0.3718 -0.5284
  476MOL0     C62756   8.252  10.318   0.513 -0.9255  0.9306 -0.1465
  476MOL0     C62757   8.383  10.295   0.469  0.6418  0.5412 -0.2876
  476MOL0     O62758   8.424  10.193   0.386  0.3139  0.3764  0.3687
  476MOL0     C62759   8.547  10.130   0.426  1.0978 -0.3634  0.4857
  476MOL0     C62760   8.667  10.167   0.343  0.6998  0.2072  0.1383
  476MOL0     C62761   8.654  10.108   0.205 -0.4346  0.0523  0.3511
  476MOL0     C62762   8.783  10.121   0.108 -0.1740  0.1272  0.2793
  476MOL0     C62763   8.912  10.061   0.143 -0.5760  0.1124  0.1730
  476MOL0     C62764   9.025  10.019   0.163 -0.1202 -0.2693  0.0139
  476MOL0     C62765   8.479  10.375   0.532  0.6700  0.3865  0.1811
  476MOL0     C62766   8.450  10.458   0.645  0.5455  0.3929  0.5056
  476MOL0     H62767   8.292  10.689   1.087  0.5700 -0.1329  1.2905
  476MOL0     H62768   8.189  10.885   1.204  1.8530  0.2907 -1.0069
  476MOL0     H62769   8.021  11.151   1.050 -4.4720  0.2290  0.1077
  476MOL0     H62770   8.123  11.091   1.196 -0.5919  1.3608  1.0061
  476MOL0     H62771   7.868  11.245   1.177  1.8452 -0.2648 -2.7690
  476MOL0     H62772   8.016  11.289   1.256 -0.7279 -0.9968 -0.0245
  476MOL0     H62773   7.809  11.082   1.333  1.0017 -0.9872 -1.4813
  476MOL0     H62774   7.830  11.230   1.426 -2.8204 -2.8238  1.0252
  476MOL0     H62775   8.047  11.015   1.415 -0.7407 -0.8347 -0.1227
  476MOL0     H62776   8.059  11.156   1.510  1.1846 -2.0061 -0.9843
  476MOL0     H62777   7.813  10.977   1.576 -0.4763 -1.4032  0.7708
  476MOL0     H62778   7.881  11.086   1.677 -2.3358 -2.0101 -0.5717
  476MOL0     H62779   8.084  10.977   1.709 -0.5680  0.0724 -0.1420
  476MOL0     H62780   8.065  10.858   1.571 -2.3862 -2.6022 -0.3810
  476MOL0     H62781   8.042  10.730   1.790 -0.9584  0.4959  0.1031
  476MOL0     H62782   7.937  10.838   1.855 -0.2776 -1.6390  1.1916
  476MOL0     H62783   7.892  10.669   1.609  2.0925  1.5607  0.5495
  476MOL0     H62784   7.775  10.771   1.656  0.8261 -1.4401 -3.1838
  476MOL0     H62785   7.741  10.761   1.975  0.7737  0.0888  0.6162
  476MOL0     H62786   7.591  10.454   2.127 -0.4687 -0.4102 -0.9028
  476MOL0     H62787   7.588  10.630   2.143  1.9690  0.0352 -0.0776
  476MOL0     H62788   7.684  10.532   2.336 -1.9033 -1.9408 -0.0617
  476MOL0     H62789   7.815  10.621   2.231  0.4319 -1.4472  0.0418
  476MOL0     H62790   7.795  10.312   2.265  2.2669 -0.7855 -1.3832
  476MOL0     H62791   7.893  10.400   2.148  2.6129  0.8050  1.1311
  476MOL0     H62792   7.974  10.345   2.416 -0.3302 -1.7976 -1.1982
  476MOL0     H62793   7.962  10.508   2.403 -1.4634 -0.2336  0.6835
  476MOL0     H62794   8.132  10.524   2.520  0.7025  0.0425 -0.5285
  476MOL0     H62795   8.336  10.559   2.619  0.2153  0.9863 -0.2134
  476MOL0     H62796   8.696  10.790   2.594  2.3014  0.4837 -1.3315
  476MOL0     H62797   8.884  10.894   2.719  1.0680 -0.5893  1.8689
  476MOL0     H62798   9.122  10.640   3.023 -2.5147  2.9914  1.4802
  476MOL0     H62799   9.207  10.795   2.987 -2.4980  2.0249 -1.1627
  476MOL0     H62800   9.171  10.558   2.800 -6.0100  5.0698  2.0694
  476MOL0     H62801   9.313  10.571   2.907 -1.3051 -0.9087  1.1379
  476MOL0     H62802   9.381  10.770   2.784 -1.6132  1.3691 -0.5017
  476MOL0     H62803   9.236  10.775   2.688  1.3494  1.8435 -0.3254
  476MOL0     H62804   9.460  10.580   2.674 -0.2720  0.0143  0.3972
  476MOL0     H62805   9.309  10.524   2.617 -1.3059  0.1380  0.0114
  476MOL0     H62806   9.448  10.796   2.544 -2.6540  2.0105 -2.5058
  476MOL0     H62807   9.306  10.745   2.464 -3.3368 -3.2084  2.1498
  476MOL0     H62808   9.449  10.544   2.400 -0.5393  1.5184 -1.7908
  476MOL0     H62809   9.587  10.630   2.457  0.5905  0.1700 -1.4542
  476MOL0     H62810   9.389  10.731   2.246 -1.3570 -0.8998 -1.3856
  476MOL0     H62811   9.547  10.801   2.295 -1.8495 -0.2146  0.6603
  476MOL0     H62812   9.557  10.663   2.073  1.4715  2.0569  0.1123
  476MOL0     H62813   9.520  10.521   2.176  3.2291 -1.1377 -1.8348
  476MOL0     H62814   8.968  10.522   2.931 -0.1703  1.6024  1.6299
  476MOL0     H62815   8.765  10.427   2.806 -0.7144 -0.3868  0.1933
  476MOL0     H62816   8.546  10.431   2.269 -0.0277 -0.1528  0.1571
  476MOL0     H62817   8.320  10.377   2.173 -1.5753  1.1263  0.5578
  476MOL0     H62818   7.818  10.805   0.994  0.3587  0.9402  0.1136
  476MOL0     H62819   7.948  10.637   0.845 -1.0587 -2.4047  1.9202
  476MOL0     H62820   8.114  10.408   0.652 -0.3548  0.9156 -2.1679
  476MOL0     H62821   8.167  10.266   0.470 -0.6242  0.3877 -0.1088
  476MOL0     H62822   8.527  10.024   0.412 -2.1021 -0.0266  1.7518
  476MOL0     H62823   8.567  10.115   0.532  2.0194 -1.0684  0.2289
  476MOL0     H62824   8.669  10.276   0.331 -0.6277  0.2235 -0.1326
  476MOL0     H62825   8.762  10.143   0.392  1.2943  0.5948 -0.7951
  476MOL0     H62826   8.565  10.150   0.157 -0.3459  1.7079  1.5672
  476MOL0     H62827   8.629  10.003   0.218  0.0656 -1.0175 -4.9559
  476MOL0     H62828   8.754  10.066   0.018 -0.2428  2.3001 -1.0811
  476MOL0     H62829   8.807  10.224   0.082  0.0248  0.2316  0.8581
  476MOL0     H62830   9.123   9.983   0.186  0.8801  0.9759 -1.9901
  476MOL0     H62831   8.579  10.375   0.489 -1.2399  0.4232 -4.9303
  476MOL0     H62832   8.533  10.499   0.702 -0.6750  2.0799  1.1588
  477MOL0     O62833   1.746  10.234   1.501  0.3988  0.1162  0.3706
  477MOL0     C62834   1.768  10.110   1.490 -0.0583 -0.0905  0.0831
  477MOL0     O62835   1.693  10.015   1.542  0.5888  0.0890 -0.9921
  477MOL0     C62836   1.573  10.055   1.584  0.0796  0.6041 -0.2358
  477MOL0     C62837   1.562  10.082   1.720 -0.4422 -0.3534 -0.1772
  477MOL0     C62838   1.434  10.101   1.784 -0.1449  0.3046 -0.1363
  477MOL0     C62839   1.325  10.094   1.703  1.1556 -0.3131  0.0379
  477MOL0     O62840   1.199  10.104   1.767  0.1147 -0.7900 -0.4860
  477MOL0     C62841   1.110  10.012   1.722 -0.6750  0.1851 -0.8077
  477MOL0     C62842   0.990  10.004   1.806 -0.0301  0.2094  0.6891
  477MOL0     C62843   0.884   9.923   1.732 -0.1086 -0.0834 -0.1391
  477MOL0     C62844   0.922   9.785   1.675 -0.4175 -1.1136  0.3129
  477MOL0     C62845   0.949   9.694   1.786 -0.3187  0.0668 -0.0324
  477MOL0     C62846   0.937   9.535   1.771  0.1974 -0.2784  0.6710
  477MOL0     C62847   0.983   9.473   1.633 -0.0716  0.0902 -0.0680
  477MOL0     C62848   0.985   9.328   1.639  0.0209 -0.2338 -0.5053
  477MOL0     N62849   0.858   9.265   1.664  0.0245  0.6005 -0.3442
  477MOL0     C62850   0.807   9.205   1.783  0.1929 -0.8405  0.2057
  477MOL0     C62851   0.680   9.188   1.757  0.2480  0.5114  0.4121
  477MOL0     C62852   0.583   9.134   1.864 -1.4075  0.6789  0.5110
  477MOL0     C62853   0.576   9.226   1.988 -0.5743 -0.9200  0.6194
  477MOL0     C62854   0.532   9.149   2.103  0.7800  0.4493  0.2260
  477MOL0     C62855   0.384   9.115   2.108 -0.2022 -0.4887  0.6112
  477MOL0     O62856   0.364   9.047   2.229  0.0945 -0.0173  0.6235
  477MOL0     C62857   0.236   9.038   2.252  0.3250 -0.4465  0.7759
  477MOL0     C62858   0.173   8.926   2.185 -0.8393  0.0311 -0.8380
  477MOL0     C62859   0.037   8.913   2.210  0.9832 -0.4092 -0.1744
  477MOL0     C62860  -0.039   8.998   2.295 -0.1376  0.1116 -0.5717
  477MOL0     C62861  -0.174   8.955   2.323  0.8957  0.1683  0.2996
  477MOL0     O62862  -0.233   9.012   2.431 -0.3147  0.5949 -0.3425
  477MOL0     C62863  -0.364   8.975   2.474 -0.8963 -0.4882 -0.0512
  477MOL0     C62864  -0.430   8.856   2.472  0.0006 -0.0743  0.4014
  477MOL0     C62865  -0.554   8.841   2.529  1.3503  0.7029 -0.0265
  477MOL0     C62866  -0.620   8.949   2.588  0.3589 -0.6719 -0.1065
  477MOL0     O62867  -0.740   8.941   2.651  0.4855 -1.1763  0.3620
  477MOL0     C62868  -0.767   8.850   2.750 -0.5380 -1.1006 -0.6044
  477MOL0     C62869  -0.827   8.719   2.692  0.7458 -1.1124  0.8018
  477MOL0     C62870  -0.935   8.662   2.780  1.1203 -0.7260 -1.3770
  477MOL0     C62871  -0.875   8.600   2.908  0.3406 -0.2316 -0.6247
  477MOL0     C62872  -0.974   8.532   3.005 -0.8414 -0.3830  0.0426
  477MOL0     C62873  -0.912   8.526   3.139 -0.5746  0.6600 -0.1432
  477MOL0     C62874  -0.998   8.463   3.250  0.9617 -0.3363 -0.4969
  477MOL0     C62875  -1.126   8.537   3.277  0.1502  0.2991  0.0141
  477MOL0    Cl62876  -1.171   8.551   3.446 -0.5611 -0.5675  0.1638
  477MOL0     C62877  -0.553   9.069   2.602  0.3244  0.9437 -0.1807
  477MOL0     C62878  -0.424   9.078   2.546 -0.1576  0.3754  0.0256
  477MOL0     O62879  -0.231   8.884   2.244  0.7534 -0.0470 -0.3511
  477MOL0     C62880   0.024   9.107   2.357 -0.7675 -0.5547  0.4977
  477MOL0     C62881   0.166   9.131   2.331  0.0910 -0.2745 -0.6782
  477MOL0     N62882   0.650   9.239   1.626  1.7010  0.5243 -0.2505
  477MOL0     N62883   0.760   9.279   1.574  0.1209  0.1690 -0.1359
  477MOL0     C62884   1.332  10.066   1.566 -0.5223  0.5111  0.4683
  477MOL0     C62885   1.461  10.047   1.504 -0.4979  0.1702  0.5410
  477MOL0     C62886   1.877  10.069   1.407 -0.9606  0.9172 -1.4572
  477MOL0     C62887   1.959  10.152   1.325 -0.0571  0.5032 -0.6572
  477MOL0     C62888   2.069  10.098   1.248 -0.2156  0.8105 -0.2062
  477MOL0     C62889   2.090   9.960   1.248 -0.2803 -0.0605 -0.0487
  477MOL0     O62890   2.206   9.917   1.184  0.5258 -0.0570  0.4763
  477MOL0     C62891   2.327   9.917   1.254 -0.3801 -0.1332 -0.9641
  477MOL0     C62892   2.447   9.882   1.175  0.2664 -0.0721 -0.6588
  477MOL0     C62893   2.497  10.001   1.115  0.7583 -0.0763  0.9082
  477MOL0     C62894   2.637  10.020   1.153  0.1009 -0.6101 -0.4219
  477MOL0     C62895   2.638  10.081   1.287  0.6146  1.1372 -0.0116
  477MOL0     C62896   2.642  10.147   1.384 -0.4867 -0.5964 -0.0306
  477MOL0     C62897   2.007   9.871   1.318  1.1936 -0.0986  0.5513
  477MOL0     C62898   1.905   9.926   1.399  0.7819  0.4229 -0.1729
  477MOL0     H62899   1.646  10.070   1.787 -1.4056 -1.0791  0.9624
  477MOL0     H62900   1.406  10.100   1.888 -1.9926 -1.9102 -0.5820
  477MOL0     H62901   1.167   9.921   1.703  0.5114  1.0408 -1.4524
  477MOL0     H62902   1.076  10.052   1.626 -0.3219  2.0705 -0.1769
  477MOL0     H62903   0.945  10.102   1.823  2.6201  1.7257 -0.2677
  477MOL0     H62904   1.008   9.969   1.908 -0.8913 -0.8326  0.4940
  477MOL0     H62905   0.858   9.974   1.640  0.5132  1.0372  0.2900
  477MOL0     H62906   0.790   9.909   1.787  0.7135 -1.7102  0.9360
  477MOL0     H62907   0.841   9.750   1.610 -2.5792  2.1090  1.0591
  477MOL0     H62908   1.010   9.800   1.611 -0.6171  0.4049  0.3520
  477MOL0     H62909   0.874   9.725   1.859 -1.6718  0.3881 -1.4958
  477MOL0     H62910   1.051   9.712   1.821 -0.1755  0.5826 -0.6887
  477MOL0     H62911   0.834   9.499   1.787 -0.5388  0.6799 -1.5218
  477MOL0     H62912   0.993   9.480   1.847  2.2416  1.2614  0.3386
  477MOL0     H62913   0.942   9.514   1.541  0.3283  3.5417  1.1574
  477MOL0     H62914   1.089   9.502   1.627 -0.2362  1.2097  1.7125
  477MOL0     H62915   1.051   9.295   1.720  1.1640  0.9127 -0.9310
  477MOL0     H62916   1.014   9.291   1.541 -2.2018  2.4017 -2.3224
  477MOL0     H62917   0.853   9.201   1.881 -1.1131 -1.5188  0.8269
  477MOL0     H62918   0.608   9.030   1.886 -0.6107  0.0710 -2.7436
  477MOL0     H62919   0.490   9.141   1.807  0.7513 -0.6011 -3.5816
  477MOL0     H62920   0.513   9.314   1.968  1.5514  0.4228 -0.5059
  477MOL0     H62921   0.676   9.261   2.014 -0.5915 -0.7569  0.4669
  477MOL0     H62922   0.589   9.057   2.117  0.3480  0.3439  1.4656
  477MOL0     H62923   0.560   9.209   2.191  0.3289  2.1387 -0.7547
  477MOL0     H62924   0.349   9.059   2.021 -0.2319  0.2881  0.1070
  477MOL0     H62925   0.334   9.212   2.119  0.3314 -0.1345  0.0511
  477MOL0     H62926   0.228   8.858   2.121 -0.6373 -0.6833  0.0761
  477MOL0     H62927  -0.010   8.832   2.155 -3.5834  1.5573  0.4018
  477MOL0     H62928  -0.399   8.770   2.413 -2.7961 -0.6992 -0.2843
  477MOL0     H62929  -0.594   8.740   2.533 -2.7487  2.1827  1.6268
  477MOL0     H62930  -0.816   8.899   2.834  3.6327  1.0837  0.8332
  477MOL0     H62931  -0.668   8.827   2.790  0.2399 -0.1986 -1.9074
  477MOL0     H62932  -0.753   8.640   2.678  0.4232 -1.0678 -1.3501
  477MOL0     H62933  -0.882   8.748   2.603 -1.6412 -1.6415  2.0118
  477MOL0     H62934  -0.992   8.593   2.718 -0.1840  1.0218 -2.2182
  477MOL0     H62935  -0.992   8.753   2.800  3.3390  1.1131 -2.8673
  477MOL0     H62936  -0.805   8.524   2.872 -0.0566 -0.9658  0.1308
  477MOL0     H62937  -0.830   8.684   2.961 -0.1905 -1.2399  1.5314
  477MOL0     H62938  -1.013   8.434   2.975 -1.6269  0.3575 -1.5496
  477MOL0     H62939  -1.059   8.600   3.018  0.0647  1.4970 -2.7135
  477MOL0     H62940  -0.873   8.623   3.171  2.4489 -1.3036  2.8557
  477MOL0     H62941  -0.824   8.460   3.135  1.7820  3.6167 -0.8414
  477MOL0     H62942  -1.020   8.360   3.219  2.7279 -1.0209  0.3829
  477MOL0     H62943  -0.944   8.460   3.345 -0.3285  2.6337  0.4242
  477MOL0     H62944  -1.214   8.492   3.229 -1.4223  0.2136  2.7474
  477MOL0     H62945  -1.119   8.633   3.224  0.7157  0.2817  0.0563
  477MOL0     H62946  -0.614   9.137   2.660 -2.0872 -0.0181 -1.4403
  477MOL0     H62947  -0.366   9.168   2.559  1.0740 -0.0074 -2.2731
  477MOL0     H62948  -0.033   9.179   2.415  0.5877  1.9486 -1.1387
  477MOL0     H62949   0.216   9.219   2.370 -0.3423  0.7512 -2.3026
  477MOL0     H62950   1.244  10.058   1.504  0.7459 -3.4684 -1.1546
  477MOL0     H62951   1.465  10.005   1.405 -4.8067 -1.6387  0.9057
  477MOL0     H62952   1.952  10.260   1.321 -0.5200  0.4876 -0.3407
  477MOL0     H62953   2.141  10.153   1.188 -0.3208 -0.0288 -1.1193
  477MOL0     H62954   2.313   9.836   1.326 -2.2433  0.5197 -0.5182
  477MOL0     H62955   2.351  10.010   1.305  0.3368  0.9181 -3.1110
  477MOL0     H62956   2.517   9.842   1.249 -0.5761  1.8461  1.2700
  477MOL0     H62957   2.421   9.799   1.109 -3.9277  0.7369 -0.2837
  477MOL0     H62958   2.428  10.086   1.127  0.7447 -0.1583  1.4248
  477MOL0     H62959   2.494   9.997   1.005 -0.1085 -0.4415  0.9351
  477MOL0     H62960   2.688   9.924   1.142  1.2296  0.1203 -1.8931
  477MOL0     H62961   2.682  10.090   1.082  0.9839  0.4273  1.0916
  477MOL0     H62962   2.653  10.213   1.467  0.6160  0.2422 -0.8062
  477MOL0     H62963   2.014   9.763   1.317 -3.8150 -0.7293 -2.7168
  477MOL0     H62964   1.840   9.861   1.457  0.3730 -0.6058 -1.7048
  478MOL0     O62965   8.347   2.121   8.681 -0.5757 -0.0043  0.2470
  478MOL0     C62966   8.366   1.997   8.684 -0.1561  0.1862  0.0593
  478MOL0     O62967   8.478   1.926   8.706  0.6139  0.4904 -0.0845
  478MOL0     C62968   8.586   1.994   8.738  0.9389 -0.6257  0.2294
  478MOL0     C62969   8.670   2.049   8.639  0.2579  0.2096 -0.9918
  478MOL0     C62970   8.783   2.116   8.680  1.5130  0.7566  0.2617
  478MOL0     C62971   8.795   2.148   8.810 -0.7769 -0.0107 -0.0643
  478MOL0     O62972   8.901   2.240   8.838  0.3287 -0.3449 -0.6468
  478MOL0     C62973   8.963   2.226   8.968 -0.4377  0.0877  0.8017
  478MOL0     C62974   9.014   2.347   9.017 -1.0640 -0.1269 -0.2952
  478MOL0     C62975   9.096   2.443   8.931 -1.0897  0.3167  0.6517
  478MOL0     C62976   9.233   2.376   8.873 -0.2060 -0.3640  0.2444
  478MOL0     C62977   9.214   2.311   8.728 -0.2056 -0.1868  1.0004
  478MOL0     C62978   9.267   2.167   8.705  0.4732  1.0632  0.2057
  478MOL0     C62979   9.207   2.121   8.568  0.5980 -0.6720  0.1044
  478MOL0     C62980   9.230   1.976   8.544  0.0747 -0.0430  0.2834
  478MOL0     N62981   9.173   1.892   8.643  1.5272  0.6903 -0.4777
  478MOL0     C62982   9.043   1.879   8.680  0.3051  0.2904 -0.2750
  478MOL0     C62983   9.051   1.786   8.781 -0.8127  0.7058  0.4614
  478MOL0     C62984   8.927   1.724   8.846  0.6518  0.3496  0.5224
  478MOL0     C62985   8.835   1.639   8.756 -0.5072 -1.0037 -0.0844
  478MOL0     C62986   8.895   1.543   8.651 -0.5130  0.8785 -0.0774
  478MOL0     C62987   8.790   1.437   8.597  0.3360 -0.1205  0.5368
  478MOL0     O62988   8.667   1.506   8.574  0.3571 -0.2455  0.4724
  478MOL0     C62989   8.647   1.600   8.473 -0.1080 -0.4774 -0.5229
  478MOL0     C62990   8.712   1.605   8.345 -0.0916  0.8369 -0.7793
  478MOL0     C62991   8.674   1.709   8.249  0.0909 -0.3498  0.1861
  478MOL0     C62992   8.555   1.785   8.281 -1.1494  0.2282 -0.2576
  478MOL0     C62993   8.508   1.881   8.188 -0.0425 -0.3740 -0.3350
  478MOL0     O62994   8.517   1.841   8.050  0.1606  0.0580 -0.3947
  478MOL0     C62995   8.439   1.920   7.966  0.8250  0.1746 -1.2487
  478MOL0     C62996   8.327   1.870   7.906 -0.4556 -0.2179  0.7114
  478MOL0     C62997   8.259   1.943   7.806 -0.3116  0.2146 -0.3869
  478MOL0     C62998   8.312   2.064   7.759 -0.4317  0.2714 -0.6623
  478MOL0     O62999   8.257   2.140   7.662  0.5742 -0.1162 -0.5526
  478MOL0     C63000   8.232   2.061   7.534  0.0154 -0.3439 -0.6545
  478MOL0     C63001   8.225   2.156   7.415  0.6280 -0.8359 -0.2757
  478MOL0     C63002   8.155   2.093   7.296 -1.1525 -1.7946  0.7519
  478MOL0     C63003   8.140   2.198   7.188 -0.6217  0.1703  0.9316
  478MOL0     C63004   8.088   2.148   7.052 -0.4610 -0.0804  1.0328
  478MOL0     C63005   8.196   2.058   6.978 -0.2512 -0.2950  0.5375
  478MOL0     C63006   8.149   2.037   6.834  1.1658 -0.0902 -0.4115
  478MOL0     C63007   8.254   1.944   6.754 -0.3466 -0.6757 -0.4961
  478MOL0    Cl63008   8.178   1.877   6.616 -0.4326  0.0008  0.0088
  478MOL0     C63009   8.425   2.116   7.830 -0.1315  0.8970  0.6047
  478MOL0     C63010   8.490   2.040   7.932  0.0681  0.7733 -0.2483
  478MOL0     O63011   8.466   1.992   8.232 -0.5515 -0.1661  0.6608
  478MOL0     C63012   8.491   1.770   8.400 -0.6531  0.0164 -0.2563
  478MOL0     C63013   8.540   1.677   8.494  0.3180  0.4228  0.0353
  478MOL0     N63014   9.181   1.728   8.788  0.9059 -0.3099 -0.4407
  478MOL0     N63015   9.247   1.787   8.689 -0.5453 -0.5427  0.2650
  478MOL0     C63016   8.717   2.088   8.910  0.8356 -0.9623 -0.7997
  478MOL0     C63017   8.604   2.012   8.872 -0.2607  0.3463  0.2525
  478MOL0     C63018   8.247   1.912   8.678  0.0057 -0.0101  0.6329
  478MOL0     C63019   8.246   1.786   8.730 -0.0484  0.6549 -0.4551
  478MOL0     C63020   8.127   1.709   8.748  0.3934  0.0858  1.2331
  478MOL0     C63021   8.006   1.768   8.720  1.3390  0.2547 -0.7400
  478MOL0     O63022   7.886   1.699   8.730 -0.6605  0.2015 -0.1936
  478MOL0     C63023   7.885   1.564   8.675  0.2696 -0.4080  0.1788
  478MOL0     C63024   7.743   1.499   8.683  0.2442  0.0841 -0.6513
  478MOL0     C63025   7.736   1.378   8.589  0.1548 -0.2005 -0.0448
  478MOL0     C63026   7.863   1.300   8.585 -1.1866  1.1597  0.0596
  478MOL0     C63027   7.915   1.242   8.708  0.8240 -0.1802 -0.2497
  478MOL0     C63028   7.941   1.209   8.823  0.4041 -0.5672  0.4908
  478MOL0     C63029   7.991   1.902   8.677  0.5472 -0.1339  0.2190
  478MOL0     C63030   8.111   1.976   8.656 -1.2718  0.7111  0.1202
  478MOL0     H63031   8.661   2.020   8.535  2.8853  0.9926 -1.5239
  478MOL0     H63032   8.865   2.145   8.616  1.7259 -1.2036 -0.4199
  478MOL0     H63033   9.045   2.155   8.953 -1.9352 -1.3670 -0.9416
  478MOL0     H63034   8.900   2.175   9.041 -1.5042 -3.3100 -2.2090
  478MOL0     H63035   9.064   2.321   9.111 -0.2535  0.3594 -0.5853
  478MOL0     H63036   8.925   2.399   9.053 -0.1856  0.8430  0.5416
  478MOL0     H63037   9.110   2.539   8.982  2.0474  2.7070 -3.9930
  478MOL0     H63038   9.042   2.476   8.842  2.6105 -3.1867 -3.3535
  478MOL0     H63039   9.314   2.449   8.886 -0.5999  0.0511  0.4336
  478MOL0     H63040   9.266   2.289   8.930 -1.0021 -3.8458 -4.1244
  478MOL0     H63041   9.260   2.380   8.657  0.0995 -0.5931  0.8007
  478MOL0     H63042   9.105   2.310   8.712 -0.1223 -1.8545  0.3315
  478MOL0     H63043   9.230   2.106   8.787 -3.1024  0.5672 -1.5979
  478MOL0     H63044   9.375   2.174   8.690  0.6352 -0.0910  0.7847
  478MOL0     H63045   9.098   2.132   8.570 -0.0584 -4.4866 -2.8186
  478MOL0     H63046   9.249   2.188   8.493 -0.5712 -1.5416 -1.3976
  478MOL0     H63047   9.339   1.963   8.540  0.2339  1.4139 -2.1581
  478MOL0     H63048   9.191   1.942   8.448 -1.3020 -1.2953  1.2445
  478MOL0     H63049   8.949   1.926   8.654 -0.9192 -0.6073  2.2272
  478MOL0     H63050   8.864   1.807   8.877  0.2191  0.3002 -0.2041
  478MOL0     H63051   8.950   1.662   8.933 -0.6683 -2.1198 -0.7781
  478MOL0     H63052   8.778   1.716   8.705  1.4409  1.9029  1.8333
  478MOL0     H63053   8.769   1.579   8.819 -1.9052  2.3104  1.8330
  478MOL0     H63054   8.948   1.592   8.568 -1.4503  0.2965 -1.0343
  478MOL0     H63055   8.980   1.495   8.700  1.1450  3.5333 -0.1281
  478MOL0     H63056   8.761   1.367   8.676  5.6077 -2.0288  1.1265
  478MOL0     H63057   8.827   1.376   8.514  1.8911  2.3835 -0.7281
  478MOL0     H63058   8.777   1.523   8.316 -4.5251 -3.5691  0.5004
  478MOL0     H63059   8.708   1.717   8.146 -0.8600  0.3638 -0.0855
  478MOL0     H63060   8.301   1.770   7.939  1.1066 -0.7153  0.4729
  478MOL0     H63061   8.169   1.917   7.751  0.2155 -0.6034 -0.8896
  478MOL0     H63062   8.139   2.004   7.548 -0.2789  0.3402  0.2499
  478MOL0     H63063   8.314   1.991   7.517  0.1177 -0.1835 -0.8188
  478MOL0     H63064   8.321   2.203   7.394 -0.0631  1.7583  1.8917
  478MOL0     H63065   8.157   2.237   7.443 -1.4815 -1.9192 -1.9573
  478MOL0     H63066   8.052   2.070   7.327 -1.7883  0.7574  0.7449
  478MOL0     H63067   8.202   2.000   7.263  0.4646 -0.0063 -2.4100
  478MOL0     H63068   8.068   2.275   7.218  0.4351  0.5859  2.5563
  478MOL0     H63069   8.240   2.239   7.177  1.0288 -3.5445  0.5044
  478MOL0     H63070   8.076   2.238   6.991 -0.4007 -1.5813 -1.3107
  478MOL0     H63071   7.992   2.097   7.055  0.0201 -1.0103  1.0690
  478MOL0     H63072   8.206   1.960   7.026  1.4346  0.6648  2.2542
  478MOL0     H63073   8.294   2.103   6.963 -0.9281  0.6945 -1.2805
  478MOL0     H63074   8.051   1.987   6.833  0.5621  0.8213  2.8060
  478MOL0     H63075   8.133   2.130   6.780  0.2955  1.1813  1.8898
  478MOL0     H63076   8.287   1.865   6.822 -2.2095  0.0687  1.3872
  478MOL0     H63077   8.339   2.010   6.733 -0.4103 -0.9684 -1.7366
  478MOL0     H63078   8.453   2.218   7.804 -1.8183  2.2184  3.4957
  478MOL0     H63079   8.566   2.080   7.999 -1.8378  1.3834  1.6739
  478MOL0     H63080   8.400   1.826   8.414 -0.1225  0.5632  1.3164
  478MOL0     H63081   8.486   1.670   8.588 -0.0844 -2.1391 -0.3051
  478MOL0     H63082   8.708   2.104   9.017  1.3319  0.5730 -0.9587
  478MOL0     H63083   8.548   1.955   8.946  0.8110 -1.6490 -0.3987
  478MOL0     H63084   8.337   1.733   8.759 -1.1681 -0.7365  0.6565
  478MOL0     H63085   8.126   1.601   8.760  1.2065 -0.2993 -1.5420
  478MOL0     H63086   7.943   1.496   8.738  1.3842 -0.7066 -1.1332
  478MOL0     H63087   7.942   1.574   8.582  2.4651  3.5935  1.6939
  478MOL0     H63088   7.721   1.471   8.787 -0.9028 -1.2766 -1.2130
  478MOL0     H63089   7.662   1.567   8.656  0.3632  1.2980  1.7290
  478MOL0     H63090   7.712   1.406   8.485  0.8768  0.3139 -0.0766
  478MOL0     H63091   7.643   1.332   8.625 -2.5752  5.1234  0.8523
  478MOL0     H63092   7.830   1.222   8.515 -0.8558 -0.5038  1.6775
  478MOL0     H63093   7.944   1.359   8.541 -2.0598  2.8041  0.5771
  478MOL0     H63094   7.972   1.194   8.924 -0.9211  1.3268  1.2587
  478MOL0     H63095   7.893   1.941   8.651 -1.6616 -5.5993 -1.1728
  478MOL0     H63096   8.113   2.083   8.634 -0.8114  0.4227 -1.3284
  479MOL0     O63097   2.355   4.741   2.236 -0.4279 -0.3592  0.0370
  479MOL0     C63098   2.370   4.711   2.356  0.8274  0.4673  0.1131
  479MOL0     O63099   2.461   4.627   2.407 -0.6855 -0.1018 -0.5122
  479MOL0     C63100   2.561   4.585   2.324 -0.1477 -0.7203  0.4524
  479MOL0     C63101   2.607   4.450   2.329 -0.2947 -0.3408 -1.2008
  479MOL0     C63102   2.725   4.416   2.260 -0.3348  0.2508 -0.1119
  479MOL0     C63103   2.804   4.506   2.182  0.2081 -0.2006 -0.1041
  479MOL0     O63104   2.912   4.465   2.112 -0.6014 -0.3123 -0.7010
  479MOL0     C63105   2.966   4.550   2.009  0.6815  0.5369  0.0640
  479MOL0     C63106   3.072   4.477   1.936 -0.0718 -0.4250  0.6532
  479MOL0     C63107   3.038   4.352   1.864 -0.1626  1.2384  0.9677
  479MOL0     C63108   2.948   4.385   1.743 -0.4488 -0.5863  0.4736
  479MOL0     C63109   2.957   4.294   1.620  0.3690 -0.3899 -0.1361
  479MOL0     C63110   2.884   4.165   1.648  0.9720  0.2286 -0.6768
  479MOL0     C63111   2.731   4.175   1.650 -0.4508 -0.5968  0.7428
  479MOL0     C63112   2.666   4.038   1.670  1.4552 -0.1534 -0.0244
  479MOL0     N63113   2.667   3.946   1.560 -0.5324 -1.1713 -0.0752
  479MOL0     C63114   2.566   3.919   1.460  0.0583  0.0231  0.2432
  479MOL0     C63115   2.627   3.840   1.378 -1.1070 -0.2364  0.4965
  479MOL0     C63116   2.564   3.799   1.248 -0.2767  0.6521 -0.2124
  479MOL0     C63117   2.528   3.655   1.245 -0.2802 -0.3368 -0.0013
  479MOL0     C63118   2.449   3.616   1.121  0.1914  0.2251  0.4208
  479MOL0     C63119   2.536   3.583   1.001 -0.2693  0.8110 -0.2718
  479MOL0     O63120   2.457   3.517   0.905 -0.2364 -0.4405  0.0618
  479MOL0     C63121   2.522   3.446   0.802  0.4727 -0.2976  0.2724
  479MOL0     C63122   2.625   3.504   0.736  0.9888 -0.2378  0.2187
  479MOL0     C63123   2.687   3.434   0.630 -0.2787  0.2484 -1.0493
  479MOL0     C63124   2.635   3.315   0.586 -0.7113  0.1525 -0.1481
  479MOL0     C63125   2.695   3.238   0.477 -0.4011 -0.1987  0.3365
  479MOL0     O63126   2.685   3.105   0.474 -0.2434 -0.0920 -0.0072
  479MOL0     C63127   2.748   3.034   0.374 -0.9204  0.0778  0.5375
  479MOL0     C63128   2.881   2.977   0.377  0.4842 -0.1897  0.0365
  479MOL0     C63129   2.925   2.884   0.276  1.1047 -0.6183 -0.2375
  479MOL0     C63130   2.836   2.857   0.175  0.5279  0.9392  0.0588
  479MOL0     O63131   2.856   2.765   0.073  0.2022  0.4230  0.4912
  479MOL0     C63132   2.950   2.820  -0.022 -0.6181  0.3690  0.9865
  479MOL0     C63133   2.885   2.897  -0.131  0.1830  0.4340 -0.7903
  479MOL0     C63134   2.938   2.899  -0.277  0.1130  0.0476  0.8897
  479MOL0     C63135   2.920   2.769  -0.364  0.5202 -0.2071 -0.8885
  479MOL0     C63136   2.989   2.794  -0.506 -0.3354 -0.6458  0.5378
  479MOL0     C63137   2.927   2.723  -0.627 -0.1409 -0.5431  0.0619
  479MOL0     C63138   2.974   2.576  -0.651 -0.5081 -0.1581  0.0452
  479MOL0     C63139   3.130   2.577  -0.671 -0.1673  0.8746  0.1117
  479MOL0    Cl63140   3.191   2.423  -0.731 -0.5337  0.3614  0.1256
  479MOL0     C63141   2.706   2.914   0.165 -0.5354  1.0293 -0.9560
  479MOL0     C63142   2.666   2.999   0.265  0.4551  1.2143 -0.4372
  479MOL0     O63143   2.762   3.305   0.398  1.3429  0.2931  0.2452
  479MOL0     C63144   2.519   3.255   0.641  0.3203  0.1401 -0.5841
  479MOL0     C63145   2.461   3.328   0.753  0.0550  0.5426  0.9616
  479MOL0     N63146   2.757   3.827   1.413  0.5082 -0.7972 -0.6544
  479MOL0     N63147   2.787   3.890   1.521 -0.8139  0.4121 -0.6497
  479MOL0     C63148   2.753   4.626   2.177 -1.2219 -1.4436 -1.0419
  479MOL0     C63149   2.640   4.668   2.245  0.2733  0.5365 -0.0666
  479MOL0     C63150   2.292   4.797   2.454 -0.1510  0.3147 -0.6885
  479MOL0     C63151   2.195   4.896   2.401 -0.0486  0.2372  0.1654
  479MOL0     C63152   2.127   4.979   2.494  0.3726 -0.5307 -0.0125
  479MOL0     C63153   2.127   4.949   2.631 -0.0237 -0.5065 -0.5338
  479MOL0     O63154   2.038   5.029   2.701  0.1565 -0.4898  0.1231
  479MOL0     C63155   2.057   5.041   2.841  0.0956  0.3484 -0.5871
  479MOL0     C63156   1.973   5.158   2.891 -0.3520 -0.7085  0.3187
  479MOL0     C63157   2.053   5.292   2.858 -0.3341 -0.5709 -0.0948
  479MOL0     C63158   2.132   5.350   2.976  0.0738 -0.4241  0.3761
  479MOL0     C63159   2.070   5.334   3.109  0.1040  0.4279  0.0290
  479MOL0     C63160   2.018   5.323   3.217 -0.6801  1.0482 -0.7084
  479MOL0     C63161   2.201   4.846   2.677 -1.0479 -0.6561  0.4280
  479MOL0     C63162   2.288   4.777   2.593 -0.8375  0.1318 -0.0433
  479MOL0     H63163   2.536   4.383   2.375  1.0575 -0.7575  0.3722
  479MOL0     H63164   2.763   4.314   2.267 -1.9012 -0.2777  1.4177
  479MOL0     H63165   3.003   4.644   2.051  1.8393 -0.3781  1.1619
  479MOL0     H63166   2.875   4.566   1.950 -1.0055 -0.4807  2.2432
  479MOL0     H63167   3.158   4.456   2.001 -0.4278  0.5579  1.4670
  479MOL0     H63168   3.114   4.542   1.859  0.3795 -1.6833 -0.1845
  479MOL0     H63169   2.986   4.277   1.925  1.1808 -0.3869  0.2005
  479MOL0     H63170   3.131   4.306   1.829 -0.2920  0.3397  1.7427
  479MOL0     H63171   2.843   4.397   1.774  0.1048  0.1656  2.1821
  479MOL0     H63172   2.975   4.484   1.704  2.7149 -0.9930  1.4117
  479MOL0     H63173   3.061   4.270   1.600  1.0942 -0.1194  2.8690
  479MOL0     H63174   2.916   4.348   1.533  4.5055 -0.8898 -2.6475
  479MOL0     H63175   2.933   4.142   1.743  1.7145  2.5236 -0.4600
  479MOL0     H63176   2.923   4.100   1.569  0.6819  0.2471 -0.8378
  479MOL0     H63177   2.699   4.231   1.738 -1.6851 -2.8128  1.7864
  479MOL0     H63178   2.707   4.221   1.554  3.2675  1.8953  0.7891
  479MOL0     H63179   2.563   4.052   1.703  1.6995 -0.4866  0.9108
  479MOL0     H63180   2.718   3.990   1.753  1.9797 -2.0584 -1.3832
  479MOL0     H63181   2.463   3.951   1.467  0.0064 -0.2856  0.9247
  479MOL0     H63182   2.638   3.819   1.171  0.4991 -1.2726 -0.0201
  479MOL0     H63183   2.471   3.856   1.237 -1.6018 -1.6394 -1.7498
  479MOL0     H63184   2.469   3.636   1.335 -1.0504  0.6258 -0.2794
  479MOL0     H63185   2.619   3.594   1.249  0.6981  1.1102  2.2030
  479MOL0     H63186   2.382   3.534   1.151 -0.6895  0.5383 -0.6158
  479MOL0     H63187   2.370   3.684   1.087 -0.8825 -0.9223  0.4990
  479MOL0     H63188   2.622   3.518   1.023  0.8786  1.5954 -2.1731
  479MOL0     H63189   2.581   3.677   0.968  2.2082  0.6066  2.1809
  479MOL0     H63190   2.664   3.600   0.769 -0.2654 -0.2416  1.9056
  479MOL0     H63191   2.790   3.454   0.603 -0.7817  1.2463 -2.2948
  479MOL0     H63192   2.943   2.990   0.465 -1.0135  2.3806  0.8541
  479MOL0     H63193   3.027   2.846   0.271  0.8843 -1.2040 -0.3301
  479MOL0     H63194   3.001   2.731  -0.061 -1.7823  0.1920 -0.2064
  479MOL0     H63195   3.027   2.879   0.028  1.0031 -0.1088 -0.8095
  479MOL0     H63196   2.900   2.999  -0.095 -0.5219  0.2610  0.0063
  479MOL0     H63197   2.777   2.884  -0.128  0.3244 -0.7543 -0.1036
  479MOL0     H63198   3.045   2.914  -0.261 -0.0743  0.3338  1.9338
  479MOL0     H63199   2.889   2.987  -0.318  0.1511  1.3335  3.4211
  479MOL0     H63200   2.954   2.679  -0.313 -3.9000 -2.5997 -1.6644
  479MOL0     H63201   2.816   2.736  -0.370  1.3466 -3.2064 -0.3106
  479MOL0     H63202   3.096   2.786  -0.487  0.8536  1.8500 -3.7427
  479MOL0     H63203   2.977   2.902  -0.521 -1.9863 -1.0733 -1.7896
  479MOL0     H63204   2.955   2.779  -0.717 -1.7060 -3.3910 -2.4089
  479MOL0     H63205   2.819   2.738  -0.627  0.1115  1.5111  1.0075
  479MOL0     H63206   2.935   2.514  -0.571 -3.4781  1.3531 -0.1058
  479MOL0     H63207   2.920   2.524  -0.731 -2.3243 -0.9033  1.6797
  479MOL0     H63208   3.176   2.594  -0.573 -0.4256  1.0218  0.2097
  479MOL0     H63209   3.173   2.659  -0.729  1.6913  0.0649  0.2671
  479MOL0     H63210   2.630   2.889   0.091  0.9787 -1.7655 -1.6823
  479MOL0     H63211   2.558   3.011   0.266  0.4181  1.2984  2.1451
  479MOL0     H63212   2.475   3.165   0.600  1.0403 -1.6114  2.1746
  479MOL0     H63213   2.377   3.280   0.802  1.1148 -1.7477  0.6805
  479MOL0     H63214   2.803   4.704   2.121 -0.8367 -0.8123  0.1307
  479MOL0     H63215   2.618   4.774   2.251  0.1176  0.7235 -2.6663
  479MOL0     H63216   2.185   4.908   2.294 -0.7848 -1.1646  0.0428
  479MOL0     H63217   2.059   5.058   2.464  1.6356  0.7512  0.3981
  479MOL0     H63218   2.161   5.050   2.872  0.0780 -1.7985  0.3181
  479MOL0     H63219   2.020   4.949   2.887 -0.9057  0.2150 -1.6178
  479MOL0     H63220   1.874   5.166   2.845 -0.1435 -0.0550 -0.0301
  479MOL0     H63221   1.950   5.151   2.998  0.5683  2.8954  0.8525
  479MOL0     H63222   1.967   5.357   2.838 -1.7579 -2.2067  0.4204
  479MOL0     H63223   2.110   5.284   2.765  0.1442 -2.8457  0.3160
  479MOL0     H63224   2.226   5.295   2.974  1.4901  1.8607  0.1827
  479MOL0     H63225   2.144   5.457   2.953 -1.4445 -0.5708 -1.3181
  479MOL0     H63226   1.954   5.337   3.302  0.0868 -0.5089  0.1620
  479MOL0     H63227   2.205   4.811   2.780  0.7603  0.4790  0.7831
  479MOL0     H63228   2.351   4.703   2.641 -2.6984  1.9052  6.1299
  480MOL0     O63229   6.432   1.478  11.012 -0.4949  0.1877  0.7749
  480MOL0     C63230   6.378   1.456  10.904  0.4352 -0.4097  0.5508
  480MOL0     O63231   6.260   1.379  10.888  0.1124 -0.5306 -0.5696
  480MOL0     C63232   6.202   1.334  10.999 -0.0295  0.3055  1.3225
  480MOL0     C63233   6.252   1.228  11.077  0.6281 -0.4847 -0.1015
  480MOL0     C63234   6.190   1.184  11.202 -1.4608  0.4744  0.3899
  480MOL0     C63235   6.060   1.241  11.227 -1.0580 -0.6963 -1.3098
  480MOL0     O63236   5.991   1.229  11.343  0.5631  0.0703 -0.7439
  480MOL0     C63237   6.027   1.136  11.445 -0.1638  0.0811  0.1324
  480MOL0     C63238   5.903   1.090  11.529  0.5871 -0.7076  0.6444
  480MOL0     C63239   5.814   1.201  11.572 -0.6844 -0.8625  1.2674
  480MOL0     C63240   5.728   1.167  11.695 -0.0110 -0.8624 -0.2340
  480MOL0     C63241   5.637   1.280  11.745  0.1444  0.0289  0.2344
  480MOL0     C63242   5.565   1.242  11.867 -0.3683 -1.0004  0.3123
  480MOL0     C63243   5.492   1.363  11.931  0.4063 -0.6401 -0.2666
  480MOL0     C63244   5.433   1.337  12.074  0.3877 -0.1109  0.7656
  480MOL0     N63245   5.337   1.227  12.069  0.5315  0.2637 -0.2764
  480MOL0     C63246   5.361   1.096  12.051  0.9819  1.0723 -0.2015
  480MOL0     C63247   5.241   1.040  12.054  0.0165 -0.3443  0.0896
  480MOL0     C63248   5.204   0.900  12.046  0.0272  0.1330 -0.2351
  480MOL0     C63249   5.161   0.844  12.183  1.7244 -1.0342  0.3713
  480MOL0     C63250   5.003   0.851  12.200  0.3227  1.1023 -1.1312
  480MOL0     C63251   4.939   0.723  12.157  0.2652  1.0606 -0.2150
  480MOL0     O63252   4.953   0.729  12.013  0.0615 -0.1039  0.0902
  480MOL0     C63253   4.943   0.605  11.943 -0.6108 -0.2271 -1.1691
  480MOL0     C63254   4.904   0.476  11.986 -0.0912  0.0945 -1.1656
  480MOL0     C63255   4.911   0.367  11.897  0.3313  0.1203  0.8026
  480MOL0     C63256   4.946   0.379  11.764  1.0160  0.1411 -0.6962
  480MOL0     C63257   4.964   0.259  11.677 -0.0456 -0.1103  0.4801
  480MOL0     O63258   4.934   0.145  11.739 -0.0238  0.0028  0.0971
  480MOL0     C63259   4.927   0.024  11.676 -0.1079  0.0347  1.6301
  480MOL0     C63260   4.888  -0.081  11.757  0.7219  0.1982 -0.1177
  480MOL0     C63261   4.863  -0.206  11.704  0.3506 -0.1214  0.5699
  480MOL0     C63262   4.898  -0.240  11.571 -0.5296  1.0110  0.0143
  480MOL0     O63263   4.895  -0.367  11.516  0.4390  0.3020 -0.7297
  480MOL0     C63264   4.974  -0.474  11.570  0.2139 -1.0652  0.4991
  480MOL0     C63265   4.931  -0.612  11.512 -0.1865 -0.8216  0.5956
  480MOL0     C63266   4.974  -0.618  11.370  0.0733  0.1665  0.0347
  480MOL0     C63267   4.939  -0.753  11.316  0.3095 -0.5155  1.0292
  480MOL0     C63268   5.025  -0.782  11.189  0.0922  0.4667  0.0542
  480MOL0     C63269   5.005  -0.925  11.126 -0.3467  0.0911  0.0164
  480MOL0     C63270   5.031  -1.031  11.224  0.0967 -0.0401 -0.8540
  480MOL0     C63271   5.079  -1.170  11.175 -0.3247 -0.0486 -0.9692
  480MOL0    Cl63272   5.144  -1.268  11.300 -0.1634  0.1025 -0.0548
  480MOL0     C63273   4.967  -0.151  11.490  0.7259  0.2510 -0.6960
  480MOL0     C63274   4.985  -0.022  11.551  0.2670 -0.0780  0.0804
  480MOL0     O63275   5.027   0.273  11.572 -0.2933 -0.6378 -0.4337
  480MOL0     C63276   4.966   0.514  11.719 -1.1233  0.9925 -0.1202
  480MOL0     C63277   4.961   0.615  11.806 -0.8411  0.1023 -0.5434
  480MOL0     N63278   5.149   1.138  12.042 -0.1252 -1.1125  0.7685
  480MOL0     N63279   5.205   1.249  12.054 -0.9443  0.2319 -0.0043
  480MOL0     C63280   6.010   1.332  11.139  1.1149  0.0633 -0.2666
  480MOL0     C63281   6.072   1.386  11.030 -0.4910  0.5815  0.0940
  480MOL0     C63282   6.435   1.522  10.784  0.8790 -0.0966  0.3671
  480MOL0     C63283   6.392   1.509  10.654  1.0705  0.8855  1.0243
  480MOL0     C63284   6.444   1.578  10.549 -0.4304 -0.2033 -0.1086
  480MOL0     C63285   6.563   1.659  10.564 -0.4184  0.5343  0.0392
  480MOL0     O63286   6.642   1.704  10.464 -0.8968 -0.9516 -0.5603
  480MOL0     C63287   6.601   1.685  10.326  0.6639 -0.1800  1.1419
  480MOL0     C63288   6.648   1.553  10.258 -0.1638 -0.1577 -0.4366
  480MOL0     C63289   6.647   1.560  10.099 -0.4203  0.2230 -0.0702
  480MOL0     C63290   6.505   1.554  10.043  0.0264  0.8144 -0.2135
  480MOL0     C63291   6.426   1.439  10.099 -0.2983  0.0555 -0.3465
  480MOL0     C63292   6.379   1.346  10.161  0.3959 -0.0973 -1.1224
  480MOL0     C63293   6.611   1.667  10.697  0.4794 -1.0128  0.4472
  480MOL0     C63294   6.551   1.604  10.807 -0.2005  0.6549  0.5144
  480MOL0     H63295   6.348   1.185  11.051  0.0599 -0.4531 -2.4375
  480MOL0     H63296   6.245   1.109  11.257  3.0501  1.4435 -2.2868
  480MOL0     H63297   6.096   1.170  11.522  0.5645 -2.2224  0.5913
  480MOL0     H63298   6.055   1.037  11.406 -1.7553 -0.0805 -0.6972
  480MOL0     H63299   5.928   1.045  11.626  1.1902 -2.0908 -0.1320
  480MOL0     H63300   5.839   1.025  11.470 -1.0965  1.1222  0.3304
  480MOL0     H63301   5.739   1.211  11.492  0.3215 -1.5142  0.2164
  480MOL0     H63302   5.868   1.295  11.590 -1.4198 -0.1011 -0.2466
  480MOL0     H63303   5.656   1.085  11.685  1.6171 -2.3310 -0.3817
  480MOL0     H63304   5.789   1.142  11.783  1.8985  2.0568 -0.5801
  480MOL0     H63305   5.559   1.303  11.672 -1.0107 -0.3443  1.3274
  480MOL0     H63306   5.701   1.365  11.772 -1.8711  0.7528  3.1591
  480MOL0     H63307   5.635   1.203  11.942  1.0980  0.4049 -0.2748
  480MOL0     H63308   5.488   1.167  11.848 -2.9683  1.1155  1.8811
  480MOL0     H63309   5.572   1.436  11.948  2.6378 -3.0829  0.3975
  480MOL0     H63310   5.421   1.409  11.862  1.7897  0.2271 -1.1787
  480MOL0     H63311   5.381   1.419  12.125 -1.8794 -2.5233  2.5916
  480MOL0     H63312   5.520   1.314  12.136  2.0724 -0.9975 -1.7589
  480MOL0     H63313   5.451   1.035  12.052 -1.6131 -3.2581 -1.9688
  480MOL0     H63314   5.293   0.843  12.019 -0.1741 -1.0805  1.4651
  480MOL0     H63315   5.137   0.884  11.961 -1.2796 -1.8872  1.0786
  480MOL0     H63316   5.194   0.910  12.263 -4.1227  1.3905  1.2815
  480MOL0     H63317   5.201   0.743  12.200 -0.3646 -1.9850  0.0443
  480MOL0     H63318   4.980   0.853  12.307  1.7407 -1.3097 -0.7121
  480MOL0     H63319   4.962   0.936  12.145  0.0149  0.8867 -1.2434
  480MOL0     H63320   4.834   0.720  12.188  0.0181  0.3086 -1.0656
  480MOL0     H63321   4.995   0.639  12.199 -2.3530 -0.0281  1.3132
  480MOL0     H63322   4.884   0.459  12.091  0.3814  1.0928 -0.9067
  480MOL0     H63323   4.902   0.271  11.946 -1.5134  0.7564  1.7873
  480MOL0     H63324   4.872  -0.050  11.860 -0.6604  0.6492 -0.4362
  480MOL0     H63325   4.811  -0.281  11.765 -1.8745  0.2018 -0.8135
  480MOL0     H63326   4.942  -0.480  11.675  0.0108  0.3339  0.5282
  480MOL0     H63327   5.081  -0.459  11.554  0.4739 -0.0893  2.7352
  480MOL0     H63328   4.824  -0.622  11.528 -0.2642 -2.2161 -0.5825
  480MOL0     H63329   4.988  -0.686  11.568  0.5602 -1.3344 -0.7919
  480MOL0     H63330   5.083  -0.607  11.368  0.1150  0.2689  1.5132
  480MOL0     H63331   4.926  -0.539  11.312 -0.9729  2.4061  3.5910
  480MOL0     H63332   4.960  -0.822  11.397 -1.8437 -4.4406 -1.4206
  480MOL0     H63333   4.831  -0.753  11.298  0.6673 -1.3143 -1.6519
  480MOL0     H63334   5.127  -0.786  11.228  1.4118 -0.7085 -3.1578
  480MOL0     H63335   5.032  -0.707  11.111 -2.0971  1.2707  0.5638
  480MOL0     H63336   5.087  -0.923  11.054  0.5058 -0.8755  0.9427
  480MOL0     H63337   4.907  -0.935  11.077 -0.7739 -0.2405  0.9178
  480MOL0     H63338   5.113  -1.002  11.289 -2.9231  2.2017  2.3554
  480MOL0     H63339   4.944  -1.042  11.289  0.3930 -0.9512 -0.6021
  480MOL0     H63340   5.153  -1.147  11.098 -0.6003 -1.0916 -1.5551
  480MOL0     H63341   4.988  -1.209  11.131 -2.1674  2.1954  0.5799
  480MOL0     H63342   5.004  -0.192  11.397 -0.8814 -2.7191 -0.1536
  480MOL0     H63343   5.029   0.050  11.483 -1.9060 -0.2934 -1.6849
  480MOL0     H63344   4.996   0.543  11.619 -4.9045  0.6857 -1.4983
  480MOL0     H63345   4.982   0.717  11.773 -1.9744  0.8363  0.9149
  480MOL0     H63346   5.913   1.376  11.158  0.5961 -1.7658  1.6583
  480MOL0     H63347   6.027   1.463  10.968 -0.8853 -0.8001 -1.3713
  480MOL0     H63348   6.305   1.447  10.635  1.2613  0.8387  0.2834
  480MOL0     H63349   6.392   1.557  10.456 -1.9172  1.3327  0.3393
  480MOL0     H63350   6.651   1.769  10.277  2.3216 -0.5412  2.1601
  480MOL0     H63351   6.494   1.683  10.305  0.9846  1.1795 -1.0507
  480MOL0     H63352   6.752   1.537  10.289  0.2805  0.8243 -1.3829
  480MOL0     H63353   6.581   1.477  10.301 -1.9949  2.2412  1.2152
  480MOL0     H63354   6.695   1.472  10.055 -2.5830 -1.2727  0.4202
  480MOL0     H63355   6.698   1.653  10.072 -1.9853  0.8515 -1.0177
  480MOL0     H63356   6.453   1.650  10.043 -0.3332  0.6466 -1.9797
  480MOL0     H63357   6.497   1.533   9.936 -1.2819  1.7013 -0.3102
  480MOL0     H63358   6.341   1.261  10.213  2.7419  0.6077  2.0191
  480MOL0     H63359   6.694   1.734  10.718 -0.3797  0.2092  0.0295
  480MOL0     H63360   6.581   1.633  10.907 -1.5281  0.4624  0.9942
  481MOL0     O63361   9.928   4.790   9.168  0.6357  0.1099  0.2208
  481MOL0     C63362   9.989   4.821   9.069 -0.2355  1.2948  0.6164
  481MOL0     O63363   9.942   4.910   8.971 -0.0275 -0.3877  0.5333
  481MOL0     C63364   9.815   4.948   8.950 -0.1963 -0.0640  0.8673
  481MOL0     C63365   9.805   5.030   8.838  0.2643  1.7411  0.5190
  481MOL0     C63366   9.673   5.075   8.793 -1.3964 -0.7156 -0.2103
  481MOL0     C63367   9.566   5.035   8.863  0.0306 -0.4483 -0.5578
  481MOL0     O63368   9.439   5.089   8.836 -0.3163 -0.6401  0.1146
  481MOL0     C63369   9.325   5.039   8.903 -0.3365 -0.3185  0.2919
  481MOL0     C63370   9.199   5.110   8.862 -0.2684 -0.1836 -0.5420
  481MOL0     C63371   9.085   5.009   8.888  0.1131 -0.0588 -0.8439
  481MOL0     C63372   8.957   5.084   8.889  0.2780 -0.5349  0.7675
  481MOL0     C63373   8.835   5.013   8.826  0.1910 -0.3278  0.4023
  481MOL0     C63374   8.707   5.075   8.875 -0.5396  0.0522  0.2878
  481MOL0     C63375   8.590   4.983   8.833  0.9031  0.0858  0.5749
  481MOL0     C63376   8.462   5.056   8.786  0.2759 -0.3459 -0.5950
  481MOL0     N63377   8.375   4.965   8.718 -0.2733 -0.1829  0.3065
  481MOL0     C63378   8.384   4.946   8.572 -0.0303  0.3253 -0.6506
  481MOL0     C63379   8.312   4.834   8.546 -0.0788  0.3540 -0.2836
  481MOL0     C63380   8.275   4.768   8.413  0.4780 -0.9097  0.6922
  481MOL0     C63381   8.254   4.876   8.305  0.2579  0.2151  0.3236
  481MOL0     C63382   8.126   4.965   8.331 -0.1052  0.0499  0.5280
  481MOL0     C63383   7.996   4.891   8.368  0.2299  0.2596 -0.8522
  481MOL0     O63384   7.882   4.981   8.344  0.2985  0.2366  0.4709
  481MOL0     C63385   7.808   4.966   8.231  0.5561  0.2462  0.2425
  481MOL0     C63386   7.858   4.906   8.111  0.7318  0.2543 -1.0219
  481MOL0     C63387   7.791   4.890   7.992  0.4036  0.1837  1.1386
  481MOL0     C63388   7.658   4.941   7.987 -1.4363  0.7340 -0.5058
  481MOL0     C63389   7.574   4.933   7.860 -0.1078  0.2585  0.1366
  481MOL0     O63390   7.455   4.996   7.851 -0.1100 -0.5594 -0.2406
  481MOL0     C63391   7.383   4.963   7.739  0.2661 -0.6725 -0.6776
  481MOL0     C63392   7.300   4.852   7.749 -1.2269 -0.2479 -0.3676
  481MOL0     C63393   7.215   4.813   7.643  0.3587  0.2090  0.8204
  481MOL0     C63394   7.223   4.888   7.527 -0.1516 -0.5166  0.6927
  481MOL0     O63395   7.166   4.853   7.407 -0.8263  0.2467  0.6022
  481MOL0     C63396   7.060   4.754   7.409  0.1056 -0.0055  0.0449
  481MOL0     C63397   6.933   4.808   7.479  0.2337  0.3316  0.8124
  481MOL0     C63398   6.905   4.944   7.429  0.7227  0.0280 -0.5997
  481MOL0     C63399   6.753   4.970   7.443 -0.2106 -0.6331  0.0372
  481MOL0     C63400   6.725   5.104   7.373  0.3926 -0.0856  0.1349
  481MOL0     C63401   6.586   5.169   7.378 -0.3365 -0.3006 -0.1637
  481MOL0     C63402   6.565   5.277   7.267 -0.2808  0.5980 -0.8341
  481MOL0     C63403   6.665   5.391   7.277  0.4281  1.1034 -0.3664
  481MOL0    Cl63404   6.633   5.517   7.160  0.1649 -0.0671 -0.5635
  481MOL0     C63405   7.305   5.004   7.525 -1.1976  0.2620 -0.3892
  481MOL0     C63406   7.388   5.042   7.630  0.8754 -0.2118 -0.5577
  481MOL0     O63407   7.630   4.872   7.766  0.2356 -0.5201 -0.0929
  481MOL0     C63408   7.604   5.012   8.102  0.0688 -0.2273 -0.2817
  481MOL0     C63409   7.673   5.017   8.219 -0.3767 -0.0913 -0.4142
  481MOL0     N63410   8.266   4.789   8.664 -0.2103  0.1534 -0.9917
  481MOL0     N63411   8.299   4.863   8.765 -0.3936 -0.3131  0.1096
  481MOL0     C63412   9.580   4.948   8.972 -0.4649 -1.1154  0.3548
  481MOL0     C63413   9.700   4.910   9.021 -0.8037  0.4189  0.0543
  481MOL0     C63414  10.126   4.764   9.056  0.0096 -0.4679  0.2652
  481MOL0     C63415  10.174   4.682   9.163 -0.2710 -0.6765 -0.4656
  481MOL0     C63416  10.293   4.611   9.157 -1.3951 -0.4668  0.0256
  481MOL0     C63417  10.382   4.634   9.057  0.0099  0.3755  0.5475
  481MOL0     O63418  10.497   4.559   9.053  0.3484 -0.3199  0.6426
  481MOL0     C63419  10.600   4.652   9.111 -0.1691 -0.1603 -0.1703
  481MOL0     C63420  10.600   4.648   9.264  0.0030 -0.1351  0.7446
  481MOL0     C63421  10.720   4.715   9.332  0.6932 -0.0548 -0.2093
  481MOL0     C63422  10.785   4.835   9.267 -0.3226 -0.5909  1.3513
  481MOL0     C63423  10.695   4.947   9.273 -0.5516 -0.5667  0.6506
  481MOL0     C63424  10.612   5.038   9.280 -0.6064  0.4768  0.9061
  481MOL0     C63425  10.339   4.706   8.947 -0.4029  0.1681 -0.3251
  481MOL0     C63426  10.212   4.773   8.942  0.8111 -0.2212  0.3776
  481MOL0     H63427   9.894   5.058   8.783 -0.2175  0.4813 -0.9793
  481MOL0     H63428   9.685   5.139   8.706  3.3366 -1.6289 -0.4981
  481MOL0     H63429   9.343   5.051   9.010  1.0492 -0.7619  0.1308
  481MOL0     H63430   9.328   4.930   8.890 -1.9581 -0.4275  0.5762
  481MOL0     H63431   9.201   5.137   8.756  0.4121 -2.7521 -1.2500
  481MOL0     H63432   9.194   5.206   8.915  2.3217 -0.5900  0.5817
  481MOL0     H63433   9.087   4.954   8.982 -0.9064  0.5116 -0.4731
  481MOL0     H63434   9.084   4.927   8.815 -0.7298  0.6132 -1.6135
  481MOL0     H63435   8.936   5.098   8.995  1.2687 -0.5911  0.9792
  481MOL0     H63436   8.974   5.179   8.837  0.4503 -0.3723  1.1177
  481MOL0     H63437   8.833   4.905   8.843 -1.4264 -0.7806 -2.0600
  481MOL0     H63438   8.844   5.033   8.718  2.3358 -3.7443 -0.2119
  481MOL0     H63439   8.693   5.177   8.835 -3.2586  0.2478  1.5250
  481MOL0     H63440   8.704   5.091   8.983 -0.0962  1.9269  0.0656
  481MOL0     H63441   8.617   4.911   8.755 -3.7002 -1.9077  0.4708
  481MOL0     H63442   8.557   4.916   8.913 -2.9759 -0.5250 -1.2599
  481MOL0     H63443   8.488   5.138   8.719 -3.0380  1.4951  0.1746
  481MOL0     H63444   8.404   5.097   8.869 -1.4492 -0.0415 -1.9042
  481MOL0     H63445   8.443   5.011   8.508  1.7642 -0.8098 -0.2129
  481MOL0     H63446   8.185   4.708   8.431  1.3574 -3.3921 -2.3702
  481MOL0     H63447   8.354   4.697   8.389  1.0619 -1.5986  4.1463
  481MOL0     H63448   8.228   4.833   8.208  0.7110  2.0787 -0.6609
  481MOL0     H63449   8.347   4.931   8.291  0.3575  0.1167  0.5960
  481MOL0     H63450   8.136   5.055   8.392 -3.4925  1.2806 -0.5116
  481MOL0     H63451   8.115   5.005   8.229  3.4517 -2.4142 -1.0452
  481MOL0     H63452   8.007   4.877   8.476  3.8689 -0.5115 -1.2161
  481MOL0     H63453   7.979   4.795   8.318 -1.1279 -0.5045  0.9630
  481MOL0     H63454   7.961   4.872   8.109  0.7420  0.2816 -2.4831
  481MOL0     H63455   7.846   4.848   7.909 -0.8164 -1.7419  1.2349
  481MOL0     H63456   7.299   4.786   7.835 -0.3088  0.7932  0.4679
  481MOL0     H63457   7.153   4.726   7.665 -2.5551  1.9708  0.1332
  481MOL0     H63458   7.087   4.664   7.465  0.3738 -1.1323 -1.7879
  481MOL0     H63459   7.042   4.715   7.308  3.7410 -1.9340 -0.0363
  481MOL0     H63460   6.938   4.801   7.588  2.8387  2.6944  0.9552
  481MOL0     H63461   6.850   4.742   7.451  1.6363 -1.6945  1.2720
  481MOL0     H63462   6.934   4.948   7.323 -0.3958 -0.6203 -0.9574
  481MOL0     H63463   6.961   5.017   7.487  0.3717 -0.3567  0.2306
  481MOL0     H63464   6.696   4.889   7.398 -3.1595  0.9317  0.6925
  481MOL0     H63465   6.728   4.976   7.550 -2.0586 -0.6317 -0.3772
  481MOL0     H63466   6.756   5.094   7.269 -2.2192  0.1322 -0.7222
  481MOL0     H63467   6.790   5.179   7.419  0.0360 -1.2797  2.8242
  481MOL0     H63468   6.571   5.210   7.478 -0.0639 -3.4356  1.2680
  481MOL0     H63469   6.506   5.096   7.360 -1.6258  0.7860  0.9515
  481MOL0     H63470   6.566   5.238   7.165 -2.9987  1.9769 -1.4903
  481MOL0     H63471   6.465   5.322   7.272 -2.0188 -3.0351  1.3253
  481MOL0     H63472   6.764   5.352   7.253 -0.1701 -1.1451  0.5211
  481MOL0     H63473   6.657   5.432   7.379 -2.7070  1.9445 -0.8239
  481MOL0     H63474   7.300   5.066   7.436  1.1843 -0.0547 -0.8037
  481MOL0     H63475   7.457   5.125   7.619  1.2103 -0.3166  0.6376
  481MOL0     H63476   7.515   5.070   8.083 -0.5622 -0.8102  0.8409
  481MOL0     H63477   7.640   5.088   8.295  2.6303  0.5300  0.4305
  481MOL0     H63478   9.494   4.927   9.035 -0.2050  0.9856  1.4787
  481MOL0     H63479   9.716   4.844   9.105 -2.3234  0.8117  0.6753
  481MOL0     H63480  10.108   4.664   9.247 -0.7134  0.3860 -0.5629
  481MOL0     H63481  10.319   4.534   9.229  1.6085  2.4551  2.3886
  481MOL0     H63482  10.596   4.754   9.070 -0.3545  0.0000  0.2354
  481MOL0     H63483  10.695   4.610   9.077 -1.7004 -3.2446 -0.9320
  481MOL0     H63484  10.506   4.696   9.294  0.8815  1.5606  0.9314
  481MOL0     H63485  10.605   4.540   9.280  3.5693 -0.0636  0.7908
  481MOL0     H63486  10.798   4.650   9.372 -1.1814 -0.0534  3.9214
  481MOL0     H63487  10.669   4.761   9.417 -1.4323 -1.8774 -0.4115
  481MOL0     H63488  10.875   4.865   9.321  0.9699  2.5098 -2.0540
  481MOL0     H63489  10.807   4.833   9.159 -2.2828  0.9437  0.8663
  481MOL0     H63490  10.536   5.113   9.286 -0.7418  0.4985 -0.7263
  481MOL0     H63491  10.390   4.714   8.852  4.9672 -0.9627  2.0885
  481MOL0     H63492  10.186   4.831   8.854  0.2097  0.9977  1.3263
  482MOL0     O63493   3.908   6.416   0.873 -0.7867  0.2129 -0.1791
  482MOL0     C63494   4.002   6.360   0.813  0.0892 -0.2975 -0.6058
  482MOL0     O63495   4.135   6.380   0.834 -0.3799 -0.6057  0.6683
  482MOL0     C63496   4.167   6.463   0.931  0.1605 -0.0392  0.5715
  482MOL0     C63497   4.238   6.584   0.906  0.5128  0.7243 -0.6138
  482MOL0     C63498   4.259   6.669   1.007 -0.1540 -0.9017  0.1812
  482MOL0     C63499   4.240   6.638   1.141  0.3059 -0.3779 -0.1805
  482MOL0     O63500   4.238   6.725   1.257  0.2480  0.1089  0.9799
  482MOL0     C63501   4.313   6.843   1.256 -0.0861 -0.3303  0.6186
  482MOL0     C63502   4.331   6.880   1.402 -0.6234  0.3189  0.6551
  482MOL0     C63503   4.432   6.994   1.420 -0.5396 -0.2666 -0.1750
  482MOL0     C63504   4.462   7.010   1.572  0.1661  0.0505 -0.1272
  482MOL0     C63505   4.524   7.149   1.606 -0.0194  0.0940 -0.1755
  482MOL0     C63506   4.536   7.152   1.756  0.4658  0.1219  0.2341
  482MOL0     C63507   4.509   7.290   1.812  0.0379 -0.0461  0.4986
  482MOL0     C63508   4.626   7.391   1.812 -1.1246  0.6438  0.2502
  482MOL0     N63509   4.581   7.519   1.862 -0.7592 -0.2409 -0.0537
  482MOL0     C63510   4.493   7.593   1.791  1.2826  0.3156  0.0510
  482MOL0     C63511   4.493   7.715   1.852  0.2043  0.8263  0.5991
  482MOL0     C63512   4.415   7.841   1.829  0.1880 -0.3480 -1.0721
  482MOL0     C63513   4.303   7.844   1.940 -0.3339  0.8644  0.6322
  482MOL0     C63514   4.220   7.975   1.923  0.0260  0.1784  0.0926
  482MOL0     C63515   4.085   7.965   2.003 -0.4979 -0.0783 -0.0266
  482MOL0     O63516   4.098   8.032   2.133  0.5139  0.1169  0.0081
  482MOL0     C63517   4.047   8.164   2.143  0.3066  0.8600 -0.1954
  482MOL0     C63518   4.036   8.253   2.040  1.4601 -0.1579  0.6147
  482MOL0     C63519   4.002   8.385   2.078 -0.7602 -1.8224  0.2548
  482MOL0     C63520   3.998   8.431   2.210 -0.2176  0.3786 -0.4821
  482MOL0     C63521   3.988   8.576   2.245 -0.7783  0.6221  0.6238
  482MOL0     O63522   3.969   8.600   2.375 -0.0176 -0.5335  0.3202
  482MOL0     C63523   3.961   8.738   2.413 -0.6058 -0.5139  0.0785
  482MOL0     C63524   3.902   8.843   2.342  0.2767  0.3341 -0.5109
  482MOL0     C63525   3.903   8.975   2.396 -0.0029  0.0340  0.8068
  482MOL0     C63526   3.972   9.011   2.508 -0.1414  0.8908  1.6024
  482MOL0     O63527   3.992   9.135   2.562  0.7940 -0.2516  0.7183
  482MOL0     C63528   3.878   9.210   2.562 -0.4086 -0.1520  0.2442
  482MOL0     C63529   3.901   9.345   2.632 -0.3244 -0.7610 -0.0091
  482MOL0     C63530   3.967   9.462   2.547 -0.0300 -0.9910  0.8401
  482MOL0     C63531   3.958   9.594   2.622 -0.2097  0.1468 -0.0963
  482MOL0     C63532   4.054   9.690   2.548 -0.4522  0.1230 -0.0367
  482MOL0     C63533   4.046   9.832   2.603  0.2767  0.3062  0.4126
  482MOL0     C63534   4.029   9.939   2.485  0.2831 -0.5728 -0.3489
  482MOL0     C63535   4.167   9.950   2.405  0.3900 -0.1498 -0.1229
  482MOL0    Cl63536   4.190  10.122   2.370  0.0376  0.1174  0.2112
  482MOL0     C63537   4.048   8.906   2.568 -0.6078  0.0061 -0.1016
  482MOL0     C63538   4.045   8.774   2.514  0.3639 -0.1474 -0.5304
  482MOL0     O63539   4.018   8.655   2.153  0.4448  0.1569 -0.7176
  482MOL0     C63540   3.985   8.340   2.305 -0.3438  0.2254 -0.6470
  482MOL0     C63541   4.010   8.204   2.277  0.3602  0.1839  0.4338
  482MOL0     N63542   4.598   7.709   1.951 -0.4504  0.0415  0.2152
  482MOL0     N63543   4.642   7.591   1.959  0.3470 -0.7409  1.5276
  482MOL0     C63544   4.194   6.513   1.169  1.1550 -0.6019  0.1540
  482MOL0     C63545   4.151   6.426   1.062 -0.0594  0.3263 -0.9382
  482MOL0     C63546   3.967   6.256   0.724  0.0135 -0.1098 -0.2705
  482MOL0     C63547   4.047   6.138   0.704 -0.1011  0.3386  0.9454
  482MOL0     C63548   4.008   6.040   0.614  0.5416  0.4226  1.0096
  482MOL0     C63549   3.888   6.054   0.540  1.0671  0.4177 -0.4970
  482MOL0     O63550   3.855   5.956   0.456  0.4654  0.1881 -0.4538
  482MOL0     C63551   3.725   5.937   0.410  1.1571 -0.2792 -0.2107
  482MOL0     C63552   3.654   5.869   0.531  0.0008  0.2122  0.0581
  482MOL0     C63553   3.726   5.746   0.575  0.1126 -1.0757 -0.6066
  482MOL0     C63554   3.657   5.688   0.694 -0.0860  0.5623  0.0260
  482MOL0     C63555   3.746   5.576   0.748  0.4680 -0.8439 -0.2051
  482MOL0     C63556   3.828   5.495   0.795 -0.7543  0.0945  0.1441
  482MOL0     C63557   3.813   6.170   0.563  0.5732  0.2817  0.1773
  482MOL0     C63558   3.850   6.272   0.646 -0.4174 -0.5785  0.3992
  482MOL0     H63559   4.263   6.623   0.808  3.8409 -3.2116 -1.5818
  482MOL0     H63560   4.300   6.762   0.969 -3.2669  0.4628 -0.0965
  482MOL0     H63561   4.273   6.921   1.191  1.2550 -0.4825 -0.4209
  482MOL0     H63562   4.412   6.815   1.219 -1.0594 -2.5837 -0.4255
  482MOL0     H63563   4.369   6.794   1.457 -2.9646 -3.6387 -3.2343
  482MOL0     H63564   4.240   6.915   1.452  0.0273  3.5360 -0.1467
  482MOL0     H63565   4.375   7.080   1.384 -0.7971 -0.3004  0.1466
  482MOL0     H63566   4.527   6.970   1.371  0.4295  2.6243  0.0557
  482MOL0     H63567   4.371   7.005   1.633 -0.2793  2.4447 -0.4682
  482MOL0     H63568   4.526   6.929   1.607 -0.9791 -0.3102  1.2258
  482MOL0     H63569   4.458   7.232   1.579  0.3125 -0.0723 -1.5631
  482MOL0     H63570   4.617   7.150   1.549  0.1839 -4.3216 -0.2710
  482MOL0     H63571   4.635   7.122   1.791  1.7515  0.1950 -2.9980
  482MOL0     H63572   4.455   7.092   1.799  0.8845 -1.5490 -1.1809
  482MOL0     H63573   4.416   7.331   1.771  0.8139  0.8504 -0.4441
  482MOL0     H63574   4.486   7.278   1.919 -2.8721 -0.9449 -0.1401
  482MOL0     H63575   4.662   7.420   1.713 -0.4762  1.2995  0.6640
  482MOL0     H63576   4.712   7.347   1.863 -2.0714 -1.2719  0.2574
  482MOL0     H63577   4.425   7.554   1.716 -0.9175 -1.3874  2.6983
  482MOL0     H63578   4.362   7.833   1.734  0.4317  0.5566 -1.2910
  482MOL0     H63579   4.480   7.929   1.830 -1.6542  1.0780 -0.5543
  482MOL0     H63580   4.356   7.834   2.035  0.0671  0.4692  0.3662
  482MOL0     H63581   4.244   7.753   1.924  0.5653  0.2902  0.5375
  482MOL0     H63582   4.284   8.054   1.962 -1.2581  0.4841  1.6699
  482MOL0     H63583   4.198   7.992   1.817 -2.1025 -0.1446  0.4421
  482MOL0     H63584   4.047   7.870   2.042  1.1344  0.6641  3.7820
  482MOL0     H63585   4.002   8.009   1.947  0.4921  0.3867 -1.1665
  482MOL0     H63586   4.053   8.222   1.937 -2.3780 -0.0465 -0.2071
  482MOL0     H63587   3.994   8.454   1.995 -0.9251  1.6486  2.9355
  482MOL0     H63588   3.836   8.811   2.262  0.8353  1.1630 -1.3242
  482MOL0     H63589   3.865   9.053   2.331 -0.3789 -0.6278  0.2229
  482MOL0     H63590   3.793   9.154   2.601 -0.2309 -2.0615 -1.8880
  482MOL0     H63591   3.860   9.233   2.456  4.9716  0.9031 -0.7658
  482MOL0     H63592   3.965   9.328   2.718 -2.1566 -0.8858  1.3821
  482MOL0     H63593   3.809   9.381   2.679 -0.9956  0.8043 -2.3089
  482MOL0     H63594   3.917   9.461   2.449  3.6298  1.1532 -1.3151
  482MOL0     H63595   4.072   9.444   2.521  0.4655  1.4802  0.8682
  482MOL0     H63596   3.853   9.626   2.619 -0.2134  0.0687 -1.1021
  482MOL0     H63597   3.996   9.585   2.724 -1.2195  0.6546  0.3420
  482MOL0     H63598   4.043   9.676   2.440 -3.9877 -1.1388  0.3511
  482MOL0     H63599   4.158   9.660   2.563  0.1218  2.9413  2.5579
  482MOL0     H63600   4.141   9.858   2.651  1.0809 -0.2093 -0.8393
  482MOL0     H63601   3.964   9.844   2.675  0.5132  0.8078  0.6043
  482MOL0     H63602   3.934   9.910   2.439  0.2870 -2.5505  0.7870
  482MOL0     H63603   4.010  10.031   2.541  0.2972  2.4121 -4.7692
  482MOL0     H63604   4.145   9.906   2.308 -2.3060  1.3363 -0.2656
  482MOL0     H63605   4.255   9.911   2.457  0.8209 -1.8346 -1.9922
  482MOL0     H63606   4.121   8.934   2.643 -1.1161 -0.9836  0.7946
  482MOL0     H63607   4.102   8.695   2.561  1.6777  1.0125 -0.0737
  482MOL0     H63608   3.972   8.360   2.411 -0.2262  3.5860 -1.1544
  482MOL0     H63609   4.018   8.125   2.351  2.4563 -2.2133 -2.1499
  482MOL0     H63610   4.164   6.467   1.264 -0.1280  1.5716  0.8791
  482MOL0     H63611   4.114   6.328   1.090 -0.5679  0.7697 -0.0119
  482MOL0     H63612   4.143   6.137   0.755  0.3682  2.7543  0.2255
  482MOL0     H63613   4.069   5.951   0.604  1.6824  1.2812  0.0700
  482MOL0     H63614   3.729   5.881   0.316 -0.0828  2.1669 -1.8176
  482MOL0     H63615   3.680   6.035   0.394  0.8679 -0.1363  1.2915
  482MOL0     H63616   3.643   5.934   0.618  0.8757 -1.7265  1.7072
  482MOL0     H63617   3.558   5.830   0.496  0.0827  0.8929 -0.9706
  482MOL0     H63618   3.829   5.774   0.595  0.1489 -0.1529 -1.9903
  482MOL0     H63619   3.718   5.672   0.495 -2.3734  1.1926 -2.6405
  482MOL0     H63620   3.633   5.764   0.769 -1.2059  2.9186 -2.5392
  482MOL0     H63621   3.563   5.633   0.682  0.4767 -0.3361 -0.3448
  482MOL0     H63622   3.900   5.434   0.845 -0.3101  0.6908  0.2403
  482MOL0     H63623   3.726   6.189   0.501  1.4163  2.4457 -0.4719
  482MOL0     H63624   3.793   6.365   0.651 -1.8498 -1.5084  2.5213
  483MOL0     O63625   3.108   9.967   1.564  0.3996 -0.2554  0.1455
  483MOL0     C63626   3.207   9.921   1.612  0.2840 -0.4705 -0.1588
  483MOL0     O63627   3.274   9.977   1.722  0.3576 -0.7735 -0.1896
  483MOL0     C63628   3.225  10.099   1.781 -1.0861  0.6002 -0.0705
  483MOL0     C63629   3.089  10.117   1.812 -0.7858 -0.1599  0.8685
  483MOL0     C63630   3.033  10.240   1.854  0.6086 -0.2576  0.2435
  483MOL0     C63631   3.122  10.339   1.893  0.1939  0.4455 -0.4706
  483MOL0     O63632   3.072  10.448   1.962 -0.2023  0.3798  0.2149
  483MOL0     C63633   3.153  10.506   2.069 -0.1244  1.1647  0.0988
  483MOL0     C63634   3.078  10.614   2.139  0.2355 -0.6537 -0.6858
  483MOL0     C63635   2.926  10.588   2.148 -0.5801 -0.0726 -0.0159
  483MOL0     C63636   2.892  10.454   2.220  0.0239  0.2200 -0.1898
  483MOL0     C63637   2.760  10.428   2.291 -0.0202  0.0255  0.3388
  483MOL0     C63638   2.752  10.278   2.326 -1.5482 -0.2017 -0.2428
  483MOL0     C63639   2.625  10.246   2.402  0.1821  0.6088  0.3756
  483MOL0     C63640   2.633  10.269   2.550  1.0567  0.5996  0.7572
  483MOL0     N63641   2.517  10.211   2.619  0.0615  0.2076 -0.5626
  483MOL0     C63642   2.527  10.100   2.701 -0.7446  1.0420  0.5431
  483MOL0     C63643   2.402  10.074   2.745 -0.5289 -0.6212 -0.4444
  483MOL0     C63644   2.365   9.952   2.831 -0.5991  0.1078 -0.2271
  483MOL0     C63645   2.219   9.968   2.898  0.2564  0.5315 -0.9806
  483MOL0     C63646   2.178   9.852   2.991  0.3575  0.4971  0.3632
  483MOL0     C63647   2.127   9.731   2.928  0.7717  0.3532  1.0457
  483MOL0     O63648   2.212   9.672   2.825 -0.1904 -0.2947 -0.0100
  483MOL0     C63649   2.176   9.681   2.696 -0.3200  0.0520 -0.0207
  483MOL0     C63650   2.273   9.631   2.604  0.2616 -0.3053 -0.2439
  483MOL0     C63651   2.249   9.621   2.463  0.5308  1.0417 -0.0371
  483MOL0     C63652   2.121   9.657   2.423 -0.0885 -0.1146 -0.3570
  483MOL0     C63653   2.088   9.627   2.276 -0.0069  0.7513 -0.0083
  483MOL0     O63654   2.194   9.557   2.208 -0.0429  0.6965 -0.0611
  483MOL0     C63655   2.163   9.530   2.081 -0.8006  0.0596 -0.5627
  483MOL0     C63656   2.210   9.602   1.968 -0.4621 -0.1245 -0.0701
  483MOL0     C63657   2.226   9.541   1.842  0.1818 -0.5853  0.1073
  483MOL0     C63658   2.184   9.409   1.817  1.0148  0.8774  0.2906
  483MOL0     O63659   2.200   9.365   1.690  0.4909 -0.3218 -0.0702
  483MOL0     C63660   2.104   9.418   1.600 -0.4920 -0.6142 -0.6443
  483MOL0     C63661   2.167   9.453   1.474 -0.1562 -0.0572  0.5820
  483MOL0     C63662   2.262   9.571   1.474  0.1407 -0.2480 -0.7357
  483MOL0     C63663   2.360   9.558   1.358 -0.7280 -0.7089 -0.0593
  483MOL0     C63664   2.292   9.542   1.225  0.2294  0.1872 -0.2190
  483MOL0     C63665   2.382   9.502   1.105 -0.4446  0.6356  0.5890
  483MOL0     C63666   2.314   9.493   0.964 -0.1022  0.6025  0.7342
  483MOL0     C63667   2.237   9.366   0.926  0.2774 -0.4061  0.9630
  483MOL0    Cl63668   2.340   9.228   0.916  0.5991  0.4274  0.3009
  483MOL0     C63669   2.117   9.349   1.926  1.0984  0.5809 -0.1673
  483MOL0     C63670   2.104   9.407   2.051  1.1399  0.2364  0.4874
  483MOL0     O63671   1.981   9.658   2.223  0.6010  0.4019 -1.1079
  483MOL0     C63672   2.028   9.701   2.509  0.3545  0.1120 -0.5408
  483MOL0     C63673   2.058   9.723   2.640 -0.5985  1.0603 -0.8729
  483MOL0     N63674   2.317  10.181   2.693 -0.4313 -0.0057 -0.1812
  483MOL0     N63675   2.395  10.261   2.623  0.3219  0.3158  0.5642
  483MOL0     C63676   3.255  10.325   1.864 -0.2293 -0.2251 -0.1580
  483MOL0     C63677   3.313  10.201   1.811  0.0341  0.2440  0.1276
  483MOL0     C63678   3.273   9.799   1.556 -0.7366 -0.1492 -0.8554
  483MOL0     C63679   3.374   9.727   1.623  0.0128 -0.0602 -0.1629
  483MOL0     C63680   3.421   9.608   1.566 -0.2065 -0.3092 -0.3527
  483MOL0     C63681   3.364   9.554   1.447  0.4746 -0.4695  0.3915
  483MOL0     O63682   3.401   9.447   1.375  0.2548 -0.5392 -0.1697
  483MOL0     C63683   3.491   9.351   1.431 -0.7405  0.4399  0.1723
  483MOL0     C63684   3.424   9.243   1.522 -0.7985 -0.6262  0.7680
  483MOL0     C63685   3.523   9.146   1.579 -0.0815  0.6046 -0.3868
  483MOL0     C63686   3.566   9.028   1.484  0.9846 -0.5787 -0.6390
  483MOL0     C63687   3.656   9.071   1.377  0.6817 -1.0635  0.1067
  483MOL0     C63688   3.737   9.107   1.286 -0.4276  0.3452 -0.4826
  483MOL0     C63689   3.261   9.626   1.377 -0.4872 -0.8383 -0.7957
  483MOL0     C63690   3.220   9.741   1.446 -0.9194 -0.0054  0.7106
  483MOL0     H63691   3.016  10.045   1.778 -2.5823  1.1108  1.8599
  483MOL0     H63692   2.926  10.246   1.869  0.8012  0.4842  1.4857
  483MOL0     H63693   3.244  10.552   2.028  1.0058 -1.2159 -0.2732
  483MOL0     H63694   3.192  10.432   2.141 -0.8549  2.0476  1.4512
  483MOL0     H63695   3.088  10.702   2.074 -0.7584  0.1818  0.2582
  483MOL0     H63696   3.111  10.624   2.243  2.4343 -2.2211 -1.1593
  483MOL0     H63697   2.863  10.575   2.059 -1.3084  1.2889  0.2727
  483MOL0     H63698   2.890  10.683   2.189 -0.9612  1.4671 -3.5149
  483MOL0     H63699   2.902  10.381   2.139  2.5213  1.1662 -0.8511
  483MOL0     H63700   2.974  10.439   2.291  2.0463  0.4683 -2.3516
  483MOL0     H63701   2.678  10.455   2.224  0.3684  0.9138  0.2076
  483MOL0     H63702   2.740  10.491   2.378 -2.3207  1.2809 -1.0010
  483MOL0     H63703   2.837  10.255   2.391 -2.7379 -0.3834  1.2945
  483MOL0     H63704   2.765  10.212   2.239 -2.8599 -0.8556  0.0308
  483MOL0     H63705   2.537  10.293   2.358  0.4956  0.4918 -0.4041
  483MOL0     H63706   2.614  10.137   2.399  2.4316  0.3612 -1.1611
  483MOL0     H63707   2.623  10.375   2.574 -2.6864  0.5635  0.0186
  483MOL0     H63708   2.723  10.212   2.575  0.7094 -0.8045 -0.9718
  483MOL0     H63709   2.619  10.045   2.720 -0.0026  2.9662  2.9069
  483MOL0     H63710   2.444   9.923   2.901 -1.4746 -0.3080  0.6138
  483MOL0     H63711   2.361   9.870   2.759 -0.8779 -0.5489  0.5277
  483MOL0     H63712   2.147   9.974   2.817 -1.2402  1.2270  0.3484
  483MOL0     H63713   2.210  10.063   2.953  2.1408 -0.2689  0.8661
  483MOL0     H63714   2.264   9.818   3.051  0.4217  1.6092  0.9204
  483MOL0     H63715   2.106   9.882   3.068  2.3281  2.7217  1.4732
  483MOL0     H63716   2.026   9.761   2.897  1.5957  1.1222 -1.0206
  483MOL0     H63717   2.116   9.664   3.014  1.6510  0.2662  1.0953
  483MOL0     H63718   2.369   9.603   2.646  0.3367  1.3412  0.7716
  483MOL0     H63719   2.321   9.573   2.397 -1.1234 -0.5849 -0.7442
  483MOL0     H63720   2.249   9.703   1.957 -2.3427  0.3637 -4.6036
  483MOL0     H63721   2.288   9.588   1.766  2.4110 -3.0922  0.2123
  483MOL0     H63722   2.055   9.510   1.633 -1.4196 -0.7087 -1.7230
  483MOL0     H63723   2.025   9.345   1.581  0.6890 -1.2820 -3.5533
  483MOL0     H63724   2.089   9.467   1.399 -0.1790 -0.5127  0.5202
  483MOL0     H63725   2.218   9.363   1.437 -1.0561 -1.4923  2.6382
  483MOL0     H63726   2.313   9.581   1.570  1.1214 -0.0958 -1.2587
  483MOL0     H63727   2.210   9.663   1.444  2.9999  2.1839  1.1749
  483MOL0     H63728   2.429   9.643   1.364 -2.3020  0.5521  0.9424
  483MOL0     H63729   2.431   9.477   1.377  1.1744  0.4512 -1.7307
  483MOL0     H63730   2.233   9.631   1.203 -1.8419 -0.8288  0.9699
  483MOL0     H63731   2.209   9.475   1.248  1.0436 -0.3808  1.2042
  483MOL0     H63732   2.419   9.403   1.133  0.8456  0.9838  0.2028
  483MOL0     H63733   2.467   9.570   1.113  0.0839 -0.0106  0.5629
  483MOL0     H63734   2.240   9.573   0.959 -0.2416  0.6829  3.1652
  483MOL0     H63735   2.393   9.509   0.889 -0.3919 -0.6764  0.1283
  483MOL0     H63736   2.188   9.387   0.830 -1.5408 -1.7756  1.5311
  483MOL0     H63737   2.148   9.356   0.989 -0.4828  0.5439  0.0823
  483MOL0     H63738   2.099   9.242   1.923  0.3330  0.7209 -2.1372
  483MOL0     H63739   2.069   9.341   2.130 -1.8147 -2.0003 -2.4188
  483MOL0     H63740   1.930   9.730   2.473  0.4558 -0.5946 -1.4211
  483MOL0     H63741   1.976   9.761   2.700  1.2590  0.3837  2.3016
  483MOL0     H63742   3.328  10.405   1.871  2.2444 -2.3904  0.3575
  483MOL0     H63743   3.417  10.189   1.781 -0.5577  0.9514 -2.4336
  483MOL0     H63744   3.429   9.762   1.710  1.2266 -0.7460 -0.6414
  483MOL0     H63745   3.508   9.565   1.613  1.7812  0.4177 -3.0957
  483MOL0     H63746   3.581   9.386   1.481  0.4344 -2.0183 -0.0398
  483MOL0     H63747   3.524   9.300   1.340 -1.1411  1.4351 -0.5421
  483MOL0     H63748   3.372   9.296   1.603 -1.8867 -2.2352  1.1755
  483MOL0     H63749   3.346   9.193   1.466  0.9851 -0.9250 -1.5775
  483MOL0     H63750   3.477   9.099   1.667  1.4832 -1.1909 -0.4562
  483MOL0     H63751   3.608   9.199   1.621  0.8828 -1.5649  0.5523
  483MOL0     H63752   3.621   8.953   1.542  1.0639 -0.6983 -0.8708
  483MOL0     H63753   3.480   8.979   1.439 -0.0153  1.5812 -1.2080
  483MOL0     H63754   3.808   9.141   1.213 -2.4415 -0.9284 -3.2269
  483MOL0     H63755   3.222   9.612   1.277 -1.7305  1.5275 -0.7233
  483MOL0     H63756   3.132   9.791   1.407  0.1007  1.2353 -0.0618
  484MOL0     O63757   7.143   7.698   4.538 -0.2902  1.2335  0.6638
  484MOL0     C63758   7.264   7.656   4.535 -0.3629  0.0425 -0.5823
  484MOL0     O63759   7.371   7.732   4.575  0.1918 -0.5083 -0.4694
  484MOL0     C63760   7.372   7.875   4.589 -0.1907  0.3081  0.3720
  484MOL0     C63761   7.471   7.937   4.673  0.4332 -0.0239  0.1417
  484MOL0     C63762   7.478   8.076   4.692 -0.5637 -0.0054 -0.0476
  484MOL0     C63763   7.391   8.160   4.618  0.6581  0.4212  0.0774
  484MOL0     O63764   7.401   8.298   4.660 -0.7492  1.1883  0.2005
  484MOL0     C63765   7.392   8.402   4.565  0.1017 -0.0487 -0.0111
  484MOL0     C63766   7.418   8.544   4.624  0.4558  0.0327  0.1963
  484MOL0     C63767   7.337   8.555   4.752  0.7731 -1.1645 -0.0338
  484MOL0     C63768   7.329   8.700   4.794  0.0826 -0.8381 -0.5971
  484MOL0     C63769   7.258   8.725   4.935 -1.4812 -0.1059  0.7427
  484MOL0     C63770   7.118   8.666   4.924 -0.3248 -1.0854  0.2914
  484MOL0     C63771   7.004   8.743   4.998  0.1363 -0.5454  0.1793
  484MOL0     C63772   7.030   8.728   5.150 -0.3522  0.4184 -0.6570
  484MOL0     N63773   6.932   8.797   5.228 -0.1374 -0.5970 -0.3066
  484MOL0     C63774   6.834   8.730   5.296  0.1239 -0.5452  0.1880
  484MOL0     C63775   6.743   8.831   5.334  0.1632  0.1522  0.5039
  484MOL0     C63776   6.609   8.816   5.408  0.1351  0.7083  0.6486
  484MOL0     C63777   6.627   8.869   5.546 -0.0926  0.2273 -0.7339
  484MOL0     C63778   6.493   8.885   5.611  0.3467 -0.1319  0.2021
  484MOL0     C63779   6.430   9.024   5.599  0.4563 -0.6726  0.3160
  484MOL0     O63780   6.330   9.045   5.692  0.2006 -0.4989  0.0267
  484MOL0     C63781   6.207   9.088   5.650  0.8603  0.2292 -0.2038
  484MOL0     C63782   6.142   9.189   5.722 -0.5116  0.5330 -0.3892
  484MOL0     C63783   6.026   9.254   5.669  0.8530  0.2334  0.1673
  484MOL0     C63784   5.967   9.203   5.552  0.3891 -0.9047  0.6138
  484MOL0     C63785   5.856   9.276   5.498 -0.6403 -0.1721  0.1681
  484MOL0     O63786   5.839   9.406   5.540  0.4401 -0.0366  0.8583
  484MOL0     C63787   5.744   9.478   5.480  0.3507 -0.5148 -0.2625
  484MOL0     C63788   5.612   9.484   5.528 -0.7702 -1.6048  1.1880
  484MOL0     C63789   5.499   9.539   5.457 -0.5356  0.1944 -1.7910
  484MOL0     C63790   5.527   9.607   5.337  0.8738 -0.3548 -1.1817
  484MOL0     O63791   5.417   9.637   5.253 -0.0123  0.2400 -0.4600
  484MOL0     C63792   5.416   9.740   5.151 -0.4837  0.0787 -0.0884
  484MOL0     C63793   5.419   9.871   5.239 -0.5400  0.2796 -0.7584
  484MOL0     C63794   5.339   9.982   5.176 -0.4146  0.1661  1.0394
  484MOL0     C63795   5.275  10.072   5.283  0.3886 -0.4749  0.0679
  484MOL0     C63796   5.244  10.209   5.216  0.4197  0.2175 -0.0073
  484MOL0     C63797   5.111  10.204   5.137  0.2230  0.2562 -0.1328
  484MOL0     C63798   5.063  10.350   5.104 -0.7506  0.8343  0.2760
  484MOL0     C63799   5.164  10.439   5.035  0.1348 -0.8683 -0.1314
  484MOL0    Cl63800   5.119  10.616   5.013 -0.3233  0.3550  0.1884
  484MOL0     C63801   5.659   9.617   5.292 -0.9281 -0.3625  0.3055
  484MOL0     C63802   5.770   9.547   5.359 -0.2588 -0.0274 -0.1880
  484MOL0     O63803   5.790   9.225   5.411  0.4845 -0.0533  0.2285
  484MOL0     C63804   6.016   9.091   5.495 -0.0701 -0.1073  0.7886
  484MOL0     C63805   6.141   9.042   5.539 -0.8014 -0.2591 -0.2632
  484MOL0     N63806   6.793   8.955   5.282 -0.3487  0.5900 -0.1973
  484MOL0     N63807   6.916   8.932   5.238 -0.2204 -0.2206  0.6864
  484MOL0     C63808   7.297   8.102   4.534 -0.2182  0.0794 -0.1228
  484MOL0     C63809   7.286   7.958   4.517  0.3516 -0.1537 -1.8259
  484MOL0     C63810   7.290   7.523   4.478 -0.0498 -0.3898  0.1453
  484MOL0     C63811   7.195   7.424   4.475 -0.3479 -0.2500  0.8020
  484MOL0     C63812   7.228   7.301   4.431  0.0489  0.1340 -0.5819
  484MOL0     C63813   7.357   7.262   4.392 -0.0949 -0.4420  0.1325
  484MOL0     O63814   7.363   7.137   4.347  0.3612  0.4468  0.6659
  484MOL0     C63815   7.492   7.062   4.345 -0.5930  0.0550 -0.4951
  484MOL0     C63816   7.546   7.044   4.208  0.2522  0.8720 -0.1442
  484MOL0     C63817   7.619   7.174   4.164  0.5135 -0.0600 -0.4220
  484MOL0     C63818   7.725   7.156   4.062  1.3188 -0.2629  0.5745
  484MOL0     C63819   7.846   7.100   4.113 -0.4180  0.2636  0.3298
  484MOL0     C63820   7.950   7.058   4.162 -0.4924  0.3198  0.1826
  484MOL0     C63821   7.457   7.363   4.391  0.8026  0.1584  0.1029
  484MOL0     C63822   7.420   7.492   4.429  0.1677  0.1645 -0.3164
  484MOL0     H63823   7.547   7.870   4.714  1.8366  1.6715  0.4310
  484MOL0     H63824   7.537   8.123   4.771 -0.1826 -0.1364 -0.2532
  484MOL0     H63825   7.288   8.394   4.532 -1.0238 -0.2778  3.2544
  484MOL0     H63826   7.471   8.410   4.489  0.3034  2.8674  0.3802
  484MOL0     H63827   7.375   8.615   4.553 -1.0654 -0.5582  0.4843
  484MOL0     H63828   7.525   8.565   4.628 -0.1120  3.4287  0.0511
  484MOL0     H63829   7.386   8.502   4.834 -0.1173 -2.3425 -0.2415
  484MOL0     H63830   7.237   8.519   4.726  0.2243  0.8875 -1.0031
  484MOL0     H63831   7.434   8.726   4.810  0.2974 -1.7706 -0.4010
  484MOL0     H63832   7.274   8.743   4.709 -1.8595 -3.4809 -0.8292
  484MOL0     H63833   7.274   8.827   4.971 -0.2287 -0.5406  1.5062
  484MOL0     H63834   7.312   8.672   5.014  1.3858  3.1907  1.2455
  484MOL0     H63835   7.133   8.563   4.958  1.1831 -2.5380 -4.0931
  484MOL0     H63836   7.096   8.669   4.817 -0.6992  3.4287  0.2934
  484MOL0     H63837   6.999   8.847   4.967 -1.3116 -0.6611 -0.0586
  484MOL0     H63838   6.910   8.693   4.974  0.5125 -1.8607  1.2549
  484MOL0     H63839   7.126   8.770   5.182  0.5474 -2.1733  0.3322
  484MOL0     H63840   7.030   8.622   5.176 -2.5758  0.1670 -1.4865
  484MOL0     H63841   6.813   8.624   5.303 -2.0315 -0.3374 -1.6248
  484MOL0     H63842   6.581   8.710   5.418  2.0819 -0.2326 -2.2520
  484MOL0     H63843   6.534   8.867   5.348 -0.5089 -2.7150 -1.8094
  484MOL0     H63844   6.678   8.965   5.534 -1.6903  1.2425  0.0854
  484MOL0     H63845   6.688   8.809   5.615  0.2037 -1.2520 -2.2322
  484MOL0     H63846   6.424   8.804   5.586 -2.5399  2.8301 -2.2739
  484MOL0     H63847   6.512   8.873   5.718  2.0773  1.4407  0.1167
  484MOL0     H63848   6.392   9.052   5.500 -1.2187  2.1805  1.6552
  484MOL0     H63849   6.503   9.106   5.598 -1.5627  1.2221 -0.5371
  484MOL0     H63850   6.181   9.225   5.816 -0.5919 -1.3672  0.4144
  484MOL0     H63851   5.997   9.343   5.724  1.8975  0.2536  0.7224
  484MOL0     H63852   5.598   9.422   5.617  5.0026  0.5542  4.1148
  484MOL0     H63853   5.402   9.521   5.501  0.8859  0.0506  1.6054
  484MOL0     H63854   5.328   9.744   5.086  0.6968  4.5505 -1.8114
  484MOL0     H63855   5.500   9.734   5.082 -1.3392 -2.1656 -1.0065
  484MOL0     H63856   5.524   9.898   5.253  0.8200 -3.3981 -2.5186
  484MOL0     H63857   5.368   9.848   5.333  0.0687 -3.6542 -1.2122
  484MOL0     H63858   5.256   9.937   5.122  0.3236 -2.6239  2.0440
  484MOL0     H63859   5.399  10.041   5.106 -0.9594  0.7308  1.0459
  484MOL0     H63860   5.181  10.046   5.332 -0.9492  2.4032 -0.7753
  484MOL0     H63861   5.341  10.070   5.370  1.2890  2.3760 -0.4663
  484MOL0     H63862   5.327  10.241   5.152 -0.1342  2.2666  0.2450
  484MOL0     H63863   5.240  10.278   5.301 -2.6713  0.1584  0.0182
  484MOL0     H63864   5.029  10.160   5.194  1.0506  0.2878  1.1208
  484MOL0     H63865   5.121  10.152   5.041 -2.7584  0.7777 -0.8024
  484MOL0     H63866   4.973  10.339   5.043 -1.1603  0.7472  0.8836
  484MOL0     H63867   5.029  10.393   5.199 -1.0562 -2.5005  1.8367
  484MOL0     H63868   5.189  10.389   4.941  1.7672 -0.4764  0.0717
  484MOL0     H63869   5.251  10.440   5.101 -1.0372 -0.8389  1.4847
  484MOL0     H63870   5.665   9.677   5.202 -3.0760  0.5743  0.6964
  484MOL0     H63871   5.871   9.570   5.324  1.1037 -2.2331  1.9445
  484MOL0     H63872   5.965   9.043   5.412 -2.7499  1.1575  1.5827
  484MOL0     H63873   6.182   8.959   5.482 -1.0770  0.8559 -2.1716
  484MOL0     H63874   7.235   8.175   4.482  1.9381  2.3652  0.3193
  484MOL0     H63875   7.210   7.912   4.454 -1.4834 -2.7225  1.9106
  484MOL0     H63876   7.093   7.436   4.511 -1.8865  1.3009 -3.4300
  484MOL0     H63877   7.141   7.236   4.422 -1.3761  2.2280 -3.3863
  484MOL0     H63878   7.476   6.966   4.394 -0.9766  0.4510  0.1651
  484MOL0     H63879   7.570   7.113   4.402  1.0008 -0.5419 -2.0513
  484MOL0     H63880   7.622   6.966   4.208  0.2380  0.6172  4.3447
  484MOL0     H63881   7.456   7.012   4.153  0.0945 -0.7227  0.9869
  484MOL0     H63882   7.675   7.219   4.246  0.4080  0.0072 -0.3856
  484MOL0     H63883   7.554   7.255   4.128  1.3583  1.2030  0.8093
  484MOL0     H63884   7.681   7.088   3.988  0.4665  2.0925 -1.2184
  484MOL0     H63885   7.748   7.249   4.010  0.8878  1.1964  2.8766
  484MOL0     H63886   8.035   7.021   4.216  0.1394  0.6341 -0.5704
  484MOL0     H63887   7.561   7.352   4.364  0.6027  0.9549 -1.0301
  484MOL0     H63888   7.490   7.575   4.431  1.4708 -0.6210 -4.1894
  485MOL0     O63889   3.119   0.511   3.958 -0.5657 -0.9306 -0.0770
  485MOL0     C63890   3.058   0.617   3.989 -0.2938  1.4632  0.1299
  485MOL0     O63891   3.109   0.738   3.986  0.0502 -0.9561 -0.0563
  485MOL0     C63892   3.243   0.755   3.981 -0.3415 -0.2688  0.7562
  485MOL0     C63893   3.308   0.779   4.102 -0.8555  0.6371 -0.4244
  485MOL0     C63894   3.446   0.785   4.103 -0.2562 -0.1712 -0.6922
  485MOL0     C63895   3.522   0.782   3.988 -0.2241  0.2814 -0.0934
  485MOL0     O63896   3.655   0.806   3.989  0.5936 -0.0912  0.4820
  485MOL0     C63897   3.724   0.895   4.072 -1.1158  1.0564  0.2377
  485MOL0     C63898   3.828   0.959   3.983 -0.6609 -0.5660  1.3580
  485MOL0     C63899   3.922   1.048   4.063 -0.0990  0.8950 -0.6205
  485MOL0     C63900   4.046   0.968   4.107 -0.4156  0.5439 -0.4829
  485MOL0     C63901   4.129   1.040   4.222 -0.7786 -0.1681 -0.0810
  485MOL0     C63902   4.221   1.139   4.157  0.5105 -0.2246 -0.2930
  485MOL0     C63903   4.288   1.240   4.248 -0.2323  0.0287  0.0328
  485MOL0     C63904   4.178   1.337   4.309 -0.9039 -0.6409  0.0080
  485MOL0     N63905   4.092   1.395   4.203 -0.1649 -0.5874  0.6192
  485MOL0     C63906   4.118   1.528   4.147 -0.1844  0.2772  0.3918
  485MOL0     C63907   4.017   1.549   4.072 -0.0197 -0.2417  0.6421
  485MOL0     C63908   3.984   1.689   4.026  0.0604  0.7157 -0.4658
  485MOL0     C63909   3.824   1.707   4.014  0.4918 -0.6944  0.9963
  485MOL0     C63910   3.763   1.633   3.902 -0.3325  0.1540  0.2192
  485MOL0     C63911   3.830   1.663   3.765  0.6500  0.7308  1.2767
  485MOL0     O63912   3.800   1.800   3.734 -0.0242 -0.3231 -0.6973
  485MOL0     C63913   3.876   1.863   3.640 -0.2253 -0.6302 -0.2717
  485MOL0     C63914   3.815   1.946   3.541 -0.9220 -0.0628 -0.2882
  485MOL0     C63915   3.881   2.011   3.449 -0.2502 -0.2270  0.0926
  485MOL0     C63916   4.023   2.014   3.455 -0.9347 -0.3319 -0.0292
  485MOL0     C63917   4.091   2.100   3.362  0.6372 -0.0999  0.2914
  485MOL0     O63918   4.225   2.075   3.333 -0.6062  0.0867  0.5082
  485MOL0     C63919   4.293   2.170   3.260 -1.0831 -0.1008  0.6423
  485MOL0     C63920   4.300   2.301   3.311 -0.0989 -0.6235  0.5601
  485MOL0     C63921   4.371   2.405   3.237 -0.7960  0.3930  0.7866
  485MOL0     C63922   4.433   2.364   3.114  0.2195 -0.7036 -1.3976
  485MOL0     O63923   4.513   2.464   3.056  0.2962 -0.3335 -0.4562
  485MOL0     C63924   4.612   2.424   2.958 -0.2344 -0.5775 -1.2426
  485MOL0     C63925   4.662   2.541   2.868 -0.7727 -0.1244 -0.7981
  485MOL0     C63926   4.699   2.666   2.956  0.3314 -0.0744 -0.4479
  485MOL0     C63927   4.838   2.732   2.900 -0.7386 -1.2006  0.9868
  485MOL0     C63928   4.811   2.804   2.766 -0.3739  1.0410  0.0032
  485MOL0     C63929   4.938   2.846   2.697 -0.2977  0.0403 -0.1344
  485MOL0     C63930   4.928   2.894   2.546  1.4822  0.2996  0.1404
  485MOL0     C63931   5.052   2.907   2.459  0.2561 -1.0472 -0.8288
  485MOL0    Cl63932   5.194   2.968   2.560  0.7661  0.3883  0.0924
  485MOL0     C63933   4.417   2.230   3.067 -0.3898 -0.7716  0.5713
  485MOL0     C63934   4.339   2.141   3.132  0.6431  0.4106 -0.9498
  485MOL0     O63935   4.031   2.191   3.313 -0.6138  0.3174 -0.4966
  485MOL0     C63936   4.100   1.950   3.555  0.9820 -1.2552  0.1021
  485MOL0     C63937   4.025   1.868   3.652  1.4043 -0.4115  0.1458
  485MOL0     N63938   3.937   1.431   4.072 -0.0642  0.9368  0.3579
  485MOL0     N63939   3.968   1.349   4.167  0.3803 -0.4843 -0.1936
  485MOL0     C63940   3.451   0.765   3.866  0.1633  0.5896  0.0445
  485MOL0     C63941   3.318   0.754   3.863 -0.1874 -0.3372  0.4175
  485MOL0     C63942   2.918   0.607   4.006  0.2799  0.6350  0.0013
  485MOL0     C63943   2.846   0.478   3.999  0.1290 -0.6728  0.3256
  485MOL0     C63944   2.711   0.479   4.001 -0.5694  0.2132 -0.2533
  485MOL0     C63945   2.634   0.592   4.028 -0.2456 -2.0062  0.2402
  485MOL0     O63946   2.495   0.595   4.041 -0.7551 -0.8323 -0.2649
  485MOL0     C63947   2.433   0.499   4.122 -0.0080  0.4582  0.1236
  485MOL0     C63948   2.387   0.375   4.048  0.4077  0.3951  0.4000
  485MOL0     C63949   2.287   0.401   3.936  1.2447 -1.3295  0.6093
  485MOL0     C63950   2.171   0.496   3.970  0.1989  0.1234  0.8248
  485MOL0     C63951   2.071   0.444   4.067 -0.1713 -0.1252  0.8574
  485MOL0     C63952   1.987   0.407   4.143 -1.3470 -0.4976 -0.1117
  485MOL0     C63953   2.706   0.719   4.014  0.7361 -0.3956 -0.1082
  485MOL0     C63954   2.845   0.731   4.002  0.7297  1.3325  0.5789
  485MOL0     H63955   3.247   0.773   4.191  0.8205 -0.6639  0.7023
  485MOL0     H63956   3.514   0.788   4.187  3.2610 -2.6503 -3.1651
  485MOL0     H63957   3.763   0.835   4.155 -2.7411 -0.4621 -0.0426
  485MOL0     H63958   3.656   0.966   4.121 -0.7791  0.9982  0.8080
  485MOL0     H63959   3.772   1.027   3.917  0.8708 -2.9645 -2.7659
  485MOL0     H63960   3.881   0.892   3.915 -1.9545 -0.4387  0.1793
  485MOL0     H63961   3.874   1.099   4.148  2.9987 -1.8413  3.1682
  485MOL0     H63962   3.957   1.122   3.990  0.5409  0.4961 -0.7283
  485MOL0     H63963   4.015   0.882   4.167 -1.2853  0.1069 -1.5173
  485MOL0     H63964   4.106   0.937   4.021  3.2485 -1.0692  2.3841
  485MOL0     H63965   4.178   0.958   4.274 -2.1932 -0.7998  0.3069
  485MOL0     H63966   4.065   1.094   4.293 -0.0172  4.8349 -2.7168
  485MOL0     H63967   4.165   1.191   4.079  0.9533  1.6759  0.5963
  485MOL0     H63968   4.303   1.088   4.106  2.1367  1.9919  0.0044
  485MOL0     H63969   4.349   1.183   4.319 -1.2910  2.0935  2.7778
  485MOL0     H63970   4.356   1.298   4.185 -1.2286 -0.7895 -1.8606
  485MOL0     H63971   4.221   1.416   4.372 -0.1007 -1.8588  1.0355
  485MOL0     H63972   4.116   1.278   4.376 -1.2449 -1.1796 -0.7669
  485MOL0     H63973   4.199   1.597   4.167 -1.6423  1.1879  4.0607
  485MOL0     H63974   4.044   1.701   3.936  0.5999 -1.9151 -0.5471
  485MOL0     H63975   4.019   1.761   4.101 -2.4617  0.5481  1.0312
  485MOL0     H63976   3.808   1.815   4.001 -0.4698 -0.9497 -0.1619
  485MOL0     H63977   3.763   1.681   4.101 -3.6206  0.6269 -1.2253
  485MOL0     H63978   3.767   1.526   3.925  1.0032  0.6171  2.3681
  485MOL0     H63979   3.660   1.669   3.897 -0.0896  1.1186  1.6752
  485MOL0     H63980   3.787   1.605   3.683 -1.6206  1.2866  2.0130
  485MOL0     H63981   3.937   1.642   3.773  0.6522  0.8618  1.5988
  485MOL0     H63982   3.708   1.944   3.557 -0.6067  0.8587  2.5653
  485MOL0     H63983   3.818   2.054   3.372 -0.4316 -0.5462  0.0566
  485MOL0     H63984   4.244   2.340   3.396  2.6296  5.2435  0.1714
  485MOL0     H63985   4.386   2.509   3.264 -0.5536 -0.3342  3.7906
  485MOL0     H63986   4.576   2.342   2.895 -0.0858 -2.4331  0.9310
  485MOL0     H63987   4.698   2.391   3.017  1.1655  1.0211 -2.2966
  485MOL0     H63988   4.595   2.567   2.786  1.3616  0.4984 -2.4230
  485MOL0     H63989   4.755   2.506   2.825  1.1295  0.4769  2.4651
  485MOL0     H63990   4.725   2.644   3.060 -3.0915 -0.4054  0.4665
  485MOL0     H63991   4.614   2.734   2.959  0.6663  0.3319  1.7708
  485MOL0     H63992   4.868   2.808   2.973 -1.2978  2.4150 -2.2516
  485MOL0     H63993   4.928   2.670   2.890 -0.9527 -1.2856 -0.6480
  485MOL0     H63994   4.750   2.889   2.799  0.2754  1.3299  0.4746
  485MOL0     H63995   4.748   2.735   2.709 -0.2272  2.1907 -1.6253
  485MOL0     H63996   5.002   2.758   2.683 -3.6270 -3.0069  1.8840
  485MOL0     H63997   4.992   2.917   2.760 -0.2038  2.1676 -2.4560
  485MOL0     H63998   4.861   2.823   2.495  3.9405 -3.3312  1.5105
  485MOL0     H63999   4.878   2.990   2.537  1.8440  0.6690  1.7297
  485MOL0     H64000   5.040   2.974   2.373  0.2273  0.3053  0.1986
  485MOL0     H64001   5.087   2.817   2.407 -0.6006 -0.0952 -3.1992
  485MOL0     H64002   4.466   2.208   2.973  1.3472  2.6742  0.5241
  485MOL0     H64003   4.313   2.041   3.097 -1.3424  0.4263  0.2693
  485MOL0     H64004   4.206   1.970   3.549  0.6612  1.2715  1.3154
  485MOL0     H64005   4.073   1.795   3.716  1.3500  1.6022  2.6046
  485MOL0     H64006   3.490   0.769   3.765  2.4154  1.7128  0.8804
  485MOL0     H64007   3.262   0.760   3.771  0.3036  1.5184  0.1911
  485MOL0     H64008   2.894   0.382   3.988  1.8161  0.2754 -1.1906
  485MOL0     H64009   2.662   0.386   3.977 -0.1014  0.5338 -2.7394
  485MOL0     H64010   2.348   0.539   4.178  1.7927  0.2134  3.2886
  485MOL0     H64011   2.516   0.467   4.186 -0.5891 -1.7163 -0.1510
  485MOL0     H64012   2.472   0.321   4.005 -0.5706  0.1540 -1.3348
  485MOL0     H64013   2.342   0.296   4.108 -1.4830  1.0825 -0.0534
  485MOL0     H64014   2.241   0.311   3.897  0.6097 -0.2607 -1.2526
  485MOL0     H64015   2.347   0.440   3.853  1.4800 -0.7204  1.0523
  485MOL0     H64016   2.203   0.598   3.994  1.2092 -0.0337  0.2127
  485MOL0     H64017   2.102   0.493   3.885 -1.1496  1.1400  1.8255
  485MOL0     H64018   1.897   0.391   4.198 -1.2550 -0.0597  0.1707
  485MOL0     H64019   2.650   0.812   4.027  0.0288 -0.8710  0.2935
  485MOL0     H64020   2.890   0.830   4.000 -2.0428  2.7061 -1.4746
  486MOL0     O64021   8.552   0.075   5.781  0.6582 -0.3670  0.0692
  486MOL0     C64022   8.457   0.117   5.852 -0.7250 -0.8923 -0.5859
  486MOL0     O64023   8.468   0.209   5.962 -0.3085  0.3267 -0.4217
  486MOL0     C64024   8.560   0.311   5.945 -0.2020  0.5304 -0.3431
  486MOL0     C64025   8.649   0.343   5.836 -0.1074  1.0569  0.2803
  486MOL0     C64026   8.739   0.454   5.841 -0.1873  0.0038  0.9857
  486MOL0     C64027   8.739   0.543   5.950  0.0697 -0.0332 -0.5504
  486MOL0     O64028   8.822   0.645   5.962  0.1468  0.3943  0.1680
  486MOL0     C64029   8.859   0.711   5.833 -0.2860  0.2814 -0.7337
  486MOL0     C64030   8.950   0.829   5.875  0.2075  0.2724  1.0746
  486MOL0     C64031   9.004   0.882   5.744 -0.3474 -0.9683  1.6307
  486MOL0     C64032   9.081   1.021   5.764 -0.2001 -0.6198 -0.6940
  486MOL0     C64033   9.132   1.062   5.624  0.6631 -0.3652 -0.0278
  486MOL0     C64034   9.222   1.177   5.629 -0.3000 -0.1708  0.3887
  486MOL0     C64035   9.363   1.126   5.644 -0.2272 -0.1327 -0.4322
  486MOL0     C64036   9.472   1.247   5.670  0.0289  0.6867 -0.2051
  486MOL0     N64037   9.510   1.335   5.558  0.1394 -0.1944 -0.6729
  486MOL0     C64038   9.427   1.436   5.512  0.3257  0.1541  0.6633
  486MOL0     C64039   9.490   1.480   5.398  0.5744  0.5432 -0.3195
  486MOL0     C64040   9.446   1.588   5.303 -0.2922 -0.0932  0.0593
  486MOL0     C64041   9.364   1.557   5.173  0.2515  0.5106  0.7875
  486MOL0     C64042   9.266   1.432   5.191  0.2782  0.1455  0.3252
  486MOL0     C64043   9.143   1.486   5.279 -0.4996  0.9617 -0.1041
  486MOL0     O64044   9.030   1.411   5.219 -0.1935  0.0677 -0.4462
  486MOL0     C64045   8.951   1.354   5.314  0.1244 -0.5574 -0.1338
  486MOL0     C64046   8.885   1.440   5.408 -0.7384 -0.4629 -1.0978
  486MOL0     C64047   8.789   1.384   5.490 -0.0554 -0.0814 -0.9221
  486MOL0     C64048   8.752   1.246   5.492  0.4993  0.5436  0.7076
  486MOL0     C64049   8.651   1.176   5.573  0.0453  0.5221  0.2520
  486MOL0     O64050   8.669   1.038   5.592 -0.1779  0.0290  0.5416
  486MOL0     C64051   8.586   0.969   5.676 -1.4783  0.0222 -0.6057
  486MOL0     C64052   8.556   0.843   5.642 -0.4868 -0.3972  0.6817
  486MOL0     C64053   8.468   0.760   5.712  0.4483 -1.1044 -0.1204
  486MOL0     C64054   8.418   0.795   5.835  0.1699  0.3223 -1.5043
  486MOL0     O64055   8.326   0.730   5.915  0.0664 -0.5080  1.0217
  486MOL0     C64056   8.292   0.596   5.861 -0.1527  0.2639 -0.4579
  486MOL0     C64057   8.186   0.524   5.951 -0.1003 -0.4006  0.8723
  486MOL0     C64058   8.079   0.628   6.007 -0.3438 -0.6179  0.1802
  486MOL0     C64059   7.974   0.568   6.103 -0.5924  0.3909  0.1370
  486MOL0     C64060   7.872   0.478   6.022  0.0990  0.9958  0.6105
  486MOL0     C64061   7.757   0.433   6.116  1.2738  0.2735 -0.6185
  486MOL0     C64062   7.792   0.332   6.238 -0.5753 -0.0757  0.4491
  486MOL0     C64063   7.667   0.289   6.319 -0.1714  0.5947  0.3629
  486MOL0    Cl64064   7.700   0.321   6.483  0.4297 -0.3643 -0.3779
  486MOL0     C64065   8.462   0.926   5.878  0.0860 -0.2676 -0.3367
  486MOL0     C64066   8.536   1.014   5.796  0.3613 -0.2957  0.2729
  486MOL0     O64067   8.563   1.246   5.623 -0.1823 -0.6471 -0.0008
  486MOL0     C64068   8.822   1.162   5.394  0.3424  0.2703 -0.8749
  486MOL0     C64069   8.923   1.216   5.314 -0.0428  0.2017 -0.0107
  486MOL0     N64070   9.598   1.401   5.379  0.2822 -0.0517  0.4160
  486MOL0     N64071   9.606   1.309   5.470 -0.2371  0.8088  0.2024
  486MOL0     C64072   8.653   0.511   6.050 -0.6925 -0.3721 -0.2874
  486MOL0     C64073   8.573   0.396   6.050  0.0739 -0.3171  0.8085
  486MOL0     C64074   8.326   0.061   5.809  0.6319  0.3915 -0.2848
  486MOL0     C64075   8.319  -0.043   5.707 -0.4576 -1.1032 -0.6361
  486MOL0     C64076   8.200  -0.104   5.690  0.1880 -0.9952  1.0946
  486MOL0     C64077   8.088  -0.068   5.764 -0.0042 -0.1177 -0.5543
  486MOL0     O64078   7.960  -0.125   5.759  0.2291 -0.7168 -0.2265
  486MOL0     C64079   7.937  -0.205   5.645  0.6975  0.0071  0.7735
  486MOL0     C64080   7.784  -0.242   5.619 -0.7128 -0.8469 -0.2696
  486MOL0     C64081   7.720  -0.299   5.745 -1.1511 -0.7828 -0.3176
  486MOL0     C64082   7.590  -0.367   5.714 -0.2759  0.4015  0.3638
  486MOL0     C64083   7.620  -0.502   5.649  0.0763  0.5839 -1.2735
  486MOL0     C64084   7.658  -0.610   5.606  0.0889  0.1998  0.2955
  486MOL0     C64085   8.097   0.025   5.863  0.1070 -0.5227  0.7861
  486MOL0     C64086   8.210   0.096   5.884  0.7570 -0.9586 -0.7923
  486MOL0     H64087   8.648   0.296   5.738  1.9980  0.2296  0.5871
  486MOL0     H64088   8.802   0.472   5.755 -0.1757 -0.1459  0.9637
  486MOL0     H64089   8.769   0.743   5.781  0.3629  0.9875 -1.4446
  486MOL0     H64090   8.922   0.641   5.777  1.4872  2.5194 -1.7014
  486MOL0     H64091   9.020   0.800   5.954 -1.9433  0.8926  3.3290
  486MOL0     H64092   8.890   0.905   5.927  1.2847  0.5647  1.9289
  486MOL0     H64093   8.927   0.903   5.668  0.6261 -0.5472  0.7364
  486MOL0     H64094   9.083   0.821   5.700  0.7433  0.7816  1.0512
  486MOL0     H64095   9.013   1.101   5.794  0.9320  0.5951 -1.2856
  486MOL0     H64096   9.152   1.019   5.847 -2.5921  1.6393  1.5677
  486MOL0     H64097   9.048   1.099   5.565  1.0645  1.1216  0.2928
  486MOL0     H64098   9.196   0.983   5.584  2.5450 -0.3749  2.7903
  486MOL0     H64099   9.203   1.251   5.707  2.2366  1.7984 -0.7039
  486MOL0     H64100   9.212   1.237   5.538  0.0984  0.8357  0.9861
  486MOL0     H64101   9.353   1.052   5.724 -1.8348  0.8534  0.3309
  486MOL0     H64102   9.393   1.077   5.551  0.9502  0.7715 -0.5679
  486MOL0     H64103   9.565   1.196   5.696 -0.3546  0.7565  1.4079
  486MOL0     H64104   9.446   1.293   5.765 -1.0770 -0.6289  0.1543
  486MOL0     H64105   9.336   1.470   5.562  0.2066  0.1401  0.4591
  486MOL0     H64106   9.541   1.637   5.279 -0.0400 -1.7492 -2.7654
  486MOL0     H64107   9.405   1.659   5.375  6.1932  1.2538  3.2264
  486MOL0     H64108   9.433   1.532   5.092 -2.8760 -1.0644 -1.6170
  486MOL0     H64109   9.308   1.639   5.128 -0.5396 -0.2862  0.2651
  486MOL0     H64110   9.227   1.411   5.091  0.6028 -0.0447  0.2367
  486MOL0     H64111   9.303   1.340   5.238 -1.7926  0.4390  2.7534
  486MOL0     H64112   9.123   1.593   5.285  0.7204  1.1488  1.0152
  486MOL0     H64113   9.167   1.473   5.385 -3.0433 -1.9337  0.2700
  486MOL0     H64114   8.896   1.548   5.404 -1.4289 -0.4059 -1.9893
  486MOL0     H64115   8.727   1.451   5.549  0.8847  0.6844 -0.7894
  486MOL0     H64116   8.588   0.810   5.544  2.1031 -1.0606  1.6617
  486MOL0     H64117   8.441   0.672   5.655 -1.6865  0.1468 -1.2039
  486MOL0     H64118   8.383   0.535   5.864 -1.3674 -1.6062  2.1186
  486MOL0     H64119   8.250   0.606   5.760 -2.5004 -3.1660 -0.0145
  486MOL0     H64120   8.240   0.487   6.039  0.5753 -1.9750 -0.1624
  486MOL0     H64121   8.146   0.439   5.895 -2.1111 -0.5999  2.4707
  486MOL0     H64122   8.019   0.676   5.929 -1.6177  2.1145  2.6261
  486MOL0     H64123   8.131   0.705   6.065 -0.7879 -1.6697  2.0531
  486MOL0     H64124   8.032   0.495   6.160  0.1771  2.0467  1.5866
  486MOL0     H64125   7.933   0.654   6.157  3.2152  3.0621 -0.8068
  486MOL0     H64126   7.921   0.396   5.970 -0.1574  1.8994 -1.1471
  486MOL0     H64127   7.830   0.551   5.952 -0.2382  2.6319  2.4365
  486MOL0     H64128   7.685   0.382   6.051  0.4522  0.1793  0.3485
  486MOL0     H64129   7.708   0.525   6.148 -1.1890 -0.3572 -2.3533
  486MOL0     H64130   7.850   0.249   6.196 -2.2209 -0.1269 -1.9420
  486MOL0     H64131   7.865   0.386   6.298 -0.3875 -1.1618  1.2333
  486MOL0     H64132   7.653   0.181   6.307  1.0609  0.3484  0.9065
  486MOL0     H64133   7.575   0.328   6.276  1.0870  0.8350 -2.2929
  486MOL0     H64134   8.418   0.971   5.966  1.1946  0.5401 -0.1677
  486MOL0     H64135   8.567   1.109   5.839  0.7223  0.0324 -0.7070
  486MOL0     H64136   8.795   1.060   5.370 -0.0291  0.6854 -2.3358
  486MOL0     H64137   8.975   1.153   5.243 -3.2851 -0.2855 -2.2022
  486MOL0     H64138   8.648   0.569   6.142  1.9381  0.6367 -0.6772
  486MOL0     H64139   8.502   0.376   6.130 -0.9684 -0.8378 -0.2291
  486MOL0     H64140   8.410  -0.071   5.655 -0.9820 -0.7740 -1.7563
  486MOL0     H64141   8.189  -0.169   5.604  0.5450  1.7544 -1.1690
  486MOL0     H64142   7.977  -0.307   5.654 -3.0062 -2.0039 -2.2906
  486MOL0     H64143   7.971  -0.145   5.560  0.4260  0.5140  1.0187
  486MOL0     H64144   7.732  -0.153   5.581  0.1820  1.6187  3.6412
  486MOL0     H64145   7.780  -0.320   5.543 -0.7017 -1.2349  0.1261
  486MOL0     H64146   7.724  -0.223   5.823  2.3385  2.2882 -3.1148
  486MOL0     H64147   7.790  -0.369   5.790 -1.5055  0.4341  2.2708
  486MOL0     H64148   7.539  -0.383   5.809 -2.5065 -2.9106 -1.2273
  486MOL0     H64149   7.526  -0.322   5.637 -1.5536 -0.7839  0.6968
  486MOL0     H64150   7.687  -0.707   5.572 -1.1913 -0.6555  1.5226
  486MOL0     H64151   8.007   0.052   5.917 -1.1705  0.8195 -1.8140
  486MOL0     H64152   8.219   0.167   5.965  2.3385 -0.3244 -1.4795
  487MOL0     O64153   4.808   1.667   6.676  0.2342 -0.2678  0.3567
  487MOL0     C64154   4.851   1.571   6.611  0.0684 -0.5652 -0.0184
  487MOL0     O64155   4.929   1.469   6.658 -0.1131 -0.2781 -0.2224
  487MOL0     C64156   4.974   1.475   6.794  0.3386 -0.5953  0.3388
  487MOL0     C64157   5.051   1.577   6.857 -0.0230  0.2193 -0.8920
  487MOL0     C64158   5.078   1.562   6.996  0.5006 -0.6113  1.0179
  487MOL0     C64159   5.033   1.464   7.078  0.9697  0.5976  0.1006
  487MOL0     O64160   5.060   1.475   7.211 -0.9297 -0.0841 -0.8096
  487MOL0     C64161   5.135   1.371   7.269  0.2154  0.1154  0.2652
  487MOL0     C64162   5.181   1.429   7.404 -0.1003 -0.5239  0.0189
  487MOL0     C64163   5.323   1.491   7.376 -0.3466  0.3266  1.1682
  487MOL0     C64164   5.390   1.532   7.498  0.8439  0.4508  0.2776
  487MOL0     C64165   5.324   1.644   7.579 -0.9463 -0.0093 -0.7334
  487MOL0     C64166   5.424   1.689   7.693  0.0292  0.0449  1.0317
  487MOL0     C64167   5.341   1.775   7.790 -0.5818 -0.2959  0.0241
  487MOL0     C64168   5.431   1.811   7.913 -0.2854  0.9758 -0.3320
  487MOL0     N64169   5.347   1.905   7.978 -0.6509  0.5136  0.3388
  487MOL0     C64170   5.345   2.038   7.952  0.2303 -0.4849 -0.8695
  487MOL0     C64171   5.241   2.083   8.028  0.3458 -0.0503  0.6271
  487MOL0     C64172   5.220   2.230   8.042 -0.8473  0.8157  1.0637
  487MOL0     C64173   5.305   2.300   8.142 -0.7831 -0.5643 -0.8598
  487MOL0     C64174   5.291   2.454   8.132 -0.1132  0.3758  0.1167
  487MOL0     C64175   5.146   2.503   8.112 -1.1848 -0.7885  0.0486
  487MOL0     O64176   5.101   2.485   7.975  0.6442  0.3840 -0.3156
  487MOL0     C64177   5.135   2.590   7.893  0.0987 -0.3893  0.4114
  487MOL0     C64178   5.245   2.584   7.810 -0.2254  0.5801 -0.4961
  487MOL0     C64179   5.301   2.709   7.743 -0.0687 -0.4917 -0.3028
  487MOL0     C64180   5.221   2.827   7.751 -0.1853  0.2350 -0.1641
  487MOL0     C64181   5.261   2.947   7.672 -0.3093  0.2169 -0.3297
  487MOL0     O64182   5.149   3.022   7.623 -0.4687  0.3694 -0.5606
  487MOL0     C64183   5.168   3.134   7.551  1.0994 -0.6516  0.8470
  487MOL0     C64184   5.184   3.125   7.411  0.1589  0.0559 -0.8054
  487MOL0     C64185   5.211   3.242   7.343  0.3172 -0.3203  0.3584
  487MOL0     C64186   5.240   3.367   7.398 -0.5784  0.0676  0.0182
  487MOL0     O64187   5.275   3.467   7.307 -0.9164 -0.4035 -0.2490
  487MOL0     C64188   5.287   3.599   7.361  0.7290  0.8956 -0.3584
  487MOL0     C64189   5.153   3.656   7.395  0.3405  0.2476 -0.6321
  487MOL0     C64190   5.074   3.660   7.270 -0.0748 -0.4697 -1.0064
  487MOL0     C64191   4.928   3.717   7.285 -0.2949  1.2450 -1.2870
  487MOL0     C64192   4.829   3.692   7.166  0.9802  1.7562 -0.0325
  487MOL0     C64193   4.689   3.708   7.213  0.5914 -0.8517 -0.0096
  487MOL0     C64194   4.582   3.647   7.117  0.1618 -0.5333 -0.7345
  487MOL0     C64195   4.437   3.676   7.159  0.1525 -0.1450 -0.7369
  487MOL0    Cl64196   4.354   3.553   7.058  0.0149 -0.1318 -0.6526
  487MOL0     C64197   5.224   3.374   7.535  0.0141 -0.1250 -0.5944
  487MOL0     C64198   5.186   3.259   7.607  0.1288  0.7924  0.3436
  487MOL0     O64199   5.384   2.978   7.664 -0.0369  0.8535 -0.4406
  487MOL0     C64200   5.113   2.826   7.830  0.3034 -0.2685  0.5226
  487MOL0     C64201   5.079   2.719   7.910 -0.0861  0.7456 -0.0450
  487MOL0     N64202   5.172   1.982   8.085  0.3701 -1.2686 -0.3172
  487MOL0     N64203   5.237   1.875   8.054 -0.5201 -0.4011 -0.1623
  487MOL0     C64204   4.959   1.362   7.012 -0.4400  0.4785 -0.4832
  487MOL0     C64205   4.938   1.369   6.873 -0.2161 -0.7832 -0.1258
  487MOL0     C64206   4.799   1.551   6.469  0.3783  0.4765  0.3469
  487MOL0     C64207   4.857   1.448   6.385 -1.1512 -0.4213  0.6618
  487MOL0     C64208   4.816   1.431   6.251  0.6400 -0.1735 -0.2808
  487MOL0     C64209   4.707   1.504   6.207  0.5450 -0.4962 -0.0899
  487MOL0     O64210   4.662   1.495   6.078 -0.1073 -0.1352 -0.0987
  487MOL0     C64211   4.762   1.448   5.984 -0.0854  0.5268 -0.7057
  487MOL0     C64212   4.737   1.485   5.831  0.3247 -0.1797  0.9151
  487MOL0     C64213   4.608   1.427   5.781  0.0502 -0.4680  0.0589
  487MOL0     C64214   4.593   1.388   5.630 -0.1103 -0.3940  0.7457
  487MOL0     C64215   4.606   1.507   5.535 -0.1101  0.4300 -0.3658
  487MOL0     C64216   4.619   1.596   5.459 -0.1404 -0.5230 -0.5808
  487MOL0     C64217   4.655   1.608   6.279  0.5625 -0.4346  0.0514
  487MOL0     C64218   4.696   1.628   6.417 -0.8033 -0.1385  1.4925
  487MOL0     H64219   5.081   1.665   6.801  2.1627 -0.5918 -1.0725
  487MOL0     H64220   5.132   1.644   7.043  2.1356 -0.9575 -0.1869
  487MOL0     H64221   5.217   1.341   7.203  0.5733  1.0630  0.2566
  487MOL0     H64222   5.074   1.282   7.290  2.0097 -2.2223 -3.4821
  487MOL0     H64223   5.199   1.346   7.473 -0.9564  0.3541  1.3690
  487MOL0     H64224   5.104   1.497   7.443 -1.2679 -0.6582 -1.9207
  487MOL0     H64225   5.306   1.570   7.302  1.2180 -2.3423 -2.3698
  487MOL0     H64226   5.392   1.427   7.320 -0.8256 -0.1038  1.0654
  487MOL0     H64227   5.408   1.448   7.567 -0.0012  0.1498  0.1420
  487MOL0     H64228   5.487   1.572   7.468  1.2639 -1.6604 -1.3565
  487MOL0     H64229   5.245   1.588   7.629  0.7601 -0.3990  1.6886
  487MOL0     H64230   5.279   1.722   7.517 -0.1803  0.2606 -0.9732
  487MOL0     H64231   5.508   1.744   7.652 -0.3830  0.2165  0.4087
  487MOL0     H64232   5.472   1.603   7.742 -0.3902  0.3128  1.9435
  487MOL0     H64233   5.310   1.868   7.742  3.1817  2.3685  2.2381
  487MOL0     H64234   5.251   1.723   7.825 -0.9231 -1.5775 -2.5315
  487MOL0     H64235   5.527   1.854   7.883  1.5541 -2.6466 -0.1496
  487MOL0     H64236   5.434   1.716   7.966  0.4735  2.2745  2.1079
  487MOL0     H64237   5.424   2.096   7.906  0.1118  0.4490  0.0725
  487MOL0     H64238   5.114   2.244   8.064 -1.4853 -2.1119  0.2255
  487MOL0     H64239   5.245   2.269   7.943  1.1868 -0.1080  1.1516
  487MOL0     H64240   5.410   2.274   8.127 -1.2534 -1.7121 -2.4167
  487MOL0     H64241   5.286   2.257   8.241  4.2919 -0.1104  0.5881
  487MOL0     H64242   5.335   2.482   8.228  0.8641 -0.2247 -0.1470
  487MOL0     H64243   5.356   2.499   8.057 -0.6838  0.6812 -0.2076
  487MOL0     H64244   5.138   2.609   8.137 -0.9397 -0.7751  0.0716
  487MOL0     H64245   5.075   2.455   8.181 -0.1565 -0.5880  1.2823
  487MOL0     H64246   5.286   2.484   7.796 -3.5401 -1.2472  1.3659
  487MOL0     H64247   5.385   2.704   7.675  0.9357  1.0897  0.7704
  487MOL0     H64248   5.167   3.026   7.370 -1.0347  0.3665 -1.0956
  487MOL0     H64249   5.221   3.240   7.235  1.8114  0.4706  0.4441
  487MOL0     H64250   5.332   3.665   7.286  0.1586  1.8045  0.0833
  487MOL0     H64251   5.353   3.600   7.448 -1.8030  1.2548  1.7027
  487MOL0     H64252   5.162   3.757   7.434 -2.0836 -0.2437  1.5065
  487MOL0     H64253   5.095   3.595   7.466 -1.3371 -0.8052 -2.7650
  487MOL0     H64254   5.075   3.558   7.230  0.6094 -1.4012  1.2519
  487MOL0     H64255   5.121   3.720   7.191  0.4932 -1.9761 -1.8622
  487MOL0     H64256   4.901   3.681   7.384  1.2664  1.1188 -0.8720
  487MOL0     H64257   4.940   3.825   7.294  1.6267  0.8996  2.0744
  487MOL0     H64258   4.849   3.592   7.126  3.2462  1.9745  0.4577
  487MOL0     H64259   4.852   3.745   7.073  3.1904 -0.5292 -0.9055
  487MOL0     H64260   4.673   3.815   7.228  0.4967 -0.7631 -0.7141
  487MOL0     H64261   4.681   3.660   7.311 -1.8137  0.6717  0.6365
  487MOL0     H64262   4.607   3.673   7.014  1.1056 -0.3899 -0.4865
  487MOL0     H64263   4.595   3.540   7.137  1.1043 -0.3491 -0.2627
  487MOL0     H64264   4.410   3.777   7.127 -2.4728 -0.6353 -0.3189
  487MOL0     H64265   4.424   3.660   7.266 -0.3181 -1.4036 -0.9684
  487MOL0     H64266   5.247   3.464   7.590  0.2296  1.0314 -2.5118
  487MOL0     H64267   5.165   3.255   7.713  3.9544 -0.6009  1.2127
  487MOL0     H64268   5.042   2.908   7.827  1.3022  0.8776  3.8791
  487MOL0     H64269   5.001   2.725   7.985 -1.9246 -1.5106 -1.6277
  487MOL0     H64270   4.908   1.288   7.074 -0.2331  0.0575 -0.8129
  487MOL0     H64271   4.882   1.285   6.833 -2.4817  1.6020 -2.3541
  487MOL0     H64272   4.929   1.381   6.431 -2.1415 -1.1629  1.1679
  487MOL0     H64273   4.861   1.358   6.184  0.6440  3.2086 -4.3986
  487MOL0     H64274   4.775   1.340   5.994 -0.9943  0.5161  0.6035
  487MOL0     H64275   4.851   1.504   6.010 -1.8173  3.4923 -0.6762
  487MOL0     H64276   4.729   1.593   5.820  0.6770 -0.1004  1.3802
  487MOL0     H64277   4.818   1.449   5.766 -2.6201 -1.7122 -2.2541
  487MOL0     H64278   4.528   1.496   5.809 -0.1153 -0.3127 -0.7636
  487MOL0     H64279   4.583   1.341   5.843 -1.7734  0.4374  0.6526
  487MOL0     H64280   4.667   1.313   5.598 -0.1558  1.1946 -3.7947
  487MOL0     H64281   4.498   1.340   5.605  0.0245 -0.3150  0.0539
  487MOL0     H64282   4.627   1.679   5.392 -1.1722  1.6595  1.8562
  487MOL0     H64283   4.590   1.684   6.238  0.0960 -1.0502 -0.3868
  487MOL0     H64284   4.651   1.702   6.483  0.2842  1.2002  0.7727
  488MOL0     O64285   2.631   1.415  11.170  0.1714 -0.2173  0.4788
  488MOL0     C64286   2.646   1.297  11.132  0.5004  0.0884  1.4056
  488MOL0     O64287   2.588   1.239  11.017  0.0099 -0.5685 -0.8425
  488MOL0     C64288   2.516   1.332  10.940  0.1224 -0.4828 -0.0940
  488MOL0     C64289   2.396   1.380  11.000  0.4961  0.8767 -1.0317
  488MOL0     C64290   2.327   1.483  10.928  0.1299 -0.4031  0.3294
  488MOL0     C64291   2.374   1.536  10.809 -0.0603 -0.4967 -0.1717
  488MOL0     O64292   2.299   1.641  10.762  0.7990  0.0803  0.2175
  488MOL0     C64293   2.366   1.722  10.663  0.6071  0.6512  0.1041
  488MOL0     C64294   2.270   1.834  10.625 -0.0349 -0.0659 -1.0623
  488MOL0     C64295   2.317   1.955  10.549  0.3143  0.7265 -0.4746
  488MOL0     C64296   2.191   2.014  10.493  0.2901 -0.3063 -0.0042
  488MOL0     C64297   2.212   2.145  10.429  0.0963 -0.3180  0.3633
  488MOL0     C64298   2.300   2.131  10.305  0.5780  0.1135 -0.5485
  488MOL0     C64299   2.348   2.277  10.265 -0.6377  1.4463  0.2058
  488MOL0     C64300   2.475   2.259  10.184  0.8267 -0.0760 -0.5460
  488MOL0     N64301   2.531   2.384  10.129  0.4780 -0.5976 -0.5328
  488MOL0     C64302   2.513   2.512  10.180  0.4499 -0.5817  0.3587
  488MOL0     C64303   2.588   2.598  10.093  0.7169 -0.0162  0.9210
  488MOL0     C64304   2.609   2.757  10.092 -0.6635 -0.3001  0.4615
  488MOL0     C64305   2.482   2.841  10.087  0.1655 -0.3505  0.1722
  488MOL0     C64306   2.507   2.985  10.135  0.0902  0.0367  0.6097
  488MOL0     C64307   2.640   3.043  10.082 -0.3177  0.9753  0.0111
  488MOL0     O64308   2.645   3.189  10.072  0.0230  0.1311  0.2084
  488MOL0     C64309   2.715   3.256  10.161 -0.0388 -0.2720  0.8098
  488MOL0     C64310   2.753   3.205  10.285  0.6323 -0.0220 -0.4485
  488MOL0     C64311   2.845   3.270  10.375  0.2501  0.4278  0.5152
  488MOL0     C64312   2.891   3.398  10.342 -0.7035  0.4026 -0.8307
  488MOL0     C64313   3.004   3.454  10.420  0.6609  0.3278 -0.3306
  488MOL0     O64314   3.082   3.546  10.352 -0.7142 -0.1629 -0.1910
  488MOL0     C64315   3.191   3.603  10.424 -1.0561 -0.5061 -1.4340
  488MOL0     C64316   3.212   3.745  10.427 -0.4162 -0.2750 -0.4332
  488MOL0     C64317   3.336   3.801  10.466  0.6020  0.2618 -0.1130
  488MOL0     C64318   3.437   3.709  10.503 -0.6912  0.3339  0.1966
  488MOL0     O64319   3.568   3.762  10.542 -0.6099 -0.2887 -0.2263
  488MOL0     C64320   3.637   3.824  10.424  0.9084  0.7462  0.7442
  488MOL0     C64321   3.789   3.801  10.429  0.3773 -0.2018  0.7633
  488MOL0     C64322   3.812   3.659  10.487 -0.5420 -0.5024 -0.4238
  488MOL0     C64323   3.957   3.641  10.524 -0.3951  0.1781  0.4620
  488MOL0     C64324   3.983   3.506  10.597 -0.2677  0.2606 -1.1444
  488MOL0     C64325   3.984   3.386  10.500 -0.5510 -0.4621 -0.0920
  488MOL0     C64326   4.013   3.251  10.557  0.2562 -0.3205  0.2990
  488MOL0     C64327   4.063   3.143  10.446  0.4938  0.3384  0.8166
  488MOL0    Cl64328   4.218   3.190  10.359 -0.5894 -0.0317 -0.2442
  488MOL0     C64329   3.418   3.567  10.506 -0.2819 -0.1272 -0.6878
  488MOL0     C64330   3.294   3.516  10.462 -0.9166  0.7173 -0.6127
  488MOL0     O64331   3.006   3.417  10.537 -0.3865 -0.5178  0.2522
  488MOL0     C64332   2.848   3.454  10.226 -0.0354 -0.5638 -0.0933
  488MOL0     C64333   2.763   3.383  10.138  0.4757 -0.4359  0.3144
  488MOL0     N64334   2.637   2.516   9.996 -0.5678  0.1810  0.9369
  488MOL0     N64335   2.599   2.395  10.013  0.2637  0.3774 -0.6807
  488MOL0     C64336   2.491   1.484  10.758  0.5091  0.3814  0.2163
  488MOL0     C64337   2.560   1.376  10.822 -0.3352 -1.1255  0.5061
  488MOL0     C64338   2.751   1.214  11.191  0.4702  0.5113 -0.4211
  488MOL0     C64339   2.799   1.249  11.318  0.3900 -1.1944  0.2078
  488MOL0     C64340   2.889   1.178  11.393  0.2967  0.3722 -0.2058
  488MOL0     C64341   2.942   1.054  11.334  0.0325 -0.0222  0.2726
  488MOL0     O64342   3.018   0.948  11.388  0.6808 -0.0734 -0.0976
  488MOL0     C64343   3.155   0.965  11.376  0.2938 -0.0792  0.2228
  488MOL0     C64344   3.216   0.995  11.520 -0.2034  1.3707 -0.8418
  488MOL0     C64345   3.373   0.990  11.500 -0.3190 -0.2409 -0.8316
  488MOL0     C64346   3.446   1.105  11.426  0.7135  0.3721 -0.3045
  488MOL0     C64347   3.452   1.234  11.502  0.3459  0.9530  0.5515
  488MOL0     C64348   3.463   1.336  11.566 -0.1514 -0.4389 -0.5145
  488MOL0     C64349   2.884   1.011  11.213 -0.2377 -0.5607  0.3940
  488MOL0     C64350   2.793   1.082  11.144  0.6299  0.2480 -0.3762
  488MOL0     H64351   2.353   1.344  11.093  4.0490 -2.2022 -0.3647
  488MOL0     H64352   2.231   1.526  10.955 -0.3571  0.2690 -2.1575
  488MOL0     H64353   2.390   1.669  10.570 -2.0175  0.9450 -0.8374
  488MOL0     H64354   2.456   1.766  10.705 -0.3098  1.7247  0.9882
  488MOL0     H64355   2.236   1.878  10.719  0.4403 -1.2582 -0.3095
  488MOL0     H64356   2.188   1.795  10.564 -0.3709  1.5066 -1.6580
  488MOL0     H64357   2.391   1.922  10.475 -1.2758 -2.3642 -0.8437
  488MOL0     H64358   2.366   2.025  10.617  2.1529 -0.6657 -0.3102
  488MOL0     H64359   2.147   1.946  10.420 -1.5094  0.6570  0.1225
  488MOL0     H64360   2.120   2.034  10.574  1.4062 -3.3534  1.9090
  488MOL0     H64361   2.247   2.216  10.504 -4.1510  2.5227 -0.0077
  488MOL0     H64362   2.115   2.185  10.398  0.4459 -0.1394 -0.5468
  488MOL0     H64363   2.245   2.085  10.223 -0.0212  2.6352 -1.6544
  488MOL0     H64364   2.386   2.071  10.336  0.0983 -0.5873 -0.5613
  488MOL0     H64365   2.272   2.330  10.207  1.5898  0.2561 -4.2570
  488MOL0     H64366   2.369   2.337  10.354 -1.2028  1.8578  0.0663
  488MOL0     H64367   2.455   2.197  10.096  2.7847  0.3787 -1.3592
  488MOL0     H64368   2.556   2.226  10.250 -0.4404  2.0751  2.2873
  488MOL0     H64369   2.456   2.539  10.268 -1.7334 -0.4970 -1.0193
  488MOL0     H64370   2.678   2.783  10.011 -0.7846 -1.4250 -0.0248
  488MOL0     H64371   2.664   2.783  10.184  0.6614 -5.1577  1.3355
  488MOL0     H64372   2.400   2.809  10.153  0.3488  0.3562  0.7590
  488MOL0     H64373   2.451   2.839   9.982 -3.4497 -0.4212  1.1049
  488MOL0     H64374   2.427   3.050  10.099 -0.8733  0.3549  3.1961
  488MOL0     H64375   2.502   2.989  10.244 -3.1198 -1.5644  0.6496
  488MOL0     H64376   2.647   3.004   9.980 -0.0291 -1.5647  0.9251
  488MOL0     H64377   2.718   3.000  10.144 -1.3094  2.5960  2.5526
  488MOL0     H64378   2.719   3.107  10.316 -1.3527  1.4295  2.5204
  488MOL0     H64379   2.886   3.212  10.457  0.9702 -2.1609 -1.5484
  488MOL0     H64380   3.134   3.807  10.382 -0.7386 -1.0617 -0.9894
  488MOL0     H64381   3.358   3.907  10.455  0.3959  0.3720  0.4965
  488MOL0     H64382   3.611   3.930  10.412  0.9797  0.7887  0.9511
  488MOL0     H64383   3.586   3.771  10.343 -3.3577 -1.4738  4.4234
  488MOL0     H64384   3.840   3.873  10.493 -0.8660  2.6021 -1.1876
  488MOL0     H64385   3.838   3.800  10.331 -1.3945 -0.5411 -0.1615
  488MOL0     H64386   3.780   3.595  10.405 -2.1087 -1.2054  0.6909
  488MOL0     H64387   3.750   3.647  10.577 -1.4854  3.7722 -0.2552
  488MOL0     H64388   4.019   3.644  10.434 -0.3873 -3.8390  0.1786
  488MOL0     H64389   3.983   3.720  10.596  0.4190  0.4279 -0.0921
  488MOL0     H64390   3.907   3.488  10.674 -2.0256 -1.4162 -3.1592
  488MOL0     H64391   4.076   3.527  10.650 -0.7507  3.7258 -1.4441
  488MOL0     H64392   4.064   3.411  10.431 -1.5726  0.6649 -0.9089
  488MOL0     H64393   3.898   3.385  10.432  0.2177  1.0015 -1.1559
  488MOL0     H64394   4.084   3.245  10.641  0.0883 -0.2819  0.4438
  488MOL0     H64395   3.917   3.213  10.592  0.7441 -0.6196  1.3705
  488MOL0     H64396   3.997   3.139  10.359  2.3815  1.7152 -0.7755
  488MOL0     H64397   4.063   3.045  10.495  0.2498  1.0515  2.3016
  488MOL0     H64398   3.511   3.514  10.520 -0.2750  0.3388  1.3978
  488MOL0     H64399   3.279   3.409  10.455 -0.5751  0.5985  0.4100
  488MOL0     H64400   2.877   3.549  10.182 -1.0844  0.0464  0.4926
  488MOL0     H64401   2.739   3.437  10.047 -1.2896 -4.7410 -2.0746
  488MOL0     H64402   2.539   1.530  10.671  2.9388 -0.5588  0.9557
  488MOL0     H64403   2.655   1.341  10.784  0.2697  0.9359 -0.0429
  488MOL0     H64404   2.752   1.338  11.359  1.7509  0.3001 -1.3123
  488MOL0     H64405   2.930   1.213  11.487  0.8927 -3.3311  1.1034
  488MOL0     H64406   3.168   1.054  11.314  0.7881  2.2764  3.4278
  488MOL0     H64407   3.206   0.877  11.336  3.7086 -0.7155  5.0846
  488MOL0     H64408   3.186   1.092  11.562  0.6139  1.6209 -0.8234
  488MOL0     H64409   3.203   0.920  11.599  3.6571  3.4105  2.0357
  488MOL0     H64410   3.405   0.891  11.469 -0.9412  0.1439 -2.8444
  488MOL0     H64411   3.409   1.002  11.603  2.9036  0.7927 -1.9745
  488MOL0     H64412   3.549   1.074  11.402  0.6306  1.6346 -2.4955
  488MOL0     H64413   3.389   1.116  11.334  0.5445  3.5015  0.0879
  488MOL0     H64414   3.485   1.431  11.611 -2.2208  0.8471 -2.0530
  488MOL0     H64415   2.914   0.911  11.181 -2.3283 -1.5377  1.3255
  488MOL0     H64416   2.750   1.047  11.051 -3.4987 -2.2482  2.1838
  489MOL0     O64417   7.205   0.720   2.965 -0.1600  0.0863  0.2798
  489MOL0     C64418   7.269   0.655   3.049 -0.1217 -0.7616  0.3527
  489MOL0     O64419   7.383   0.690   3.111  0.2159 -0.2623  0.7212
  489MOL0     C64420   7.455   0.804   3.081  0.9965  0.9082 -0.6760
  489MOL0     C64421   7.411   0.915   3.007  0.2651 -0.2260 -0.6464
  489MOL0     C64422   7.496   1.025   2.988  0.1653  0.0478  0.4261
  489MOL0     C64423   7.635   1.021   3.027 -0.7961  0.1130 -0.7985
  489MOL0     O64424   7.705   1.135   3.002 -0.2952  0.1438 -0.3354
  489MOL0     C64425   7.840   1.116   2.983 -1.1644 -0.8536  0.3257
  489MOL0     C64426   7.874   1.148   2.833  0.1067  0.3218 -0.5217
  489MOL0     C64427   8.023   1.180   2.827 -1.1645  0.6481  0.7457
  489MOL0     C64428   8.085   1.190   2.672 -0.1343  0.1432 -0.1740
  489MOL0     C64429   8.237   1.205   2.649 -0.0030  0.2524 -1.2412
  489MOL0     C64430   8.261   1.261   2.511 -0.3833  0.1652  0.2573
  489MOL0     C64431   8.413   1.273   2.486 -0.4007  0.7249 -0.0474
  489MOL0     C64432   8.469   1.160   2.391 -0.3875 -0.2839 -0.5087
  489MOL0     N64433   8.455   1.027   2.451  0.7289 -0.2123 -0.6493
  489MOL0     C64434   8.548   0.959   2.531 -0.2568 -0.0576  0.1818
  489MOL0     C64435   8.489   0.839   2.536 -0.0983  0.0088 -1.1851
  489MOL0     C64436   8.573   0.726   2.584 -0.0181  0.6390  0.1837
  489MOL0     C64437   8.489   0.592   2.592  0.2022  0.4005  0.1392
  489MOL0     C64438   8.573   0.465   2.589 -0.2212 -1.2716  0.2590
  489MOL0     C64439   8.496   0.350   2.632  0.1485  0.4971  0.2589
  489MOL0     O64440   8.436   0.368   2.762  0.8163 -0.6261  0.0839
  489MOL0     C64441   8.382   0.256   2.813  0.2638 -0.1658  0.3148
  489MOL0     C64442   8.340   0.284   2.946 -0.7945  0.5930 -0.8946
  489MOL0     C64443   8.293   0.173   3.021  0.2540 -0.3910 -0.1560
  489MOL0     C64444   8.294   0.042   2.983  0.0415 -0.0460  0.2142
  489MOL0     C64445   8.230  -0.070   3.058 -0.5733 -0.8903 -0.6897
  489MOL0     O64446   8.172  -0.181   2.990 -0.4377 -1.4265  0.4607
  489MOL0     C64447   8.124  -0.286   3.067  0.2004 -0.0664  1.0327
  489MOL0     C64448   8.200  -0.368   3.156  0.7180 -0.0605  0.7513
  489MOL0     C64449   8.138  -0.471   3.235 -0.9502 -0.2447  0.2891
  489MOL0     C64450   8.005  -0.487   3.240  0.0242  0.6884  0.1679
  489MOL0     O64451   7.948  -0.584   3.322  0.4056 -0.2118 -0.0183
  489MOL0     C64452   7.839  -0.667   3.271  0.0130  0.5912 -0.3069
  489MOL0     C64453   7.708  -0.619   3.335 -0.5427  0.5335 -0.3258
  489MOL0     C64454   7.676  -0.698   3.462  0.7173 -0.6297  1.1011
  489MOL0     C64455   7.526  -0.679   3.503 -0.2119  0.1451  0.2914
  489MOL0     C64456   7.491  -0.798   3.601  0.7804 -0.1368 -0.5469
  489MOL0     C64457   7.341  -0.782   3.632  0.3054  0.0226 -0.7876
  489MOL0     C64458   7.292  -0.888   3.728  0.2963 -0.2175  0.4291
  489MOL0     C64459   7.145  -0.868   3.770 -0.0140 -0.2402  0.1945
  489MOL0    Cl64460   7.135  -0.755   3.894  0.0141  0.0298  0.2632
  489MOL0     C64461   7.928  -0.412   3.151 -0.4509  0.5527 -0.9664
  489MOL0     C64462   7.983  -0.319   3.064  0.3277  0.1041 -0.9870
  489MOL0     O64463   8.232  -0.050   3.179  0.0065  0.2647 -0.4981
  489MOL0     C64464   8.337   0.019   2.843 -0.3018  0.6888 -0.9953
  489MOL0     C64465   8.388   0.121   2.765  0.3984 -0.4273 -0.1986
  489MOL0     N64466   8.358   0.838   2.484  0.1557  0.7875  0.8391
  489MOL0     N64467   8.345   0.948   2.414 -0.7355  0.3225  0.0559
  489MOL0     C64468   7.673   0.915   3.114 -0.7594  0.6498 -0.6902
  489MOL0     C64469   7.588   0.804   3.131  0.1446  0.4174 -0.2754
  489MOL0     C64470   7.197   0.528   3.084 -0.0272 -0.5875 -0.3268
  489MOL0     C64471   7.065   0.505   3.058 -0.1377  0.1523 -0.5550
  489MOL0     C64472   7.007   0.378   3.098  0.9634  0.4168  1.0426
  489MOL0     C64473   7.077   0.271   3.153  0.3498 -0.3735 -1.1227
  489MOL0     O64474   7.013   0.153   3.189  0.0464 -0.7689 -0.7093
  489MOL0     C64475   7.099   0.040   3.226  1.0057 -0.7802  0.0740
  489MOL0     C64476   7.166   0.043   3.367 -0.2889  1.0678 -0.8949
  489MOL0     C64477   7.126   0.156   3.472  1.2380  0.1479 -0.6079
  489MOL0     C64478   7.181   0.112   3.613  1.1121 -1.2003 -0.4159
  489MOL0     C64479   7.117  -0.004   3.680  0.2344 -0.0794  0.3603
  489MOL0     C64480   7.063  -0.104   3.720  0.6081 -1.2140 -0.2998
  489MOL0     C64481   7.218   0.292   3.167  1.3527 -0.2120 -0.7307
  489MOL0     C64482   7.273   0.423   3.134  1.1614  0.5791 -0.3361
  489MOL0     H64483   7.312   0.910   2.964  0.5791  0.7394 -1.5128
  489MOL0     H64484   7.465   1.112   2.931 -0.8777 -0.4105  0.2727
  489MOL0     H64485   7.880   1.016   3.002  0.2664 -0.3232  0.2126
  489MOL0     H64486   7.883   1.174   3.065 -0.0862 -2.7983  1.2146
  489MOL0     H64487   7.824   1.240   2.802 -0.6068  0.1933  0.2116
  489MOL0     H64488   7.836   1.061   2.780  1.0681  0.6377 -1.7655
  489MOL0     H64489   8.079   1.104   2.882 -1.2463 -0.4636 -0.6648
  489MOL0     H64490   8.049   1.274   2.878 -0.1142 -0.0247  1.5031
  489MOL0     H64491   8.046   1.098   2.626  1.5627 -1.1636  0.8959
  489MOL0     H64492   8.027   1.273   2.629 -0.4536 -0.4550 -0.9240
  489MOL0     H64493   8.287   1.110   2.670 -2.1044 -0.0017  4.1965
  489MOL0     H64494   8.287   1.271   2.721  2.7338 -1.6841 -1.1920
  489MOL0     H64495   8.222   1.363   2.504  0.8802  0.9331  3.1126
  489MOL0     H64496   8.221   1.193   2.435  3.5881 -1.2131 -0.8762
  489MOL0     H64497   8.432   1.365   2.431 -0.3552 -0.0622 -1.4075
  489MOL0     H64498   8.478   1.281   2.573  1.8857 -1.0547 -1.4700
  489MOL0     H64499   8.573   1.186   2.371 -0.7619  2.8216  0.9319
  489MOL0     H64500   8.420   1.171   2.294 -1.1441  1.4493  0.0296
  489MOL0     H64501   8.643   0.978   2.580 -1.2575  2.0160  1.4746
  489MOL0     H64502   8.634   0.755   2.670 -1.2453  1.7685  0.7039
  489MOL0     H64503   8.650   0.704   2.509 -1.3900 -2.4571 -0.4570
  489MOL0     H64504   8.407   0.600   2.520 -0.6144  1.2535  1.1241
  489MOL0     H64505   8.450   0.606   2.693  4.2644  2.8819  1.6141
  489MOL0     H64506   8.603   0.455   2.484 -0.7666  3.8891 -0.6678
  489MOL0     H64507   8.662   0.478   2.652 -0.2293  4.2632 -0.3398
  489MOL0     H64508   8.578   0.278   2.642  2.2917  3.0482  2.6972
  489MOL0     H64509   8.418   0.333   2.557 -1.4304  1.9458  1.5086
  489MOL0     H64510   8.337   0.387   2.979 -0.5622  0.6643 -1.0987
  489MOL0     H64511   8.239   0.199   3.111  0.9384 -2.8052  1.0455
  489MOL0     H64512   8.307  -0.351   3.166  0.2496  2.6720  1.8712
  489MOL0     H64513   8.200  -0.522   3.308 -1.9834 -2.8257 -0.5022
  489MOL0     H64514   7.851  -0.773   3.296 -1.8262  0.6275  0.8574
  489MOL0     H64515   7.833  -0.650   3.163 -1.9049 -1.6954 -0.6286
  489MOL0     H64516   7.625  -0.652   3.271  0.9354 -3.6672 -0.3880
  489MOL0     H64517   7.713  -0.511   3.352  2.4774  0.4043  0.1997
  489MOL0     H64518   7.736  -0.650   3.539  0.1346 -0.3433  1.3853
  489MOL0     H64519   7.693  -0.806   3.457  0.2042 -0.6845  0.2949
  489MOL0     H64520   7.508  -0.581   3.549 -1.0424  0.8952 -1.5385
  489MOL0     H64521   7.467  -0.703   3.414 -1.0434 -1.3047  1.1959
  489MOL0     H64522   7.555  -0.794   3.689 -1.4852  1.7818  1.1408
  489MOL0     H64523   7.500  -0.895   3.552  2.1581  0.3397 -1.3059
  489MOL0     H64524   7.282  -0.778   3.539  0.3159  2.7177 -0.7622
  489MOL0     H64525   7.319  -0.689   3.685  1.3895 -0.3314  0.3229
  489MOL0     H64526   7.309  -0.983   3.677  1.7828 -0.3892  1.1952
  489MOL0     H64527   7.351  -0.889   3.820 -0.2102 -0.8467  0.7516
  489MOL0     H64528   7.101  -0.963   3.801  0.0396 -0.2343  0.2914
  489MOL0     H64529   7.088  -0.834   3.683 -1.3943 -2.0791  0.3216
  489MOL0     H64530   7.820  -0.414   3.159 -0.3242  0.0165  1.5345
  489MOL0     H64531   7.918  -0.262   2.998  2.1897  0.6984 -2.3651
  489MOL0     H64532   8.328  -0.083   2.809  0.9254  0.6705 -1.2801
  489MOL0     H64533   8.422   0.099   2.664  0.4683  2.2776 -0.8610
  489MOL0     H64534   7.770   0.917   3.164 -1.2528 -2.9118  0.6875
  489MOL0     H64535   7.618   0.726   3.200 -1.3269  0.8566  0.9160
  489MOL0     H64536   6.997   0.569   3.002  0.1537  0.4044 -0.6262
  489MOL0     H64537   6.902   0.364   3.074  0.3299  3.3110  1.7595
  489MOL0     H64538   7.186   0.021   3.162  1.8114  0.3630  0.7767
  489MOL0     H64539   7.033  -0.046   3.214 -1.5099  0.7049  2.1242
  489MOL0     H64540   7.164  -0.057   3.412  1.4042  1.8156  0.9780
  489MOL0     H64541   7.272   0.059   3.345 -0.7330 -0.7476 -5.7579
  489MOL0     H64542   7.018   0.173   3.470  1.0434 -0.0550  2.4482
  489MOL0     H64543   7.168   0.252   3.443 -0.1711  0.8437 -0.4485
  489MOL0     H64544   7.289   0.101   3.621  1.4140  0.5553 -1.5331
  489MOL0     H64545   7.161   0.199   3.676 -0.2007 -2.9383  1.6847
  489MOL0     H64546   7.019  -0.200   3.735  2.7817 -2.2295 -0.0253
  489MOL0     H64547   7.273   0.205   3.200  0.1263 -0.1699  1.6516
  489MOL0     H64548   7.378   0.448   3.141  1.1737  0.0840  3.7189
  490MOL0     O64549   2.227   7.395   4.698 -0.0413 -0.4449  0.9058
  490MOL0     C64550   2.111   7.433   4.698  0.7417 -0.0769  0.3869
  490MOL0     O64551   2.050   7.500   4.595  0.1718  0.0955  0.5033
  490MOL0     C64552   2.118   7.514   4.476  0.9814 -0.6400  0.2061
  490MOL0     C64553   2.120   7.410   4.388  0.4724 -0.8218  0.0958
  490MOL0     C64554   2.183   7.428   4.268 -0.0755  0.5154 -0.0430
  490MOL0     C64555   2.246   7.540   4.233  0.2125  0.1981 -0.0635
  490MOL0     O64556   2.327   7.562   4.133 -0.3389 -0.0558  0.6847
  490MOL0     C64557   2.303   7.485   4.010  0.0569 -0.3245 -0.3758
  490MOL0     C64558   2.247   7.577   3.895  0.2459 -0.5140  0.3457
  490MOL0     C64559   2.247   7.493   3.762 -0.8544 -0.1947  0.2600
  490MOL0     C64560   2.247   7.592   3.635  0.0985 -0.0058 -0.6312
  490MOL0     C64561   2.313   7.535   3.512  0.2399 -0.4346  0.1077
  490MOL0     C64562   2.266   7.590   3.374 -0.0450  0.1527 -0.0136
  490MOL0     C64563   2.126   7.569   3.326  0.6358 -0.3410 -0.4076
  490MOL0     C64564   2.100   7.649   3.197 -0.4012  0.8797 -0.1685
  490MOL0     N64565   2.091   7.562   3.076  0.2304 -0.3604 -0.1846
  490MOL0     C64566   2.144   7.599   2.958  0.0094  1.2098  0.6781
  490MOL0     C64567   2.110   7.494   2.872 -0.6101  1.3858 -0.1684
  490MOL0     C64568   2.141   7.488   2.723 -0.6014 -0.0918 -0.0752
  490MOL0     C64569   2.023   7.547   2.647  0.4175 -0.1158 -0.2950
  490MOL0     C64570   2.068   7.593   2.508  0.0298 -0.3637  0.5108
  490MOL0     C64571   1.960   7.630   2.410  0.3120  0.2250 -0.6188
  490MOL0     O64572   1.893   7.507   2.381  0.7168 -0.6575  0.1482
  490MOL0     C64573   1.757   7.516   2.365 -0.1232  0.5699 -0.1861
  490MOL0     C64574   1.675   7.595   2.453  0.4154  0.2745 -0.1742
  490MOL0     C64575   1.539   7.593   2.436 -0.3811 -0.4661  1.1293
  490MOL0     C64576   1.486   7.498   2.345 -0.4912 -0.4925  0.5023
  490MOL0     C64577   1.338   7.485   2.336 -0.1662 -0.6463 -0.0945
  490MOL0     O64578   1.290   7.437   2.221 -0.5408 -0.4452  1.2450
  490MOL0     C64579   1.159   7.403   2.207 -0.1206 -0.5499 -0.0445
  490MOL0     C64580   1.109   7.273   2.221  0.3976  0.9311  0.0522
  490MOL0     C64581   0.973   7.247   2.202  0.9149  0.2633 -0.2735
  490MOL0     C64582   0.885   7.360   2.196  0.2903  0.2107 -0.7010
  490MOL0     O64583   0.745   7.353   2.178  0.8738 -0.6087  0.0589
  490MOL0     C64584   0.680   7.232   2.139 -0.1469  0.5001 -0.1551
  490MOL0     C64585   0.667   7.136   2.257 -0.4170  0.4812 -0.0133
  490MOL0     C64586   0.619   7.213   2.383  0.4764  0.7246 -0.2515
  490MOL0     C64587   0.553   7.128   2.496 -0.2560  0.0640 -0.4429
  490MOL0     C64588   0.486   7.220   2.597  0.5238  0.4676 -1.3763
  490MOL0     C64589   0.332   7.214   2.589 -1.0822  0.4773  0.5858
  490MOL0     C64590   0.270   7.273   2.709 -0.5250  0.2058 -0.4374
  490MOL0     C64591   0.139   7.321   2.690 -0.1206 -0.5561  0.0415
  490MOL0    Cl64592   0.024   7.178   2.681  0.4128  0.0199  0.0019
  490MOL0     C64593   0.935   7.488   2.193 -0.9988 -0.1030  0.0339
  490MOL0     C64594   1.074   7.512   2.191  0.0203  0.9185  0.6436
  490MOL0     O64595   1.267   7.523   2.432 -0.2391  0.0948  0.7880
  490MOL0     C64596   1.564   7.405   2.273  0.2622 -1.1115  0.7330
  490MOL0     C64597   1.705   7.422   2.281 -0.3986  0.5962  0.1949
  490MOL0     N64598   2.044   7.397   2.944  0.7538 -0.9180 -0.0130
  490MOL0     N64599   2.031   7.438   3.069  0.4271 -1.2329  0.6404
  490MOL0     C64600   2.248   7.636   4.326  0.5960 -0.1547  0.1915
  490MOL0     C64601   2.185   7.625   4.450 -0.2176 -0.7468 -0.1830
  490MOL0     C64602   2.024   7.427   4.822 -0.4742  0.8836  0.3657
  490MOL0     C64603   2.066   7.354   4.930 -0.1779  0.4811 -0.1786
  490MOL0     C64604   1.995   7.349   5.049  0.4182  0.5009  0.0120
  490MOL0     C64605   1.874   7.418   5.066  0.1294 -0.6157  0.7737
  490MOL0     O64606   1.799   7.440   5.175  0.1263 -0.5673 -0.1458
  490MOL0     C64607   1.848   7.415   5.309  0.2348  0.0849  0.1716
  490MOL0     C64608   1.831   7.265   5.353 -0.3103 -0.6294  0.6528
  490MOL0     C64609   1.870   7.239   5.505 -0.5523 -0.6608  0.4231
  490MOL0     C64610   1.880   7.080   5.527 -0.7687 -0.6503 -0.3159
  490MOL0     C64611   1.939   7.055   5.653 -0.5529 -0.1286  0.4991
  490MOL0     C64612   2.009   7.055   5.757 -0.4990 -0.4919 -1.2536
  490MOL0     C64613   1.833   7.488   4.955 -0.4865 -0.3604  0.5837
  490MOL0     C64614   1.902   7.497   4.837 -0.2116  0.4076 -0.1888
  490MOL0     H64615   2.064   7.319   4.409  0.8090 -1.6331 -2.1835
  490MOL0     H64616   2.172   7.345   4.200  2.6420  0.9448 -1.1174
  490MOL0     H64617   2.237   7.399   4.019 -1.2322  0.4699 -1.8160
  490MOL0     H64618   2.397   7.442   3.976 -0.7288 -0.3113 -2.7035
  490MOL0     H64619   2.307   7.668   3.890 -1.4956  0.7186  0.9629
  490MOL0     H64620   2.144   7.605   3.921  0.4832 -1.3856  2.4323
  490MOL0     H64621   2.162   7.425   3.751 -1.7280  1.2204 -2.9411
  490MOL0     H64622   2.334   7.430   3.748  1.9997  2.4865  4.0080
  490MOL0     H64623   2.143   7.618   3.614  0.8339  4.6079  0.3980
  490MOL0     H64624   2.295   7.688   3.655 -1.5214  0.5920  0.5608
  490MOL0     H64625   2.297   7.428   3.499  0.2435 -0.2653 -1.5316
  490MOL0     H64626   2.420   7.554   3.522  0.2498 -1.4184  2.2291
  490MOL0     H64627   2.336   7.548   3.301 -0.2983  0.1176 -0.2371
  490MOL0     H64628   2.284   7.697   3.367  1.8992 -0.2363 -2.3246
  490MOL0     H64629   2.118   7.462   3.305 -0.5977 -0.1374 -1.0856
  490MOL0     H64630   2.060   7.598   3.408 -0.1497  0.9475 -1.4537
  490MOL0     H64631   2.170   7.732   3.188  1.3461 -0.2983  1.7951
  490MOL0     H64632   2.000   7.694   3.206 -0.4445  1.0262 -1.2184
  490MOL0     H64633   2.194   7.694   2.942 -0.5728  1.5457  0.8294
  490MOL0     H64634   2.166   7.384   2.701  1.9184  0.5000 -0.2513
  490MOL0     H64635   2.229   7.546   2.693 -0.6550 -1.0867 -2.3489
  490MOL0     H64636   1.979   7.630   2.704  1.0979  1.7972 -2.4022
  490MOL0     H64637   1.951   7.468   2.626 -0.6631  1.2997 -2.2071
  490MOL0     H64638   2.140   7.675   2.521  2.8633 -2.5343 -0.4852
  490MOL0     H64639   2.127   7.519   2.453 -1.5527 -0.2292 -1.4886
  490MOL0     H64640   1.988   7.652   2.307  0.3385 -0.5084 -0.7737
  490MOL0     H64641   1.897   7.704   2.462 -0.1878 -1.6499  1.6273
  490MOL0     H64642   1.708   7.665   2.529  0.1940 -0.7198  0.8672
  490MOL0     H64643   1.473   7.662   2.487  0.8952  0.8514  1.0563
  490MOL0     H64644   1.162   7.179   2.231 -0.2140  0.3527 -1.6998
  490MOL0     H64645   0.952   7.144   2.178  3.8384 -0.0874 -1.7562
  490MOL0     H64646   0.745   7.188   2.062  1.0930  1.2906  0.4136
  490MOL0     H64647   0.582   7.261   2.101  0.2056  3.0700  0.7141
  490MOL0     H64648   0.754   7.078   2.289 -0.1062  1.5098  1.0365
  490MOL0     H64649   0.602   7.056   2.218 -1.9711  2.7250 -2.4011
  490MOL0     H64650   0.553   7.298   2.365  1.6010  1.4223 -1.2353
  490MOL0     H64651   0.710   7.258   2.424  1.0394 -0.3445 -0.2853
  490MOL0     H64652   0.475   7.066   2.450 -0.3185 -0.9140  0.9404
  490MOL0     H64653   0.617   7.070   2.562 -1.6006  0.1285  0.9703
  490MOL0     H64654   0.522   7.323   2.591 -3.1004  1.7821 -4.0224
  490MOL0     H64655   0.515   7.200   2.701 -2.0741  1.9827 -0.2648
  490MOL0     H64656   0.305   7.110   2.566  1.5180 -0.4792  1.4919
  490MOL0     H64657   0.310   7.271   2.498 -0.1472  1.0516  0.7200
  490MOL0     H64658   0.268   7.195   2.786  1.1628  3.1653  2.8667
  490MOL0     H64659   0.333   7.354   2.747 -0.5401 -1.7020  4.2340
  490MOL0     H64660   0.136   7.390   2.605 -0.8549  1.5234  1.6911
  490MOL0     H64661   0.114   7.372   2.783  2.0256 -1.9888  1.5136
  490MOL0     H64662   0.874   7.575   2.175  1.3275  1.7433  0.6285
  490MOL0     H64663   1.109   7.614   2.183  0.0950  0.7757 -1.8186
  490MOL0     H64664   1.517   7.338   2.202 -1.2157  2.8130 -2.3837
  490MOL0     H64665   1.772   7.363   2.220  1.0592  1.5367  0.8077
  490MOL0     H64666   2.314   7.720   4.304  0.8277 -0.4471 -0.2570
  490MOL0     H64667   2.198   7.695   4.531 -1.3290  1.1124 -1.5277
  490MOL0     H64668   2.157   7.295   4.922  1.1969  2.7252 -2.9900
  490MOL0     H64669   2.038   7.307   5.140  1.1788  2.2278  0.5094
  490MOL0     H64670   1.805   7.485   5.381 -2.7766 -1.6062  0.1666
  490MOL0     H64671   1.956   7.436   5.306  0.2492 -0.0684 -1.2170
  490MOL0     H64672   1.731   7.233   5.324 -0.8488  0.8213  0.8234
  490MOL0     H64673   1.893   7.194   5.297  0.0656  0.0474  0.1958
  490MOL0     H64674   1.781   7.271   5.559  0.5175 -3.2654  4.1352
  490MOL0     H64675   1.965   7.285   5.532  0.8024 -3.1698  0.3004
  490MOL0     H64676   1.775   7.049   5.522 -2.0511  2.8224  1.7565
  490MOL0     H64677   1.943   7.025   5.456 -0.7152  0.1522 -0.9031
  490MOL0     H64678   2.079   7.073   5.836 -5.0461 -0.3616  3.3022
  490MOL0     H64679   1.760   7.569   4.959  1.9086  2.1313 -1.4386
  490MOL0     H64680   1.873   7.567   4.759 -2.7107  2.0065  2.0068
  491MOL0     O64681   4.116   2.119   4.116  0.4114 -0.4792 -0.2756
  491MOL0     C64682   4.011   2.174   4.067 -0.2439  0.5865  0.0178
  491MOL0     O64683   4.005   2.288   3.986  0.4775 -0.1903 -0.6933
  491MOL0     C64684   4.119   2.353   3.951  0.2853 -0.2032  0.3629
  491MOL0     C64685   4.183   2.429   4.051 -0.3239  0.1490  0.0612
  491MOL0     C64686   4.306   2.490   4.023  0.9202 -1.3375  0.0544
  491MOL0     C64687   4.360   2.481   3.890 -0.4928  0.2294 -0.8579
  491MOL0     O64688   4.474   2.540   3.845 -0.5860  0.0399  0.2455
  491MOL0     C64689   4.526   2.652   3.914 -0.2844  0.8357  1.1174
  491MOL0     C64690   4.601   2.741   3.811  0.4915 -0.3722 -0.5880
  491MOL0     C64691   4.506   2.789   3.700  0.3888  1.2949  0.1236
  491MOL0     C64692   4.581   2.879   3.602 -1.1478 -0.8110 -0.1767
  491MOL0     C64693   4.520   2.877   3.461  0.3491 -0.1102 -0.4677
  491MOL0     C64694   4.587   2.984   3.369 -0.0290  0.6019 -0.0775
  491MOL0     C64695   4.528   2.960   3.234 -0.0917  0.0191  1.0963
  491MOL0     C64696   4.569   3.055   3.119 -0.0437  0.3869  0.5864
  491MOL0     N64697   4.519   3.190   3.136  0.7877  0.1724  0.0869
  491MOL0     C64698   4.439   3.243   3.036 -0.1365  0.3808  0.0274
  491MOL0     C64699   4.478   3.374   3.027 -0.1757  0.2998  0.1694
  491MOL0     C64700   4.442   3.472   2.926  0.2233  0.6014  0.8755
  491MOL0     C64701   4.465   3.427   2.777  0.8488 -0.8022 -0.1010
  491MOL0     C64702   4.411   3.530   2.676  0.5285  0.0768  0.8079
  491MOL0     C64703   4.262   3.500   2.656 -0.7731 -0.8425  0.2016
  491MOL0     O64704   4.216   3.377   2.597 -0.9145 -0.3342  0.1168
  491MOL0     C64705   4.194   3.379   2.464 -0.6569  0.3774 -0.2030
  491MOL0     C64706   4.270   3.450   2.368  0.4232 -0.4163 -0.7834
  491MOL0     C64707   4.259   3.416   2.236 -0.4284 -0.2626 -0.6192
  491MOL0     C64708   4.155   3.347   2.183 -0.1026  0.1081 -0.0454
  491MOL0     C64709   4.156   3.325   2.032  0.9226  0.1118  0.3982
  491MOL0     O64710   4.065   3.228   1.985  0.0562 -0.2370 -0.2482
  491MOL0     C64711   4.070   3.179   1.858 -0.4808  0.0093  0.6490
  491MOL0     C64712   4.130   3.250   1.745 -0.0414  0.4631 -1.2304
  491MOL0     C64713   4.143   3.184   1.618 -0.6712 -0.8575 -0.1123
  491MOL0     C64714   4.087   3.062   1.594  0.1682  1.7268  0.1047
  491MOL0     O64715   4.082   2.987   1.467 -0.7220 -0.3871 -0.3078
  491MOL0     C64716   4.064   3.052   1.337 -0.8142  0.4757 -0.1911
  491MOL0     C64717   4.096   2.946   1.229 -0.7015  0.3047  0.8501
  491MOL0     C64718   4.016   2.810   1.251 -0.3884  0.2015 -0.5621
  491MOL0     C64719   4.011   2.731   1.123 -0.4754 -0.7472 -0.0939
  491MOL0     C64720   3.916   2.630   1.153  0.0834  0.3733  0.1140
  491MOL0     C64721   3.888   2.533   1.042 -0.6285  1.1582 -0.0610
  491MOL0     C64722   3.825   2.594   0.920  0.5658  0.2231  0.0041
  491MOL0     C64723   3.680   2.537   0.908  0.1399  0.5225 -0.0474
  491MOL0    Cl64724   3.586   2.635   0.794  0.0420  0.0953 -0.2602
  491MOL0     C64725   4.013   3.003   1.696 -0.0887  0.8844 -0.4636
  491MOL0     C64726   4.003   3.057   1.826  0.2304 -0.3731  0.2126
  491MOL0     O64727   4.236   3.393   1.966 -1.3626  0.9929 -0.0417
  491MOL0     C64728   4.056   3.283   2.270 -0.4557  0.6003  0.3706
  491MOL0     C64729   4.080   3.308   2.415  0.6129  0.1107  0.6631
  491MOL0     N64730   4.585   3.399   3.120 -0.1380  0.4015 -0.1166
  491MOL0     N64731   4.592   3.289   3.186 -0.2613  0.2544 -0.4712
  491MOL0     C64732   4.294   2.403   3.798 -0.5965  0.2127  0.1742
  491MOL0     C64733   4.170   2.346   3.822  0.4554 -0.1734  0.2689
  491MOL0     C64734   3.889   2.096   4.104  0.4207  0.1263  0.9742
  491MOL0     C64735   3.781   2.110   4.024  0.0510  0.2071 -0.1019
  491MOL0     C64736   3.664   2.040   4.049  0.4294  0.0257 -1.1230
  491MOL0     C64737   3.651   1.959   4.159  0.4943  0.0171 -1.8687
  491MOL0     O64738   3.528   1.910   4.187  0.1272  0.0651  0.0563
  491MOL0     C64739   3.496   1.842   4.307  0.2216  0.6544 -0.2186
  491MOL0     C64740   3.358   1.788   4.294  0.7367 -0.3967  0.1652
  491MOL0     C64741   3.318   1.683   4.402  0.4149 -0.2102  0.2265
  491MOL0     C64742   3.285   1.735   4.540  0.1802  0.5487  0.5662
  491MOL0     C64743   3.217   1.635   4.623  0.3093  0.2551 -0.5529
  491MOL0     C64744   3.167   1.543   4.684 -0.0004 -0.7043 -0.1112
  491MOL0     C64745   3.765   1.948   4.239  0.1597  0.3880 -0.5134
  491MOL0     C64746   3.884   2.007   4.208 -0.7635  0.1158 -0.3565
  491MOL0     H64747   4.124   2.443   4.141 -4.1907  2.4517 -2.4922
  491MOL0     H64748   4.341   2.566   4.093 -1.5916 -0.1635  0.1446
  491MOL0     H64749   4.603   2.631   3.988  0.8297  1.2244  0.0871
  491MOL0     H64750   4.453   2.714   3.968 -0.5298  2.6174 -1.0695
  491MOL0     H64751   4.680   2.673   3.777  0.3574 -2.2525  2.4256
  491MOL0     H64752   4.647   2.822   3.868  0.7086 -0.8919 -0.0048
  491MOL0     H64753   4.416   2.846   3.724  1.6585  2.6373  1.9644
  491MOL0     H64754   4.467   2.694   3.661  2.7499  1.2371 -2.4271
  491MOL0     H64755   4.576   2.976   3.651  1.8072  0.0441 -1.3976
  491MOL0     H64756   4.684   2.845   3.595 -0.3410  0.8873  2.2896
  491MOL0     H64757   4.419   2.917   3.480  1.6703  2.3465  2.2556
  491MOL0     H64758   4.515   2.774   3.426 -2.0299 -0.4491  0.6095
  491MOL0     H64759   4.696   2.972   3.362 -0.4055 -3.4350 -1.9059
  491MOL0     H64760   4.564   3.082   3.410  2.0851  1.0003  0.2650
  491MOL0     H64761   4.558   2.858   3.206  1.4922  0.5765  0.6449
  491MOL0     H64762   4.419   2.964   3.235 -0.1988  0.2992 -1.8795
  491MOL0     H64763   4.542   3.004   3.025 -0.0017 -1.1679  1.3797
  491MOL0     H64764   4.678   3.067   3.122  0.0722 -0.1369 -0.6608
  491MOL0     H64765   4.371   3.194   2.967  0.2790  0.5360 -0.5054
  491MOL0     H64766   4.511   3.556   2.937  3.1833 -1.5669  0.1497
  491MOL0     H64767   4.339   3.497   2.950 -0.5851 -1.2513 -0.4507
  491MOL0     H64768   4.419   3.329   2.761 -0.7772 -0.1047  0.1890
  491MOL0     H64769   4.569   3.407   2.749 -0.3175 -5.0510 -2.2031
  491MOL0     H64770   4.431   3.625   2.727  3.0072 -1.8346  3.6985
  491MOL0     H64771   4.460   3.540   2.578 -0.9924  1.8296  0.1457
  491MOL0     H64772   4.235   3.586   2.594  4.0465  1.6281  1.0564
  491MOL0     H64773   4.204   3.509   2.749  1.3005 -0.5758  1.5286
  491MOL0     H64774   4.354   3.512   2.396  1.0341 -1.1840 -0.8843
  491MOL0     H64775   4.336   3.452   2.168  0.6827 -4.1053 -1.6506
  491MOL0     H64776   4.169   3.350   1.763  0.8362 -0.2714  1.3603
  491MOL0     H64777   4.196   3.231   1.536  0.4746 -1.4857  0.2404
  491MOL0     H64778   4.130   3.137   1.322  1.7574 -0.9369  2.2737
  491MOL0     H64779   3.958   3.082   1.332 -0.3931  1.8614 -1.4253
  491MOL0     H64780   4.203   2.924   1.217 -0.1339  3.6606 -1.8741
  491MOL0     H64781   4.073   2.990   1.132  1.9199  1.5873  0.7039
  491MOL0     H64782   3.918   2.837   1.290 -1.6869 -2.6233 -1.6261
  491MOL0     H64783   4.069   2.748   1.324 -0.4791  0.7588 -0.0196
  491MOL0     H64784   3.978   2.798   1.043 -0.4059 -1.9014 -1.1141
  491MOL0     H64785   4.104   2.682   1.093  0.1886 -1.1911  2.4449
  491MOL0     H64786   3.818   2.678   1.165 -0.0010  0.0881  0.5916
  491MOL0     H64787   3.942   2.558   1.232 -0.4007 -1.0070 -0.9371
  491MOL0     H64788   3.828   2.451   1.084 -0.3849 -0.2577 -2.3097
  491MOL0     H64789   3.985   2.491   1.016  0.5338  4.5359 -1.7760
  491MOL0     H64790   3.822   2.704   0.927  1.7962  0.2288  0.6841
  491MOL0     H64791   3.885   2.570   0.832  2.5111  5.9762 -0.6674
  491MOL0     H64792   3.645   2.541   1.012  1.3746 -0.0909  0.4102
  491MOL0     H64793   3.678   2.436   0.866 -1.2075 -0.0561  1.3171
  491MOL0     H64794   3.953   2.920   1.662  2.4256 -1.7928  1.2262
  491MOL0     H64795   3.952   3.007   1.908  0.5615 -5.0816 -2.1246
  491MOL0     H64796   3.971   3.225   2.235  1.9038 -2.5558 -0.5329
  491MOL0     H64797   4.002   3.271   2.481 -1.7183  1.3139 -1.2653
  491MOL0     H64798   4.338   2.418   3.700 -2.0942 -1.0286 -0.7526
  491MOL0     H64799   4.116   2.291   3.745 -0.8000  0.3774  0.7412
  491MOL0     H64800   3.779   2.180   3.941 -2.4541  3.2512  2.2557
  491MOL0     H64801   3.586   2.058   3.975  3.7793  2.3940 -4.4535
  491MOL0     H64802   3.499   1.915   4.388 -0.8228  0.4030  0.0531
  491MOL0     H64803   3.560   1.756   4.331  1.4186  1.1625 -1.4370
  491MOL0     H64804   3.277   1.861   4.293 -0.8748 -2.0692  1.2357
  491MOL0     H64805   3.349   1.738   4.197 -1.6486  0.5331 -0.1591
  491MOL0     H64806   3.393   1.603   4.399  0.9161  0.0421  2.8973
  491MOL0     H64807   3.223   1.637   4.373 -0.2647 -0.3813  2.5273
  491MOL0     H64808   3.368   1.779   4.596  0.2551  0.5158  0.4798
  491MOL0     H64809   3.215   1.819   4.525  2.9259  3.2374  1.6953
  491MOL0     H64810   3.104   1.478   4.741 -2.8447  2.7715  1.0831
  491MOL0     H64811   3.761   1.866   4.310 -0.4577 -0.8941 -1.9789
  491MOL0     H64812   3.967   1.993   4.278 -2.0375  0.1226  1.2207
  492MOL0     O64813   1.320   8.810   9.666 -0.3068 -0.7082 -0.3567
  492MOL0     C64814   1.338   8.745   9.769  0.6688 -0.9065 -0.0300
  492MOL0     O64815   1.241   8.699   9.846  0.3073  1.1428 -0.0563
  492MOL0     C64816   1.113   8.747   9.826  0.3784  0.8578 -0.1135
  492MOL0     C64817   1.084   8.887   9.805 -0.0498 -0.1431 -0.8296
  492MOL0     C64818   0.956   8.929   9.780  0.7200 -0.1499  0.1259
  492MOL0     C64819   0.851   8.839   9.776 -0.0908  0.0299 -0.4362
  492MOL0     O64820   0.722   8.878   9.760 -0.0634 -0.1396 -0.3703
  492MOL0     C64821   0.699   9.025   9.745 -0.9317  0.5623 -0.4153
  492MOL0     C64822   0.732   9.070   9.607 -0.2762 -0.3738 -0.5776
  492MOL0     C64823   0.704   9.222   9.597 -0.8214 -0.5089 -0.1981
  492MOL0     C64824   0.763   9.269   9.458 -0.0442  0.1182 -0.4890
  492MOL0     C64825   0.794   9.419   9.484 -1.0791 -0.4844  0.4232
  492MOL0     C64826   0.932   9.453   9.543 -0.2905  0.1438  0.4473
  492MOL0     C64827   0.941   9.590   9.609 -0.0627  0.6242 -0.5700
  492MOL0     C64828   0.890   9.608   9.756  0.4579 -0.0899  0.7485
  492MOL0     N64829   0.914   9.499   9.844  0.3852 -0.1878  0.4273
  492MOL0     C64830   1.038   9.442   9.849  1.1666 -0.3639 -1.0231
  492MOL0     C64831   1.010   9.327   9.919  0.4415 -0.3607 -0.3789
  492MOL0     C64832   1.117   9.227   9.952 -0.1488  1.1120  0.5612
  492MOL0     C64833   1.187   9.230  10.085 -0.0066  0.4533  0.2144
  492MOL0     C64834   1.241   9.378  10.128 -0.6393  0.4422  0.5640
  492MOL0     C64835   1.321   9.376  10.255 -0.1909  0.1525 -0.4556
  492MOL0     O64836   1.341   9.512  10.297  0.1585  0.4102  0.4972
  492MOL0     C64837   1.405   9.554  10.409  0.0242 -0.0015  0.3456
  492MOL0     C64838   1.449   9.684  10.425 -0.0407 -0.6056 -0.2599
  492MOL0     C64839   1.519   9.731  10.539  0.0999  0.1275 -0.6774
  492MOL0     C64840   1.524   9.650  10.652 -0.3823  1.0158  0.0436
  492MOL0     C64841   1.591   9.705  10.771  0.5543 -0.1390  0.0010
  492MOL0     O64842   1.683   9.619  10.842  0.1747 -0.4954 -0.0991
  492MOL0     C64843   1.741   9.671  10.953  0.8569  0.1122  0.5009
  492MOL0     C64844   1.766   9.568  11.045 -0.7923  0.0885 -0.0744
  492MOL0     C64845   1.849   9.588  11.158 -0.3144 -0.2312  0.1865
  492MOL0     C64846   1.910   9.716  11.174 -0.7234 -1.1865  0.0845
  492MOL0     O64847   1.978   9.729  11.290  0.0431 -0.6501 -0.4528
  492MOL0     C64848   1.976   9.866  11.341  0.3048  0.0478 -0.1494
  492MOL0     C64849   2.009   9.868  11.488 -0.1205 -0.0330  0.7632
  492MOL0     C64850   1.984  10.019  11.543  0.0291  0.6380  0.7373
  492MOL0     C64851   2.026  10.025  11.693  0.5952 -0.4982  0.2176
  492MOL0     C64852   1.935   9.941  11.786  0.0928  0.4250  0.8876
  492MOL0     C64853   1.953   9.964  11.940  0.8911  0.0708  0.2234
  492MOL0     C64854   2.063   9.887  12.001  0.4502 -0.6080  1.1261
  492MOL0     C64855   2.059   9.913  12.160  0.2422  0.1842  0.8762
  492MOL0    Cl64856   2.189   9.807  12.210 -0.7148 -0.3460  0.3100
  492MOL0     C64857   1.883   9.827  11.088  0.3181  1.2916  0.2748
  492MOL0     C64858   1.806   9.795  10.971  0.0000  0.3373 -0.7058
  492MOL0     O64859   1.555   9.816  10.808  0.6551 -0.0331 -0.6923
  492MOL0     C64860   1.463   9.521  10.643  0.6767 -0.5510  0.2231
  492MOL0     C64861   1.403   9.481  10.531 -0.0835  0.2356  0.5876
  492MOL0     N64862   0.877   9.325   9.958  0.0191  0.1773  0.0390
  492MOL0     N64863   0.822   9.435   9.912  0.4648  1.0594 -0.9689
  492MOL0     C64864   0.880   8.704   9.790 -0.2244 -0.2695  0.4091
  492MOL0     C64865   1.007   8.657   9.819  0.0082  0.5091 -0.1694
  492MOL0     C64866   1.476   8.725   9.814 -0.5196  0.2424 -1.0375
  492MOL0     C64867   1.586   8.784   9.748  0.8906 -0.1019  0.2538
  492MOL0     C64868   1.716   8.763   9.780 -0.3707  0.1238  0.4881
  492MOL0     C64869   1.748   8.693   9.895 -1.0053 -1.3227 -1.1517
  492MOL0     O64870   1.884   8.709   9.937 -0.6706  0.3400  0.2057
  492MOL0     C64871   1.921   8.622  10.038 -0.5543 -0.5449 -0.3902
  492MOL0     C64872   1.913   8.680  10.182  1.0830  1.1619  0.3227
  492MOL0     C64873   1.990   8.809  10.200  0.1655 -0.3551 -0.1736
  492MOL0     C64874   1.965   8.863  10.343 -0.3974 -0.5095  0.0409
  492MOL0     C64875   2.079   8.957  10.374  0.7986  0.6443  0.3306
  492MOL0     C64876   2.165   9.021  10.423 -0.3638 -0.6035 -0.0328
  492MOL0     C64877   1.640   8.637   9.969  0.0760  0.4649 -0.7040
  492MOL0     C64878   1.508   8.654   9.933 -0.4955 -0.0284  0.8039
  492MOL0     H64879   1.167   8.954   9.822 -0.6566  0.4297 -0.0399
  492MOL0     H64880   0.949   9.037   9.778  0.0284 -0.1966 -1.9210
  492MOL0     H64881   0.734   9.092   9.825  1.6122  0.9986 -1.7603
  492MOL0     H64882   0.590   9.029   9.753 -0.9663  0.2773 -0.7175
  492MOL0     H64883   0.667   9.021   9.534 -0.5432  0.5414 -0.9650
  492MOL0     H64884   0.837   9.044   9.588  0.2660  2.5273 -2.2545
  492MOL0     H64885   0.758   9.274   9.677 -1.5550  0.0956 -0.0880
  492MOL0     H64886   0.597   9.239   9.609 -1.1115 -3.0204  1.4329
  492MOL0     H64887   0.852   9.213   9.426  0.0003  0.1225 -0.3741
  492MOL0     H64888   0.691   9.261   9.377  3.1472 -2.9462 -3.3926
  492MOL0     H64889   0.707   9.466   9.532 -0.9508  0.6637 -0.4189
  492MOL0     H64890   0.791   9.471   9.388 -5.1568 -1.8456 -0.4099
  492MOL0     H64891   1.006   9.446   9.462  0.5915 -1.1909  1.3371
  492MOL0     H64892   0.972   9.384   9.617 -0.6048 -0.1182  0.3738
  492MOL0     H64893   1.050   9.590   9.621 -0.3672  0.7008  3.9262
  492MOL0     H64894   0.894   9.665   9.545 -2.1665 -2.3174 -2.6855
  492MOL0     H64895   0.782   9.629   9.762  0.6402  1.8797 -1.1507
  492MOL0     H64896   0.943   9.700   9.784  0.6899  1.4420 -3.8217
  492MOL0     H64897   1.132   9.489   9.822  1.1000  3.9355  4.4423
  492MOL0     H64898   1.189   9.232   9.870 -0.5315 -4.2236 -0.4591
  492MOL0     H64899   1.068   9.129   9.952  3.1016 -0.6795 -1.6637
  492MOL0     H64900   1.272   9.162  10.074 -0.8946 -0.3549 -2.0792
  492MOL0     H64901   1.131   9.192  10.171  0.4168  0.0420  0.3117
  492MOL0     H64902   1.314   9.408  10.053 -0.9799  0.3192  0.1767
  492MOL0     H64903   1.163   9.453  10.140 -2.6071 -1.2806 -0.6182
  492MOL0     H64904   1.412   9.318  10.236 -1.8472 -2.4140 -1.1075
  492MOL0     H64905   1.269   9.316  10.329 -1.4235  0.7707 -0.8067
  492MOL0     H64906   1.452   9.734  10.329  0.3498 -1.6673 -0.8120
  492MOL0     H64907   1.573   9.825  10.525 -1.3578  0.8621 -1.6279
  492MOL0     H64908   1.728   9.468  11.029 -0.7298 -0.1290  1.0911
  492MOL0     H64909   1.884   9.503  11.215  2.0376 -0.4899 -1.5270
  492MOL0     H64910   1.870   9.891  11.330 -1.1994 -5.1682 -0.2366
  492MOL0     H64911   2.038   9.934  11.282 -3.8489  0.8364 -4.1969
  492MOL0     H64912   2.114   9.841  11.503  0.1248  0.9254  0.8361
  492MOL0     H64913   1.939   9.803  11.542 -1.7065 -0.6499 -1.8447
  492MOL0     H64914   1.881  10.054  11.531  0.5201  1.4462 -1.4851
  492MOL0     H64915   2.045  10.094  11.493 -0.5965  0.2534 -0.6324
  492MOL0     H64916   2.132  10.001  11.707  1.9126  3.0927 -2.2432
  492MOL0     H64917   2.031  10.128  11.730  2.4412 -1.3705  2.6814
  492MOL0     H64918   1.976   9.841  11.767  0.4707  1.0041 -1.7503
  492MOL0     H64919   1.831   9.954  11.754  0.7876 -1.1391 -2.5376
  492MOL0     H64920   1.864   9.945  12.000  0.0392  3.7449  0.3789
  492MOL0     H64921   1.970  10.071  11.952  1.9094 -0.1276  0.6234
  492MOL0     H64922   2.064   9.780  11.977  3.0611 -0.4014 -0.0404
  492MOL0     H64923   2.159   9.925  11.963 -0.2915  1.3010  1.0936
  492MOL0     H64924   1.965   9.880  12.204 -0.1016 -1.3884 -0.8929
  492MOL0     H64925   2.079  10.018  12.180  0.2890  0.2267  0.6108
  492MOL0     H64926   1.933   9.923  11.086  1.3056  0.7812  0.0021
  492MOL0     H64927   1.779   9.874  10.901 -2.7260  1.1606  1.1086
  492MOL0     H64928   1.461   9.455  10.729  2.7396 -1.5427 -0.4076
  492MOL0     H64929   1.357   9.383  10.537  0.7962 -0.2063  0.1948
  492MOL0     H64930   0.801   8.630   9.794 -1.0796  0.6824  2.2097
  492MOL0     H64931   1.038   8.554   9.834  1.6953  0.7832 -1.4665
  492MOL0     H64932   1.559   8.849   9.665  1.8736  3.0694  2.2665
  492MOL0     H64933   1.786   8.812   9.714 -1.8647  0.5844 -0.8203
  492MOL0     H64934   2.030   8.609  10.031 -0.3559  1.4259 -1.3214
  492MOL0     H64935   1.870   8.526  10.025 -2.3473  0.5740 -2.1522
  492MOL0     H64936   1.810   8.707  10.207  1.1861  2.4027 -0.4852
  492MOL0     H64937   1.946   8.607  10.257  0.9129  0.8396  0.0838
  492MOL0     H64938   1.964   8.887  10.129 -2.5846  0.1137  1.2107
  492MOL0     H64939   2.098   8.791  10.188  0.4880 -0.2630  2.1137
  492MOL0     H64940   1.877   8.926  10.329  1.1740  1.7669 -0.2361
  492MOL0     H64941   1.946   8.781  10.413  1.7392 -2.5337 -1.5866
  492MOL0     H64942   2.249   9.081  10.450 -0.5613  0.0717 -0.8814
  492MOL0     H64943   1.659   8.601  10.070  3.0270  2.2145 -0.5085
  492MOL0     H64944   1.428   8.603   9.986 -0.3524 -0.1625  0.8939
  493MOL0     O64945   9.052   8.763   4.058  0.4806  0.9788 -0.3018
  493MOL0     C64946   9.035   8.749   3.940  0.5826 -0.8643 -0.2254
  493MOL0     O64947   8.989   8.849   3.852 -0.8040  0.7830  0.1070
  493MOL0     C64948   8.944   8.963   3.904 -0.2630 -0.1478  0.1550
  493MOL0     C64949   8.830   9.022   3.848 -0.3774 -0.3546 -0.8387
  493MOL0     C64950   8.756   9.128   3.911  1.0032  1.0488 -0.2960
  493MOL0     C64951   8.813   9.183   4.025 -0.4681 -0.6330  0.8139
  493MOL0     O64952   8.742   9.284   4.090 -0.1135  0.0563 -0.2427
  493MOL0     C64953   8.799   9.415   4.081 -0.0153  0.8549  0.8152
  493MOL0     C64954   8.715   9.513   4.152 -1.1461 -0.1302  0.4312
  493MOL0     C64955   8.771   9.652   4.163 -0.9184  0.4188 -0.2363
  493MOL0     C64956   8.706   9.737   4.269 -0.6127 -0.4129  0.1844
  493MOL0     C64957   8.718   9.699   4.419  0.3593 -0.3524 -0.5629
  493MOL0     C64958   8.865   9.674   4.467 -0.0755  0.4111 -0.4220
  493MOL0     C64959   8.864   9.631   4.610  0.2774 -0.1745 -0.2098
  493MOL0     C64960   8.994   9.617   4.680  0.2082  0.3129 -1.0226
  493MOL0     N64961   9.038   9.742   4.758 -0.2800 -0.7740  0.1303
  493MOL0     C64962   8.982   9.796   4.866 -0.3448 -0.3125 -0.5037
  493MOL0     C64963   9.031   9.919   4.884  0.4913 -0.1935  0.5011
  493MOL0     C64964   8.975  10.019   4.983 -0.2379  0.2807  0.8221
  493MOL0     C64965   8.863  10.109   4.934  0.5313  0.7404 -0.0465
  493MOL0     C64966   8.915  10.242   4.878  1.0415  0.2845 -0.3598
  493MOL0     C64967   8.802  10.333   4.825  0.0199 -0.4094  0.6636
  493MOL0     O64968   8.733  10.278   4.718  0.2786  0.5337  0.7869
  493MOL0     C64969   8.796  10.273   4.595  0.0385  0.6423 -0.7155
  493MOL0     C64970   8.902  10.353   4.553 -0.1759  0.4290  0.6759
  493MOL0     C64971   8.964  10.311   4.437 -0.0801 -0.3077  0.6108
  493MOL0     C64972   8.927  10.207   4.354  0.6812  1.0213  0.8114
  493MOL0     C64973   8.993  10.180   4.225  0.4266  0.3449  0.2727
  493MOL0     O64974   8.940  10.074   4.154  0.6623 -0.4839  0.7589
  493MOL0     C64975   8.975  10.060   4.028 -0.2171  0.6096  0.5657
  493MOL0     C64976   9.016   9.926   3.991  0.0022 -0.3340  0.0437
  493MOL0     C64977   9.075   9.913   3.863  0.3781  0.3338 -0.5459
  493MOL0     C64978   9.092  10.022   3.779 -0.2189  0.5978  0.2175
  493MOL0     O64979   9.148  10.010   3.654 -0.3301 -0.1860  0.8636
  493MOL0     C64980   9.240   9.902   3.647 -0.0565  0.7519 -0.0252
  493MOL0     C64981   9.329   9.892   3.518 -0.1299  0.0878 -0.9494
  493MOL0     C64982   9.416   9.760   3.517 -0.3027 -0.9425 -0.0442
  493MOL0     C64983   9.331   9.636   3.489 -0.3627  0.0539  0.5263
  493MOL0     C64984   9.412   9.503   3.489  0.3937  0.2235 -1.1386
  493MOL0     C64985   9.469   9.460   3.629 -0.1111  0.4741 -0.1296
  493MOL0     C64986   9.356   9.413   3.735  0.1134  0.0787  0.0302
  493MOL0     C64987   9.324   9.506   3.851  0.1595 -0.6015 -0.3614
  493MOL0    Cl64988   9.222   9.426   3.976 -0.1409 -0.1314 -0.0840
  493MOL0     C64989   9.052  10.155   3.817  0.3354  0.2179 -0.8690
  493MOL0     C64990   8.987  10.170   3.935  0.7598 -0.3776  0.0664
  493MOL0     O64991   9.088  10.249   4.188  0.1160  0.3948 -0.3811
  493MOL0     C64992   8.814  10.130   4.398  1.1293  0.4050  0.9720
  493MOL0     C64993   8.749  10.166   4.516 -0.6775 -0.1485 -0.3303
  493MOL0     N64994   9.133   9.936   4.798 -0.5500 -0.1611  0.4374
  493MOL0     N64995   9.140   9.826   4.728  0.2446  0.0787 -0.2883
  493MOL0     C64996   8.930   9.135   4.076 -0.8290  0.1943  1.2666
  493MOL0     C64997   8.998   9.023   4.013 -0.6696 -0.1054 -0.8768
  493MOL0     C64998   9.069   8.612   3.878  0.7660 -0.0644 -1.0741
  493MOL0     C64999   9.062   8.590   3.744  0.5572 -0.2784  0.1299
  493MOL0     C65000   9.090   8.454   3.696  0.7799  0.2336 -0.1405
  493MOL0     C65001   9.127   8.352   3.783  0.1527 -0.3051  0.2206
  493MOL0     O65002   9.157   8.237   3.724 -0.0809  0.1377 -0.0455
  493MOL0     C65003   9.146   8.119   3.805  0.9844  0.3775  0.7039
  493MOL0     C65004   9.013   8.095   3.870  1.3356 -0.7468  0.1628
  493MOL0     C65005   9.003   7.943   3.893  0.7891 -0.9016 -0.9909
  493MOL0     C65006   9.108   7.883   3.996 -0.7204 -0.0318 -0.2758
  493MOL0     C65007   9.242   7.847   3.942  0.1582  0.1791  0.0421
  493MOL0     C65008   9.354   7.815   3.903  0.7344  0.1085 -0.6075
  493MOL0     C65009   9.162   8.382   3.916  0.3942 -0.7212 -0.4257
  493MOL0     C65010   9.123   8.509   3.958 -0.3360  0.0999 -0.1044
  493MOL0     H65011   8.794   8.976   3.756  2.7245 -2.2786 -1.2217
  493MOL0     H65012   8.663   9.163   3.868 -0.8016 -1.1358  1.5441
  493MOL0     H65013   8.801   9.451   3.978 -0.2016 -1.6908 -0.1388
  493MOL0     H65014   8.903   9.421   4.113  1.1243 -0.3042 -2.2842
  493MOL0     H65015   8.690   9.479   4.253 -3.7097  0.3487  0.0150
  493MOL0     H65016   8.620   9.526   4.099 -1.0189 -0.2242  0.1788
  493MOL0     H65017   8.762   9.699   4.064  1.5442  0.3559 -0.5666
  493MOL0     H65018   8.880   9.645   4.175 -1.0229 -0.7061  0.1213
  493MOL0     H65019   8.750   9.837   4.271 -0.6843 -0.3786  1.7911
  493MOL0     H65020   8.601   9.750   4.242 -0.1959  0.1203 -1.2499
  493MOL0     H65021   8.656   9.612   4.442  0.5134 -1.1228 -2.8051
  493MOL0     H65022   8.674   9.780   4.478  0.5209 -0.1788 -0.6831
  493MOL0     H65023   8.918   9.770   4.463  1.0782 -0.1494  0.6448
  493MOL0     H65024   8.919   9.604   4.402 -1.3350  1.4912 -2.7583
  493MOL0     H65025   8.807   9.712   4.657  1.8075  0.3655  0.7720
  493MOL0     H65026   8.817   9.532   4.618  1.9573 -0.9091  0.8864
  493MOL0     H65027   9.076   9.599   4.610  0.9543  0.0901 -0.1143
  493MOL0     H65028   8.993   9.530   4.745  0.8567  2.0428  1.4566
  493MOL0     H65029   8.901   9.749   4.921  1.1843 -0.7829  1.4808
  493MOL0     H65030   9.063  10.068   5.028  1.8949 -1.8406 -0.7610
  493MOL0     H65031   8.925   9.967   5.065 -0.0578 -0.3489  0.5369
  493MOL0     H65032   8.802  10.129   5.023 -1.4325  2.1241 -1.6311
  493MOL0     H65033   8.792  10.061   4.866  0.2863 -0.3460  0.9372
  493MOL0     H65034   8.957  10.298   4.962 -0.2131 -2.4144  2.2396
  493MOL0     H65035   8.985  10.218   4.798  1.9909  4.9260 -1.2028
  493MOL0     H65036   8.846  10.428   4.793 -1.5114  0.7980  1.9853
  493MOL0     H65037   8.742  10.346   4.915 -0.2822 -0.3800  0.4604
  493MOL0     H65038   8.944  10.433   4.613  0.8704  2.0180 -2.0058
  493MOL0     H65039   9.052  10.371   4.416 -1.4607  2.2963  1.8701
  493MOL0     H65040   9.004   9.845   4.062 -1.1100  2.2803  3.1231
  493MOL0     H65041   9.097   9.810   3.833  0.8253  1.0666 -2.9843
  493MOL0     H65042   9.173   9.816   3.635  0.5496  0.2985 -0.2144
  493MOL0     H65043   9.307   9.887   3.732  0.7379  2.6353 -0.2690
  493MOL0     H65044   9.400   9.975   3.519  3.2506 -2.4780 -3.3149
  493MOL0     H65045   9.269   9.890   3.426 -1.6778 -2.9379 -0.0107
  493MOL0     H65046   9.458   9.752   3.618  2.3692  0.4381 -0.9474
  493MOL0     H65047   9.493   9.771   3.441 -0.9791 -4.5350 -1.4317
  493MOL0     H65048   9.243   9.620   3.553 -0.6672 -0.4205  0.0019
  493MOL0     H65049   9.284   9.649   3.391 -2.0788 -0.7537  1.1862
  493MOL0     H65050   9.502   9.511   3.427  2.1267 -1.5744  0.9887
  493MOL0     H65051   9.348   9.420   3.458 -2.8718  2.0173  0.2035
  493MOL0     H65052   9.539   9.530   3.675 -0.4451  0.7998 -0.1102
  493MOL0     H65053   9.523   9.371   3.594 -2.4931 -2.3205  2.6076
  493MOL0     H65054   9.259   9.399   3.687  0.2865 -1.1379  0.0274
  493MOL0     H65055   9.395   9.322   3.781 -1.2823  0.1510  1.4112
  493MOL0     H65056   9.284   9.604   3.825 -0.9175 -0.8997  0.1252
  493MOL0     H65057   9.422   9.539   3.886  0.8034 -1.3930 -1.3615
  493MOL0     H65058   9.059  10.222   3.732 -0.4161  1.5966  0.1323
  493MOL0     H65059   8.929  10.257   3.962 -0.0624 -0.4555 -1.3545
  493MOL0     H65060   8.765  10.047   4.348 -1.6046  2.3554  0.1463
  493MOL0     H65061   8.666  10.113   4.561 -1.7626  3.6366  2.6282
  493MOL0     H65062   8.974   9.194   4.157  0.0387  2.8409 -0.9918
  493MOL0     H65063   9.095   8.992   4.050 -0.4582  0.6098 -0.8237
  493MOL0     H65064   9.016   8.654   3.670 -2.0337 -0.8644  1.1151
  493MOL0     H65065   9.099   8.434   3.590  2.6778  2.0838 -0.3879
  493MOL0     H65066   9.223   8.118   3.883  1.9697 -0.3849 -0.2538
  493MOL0     H65067   9.167   8.023   3.757  1.2004  0.8350 -0.1298
  493MOL0     H65068   8.996   8.147   3.965 -0.2178 -0.5558 -0.1814
  493MOL0     H65069   8.929   8.122   3.805  1.3933  0.1851  0.4634
  493MOL0     H65070   8.997   7.888   3.799  1.6622 -1.1234 -0.9203
  493MOL0     H65071   8.903   7.934   3.937  0.8883 -1.0960 -0.8002
  493MOL0     H65072   9.113   7.941   4.089  1.9386 -0.8310  0.1943
  493MOL0     H65073   9.070   7.790   4.040  0.1683  0.1923  1.0632
  493MOL0     H65074   9.446   7.769   3.871  2.5460  1.0906  2.6860
  493MOL0     H65075   9.203   8.313   3.989  1.9315 -0.3193 -0.8845
  493MOL0     H65076   9.153   8.527   4.061 -0.5804 -3.3280  0.6687
  494MOL0     O65077   1.791   2.829   7.012 -0.0857  0.2064  0.4442
  494MOL0     C65078   1.836   2.716   7.006  0.9805 -0.4270 -1.0877
  494MOL0     O65079   1.794   2.609   7.079 -0.0722  0.2175  0.3187
  494MOL0     C65080   1.678   2.609   7.141  0.5054 -0.1035 -0.5085
  494MOL0     C65081   1.558   2.640   7.077 -0.1728 -1.0480 -0.3295
  494MOL0     C65082   1.435   2.637   7.143  0.1966 -0.4526  0.1543
  494MOL0     C65083   1.436   2.597   7.278 -1.0345 -0.3083  0.1050
  494MOL0     O65084   1.313   2.596   7.341 -0.4988 -0.3307 -0.4911
  494MOL0     C65085   1.290   2.480   7.425  0.5716 -0.8246  0.2494
  494MOL0     C65086   1.148   2.478   7.477 -0.8257  0.2341 -0.2433
  494MOL0     C65087   1.022   2.474   7.378 -0.9700  0.4484 -0.0407
  494MOL0     C65088   0.884   2.484   7.452  0.1677  0.4808  0.3925
  494MOL0     C65089   0.768   2.491   7.346 -0.3816 -0.4888 -0.5493
  494MOL0     C65090   0.742   2.350   7.301  0.9874 -0.2698 -0.3278
  494MOL0     C65091   0.645   2.342   7.175  0.4455  0.6848  0.7706
  494MOL0     C65092   0.670   2.208   7.098 -0.3517  0.3609  0.2220
  494MOL0     N65093   0.614   2.208   6.959  1.0019 -0.5014 -0.1769
  494MOL0     C65094   0.497   2.278   6.911 -1.2173  0.0204  0.7166
  494MOL0     C65095   0.504   2.249   6.776  0.4340 -0.1255  0.1160
  494MOL0     C65096   0.417   2.312   6.673  0.8842  0.0901  0.1452
  494MOL0     C65097   0.361   2.208   6.569  0.3239  0.1238  0.6783
  494MOL0     C65098   0.299   2.286   6.452 -0.2651  0.5313 -0.3514
  494MOL0     C65099   0.234   2.191   6.343  0.9244 -0.4851  0.1694
  494MOL0     O65100   0.340   2.148   6.252 -0.3507 -0.3261 -0.9806
  494MOL0     C65101   0.324   2.039   6.181 -0.4559  1.1218  0.4822
  494MOL0     C65102   0.410   2.037   6.071 -1.4006 -0.0408 -0.1478
  494MOL0     C65103   0.391   1.954   5.967  0.5201  0.8063  0.6824
  494MOL0     C65104   0.286   1.859   5.962 -0.0412 -0.4495 -0.6848
  494MOL0     C65105   0.253   1.770   5.850  0.5171  0.1741  0.1865
  494MOL0     O65106   0.344   1.754   5.745  0.1388  0.7952  0.6063
  494MOL0     C65107   0.317   1.662   5.644 -0.5797 -0.8251  0.3475
  494MOL0     C65108   0.353   1.531   5.668  0.0955  0.3864 -0.4284
  494MOL0     C65109   0.308   1.432   5.584 -0.9057  0.2083  1.1107
  494MOL0     C65110   0.242   1.461   5.462 -0.5976 -0.2131 -0.1657
  494MOL0     O65111   0.203   1.356   5.382 -0.0602 -0.5674  0.2068
  494MOL0     C65112   0.076   1.300   5.419 -0.5771 -0.1207 -1.1825
  494MOL0     C65113   0.086   1.152   5.459 -0.5040  0.1848 -0.1078
  494MOL0     C65114   0.123   1.058   5.346 -0.2672 -0.7673  1.3997
  494MOL0     C65115   0.205   0.933   5.375 -0.0766 -0.5041 -0.3296
  494MOL0     C65116   0.124   0.827   5.434 -0.2027  0.2613 -0.3354
  494MOL0     C65117   0.224   0.707   5.452  0.7537  0.1167  0.0851
  494MOL0     C65118   0.334   0.668   5.341 -0.1761  0.6962  0.8404
  494MOL0     C65119   0.426   0.557   5.385  0.1342  0.3846 -0.5797
  494MOL0    Cl65120   0.516   0.600   5.542 -0.7719  0.4811  0.1964
  494MOL0     C65121   0.208   1.595   5.436  0.5577  0.5471 -0.4708
  494MOL0     C65122   0.252   1.695   5.525  0.0849  0.2208  0.1818
  494MOL0     O65123   0.143   1.717   5.847  0.8255 -0.4386  0.5392
  494MOL0     C65124   0.206   1.844   6.084 -0.7175 -0.0136  0.2335
  494MOL0     C65125   0.224   1.938   6.189  0.2275 -0.0497 -0.3767
  494MOL0     N65126   0.612   2.166   6.749 -0.5218  0.4561  0.7316
  494MOL0     N65127   0.673   2.130   6.862 -1.1681 -0.1399 -0.3953
  494MOL0     C65128   1.556   2.552   7.339 -0.6116  0.2768 -0.6066
  494MOL0     C65129   1.674   2.568   7.278  0.2647 -1.1007  0.0786
  494MOL0     C65130   1.973   2.706   6.941  0.0944  0.5661  0.2844
  494MOL0     C65131   2.031   2.578   6.919  0.4499  0.1847 -0.2892
  494MOL0     C65132   2.161   2.563   6.885 -0.1678 -0.6360 -0.9473
  494MOL0     C65133   2.249   2.672   6.859  0.0625 -0.5559 -0.6405
  494MOL0     O65134   2.387   2.668   6.848 -0.6884  0.9231 -0.7424
  494MOL0     C65135   2.443   2.605   6.733  0.1026  0.0735 -0.3039
  494MOL0     C65136   2.401   2.672   6.607 -0.4500 -0.1420 -0.4403
  494MOL0     C65137   2.446   2.616   6.473  0.2002 -0.0079 -0.1213
  494MOL0     C65138   2.602   2.625   6.449 -0.5146 -0.9545  0.5793
  494MOL0     C65139   2.641   2.761   6.418  0.5266 -0.4892 -0.7785
  494MOL0     C65140   2.662   2.880   6.417  0.2654  0.1275  0.2666
  494MOL0     C65141   2.179   2.793   6.867  0.8973 -0.5181  0.2556
  494MOL0     C65142   2.053   2.810   6.899  1.0445  0.3819 -0.5896
  494MOL0     H65143   1.557   2.663   6.971 -0.7430  1.8069  0.2159
  494MOL0     H65144   1.340   2.658   7.095  0.5594  2.6184  0.5803
  494MOL0     H65145   1.355   2.489   7.513  0.7642 -1.0081  0.1268
  494MOL0     H65146   1.310   2.385   7.376  2.6486 -0.8860  1.0714
  494MOL0     H65147   1.130   2.572   7.528 -2.3579  0.5275 -1.2476
  494MOL0     H65148   1.134   2.396   7.548 -2.9038  0.1375 -0.7035
  494MOL0     H65149   1.032   2.388   7.312  0.5635  0.2546  0.3992
  494MOL0     H65150   1.025   2.561   7.311 -1.6356  0.0197 -0.6432
  494MOL0     H65151   0.867   2.400   7.521  1.4378 -1.2297 -1.2616
  494MOL0     H65152   0.880   2.578   7.508 -3.5159  0.9599 -0.4268
  494MOL0     H65153   0.798   2.550   7.259  2.1859 -4.1253 -2.3959
  494MOL0     H65154   0.675   2.537   7.380 -1.6770 -2.1583 -1.6827
  494MOL0     H65155   0.709   2.284   7.382  0.6861  1.4642  0.9993
  494MOL0     H65156   0.835   2.303   7.266  0.5222 -1.0080 -0.6028
  494MOL0     H65157   0.541   2.344   7.207 -0.3838 -4.5630 -0.6854
  494MOL0     H65158   0.671   2.428   7.112  3.0609  1.5701  2.8395
  494MOL0     H65159   0.657   2.126   7.168 -1.4347  1.0535  0.8610
  494MOL0     H65160   0.776   2.204   7.071 -0.8563 -0.7082 -1.8028
  494MOL0     H65161   0.419   2.337   6.957 -3.8765 -2.3442 -0.5156
  494MOL0     H65162   0.471   2.384   6.611 -0.5003  0.5664 -0.5572
  494MOL0     H65163   0.330   2.363   6.716 -1.7237 -0.6957 -3.6778
  494MOL0     H65164   0.294   2.136   6.616  1.7321 -0.6145  1.6364
  494MOL0     H65165   0.437   2.142   6.525 -0.1125 -1.9951  2.9014
  494MOL0     H65166   0.235   2.365   6.493 -0.3020  0.8010 -0.9131
  494MOL0     H65167   0.368   2.351   6.398 -0.1076 -1.5102 -2.7795
  494MOL0     H65168   0.164   2.255   6.287 -0.5988  0.7092  3.1720
  494MOL0     H65169   0.182   2.104   6.384 -0.2312  0.4344  0.7224
  494MOL0     H65170   0.487   2.113   6.066  1.1328 -2.4624  0.0835
  494MOL0     H65171   0.460   1.970   5.885 -0.3946  3.4833  0.3646
  494MOL0     H65172   0.408   1.508   5.758 -1.5627  1.0223  0.7986
  494MOL0     H65173   0.328   1.328   5.608  1.2894 -0.5421 -2.9479
  494MOL0     H65174   0.001   1.318   5.341  1.6945  2.8889 -2.8891
  494MOL0     H65175   0.039   1.354   5.506 -1.6784  0.2746 -1.8720
  494MOL0     H65176   0.002   1.108   5.514 -0.3695  0.2644  0.1627
  494MOL0     H65177   0.168   1.136   5.529  0.4250 -1.9170 -1.5660
  494MOL0     H65178   0.179   1.122   5.277 -1.6508 -0.8343  0.1602
  494MOL0     H65179   0.046   1.017   5.280  1.1831 -0.6543 -0.4364
  494MOL0     H65180   0.252   0.914   5.279  0.6709 -1.4623  0.2141
  494MOL0     H65181   0.283   0.966   5.444 -1.2839 -0.1689  0.9333
  494MOL0     H65182   0.047   0.790   5.366 -0.4162 -0.1870  0.1408
  494MOL0     H65183   0.077   0.859   5.527 -0.8190  2.9965 -1.4985
  494MOL0     H65184   0.176   0.615   5.486 -1.8603  1.5059  0.3799
  494MOL0     H65185   0.287   0.745   5.533  1.8801 -0.0363 -0.6972
  494MOL0     H65186   0.289   0.638   5.246  2.1550  0.8811 -0.3904
  494MOL0     H65187   0.382   0.764   5.318 -3.2953  1.8811 -1.4147
  494MOL0     H65188   0.499   0.524   5.311  0.1444 -0.0663 -0.3735
  494MOL0     H65189   0.367   0.468   5.408  2.9807 -0.5971  4.3948
  494MOL0     H65190   0.152   1.622   5.347 -0.5389 -0.7159 -0.1907
  494MOL0     H65191   0.226   1.797   5.499  2.0205  0.7991  0.3706
  494MOL0     H65192   0.124   1.774   6.092 -2.0398  1.6867  3.0183
  494MOL0     H65193   0.152   1.945   6.270  1.5863  2.0110  0.7574
  494MOL0     H65194   1.560   2.525   7.444 -0.4205 -1.0117 -0.9262
  494MOL0     H65195   1.770   2.545   7.324  0.8770 -0.2627 -0.7283
  494MOL0     H65196   1.974   2.490   6.947  0.8423 -0.3281 -1.0578
  494MOL0     H65197   2.212   2.469   6.867 -0.1971 -0.7574 -0.4020
  494MOL0     H65198   2.409   2.501   6.742  0.0071 -0.1279 -2.4909
  494MOL0     H65199   2.552   2.601   6.739  0.0555  0.2865  1.0697
  494MOL0     H65200   2.293   2.689   6.603 -0.4449  1.3302  2.7006
  494MOL0     H65201   2.436   2.776   6.612 -1.5755  0.3043 -1.1884
  494MOL0     H65202   2.398   2.663   6.387  1.4890 -1.2902 -1.6040
  494MOL0     H65203   2.415   2.512   6.471  1.8227 -0.5778  1.7662
  494MOL0     H65204   2.663   2.593   6.534  0.7023  0.3005  0.2209
  494MOL0     H65205   2.629   2.569   6.359  2.1281  3.7355 -1.9521
  494MOL0     H65206   2.666   2.987   6.428 -1.9112  0.3046 -0.1791
  494MOL0     H65207   2.244   2.879   6.862  1.9004 -0.8900  3.8684
  494MOL0     H65208   2.013   2.910   6.907  0.3121  0.2280 -1.9617
  495MOL0     O65209   2.142   1.149   3.822  1.2081 -1.0703  0.6695
  495MOL0     C65210   2.112   1.110   3.936 -0.0774  0.6572  0.5621
  495MOL0     O65211   2.158   0.993   3.989 -0.2389  1.0312  0.4680
  495MOL0     C65212   2.218   0.905   3.898 -0.5940  0.3558 -0.2101
  495MOL0     C65213   2.360   0.915   3.888 -1.0116 -0.4086  0.5003
  495MOL0     C65214   2.438   0.855   3.782  0.8161 -0.4612  0.2031
  495MOL0     C65215   2.362   0.775   3.690  0.6026  0.2609  1.0436
  495MOL0     O65216   2.407   0.715   3.572 -0.6464  0.2746  0.2635
  495MOL0     C65217   2.543   0.752   3.529 -0.3294 -1.0719  1.1821
  495MOL0     C65218   2.580   0.716   3.386 -0.7157  0.6273 -0.4693
  495MOL0     C65219   2.494   0.785   3.282 -0.0168 -0.8624  0.7934
  495MOL0     C65220   2.515   0.766   3.124  0.4812  0.4638 -0.7339
  495MOL0     C65221   2.424   0.845   3.032 -0.1440 -0.8914 -0.4456
  495MOL0     C65222   2.399   0.791   2.893 -0.2854 -0.3459 -0.2281
  495MOL0     C65223   2.529   0.808   2.826  0.3298 -0.3570  0.5964
  495MOL0     C65224   2.537   0.764   2.684 -0.4954  0.9019 -0.5675
  495MOL0     N65225   2.674   0.795   2.616 -0.0577  0.5143 -0.1600
  495MOL0     C65226   2.704   0.871   2.501 -0.6506  1.5003 -0.0069
  495MOL0     C65227   2.834   0.855   2.487  1.1924  0.5561  0.8466
  495MOL0     C65228   2.894   0.908   2.363  0.2306 -0.6318  0.5075
  495MOL0     C65229   2.942   0.783   2.283 -0.5565 -0.2056 -0.0778
  495MOL0     C65230   2.870   0.745   2.155  0.5209 -0.2934  0.1012
  495MOL0     C65231   2.881   0.838   2.035 -1.0983 -0.2719  0.6834
  495MOL0     O65232   2.871   0.773   1.908  0.1057 -0.8355 -0.2570
  495MOL0     C65233   2.756   0.773   1.835 -0.1517  0.9221  0.0972
  495MOL0     C65234   2.774   0.721   1.706 -0.4953  0.2530 -0.0813
  495MOL0     C65235   2.657   0.711   1.624  0.1743  0.3674 -0.0419
  495MOL0     C65236   2.532   0.748   1.668 -0.4601  0.8506 -0.1768
  495MOL0     C65237   2.409   0.720   1.592  1.6550 -1.0075  1.1117
  495MOL0     O65238   2.410   0.726   1.452  0.6266 -0.2006 -0.0124
  495MOL0     C65239   2.299   0.682   1.390  0.3948 -0.9932 -0.5837
  495MOL0     C65240   2.192   0.766   1.387 -0.0524 -0.0888 -0.6980
  495MOL0     C65241   2.067   0.719   1.342  0.5770  0.6030  0.5178
  495MOL0     C65242   2.056   0.578   1.304  0.2440 -0.6643 -0.3659
  495MOL0     O65243   1.949   0.512   1.240  0.4891  0.7208 -0.4378
  495MOL0     C65244   1.862   0.592   1.167 -0.8071  0.0803  0.3298
  495MOL0     C65245   1.751   0.519   1.082 -1.0462  0.3028  0.3328
  495MOL0     C65246   1.615   0.523   1.139 -0.2539 -0.0793 -0.0498
  495MOL0     C65247   1.600   0.469   1.285  0.3807 -0.0845 -0.3374
  495MOL0     C65248   1.463   0.509   1.348 -0.2952 -0.2454 -0.8646
  495MOL0     C65249   1.428   0.436   1.486 -0.2741 -0.4197 -0.0718
  495MOL0     C65250   1.300   0.490   1.541  0.4030  0.5181 -0.0981
  495MOL0     C65251   1.268   0.428   1.672 -0.0686 -0.1818  0.1547
  495MOL0    Cl65252   1.109   0.470   1.750  0.1940 -0.0081  0.6297
  495MOL0     C65253   2.171   0.504   1.290  0.4530  1.1818 -0.3598
  495MOL0     C65254   2.294   0.553   1.344 -0.2375  0.6520  0.2291
  495MOL0     O65255   2.303   0.704   1.665 -0.5729 -0.4089  0.3244
  495MOL0     C65256   2.514   0.787   1.805 -0.4346  0.7860 -0.8070
  495MOL0     C65257   2.627   0.804   1.888  1.0703  0.2256  0.5916
  495MOL0     N65258   2.883   0.776   2.584  0.0392 -0.0791  0.0243
  495MOL0     N65259   2.791   0.733   2.665 -0.0971  0.4105  0.5355
  495MOL0     C65260   2.220   0.762   3.698 -0.2858 -0.7743  0.6296
  495MOL0     C65261   2.144   0.831   3.801 -0.3340 -0.6217 -0.7177
  495MOL0     C65262   2.044   1.192   4.026  1.5255 -0.8985  0.4506
  495MOL0     C65263   2.032   1.168   4.166  0.3001  0.2361  1.0645
  495MOL0     C65264   1.962   1.254   4.243  0.2198  0.1467 -1.7111
  495MOL0     C65265   1.890   1.371   4.192 -0.6334  0.5726 -0.6525
  495MOL0     O65266   1.833   1.473   4.273 -0.0882  0.1823 -0.0447
  495MOL0     C65267   1.783   1.422   4.397  1.1955 -0.2056  0.8494
  495MOL0     C65268   1.691   1.536   4.467  0.4621 -0.8341  0.4504
  495MOL0     C65269   1.765   1.676   4.492 -0.2222  0.1724  0.0829
  495MOL0     C65270   1.679   1.777   4.571 -0.1824  0.0863 -0.1149
  495MOL0     C65271   1.746   1.908   4.591 -0.4587 -0.7661 -0.9755
  495MOL0     C65272   1.797   2.017   4.600 -0.4290  0.2790  0.0983
  495MOL0     C65273   1.895   1.396   4.059 -0.1998 -0.2108  0.2043
  495MOL0     C65274   1.969   1.312   3.972 -0.1960  1.0006  0.6194
  495MOL0     H65275   2.404   0.980   3.964 -1.3743 -0.8852  1.1253
  495MOL0     H65276   2.546   0.861   3.785  0.8318  0.0732 -0.9968
  495MOL0     H65277   2.612   0.692   3.589  0.8417 -2.1263 -1.0837
  495MOL0     H65278   2.556   0.860   3.540  1.5695 -0.9675 -1.1783
  495MOL0     H65279   2.576   0.607   3.372  0.5442  0.7688 -2.3517
  495MOL0     H65280   2.685   0.738   3.367 -0.4073 -0.4223 -0.0356
  495MOL0     H65281   2.508   0.894   3.287  0.1114 -0.7239 -1.4976
  495MOL0     H65282   2.391   0.755   3.302 -0.1298 -0.4192  0.9058
  495MOL0     H65283   2.620   0.796   3.109  0.4141  2.0331  1.4840
  495MOL0     H65284   2.507   0.660   3.097 -0.7278  0.4943 -0.5236
  495MOL0     H65285   2.455   0.950   3.035  0.1864 -0.9190 -1.9187
  495MOL0     H65286   2.326   0.840   3.080 -0.7724  0.9627 -1.4447
  495MOL0     H65287   2.315   0.856   2.868  0.7195  1.3902  0.7609
  495MOL0     H65288   2.366   0.687   2.886  1.3958 -0.8914 -0.4191
  495MOL0     H65289   2.553   0.914   2.833 -0.0265 -0.3856  4.8779
  495MOL0     H65290   2.609   0.753   2.877  1.1831  0.1575 -0.1686
  495MOL0     H65291   2.451   0.803   2.629 -1.8799  0.0836  0.9092
  495MOL0     H65292   2.529   0.655   2.683  0.4694  0.8139 -0.0825
  495MOL0     H65293   2.639   0.896   2.418 -0.0154 -0.0297 -1.0096
  495MOL0     H65294   2.981   0.970   2.384  0.8426 -1.2829 -0.0706
  495MOL0     H65295   2.826   0.973   2.306 -0.0823 -2.2269 -1.0527
  495MOL0     H65296   2.963   0.694   2.343 -3.1067 -0.0450  1.1815
  495MOL0     H65297   3.043   0.813   2.255 -1.2009  3.7583  1.2498
  495MOL0     H65298   2.916   0.653   2.118 -0.2729  0.0602 -1.8673
  495MOL0     H65299   2.761   0.745   2.160  0.5469 -1.7779  2.7262
  495MOL0     H65300   2.984   0.873   2.034 -0.8416 -0.3452  5.0995
  495MOL0     H65301   2.807   0.919   2.045 -1.2491 -0.1188 -1.2960
  495MOL0     H65302   2.864   0.667   1.676  0.1089  0.2962  1.5245
  495MOL0     H65303   2.659   0.651   1.533 -0.5610  0.0944  0.1135
  495MOL0     H65304   2.195   0.863   1.436  1.0535 -0.4839  0.0465
  495MOL0     H65305   1.977   0.778   1.329 -0.8996 -1.5971  0.2350
  495MOL0     H65306   1.928   0.637   1.092  0.7453  1.2392  2.2953
  495MOL0     H65307   1.812   0.671   1.223 -4.1015 -2.0194  0.5718
  495MOL0     H65308   1.777   0.413   1.077  2.9188  1.1731 -0.8862
  495MOL0     H65309   1.753   0.558   0.980 -4.4703 -2.3877 -0.9477
  495MOL0     H65310   1.556   0.454   1.078  1.6565 -2.0746  0.2483
  495MOL0     H65311   1.572   0.624   1.137 -0.9046 -0.3038  1.5897
  495MOL0     H65312   1.605   0.360   1.296 -2.6865 -0.2484  0.1274
  495MOL0     H65313   1.673   0.517   1.351  1.4072 -0.4815 -1.1578
  495MOL0     H65314   1.383   0.497   1.275 -4.1924  0.6709  2.8315
  495MOL0     H65315   1.474   0.616   1.369  0.7709 -0.8097  1.9499
  495MOL0     H65316   1.499   0.465   1.564 -0.1830  0.5564 -0.4988
  495MOL0     H65317   1.434   0.327   1.477  3.0333 -0.1984 -2.0883
  495MOL0     H65318   1.292   0.597   1.561 -0.9863  0.1203  1.8481
  495MOL0     H65319   1.223   0.467   1.466  1.1928  0.5334 -0.9308
  495MOL0     H65320   1.345   0.463   1.742 -1.0010  1.3289  0.4697
  495MOL0     H65321   1.284   0.320   1.673 -2.3345 -0.6395  3.3658
  495MOL0     H65322   2.169   0.406   1.244  0.1377 -0.1026  2.2060
  495MOL0     H65323   2.386   0.495   1.352 -1.9601 -2.4126 -0.6154
  495MOL0     H65324   2.415   0.797   1.848 -0.3028  2.4058 -0.8303
  495MOL0     H65325   2.618   0.818   1.995  1.1499  0.3987  0.5760
  495MOL0     H65326   2.177   0.703   3.617 -3.6180  0.4919  1.3053
  495MOL0     H65327   2.036   0.839   3.802 -0.2720  2.9223  2.0173
  495MOL0     H65328   2.089   1.100   4.228 -3.2260 -2.2932  1.8732
  495MOL0     H65329   1.989   1.238   4.347  1.5211 -1.7388 -2.2912
  495MOL0     H65330   1.879   1.403   4.445  1.9268 -0.4567 -0.6449
  495MOL0     H65331   1.744   1.322   4.376  2.3098 -0.9450  2.1575
  495MOL0     H65332   1.598   1.557   4.413 -0.3262  1.5750  2.5256
  495MOL0     H65333   1.655   1.509   4.566  2.4393 -0.6540  1.2615
  495MOL0     H65334   1.795   1.720   4.397 -0.9593 -1.0868 -0.7607
  495MOL0     H65335   1.851   1.665   4.559 -1.3976 -1.2839  1.4436
  495MOL0     H65336   1.586   1.795   4.516 -0.7487 -1.9081  0.1184
  495MOL0     H65337   1.638   1.732   4.661  0.0215  0.1110 -0.0080
  495MOL0     H65338   1.851   2.107   4.622  3.0747 -1.6993  0.2949
  495MOL0     H65339   1.852   1.482   4.009 -0.0941 -0.0714  0.3565
  495MOL0     H65340   1.983   1.326   3.865 -0.5951 -0.9273  0.2681
  496MOL0     O65341   3.835   5.047   1.855 -0.4589 -0.5146 -0.2835
  496MOL0     C65342   3.802   5.155   1.900 -0.6994 -0.3243 -1.0126
  496MOL0     O65343   3.858   5.274   1.862 -0.1994 -0.1869 -0.4413
  496MOL0     C65344   3.931   5.279   1.746  0.4089  0.1538  1.2174
  496MOL0     C65345   4.064   5.235   1.739 -0.1697 -0.0582 -0.1848
  496MOL0     C65346   4.133   5.223   1.619 -0.3930  0.8930 -0.2022
  496MOL0     C65347   4.072   5.248   1.496  0.2833 -0.0421 -0.8165
  496MOL0     O65348   4.125   5.232   1.375 -0.0357  0.1757  0.7817
  496MOL0     C65349   4.270   5.211   1.358 -0.8532  0.3204  0.4924
  496MOL0     C65350   4.309   5.182   1.207 -0.7667  0.1423  0.2072
  496MOL0     C65351   4.259   5.278   1.096 -0.1029 -0.9360  0.0621
  496MOL0     C65352   4.346   5.407   1.086 -0.3200 -0.9398  0.3659
  496MOL0     C65353   4.285   5.507   0.990  0.0395  0.3840 -0.3420
  496MOL0     C65354   4.297   5.456   0.844  0.6581  0.8452  0.5152
  496MOL0     C65355   4.269   5.564   0.744 -0.0193  0.0892  1.0353
  496MOL0     C65356   4.387   5.662   0.725 -0.0984  0.3095 -0.2301
  496MOL0     N65357   4.360   5.768   0.621  0.0948 -0.1101 -0.0083
  496MOL0     C65358   4.354   5.745   0.484 -0.2850  0.5649 -0.5717
  496MOL0     C65359   4.346   5.866   0.432  0.1045  0.1810  0.8261
  496MOL0     C65360   4.337   5.900   0.284 -0.5518  0.3488  0.3502
  496MOL0     C65361   4.193   5.924   0.226  0.8448 -0.1304 -0.5593
  496MOL0     C65362   4.094   5.809   0.256  0.2965  0.4709  0.6236
  496MOL0     C65363   4.160   5.663   0.220  0.1435 -1.3666  0.1989
  496MOL0     O65364   4.183   5.655   0.074  0.8993 -0.8546 -0.2281
  496MOL0     C65365   4.119   5.558   0.020  0.1611  0.1642 -0.0352
  496MOL0     C65366   4.108   5.431   0.070 -0.1961 -0.3225 -0.5285
  496MOL0     C65367   4.049   5.327  -0.001  0.3451 -0.3115  0.5985
  496MOL0     C65368   3.991   5.348  -0.135  0.2349 -0.2206  0.3529
  496MOL0     C65369   3.918   5.243  -0.222 -0.8589 -0.9623 -0.1558
  496MOL0     O65370   3.917   5.267  -0.350 -0.0921 -0.6168  0.5530
  496MOL0     C65371   3.833   5.202  -0.436  1.0779  0.6014 -0.4994
  496MOL0     C65372   3.880   5.143  -0.560  0.9823 -0.0382 -0.1724
  496MOL0     C65373   3.784   5.073  -0.644 -0.6329  0.1975 -0.1822
  496MOL0     C65374   3.654   5.058  -0.609 -0.7058 -0.4416 -0.8286
  496MOL0     O65375   3.556   4.996  -0.688 -0.0736  0.0603 -0.0182
  496MOL0     C65376   3.584   4.998  -0.822 -0.1570  0.0308 -0.0076
  496MOL0     C65377   3.455   4.965  -0.900 -0.8215  0.2129  0.6072
  496MOL0     C65378   3.485   4.909  -1.044  0.2742 -0.3251 -0.8293
  496MOL0     C65379   3.350   4.897  -1.113  1.0965 -0.0188 -0.1588
  496MOL0     C65380   3.379   4.810  -1.243  0.4426  0.2265  0.5339
  496MOL0     C65381   3.255   4.806  -1.334 -0.3616 -0.2295 -0.4667
  496MOL0     C65382   3.285   4.753  -1.471  0.3809  0.3726  0.4007
  496MOL0     C65383   3.296   4.608  -1.481 -0.1454 -0.0474  0.1366
  496MOL0    Cl65384   3.146   4.525  -1.461  0.0334  0.3430  0.2947
  496MOL0     C65385   3.608   5.115  -0.487  0.0566 -0.4466 -0.0158
  496MOL0     C65386   3.695   5.180  -0.396 -0.9516 -0.5740  0.5080
  496MOL0     O65387   3.887   5.136  -0.166 -0.5680  0.1991  0.4320
  496MOL0     C65388   3.998   5.483  -0.178  1.0356  0.0303  0.8487
  496MOL0     C65389   4.062   5.589  -0.107 -0.2670  0.0223 -0.2052
  496MOL0     N65390   4.333   5.964   0.535 -0.0995  0.9318  0.6815
  496MOL0     N65391   4.332   5.899   0.650 -0.0538  0.0231  0.3489
  496MOL0     C65392   3.934   5.282   1.509  0.2559  0.4719  0.0697
  496MOL0     C65393   3.867   5.311   1.631  0.3449  0.3473 -0.5100
  496MOL0     C65394   3.712   5.157   2.013 -0.2966  0.4129  0.0832
  496MOL0     C65395   3.665   5.032   2.058  0.1309  0.6139  0.5443
  496MOL0     C65396   3.574   5.022   2.169 -0.4551  0.8716 -0.0603
  496MOL0     C65397   3.554   5.133   2.240 -0.2499 -1.2034  0.2713
  496MOL0     O65398   3.469   5.129   2.341  0.0451  0.1487 -0.1636
  496MOL0     C65399   3.499   5.079   2.472  0.4994  0.5827 -0.0595
  496MOL0     C65400   3.431   4.940   2.500 -0.2429 -0.2122 -0.0924
  496MOL0     C65401   3.444   4.914   2.651 -0.4720  0.6127 -0.4254
  496MOL0     C65402   3.344   4.999   2.726 -0.6190  0.6022 -0.2485
  496MOL0     C65403   3.388   5.040   2.860  0.3895 -0.6303 -0.5453
  496MOL0     C65404   3.418   5.076   2.975 -0.0861 -0.4510 -0.7186
  496MOL0     C65405   3.604   5.256   2.210  0.2926 -0.6624 -0.6924
  496MOL0     C65406   3.678   5.273   2.094  0.0425  0.1777  1.2149
  496MOL0     H65407   4.099   5.192   1.832 -1.3468 -3.1819 -1.0764
  496MOL0     H65408   4.232   5.179   1.629 -1.4253 -2.0636 -1.7751
  496MOL0     H65409   4.295   5.118   1.409 -1.0953 -0.2405 -0.3910
  496MOL0     H65410   4.321   5.300   1.397 -1.4238  2.3840 -3.0655
  496MOL0     H65411   4.257   5.090   1.182  1.0768 -1.0534  0.5988
  496MOL0     H65412   4.416   5.160   1.198 -0.7919 -0.7964  1.7943
  496MOL0     H65413   4.156   5.310   1.114  0.5177  1.6437 -0.6096
  496MOL0     H65414   4.259   5.224   1.001  4.8269  0.9181 -1.2844
  496MOL0     H65415   4.348   5.450   1.186 -4.1957 -1.5790  0.8656
  496MOL0     H65416   4.447   5.381   1.051  0.9295  3.9186 -0.3281
  496MOL0     H65417   4.353   5.593   0.985 -0.3454  0.7136 -0.0121
  496MOL0     H65418   4.189   5.539   1.032  0.6887  1.7220  0.1692
  496MOL0     H65419   4.229   5.373   0.824 -1.1953  3.0834 -3.7374
  496MOL0     H65420   4.402   5.426   0.830  2.2538  3.7643  4.2798
  496MOL0     H65421   4.246   5.517   0.647  0.8815 -2.2901  1.9108
  496MOL0     H65422   4.179   5.620   0.771 -0.2724 -0.3387  1.0917
  496MOL0     H65423   4.485   5.621   0.700  0.2808  2.2446 -2.1577
  496MOL0     H65424   4.406   5.716   0.819  1.8881 -2.3706  1.0546
  496MOL0     H65425   4.373   5.650   0.435 -0.5915 -0.9269  2.0654
  496MOL0     H65426   4.400   5.831   0.227 -2.5025  0.2643 -1.8420
  496MOL0     H65427   4.376   6.002   0.291 -2.1987  0.9139  5.1496
  496MOL0     H65428   4.204   5.928   0.117  0.9352  1.5037 -0.5123
  496MOL0     H65429   4.145   6.014   0.264 -2.8593 -2.1190 -0.0268
  496MOL0     H65430   4.053   5.798   0.357 -1.1100 -1.7714 -0.1133
  496MOL0     H65431   4.017   5.824   0.179  0.0277  0.5957  0.9160
  496MOL0     H65432   4.082   5.598   0.260 -0.1602 -0.7711  0.5800
  496MOL0     H65433   4.257   5.638   0.263  2.2741 -2.6252 -4.6511
  496MOL0     H65434   4.150   5.389   0.161 -3.9783 -0.6208  1.2949
  496MOL0     H65435   4.041   5.231   0.048 -2.5147  0.2932  1.5095
  496MOL0     H65436   3.979   5.164  -0.600  0.2062  2.9714 -0.7534
  496MOL0     H65437   3.830   5.060  -0.742 -0.4461  0.0330 -0.0738
  496MOL0     H65438   3.656   4.920  -0.849  2.6059  2.5102 -0.2444
  496MOL0     H65439   3.631   5.093  -0.849  1.3536 -1.5018 -3.3301
  496MOL0     H65440   3.394   5.055  -0.911  0.1124  0.6509 -1.6013
  496MOL0     H65441   3.400   4.886  -0.847 -0.4451  1.3437  2.7849
  496MOL0     H65442   3.524   4.807  -1.049  0.5812 -0.2253 -0.5259
  496MOL0     H65443   3.552   4.966  -1.108 -0.1410  1.3969  0.2081
  496MOL0     H65444   3.275   4.855  -1.045  0.1914 -1.7581 -2.1240
  496MOL0     H65445   3.303   4.994  -1.133  0.8663  0.4485  2.2744
  496MOL0     H65446   3.409   4.708  -1.217 -1.1583 -1.6172 -3.8412
  496MOL0     H65447   3.458   4.853  -1.306  0.1406 -0.4955 -0.3656
  496MOL0     H65448   3.220   4.909  -1.343 -1.4310 -0.3443  1.7172
  496MOL0     H65449   3.172   4.746  -1.294  0.8823 -1.2309  0.7081
  496MOL0     H65450   3.204   4.787  -1.537 -1.6908 -0.2216  2.4922
  496MOL0     H65451   3.376   4.804  -1.504  0.0416  0.1835 -0.8925
  496MOL0     H65452   3.373   4.568  -1.414 -0.4009  0.0741  0.5054
  496MOL0     H65453   3.331   4.598  -1.584 -1.4088  0.9174 -0.4050
  496MOL0     H65454   3.501   5.107  -0.466 -0.0622 -1.5906 -0.9422
  496MOL0     H65455   3.653   5.216  -0.302 -2.4987 -2.3113  0.5509
  496MOL0     H65456   3.956   5.498  -0.277 -1.1566 -3.8314  1.0031
  496MOL0     H65457   4.076   5.685  -0.155 -1.3173 -0.0419 -0.6643
  496MOL0     H65458   3.881   5.293   1.415 -2.0593  1.1401  1.3553
  496MOL0     H65459   3.768   5.354   1.633  0.0451 -0.2951  2.2201
  496MOL0     H65460   3.669   4.944   1.995 -1.4529  2.3839 -2.2758
  496MOL0     H65461   3.530   4.928   2.202  2.2051 -0.3809  0.1518
  496MOL0     H65462   3.469   5.158   2.542 -3.3171  1.6928 -2.6117
  496MOL0     H65463   3.607   5.068   2.487  0.0341 -2.8602  1.6251
  496MOL0     H65464   3.330   4.933   2.459 -0.1137 -0.3911 -0.3819
  496MOL0     H65465   3.492   4.865   2.449  0.5959  1.1937 -1.2083
  496MOL0     H65466   3.548   4.935   2.677 -1.0198  0.4554  2.1518
  496MOL0     H65467   3.426   4.809   2.678  1.3242 -0.1704 -2.0840
  496MOL0     H65468   3.312   5.084   2.665 -0.6229 -0.0477 -1.1780
  496MOL0     H65469   3.248   4.946   2.736  0.4226 -1.0739  1.4769
  496MOL0     H65470   3.453   5.093   3.074  0.6623 -1.5728 -0.7688
  496MOL0     H65471   3.580   5.340   2.274 -0.5475 -1.7501  0.4661
  496MOL0     H65472   3.707   5.371   2.058  3.7429 -1.6497 -1.4423
  497MOL0     O65473  10.818   4.054   2.069  0.2632 -0.7164 -0.2042
  497MOL0     C65474  10.868   4.127   1.978 -0.2284  1.0333 -0.3950
  497MOL0     O65475  10.844   4.255   1.956 -0.6301  0.1300 -0.3011
  497MOL0     C65476  10.722   4.313   1.977  0.2663  0.8947  0.5335
  497MOL0     C65477  10.605   4.236   1.988 -0.7152  0.1418  0.7314
  497MOL0     C65478  10.484   4.299   2.017  0.4480  0.9094 -0.4562
  497MOL0     C65479  10.474   4.431   2.034 -0.4434 -0.8235  0.1206
  497MOL0     O65480  10.357   4.498   2.048 -0.0309 -0.0869 -0.1794
  497MOL0     C65481  10.249   4.444   1.985 -0.8779 -0.2800  0.4624
  497MOL0     C65482  10.136   4.538   1.975  0.7847 -0.3535 -0.0496
  497MOL0     C65483  10.093   4.602   2.104 -0.1334  0.0377 -0.7540
  497MOL0     C65484   9.978   4.701   2.099 -0.6933  0.0893  0.0142
  497MOL0     C65485   9.986   4.819   2.005  0.1480  0.4935 -0.4997
  497MOL0     C65486   9.846   4.890   2.013  1.0356 -0.4545 -0.3643
  497MOL0     C65487   9.850   5.039   1.962  0.3424 -0.9515 -0.5406
  497MOL0     C65488   9.943   5.143   2.019 -1.2821 -0.4945  0.4495
  497MOL0     N65489   9.922   5.166   2.158  0.6336 -0.4340  0.1265
  497MOL0     C65490  10.017   5.147   2.246  0.0922 -0.3903  0.7415
  497MOL0     C65491   9.955   5.158   2.369 -0.4888 -0.5528  0.6128
  497MOL0     C65492  10.035   5.153   2.502  0.0272 -0.0252  1.2075
  497MOL0     C65493  10.189   5.167   2.490 -1.1730  0.2040  0.4836
  497MOL0     C65494  10.249   5.138   2.633 -0.9208  0.0118 -0.8905
  497MOL0     C65495  10.191   5.238   2.736 -0.0594  0.1449 -0.2618
  497MOL0     O65496  10.299   5.265   2.833  0.0242 -0.2321  0.3550
  497MOL0     C65497  10.395   5.364   2.811 -0.2943  0.1007  0.3231
  497MOL0     C65498  10.480   5.415   2.912  0.1081 -0.7085  0.4312
  497MOL0     C65499  10.559   5.524   2.898 -0.8443 -0.1040 -0.1149
  497MOL0     C65500  10.583   5.580   2.772  0.2260  0.7608 -0.9764
  497MOL0     C65501  10.693   5.673   2.759 -0.3483  0.8305  0.8911
  497MOL0     O65502  10.733   5.731   2.874  0.2140 -0.1612  0.6125
  497MOL0     C65503  10.808   5.843   2.874  1.5402 -0.3814 -0.6934
  497MOL0     C65504  10.944   5.833   2.867 -0.0114 -0.1039  0.0967
  497MOL0     C65505  11.020   5.945   2.846 -0.4611 -1.5930 -0.1028
  497MOL0     C65506  10.970   6.077   2.849 -0.6989  0.0187 -0.6905
  497MOL0     O65507  11.041   6.195   2.841  0.4034 -0.3738 -0.3347
  497MOL0     C65508  11.174   6.205   2.800 -0.5630 -0.2686 -0.4194
  497MOL0     C65509  11.243   6.329   2.842 -1.3222  0.4776 -0.6632
  497MOL0     C65510  11.397   6.335   2.820 -0.9481  1.1799 -0.0784
  497MOL0     C65511  11.453   6.478   2.817  0.2181  0.3823 -0.0249
  497MOL0     C65512  11.603   6.478   2.772  0.9745  0.0548 -0.8791
  497MOL0     C65513  11.677   6.608   2.787  0.0967 -0.4984  0.9704
  497MOL0     C65514  11.618   6.715   2.698 -0.8718 -0.6877 -0.9168
  497MOL0     C65515  11.712   6.836   2.667 -1.1668  0.7434  0.2477
  497MOL0    Cl65516  11.887   6.836   2.713  0.1033  0.4743  0.4935
  497MOL0     C65517  10.830   6.078   2.864 -0.6605 -0.1493  0.3490
  497MOL0     C65518  10.753   5.965   2.871 -0.5551  0.1098 -0.0296
  497MOL0     O65519  10.718   5.701   2.638  0.7499  0.4386  0.2397
  497MOL0     C65520  10.505   5.529   2.665 -0.2522  0.5739  0.6872
  497MOL0     C65521  10.408   5.430   2.685  0.6090 -0.6039 -0.5650
  497MOL0     N65522   9.821   5.193   2.353  0.1423  0.5441  0.7262
  497MOL0     N65523   9.811   5.207   2.226 -0.1703  0.8469 -0.8469
  497MOL0     C65524  10.594   4.511   2.019  0.6546  0.3050 -0.1516
  497MOL0     C65525  10.712   4.448   1.985  0.3013 -0.3837 -0.0981
  497MOL0     C65526  10.984   4.064   1.913 -0.5988  0.0068  0.3961
  497MOL0     C65527  11.046   4.129   1.808 -0.3007 -0.1932  0.8483
  497MOL0     C65528  11.147   4.055   1.737  0.6050 -0.3585  0.7828
  497MOL0     C65529  11.208   3.943   1.781  0.3014  0.4859 -0.0291
  497MOL0     O65530  11.293   3.866   1.709  0.4452  0.0106  0.0859
  497MOL0     C65531  11.382   3.925   1.614 -0.1904 -0.2320  0.2756
  497MOL0     C65532  11.407   3.824   1.502 -0.2300 -1.2156  0.2023
  497MOL0     C65533  11.506   3.712   1.532  0.1460 -0.3618 -0.4512
  497MOL0     C65534  11.548   3.634   1.402 -0.1827 -0.5942 -0.5776
  497MOL0     C65535  11.445   3.558   1.330  0.3300 -0.1592 -0.8299
  497MOL0     C65536  11.365   3.498   1.262 -1.0522  0.0801 -0.2118
  497MOL0     C65537  11.162   3.880   1.893  0.6736  0.4512  0.2165
  497MOL0     C65538  11.043   3.938   1.957  0.3876 -0.7557 -0.3964
  497MOL0     H65539  10.614   4.128   1.985  1.3899  0.2930  0.4267
  497MOL0     H65540  10.405   4.227   2.035  0.4583  1.0159  0.0156
  497MOL0     H65541  10.200   4.365   2.044 -1.7996  0.7908  1.1960
  497MOL0     H65542  10.275   4.413   1.884 -0.4271  2.0661 -0.2114
  497MOL0     H65543  10.039   4.496   1.947  0.8147  0.1247 -0.8819
  497MOL0     H65544  10.162   4.610   1.898 -1.1720  0.6580  0.1816
  497MOL0     H65545  10.178   4.659   2.143  1.3956 -0.4358 -3.1534
  497MOL0     H65546  10.079   4.524   2.179 -3.5944  0.5361 -0.7143
  497MOL0     H65547   9.885   4.647   2.079 -1.0453  0.4899  0.5503
  497MOL0     H65548   9.965   4.749   2.196 -1.2857  2.1778 -1.0389
  497MOL0     H65549  10.010   4.785   1.903 -0.9135  0.6710 -0.8245
  497MOL0     H65550  10.075   4.873   2.039  1.4031 -1.1794 -0.9734
  497MOL0     H65551   9.801   4.890   2.112 -1.9417  4.4876 -1.3480
  497MOL0     H65552   9.765   4.838   1.961  0.8980  0.0269 -0.6385
  497MOL0     H65553   9.877   5.037   1.856 -2.8018 -1.2305 -1.4318
  497MOL0     H65554   9.748   5.076   1.974 -0.2431 -2.8905  1.0606
  497MOL0     H65555   9.932   5.234   1.960 -0.8636 -0.0765  1.0025
  497MOL0     H65556  10.044   5.104   2.001 -1.2751  0.0622 -0.8727
  497MOL0     H65557  10.124   5.136   2.229  0.1959  3.2674 -1.9701
  497MOL0     H65558  10.018   5.052   2.542 -0.1232 -1.7106 -2.6676
  497MOL0     H65559   9.994   5.226   2.572 -1.0279 -0.7398  1.3697
  497MOL0     H65560  10.213   5.268   2.456 -1.4144  0.0867 -0.0446
  497MOL0     H65561  10.226   5.099   2.413 -1.4609 -1.5018  1.8084
  497MOL0     H65562  10.235   5.036   2.668 -0.3127  0.3066  0.2722
  497MOL0     H65563  10.357   5.156   2.633 -1.2745  3.7317  2.4631
  497MOL0     H65564  10.104   5.190   2.783 -0.3305  0.7696 -0.1136
  497MOL0     H65565  10.148   5.327   2.690 -0.0028  0.1613 -0.2824
  497MOL0     H65566  10.477   5.365   3.009 -1.3423 -1.3269  0.0878
  497MOL0     H65567  10.612   5.552   2.988  0.7266  0.7896 -1.2792
  497MOL0     H65568  10.998   5.739   2.874 -1.0940 -0.9627 -2.0594
  497MOL0     H65569  11.127   5.928   2.843  0.2004  2.0186 -1.7941
  497MOL0     H65570  11.176   6.200   2.690 -1.7082 -1.4187 -0.4151
  497MOL0     H65571  11.225   6.117   2.840 -0.0396  0.0145 -0.4509
  497MOL0     H65572  11.235   6.340   2.951 -1.5023 -2.2244 -0.3491
  497MOL0     H65573  11.199   6.420   2.799  4.2029  3.5803 -0.6845
  497MOL0     H65574  11.415   6.293   2.721 -2.5087  0.7248 -0.1883
  497MOL0     H65575  11.446   6.262   2.886 -3.3585  0.7551  1.3682
  497MOL0     H65576  11.417   6.551   2.744  1.6797  1.8301  0.6276
  497MOL0     H65577  11.448   6.519   2.919  2.5518 -1.3218  0.8706
  497MOL0     H65578  11.605   6.454   2.665  1.3185  0.2190 -0.9084
  497MOL0     H65579  11.655   6.401   2.829  1.3330  1.1775  0.3437
  497MOL0     H65580  11.767   6.574   2.735 -0.8786 -0.1269 -1.0464
  497MOL0     H65581  11.696   6.646   2.888  5.3158  1.8316 -0.5053
  497MOL0     H65582  11.588   6.662   2.606 -2.5655 -0.4118 -0.5684
  497MOL0     H65583  11.526   6.755   2.743  0.6087  1.8212  0.0973
  497MOL0     H65584  11.666   6.931   2.694  1.4194  1.4244  2.8522
  497MOL0     H65585  11.717   6.836   2.558 -1.5725 -1.6211  0.1743
  497MOL0     H65586  10.787   6.176   2.881  1.3666  1.0173 -0.9002
  497MOL0     H65587  10.646   5.967   2.889 -0.3909 -1.6776  1.5101
  497MOL0     H65588  10.529   5.567   2.566  0.6660  0.3077  0.7996
  497MOL0     H65589  10.339   5.397   2.608 -2.8976 -2.2434  2.9430
  497MOL0     H65590  10.585   4.619   2.028  3.1361  0.5709 -0.1093
  497MOL0     H65591  10.795   4.518   1.974 -1.4422  1.7405 -0.5221
  497MOL0     H65592  10.999   4.210   1.753  0.0173  0.0375  0.9123
  497MOL0     H65593  11.182   4.102   1.646  0.9352 -1.7214  0.1750
  497MOL0     H65594  11.480   3.960   1.648 -0.4926  0.0458  0.8707
  497MOL0     H65595  11.332   4.005   1.559 -2.8140 -2.1949 -0.4058
  497MOL0     H65596  11.317   3.769   1.474 -1.1517 -0.2463  1.1499
  497MOL0     H65597  11.436   3.879   1.412 -0.6368 -0.3174  0.6090
  497MOL0     H65598  11.471   3.657   1.620  0.7294  0.7509  0.5037
  497MOL0     H65599  11.600   3.754   1.568 -0.3974  1.8987 -1.4853
  497MOL0     H65600  11.586   3.706   1.330 -2.6144  0.3415 -1.0115
  497MOL0     H65601  11.626   3.563   1.433 -0.1945 -0.8983 -1.2280
  497MOL0     H65602  11.296   3.446   1.199 -2.1616  1.6625 -0.3622
  497MOL0     H65603  11.204   3.786   1.928  0.0474 -0.3817 -1.1726
  497MOL0     H65604  11.003   3.893   2.047  0.6991 -0.8909 -0.3236
  498MOL0     O65605   8.106   9.925   4.185 -0.2250 -0.1257 -0.4108
  498MOL0     C65606   8.162   9.817   4.163  0.7719 -0.0257  0.6178
  498MOL0     O65607   8.262   9.765   4.222 -0.5769  0.5654  0.0311
  498MOL0     C65608   8.306   9.809   4.346 -0.6047 -0.0646  0.9440
  498MOL0     C65609   8.296   9.722   4.456  0.9273 -0.3455  0.4530
  498MOL0     C65610   8.352   9.754   4.576  0.3110  1.2738  0.0979
  498MOL0     C65611   8.404   9.879   4.598  0.0723  0.1342  0.0870
  498MOL0     O65612   8.462   9.930   4.714  0.4375 -0.0180 -0.5777
  498MOL0     C65613   8.378   9.903   4.829 -0.3601  0.4459  0.8561
  498MOL0     C65614   8.425   9.998   4.931  0.0059 -0.7592  0.7627
  498MOL0     C65615   8.356   9.976   5.066  0.6553  1.0029 -1.2754
  498MOL0     C65616   8.430  10.018   5.187 -0.3182 -0.1519 -0.6724
  498MOL0     C65617   8.367   9.975   5.316  0.0961 -0.4501 -0.7992
  498MOL0     C65618   8.420  10.049   5.442  0.5207 -0.9408 -0.1194
  498MOL0     C65619   8.379  10.197   5.457 -0.8164  0.4628  0.4261
  498MOL0     C65620   8.229  10.215   5.483  0.5240  0.2316 -0.5101
  498MOL0     N65621   8.172  10.343   5.535  0.5702 -0.7738 -0.3993
  498MOL0     C65622   8.132  10.357   5.670  0.5917 -1.0397  0.1547
  498MOL0     C65623   8.101  10.487   5.673  0.3689 -0.2418 -0.4098
  498MOL0     C65624   8.055  10.562   5.796  0.2713 -0.2890  0.1294
  498MOL0     C65625   8.156  10.672   5.854  0.2192 -0.7860  0.5238
  498MOL0     C65626   8.092  10.742   5.978 -0.2533 -0.0003  0.5264
  498MOL0     C65627   8.195  10.784   6.081  0.4906 -0.6871  0.4553
  498MOL0     O65628   8.273  10.905   6.044  0.5169 -0.6059 -0.8568
  498MOL0     C65629   8.226  11.037   6.069 -0.2818  0.2388  0.2684
  498MOL0     C65630   8.302  11.146   6.035 -0.1904 -0.0615  0.9351
  498MOL0     C65631   8.264  11.280   6.072 -0.5168  0.2944 -0.0986
  498MOL0     C65632   8.136  11.300   6.144 -0.0335 -0.2189  0.0994
  498MOL0     C65633   8.089  11.430   6.188  0.6015  0.6835 -0.5242
  498MOL0     O65634   8.186  11.530   6.186 -0.1894 -0.2928  0.0969
  498MOL0     C65635   8.167  11.641   6.274  0.5186 -0.7194 -0.1664
  498MOL0     C65636   8.094  11.647   6.391 -0.6017  0.3829  0.2917
  498MOL0     C65637   8.079  11.758   6.472 -1.0310 -0.5135  1.0526
  498MOL0     C65638   8.140  11.877   6.437  0.0612 -0.1039 -0.2223
  498MOL0     O65639   8.120  11.996   6.511  0.5050 -0.2382  0.3270
  498MOL0     C65640   7.982  12.053   6.508  0.1328 -0.6318  0.6960
  498MOL0     C65641   7.903  12.064   6.641  0.6683  0.5109 -0.1606
  498MOL0     C65642   7.775  12.162   6.639 -0.4112  0.1570 -0.7749
  498MOL0     C65643   7.673  12.127   6.524  0.1857 -0.0209 -0.0354
  498MOL0     C65644   7.603  12.256   6.480 -0.0249 -0.2927  0.9159
  498MOL0     C65645   7.451  12.245   6.473  0.5672 -0.3815  0.1787
  498MOL0     C65646   7.409  12.143   6.369 -1.0880  0.8981  0.3003
  498MOL0     C65647   7.444  12.191   6.225  0.0317 -1.8539 -0.6846
  498MOL0    Cl65648   7.362  12.085   6.104  0.4008 -0.1552  0.1421
  498MOL0     C65649   8.220  11.875   6.316  0.3181 -0.6905  0.0492
  498MOL0     C65650   8.235  11.757   6.237  0.6005  0.4301 -1.0956
  498MOL0     O65651   7.968  11.447   6.204 -0.4063 -0.6075  0.3456
  498MOL0     C65652   8.059  11.185   6.162  0.8711  0.0351  0.7358
  498MOL0     C65653   8.105  11.055   6.130  0.0374  0.0770 -0.1115
  498MOL0     N65654   8.125  10.553   5.553  0.8902  0.3656 -0.0391
  498MOL0     N65655   8.159  10.464   5.470 -0.0044 -0.8584 -0.8252
  498MOL0     C65656   8.415   9.968   4.493  0.4904  0.5519  1.0834
  498MOL0     C65657   8.363   9.931   4.368  0.1061 -0.1901 -0.2461
  498MOL0     C65658   8.128   9.761   4.026  0.2219  0.4763 -0.4091
  498MOL0     C65659   8.208   9.663   3.973  0.1138  0.3799  0.3008
  498MOL0     C65660   8.172   9.588   3.858 -0.1469 -1.3103 -0.6285
  498MOL0     C65661   8.050   9.621   3.798  0.7184 -0.5424 -1.1141
  498MOL0     O65662   8.035   9.570   3.681  0.6496 -0.7879  0.7896
  498MOL0     C65663   8.112   9.643   3.589  0.0611 -0.4999 -0.3381
  498MOL0     C65664   8.055   9.597   3.446 -0.6272 -0.7304 -0.4617
  498MOL0     C65665   8.133   9.470   3.392 -0.3746 -0.8880 -0.7792
  498MOL0     C65666   8.088   9.430   3.252  0.4839  0.1926 -0.5850
  498MOL0     C65667   8.169   9.308   3.219  0.1510  0.1493  0.1185
  498MOL0     C65668   8.238   9.204   3.203 -0.0048  0.4780 -0.6852
  498MOL0     C65669   7.962   9.715   3.862  0.0593 -0.2635  0.2367
  498MOL0     C65670   7.999   9.784   3.971 -0.2020  0.3899  0.4753
  498MOL0     H65671   8.243   9.627   4.454 -1.9575  1.1514  0.8027
  498MOL0     H65672   8.338   9.675   4.649 -0.6751  0.2295 -1.1679
  498MOL0     H65673   8.399   9.802   4.866  0.0901 -0.5174 -1.7976
  498MOL0     H65674   8.273   9.917   4.803 -0.5326  3.4691  2.7101
  498MOL0     H65675   8.403  10.098   4.893 -4.3267 -2.1542 -1.0946
  498MOL0     H65676   8.532  10.001   4.953 -0.4070 -1.0389  3.0800
  498MOL0     H65677   8.340   9.869   5.082  1.7728  1.1890  1.7371
  498MOL0     H65678   8.256  10.021   5.060 -0.0083 -0.1818  0.2691
  498MOL0     H65679   8.530   9.974   5.183  0.4120  1.3997 -0.2857
  498MOL0     H65680   8.428  10.128   5.185 -2.1544 -0.1407 -2.9867
  498MOL0     H65681   8.392   9.870   5.333  4.0074  0.4048 -0.3955
  498MOL0     H65682   8.257   9.973   5.310 -0.0284 -3.4432  0.6611
  498MOL0     H65683   8.530  10.052   5.447  0.5256 -1.0628 -0.1390
  498MOL0     H65684   8.390  10.002   5.536  0.4743 -0.5332  0.0705
  498MOL0     H65685   8.419  10.251   5.543 -0.5159 -1.0975  1.2856
  498MOL0     H65686   8.418  10.243   5.366 -0.2564 -1.2130 -0.2154
  498MOL0     H65687   8.199  10.123   5.534 -1.3470 -0.5835 -2.8668
  498MOL0     H65688   8.197  10.197   5.380  0.5134 -0.6754 -0.3581
  498MOL0     H65689   8.124  10.295   5.758 -0.1640 -1.3634 -0.1382
  498MOL0     H65690   8.034  10.485   5.870 -5.2959  1.1080  0.4468
  498MOL0     H65691   7.964  10.609   5.758  2.2136  0.8729 -3.5710
  498MOL0     H65692   8.174  10.745   5.774 -1.9563 -1.7707 -0.9830
  498MOL0     H65693   8.249  10.627   5.889  1.0145  2.1551  2.4644
  498MOL0     H65694   8.036  10.833   5.955  0.9511  0.4608 -0.7248
  498MOL0     H65695   8.030  10.664   6.024  2.1845 -1.7136  1.0906
  498MOL0     H65696   8.263  10.700   6.100 -0.9907 -1.6500  1.7034
  498MOL0     H65697   8.149  10.804   6.177  0.9830 -0.0727  0.5691
  498MOL0     H65698   8.398  11.121   5.991 -0.2303 -3.5205  2.4228
  498MOL0     H65699   8.326  11.364   6.040  0.5238 -0.4048  0.0305
  498MOL0     H65700   8.043  11.566   6.441 -3.0171  2.2769  1.1047
  498MOL0     H65701   8.029  11.760   6.568 -0.6887  2.5880  1.2590
  498MOL0     H65702   7.921  12.005   6.431  1.8584 -0.6574 -0.7309
  498MOL0     H65703   7.996  12.160   6.489  3.8925 -0.9564  0.7681
  498MOL0     H65704   7.972  12.084   6.724  1.2200 -2.7399  0.3020
  498MOL0     H65705   7.864  11.965   6.667 -0.4695  1.1306  0.5724
  498MOL0     H65706   7.820  12.257   6.610 -1.1912 -0.6517 -5.2413
  498MOL0     H65707   7.717  12.175   6.731 -1.9947 -4.5139 -0.8357
  498MOL0     H65708   7.718  12.089   6.431 -2.2826  0.3192 -1.4635
  498MOL0     H65709   7.604  12.056   6.569 -1.6219  2.3400  1.1484
  498MOL0     H65710   7.647  12.285   6.385 -0.6105 -2.3212 -0.0359
  498MOL0     H65711   7.627  12.334   6.553 -0.0603 -0.4748  1.1249
  498MOL0     H65712   7.406  12.343   6.455  0.3790 -0.8793 -2.5597
  498MOL0     H65713   7.415  12.215   6.571  0.1358  1.1779  0.5288
  498MOL0     H65714   7.466  12.050   6.375 -1.3444 -0.0272 -5.3741
  498MOL0     H65715   7.303  12.120   6.379 -0.6661 -1.9468 -0.6421
  498MOL0     H65716   7.551  12.187   6.207  0.3941  0.3606  0.5379
  498MOL0     H65717   7.400  12.292   6.219 -0.4947 -1.6958  3.2443
  498MOL0     H65718   8.260  11.974   6.299 -0.1833 -0.2468  1.3518
  498MOL0     H65719   8.291  11.755   6.145  1.3259  2.3339 -0.7442
  498MOL0     H65720   7.961  11.200   6.205  0.3996  2.3320 -0.9912
  498MOL0     H65721   8.033  10.976   6.150 -1.6856  1.8373  0.9306
  498MOL0     H65722   8.460  10.065   4.508 -1.1900  1.5126  0.1885
  498MOL0     H65723   8.403  10.001   4.296 -0.2618  0.8423  0.5364
  498MOL0     H65724   8.307   9.662   4.018 -0.0316  2.7192  0.7872
  498MOL0     H65725   8.236   9.513   3.813  0.0908 -0.2851 -2.0849
  498MOL0     H65726   8.220   9.627   3.601  0.4232  2.3781  1.0466
  498MOL0     H65727   8.108   9.752   3.595 -1.3605 -0.5996  0.9022
  498MOL0     H65728   7.948   9.579   3.447 -0.3184 -3.0218  2.0502
  498MOL0     H65729   8.079   9.678   3.377  4.1917  0.6023  2.2875
  498MOL0     H65730   8.126   9.394   3.471  0.7210  1.7650  2.0562
  498MOL0     H65731   8.238   9.496   3.381 -0.6733  0.8281  0.1818
  498MOL0     H65732   7.982   9.410   3.241  0.6804 -0.9304 -0.5105
  498MOL0     H65733   8.096   9.526   3.200 -2.5457 -0.5176 -2.5803
  498MOL0     H65734   8.296   9.115   3.188 -0.0218  0.3936 -0.2601
  498MOL0     H65735   7.873   9.742   3.808  0.5926  0.0356 -0.5002
  498MOL0     H65736   7.947   9.870   4.011  5.7570  4.6292  0.5670
  499MOL0     O65737   9.389   6.545   1.988  1.0333  0.0094  0.2363
  499MOL0     C65738   9.496   6.494   1.952  0.2247 -0.1215  0.5991
  499MOL0     O65739   9.515   6.362   1.950 -0.1924  0.0793  0.0592
  499MOL0     C65740   9.425   6.275   2.011  0.4260  0.2377  0.1649
  499MOL0     C65741   9.385   6.165   1.932  1.0145 -0.1317  0.4895
  499MOL0     C65742   9.327   6.052   1.999 -0.7690 -0.2622  0.5977
  499MOL0     C65743   9.304   6.060   2.132  0.2728  0.1144 -0.3869
  499MOL0     O65744   9.230   5.964   2.200  0.6264  0.1265 -0.0036
  499MOL0     C65745   9.134   5.863   2.152 -0.3590  0.3240  0.4491
  499MOL0     C65746   9.206   5.726   2.121  0.5047 -0.9049 -0.2141
  499MOL0     C65747   9.098   5.620   2.085 -0.0416 -0.7288 -0.2288
  499MOL0     C65748   9.147   5.496   2.021 -0.6778  0.2666 -0.7668
  499MOL0     C65749   9.123   5.483   1.869  0.1434 -0.0346  0.5123
  499MOL0     C65750   9.215   5.368   1.826 -0.2465 -0.0235 -0.0149
  499MOL0     C65751   9.194   5.351   1.667 -0.0458  0.9863  0.5270
  499MOL0     C65752   9.311   5.415   1.580  0.2983 -0.1459 -0.7736
  499MOL0     N65753   9.305   5.565   1.604 -0.2256  0.0756  0.5814
  499MOL0     C65754   9.233   5.653   1.533  0.4336 -0.7570  0.5291
  499MOL0     C65755   9.247   5.770   1.589 -0.7323 -0.2895  0.7337
  499MOL0     C65756   9.164   5.894   1.552 -0.4122  0.2942 -0.9910
  499MOL0     C65757   9.081   5.934   1.672  0.2118 -0.7476  0.2126
  499MOL0     C65758   8.959   5.843   1.680 -0.1071 -0.2109  0.0528
  499MOL0     C65759   8.847   5.843   1.571 -0.3713 -0.0071 -0.7336
  499MOL0     O65760   8.726   5.776   1.615 -0.0072 -0.6663 -0.7953
  499MOL0     C65761   8.626   5.845   1.681 -0.1714  0.2250  0.5085
  499MOL0     C65762   8.633   5.974   1.737  0.3725  0.6647  0.4545
  499MOL0     C65763   8.513   6.034   1.780  0.3439 -0.0350 -0.3412
  499MOL0     C65764   8.392   5.965   1.784  0.2366 -0.6142  0.8653
  499MOL0     C65765   8.266   6.032   1.825 -0.0443 -0.2116 -0.5129
  499MOL0     O65766   8.284   6.161   1.867 -0.5363 -0.4608  0.8106
  499MOL0     C65767   8.165   6.222   1.904 -0.0491 -0.1502  0.2275
  499MOL0     C65768   8.125   6.343   1.844  1.2117 -1.0487  0.6799
  499MOL0     C65769   8.011   6.407   1.892 -0.7522 -1.2446 -1.0226
  499MOL0     C65770   7.946   6.375   2.009  0.4725  0.5822 -0.4581
  499MOL0     O65771   7.861   6.468   2.055 -0.0783 -0.5416 -0.1655
  499MOL0     C65772   7.790   6.430   2.175 -0.0171  0.5860 -0.1035
  499MOL0     C65773   7.668   6.527   2.199 -0.0556  0.7565 -0.2218
  499MOL0     C65774   7.712   6.669   2.220 -0.7448  0.0510  0.6758
  499MOL0     C65775   7.809   6.689   2.341  0.1760  0.4143 -0.9446
  499MOL0     C65776   7.847   6.828   2.376 -0.9146 -0.0420  0.2366
  499MOL0     C65777   7.916   6.821   2.511  0.3776  0.5245 -0.0904
  499MOL0     C65778   7.961   6.958   2.568 -0.4126 -0.1677 -0.5298
  499MOL0     C65779   8.034   6.930   2.708  0.6789 -0.1538 -0.2469
  499MOL0    Cl65780   8.120   7.087   2.741  0.1569  0.0143 -0.0315
  499MOL0     C65781   7.987   6.251   2.065  0.4376  0.3865 -0.5722
  499MOL0     C65782   8.095   6.181   2.015  0.4588  0.3292 -0.8621
  499MOL0     O65783   8.173   5.956   1.848 -0.3019 -0.8668  1.1176
  499MOL0     C65784   8.395   5.831   1.743  0.6444  0.0587  0.4248
  499MOL0     C65785   8.501   5.780   1.678 -0.5201 -0.1807 -0.1050
  499MOL0     N65786   9.330   5.761   1.695 -0.0075  0.9332  0.0722
  499MOL0     N65787   9.367   5.642   1.694  0.9489 -0.3816  0.4886
  499MOL0     C65788   9.329   6.174   2.212 -1.1068  0.0236  1.4081
  499MOL0     C65789   9.399   6.277   2.147  0.0279  0.4618 -0.3945
  499MOL0     C65790   9.605   6.563   1.898  0.5699 -0.7114 -0.4089
  499MOL0     C65791   9.607   6.708   1.921 -0.6715  0.2426  0.4015
  499MOL0     C65792   9.726   6.777   1.897 -0.9603  0.3134  0.5832
  499MOL0     C65793   9.843   6.692   1.867 -0.4075 -0.0286 -0.0253
  499MOL0     O65794   9.974   6.735   1.846 -0.2505  0.2531 -0.4608
  499MOL0     C65795  10.004   6.871   1.867 -0.1660  0.5555 -0.2515
  499MOL0     C65796  10.149   6.892   1.860  1.1000  0.3794  0.6685
  499MOL0     C65797  10.174   7.042   1.870 -0.2088 -0.8503  0.1124
  499MOL0     C65798  10.311   7.084   1.802 -0.3269  0.4094 -0.3925
  499MOL0     C65799  10.435   7.025   1.859  0.0868 -0.1031 -0.2065
  499MOL0     C65800  10.536   6.969   1.897  0.4078  1.0276  1.0727
  499MOL0     C65801   9.836   6.553   1.854 -0.4474 -0.5026  0.3141
  499MOL0     C65802   9.717   6.492   1.866  0.5378  0.7624  0.2318
  499MOL0     H65803   9.409   6.162   1.826  2.1390  2.1812  0.6135
  499MOL0     H65804   9.305   5.956   1.953 -0.3817  0.2696 -0.7400
  499MOL0     H65805   9.085   5.887   2.057 -0.2800  1.3488  0.6548
  499MOL0     H65806   9.060   5.853   2.232 -1.2597  0.5070 -0.3554
  499MOL0     H65807   9.263   5.702   2.212  0.7519  1.4446  0.3038
  499MOL0     H65808   9.283   5.737   2.044  0.8357 -0.0645  0.2169
  499MOL0     H65809   9.024   5.655   2.013  1.4880  2.7490 -0.3165
  499MOL0     H65810   9.058   5.595   2.184  0.5588 -0.1826  0.1643
  499MOL0     H65811   9.256   5.499   2.025 -0.5275 -2.5061 -1.1213
  499MOL0     H65812   9.113   5.405   2.072 -1.7104  1.4489  0.7510
  499MOL0     H65813   9.146   5.574   1.813 -2.7942 -0.5412 -1.7391
  499MOL0     H65814   9.023   5.451   1.839  0.6881 -1.5764  0.2650
  499MOL0     H65815   9.182   5.283   1.887  1.1715 -0.1293  0.6400
  499MOL0     H65816   9.324   5.378   1.824 -0.2691  0.1721 -1.0415
  499MOL0     H65817   9.189   5.244   1.648  1.5456  1.0583 -0.4966
  499MOL0     H65818   9.099   5.386   1.625  1.2090  1.2140 -2.3811
  499MOL0     H65819   9.298   5.394   1.474 -3.4783  1.0026 -0.6938
  499MOL0     H65820   9.411   5.379   1.606  2.3182  2.2649 -4.3975
  499MOL0     H65821   9.170   5.630   1.447  1.2512 -0.8086 -0.0754
  499MOL0     H65822   9.100   5.871   1.466 -1.9508  0.1620  0.1510
  499MOL0     H65823   9.225   5.981   1.527 -0.9889  0.9329 -0.2373
  499MOL0     H65824   9.058   6.041   1.673  0.2880 -0.7234  1.7537
  499MOL0     H65825   9.146   5.923   1.759  0.3924  1.2934  0.3795
  499MOL0     H65826   8.984   5.737   1.673 -4.6415 -1.5310  0.2544
  499MOL0     H65827   8.909   5.856   1.776  2.2349  4.9671  0.9187
  499MOL0     H65828   8.882   5.776   1.492  0.1458 -0.6411  0.0172
  499MOL0     H65829   8.819   5.938   1.524  0.9742  1.0885  0.5614
  499MOL0     H65830   8.725   6.030   1.731  0.2420  0.7531 -1.4892
  499MOL0     H65831   8.523   6.138   1.808 -2.1818 -0.5464  3.0791
  499MOL0     H65832   8.195   6.379   1.770 -0.9494  2.3349  0.0273
  499MOL0     H65833   7.986   6.496   1.834 -3.0815 -0.1700  1.4116
  499MOL0     H65834   7.854   6.434   2.263 -0.6077  1.5671  0.3001
  499MOL0     H65835   7.746   6.331   2.161  3.7325 -1.0517 -1.7717
  499MOL0     H65836   7.615   6.502   2.291  0.4592  0.3106 -0.0413
  499MOL0     H65837   7.602   6.515   2.113  0.1045 -2.9757  0.0274
  499MOL0     H65838   7.630   6.739   2.238  0.3440  1.7352 -0.5695
  499MOL0     H65839   7.751   6.697   2.122  1.2400 -4.0505  0.0899
  499MOL0     H65840   7.754   6.649   2.427 -3.0786  1.1597 -2.5294
  499MOL0     H65841   7.901   6.631   2.328  0.0803  0.2916 -1.0929
  499MOL0     H65842   7.766   6.900   2.361 -0.1963  0.8933  0.7855
  499MOL0     H65843   7.929   6.868   2.316 -2.8744 -0.3143 -2.8076
  499MOL0     H65844   8.001   6.754   2.494  0.3314  1.0853 -3.0686
  499MOL0     H65845   7.844   6.773   2.578  0.7144  0.6074  0.3385
  499MOL0     H65846   8.040   7.005   2.510 -1.1409  0.9780 -0.6036
  499MOL0     H65847   7.877   7.020   2.599  0.4971  0.6905  0.3083
  499MOL0     H65848   8.107   6.851   2.692  1.0942  0.6039 -2.3304
  499MOL0     H65849   7.965   6.899   2.787  0.3763 -1.5500 -1.0281
  499MOL0     H65850   7.930   6.221   2.152  0.6174 -0.3521 -0.7020
  499MOL0     H65851   8.127   6.095   2.073 -0.4207  0.7632  0.3045
  499MOL0     H65852   8.300   5.782   1.762  0.3266 -0.8712 -2.8084
  499MOL0     H65853   8.496   5.680   1.637 -2.1008  0.4264 -1.5575
  499MOL0     H65854   9.306   6.189   2.317  0.7440  4.1936  1.4200
  499MOL0     H65855   9.428   6.367   2.199  1.3393  1.4736 -2.7303
  499MOL0     H65856   9.516   6.767   1.934  0.0558  1.5824 -0.4095
  499MOL0     H65857   9.743   6.882   1.917  0.6633 -0.2077  2.2258
  499MOL0     H65858   9.963   6.898   1.965  0.9884 -4.8301  2.0342
  499MOL0     H65859   9.959   6.938   1.792 -0.7277  2.3944  1.6139
  499MOL0     H65860  10.207   6.841   1.937  0.9696 -1.6204 -0.5110
  499MOL0     H65861  10.183   6.848   1.766  2.8195  0.6675  1.1173
  499MOL0     H65862  10.179   7.068   1.976  3.1784 -1.8140  0.3213
  499MOL0     H65863  10.090   7.096   1.826 -2.2446 -2.9744  1.1948
  499MOL0     H65864  10.314   7.077   1.693  5.6941  2.6423 -0.6843
  499MOL0     H65865  10.327   7.191   1.817  1.0604  0.4617 -2.0135
  499MOL0     H65866  10.632   6.932   1.927  0.5716 -0.5501 -1.1361
  499MOL0     H65867   9.923   6.497   1.823  0.3955 -0.0414  1.7494
  499MOL0     H65868   9.722   6.384   1.856  0.5297  0.5699  2.0385
  500MOL0     O65869   4.360   5.988   2.306  0.0776  0.4034 -0.1902
  500MOL0     C65870   4.416   5.899   2.379  1.1529  0.2402 -0.8422
  500MOL0     O65871   4.356   5.839   2.487 -0.0445  0.3469  0.0447
  500MOL0     C65872   4.226   5.876   2.505  0.1140  0.4005  0.0609
  500MOL0     C65873   4.121   5.841   2.422  0.1875 -0.2658 -0.5820
  500MOL0     C65874   3.989   5.883   2.454 -0.0304  0.1796  1.2103
  500MOL0     C65875   3.958   5.952   2.568  0.6225  0.6058 -0.9163
  500MOL0     O65876   3.833   6.012   2.582 -0.3937  1.0220  0.3486
  500MOL0     C65877   3.790   6.016   2.721  0.4630 -0.6504  0.5772
  500MOL0     C65878   3.649   6.043   2.724 -0.2968 -0.8548  0.4797
  500MOL0     C65879   3.621   6.166   2.647 -0.0943 -0.4369 -0.6477
  500MOL0     C65880   3.470   6.207   2.638  0.7690 -0.2128 -0.3040
  500MOL0     C65881   3.455   6.350   2.592  0.4773 -0.3986 -0.3536
  500MOL0     C65882   3.307   6.381   2.567 -0.0041  0.5009 -0.3119
  500MOL0     C65883   3.310   6.529   2.527 -0.7196 -0.7908  0.5672
  500MOL0     C65884   3.178   6.589   2.522 -0.3036 -0.2761  0.1260
  500MOL0     N65885   3.080   6.511   2.447 -0.1966 -0.4337 -0.6361
  500MOL0     C65886   3.014   6.402   2.508  0.3581  0.3050  1.4229
  500MOL0     C65887   2.922   6.361   2.411  0.0248 -0.5947 -0.3132
  500MOL0     C65888   2.803   6.265   2.440  0.1114  0.2301  0.1944
  500MOL0     C65889   2.822   6.136   2.368  0.0218  0.2656  0.1313
  500MOL0     C65890   2.885   6.029   2.468  0.2059 -0.4618  0.4768
  500MOL0     C65891   2.776   5.948   2.543 -0.0822 -0.2112 -0.4939
  500MOL0     O65892   2.695   6.034   2.629  0.2181 -0.4255  0.5875
  500MOL0     C65893   2.602   5.981   2.715  0.1046 -0.0404 -0.7197
  500MOL0     C65894   2.509   6.070   2.771 -0.5305 -0.6273  0.3322
  500MOL0     C65895   2.411   6.018   2.864 -0.4906 -0.0783 -0.1920
  500MOL0     C65896   2.400   5.885   2.898  0.3440  0.5559 -0.8826
  500MOL0     C65897   2.294   5.829   2.987 -1.2602  1.2805 -0.6352
  500MOL0     O65898   2.228   5.915   3.057 -0.5612  0.0838  0.0471
  500MOL0     C65899   2.110   5.889   3.126 -1.1014  0.1061  0.2379
  500MOL0     C65900   2.091   5.771   3.208 -0.4622  0.2868 -0.2549
  500MOL0     C65901   1.973   5.756   3.281  0.2382  1.3828  0.6086
  500MOL0     C65902   1.865   5.841   3.275 -0.9274  0.6150  0.2142
  500MOL0     O65903   1.749   5.832   3.339 -0.1699 -0.9749 -0.0648
  500MOL0     C65904   1.696   5.708   3.321  0.2567  0.1170 -0.6887
  500MOL0     C65905   1.541   5.715   3.343 -0.7470  0.8465  1.0132
  500MOL0     C65906   1.467   5.783   3.231 -0.3938  0.0121 -0.3108
  500MOL0     C65907   1.327   5.822   3.270 -0.2231 -0.2413  0.4341
  500MOL0     C65908   1.258   5.913   3.163  0.2983 -1.1641 -0.3107
  500MOL0     C65909   1.108   5.927   3.198 -0.4142  0.4085 -0.1980
  500MOL0     C65910   1.075   6.008   3.310 -0.0430 -1.2141 -0.3833
  500MOL0     C65911   0.921   6.044   3.314  0.1620 -0.5589 -1.7522
  500MOL0    Cl65912   0.859   6.123   3.456  0.0360 -0.4395 -0.6836
  500MOL0     C65913   1.888   5.961   3.213  0.7791 -0.0566 -0.7290
  500MOL0     C65914   2.006   5.973   3.136  0.6682 -0.0342 -0.0431
  500MOL0     O65915   2.296   5.703   3.004  0.1740 -0.5196 -0.5402
  500MOL0     C65916   2.496   5.800   2.842 -0.3880 -0.6469  0.1881
  500MOL0     C65917   2.595   5.845   2.752  0.7349 -0.7148  1.2102
  500MOL0     N65918   2.916   6.456   2.316 -1.0196 -0.4342 -0.0750
  500MOL0     N65919   3.014   6.548   2.333  0.3886  1.4210 -0.7846
  500MOL0     C65920   4.063   5.988   2.652  0.0821  0.1971 -0.0358
  500MOL0     C65921   4.201   5.949   2.623  0.2162  0.0952  0.3577
  500MOL0     C65922   4.541   5.849   2.346  0.2716  0.3172 -0.8924
  500MOL0     C65923   4.628   5.918   2.259 -0.0284  0.4862 -0.6327
  500MOL0     C65924   4.753   5.873   2.217  0.3907 -0.9020 -0.2231
  500MOL0     C65925   4.795   5.746   2.249 -0.0304 -0.3344 -0.0706
  500MOL0     O65926   4.908   5.699   2.196 -0.3396 -0.1147  0.1868
  500MOL0     C65927   4.984   5.594   2.250 -0.0064  0.2157 -0.3691
  500MOL0     C65928   5.071   5.652   2.383 -0.0118 -0.0566  1.2974
  500MOL0     C65929   5.165   5.543   2.438 -0.9227  0.4950 -0.1358
  500MOL0     C65930   5.099   5.420   2.511  0.4369  0.2968 -0.2269
  500MOL0     C65931   4.994   5.454   2.610  0.6290  0.1426  0.3712
  500MOL0     C65932   4.913   5.458   2.697  0.3999  0.4930 -0.2494
  500MOL0     C65933   4.704   5.664   2.324  0.1722  0.1766 -0.0133
  500MOL0     C65934   4.586   5.719   2.381 -0.7954 -0.1853 -0.0366
  500MOL0     H65935   4.154   5.781   2.338 -0.7470 -1.1131 -0.3638
  500MOL0     H65936   3.911   5.869   2.380  3.6685  2.0120 -3.5727
  500MOL0     H65937   3.839   6.095   2.779  0.3679  3.3399 -4.1205
  500MOL0     H65938   3.811   5.916   2.759  0.1918 -0.9132  0.0412
  500MOL0     H65939   3.598   6.046   2.821 -0.9724 -2.3801  0.2093
  500MOL0     H65940   3.593   5.967   2.668  0.4993 -0.8715 -0.3321
  500MOL0     H65941   3.657   6.157   2.544 -2.0593  0.7543 -1.4877
  500MOL0     H65942   3.667   6.249   2.702 -1.6084  1.8599 -2.6626
  500MOL0     H65943   3.415   6.143   2.569 -3.7668  1.5350  1.2907
  500MOL0     H65944   3.418   6.197   2.734  0.9115  0.3421 -0.1650
  500MOL0     H65945   3.508   6.352   2.496 -0.4764 -0.6916 -0.9031
  500MOL0     H65946   3.502   6.413   2.668  0.0246  1.0545 -1.2306
  500MOL0     H65947   3.260   6.374   2.666  2.3445  3.1192  1.1315
  500MOL0     H65948   3.269   6.306   2.497 -0.9393  1.0050 -0.3666
  500MOL0     H65949   3.382   6.583   2.589  1.7552 -1.6752 -1.3419
  500MOL0     H65950   3.346   6.548   2.425 -3.5967 -3.3895 -1.1166
  500MOL0     H65951   3.190   6.687   2.474  3.1777 -0.2316  0.8010
  500MOL0     H65952   3.149   6.601   2.627  0.6650 -4.4158  1.0524
  500MOL0     H65953   3.011   6.357   2.606 -2.5824  0.9382  1.7088
  500MOL0     H65954   2.707   6.312   2.413  0.2453  0.1579 -0.4206
  500MOL0     H65955   2.814   6.256   2.548  0.7100 -2.1073 -0.0167
  500MOL0     H65956   2.872   6.163   2.275 -2.3384  0.9906 -0.9939
  500MOL0     H65957   2.725   6.093   2.342 -0.3786  2.1853 -1.8311
  500MOL0     H65958   2.946   5.964   2.405 -1.3708 -0.0906 -1.5344
  500MOL0     H65959   2.952   6.075   2.542  0.4013 -1.1886  0.7626
  500MOL0     H65960   2.829   5.869   2.597 -2.2821  0.2061  2.5668
  500MOL0     H65961   2.715   5.901   2.465  0.1602  0.2715 -0.9766
  500MOL0     H65962   2.518   6.174   2.741 -0.3343 -0.0623  2.2240
  500MOL0     H65963   2.341   6.081   2.917  2.0413  2.3600  0.4698
  500MOL0     H65964   2.172   5.703   3.233 -0.1426  1.4421  2.2232
  500MOL0     H65965   1.957   5.666   3.340 -0.2890  0.2366 -1.2178
  500MOL0     H65966   1.750   5.641   3.388  2.3070 -1.2600 -3.4838
  500MOL0     H65967   1.698   5.674   3.217  1.0507  0.5507 -0.8224
  500MOL0     H65968   1.526   5.771   3.436 -2.9695  0.1252  1.1360
  500MOL0     H65969   1.510   5.612   3.359 -0.9872  0.9300  1.0867
  500MOL0     H65970   1.461   5.704   3.156  1.7387  0.4187 -0.9713
  500MOL0     H65971   1.523   5.869   3.194  3.0011 -2.2201 -0.7484
  500MOL0     H65972   1.261   5.735   3.279 -2.1635  1.0955 -0.0606
  500MOL0     H65973   1.323   5.875   3.366 -3.1733  1.2233 -0.3528
  500MOL0     H65974   1.253   5.871   3.063 -1.6472  2.7453 -2.0763
  500MOL0     H65975   1.308   6.010   3.159  0.5656 -1.2383  0.7556
  500MOL0     H65976   1.075   5.824   3.219 -0.0522  0.2634 -0.3293
  500MOL0     H65977   1.058   5.974   3.114 -1.0727  2.3880  1.2251
  500MOL0     H65978   1.087   5.963   3.409  2.6525  1.1340  0.4690
  500MOL0     H65979   1.126   6.104   3.307  0.0216 -0.7590  4.8573
  500MOL0     H65980   0.870   5.947   3.306  2.1848 -1.8116 -0.5133
  500MOL0     H65981   0.894   6.103   3.226 -2.1845  1.7657  0.3842
  500MOL0     H65982   1.804   6.028   3.196 -3.4243 -3.5538  3.4548
  500MOL0     H65983   2.031   6.070   3.093  0.1955  0.6002  1.0483
  500MOL0     H65984   2.519   5.698   2.871  1.2322 -0.4026 -0.0864
  500MOL0     H65985   2.660   5.764   2.719  3.7286  1.5085  1.2044
  500MOL0     H65986   4.043   6.052   2.738 -2.3150 -0.9199  0.3118
  500MOL0     H65987   4.277   5.972   2.697  1.2289 -1.1215 -0.2761
  500MOL0     H65988   4.595   6.011   2.212  0.3561  0.2869 -1.3164
  500MOL0     H65989   4.821   5.926   2.152 -1.4301 -0.1827 -1.6276
  500MOL0     H65990   5.056   5.543   2.186  0.8900  0.1352  0.6641
  500MOL0     H65991   4.914   5.518   2.283  1.5223 -1.0719  0.0438
  500MOL0     H65992   5.135   5.733   2.347  1.2204 -1.5917 -0.1573
  500MOL0     H65993   5.005   5.703   2.454 -0.0062 -0.0926  1.3287
  500MOL0     H65994   5.241   5.592   2.499 -0.0375 -1.8440  0.7605
  500MOL0     H65995   5.222   5.508   2.352 -1.8855 -1.7779  0.0839
  500MOL0     H65996   5.035   5.365   2.441 -2.0528  2.1976  0.3864
  500MOL0     H65997   5.173   5.353   2.554 -3.1806 -2.7223  1.9776
  500MOL0     H65998   4.827   5.439   2.758  0.2394  0.3973 -0.5019
  500MOL0     H65999   4.706   5.556   2.335 -2.4889  0.2098  1.8756
  500MOL0     H66000   4.512   5.659   2.434 -3.9364  2.5767 -0.9844
  501MOL0     O66001   0.018   6.946   3.800  0.2709 -0.4171  0.5201
  501MOL0     C66002   0.071   7.032   3.731  0.0890 -0.1966  1.3033
  501MOL0     O66003   0.153   7.134   3.772  0.0018  0.3859 -0.2827
  501MOL0     C66004   0.162   7.156   3.908 -0.1633  0.2061  0.4659
  501MOL0     C66005   0.045   7.212   3.974  0.2775 -0.0815 -0.2305
  501MOL0     C66006   0.035   7.248   4.109 -0.3732  0.1726  0.2615
  501MOL0     C66007   0.153   7.243   4.180  1.2197 -0.2857  0.0062
  501MOL0     O66008   0.142   7.291   4.310  0.9389 -0.3007  0.2891
  501MOL0     C66009   0.203   7.220   4.415  0.6906 -1.1973 -1.2526
  501MOL0     C66010   0.131   7.262   4.551  0.8336 -0.2174  0.5650
  501MOL0     C66011  -0.017   7.304   4.531 -0.6331 -0.5480  0.8497
  501MOL0     C66012  -0.116   7.202   4.459 -1.0854 -0.4415 -0.8414
  501MOL0     C66013  -0.260   7.246   4.466 -0.4462 -0.4938 -0.3323
  501MOL0     C66014  -0.334   7.116   4.438 -0.4758 -0.0888  0.5774
  501MOL0     C66015  -0.490   7.120   4.429 -0.0610 -1.2536 -0.1859
  501MOL0     C66016  -0.556   7.199   4.317  0.2587 -0.1391  0.7001
  501MOL0     N66017  -0.560   7.123   4.182 -0.4398  0.2974 -1.1706
  501MOL0     C66018  -0.452   7.059   4.127  0.7042 -1.0422  0.5502
  501MOL0     C66019  -0.518   6.990   4.020  0.1766  0.7143 -1.0292
  501MOL0     C66020  -0.443   6.911   3.921  0.5407  0.6354 -0.2502
  501MOL0     C66021  -0.336   6.818   3.974  0.0835 -0.1822 -0.1798
  501MOL0     C66022  -0.399   6.712   4.060 -1.0826  1.1822 -0.7360
  501MOL0     C66023  -0.282   6.612   4.097 -0.1632  0.8182  0.0633
  501MOL0     O66024  -0.280   6.495   4.011 -0.2630  0.2078 -0.4818
  501MOL0     C66025  -0.254   6.369   4.060  0.5215 -0.1600 -0.9869
  501MOL0     C66026  -0.233   6.274   3.962 -0.9642 -0.3038 -0.1231
  501MOL0     C66027  -0.213   6.143   3.994 -0.7765 -0.0996  1.1985
  501MOL0     C66028  -0.218   6.096   4.129 -1.0401  0.7497 -0.5018
  501MOL0     C66029  -0.203   5.940   4.148  0.8761  0.0462  0.6891
  501MOL0     O66030  -0.268   5.863   4.048  0.4151  0.5720  0.5676
  501MOL0     C66031  -0.259   5.718   4.051 -0.6542  0.1799 -0.7600
  501MOL0     C66032  -0.146   5.645   4.098 -0.1966  1.1479 -0.2094
  501MOL0     C66033  -0.148   5.503   4.104 -0.7052  0.1046  0.5474
  501MOL0     C66034  -0.263   5.428   4.068 -0.7399  1.0127 -0.7990
  501MOL0     O66035  -0.285   5.292   4.071  0.0974  0.6751  0.2135
  501MOL0     C66036  -0.184   5.203   4.121 -0.4137  0.2954 -0.1611
  501MOL0     C66037  -0.063   5.189   4.024  0.7267 -0.6315  0.7747
  501MOL0     C66038   0.060   5.102   4.072  0.0004  0.0867  0.6821
  501MOL0     C66039   0.039   4.943   4.064  0.5534  0.0734  0.4992
  501MOL0     C66040   0.162   4.859   4.107 -1.0279 -0.3274 -0.8825
  501MOL0     C66041   0.153   4.719   4.078 -0.3470  0.0093  0.3560
  501MOL0     C66042   0.271   4.637   4.131 -0.9436  0.4434 -0.2756
  501MOL0     C66043   0.227   4.529   4.233 -0.1930  0.1647  0.9626
  501MOL0    Cl66044   0.377   4.433   4.255  0.0432  0.2020  0.5771
  501MOL0     C66045  -0.370   5.501   4.011  1.2942  1.1711  0.5050
  501MOL0     C66046  -0.364   5.641   3.998  0.4358  0.5469 -0.6521
  501MOL0     O66047  -0.158   5.895   4.251 -0.0293  0.3067  0.0218
  501MOL0     C66048  -0.246   6.192   4.233 -0.3720  0.1498  0.3798
  501MOL0     C66049  -0.265   6.321   4.195 -0.2693 -0.8065  0.2214
  501MOL0     N66050  -0.652   7.010   4.033 -0.5692 -0.4255  0.0305
  501MOL0     N66051  -0.676   7.098   4.119  0.2720  0.3151  0.8778
  501MOL0     C66052   0.267   7.182   4.123  0.1376  0.2298 -0.6992
  501MOL0     C66053   0.275   7.141   3.990 -0.1375 -0.3706  0.0856
  501MOL0     C66054   0.077   6.998   3.588 -0.6008  0.1415 -0.8308
  501MOL0     C66055   0.168   7.068   3.505  0.2594  0.9821 -0.1325
  501MOL0     C66056   0.170   7.047   3.369 -0.2962  0.2052  0.2851
  501MOL0     C66057   0.101   6.936   3.317  0.3915 -0.8801 -0.0627
  501MOL0     O66058   0.107   6.907   3.178  0.1964 -0.0383  0.5662
  501MOL0     C66059   0.207   6.963   3.095  0.1031 -0.7441  0.2675
  501MOL0     C66060   0.338   6.896   3.123 -0.3965 -0.2627  0.6949
  501MOL0     C66061   0.449   6.968   3.044  0.9165 -0.1967  0.4612
  501MOL0     C66062   0.500   7.086   3.127 -0.0773  0.4800  0.3019
  501MOL0     C66063   0.565   7.188   3.049  0.5888 -0.0721  0.4286
  501MOL0     C66064   0.647   7.244   2.987 -0.5039  0.2929  0.0020
  501MOL0     C66065  -0.002   6.876   3.391 -0.4623 -0.8614 -0.3056
  501MOL0     C66066  -0.014   6.909   3.521 -0.5446 -0.0917 -0.4363
  501MOL0     H66067  -0.040   7.231   3.909  0.9055 -0.3602 -1.1616
  501MOL0     H66068  -0.054   7.292   4.152  0.1188  0.3986  1.0574
  501MOL0     H66069   0.310   7.240   4.421  1.0217 -3.1554  2.3250
  501MOL0     H66070   0.198   7.112   4.397  3.5843 -1.5430 -0.3927
  501MOL0     H66071   0.183   7.352   4.585  0.8822  1.2907 -2.9625
  501MOL0     H66072   0.148   7.185   4.626  0.5480 -0.0829  0.7692
  501MOL0     H66073  -0.014   7.402   4.482  1.1451 -0.9581  0.0647
  501MOL0     H66074  -0.049   7.319   4.635 -1.7116  1.5035  0.2719
  501MOL0     H66075  -0.070   7.181   4.362  2.5792 -0.0942  0.6290
  501MOL0     H66076  -0.117   7.111   4.519 -3.3699 -0.7662 -1.3058
  501MOL0     H66077  -0.277   7.333   4.401 -2.2582 -1.2444 -0.9274
  501MOL0     H66078  -0.293   7.273   4.567 -0.0961 -0.3402 -0.2587
  501MOL0     H66079  -0.310   7.045   4.517  1.1053 -0.1157  0.1019
  501MOL0     H66080  -0.290   7.066   4.351  0.7028 -1.4979  1.9198
  501MOL0     H66081  -0.520   7.015   4.425 -1.4367 -0.9508  1.0569
  501MOL0     H66082  -0.519   7.161   4.526  3.0375 -1.0760  0.7785
  501MOL0     H66083  -0.507   7.296   4.311 -0.9850  0.7677  3.2202
  501MOL0     H66084  -0.657   7.224   4.351  0.9365  1.0065  1.9649
  501MOL0     H66085  -0.345   7.066   4.141  0.8466  2.7147 -1.1315
  501MOL0     H66086  -0.392   6.978   3.851 -1.2665 -0.6453 -3.0099
  501MOL0     H66087  -0.516   6.856   3.861  0.7009  2.2756 -2.0499
  501MOL0     H66088  -0.261   6.875   4.030  0.6461 -3.3312  2.5659
  501MOL0     H66089  -0.277   6.772   3.895 -2.2177 -4.3079  0.2208
  501MOL0     H66090  -0.437   6.738   4.159 -1.9879 -4.4850  0.7416
  501MOL0     H66091  -0.477   6.660   4.004 -0.8253 -0.4187  0.3527
  501MOL0     H66092  -0.306   6.582   4.199  2.7399  0.5677  0.7609
  501MOL0     H66093  -0.186   6.664   4.095 -0.2266  1.2331 -4.4279
  501MOL0     H66094  -0.206   6.310   3.864 -0.0829 -1.4492 -0.3302
  501MOL0     H66095  -0.189   6.076   3.912  2.2045  2.2057  0.0085
  501MOL0     H66096  -0.053   5.689   4.134  0.3983 -1.3300  1.5808
  501MOL0     H66097  -0.070   5.447   4.155 -1.9816 -2.0679  0.2722
  501MOL0     H66098  -0.223   5.106   4.151 -1.5448  1.0270  0.8324
  501MOL0     H66099  -0.140   5.258   4.205 -2.1236 -0.2955  1.1705
  501MOL0     H66100  -0.026   5.289   3.999 -1.9833  0.3844  0.4918
  501MOL0     H66101  -0.106   5.147   3.932  0.4661  2.0925 -0.4630
  501MOL0     H66102   0.078   5.136   4.174  0.7149  2.1136 -0.0589
  501MOL0     H66103   0.148   5.131   4.014 -1.3287  1.7936 -0.5645
  501MOL0     H66104  -0.052   4.901   4.107 -2.0162 -0.1870 -4.5021
  501MOL0     H66105   0.013   4.916   3.961 -1.0375  0.1192  0.8662
  501MOL0     H66106   0.179   4.868   4.214  0.3122 -0.7976 -1.0368
  501MOL0     H66107   0.238   4.918   4.056 -1.4962 -0.5619 -1.8950
  501MOL0     H66108   0.152   4.706   3.969  0.0126  0.6029  0.2769
  501MOL0     H66109   0.059   4.682   4.121 -0.0684 -1.1225  0.0129
  501MOL0     H66110   0.322   4.584   4.050 -1.3301 -3.5059  1.8524
  501MOL0     H66111   0.344   4.703   4.180 -0.1254  0.6326 -1.6800
  501MOL0     H66112   0.150   4.469   4.183 -1.1598  2.8351 -1.0439
  501MOL0     H66113   0.186   4.570   4.326  3.1454  2.9355  1.4254
  501MOL0     H66114  -0.461   5.450   3.982  1.1984  1.9236 -0.5375
  501MOL0     H66115  -0.458   5.686   3.966 -0.5697 -0.2155  1.0725
  501MOL0     H66116  -0.250   6.164   4.338  0.7373  0.9430  0.6578
  501MOL0     H66117  -0.287   6.388   4.278 -2.9888  0.4760 -1.3893
  501MOL0     H66118   0.355   7.160   4.182  0.8187  1.2368 -1.3098
  501MOL0     H66119   0.365   7.101   3.945 -0.9752 -0.6961 -1.3637
  501MOL0     H66120   0.237   7.142   3.545 -1.1390  1.9087  0.6289
  501MOL0     H66121   0.231   7.108   3.304  0.2867 -1.5669 -0.9195
  501MOL0     H66122   0.216   7.072   3.089  1.5932 -0.8585  0.0216
  501MOL0     H66123   0.167   6.936   2.997  1.3795 -0.0020 -0.4782
  501MOL0     H66124   0.368   6.887   3.227  1.7165  1.1078  0.2626
  501MOL0     H66125   0.348   6.796   3.080  0.3998  1.0429 -2.4154
  501MOL0     H66126   0.418   7.004   2.946  0.2761 -1.6682  0.1028
  501MOL0     H66127   0.534   6.904   3.017  0.5714  0.2034 -1.7256
  501MOL0     H66128   0.421   7.135   3.185  0.2964  0.5864  0.7263
  501MOL0     H66129   0.568   7.048   3.203 -3.0182 -1.8599  2.0269
  501MOL0     H66130   0.720   7.305   2.937 -0.4186 -0.5709 -0.9591
  501MOL0     H66131  -0.054   6.790   3.350 -0.1398 -1.5946  0.7637
  501MOL0     H66132  -0.099   6.861   3.569 -1.5109  1.1362 -0.8915
  502MOL0     O66133   9.403   1.674   6.332 -0.2115  0.3992 -0.1802
  502MOL0     C66134   9.417   1.798   6.341 -0.0126  0.0743  0.6432
  502MOL0     O66135   9.527   1.872   6.305  0.0584  0.2864 -0.6312
  502MOL0     C66136   9.638   1.810   6.253  0.0136 -0.2158 -0.1603
  502MOL0     C66137   9.708   1.703   6.326  0.2573 -0.2588  0.5534
  502MOL0     C66138   9.818   1.641   6.261  0.1107 -0.2722 -0.1741
  502MOL0     C66139   9.857   1.678   6.134  0.4099  0.1707  0.1473
  502MOL0     O66140   9.955   1.593   6.091 -0.3808 -0.6791 -0.7098
  502MOL0     C66141  10.023   1.633   5.975 -0.1310 -0.2952  0.3325
  502MOL0     C66142  10.108   1.507   5.922  0.5941 -0.4100 -0.6445
  502MOL0     C66143  10.183   1.540   5.797 -0.9311  0.1596  0.4431
  502MOL0     C66144  10.287   1.428   5.777  0.1910  0.3620  1.0264
  502MOL0     C66145  10.373   1.459   5.653  0.8255  0.9229 -0.2779
  502MOL0     C66146  10.456   1.326   5.606 -0.3344  0.7838 -0.6524
  502MOL0     C66147  10.607   1.358   5.586  0.1594 -0.1476  0.6661
  502MOL0     C66148  10.694   1.247   5.531 -0.8143 -0.0395  0.2176
  502MOL0     N66149  10.837   1.289   5.523  0.2965  0.4264 -0.2833
  502MOL0     C66150  10.927   1.306   5.626 -0.2663 -0.1062  0.5813
  502MOL0     C66151  11.041   1.356   5.566 -1.1093  0.2473 -0.4654
  502MOL0     C66152  11.185   1.366   5.609 -0.8342  0.7199 -0.3166
  502MOL0     C66153  11.235   1.506   5.645  0.2474 -0.6729 -0.5943
  502MOL0     C66154  11.257   1.596   5.517 -0.1102 -0.5913  1.0142
  502MOL0     C66155  11.330   1.731   5.528 -0.4973  0.0770  0.5892
  502MOL0     O66156  11.411   1.787   5.419  0.4670  0.8970  0.6684
  502MOL0     C66157  11.442   1.919   5.404  0.3454  0.5921 -0.5969
  502MOL0     C66158  11.408   2.020   5.492 -0.1165 -0.1667  0.5642
  502MOL0     C66159  11.434   2.144   5.440 -0.8889 -0.2459 -0.3591
  502MOL0     C66160  11.496   2.177   5.320  0.4055  0.7459  0.2962
  502MOL0     C66161  11.513   2.316   5.260 -0.3118  0.1561 -0.5271
  502MOL0     O66162  11.459   2.417   5.335  0.1400  0.5348 -0.1596
  502MOL0     C66163  11.482   2.549   5.290  0.2133 -0.0622  0.6482
  502MOL0     C66164  11.372   2.621   5.222  0.3132  0.9124 -0.0513
  502MOL0     C66165  11.402   2.758   5.195 -0.5595 -0.0438  0.3539
  502MOL0     C66166  11.525   2.817   5.194  0.3601 -0.6454  0.1730
  502MOL0     O66167  11.522   2.945   5.143  0.1351  0.7362 -0.2573
  502MOL0     C66168  11.630   3.021   5.141 -0.9117 -0.1275 -0.8291
  502MOL0     C66169  11.629   3.123   5.266  0.1947 -0.3159  0.6479
  502MOL0     C66170  11.649   3.047   5.395 -0.4353  1.1887  0.3238
  502MOL0     C66171  11.664   3.132   5.519  0.4445  0.5533  0.0753
  502MOL0     C66172  11.760   3.242   5.504 -0.2012 -0.7861  1.0494
  502MOL0     C66173  11.794   3.322   5.619  0.0417 -0.2964 -0.1526
  502MOL0     C66174  11.866   3.451   5.579  0.7896 -0.4034  0.2038
  502MOL0     C66175  11.845   3.571   5.668  0.5817  0.0256  0.4710
  502MOL0    Cl66176  11.674   3.596   5.706  0.2229 -0.3314  0.1148
  502MOL0     C66177  11.639   2.741   5.250  0.0938  0.7994  0.4379
  502MOL0     C66178  11.611   2.612   5.292 -0.1365  0.2529  0.6950
  502MOL0     O66179  11.576   2.331   5.158  0.1725 -0.0439 -0.4737
  502MOL0     C66180  11.553   2.069   5.249  0.9833  0.5110 -0.5719
  502MOL0     C66181  11.524   1.938   5.291  0.6753  0.4468  0.0359
  502MOL0     N66182  11.006   1.381   5.434  0.0968 -0.0480  0.0288
  502MOL0     N66183  10.890   1.328   5.411  0.2173  0.4906 -0.6006
  502MOL0     C66184   9.809   1.792   6.075 -0.3147 -1.0183  0.5789
  502MOL0     C66185   9.703   1.864   6.139  0.4127 -0.2124  0.6537
  502MOL0     C66186   9.295   1.867   6.379 -0.6758 -0.4597  0.5793
  502MOL0     C66187   9.302   2.007   6.386  0.6935 -0.0264 -0.1098
  502MOL0     C66188   9.189   2.078   6.451 -0.5659 -0.6543  1.2960
  502MOL0     C66189   9.071   2.010   6.490 -0.5394 -0.3231  0.0003
  502MOL0     O66190   8.975   2.082   6.545  0.9054 -0.6884  0.7361
  502MOL0     C66191   8.838   2.033   6.555  0.8794  0.0986 -0.0373
  502MOL0     C66192   8.755   2.076   6.440  0.2658 -1.4511 -0.7799
  502MOL0     C66193   8.614   2.131   6.480  0.1985 -0.5184  0.1683
  502MOL0     C66194   8.522   2.172   6.363  0.3783 -0.2440 -0.5787
  502MOL0     C66195   8.521   2.098   6.241  0.1378 -1.0420 -0.7308
  502MOL0     C66196   8.515   2.054   6.132 -0.7535  0.2080 -0.5044
  502MOL0     C66197   9.061   1.872   6.457 -0.2557  1.0785 -0.3827
  502MOL0     C66198   9.173   1.803   6.407  0.0432  1.2376  0.5590
  502MOL0     H66199   9.681   1.677   6.428 -3.8282 -0.5824 -0.4420
  502MOL0     H66200   9.884   1.572   6.314  1.0663 -0.2055 -1.2419
  502MOL0     H66201  10.090   1.714   6.004  0.3337  0.5422 -2.6693
  502MOL0     H66202   9.947   1.663   5.902 -0.2006 -3.7634 -1.2259
  502MOL0     H66203  10.044   1.418   5.920  1.4009 -1.0206 -0.2233
  502MOL0     H66204  10.179   1.475   6.000 -1.8187 -2.1989  0.9569
  502MOL0     H66205  10.238   1.632   5.819  0.7607  0.2672 -3.3128
  502MOL0     H66206  10.126   1.555   5.705  2.6739  3.7103 -1.5326
  502MOL0     H66207  10.353   1.424   5.863  1.3229 -0.2596  0.1579
  502MOL0     H66208  10.242   1.329   5.760  1.0056  0.4596 -2.3784
  502MOL0     H66209  10.438   1.542   5.680  0.8924  1.4374 -1.9146
  502MOL0     H66210  10.305   1.492   5.574  1.8267  1.5854 -0.8824
  502MOL0     H66211  10.421   1.278   5.513  2.4948 -4.1256  0.4792
  502MOL0     H66212  10.455   1.249   5.683 -0.2262  1.3795 -0.0545
  502MOL0     H66213  10.614   1.452   5.530  1.0434 -0.5518  0.0759
  502MOL0     H66214  10.646   1.386   5.684 -0.6878 -0.7549  1.1941
  502MOL0     H66215  10.657   1.215   5.433  2.0960 -2.6699 -0.1653
  502MOL0     H66216  10.673   1.163   5.597 -2.6390 -0.1744 -0.4625
  502MOL0     H66217  10.918   1.281   5.731 -1.2403  0.8719  0.7481
  502MOL0     H66218  11.255   1.320   5.539 -1.2771  0.2157 -0.4373
  502MOL0     H66219  11.195   1.307   5.701  4.2350  0.2709 -0.8450
  502MOL0     H66220  11.330   1.496   5.699  0.2758 -2.2268 -0.9090
  502MOL0     H66221  11.166   1.558   5.713  0.6709 -0.9284  0.0395
  502MOL0     H66222  11.316   1.537   5.447 -2.0005  0.2382 -1.4058
  502MOL0     H66223  11.157   1.611   5.477  1.0032  0.4908 -1.5882
  502MOL0     H66224  11.390   1.727   5.619  0.8844 -2.1486 -0.3180
  502MOL0     H66225  11.255   1.808   5.546  1.8733  2.5277  0.6222
  502MOL0     H66226  11.360   1.998   5.587  3.0255 -2.6410  1.7367
  502MOL0     H66227  11.407   2.233   5.497  2.0018  1.1984 -1.0445
  502MOL0     H66228  11.278   2.574   5.196  0.7119 -1.2127  1.9995
  502MOL0     H66229  11.324   2.808   5.139 -0.5217 -3.2709 -2.9104
  502MOL0     H66230  11.628   3.092   5.058  1.0782 -1.0810 -1.7794
  502MOL0     H66231  11.723   2.964   5.133 -0.6119  0.6035 -3.1811
  502MOL0     H66232  11.531   3.170   5.261  0.5939  0.6104  1.2602
  502MOL0     H66233  11.712   3.194   5.255 -1.5355  2.2817  3.1125
  502MOL0     H66234  11.743   2.994   5.378 -2.5464 -1.8624 -3.9117
  502MOL0     H66235  11.572   2.971   5.409 -0.9635  1.0567 -2.5765
  502MOL0     H66236  11.566   3.177   5.536 -0.7386 -0.6630 -2.7633
  502MOL0     H66237  11.690   3.067   5.603  0.1311  0.9690  0.4945
  502MOL0     H66238  11.712   3.313   5.436  2.8793  1.9474  1.4434
  502MOL0     H66239  11.851   3.208   5.453 -1.4864 -3.0131  0.1582
  502MOL0     H66240  11.857   3.262   5.685  0.3358  0.1034 -0.0682
  502MOL0     H66241  11.700   3.354   5.665  0.8738  1.8476  0.1758
  502MOL0     H66242  11.972   3.425   5.583  0.3709 -2.2917  0.1170
  502MOL0     H66243  11.817   3.473   5.483 -0.3153  0.6432  0.9731
  502MOL0     H66244  11.875   3.660   5.612 -2.0932 -1.7052 -4.3737
  502MOL0     H66245  11.900   3.559   5.762  1.0239 -1.1162  0.0851
  502MOL0     H66246  11.738   2.782   5.260 -1.3597  4.2211  2.4825
  502MOL0     H66247  11.692   2.543   5.310 -0.2956 -0.3987 -0.8932
  502MOL0     H66248  11.614   2.094   5.163 -0.9753  1.4216 -1.7818
  502MOL0     H66249  11.549   1.847   5.238 -2.7304 -0.8699  0.4357
  502MOL0     H66250   9.847   1.836   5.983 -0.8401 -1.2009  0.2670
  502MOL0     H66251   9.670   1.955   6.092  0.3536  0.2159  1.5084
  502MOL0     H66252   9.388   2.066   6.356 -1.7711  1.8548 -4.4561
  502MOL0     H66253   9.204   2.183   6.471  0.7228 -1.2241  3.8186
  502MOL0     H66254   8.788   2.085   6.638 -5.8558 -4.3563 -0.5444
  502MOL0     H66255   8.829   1.926   6.574 -1.1686  0.0465 -1.0931
  502MOL0     H66256   8.813   2.147   6.379  0.8339  0.5526  1.9230
  502MOL0     H66257   8.744   1.983   6.383  2.2242 -2.1411 -0.1242
  502MOL0     H66258   8.634   2.218   6.543  3.3884 -2.2700  1.8588
  502MOL0     H66259   8.558   2.054   6.534  0.5360 -1.2613 -0.5162
  502MOL0     H66260   8.425   2.154   6.411  0.9852 -0.4772  0.6043
  502MOL0     H66261   8.529   2.278   6.337 -3.0260  0.0064 -1.0217
  502MOL0     H66262   8.523   2.005   6.037  2.7769  2.7910 -1.7452
  502MOL0     H66263   8.969   1.817   6.475  0.1120  0.6262  0.1533
  502MOL0     H66264   9.155   1.699   6.382  1.8881  1.6750 -3.3440
  503MOL0     O66265  11.131   5.928   8.304 -0.6537 -0.5165 -0.5122
  503MOL0     C66266  11.234   5.901   8.367  0.3586  1.0767 -0.0020
  503MOL0     O66267  11.363   5.891   8.324  0.3562 -0.1162  0.5647
  503MOL0     C66268  11.408   5.911   8.193  0.2478  0.0200 -0.4785
  503MOL0     C66269  11.335   5.991   8.091  0.1946  0.6626 -0.2353
  503MOL0     C66270  11.375   5.995   7.965  0.0681 -0.3523 -0.6983
  503MOL0     C66271  11.500   5.932   7.926 -0.0289 -0.3507  0.0529
  503MOL0     O66272  11.540   5.948   7.789 -0.3522 -0.2198 -0.0743
  503MOL0     C66273  11.586   5.842   7.709 -0.6026  0.4847  0.7264
  503MOL0     C66274  11.624   5.894   7.569  0.4365  0.3687 -0.0131
  503MOL0     C66275  11.742   5.998   7.577 -0.5711  0.7871 -0.2479
  503MOL0     C66276  11.718   6.083   7.446  0.6661 -0.1307  0.3600
  503MOL0     C66277  11.822   6.200   7.432 -0.2113  0.0735  0.7374
  503MOL0     C66278  11.824   6.300   7.554  0.0422 -0.8973 -1.4195
  503MOL0     C66279  11.688   6.386   7.568 -0.5666 -0.4151  0.8350
  503MOL0     C66280  11.587   6.311   7.658  0.3653  0.4481 -0.2125
  503MOL0     N66281  11.479   6.399   7.711 -0.7895  0.6828 -0.0935
  503MOL0     C66282  11.417   6.490   7.636  1.1537 -0.0478  0.3893
  503MOL0     C66283  11.346   6.561   7.725 -0.0624  0.1629 -0.0499
  503MOL0     C66284  11.236   6.665   7.693  0.0025  0.2741  0.0261
  503MOL0     C66285  11.276   6.811   7.711 -0.7492  0.7057 -0.4755
  503MOL0     C66286  11.419   6.846   7.686  0.3747  0.8857 -0.1411
  503MOL0     C66287  11.446   6.989   7.681  1.4510  0.2928 -0.6604
  503MOL0     O66288  11.432   7.046   7.810  0.2236 -0.4140  1.2774
  503MOL0     C66289  11.500   7.163   7.814 -0.2928 -1.1626 -0.0623
  503MOL0     C66290  11.529   7.244   7.706 -0.0023  0.3521  0.3426
  503MOL0     C66291  11.594   7.365   7.724 -0.6175 -0.6067  0.3094
  503MOL0     C66292  11.647   7.406   7.844 -0.1115  1.0140 -0.0100
  503MOL0     C66293  11.734   7.519   7.851 -0.3373 -0.2405  0.8520
  503MOL0     O66294  11.755   7.567   7.978 -0.0974  0.8007  0.1593
  503MOL0     C66295  11.819   7.690   7.992 -0.8932  0.5924  0.9291
  503MOL0     C66296  11.748   7.813   7.982  0.5876  0.2646 -1.3578
  503MOL0     C66297  11.823   7.932   7.976 -0.1451 -0.4979 -0.2443
  503MOL0     C66298  11.962   7.937   7.964  0.3530 -0.1802 -0.0379
  503MOL0     O66299  12.036   8.043   7.937 -0.3226 -0.0050  0.1804
  503MOL0     C66300  11.994   8.130   7.844  0.1012  0.0174 -0.2457
  503MOL0     C66301  12.107   8.214   7.785  0.9569 -0.1081  0.4991
  503MOL0     C66302  12.056   8.352   7.747 -0.4582 -0.7069  0.4904
  503MOL0     C66303  12.168   8.426   7.675  0.1791  0.7418 -0.0393
  503MOL0     C66304  12.147   8.578   7.688  0.2438 -0.4927 -0.5619
  503MOL0     C66305  12.237   8.665   7.623 -0.9523  0.3066  0.1026
  503MOL0     C66306  12.270   8.807   7.686  0.5842 -0.3727 -0.5523
  503MOL0     C66307  12.390   8.874   7.626 -0.4186  0.7892 -0.0486
  503MOL0    Cl66308  12.381   8.875   7.441  0.6897 -0.1005 -0.3068
  503MOL0     C66309  12.031   7.813   7.972  0.1180 -0.1708  0.2835
  503MOL0     C66310  11.958   7.690   7.981 -0.5059 -0.3080  0.3499
  503MOL0     O66311  11.756   7.584   7.740  0.4825 -0.0272  0.3409
  503MOL0     C66312  11.621   7.322   7.955  0.1107  1.2676  0.3433
  503MOL0     C66313  11.557   7.198   7.936 -0.0603  0.2911  0.3766
  503MOL0     N66314  11.381   6.531   7.855  0.7097 -0.4548  0.3749
  503MOL0     N66315  11.456   6.429   7.844  0.0861 -0.1648 -0.2724
  503MOL0     C66316  11.575   5.864   8.023 -0.3878 -0.8709  0.1055
  503MOL0     C66317  11.529   5.850   8.150 -0.3110 -0.5311 -1.3072
  503MOL0     C66318  11.220   5.884   8.513 -0.6040  0.0383  0.7062
  503MOL0     C66319  11.325   5.840   8.595 -0.5016  0.7262 -0.9327
  503MOL0     C66320  11.302   5.838   8.727 -0.6295  0.6078 -0.0920
  503MOL0     C66321  11.183   5.885   8.785  1.1657  0.5943  0.2818
  503MOL0     O66322  11.167   5.878   8.921 -0.4624  0.5061  0.4691
  503MOL0     C66323  11.073   5.973   8.978  0.7699  0.3299  0.1530
  503MOL0     C66324  11.116   6.020   9.122  0.2619 -0.1364 -0.4313
  503MOL0     C66325  11.014   6.108   9.198 -0.5045  0.5058 -0.5025
  503MOL0     C66326  11.072   6.137   9.338 -0.9462  0.0127  0.1226
  503MOL0     C66327  11.056   6.025   9.425 -0.2962 -0.2816 -0.1302
  503MOL0     C66328  11.036   5.970   9.537  0.4751  0.8332  0.1630
  503MOL0     C66329  11.080   5.932   8.706  0.0313 -0.3009 -0.2161
  503MOL0     C66330  11.103   5.937   8.568 -0.1486 -0.3003 -1.9102
  503MOL0     H66331  11.242   6.039   8.120 -1.5177 -2.0011 -0.9424
  503MOL0     H66332  11.306   6.042   7.896 -0.1189  0.3924 -0.0321
  503MOL0     H66333  11.519   5.756   7.695  1.8421 -1.5861  0.9200
  503MOL0     H66334  11.676   5.802   7.757 -2.5847 -1.5991  3.0079
  503MOL0     H66335  11.532   5.947   7.543  1.6974  2.0913 -1.2031
  503MOL0     H66336  11.631   5.817   7.492  2.2470  0.0833  0.3885
  503MOL0     H66337  11.837   5.945   7.576 -2.3152 -2.6689  0.6290
  503MOL0     H66338  11.725   6.044   7.675 -1.4205 -0.0515  0.0145
  503MOL0     H66339  11.738   6.020   7.359  1.8137 -0.6768  0.9865
  503MOL0     H66340  11.614   6.115   7.435  0.7909 -0.1081 -0.9357
  503MOL0     H66341  11.804   6.258   7.341 -0.7412 -3.3963 -1.5948
  503MOL0     H66342  11.923   6.159   7.427 -0.0874  0.5150 -0.9807
  503MOL0     H66343  11.916   6.359   7.548 -0.7908  0.8504  1.1934
  503MOL0     H66344  11.844   6.248   7.648  1.3683 -0.0120 -1.1884
  503MOL0     H66345  11.704   6.484   7.612  0.6675 -0.6751  0.9955
  503MOL0     H66346  11.646   6.399   7.467  0.8411  2.0213  0.4966
  503MOL0     H66347  11.632   6.261   7.744 -3.4970 -3.0322  0.1404
  503MOL0     H66348  11.537   6.231   7.602 -1.0831 -0.7718  2.6157
  503MOL0     H66349  11.411   6.489   7.527  2.1814 -1.0579  0.3264
  503MOL0     H66350  11.160   6.645   7.770 -0.2728 -0.2760 -0.3734
  503MOL0     H66351  11.192   6.635   7.597  0.1867 -2.8184  0.7796
  503MOL0     H66352  11.237   6.850   7.806 -2.1718  0.6637 -1.0179
  503MOL0     H66353  11.211   6.861   7.637 -2.8096 -1.1853 -0.0598
  503MOL0     H66354  11.490   6.786   7.744 -0.5619 -0.0391  0.0854
  503MOL0     H66355  11.434   6.812   7.583  1.7814 -0.8471  0.5993
  503MOL0     H66356  11.377   7.029   7.606 -1.6437 -2.0615  0.6765
  503MOL0     H66357  11.553   6.998   7.662  2.4735 -0.7923  3.4520
  503MOL0     H66358  11.492   7.213   7.609  2.3711 -1.5687 -0.0652
  503MOL0     H66359  11.614   7.429   7.639  2.1812 -0.3891  1.0474
  503MOL0     H66360  11.641   7.796   7.984  1.0085 -2.8969  0.1064
  503MOL0     H66361  11.769   8.026   7.965  0.0827 -0.3575 -0.1639
  503MOL0     H66362  11.926   8.199   7.896 -0.3206  0.7471 -1.7163
  503MOL0     H66363  11.936   8.085   7.763  0.9068 -0.4824 -0.5466
  503MOL0     H66364  12.137   8.166   7.691  1.3508  0.1042  0.5148
  503MOL0     H66365  12.185   8.224   7.860  3.7337  0.8642 -2.2855
  503MOL0     H66366  12.017   8.396   7.839 -1.4330 -2.2911  0.8799
  503MOL0     H66367  11.973   8.338   7.677 -0.6695 -0.4207  0.6795
  503MOL0     H66368  12.266   8.408   7.720 -0.8468 -1.2522  1.5921
  503MOL0     H66369  12.165   8.398   7.569  0.6917 -0.7937  0.3248
  503MOL0     H66370  12.146   8.597   7.795 -1.8773 -0.6298 -0.5134
  503MOL0     H66371  12.053   8.617   7.647  0.1813 -2.6943 -2.7378
  503MOL0     H66372  12.211   8.674   7.517  2.7867  0.2841 -0.9631
  503MOL0     H66373  12.339   8.623   7.623  0.1316  2.6399 -2.4090
  503MOL0     H66374  12.183   8.873   7.676  0.4512  0.5119  3.9545
  503MOL0     H66375  12.294   8.799   7.793  0.3941 -1.7300 -0.5971
  503MOL0     H66376  12.476   8.808   7.641 -0.0318  1.7473  2.4648
  503MOL0     H66377  12.416   8.974   7.663 -0.4518  1.1001 -0.8410
  503MOL0     H66378  12.133   7.815   7.936 -0.2046 -0.4012 -0.6639
  503MOL0     H66379  12.012   7.596   7.976 -0.2828 -0.2523  1.3952
  503MOL0     H66380  11.662   7.343   8.053  1.9765  2.7083 -0.6750
  503MOL0     H66381  11.554   7.130   8.022  1.1713  1.2534  1.2153
  503MOL0     H66382  11.663   5.806   7.996  1.2327  2.7561 -3.4793
  503MOL0     H66383  11.595   5.813   8.227 -1.3318  0.0786 -0.1015
  503MOL0     H66384  11.425   5.814   8.561 -1.6864 -1.8413 -2.8323
  503MOL0     H66385  11.382   5.808   8.794 -1.1011  0.2686  0.3235
  503MOL0     H66386  10.970   5.934   8.975 -0.6787  3.7600  0.8074
  503MOL0     H66387  11.062   6.062   8.916  0.5250  0.5337  0.4900
  503MOL0     H66388  11.153   5.933   9.177  1.2356  2.2132  2.9448
  503MOL0     H66389  11.196   6.092   9.106  0.0075  0.0228 -1.0550
  503MOL0     H66390  10.909   6.083   9.211 -0.7187  2.1692  1.7169
  503MOL0     H66391  11.016   6.206   9.148  0.6529  0.2270 -1.0329
  503MOL0     H66392  11.176   6.169   9.329 -0.4535 -1.9045 -1.6356
  503MOL0     H66393  11.022   6.222   9.386 -0.2222  1.3665 -1.4187
  503MOL0     H66394  11.024   5.923   9.633  5.5626 -0.7307  0.3354
  503MOL0     H66395  10.980   5.951   8.743 -0.0642  0.1980 -0.7193
  503MOL0     H66396  11.017   5.974   8.514 -1.4997  0.4008  0.5636
  504MOL0     O66397  11.191   6.470   3.291 -0.0948  0.1268 -1.0883
  504MOL0     C66398  11.097   6.489   3.369 -0.4802 -0.6068 -0.8093
  504MOL0     O66399  11.108   6.527   3.502 -0.3548 -0.1518 -0.2117
  504MOL0     C66400  11.228   6.499   3.567 -0.0313 -0.4084  0.8704
  504MOL0     C66401  11.326   6.405   3.532 -0.2948 -0.5810  0.6822
  504MOL0     C66402  11.441   6.380   3.606  0.6010 -0.5098 -0.0844
  504MOL0     C66403  11.464   6.453   3.730 -1.3297 -0.6130 -0.2231
  504MOL0     O66404  11.554   6.417   3.828 -0.5107  0.1958 -0.3885
  504MOL0     C66405  11.551   6.464   3.961  0.1718 -0.4047 -1.0561
  504MOL0     C66406  11.667   6.413   4.051  0.4577 -0.8408  0.3401
  504MOL0     C66407  11.727   6.277   4.012 -0.4487 -0.1937  0.0225
  504MOL0     C66408  11.619   6.171   4.025  0.6041  0.0091  0.1448
  504MOL0     C66409  11.657   6.027   3.976  0.4133  0.3697 -0.6774
  504MOL0     C66410  11.714   5.930   4.080 -0.8820 -0.5036  0.5555
  504MOL0     C66411  11.649   5.911   4.215  1.2141  0.3738 -0.3070
  504MOL0     C66412  11.724   5.826   4.307 -0.9736 -0.1916 -0.7579
  504MOL0     N66413  11.746   5.684   4.263  0.5865 -0.1624 -0.5059
  504MOL0     C66414  11.860   5.630   4.211  0.2284  0.3530  0.2469
  504MOL0     C66415  11.816   5.506   4.169  0.5114 -1.0079  0.0645
  504MOL0     C66416  11.925   5.415   4.114 -0.2182 -0.4613 -0.5294
  504MOL0     C66417  11.964   5.432   3.964  0.2180 -0.7394 -0.4126
  504MOL0     C66418  12.026   5.306   3.913  0.2437 -0.4766  0.6046
  504MOL0     C66419  12.167   5.278   3.953 -0.4795  0.6080 -0.4663
  504MOL0     O66420  12.247   5.160   3.905  0.0195  0.0254 -0.0851
  504MOL0     C66421  12.383   5.170   3.928 -1.0952  0.6922 -0.0736
  504MOL0     C66422  12.461   5.067   3.874  0.3173 -0.3626  0.1845
  504MOL0     C66423  12.598   5.059   3.913 -0.2615 -0.2947  1.8903
  504MOL0     C66424  12.651   5.151   3.999  0.3098  0.5197  0.1668
  504MOL0     C66425  12.788   5.132   4.041  1.0572  0.0047 -0.0291
  504MOL0     O66426  12.872   5.049   3.977  0.2202 -0.4753 -0.3307
  504MOL0     C66427  13.006   5.031   4.012 -0.4199 -0.0655  0.6166
  504MOL0     C66428  13.091   5.122   4.082 -0.2775  0.1352  0.5440
  504MOL0     C66429  13.225   5.092   4.095 -0.2624 -0.4217 -0.6974
  504MOL0     C66430  13.283   4.972   4.054  0.0929 -0.2433 -0.5284
  504MOL0     O66431  13.414   4.948   4.061 -0.3066 -0.0617 -0.1412
  504MOL0     C66432  13.480   4.983   4.186 -0.0257 -0.8392  0.2431
  504MOL0     C66433  13.589   5.081   4.142 -0.0796 -1.0324  0.4811
  504MOL0     C66434  13.689   5.116   4.253 -0.5134 -0.3241 -0.6021
  504MOL0     C66435  13.791   5.225   4.213 -1.2592 -0.2739 -1.2234
  504MOL0     C66436  13.932   5.172   4.175  0.2199  0.0665 -0.4524
  504MOL0     C66437  14.035   5.267   4.140 -0.5252  0.1514 -0.5031
  504MOL0     C66438  14.161   5.203   4.078 -0.2884  0.9345 -0.3597
  504MOL0     C66439  14.247   5.315   4.029 -0.3828 -0.0715 -0.2329
  504MOL0    Cl66440  14.304   5.434   4.152  0.4294 -0.3848  0.1251
  504MOL0     C66441  13.202   4.888   3.979  0.2247 -0.1337  0.0001
  504MOL0     C66442  13.066   4.911   3.963  0.0597  0.2935 -0.0897
  504MOL0     O66443  12.816   5.217   4.134 -0.3644 -0.0600 -0.6140
  504MOL0     C66444  12.571   5.241   4.062 -1.0427 -0.2081  0.1158
  504MOL0     C66445  12.438   5.267   4.023  0.3727  0.3325  0.1338
  504MOL0     N66446  11.679   5.498   4.195  0.1305  0.9967  0.3503
  504MOL0     N66447  11.640   5.597   4.253 -0.0608 -0.4661  0.4375
  504MOL0     C66448  11.367   6.546   3.751 -0.4047 -0.0707  0.3256
  504MOL0     C66449  11.251   6.573   3.680 -0.4726 -0.1210 -0.4990
  504MOL0     C66450  10.965   6.512   3.308 -0.1930 -0.3871 -0.0341
  504MOL0     C66451  10.848   6.507   3.382  0.0158 -0.4641  0.5332
  504MOL0     C66452  10.738   6.537   3.308  0.7194  0.5476 -0.0257
  504MOL0     C66453  10.727   6.561   3.169 -1.5949  0.7186 -1.1629
  504MOL0     O66454  10.611   6.596   3.112  0.1207 -0.1597  0.5242
  504MOL0     C66455  10.495   6.607   3.189 -0.0726  0.3830  0.0388
  504MOL0     C66456  10.393   6.657   3.089  1.0353  0.1691  0.3599
  504MOL0     C66457  10.285   6.741   3.148  0.3761 -0.4287 -0.3605
  504MOL0     C66458  10.307   6.884   3.115 -0.4558 -0.9492  0.1208
  504MOL0     C66459  10.200   6.960   3.187 -0.2359  0.7304  1.1342
  504MOL0     C66460  10.116   7.009   3.251 -0.1786  0.6905 -0.0372
  504MOL0     C66461  10.846   6.548   3.083  0.3924  0.7297  0.5506
  504MOL0     C66462  10.969   6.534   3.159 -0.1965 -0.7653  0.1836
  504MOL0     H66463  11.305   6.346   3.443 -1.2085 -1.2986  1.3640
  504MOL0     H66464  11.500   6.297   3.568  0.9980 -0.9439  1.4095
  504MOL0     H66465  11.452   6.441   4.002 -0.6597  1.3663 -1.9472
  504MOL0     H66466  11.557   6.573   3.956  1.7478 -0.3591  0.8845
  504MOL0     H66467  11.630   6.400   4.152 -1.6162 -2.5955 -0.5602
  504MOL0     H66468  11.734   6.499   4.058  0.2237 -0.2950 -2.6985
  504MOL0     H66469  11.814   6.250   4.072 -0.1291 -1.1685 -0.8445
  504MOL0     H66470  11.771   6.269   3.912  0.5791 -2.9767  0.6156
  504MOL0     H66471  11.581   6.176   4.128  0.8041  1.4765  0.1762
  504MOL0     H66472  11.546   6.203   3.950  3.3694 -0.1030 -2.7596
  504MOL0     H66473  11.733   6.035   3.898  2.4662 -0.0980  1.1709
  504MOL0     H66474  11.572   5.980   3.926  0.6406 -0.3652 -0.3834
  504MOL0     H66475  11.811   5.975   4.103 -2.0076  3.4418 -1.5019
  504MOL0     H66476  11.723   5.835   4.026 -1.0389 -0.0837 -0.2287
  504MOL0     H66477  11.638   5.999   4.278  1.8556 -0.1902  0.6155
  504MOL0     H66478  11.553   5.864   4.190  0.2407  0.9703  2.0715
  504MOL0     H66479  11.680   5.831   4.407 -3.1245  1.3228 -1.7058
  504MOL0     H66480  11.817   5.884   4.311 -1.2833  0.3207 -0.9385
  504MOL0     H66481  11.960   5.671   4.217  0.2350  1.3236 -3.7098
  504MOL0     H66482  11.890   5.312   4.127  1.2410 -1.1236 -1.5742
  504MOL0     H66483  12.011   5.431   4.179 -0.4574  1.0539 -0.5321
  504MOL0     H66484  12.038   5.508   3.934  0.5346 -0.7900  0.2256
  504MOL0     H66485  11.870   5.445   3.910  0.1312  3.6220  0.4558
  504MOL0     H66486  11.958   5.224   3.939 -2.8114  0.5317 -3.0769
  504MOL0     H66487  12.042   5.314   3.805  2.0539  3.5000  0.9918
  504MOL0     H66488  12.167   5.278   4.063  0.5770  0.2994 -0.4585
  504MOL0     H66489  12.226   5.367   3.926  1.8182 -0.8163 -0.3987
  504MOL0     H66490  12.416   4.992   3.809 -0.1641 -0.6840  0.8701
  504MOL0     H66491  12.661   4.982   3.867 -0.6649  0.7773 -0.6391
  504MOL0     H66492  13.067   5.222   4.116  0.8430  1.2838 -1.8217
  504MOL0     H66493  13.279   5.166   4.153  0.5240  0.1330 -2.0910
  504MOL0     H66494  13.537   4.898   4.225  0.1009 -2.5755 -3.3154
  504MOL0     H66495  13.407   5.019   4.259  0.0332 -1.0667  0.4160
  504MOL0     H66496  13.542   5.173   4.107  0.2733 -1.1886 -0.4607
  504MOL0     H66497  13.648   5.038   4.060 -2.4697 -1.9054 -0.8645
  504MOL0     H66498  13.752   5.030   4.276 -1.4455 -0.2498  2.7975
  504MOL0     H66499  13.637   5.134   4.347 -1.4597  2.8505 -1.6145
  504MOL0     H66500  13.752   5.278   4.126 -1.3328  1.1167 -0.3692
  504MOL0     H66501  13.799   5.295   4.297  0.2255 -1.2570 -0.4999
  504MOL0     H66502  13.916   5.088   4.106 -0.5535 -0.3130  0.1682
  504MOL0     H66503  13.981   5.114   4.253  0.7968 -0.8793 -1.4801
  504MOL0     H66504  14.064   5.329   4.224 -2.1851 -0.7398  0.7937
  504MOL0     H66505  13.997   5.337   4.065 -3.3629 -1.9281 -1.2053
  504MOL0     H66506  14.193   5.148   4.168 -0.9891  2.0537  0.6042
  504MOL0     H66507  14.137   5.128   4.003 -0.6172 -0.9454  1.5238
  504MOL0     H66508  14.189   5.371   3.955 -1.3828 -4.2698 -2.9737
  504MOL0     H66509  14.338   5.271   3.987 -0.5868 -0.3542 -0.3795
  504MOL0     H66510  13.238   4.793   3.942 -1.1344 -0.7082  0.1035
  504MOL0     H66511  13.017   4.837   3.900 -0.0242 -0.2032  0.5541
  504MOL0     H66512  12.600   5.309   4.142  3.0733  1.0574 -2.1823
  504MOL0     H66513  12.386   5.343   4.081  1.3240 -1.6815  4.0296
  504MOL0     H66514  11.374   6.616   3.835  1.1053  0.3749 -0.1436
  504MOL0     H66515  11.178   6.644   3.717 -1.7655 -1.1221 -1.0448
  504MOL0     H66516  10.850   6.469   3.483 -0.7389  0.7133  1.0145
  504MOL0     H66517  10.655   6.538   3.378  2.0790 -3.1384  1.9354
  504MOL0     H66518  10.508   6.681   3.269  1.9107 -0.0737  0.1886
  504MOL0     H66519  10.460   6.513   3.232 -0.6520  0.2818 -0.6511
  504MOL0     H66520  10.451   6.721   3.022 -1.9639  1.2463 -1.4076
  504MOL0     H66521  10.353   6.574   3.031  1.2043  0.8820 -0.8012
  504MOL0     H66522  10.289   6.726   3.256  0.1536  3.3697  0.3324
  504MOL0     H66523  10.190   6.712   3.102 -0.4436 -0.6537  1.3799
  504MOL0     H66524  10.402   6.921   3.155 -1.1599 -1.1875  2.1236
  504MOL0     H66525  10.291   6.887   3.007  0.2432 -0.8107  0.0125
  504MOL0     H66526  10.045   7.045   3.322  1.4635  1.5944  1.2169
  504MOL0     H66527  10.853   6.566   2.976  1.0318  1.1472  0.6554
  504MOL0     H66528  11.063   6.541   3.104  2.5032  3.4281  4.6095
  505MOL0     O66529   9.202   1.846   0.892 -0.9725 -0.2550  1.1422
  505MOL0     C66530   9.227   1.949   0.830 -0.7231 -0.1319  0.5249
  505MOL0     O66531   9.302   1.954   0.712 -0.4273 -0.0254  0.3594
  505MOL0     C66532   9.363   1.842   0.659  0.2691  0.3364 -0.9013
  505MOL0     C66533   9.353   1.830   0.520 -0.4910 -0.6005 -0.2977
  505MOL0     C66534   9.419   1.733   0.446 -0.0413 -0.0308  0.2576
  505MOL0     C66535   9.502   1.642   0.513  0.5239 -0.1686  1.2036
  505MOL0     O66536   9.573   1.543   0.448  0.8603  0.2914 -0.3850
  505MOL0     C66537   9.535   1.506   0.318  0.2337 -0.2927 -0.2229
  505MOL0     C66538   9.603   1.389   0.266 -0.4629  0.6627 -0.8118
  505MOL0     C66539   9.729   1.419   0.185 -0.1852  0.4291  0.4381
  505MOL0     C66540   9.845   1.464   0.273 -0.5769  0.4047  0.3946
  505MOL0     C66541   9.964   1.494   0.178  0.4240  0.3209 -0.7566
  505MOL0     C66542  10.064   1.595   0.245 -0.6629 -0.4212  0.1798
  505MOL0     C66543  10.187   1.617   0.152 -0.6813  0.9866  0.4204
  505MOL0     C66544  10.274   1.716   0.232 -0.1170  1.0692 -0.1387
  505MOL0     N66545  10.386   1.757   0.155 -0.8892 -0.5473 -0.1942
  505MOL0     C66546  10.398   1.870   0.078 -0.4244 -0.1202  0.8410
  505MOL0     C66547  10.514   1.864   0.014 -0.4166 -1.3072 -0.2743
  505MOL0     C66548  10.563   1.969  -0.081 -0.0378 -0.3430  0.2942
  505MOL0     C66549  10.669   2.045  -0.016  0.1738 -0.5107  0.1895
  505MOL0     C66550  10.627   2.126   0.101 -0.4451 -0.4260  0.8478
  505MOL0     C66551  10.535   2.237   0.083  0.3354  0.4045 -0.6906
  505MOL0     O66552  10.406   2.191   0.128 -0.5010 -0.1444  0.1283
  505MOL0     C66553  10.296   2.255   0.073  0.0102 -0.2704  0.7402
  505MOL0     C66554  10.290   2.362  -0.016 -0.9851 -0.5310  0.3929
  505MOL0     C66555  10.168   2.421  -0.070  0.0845  0.2938 -0.1741
  505MOL0     C66556  10.040   2.374  -0.031 -1.3182  0.2763  0.1873
  505MOL0     C66557   9.914   2.437  -0.069 -0.4676  0.0882 -0.4374
  505MOL0     O66558   9.930   2.544  -0.154  1.1236  0.7383 -0.4847
  505MOL0     C66559   9.835   2.639  -0.169  0.8596  1.4342 -0.2861
  505MOL0     C66560   9.735   2.666  -0.067  0.3939  0.5924  0.5355
  505MOL0     C66561   9.631   2.764  -0.092 -0.5497  1.6716 -0.4576
  505MOL0     C66562   9.631   2.833  -0.212  0.2391  0.0205 -0.1517
  505MOL0     O66563   9.579   2.953  -0.233 -0.1375  0.0668  0.9035
  505MOL0     C66564   9.437   2.957  -0.212  0.0733 -0.6570 -0.0250
  505MOL0     C66565   9.397   3.099  -0.160 -0.1415  0.2545  1.0832
  505MOL0     C66566   9.465   3.129  -0.031 -0.6845 -0.2471  0.1277
  505MOL0     C66567   9.434   3.270   0.020  0.1246  0.5033  1.4467
  505MOL0     C66568   9.505   3.382  -0.053 -0.5284  0.7758 -0.3429
  505MOL0     C66569   9.432   3.510  -0.021  0.3712 -0.2831 -0.7570
  505MOL0     C66570   9.506   3.627  -0.083 -0.2994 -0.4522  1.1753
  505MOL0     C66571   9.429   3.698  -0.204  0.3669 -0.0153 -0.2409
  505MOL0    Cl66572   9.306   3.826  -0.143  0.3342 -0.3428 -0.0002
  505MOL0     C66573   9.732   2.798  -0.309  0.1486  0.1344  0.7911
  505MOL0     C66574   9.830   2.703  -0.292  0.3653  0.1627  0.4755
  505MOL0     O66575   9.814   2.396  -0.012 -0.6972 -0.0819  0.4768
  505MOL0     C66576  10.048   2.261   0.062 -0.9233 -0.2557  0.3539
  505MOL0     C66577  10.172   2.201   0.104 -0.5726 -0.9220  0.1618
  505MOL0     N66578  10.585   1.751   0.061 -0.1666  1.1875  0.1636
  505MOL0     N66579  10.505   1.689   0.151  0.0195 -0.1806  0.3772
  505MOL0     C66580   9.497   1.639   0.650 -0.6318  0.5143  1.3957
  505MOL0     C66581   9.433   1.738   0.725  0.4821  0.0265 -0.1017
  505MOL0     C66582   9.162   2.068   0.880  0.6363  0.0821  0.3250
  505MOL0     C66583   9.233   2.183   0.877 -0.7110  0.1228 -0.1958
  505MOL0     C66584   9.167   2.294   0.915  0.7250 -1.6088 -0.1228
  505MOL0     C66585   9.029   2.296   0.955  0.2507  0.1335  0.5802
  505MOL0     O66586   8.975   2.415   0.996  0.0768 -0.0237  0.6226
  505MOL0     C66587   8.835   2.417   1.033 -0.2946  0.3237  0.4596
  505MOL0     C66588   8.787   2.547   1.101  0.0071  1.2991  0.2528
  505MOL0     C66589   8.773   2.662   1.005 -0.4184 -0.2893  0.5111
  505MOL0     C66590   8.716   2.794   1.062 -0.1070  0.0662  0.5506
  505MOL0     C66591   8.593   2.768   1.137 -0.2133  0.3154  0.2695
  505MOL0     C66592   8.483   2.775   1.193 -0.1248 -0.1192  1.0051
  505MOL0     C66593   8.972   2.182   0.966 -0.2281  0.3301  0.5093
  505MOL0     C66594   9.033   2.060   0.930  0.8327 -0.6046 -0.2012
  505MOL0     H66595   9.281   1.901   0.480  1.8977  2.0506 -0.2345
  505MOL0     H66596   9.413   1.746   0.339 -1.1964  2.4675  0.5258
  505MOL0     H66597   9.555   1.589   0.250  3.8409 -2.7184 -2.4583
  505MOL0     H66598   9.428   1.482   0.322  0.0224  0.7346  2.7372
  505MOL0     H66599   9.540   1.340   0.191  0.4994 -0.2565 -1.0297
  505MOL0     H66600   9.629   1.317   0.344 -1.0255  1.3288  0.0012
  505MOL0     H66601   9.700   1.488   0.104 -0.9891  4.0623  3.4979
  505MOL0     H66602   9.771   1.327   0.144 -1.7883 -0.1432 -0.0114
  505MOL0     H66603   9.820   1.554   0.329 -0.9064 -0.5102  1.7697
  505MOL0     H66604   9.877   1.385   0.341  4.5041  1.5416 -0.3110
  505MOL0     H66605   9.925   1.541   0.088 -2.2190  0.9338  0.6002
  505MOL0     H66606  10.007   1.402   0.136 -0.8480  1.3222 -4.5985
  505MOL0     H66607  10.109   1.563   0.339  3.2045 -0.3941 -1.4733
  505MOL0     H66608  10.012   1.689   0.266 -0.6903 -0.9011  2.4902
  505MOL0     H66609  10.245   1.525   0.145 -0.7505  0.7138  2.6616
  505MOL0     H66610  10.169   1.660   0.053 -0.1541  0.6902  0.1970
  505MOL0     H66611  10.300   1.661   0.323 -0.0877 -0.1763 -0.8751
  505MOL0     H66612  10.218   1.805   0.263 -1.2788  0.5500 -0.6660
  505MOL0     H66613  10.325   1.949   0.071 -1.2878 -0.9942 -0.6978
  505MOL0     H66614  10.480   2.037  -0.102  0.8709  1.9171  3.2984
  505MOL0     H66615  10.600   1.920  -0.171 -3.1912 -0.0168 -1.3296
  505MOL0     H66616  10.697   2.124  -0.087 -1.4490  1.4055  1.5799
  505MOL0     H66617  10.745   1.972   0.012  0.9005 -1.3732 -3.5013
  505MOL0     H66618  10.596   2.063   0.185 -0.6005 -1.5324 -0.0255
  505MOL0     H66619  10.724   2.167   0.131 -1.5404  0.5962  3.3051
  505MOL0     H66620  10.537   2.270  -0.022 -2.0484 -3.2854 -2.1072
  505MOL0     H66621  10.562   2.319   0.150  1.1359 -0.0516 -0.4428
  505MOL0     H66622  10.383   2.405  -0.055 -0.9608 -1.0040 -0.0826
  505MOL0     H66623  10.183   2.494  -0.149  5.0383 -1.4891 -1.2590
  505MOL0     H66624   9.738   2.622   0.032  3.8752  0.1687  0.3438
  505MOL0     H66625   9.572   2.801  -0.009  0.6638 -0.6691  1.5721
  505MOL0     H66626   9.408   2.887  -0.134 -0.1624  1.0760  1.5267
  505MOL0     H66627   9.382   2.939  -0.304  1.9928 -2.4556 -0.8884
  505MOL0     H66628   9.290   3.113  -0.144 -0.0883  0.0908  1.6025
  505MOL0     H66629   9.427   3.168  -0.240 -4.1289  0.0508 -0.8073
  505MOL0     H66630   9.573   3.121  -0.043 -0.5778  0.4308  0.6085
  505MOL0     H66631   9.438   3.056   0.045  1.5210 -0.8676  0.3720
  505MOL0     H66632   9.327   3.287   0.038  0.4522  1.2929  2.8239
  505MOL0     H66633   9.480   3.270   0.119  1.9509  3.3782  0.7021
  505MOL0     H66634   9.496   3.365  -0.161  1.3081 -1.9580 -0.1688
  505MOL0     H66635   9.610   3.397  -0.029 -0.1752 -2.4137  0.5598
  505MOL0     H66636   9.439   3.520   0.088 -0.9989  2.5711 -0.8473
  505MOL0     H66637   9.325   3.501  -0.041 -0.3061  0.4814  2.0523
  505MOL0     H66638   9.514   3.699  -0.000 -2.1257 -1.1965  2.0570
  505MOL0     H66639   9.606   3.595  -0.113 -0.6121 -1.5222  1.2099
  505MOL0     H66640   9.368   3.630  -0.264  0.7776 -1.6562  1.1155
  505MOL0     H66641   9.489   3.759  -0.273  0.8158  1.9125  1.7565
  505MOL0     H66642   9.737   2.848  -0.405  0.2875  1.8176  1.6327
  505MOL0     H66643   9.906   2.681  -0.367 -0.5336  0.9970 -0.7112
  505MOL0     H66644   9.958   2.210   0.096  0.1045 -0.8589  2.3602
  505MOL0     H66645  10.163   2.115   0.169  0.8591 -0.6485  0.7704
  505MOL0     H66646   9.546   1.553   0.694 -3.3023 -1.4720  0.7536
  505MOL0     H66647   9.439   1.741   0.833  0.8506 -1.8663 -0.0312
  505MOL0     H66648   9.332   2.188   0.833 -0.6871 -0.7468 -0.2420
  505MOL0     H66649   9.224   2.385   0.928 -1.3888 -0.2790  0.3486
  505MOL0     H66650   8.795   2.334   1.093 -2.2077  0.6929 -0.2154
  505MOL0     H66651   8.780   2.401   0.940 -3.7266 -0.0957  2.3762
  505MOL0     H66652   8.697   2.525   1.160  0.3648 -0.5741  0.1516
  505MOL0     H66653   8.858   2.581   1.177 -0.3367 -1.4144  1.9333
  505MOL0     H66654   8.714   2.637   0.916 -1.2955  2.4379  0.2138
  505MOL0     H66655   8.871   2.696   0.968 -0.8998 -0.4157 -0.9461
  505MOL0     H66656   8.793   2.835   1.129  1.4602 -3.0763  0.8883
  505MOL0     H66657   8.695   2.871   0.988  0.2211 -0.2734  0.0982
  505MOL0     H66658   8.396   2.787   1.254 -3.0692 -3.6771 -2.0329
  505MOL0     H66659   8.868   2.171   0.995 -0.4919  1.5905  0.0753
  505MOL0     H66660   8.973   1.970   0.921  1.3981 -0.8271 -2.3379
  506MOL0     O66661   6.969  10.746   1.436 -0.8816 -0.3675 -0.6301
  506MOL0     C66662   7.086  10.795   1.447 -0.2443 -0.2919 -0.0991
  506MOL0     O66663   7.135  10.915   1.407 -0.1943 -0.4285 -0.1378
  506MOL0     C66664   7.055  11.019   1.390  1.5001  0.7546 -0.0674
  506MOL0     C66665   6.933  11.038   1.472 -0.8767 -0.4342  0.4367
  506MOL0     C66666   6.844  11.139   1.428 -0.0738 -0.0971  0.1103
  506MOL0     C66667   6.866  11.205   1.305 -0.3197 -0.2270  0.2363
  506MOL0     O66668   6.775  11.301   1.260  0.2634  1.0104  0.1778
  506MOL0     C66669   6.656  11.309   1.334  0.0916 -0.0112  0.5638
  506MOL0     C66670   6.547  11.390   1.254  0.5362 -0.1422 -0.4477
  506MOL0     C66671   6.581  11.545   1.240 -0.7028 -0.1059  0.4735
  506MOL0     C66672   6.452  11.627   1.198 -0.0313  0.5883  0.8196
  506MOL0     C66673   6.500  11.767   1.171 -0.3949 -1.6347  0.0243
  506MOL0     C66674   6.388  11.865   1.135  0.6240  0.0275  0.3969
  506MOL0     C66675   6.432  12.009   1.118  0.0343 -0.9229  0.0907
  506MOL0     C66676   6.475  12.055   0.969 -0.3377 -0.4252 -0.1382
  506MOL0     N66677   6.575  11.965   0.916  0.5584 -0.0896 -0.0166
  506MOL0     C66678   6.717  11.982   0.934  0.3684  0.2476 -0.3443
  506MOL0     C66679   6.772  11.883   0.856 -0.1591 -0.4909 -0.4211
  506MOL0     C66680   6.915  11.878   0.818  0.1705 -0.2965  0.2053
  506MOL0     C66681   7.001  11.838   0.936  0.8208 -1.0706  0.0513
  506MOL0     C66682   6.997  11.688   0.961 -0.0600 -0.5918  0.5117
  506MOL0     C66683   7.061  11.632   1.091 -0.5399 -0.3464  0.7455
  506MOL0     O66684   6.968  11.683   1.192  0.1175 -0.3393 -0.6806
  506MOL0     C66685   6.981  11.627   1.314  0.9677  0.8316  0.2561
  506MOL0     C66686   7.096  11.586   1.375  0.5128 -1.2085 -0.7351
  506MOL0     C66687   7.109  11.546   1.508  0.5189  0.5569 -0.5034
  506MOL0     C66688   6.998  11.541   1.589  0.3093 -0.9103 -0.3314
  506MOL0     C66689   7.003  11.516   1.738  0.5187  0.4499  0.6277
  506MOL0     O66690   7.126  11.522   1.785  0.1749 -0.0564 -0.4061
  506MOL0     C66691   7.153  11.551   1.921 -0.2444 -0.8207 -0.1300
  506MOL0     C66692   7.064  11.623   2.011  0.0008 -0.3480 -0.8456
  506MOL0     C66693   7.099  11.641   2.147 -0.8694 -0.1734 -0.7476
  506MOL0     C66694   7.231  11.607   2.192  0.2115 -0.0396 -0.8623
  506MOL0     O66695   7.295  11.645   2.320  0.0369 -0.5520  1.0092
  506MOL0     C66696   7.213  11.704   2.421 -0.2906  0.4406  1.0633
  506MOL0     C66697   7.123  11.598   2.484 -0.4030 -0.6712 -1.4483
  506MOL0     C66698   6.988  11.653   2.548 -0.9570  0.5963  1.1915
  506MOL0     C66699   6.908  11.535   2.604  0.0803  0.1451 -0.1476
  506MOL0     C66700   6.799  11.574   2.705  0.5462  0.6314  0.6339
  506MOL0     C66701   6.719  11.458   2.749  0.2185 -0.1080  0.5944
  506MOL0     C66702   6.783  11.395   2.868 -0.0209 -0.8101  0.6051
  506MOL0     C66703   6.712  11.278   2.916  0.0765 -0.9184 -0.2505
  506MOL0    Cl66704   6.792  11.221   3.079  0.6332  0.1032  0.2021
  506MOL0     C66705   7.310  11.524   2.111  0.4371  0.5632  0.7266
  506MOL0     C66706   7.269  11.499   1.978 -0.7025  0.0418  0.1621
  506MOL0     O66707   6.902  11.508   1.809 -0.2793 -0.2264 -0.1367
  506MOL0     C66708   6.873  11.586   1.534 -0.5909  0.3504 -0.0392
  506MOL0     C66709   6.872  11.629   1.402  1.4015  0.0222  0.1084
  506MOL0     N66710   6.670  11.810   0.809  0.3824 -0.0630  0.0699
  506MOL0     N66711   6.550  11.861   0.827 -0.8657  0.1358  0.6564
  506MOL0     C66712   6.978  11.182   1.225  0.2832 -0.7397 -0.5832
  506MOL0     C66713   7.068  11.078   1.270  0.0849 -1.3150  0.9532
  506MOL0     C66714   7.199  10.712   1.492  1.6389  0.8757 -1.0755
  506MOL0     C66715   7.330  10.739   1.480 -0.0365 -0.5500  0.3977
  506MOL0     C66716   7.440  10.643   1.512  0.3728  0.0565  0.1885
  506MOL0     C66717   7.405  10.520   1.575 -0.2746  0.2604  0.4805
  506MOL0     O66718   7.511  10.443   1.624  0.4555  1.1215  0.1432
  506MOL0     C66719   7.498  10.335   1.721 -0.3867  0.6019  0.2715
  506MOL0     C66720   7.518  10.199   1.650 -0.7754  1.0621  0.8957
  506MOL0     C66721   7.667  10.176   1.598 -0.3338 -0.6062 -0.2558
  506MOL0     C66722   7.759  10.075   1.686  0.0700  0.4315  0.0853
  506MOL0     C66723   7.751  10.091   1.830  0.0936 -0.7898  0.2634
  506MOL0     C66724   7.736  10.123   1.949 -0.3804 -0.3755 -0.1261
  506MOL0     C66725   7.278  10.503   1.612 -0.4503 -0.2410  0.3667
  506MOL0     C66726   7.178  10.590   1.560 -0.5112 -0.0143 -0.4689
  506MOL0     H66727   6.927  10.991   1.569 -0.9450  0.5784  0.9416
  506MOL0     H66728   6.758  11.170   1.486 -2.1239 -0.8831 -2.3122
  506MOL0     H66729   6.666  11.346   1.437 -1.2496  1.7221  0.1257
  506MOL0     H66730   6.624  11.204   1.336 -0.5086  0.1077 -1.3367
  506MOL0     H66731   6.448  11.394   1.301  1.1843 -2.4661  1.3387
  506MOL0     H66732   6.532  11.336   1.160 -1.6803  0.3279 -0.4213
  506MOL0     H66733   6.660  11.567   1.168 -2.4817 -0.0117 -1.5207
  506MOL0     H66734   6.608  11.589   1.337 -1.4776 -1.1570  1.1989
  506MOL0     H66735   6.399  11.571   1.121  2.3606  0.2475 -0.6965
  506MOL0     H66736   6.384  11.621   1.283 -3.4270 -0.6154 -1.7543
  506MOL0     H66737   6.578  11.770   1.095 -0.4162 -1.8300 -0.0043
  506MOL0     H66738   6.544  11.800   1.266 -1.0287 -0.7701  0.0294
  506MOL0     H66739   6.328  11.865   1.227 -1.0183  2.5123 -0.5513
  506MOL0     H66740   6.337  11.832   1.044  4.0236 -1.8088 -1.0222
  506MOL0     H66741   6.343  12.073   1.123  0.9219  0.7841 -3.1827
  506MOL0     H66742   6.502  12.040   1.197 -0.0597  2.3948 -0.9865
  506MOL0     H66743   6.528  12.151   0.976  1.7722 -1.6169  1.8964
  506MOL0     H66744   6.396  12.067   0.894  1.6863  0.6776 -2.2480
  506MOL0     H66745   6.770  12.063   0.983 -0.9827  1.4039 -0.7156
  506MOL0     H66746   6.945  11.980   0.791  0.8365  0.3951  3.1104
  506MOL0     H66747   6.939  11.822   0.727 -1.1396  1.2546 -1.1530
  506MOL0     H66748   6.962  11.879   1.030  0.4974  1.3059 -1.0616
  506MOL0     H66749   7.101  11.882   0.933 -0.0742  1.0037 -1.3969
  506MOL0     H66750   6.892  11.657   0.954 -0.2956  0.2403  0.2287
  506MOL0     H66751   7.046  11.633   0.880 -2.0447 -1.7518  0.0248
  506MOL0     H66752   7.154  11.679   1.125 -0.8142  1.5031 -0.8481
  506MOL0     H66753   7.071  11.523   1.096  1.5349 -0.3757 -1.6728
  506MOL0     H66754   7.192  11.580   1.324  0.9256 -0.6168 -0.0445
  506MOL0     H66755   7.206  11.515   1.545  1.0003  2.2959 -0.2348
  506MOL0     H66756   6.972  11.665   1.972  0.2656  1.4404  0.3059
  506MOL0     H66757   7.029  11.684   2.218  0.3365  0.1291  0.2791
  506MOL0     H66758   7.160  11.791   2.381  1.6026  0.0140 -2.7565
  506MOL0     H66759   7.281  11.735   2.501  0.3975 -0.1053  0.6951
  506MOL0     H66760   7.189  11.549   2.555  1.5570  1.4848 -1.6433
  506MOL0     H66761   7.099  11.521   2.410 -1.0667  0.7145 -2.7559
  506MOL0     H66762   6.918  11.700   2.478 -0.6205  2.6202  2.1402
  506MOL0     H66763   7.005  11.717   2.635 -0.5892 -0.2290  1.7328
  506MOL0     H66764   6.869  11.472   2.524  1.8130 -1.1303 -0.0559
  506MOL0     H66765   6.973  11.467   2.661 -2.2318  0.4457  3.1569
  506MOL0     H66766   6.745  11.651   2.649  0.3920  0.8850  1.1246
  506MOL0     H66767   6.833  11.625   2.796  0.6635  1.3861  0.1751
  506MOL0     H66768   6.707  11.385   2.668 -3.4330  0.0463  0.8435
  506MOL0     H66769   6.616  11.489   2.769 -0.9783 -3.6140  0.4943
  506MOL0     H66770   6.886  11.363   2.850  0.9691  1.9258  0.9822
  506MOL0     H66771   6.802  11.471   2.945 -1.3602 -2.4946  2.7125
  506MOL0     H66772   6.708  11.192   2.848 -3.7605 -0.8819 -0.2796
  506MOL0     H66773   6.611  11.316   2.931  1.1729  2.3373 -0.1832
  506MOL0     H66774   7.408  11.502   2.152  1.5533  0.5464 -1.7701
  506MOL0     H66775   7.325  11.438   1.909 -1.6352 -0.8463  0.1539
  506MOL0     H66776   6.782  11.578   1.593  1.5086 -1.4869  3.2450
  506MOL0     H66777   6.782  11.684   1.378  0.4074 -0.6701  2.0658
  506MOL0     H66778   6.996  11.230   1.130  1.7025 -1.0563 -0.4987
  506MOL0     H66779   7.158  11.059   1.212  2.5759  1.3648  3.6290
  506MOL0     H66780   7.360  10.822   1.417  2.4081 -3.0133 -1.9818
  506MOL0     H66781   7.545  10.662   1.494  0.5419  3.4579  3.5791
  506MOL0     H66782   7.411  10.321   1.785  1.6055 -1.5001  2.7850
  506MOL0     H66783   7.580  10.342   1.794 -1.8780  2.2726  1.8805
  506MOL0     H66784   7.507  10.120   1.725  2.4633 -0.5982 -0.1815
  506MOL0     H66785   7.443  10.177   1.574 -0.9473 -3.1224  2.0444
  506MOL0     H66786   7.716  10.274   1.607 -1.8379  0.5744 -3.4999
  506MOL0     H66787   7.664  10.131   1.499  0.3130 -2.9619  0.7334
  506MOL0     H66788   7.754   9.968   1.664  0.4544  0.4273  0.0073
  506MOL0     H66789   7.863  10.099   1.663  0.1059 -0.3213 -0.5882
  506MOL0     H66790   7.717  10.145   2.052 -1.0093 -1.4770  0.0004
  506MOL0     H66791   7.260  10.415   1.673 -2.6471  1.8488  3.0182
  506MOL0     H66792   7.072  10.572   1.574 -0.1735  0.6231  4.8704
  507MOL0     O66793   6.091   7.850   5.060  0.2201  0.3814  0.4523
  507MOL0     C66794   6.115   7.876   4.941  0.3640  0.8148  0.0538
  507MOL0     O66795   6.032   7.906   4.837  0.4906  0.7057  0.1350
  507MOL0     C66796   5.897   7.874   4.845  0.3474 -0.4327 -0.1544
  507MOL0     C66797   5.829   7.859   4.959  0.4063  0.7501 -0.0118
  507MOL0     C66798   5.694   7.803   4.952  0.5430 -0.7211 -0.0957
  507MOL0     C66799   5.640   7.765   4.826  0.3288  0.4408 -0.1815
  507MOL0     O66800   5.510   7.722   4.809 -0.2349  0.1326 -0.6564
  507MOL0     C66801   5.473   7.624   4.906 -0.1810 -0.5685  0.4133
  507MOL0     C66802   5.331   7.565   4.861  0.1962 -0.2766 -0.9796
  507MOL0     C66803   5.249   7.490   4.973  0.2683  0.0571  0.0454
  507MOL0     C66804   5.115   7.445   4.903 -0.2748 -0.2107 -0.1993
  507MOL0     C66805   5.044   7.348   4.989  0.5091 -0.2717 -0.2474
  507MOL0     C66806   4.959   7.416   5.093  0.3296 -0.1330  1.0030
  507MOL0     C66807   4.883   7.325   5.175  0.2907 -0.2697 -0.1580
  507MOL0     C66808   4.856   7.376   5.314  0.7964  0.4893 -0.1488
  507MOL0     N66809   4.795   7.268   5.396  0.3557 -0.0482 -0.1537
  507MOL0     C66810   4.662   7.238   5.400 -0.7728 -0.3206  0.6821
  507MOL0     C66811   4.656   7.151   5.504 -0.2689  0.5633  1.0108
  507MOL0     C66812   4.530   7.101   5.558  0.1739 -0.5926  0.1776
  507MOL0     C66813   4.527   6.945   5.542 -0.0374  0.8640 -0.5124
  507MOL0     C66814   4.523   6.869   5.673  0.6529  0.5993 -0.4757
  507MOL0     C66815   4.523   6.720   5.645 -0.5908  0.3379 -0.6047
  507MOL0     O66816   4.395   6.682   5.606  0.0869  0.3258  0.0364
  507MOL0     C66817   4.299   6.654   5.706 -0.4995 -1.0546 -0.1716
  507MOL0     C66818   4.224   6.757   5.754  0.3022  0.5699  0.6440
  507MOL0     C66819   4.130   6.736   5.864 -1.0756  0.7333  0.5169
  507MOL0     C66820   4.109   6.600   5.917 -0.7937  0.0935  0.1172
  507MOL0     C66821   4.013   6.591   6.026  0.0204  0.0254 -0.1863
  507MOL0     O66822   3.925   6.693   6.050  0.7393 -0.5934 -0.2123
  507MOL0     C66823   3.850   6.679   6.170 -0.0784 -0.2328  0.5217
  507MOL0     C66824   3.734   6.604   6.159  0.1311  0.4728 -1.5580
  507MOL0     C66825   3.632   6.612   6.255 -0.5991  0.4080 -0.4634
  507MOL0     C66826   3.653   6.684   6.376 -0.0464 -0.7233 -0.7480
  507MOL0     O66827   3.556   6.670   6.465  0.2052  0.4002 -0.4548
  507MOL0     C66828   3.496   6.789   6.531 -0.8394  0.6358  0.3055
  507MOL0     C66829   3.442   6.886   6.428  0.6480  0.2835 -0.3650
  507MOL0     C66830   3.331   6.825   6.334  0.9338 -0.3773 -0.2291
  507MOL0     C66831   3.200   6.763   6.408 -0.2318  0.4688  0.7591
  507MOL0     C66832   3.139   6.883   6.494  0.7827  0.1739 -1.0353
  507MOL0     C66833   3.005   6.852   6.547  1.1075  0.0011 -0.8657
  507MOL0     C66834   2.928   6.980   6.601  0.5463  0.4462  0.3369
  507MOL0     C66835   2.800   6.943   6.669  0.1456 -0.4242 -0.4784
  507MOL0    Cl66836   2.842   6.884   6.834  0.2237  0.9576 -0.0321
  507MOL0     C66837   3.770   6.764   6.381 -0.2875  1.1366 -0.2902
  507MOL0     C66838   3.867   6.766   6.284 -1.5432  0.2801 -0.0865
  507MOL0     O66839   4.012   6.487   6.086 -0.1146 -0.2029  0.1415
  507MOL0     C66840   4.202   6.500   5.868 -0.1666 -0.0761  0.4668
  507MOL0     C66841   4.290   6.529   5.771 -0.1029 -0.0020 -0.5674
  507MOL0     N66842   4.782   7.110   5.537  0.9839  0.6730 -0.1163
  507MOL0     N66843   4.867   7.180   5.471 -0.3341  0.9930  0.8273
  507MOL0     C66844   5.721   7.775   4.714  0.6189 -0.3700 -0.4297
  507MOL0     C66845   5.840   7.841   4.721  0.8446  0.1320 -0.1631
  507MOL0     C66846   6.257   7.889   4.913 -0.6240  1.3289 -0.7735
  507MOL0     C66847   6.292   7.913   4.783  0.2326  0.5225 -0.0158
  507MOL0     C66848   6.429   7.919   4.744  0.2566 -0.6883 -0.0097
  507MOL0     C66849   6.529   7.904   4.844 -0.7063 -0.6007  0.4956
  507MOL0     O66850   6.663   7.870   4.826 -0.0592 -0.2246  0.2086
  507MOL0     C66851   6.711   7.841   4.687  0.8829 -0.9999  0.6716
  507MOL0     C66852   6.860   7.834   4.680  0.2276 -0.2345 -1.3074
  507MOL0     C66853   6.943   7.963   4.650  0.5668 -0.1864 -0.2593
  507MOL0     C66854   6.908   8.061   4.760  0.3965 -0.9419  0.5252
  507MOL0     C66855   6.994   8.177   4.759 -0.1734  0.6862 -0.3280
  507MOL0     C66856   7.042   8.286   4.770 -0.4755 -0.6550 -0.5693
  507MOL0     C66857   6.489   7.894   4.972  0.2807  0.5492 -0.3946
  507MOL0     C66858   6.353   7.880   5.009 -0.9368  1.4506  0.3744
  507MOL0     H66859   5.864   7.879   5.060 -1.5067 -1.7867  1.2748
  507MOL0     H66860   5.638   7.797   5.045  0.5296  1.4127  0.0873
  507MOL0     H66861   5.464   7.666   5.007  2.4312 -0.4886  0.6857
  507MOL0     H66862   5.540   7.538   4.903 -1.7739 -1.8345 -0.8473
  507MOL0     H66863   5.353   7.482   4.793  1.5841 -0.6861 -0.0590
  507MOL0     H66864   5.262   7.636   4.815 -3.5788 -3.6778 -1.0897
  507MOL0     H66865   5.227   7.564   5.050  0.2031  1.4858 -1.3189
  507MOL0     H66866   5.313   7.410   5.012  0.3046 -1.1126 -2.2355
  507MOL0     H66867   5.052   7.533   4.891 -0.1008 -0.1331 -0.5425
  507MOL0     H66868   5.121   7.397   4.805  0.7742  0.1619 -0.3215
  507MOL0     H66869   5.112   7.283   5.044  1.9989  0.4571 -1.1423
  507MOL0     H66870   4.972   7.288   4.931 -3.3498  0.8559  2.9457
  507MOL0     H66871   4.888   7.485   5.047  0.9917 -0.2456 -0.2203
  507MOL0     H66872   5.017   7.480   5.161  1.2789 -2.8124  2.9293
  507MOL0     H66873   4.791   7.298   5.122 -0.8823 -1.3864  2.2853
  507MOL0     H66874   4.932   7.228   5.171  2.3489  0.6990  0.3717
  507MOL0     H66875   4.797   7.468   5.327  3.0209  2.2866 -1.7998
  507MOL0     H66876   4.956   7.394   5.355  1.1024 -1.9105  0.2866
  507MOL0     H66877   4.582   7.276   5.337 -1.2059 -2.7901 -0.3390
  507MOL0     H66878   4.441   7.145   5.512 -0.0422  1.8630  2.6409
  507MOL0     H66879   4.543   7.118   5.665  4.1349  2.7938 -0.5694
  507MOL0     H66880   4.615   6.923   5.482 -1.7103  0.7190 -3.0495
  507MOL0     H66881   4.436   6.904   5.497  1.1394 -4.2727  1.1332
  507MOL0     H66882   4.611   6.878   5.737  0.3986  0.6386 -0.1289
  507MOL0     H66883   4.434   6.898   5.729 -0.0655 -0.9744 -0.7265
  507MOL0     H66884   4.559   6.670   5.735  1.8310  2.7853 -0.0993
  507MOL0     H66885   4.585   6.697   5.557 -2.9998 -2.1867 -1.8132
  507MOL0     H66886   4.222   6.852   5.703  0.9887 -0.9875 -2.5048
  507MOL0     H66887   4.058   6.807   5.902  0.1108  1.0956  2.2309
  507MOL0     H66888   3.704   6.542   6.075 -0.4533 -1.0383 -0.2782
  507MOL0     H66889   3.543   6.551   6.246  1.1019 -2.3577  0.3076
  507MOL0     H66890   3.577   6.831   6.591 -0.2948  0.4722 -0.2927
  507MOL0     H66891   3.413   6.762   6.597 -3.8706  0.9930 -3.0558
  507MOL0     H66892   3.524   6.916   6.361 -0.0628 -1.3422 -2.0936
  507MOL0     H66893   3.398   6.975   6.473  1.2934  1.4638 -1.9454
  507MOL0     H66894   3.372   6.752   6.263  1.2222  0.3866 -0.8625
  507MOL0     H66895   3.308   6.913   6.274  0.8740 -1.6132 -2.1290
  507MOL0     H66896   3.126   6.724   6.337  0.9778 -4.2705  1.7121
  507MOL0     H66897   3.227   6.672   6.464 -2.1509 -0.6901 -0.0920
  507MOL0     H66898   3.142   6.976   6.437  1.0913  0.8235  0.0292
  507MOL0     H66899   3.208   6.905   6.576  0.7004 -0.9564 -0.6395
  507MOL0     H66900   3.010   6.774   6.624  1.1383  0.1770 -0.6899
  507MOL0     H66901   2.954   6.816   6.457 -3.4026 -0.4830  1.5878
  507MOL0     H66902   2.984   7.034   6.677  1.1890 -0.7375  0.7270
  507MOL0     H66903   2.919   7.060   6.526  1.9523  0.9324  0.6602
  507MOL0     H66904   2.740   6.873   6.610 -2.0644 -0.0712  1.2027
  507MOL0     H66905   2.736   7.032   6.680  1.1395  0.0773  1.9279
  507MOL0     H66906   3.784   6.808   6.480 -1.8010 -1.2583  1.1089
  507MOL0     H66907   3.957   6.826   6.288 -0.8844 -0.7478  1.5483
  507MOL0     H66908   4.206   6.399   5.907  1.1085  0.1671  1.0250
  507MOL0     H66909   4.368   6.458   5.746 -0.9924 -2.0625  1.9549
  507MOL0     H66910   5.680   7.751   4.617  4.6640  1.3333 -2.7805
  507MOL0     H66911   5.898   7.861   4.631  1.7449  2.3442  0.8481
  507MOL0     H66912   6.214   7.951   4.718 -2.2246  2.7988  3.8808
  507MOL0     H66913   6.457   7.932   4.640  0.3331  0.6236  0.1520
  507MOL0     H66914   6.674   7.924   4.627  0.6407 -0.6147  1.3418
  507MOL0     H66915   6.664   7.748   4.653  0.3334 -0.7875  0.8490
  507MOL0     H66916   6.902   7.800   4.775  1.0011 -0.1128 -1.6010
  507MOL0     H66917   6.884   7.758   4.604 -0.8568 -2.7661  0.7211
  507MOL0     H66918   6.921   7.999   4.549 -3.0459 -0.4065  0.3183
  507MOL0     H66919   7.052   7.955   4.656  0.5101 -1.5313 -0.8372
  507MOL0     H66920   6.808   8.104   4.751  0.3177 -1.3953 -1.0643
  507MOL0     H66921   6.901   8.004   4.853 -3.5522 -1.7782 -0.0976
  507MOL0     H66922   7.071   8.387   4.793  0.6750 -1.3515  1.1522
  507MOL0     H66923   6.558   7.869   5.051 -2.3543  1.6550  2.4629
  507MOL0     H66924   6.329   7.861   5.113  1.3758 -0.3393  0.6510
  508MOL0     O66925   4.153   0.566   4.425  0.7193 -0.0480  0.5962
  508MOL0     C66926   4.169   0.551   4.546  0.2263 -0.4472 -0.0368
  508MOL0     O66927   4.139   0.644   4.645  0.0372  0.0477  0.3799
  508MOL0     C66928   4.056   0.754   4.622  0.8794 -0.1251  0.5821
  508MOL0     C66929   4.088   0.865   4.697 -0.0548 -0.6897 -0.6070
  508MOL0     C66930   4.013   0.987   4.693  0.8839  0.7839 -0.1165
  508MOL0     C66931   3.904   0.993   4.609 -0.8153 -0.0322 -0.5176
  508MOL0     O66932   3.842   1.118   4.602  0.0267  0.6753  0.3159
  508MOL0     C66933   3.700   1.116   4.632 -0.2143 -0.1241  0.5341
  508MOL0     C66934   3.637   1.237   4.570  0.4950  0.3580  0.0432
  508MOL0     C66935   3.647   1.233   4.417 -0.4008  1.2344 -1.1941
  508MOL0     C66936   3.598   1.371   4.367  0.6399  0.5609  1.6259
  508MOL0     C66937   3.589   1.368   4.208 -0.3912 -1.3169  0.3715
  508MOL0     C66938   3.484   1.279   4.141 -0.8260  0.6422 -0.3305
  508MOL0     C66939   3.487   1.292   3.995 -0.3418  0.3249  0.2703
  508MOL0     C66940   3.492   1.149   3.940 -0.0330  0.3563 -0.5667
  508MOL0     N66941   3.449   1.147   3.798  0.5581 -0.7174 -1.1024
  508MOL0     C66942   3.501   1.052   3.709 -0.1614  0.2619 -0.7273
  508MOL0     C66943   3.431   1.078   3.597  0.3535  0.6988 -0.4379
  508MOL0     C66944   3.438   1.001   3.468  0.3799  0.1705 -0.6882
  508MOL0     C66945   3.578   0.961   3.419  0.0543 -0.0045 -0.1181
  508MOL0     C66946   3.660   1.091   3.389  1.1428  0.6121 -0.1900
  508MOL0     C66947   3.733   1.073   3.250  0.0421  0.3851 -0.9584
  508MOL0     O66948   3.638   1.042   3.150 -0.1455  0.4549 -0.3293
  508MOL0     C66949   3.689   0.988   3.035  0.2189 -0.5817  1.2040
  508MOL0     C66950   3.598   0.972   2.935  0.2909 -0.6987  0.7650
  508MOL0     C66951   3.639   0.933   2.803  0.1054 -0.0891 -0.0410
  508MOL0     C66952   3.777   0.910   2.781  0.7204 -0.9069  0.1342
  508MOL0     C66953   3.826   0.870   2.648 -1.1901  0.5935 -0.1236
  508MOL0     O66954   3.737   0.891   2.542  0.3603  1.4003  0.5057
  508MOL0     C66955   3.778   0.831   2.425  0.8151 -0.1652  0.2009
  508MOL0     C66956   3.809   0.904   2.308 -0.8488 -0.6019 -0.8453
  508MOL0     C66957   3.849   0.846   2.182  0.2560  0.5714 -0.9014
  508MOL0     C66958   3.837   0.707   2.173  0.5939  0.6987  0.6000
  508MOL0     O66959   3.898   0.650   2.063  0.1184 -0.6929 -0.3606
  508MOL0     C66960   3.839   0.547   1.984  0.5500  0.1482  0.2817
  508MOL0     C66961   3.783   0.602   1.846  0.0009  0.2197  0.4111
  508MOL0     C66962   3.892   0.648   1.748 -1.0468 -0.1006 -0.5444
  508MOL0     C66963   3.831   0.678   1.611  0.6553  0.4104 -0.3219
  508MOL0     C66964   3.894   0.800   1.545  0.5220 -0.1186  0.4729
  508MOL0     C66965   4.038   0.765   1.496 -0.3672  0.6332  0.1403
  508MOL0     C66966   4.109   0.875   1.415 -0.0089 -0.0234  0.0472
  508MOL0     C66967   4.118   0.822   1.270 -0.6029 -0.6133 -0.9269
  508MOL0    Cl66968   4.243   0.939   1.196  0.0927  0.0950  0.0017
  508MOL0     C66969   3.784   0.627   2.279 -0.8056 -0.0795 -0.5624
  508MOL0     C66970   3.762   0.686   2.404  0.3348  0.4727 -0.1918
  508MOL0     O66971   3.950   0.840   2.639  0.0727  0.3796 -0.1295
  508MOL0     C66972   3.870   0.931   2.886  0.3258  0.3421  0.6687
  508MOL0     C66973   3.823   0.977   3.007 -1.3099  1.1969  0.1585
  508MOL0     N66974   3.346   1.185   3.625  0.1110 -0.2132 -0.1865
  508MOL0     N66975   3.371   1.231   3.739 -0.4767 -0.6549  0.2997
  508MOL0     C66976   3.869   0.882   4.522 -0.4905 -0.4390  0.0427
  508MOL0     C66977   3.947   0.765   4.531 -0.4622 -0.3568 -0.0045
  508MOL0     C66978   4.249   0.431   4.591  0.7435 -0.6654 -0.2399
  508MOL0     C66979   4.252   0.312   4.521 -0.2245  0.2708  0.5570
  508MOL0     C66980   4.335   0.204   4.553  0.0439 -0.0596  0.6888
  508MOL0     C66981   4.418   0.206   4.667  1.3301  0.1794  0.5511
  508MOL0     O66982   4.492   0.096   4.702 -0.6990  0.1384  0.3540
  508MOL0     C66983   4.577   0.111   4.819 -0.0968 -0.1581 -1.1150
  508MOL0     C66984   4.638  -0.032   4.854  1.3133  0.0015  1.3080
  508MOL0     C66985   4.748  -0.026   4.951  0.2394 -0.7433  0.0175
  508MOL0     C66986   4.877  -0.052   4.887 -0.1639 -0.1519 -0.1604
  508MOL0     C66987   4.935   0.050   4.799 -0.4229  0.0646 -0.1346
  508MOL0     C66988   4.988   0.129   4.726 -0.2108 -0.1424  0.3672
  508MOL0     C66989   4.413   0.331   4.742 -0.2504  0.5039  0.2735
  508MOL0     C66990   4.336   0.437   4.701  0.3096 -0.2268 -0.4505
  508MOL0     H66991   4.178   0.858   4.757  1.8548  1.0815 -3.0707
  508MOL0     H66992   4.030   1.080   4.747  1.1667  2.0781 -2.3333
  508MOL0     H66993   3.685   1.101   4.739  0.9457 -0.7266  0.6296
  508MOL0     H66994   3.655   1.029   4.584 -0.4905  0.0571  0.4648
  508MOL0     H66995   3.685   1.327   4.610 -1.4349  0.9362  1.1606
  508MOL0     H66996   3.536   1.241   4.610  0.1748 -1.0775 -0.5757
  508MOL0     H66997   3.587   1.149   4.381 -1.3402  1.7119 -0.7761
  508MOL0     H66998   3.754   1.228   4.393 -0.2641  1.0800 -0.5776
  508MOL0     H66999   3.495   1.382   4.401  0.2064 -0.0170  0.5557
  508MOL0     H67000   3.668   1.447   4.404  1.2500  1.5229 -1.2242
  508MOL0     H67001   3.692   1.349   4.176 -0.0940  0.6106  0.0726
  508MOL0     H67002   3.572   1.474   4.185 -0.4987 -1.2199  0.8830
  508MOL0     H67003   3.384   1.304   4.178 -0.9217 -1.0343  0.6077
  508MOL0     H67004   3.495   1.178   4.180 -3.0568  0.3774 -0.2524
  508MOL0     H67005   3.404   1.348   3.949  0.0036  0.5968 -0.0293
  508MOL0     H67006   3.575   1.347   3.959 -1.0479  0.8339 -0.7407
  508MOL0     H67007   3.425   1.083   3.995  2.0726 -0.1775  1.5536
  508MOL0     H67008   3.595   1.114   3.952  0.1208  0.2158 -2.1147
  508MOL0     H67009   3.574   0.974   3.726 -1.5886 -0.6398  1.8036
  508MOL0     H67010   3.392   1.064   3.391  1.5376 -1.9029 -3.2300
  508MOL0     H67011   3.391   0.903   3.477 -0.3002  0.5500  0.0025
  508MOL0     H67012   3.570   0.912   3.322 -2.4211  2.7002 -1.4289
  508MOL0     H67013   3.643   0.904   3.487  2.2342  3.1998  0.7148
  508MOL0     H67014   3.603   1.184   3.388  1.4580  0.8106  0.0315
  508MOL0     H67015   3.733   1.104   3.469  0.2894 -1.6477  1.0462
  508MOL0     H67016   3.811   1.000   3.270  1.3441  2.3869  2.1907
  508MOL0     H67017   3.786   1.167   3.232 -0.5531  0.7981 -0.6217
  508MOL0     H67018   3.493   0.993   2.952 -0.0557 -1.0086 -0.8190
  508MOL0     H67019   3.565   0.932   2.724 -1.1645 -0.0847  1.1046
  508MOL0     H67020   3.807   1.010   2.329 -4.5325 -1.0712  2.4412
  508MOL0     H67021   3.892   0.902   2.099 -0.2372  0.6230 -1.1235
  508MOL0     H67022   3.756   0.501   2.040  0.6554 -1.4038 -0.7520
  508MOL0     H67023   3.916   0.470   1.973  0.2746 -0.0856 -0.1016
  508MOL0     H67024   3.721   0.689   1.869 -1.3527 -0.1318 -1.6894
  508MOL0     H67025   3.725   0.521   1.800  3.3644 -1.0286 -2.0281
  508MOL0     H67026   3.963   0.567   1.731 -1.3145  0.1702 -3.4867
  508MOL0     H67027   3.954   0.733   1.780  0.1213 -1.2916  0.5233
  508MOL0     H67028   3.856   0.588   1.553 -0.7996 -1.0842  1.2602
  508MOL0     H67029   3.722   0.683   1.616  0.7236  0.4781  1.8424
  508MOL0     H67030   3.906   0.890   1.607  2.3899  0.3487 -0.4788
  508MOL0     H67031   3.827   0.828   1.463  1.9089 -0.4880 -0.8210
  508MOL0     H67032   4.029   0.673   1.437  1.3104  1.1806 -1.0762
  508MOL0     H67033   4.110   0.742   1.575 -0.8534 -2.1574 -0.1460
  508MOL0     H67034   4.041   0.960   1.408  1.0206  0.8734  0.4872
  508MOL0     H67035   4.205   0.907   1.457  0.2237 -2.3524  1.4663
  508MOL0     H67036   4.018   0.811   1.227 -1.8722  0.6175  1.4661
  508MOL0     H67037   4.170   0.726   1.265  0.4068 -0.1560  0.2520
  508MOL0     H67038   3.786   0.519   2.266  0.8308  0.0322 -1.5962
  508MOL0     H67039   3.727   0.624   2.486  0.9274  0.4661  0.0615
  508MOL0     H67040   3.977   0.924   2.872  0.4221  0.3847  1.3577
  508MOL0     H67041   3.905   1.003   3.074 -1.9106  1.4765  0.7916
  508MOL0     H67042   3.788   0.897   4.451  1.3037  0.4052 -1.9559
  508MOL0     H67043   3.919   0.674   4.479 -1.4412 -1.1846  1.8904
  508MOL0     H67044   4.186   0.304   4.435  1.9956  2.7213 -1.5405
  508MOL0     H67045   4.340   0.113   4.494  1.8969  0.2163  0.3557
  508MOL0     H67046   4.520   0.159   4.899 -0.8818  0.0736 -1.7960
  508MOL0     H67047   4.666   0.171   4.796  0.5142 -0.7090 -0.2605
  508MOL0     H67048   4.545  -0.088   4.870 -2.0615  2.7900 -4.9825
  508MOL0     H67049   4.676  -0.074   4.761  0.0175 -0.4281  0.9543
  508MOL0     H67050   4.724  -0.098   5.030 -0.5077 -0.9923 -0.4314
  508MOL0     H67051   4.751   0.070   5.003  2.8182 -0.3329 -0.7392
  508MOL0     H67052   4.954  -0.046   4.965 -0.4339  2.2252 -0.0079
  508MOL0     H67053   4.877  -0.145   4.830  0.4629  0.1098 -0.5978
  508MOL0     H67054   5.023   0.188   4.644 -0.2374  1.4037  1.4251
  508MOL0     H67055   4.482   0.347   4.824  0.2249  1.4809 -0.2960
  508MOL0     H67056   4.342   0.531   4.755 -4.6451  0.1945 -0.0954
  509MOL0     O67057  11.338  11.172   8.910  0.4039  1.1828 -0.0199
  509MOL0     C67058  11.215  11.173   8.940  0.2886 -0.8894  0.1600
  509MOL0     O67059  11.161  11.134   9.058 -0.5243 -0.3184 -0.5954
  509MOL0     C67060  11.245  11.070   9.151 -0.4654  0.8589 -0.3726
  509MOL0     C67061  11.283  10.937   9.131 -0.6647 -0.3822 -0.8833
  509MOL0     C67062  11.371  10.874   9.224 -0.0762  0.3084 -0.6841
  509MOL0     C67063  11.412  10.933   9.346  0.7129  0.1441 -0.2469
  509MOL0     O67064  11.473  10.872   9.447  0.0276  0.0868 -0.6911
  509MOL0     C67065  11.452  10.930   9.580  0.4095  0.9289  0.0146
  509MOL0     C67066  11.493  10.835   9.694 -0.1935  0.2473  0.8320
  509MOL0     C67067  11.418  10.865   9.817  0.6050  0.3981 -0.1550
  509MOL0     C67068  11.464  10.775   9.929  0.0442 -0.3671 -0.1512
  509MOL0     C67069  11.388  10.822  10.066 -1.1032 -0.6402  0.4952
  509MOL0     C67070  11.403  10.719  10.176 -0.2505 -0.4383 -0.3914
  509MOL0     C67071  11.333  10.759  10.302  0.5184 -0.1639  1.2541
  509MOL0     C67072  11.338  10.645  10.407  1.2761  0.1111 -0.4373
  509MOL0     N67073  11.267  10.526  10.367 -0.5015  0.0906 -0.8054
  509MOL0     C67074  11.141  10.528  10.315 -0.0785  0.1612 -1.0924
  509MOL0     C67075  11.079  10.420  10.365  0.5492  0.5200  1.0094
  509MOL0     C67076  10.947  10.379  10.327  0.5381  0.5798 -0.1183
  509MOL0     C67077  10.948  10.276  10.216  0.0502  0.9411  0.0536
  509MOL0     C67078  11.024  10.144  10.257 -0.3610 -0.0829 -0.4736
  509MOL0     C67079  10.995  10.080  10.396  0.1777 -0.4142 -0.8703
  509MOL0     O67080  10.868  10.018  10.398  0.2215  0.1275 -1.0400
  509MOL0     C67081  10.833   9.930  10.507 -0.5141 -0.3975 -0.0999
  509MOL0     C67082  10.711   9.871  10.506  0.7261  0.9509 -0.0004
  509MOL0     C67083  10.669   9.785  10.614 -0.0992 -0.1923  0.6963
  509MOL0     C67084  10.740   9.769  10.729  0.1337  0.2663  0.6115
  509MOL0     C67085  10.690   9.671  10.835 -0.3978 -0.6177  0.0742
  509MOL0     O67086  10.768   9.669  10.945  0.6266  1.3576 -0.5148
  509MOL0     C67087  10.739   9.589  11.055 -0.2116 -0.0866 -0.4016
  509MOL0     C67088  10.747   9.648  11.181  0.1145  0.4057 -0.0089
  509MOL0     C67089  10.699   9.589  11.297 -0.2809  0.4682  0.4852
  509MOL0     C67090  10.644   9.461  11.281  0.3307 -0.3776  1.0711
  509MOL0     O67091  10.566   9.425  11.388  0.9282 -0.9026 -0.4601
  509MOL0     C67092  10.427   9.368  11.360  0.9158 -0.7331 -0.1049
  509MOL0     C67093  10.342   9.349  11.482 -0.4169 -0.3949 -0.2294
  509MOL0     C67094  10.340   9.468  11.579 -0.4258 -0.8611  0.6911
  509MOL0     C67095  10.264   9.581  11.517  1.0787 -1.1760  0.7457
  509MOL0     C67096  10.325   9.713  11.583  0.3524 -0.0300  0.4995
  509MOL0     C67097  10.267   9.836  11.518  0.5563  0.7384 -0.4713
  509MOL0     C67098  10.307   9.956  11.612  0.9504 -0.0650  0.2049
  509MOL0     C67099  10.235  10.084  11.563 -0.2269 -0.4957 -0.2936
  509MOL0    Cl67100  10.070  10.073  11.543 -0.0040 -0.0522 -0.3830
  509MOL0     C67101  10.646   9.387  11.162 -0.3836  0.1584  0.0865
  509MOL0     C67102  10.709   9.453  11.046  1.0347  0.4062 -0.7174
  509MOL0     O67103  10.577   9.618  10.827 -0.8134  0.1306  0.2584
  509MOL0     C67104  10.859   9.829  10.720  0.0549  0.0199  0.1483
  509MOL0     C67105  10.910   9.913  10.622 -0.0801 -0.0558  0.9758
  509MOL0     N67106  11.162  10.343  10.442 -0.2234 -0.2452 -0.0704
  509MOL0     N67107  11.275  10.401  10.435 -0.6396 -0.3329 -0.2432
  509MOL0     C67108  11.368  11.068   9.364 -0.1961 -0.9063 -0.5077
  509MOL0     C67109  11.291  11.136   9.267 -0.4356 -0.2579  0.2212
  509MOL0     C67110  11.126  11.237   8.844  0.1249  0.6055 -0.5359
  509MOL0     C67111  10.991  11.254   8.872  0.0542  0.0246  0.3269
  509MOL0     C67112  10.895  11.299   8.782 -0.7473 -0.2401  0.2963
  509MOL0     C67113  10.943  11.363   8.671  0.6539 -0.1326  0.3946
  509MOL0     O67114  10.861  11.417   8.569  0.0736 -0.2747 -0.0252
  509MOL0     C67115  10.743  11.498   8.597 -0.8837  0.2737 -0.3429
  509MOL0     C67116  10.603  11.428   8.585 -0.2729  0.4772  0.1151
  509MOL0     C67117  10.561  11.368   8.454 -0.0832  0.3448 -1.0163
  509MOL0     C67118  10.570  11.468   8.342 -0.5573  0.3424  0.4822
  509MOL0     C67119  10.708  11.503   8.299  0.4305 -0.0104  0.3587
  509MOL0     C67120  10.818  11.539   8.271  0.1431 -0.5227 -0.6963
  509MOL0     C67121  11.085  11.351   8.641 -0.4887  0.1549  0.6207
  509MOL0     C67122  11.171  11.292   8.727 -0.0620  0.7556  0.4398
  509MOL0     H67123  11.271  10.899   9.030 -0.2204 -0.8416 -0.7709
  509MOL0     H67124  11.408  10.774   9.206  2.0149  0.5296  1.7549
  509MOL0     H67125  11.346  10.948   9.600 -0.2456 -2.1533 -0.1689
  509MOL0     H67126  11.515  11.019   9.585 -0.6459  1.6198  2.0942
  509MOL0     H67127  11.597  10.860   9.716 -0.7016  5.0419 -0.9906
  509MOL0     H67128  11.482  10.731   9.662 -1.0273  1.1035 -1.9223
  509MOL0     H67129  11.312  10.845   9.799  1.1439 -1.5699 -1.5378
  509MOL0     H67130  11.446  10.967   9.841  1.1188 -0.2251  2.0930
  509MOL0     H67131  11.432  10.672   9.908  1.6359 -1.2000  1.2142
  509MOL0     H67132  11.573  10.778   9.941 -0.2781  2.5140  5.0132
  509MOL0     H67133  11.283  10.850  10.051 -1.6164 -1.5362  2.2097
  509MOL0     H67134  11.438  10.917  10.088 -0.9605 -0.0340 -2.0382
  509MOL0     H67135  11.505  10.693  10.206  0.1882 -1.1237 -2.3580
  509MOL0     H67136  11.355  10.629  10.137  0.2656 -1.2910  0.8852
  509MOL0     H67137  11.391  10.843  10.340 -0.7989  2.1578 -1.5373
  509MOL0     H67138  11.232  10.800  10.296  1.6559  2.8738  1.0179
  509MOL0     H67139  11.286  10.682  10.496  0.6413 -0.1241 -0.7046
  509MOL0     H67140  11.435  10.618  10.451  1.4060 -0.1736 -0.8858
  509MOL0     H67141  11.096  10.599  10.246  0.7639  1.1287 -0.6804
  509MOL0     H67142  10.885  10.459  10.285 -0.9535 -1.1487 -1.3571
  509MOL0     H67143  10.883  10.325  10.398  0.0632 -2.1969 -2.4918
  509MOL0     H67144  11.002  10.320  10.132  1.1501  0.7916  0.6682
  509MOL0     H67145  10.842  10.258  10.195 -0.3286  1.4435  1.4323
  509MOL0     H67146  11.009  10.076  10.173 -2.2781 -0.6950  0.3165
  509MOL0     H67147  11.128  10.176  10.265 -0.8315  1.0939  1.8960
  509MOL0     H67148  10.999  10.157  10.475  0.9893 -3.2978  2.1305
  509MOL0     H67149  11.083  10.017  10.414  2.1575  1.9670 -1.5129
  509MOL0     H67150  10.648   9.879  10.418 -0.3973 -3.7071  0.1108
  509MOL0     H67151  10.566   9.750  10.614 -0.9572  2.0084  2.7350
  509MOL0     H67152  10.773   9.751  11.205 -1.5514  0.2591  2.8659
  509MOL0     H67153  10.701   9.643  11.390  1.6307 -0.3279  0.9396
  509MOL0     H67154  10.441   9.270  11.314 -0.2628 -2.1178  2.3175
  509MOL0     H67155  10.384   9.429  11.279  0.4254 -1.1721 -0.1818
  509MOL0     H67156  10.355   9.250  11.525 -2.6125 -1.3828 -1.6756
  509MOL0     H67157  10.240   9.337  11.445 -0.3724 -1.5851  0.0136
  509MOL0     H67158  10.448   9.479  11.594 -0.0177 -3.7077  0.4090
  509MOL0     H67159  10.293   9.432  11.671 -0.1020 -1.2814  0.6947
  509MOL0     H67160  10.283   9.584  11.409  1.0504 -0.3076  0.7563
  509MOL0     H67161  10.156   9.574  11.533  0.7101  1.2723 -0.2058
  509MOL0     H67162  10.433   9.699  11.574  0.0719 -3.5276  1.2110
  509MOL0     H67163  10.307   9.712  11.691 -2.7818  1.0953  0.0924
  509MOL0     H67164  10.159   9.829  11.503  0.1849  0.4623  1.8921
  509MOL0     H67165  10.318   9.844  11.422  1.7789 -0.3338  0.0472
  509MOL0     H67166  10.287   9.939  11.718 -0.0558 -0.8704 -0.0949
  509MOL0     H67167  10.416   9.968  11.611  1.0370 -0.2871  2.5489
  509MOL0     H67168  10.271  10.088  11.460  1.5091 -2.4822  0.1444
  509MOL0     H67169  10.261  10.176  11.616 -4.6796  1.8704 -1.6748
  509MOL0     H67170  10.592   9.294  11.146 -0.5438  0.0155  1.3583
  509MOL0     H67171  10.692   9.412  10.946  1.1196  3.9779 -2.3561
  509MOL0     H67172  10.925   9.832  10.806  0.0677  1.5171  0.1189
  509MOL0     H67173  11.010   9.956  10.623 -0.4942  1.2765 -2.0788
  509MOL0     H67174  11.405  11.125   9.448  0.4114  0.7925 -1.8678
  509MOL0     H67175  11.263  11.240   9.283 -2.0854 -0.5141 -0.7851
  509MOL0     H67176  10.957  11.212   8.966 -0.8918 -0.6327 -0.2833
  509MOL0     H67177  10.789  11.287   8.805 -2.2496  1.0777 -4.6324
  509MOL0     H67178  10.745  11.591   8.539 -1.5536 -0.0658 -0.9294
  509MOL0     H67179  10.751  11.520   8.704 -1.0798 -1.0537 -0.0452
  509MOL0     H67180  10.597  11.352   8.663  2.4736  2.4532  2.5235
  509MOL0     H67181  10.521  11.498   8.606 -1.7365 -0.8776 -0.8907
  509MOL0     H67182  10.459  11.333   8.439 -0.3082  0.7199 -0.4255
  509MOL0     H67183  10.636  11.294   8.425  0.8526  0.7124  0.3661
  509MOL0     H67184  10.509  11.418   8.266 -0.7255 -4.0608  3.1378
  509MOL0     H67185  10.527  11.565   8.365 -0.8817  0.4495 -0.5490
  509MOL0     H67186  10.924  11.555   8.270  0.4712 -2.5325 -1.1471
  509MOL0     H67187  11.107  11.377   8.538  0.2234  0.0898  0.7569
  509MOL0     H67188  11.273  11.272   8.695 -0.4840  0.5974 -0.8856
  510MOL0     O67189   2.807   4.898   8.350  0.2566  0.2618 -0.1787
  510MOL0     C67190   2.921   4.880   8.315  0.1910 -0.3702  0.6855
  510MOL0     O67191   2.962   4.930   8.192 -0.6960  0.3378  0.4680
  510MOL0     C67192   2.873   4.974   8.100 -0.2823  0.4402 -0.0999
  510MOL0     C67193   2.882   5.094   8.038 -0.4243 -0.2382  0.2635
  510MOL0     C67194   2.785   5.137   7.944  0.2545 -0.3150  0.3035
  510MOL0     C67195   2.682   5.059   7.899 -0.7526  1.1708  0.1869
  510MOL0     O67196   2.607   5.103   7.795  0.0215  0.1478  0.7531
  510MOL0     C67197   2.580   5.004   7.704 -0.6647  0.5814  1.0808
  510MOL0     C67198   2.571   5.083   7.568  0.1754 -0.3121 -0.3058
  510MOL0     C67199   2.465   5.018   7.477 -0.5479 -0.7542  0.3519
  510MOL0     C67200   2.469   5.108   7.345 -0.2848  1.1655  0.9191
  510MOL0     C67201   2.391   5.033   7.237  0.0844 -0.2442 -0.5711
  510MOL0     C67202   2.372   5.117   7.117  0.1800 -0.1786 -0.3715
  510MOL0     C67203   2.350   5.046   6.980  1.1159 -1.1342  0.0616
  510MOL0     C67204   2.213   4.970   6.976 -0.6442 -0.5041  0.3535
  510MOL0     N67205   2.218   4.834   6.926  0.1049  1.1221  0.1519
  510MOL0     C67206   2.315   4.741   6.960  0.7097  0.3795 -0.4521
  510MOL0     C67207   2.291   4.635   6.878  0.0023 -0.5498  0.3797
  510MOL0     C67208   2.381   4.504   6.872 -0.2737  0.1232 -0.8490
  510MOL0     C67209   2.487   4.503   6.984 -0.3803 -0.6694 -0.0842
  510MOL0     C67210   2.559   4.374   7.004 -0.4564  0.3097  0.8123
  510MOL0     C67211   2.657   4.359   7.118  0.2409 -0.7075 -0.7714
  510MOL0     O67212   2.587   4.396   7.250 -0.2886 -0.1216  0.7903
  510MOL0     C67213   2.612   4.319   7.362 -0.4932 -0.1877 -0.3363
  510MOL0     C67214   2.548   4.332   7.480 -0.3196 -1.2653 -0.5103
  510MOL0     C67215   2.581   4.263   7.596  0.0234 -0.0048 -0.4204
  510MOL0     C67216   2.689   4.178   7.592 -0.7723 -0.4097 -0.6727
  510MOL0     C67217   2.742   4.116   7.720 -0.1363  0.2945  0.1614
  510MOL0     O67218   2.841   4.024   7.708  0.1552  0.3545  0.0821
  510MOL0     C67219   2.904   3.989   7.823 -0.1225 -0.6540 -1.1021
  510MOL0     C67220   3.045   3.995   7.836  0.7200  0.1197 -0.1348
  510MOL0     C67221   3.116   3.941   7.940  0.0704  0.0098  0.2408
  510MOL0     C67222   3.052   3.889   8.054 -0.3676  0.1218  0.2717
  510MOL0     O67223   3.131   3.852   8.165  1.0820  0.3011  0.8736
  510MOL0     C67224   3.080   3.739   8.245 -0.4597 -0.7528  0.1256
  510MOL0     C67225   3.182   3.733   8.354 -0.7370  0.2491 -0.0237
  510MOL0     C67226   3.323   3.688   8.314  0.0847 -0.2618  0.1141
  510MOL0     C67227   3.429   3.676   8.423  0.2658 -0.1157 -0.1259
  510MOL0     C67228   3.400   3.558   8.522 -1.0339  0.3590 -0.2616
  510MOL0     C67229   3.526   3.491   8.593  0.5638 -0.5101  0.2241
  510MOL0     C67230   3.487   3.406   8.706  0.2664  0.7426 -0.0123
  510MOL0     C67231   3.443   3.260   8.657 -0.2441  0.0107  0.4219
  510MOL0    Cl67232   3.394   3.153   8.792 -0.1664  0.2307  0.3453
  510MOL0     C67233   2.915   3.885   8.046  0.3197 -0.6994 -0.4148
  510MOL0     C67234   2.837   3.923   7.931  0.0470  0.7146  0.2218
  510MOL0     O67235   2.709   4.168   7.829 -0.3727 -0.3233  0.2838
  510MOL0     C67236   2.763   4.166   7.476  0.1174  0.0205  0.9591
  510MOL0     C67237   2.724   4.236   7.366  0.8716  0.1461  0.1518
  510MOL0     N67238   2.195   4.676   6.789 -0.3732 -0.3571 -0.5032
  510MOL0     N67239   2.149   4.788   6.824 -0.0403 -0.4663 -0.7505
  510MOL0     C67240   2.670   4.936   7.964 -0.8385 -0.4491  0.0155
  510MOL0     C67241   2.765   4.893   8.058 -0.2830  0.7159  0.2194
  510MOL0     C67242   3.012   4.828   8.417 -0.4670 -0.3850 -0.1952
  510MOL0     C67243   2.974   4.803   8.549  0.1284  0.6062 -0.1043
  510MOL0     C67244   3.069   4.753   8.646 -0.2520 -0.0746  0.9767
  510MOL0     C67245   3.192   4.714   8.608 -0.8368  0.7437  1.2721
  510MOL0     O67246   3.273   4.646   8.699  0.2349  0.5099 -0.0250
  510MOL0     C67247   3.291   4.507   8.665  0.1139  0.0660 -0.8727
  510MOL0     C67248   3.168   4.416   8.664 -1.0131  0.8057  0.4315
  510MOL0     C67249   3.218   4.275   8.694 -0.1850  0.1805  0.8763
  510MOL0     C67250   3.116   4.200   8.783  0.5143  0.5205  0.6693
  510MOL0     C67251   2.988   4.169   8.715  0.6573 -0.2594  0.8876
  510MOL0     C67252   2.884   4.153   8.643 -0.3177 -0.1836 -0.2927
  510MOL0     C67253   3.238   4.739   8.480  0.7409  0.4197  0.6184
  510MOL0     C67254   3.148   4.797   8.388  0.4044 -0.0753 -0.6662
  510MOL0     H67255   2.967   5.161   8.050  0.5583 -0.8175 -2.6667
  510MOL0     H67256   2.785   5.236   7.899 -1.6668  0.2705  1.5051
  510MOL0     H67257   2.478   4.966   7.718 -1.4712  2.8045  1.5656
  510MOL0     H67258   2.647   4.918   7.692 -2.7864 -1.4118  2.4706
  510MOL0     H67259   2.669   5.094   7.520  0.4495  3.5804  0.8293
  510MOL0     H67260   2.540   5.186   7.588 -1.1222 -0.5184 -1.1398
  510MOL0     H67261   2.366   5.025   7.522  0.2487  4.0230  2.0260
  510MOL0     H67262   2.498   4.915   7.460 -0.2229 -0.2949 -2.2103
  510MOL0     H67263   2.428   5.208   7.356 -0.7343  1.1234 -0.2037
  510MOL0     H67264   2.569   5.117   7.302 -1.4050  2.5725 -1.6495
  510MOL0     H67265   2.298   4.993   7.279 -0.8371  2.1468 -0.1793
  510MOL0     H67266   2.446   4.944   7.204  1.1242 -0.4028  1.4328
  510MOL0     H67267   2.457   5.186   7.116  1.3566 -1.2933  3.7978
  510MOL0     H67268   2.282   5.177   7.129 -1.5223 -2.7461  0.6385
  510MOL0     H67269   2.348   5.123   6.901  0.6719 -1.3020 -0.0925
  510MOL0     H67270   2.423   4.974   6.943 -1.1385 -2.6736 -1.7149
  510MOL0     H67271   2.154   5.012   6.893  0.6410 -0.5366 -0.6021
  510MOL0     H67272   2.152   4.981   7.066  0.1027  1.7416  0.6536
  510MOL0     H67273   2.389   4.767   7.035  1.9566  0.7933 -1.7872
  510MOL0     H67274   2.425   4.486   6.773 -0.9694  0.2695 -1.1917
  510MOL0     H67275   2.311   4.420   6.877  0.8126 -0.8149 -1.0565
  510MOL0     H67276   2.436   4.514   7.081  0.9685  0.4240  0.5312
  510MOL0     H67277   2.560   4.584   6.976  0.7240 -1.6127  0.1414
  510MOL0     H67278   2.491   4.295   7.036  0.0282 -1.3851 -1.9395
  510MOL0     H67279   2.604   4.343   6.909  0.6843  0.8037  1.1778
  510MOL0     H67280   2.740   4.430   7.107 -0.2582 -0.0323 -0.3119
  510MOL0     H67281   2.697   4.259   7.101  1.3786 -0.1794 -1.3084
  510MOL0     H67282   2.457   4.392   7.485 -0.0646 -0.8767 -0.4786
  510MOL0     H67283   2.514   4.276   7.680 -0.6280 -6.2142  0.5127
  510MOL0     H67284   3.110   4.041   7.762  0.3989 -0.1138 -0.5674
  510MOL0     H67285   3.224   3.948   7.931  0.1164 -1.0799 -0.1748
  510MOL0     H67286   3.087   3.649   8.183 -4.2344 -0.9971 -0.1804
  510MOL0     H67287   2.977   3.751   8.283 -1.8406 -1.9504 -2.9169
  510MOL0     H67288   3.147   3.656   8.423  0.8740  0.1134  0.6661
  510MOL0     H67289   3.184   3.825   8.414 -5.0393  0.4722  0.1587
  510MOL0     H67290   3.357   3.769   8.248 -2.0359  1.3056  0.8098
  510MOL0     H67291   3.310   3.597   8.255  0.5030  0.6620 -1.4621
  510MOL0     H67292   3.531   3.670   8.384 -0.7421 -1.7333 -2.7570
  510MOL0     H67293   3.425   3.767   8.484 -1.1404  0.7625 -1.4645
  510MOL0     H67294   3.363   3.478   8.458  2.1735  0.1370 -2.0251
  510MOL0     H67295   3.332   3.600   8.597 -0.5103  0.0330  0.4062
  510MOL0     H67296   3.580   3.577   8.635  1.4157  0.8195 -3.2239
  510MOL0     H67297   3.602   3.457   8.522  1.5619  0.5805  0.7378
  510MOL0     H67298   3.581   3.391   8.760  0.5133  2.3458  0.0537
  510MOL0     H67299   3.406   3.445   8.768 -0.1396 -1.6458  1.0614
  510MOL0     H67300   3.517   3.209   8.594 -1.1253 -0.9043  0.1027
  510MOL0     H67301   3.358   3.276   8.589 -0.7981 -1.8484  0.6371
  510MOL0     H67302   2.871   3.844   8.136  2.7422 -2.6623 -0.0016
  510MOL0     H67303   2.730   3.907   7.941  0.2617 -0.4408  0.9471
  510MOL0     H67304   2.851   4.105   7.456 -0.1174  0.5639 -2.3733
  510MOL0     H67305   2.801   4.236   7.290  0.4764 -0.2743 -0.2520
  510MOL0     H67306   2.590   4.866   7.944 -2.8996  2.1671 -1.4674
  510MOL0     H67307   2.735   4.799   8.102  0.9441  0.5078  0.6812
  510MOL0     H67308   2.876   4.820   8.591  1.7619  0.6079  4.1146
  510MOL0     H67309   3.052   4.742   8.752 -0.7104  0.8460  1.0096
  510MOL0     H67310   3.371   4.473   8.731  0.8108  1.5046 -0.9438
  510MOL0     H67311   3.319   4.489   8.561 -3.4270 -1.8814 -1.6744
  510MOL0     H67312   3.100   4.436   8.748  1.0618 -0.0881  2.4282
  510MOL0     H67313   3.130   4.421   8.561  1.1551  1.9857 -0.3543
  510MOL0     H67314   3.312   4.267   8.750 -1.8897 -0.6110  3.8791
  510MOL0     H67315   3.240   4.225   8.600  3.4627  0.1949  1.5812
  510MOL0     H67316   3.165   4.107   8.815 -1.8855 -0.6739  1.1519
  510MOL0     H67317   3.089   4.244   8.880  1.3634 -2.6497  2.4981
  510MOL0     H67318   2.792   4.151   8.590 -3.0763  1.1498  3.9398
  510MOL0     H67319   3.337   4.706   8.452 -0.1025  0.5621 -3.1048
  510MOL0     H67320   3.182   4.806   8.286  1.6110  0.0919 -0.2715
  511MOL0     O67321  11.276   7.265   7.300  0.2247  0.3671  0.0404
  511MOL0     C67322  11.280   7.376   7.364 -0.0168  0.4216 -0.3218
  511MOL0     O67323  11.220   7.401   7.490  0.6199  0.2890 -0.4960
  511MOL0     C67324  11.129   7.298   7.523  0.6200 -0.5351  0.4199
  511MOL0     C67325  11.143   7.246   7.654  0.1542  0.0308 -0.0154
  511MOL0     C67326  11.040   7.168   7.701 -0.4775  0.1604 -0.2091
  511MOL0     C67327  10.927   7.134   7.625 -0.0432 -0.5641 -0.1632
  511MOL0     O67328  10.839   7.038   7.654 -0.1682 -0.9347 -0.0261
  511MOL0     C67329  10.878   6.925   7.733  0.4299  0.2415  0.6631
  511MOL0     C67330  10.853   6.960   7.884 -0.5919 -0.0213  0.0183
  511MOL0     C67331  10.826   6.843   7.984 -0.1453  0.5604 -0.4324
  511MOL0     C67332  10.937   6.729   7.970 -0.2286 -0.1510 -0.1563
  511MOL0     C67333  10.936   6.642   8.096 -0.2488 -0.7173  0.8456
  511MOL0     C67334  11.021   6.536   8.063  0.0922  0.4185 -0.0378
  511MOL0     C67335  11.012   6.442   8.173 -0.5816  0.2347  1.0742
  511MOL0     C67336  11.104   6.316   8.143  0.4613  0.5748 -0.4226
  511MOL0     N67337  11.067   6.241   8.030 -1.4487  0.7718  0.7152
  511MOL0     C67338  11.120   6.285   7.906 -0.6367  0.7515 -0.5628
  511MOL0     C67339  11.037   6.235   7.811  1.1801  0.2475  0.5630
  511MOL0     C67340  11.068   6.275   7.668 -0.8868 -0.4246 -0.3444
  511MOL0     C67341  11.020   6.170   7.574  0.4269  0.1402 -0.5239
  511MOL0     C67342  11.063   6.201   7.429 -0.5184 -1.0590  0.2634
  511MOL0     C67343  11.206   6.171   7.392  1.0608 -0.6591 -1.4421
  511MOL0     O67344  11.229   6.201   7.255 -0.4545 -0.2754 -0.3753
  511MOL0     C67345  11.346   6.152   7.193 -0.4675 -0.1300 -0.8323
  511MOL0     C67346  11.396   6.219   7.087  0.3944 -0.0180  0.5812
  511MOL0     C67347  11.514   6.184   7.026  0.9264 -0.4015  0.0266
  511MOL0     C67348  11.590   6.081   7.077 -0.7161  1.0492  0.0358
  511MOL0     C67349  11.714   6.039   7.014 -0.3703  0.2173 -0.3593
  511MOL0     O67350  11.796   5.956   7.082 -0.1477  0.1232  0.5270
  511MOL0     C67351  11.923   5.949   7.056 -0.4769 -0.3456 -0.3102
  511MOL0     C67352  11.982   5.906   6.931  0.0280 -0.5887  0.2980
  511MOL0     C67353  12.120   5.901   6.915 -0.2721 -0.2840  0.6166
  511MOL0     C67354  12.202   5.896   7.026  1.3348  0.6762 -0.0931
  511MOL0     O67355  12.339   5.846   7.012  0.3045 -0.6822 -0.0368
  511MOL0     C67356  12.402   5.835   6.888  0.1844  0.1469  0.4234
  511MOL0     C67357  12.536   5.779   6.911 -0.5615  0.1352 -0.7411
  511MOL0     C67358  12.644   5.782   6.801 -0.3228  0.2664  0.3385
  511MOL0     C67359  12.666   5.928   6.750  0.0248 -0.5075  0.2005
  511MOL0     C67360  12.787   5.941   6.660  0.0387 -0.0869  0.9149
  511MOL0     C67361  12.775   5.837   6.547 -0.7562 -0.0163  0.1789
  511MOL0     C67362  12.871   5.860   6.428 -0.0172 -0.3610  0.1379
  511MOL0     C67363  12.858   5.757   6.316  0.1147  0.1545 -0.7547
  511MOL0    Cl67364  12.841   5.847   6.175  0.1512  0.2748  0.1523
  511MOL0     C67365  12.147   5.937   7.147 -0.1525  0.4317  0.3116
  511MOL0     C67366  12.009   5.958   7.167  0.6088 -0.0128 -0.4155
  511MOL0     O67367  11.751   6.103   6.920  0.3181 -0.6545 -0.3874
  511MOL0     C67368  11.537   6.001   7.180  0.3702  0.1352 -1.4093
  511MOL0     C67369  11.413   6.039   7.241  0.4999 -0.4641  0.5635
  511MOL0     N67370  10.934   6.166   7.880  0.3363 -0.5529  0.5927
  511MOL0     N67371  10.957   6.181   8.000  0.1858  0.0917  0.2577
  511MOL0     C67372  10.911   7.200   7.507  1.1688  0.5895  0.0906
  511MOL0     C67373  11.011   7.284   7.453  0.4082  0.2029  0.9100
  511MOL0     C67374  11.398   7.471   7.335  0.7299  0.3544 -0.8125
  511MOL0     C67375  11.481   7.426   7.228 -0.2965 -0.0563 -0.2140
  511MOL0     C67376  11.586   7.501   7.189  0.6025 -0.8983  0.1272
  511MOL0     C67377  11.620   7.619   7.249  0.3162 -0.6799 -1.1903
  511MOL0     O67378  11.732   7.695   7.221 -0.0282  0.7226 -0.4007
  511MOL0     C67379  11.846   7.637   7.281  0.4972  0.7122  0.6033
  511MOL0     C67380  11.869   7.685   7.425 -0.2932 -0.1275 -0.1804
  511MOL0     C67381  12.010   7.652   7.469  0.3681  0.5992  0.3123
  511MOL0     C67382  12.061   7.729   7.591  0.6013  0.2123  1.0305
  511MOL0     C67383  12.109   7.859   7.553 -0.6682 -0.1238 -0.1323
  511MOL0     C67384  12.158   7.967   7.531  0.4032 -0.0034  0.3057
  511MOL0     C67385  11.546   7.659   7.373 -1.4836  0.6548 -0.5902
  511MOL0     C67386  11.438   7.579   7.414  0.5997 -0.7045  0.2830
  511MOL0     H67387  11.228   7.269   7.718  1.0501 -3.3282  0.2268
  511MOL0     H67388  11.057   7.114   7.793  2.6917 -4.0886 -2.8987
  511MOL0     H67389  10.977   6.887   7.708  0.1632 -0.4924  0.6849
  511MOL0     H67390  10.805   6.849   7.701  1.9757 -2.7979  3.7560
  511MOL0     H67391  10.768   7.029   7.890  0.0772  0.9191 -1.0592
  511MOL0     H67392  10.948   7.002   7.920  0.3346 -0.6688 -1.5652
  511MOL0     H67393  10.725   6.802   7.982 -1.4364  3.4455  0.4770
  511MOL0     H67394  10.823   6.877   8.088 -0.3635 -1.0898  0.1342
  511MOL0     H67395  10.907   6.670   7.882  0.9467  0.2803 -0.8585
  511MOL0     H67396  11.038   6.767   7.954  0.0958 -1.1066 -0.4686
  511MOL0     H67397  10.834   6.605   8.110 -0.8634  0.5965 -0.0186
  511MOL0     H67398  10.974   6.695   8.184  4.8068 -0.0610 -1.4075
  511MOL0     H67399  11.123   6.573   8.049 -0.0040 -0.0971 -2.6569
  511MOL0     H67400  10.979   6.484   7.976 -2.5808 -0.1620  1.4661
  511MOL0     H67401  11.036   6.492   8.267 -0.7666 -4.0171  3.6640
  511MOL0     H67402  10.915   6.400   8.202 -0.3235 -0.4729  0.9286
  511MOL0     H67403  11.088   6.255   8.232 -2.4822 -0.3777 -1.4891
  511MOL0     H67404  11.208   6.347   8.129  0.0273  1.0278 -3.1378
  511MOL0     H67405  11.212   6.341   7.894  1.4741 -1.3554  3.4087
  511MOL0     H67406  11.176   6.291   7.666 -1.0571  0.8797 -0.2788
  511MOL0     H67407  11.021   6.369   7.637 -2.5719 -0.8154  0.8559
  511MOL0     H67408  10.912   6.150   7.576  0.4891 -0.2344 -0.7230
  511MOL0     H67409  11.048   6.069   7.606  1.7929  2.0677  5.8759
  511MOL0     H67410  11.013   6.129   7.363  0.0382 -2.5103  1.3790
  511MOL0     H67411  11.040   6.304   7.401 -0.2312 -1.3436 -1.1252
  511MOL0     H67412  11.208   6.063   7.410 -0.9142 -0.4025  0.9102
  511MOL0     H67413  11.270   6.228   7.460 -1.1387  3.0273 -2.1487
  511MOL0     H67414  11.335   6.299   7.045 -0.3441  0.0185  1.6944
  511MOL0     H67415  11.546   6.238   6.937  0.5092 -1.0059 -0.5004
  511MOL0     H67416  11.923   5.888   6.841  1.2811  2.1202 -1.1845
  511MOL0     H67417  12.153   5.897   6.812 -0.7514  3.5817  0.1803
  511MOL0     H67418  12.405   5.940   6.856  3.2484 -0.7688 -3.0106
  511MOL0     H67419  12.355   5.764   6.819  3.3999 -0.5079 -1.3167
  511MOL0     H67420  12.514   5.679   6.949 -2.6587  0.1954 -1.6924
  511MOL0     H67421  12.576   5.835   6.997 -1.9250 -0.5312  0.3729
  511MOL0     H67422  12.604   5.710   6.728 -3.4980 -0.8091  2.8937
  511MOL0     H67423  12.730   5.744   6.856  0.2548  1.1994  0.0927
  511MOL0     H67424  12.583   5.971   6.694 -0.3562 -1.5685 -0.0587
  511MOL0     H67425  12.692   5.992   6.835 -2.1811  1.8823 -0.7738
  511MOL0     H67426  12.870   5.907   6.724 -1.1642  1.7979  3.6516
  511MOL0     H67427  12.800   6.045   6.629 -1.2393  0.8092  3.1464
  511MOL0     H67428  12.679   5.834   6.496  0.0376  1.8576 -1.5918
  511MOL0     H67429  12.801   5.737   6.584  2.6978  0.7500  0.2277
  511MOL0     H67430  12.850   5.957   6.383  1.9468 -0.7110 -1.6995
  511MOL0     H67431  12.975   5.848   6.460  0.3706 -3.1363 -1.7477
  511MOL0     H67432  12.769   5.694   6.318 -1.4314  2.2185  2.1186
  511MOL0     H67433  12.948   5.694   6.311 -0.4525 -0.7275 -0.0965
  511MOL0     H67434  12.211   5.955   7.233 -1.8675  1.7012  1.3804
  511MOL0     H67435  11.959   5.984   7.260 -1.2097  0.4453 -1.4822
  511MOL0     H67436  11.595   5.921   7.225 -0.2953 -0.3797 -1.4437
  511MOL0     H67437  11.385   5.982   7.329 -0.3212 -1.5745 -0.3923
  511MOL0     H67438  10.815   7.195   7.456  0.0241 -1.7453  2.3147
  511MOL0     H67439  11.005   7.335   7.357 -1.0277  1.4321  1.6175
  511MOL0     H67440  11.467   7.331   7.178 -1.9881  1.0761 -2.0362
  511MOL0     H67441  11.648   7.466   7.107 -0.1911  0.5202 -1.1294
  511MOL0     H67442  11.929   7.674   7.221  1.2881 -2.6734 -0.5562
  511MOL0     H67443  11.838   7.531   7.257 -1.9380  1.4465 -2.4003
  511MOL0     H67444  11.848   7.792   7.432  2.6047  0.6083 -1.2682
  511MOL0     H67445  11.800   7.620   7.480  1.3354 -2.8081 -1.0951
  511MOL0     H67446  12.085   7.659   7.389  1.4966 -1.5550  1.0898
  511MOL0     H67447  12.008   7.545   7.491 -1.9630  0.2558 -1.2613
  511MOL0     H67448  11.987   7.757   7.666  1.5605  0.3048  1.9565
  511MOL0     H67449  12.143   7.676   7.640  2.1811  1.0406 -0.5786
  511MOL0     H67450  12.203   8.061   7.507 -0.1839 -0.6324 -4.0609
  511MOL0     H67451  11.568   7.748   7.432 -0.8807 -1.2400  2.3025
  511MOL0     H67452  11.374   7.611   7.495 -1.1258  1.5935 -1.8320
  512MOL0     O67453   6.764   1.985  10.032 -0.0693 -0.2143  0.0276
  512MOL0     C67454   6.835   2.053  10.093 -0.0103 -0.5434 -1.6138
  512MOL0     O67455   6.938   2.009  10.173 -0.1812  0.5503 -0.0619
  512MOL0     C67456   6.964   1.875  10.180 -0.3435 -0.4704 -0.5947
  512MOL0     C67457   7.046   1.818  10.083 -0.4220 -0.1733  0.0791
  512MOL0     C67458   7.082   1.681  10.098  0.0521 -0.0313 -0.2645
  512MOL0     C67459   7.044   1.615  10.221  0.1003 -0.0030 -0.0505
  512MOL0     O67460   7.078   1.486  10.254 -0.4929 -0.1874  0.4034
  512MOL0     C67461   7.211   1.451  10.215 -0.2984  0.5808 -0.4676
  512MOL0     C67462   7.268   1.333  10.289  0.6296  0.2570 -0.1955
  512MOL0     C67463   7.187   1.214  10.260  0.9746 -0.0077 -0.5427
  512MOL0     C67464   7.248   1.101  10.348  0.5023 -0.8394  0.1450
  512MOL0     C67465   7.169   0.977  10.386  1.0081 -0.5139 -0.1187
  512MOL0     C67466   7.066   0.932  10.288 -0.2418  0.4340 -0.1097
  512MOL0     C67467   7.127   0.859  10.166  0.6209 -0.0625 -0.8002
  512MOL0     C67468   7.018   0.834  10.063 -0.4575 -0.0296  0.4870
  512MOL0     N67469   7.064   0.747   9.960 -0.5212  0.4928  0.0016
  512MOL0     C67470   7.185   0.761   9.900 -0.6437 -0.1759 -0.0466
  512MOL0     C67471   7.196   0.666   9.807  0.7918  0.6757  0.2478
  512MOL0     C67472   7.314   0.634   9.715 -0.4405  0.1158 -0.8915
  512MOL0     C67473   7.367   0.484   9.713 -0.6923  0.0818 -0.4141
  512MOL0     C67474   7.418   0.458   9.857  0.2861 -0.0313  0.0950
  512MOL0     C67475   7.558   0.414   9.855 -1.4988  0.5535  0.3754
  512MOL0     O67476   7.643   0.496   9.770  0.4714 -0.2439 -0.7052
  512MOL0     C67477   7.726   0.437   9.680  1.2245 -0.1077 -0.0045
  512MOL0     C67478   7.778   0.308   9.688 -0.6359  0.7237 -0.0523
  512MOL0     C67479   7.864   0.268   9.578 -0.0924  0.8010  1.7148
  512MOL0     C67480   7.895   0.352   9.468  0.6878  0.2151 -0.2843
  512MOL0     C67481   7.975   0.309   9.359  0.3914  0.5360 -0.0479
  512MOL0     O67482   8.062   0.204   9.389 -0.5468 -0.4833  0.2965
  512MOL0     C67483   8.123   0.147   9.283 -1.3312 -0.3023  0.2073
  512MOL0     C67484   8.198   0.222   9.185 -0.3884  0.8392  0.6524
  512MOL0     C67485   8.254   0.142   9.081 -0.2203  0.1709 -0.4478
  512MOL0     C67486   8.244  -0.001   9.064 -0.3936  0.3679 -0.2271
  512MOL0     O67487   8.303  -0.062   8.959 -0.0478  0.3507 -0.3781
  512MOL0     C67488   8.242  -0.174   8.907  1.6090 -0.3018  0.1578
  512MOL0     C67489   8.298  -0.204   8.764  0.7831 -0.1700  0.0039
  512MOL0     C67490   8.199  -0.161   8.649  0.0227 -1.1513 -0.0654
  512MOL0     C67491   8.230  -0.240   8.521 -0.1715  0.9146  0.8700
  512MOL0     C67492   8.109  -0.342   8.482 -0.5835  0.5955  0.0116
  512MOL0     C67493   8.151  -0.439   8.380 -0.7815 -0.6827  0.2176
  512MOL0     C67494   8.270  -0.527   8.415 -0.7635 -0.3315  0.7016
  512MOL0     C67495   8.299  -0.647   8.318  0.3760 -0.8575  1.5162
  512MOL0    Cl67496   8.447  -0.614   8.200 -0.5975 -0.1125  0.1933
  512MOL0     C67497   8.175  -0.067   9.169  0.1947  0.1652  1.8862
  512MOL0     C67498   8.113   0.006   9.276  0.3996 -1.2234 -0.1564
  512MOL0     O67499   7.963   0.381   9.260 -0.9607 -0.3389 -0.4003
  512MOL0     C67500   7.848   0.484   9.470 -0.2470  0.7287  0.0961
  512MOL0     C67501   7.758   0.523   9.572 -0.8411  0.1042 -0.5463
  512MOL0     N67502   7.073   0.603   9.806  0.4609 -0.6994 -0.0555
  512MOL0     N67503   6.995   0.646   9.897  0.0534 -0.3276 -1.2338
  512MOL0     C67504   6.969   1.682  10.315  0.4399  0.6275  0.3721
  512MOL0     C67505   6.932   1.814  10.301  0.8229  0.1084 -0.6892
  512MOL0     C67506   6.823   2.204  10.084  0.3528  0.3323  0.7023
  512MOL0     C67507   6.718   2.270  10.003  0.1321 -0.2792 -0.4515
  512MOL0     C67508   6.702   2.403  10.007  0.8895  0.4698 -0.4041
  512MOL0     C67509   6.795   2.487  10.067 -0.7813 -1.0210  1.0626
  512MOL0     O67510   6.770   2.622  10.064 -0.4862  0.0884  0.5880
  512MOL0     C67511   6.784   2.696   9.942 -0.1390  0.4839 -0.5175
  512MOL0     C67512   6.861   2.831   9.940  0.7738  0.3238 -0.3840
  512MOL0     C67513   6.757   2.942   9.966 -0.7250  0.4444 -0.8832
  512MOL0     C67514   6.818   3.074  10.021  0.4356  0.6449  0.3411
  512MOL0     C67515   6.914   3.059  10.125 -0.3828 -0.0728  0.1310
  512MOL0     C67516   6.985   3.037  10.227 -0.7791 -0.6394  0.4928
  512MOL0     C67517   6.893   2.430  10.153 -0.1295 -0.0794 -0.3571
  512MOL0     C67518   6.900   2.286  10.167 -0.1857  0.0712  0.7192
  512MOL0     H67519   7.071   1.885  10.001  0.1256  1.8501  1.8101
  512MOL0     H67520   7.128   1.623  10.019  1.3902 -0.6057  0.9007
  512MOL0     H67521   7.282   1.532  10.237  0.8404 -1.4421  4.9255
  512MOL0     H67522   7.210   1.433  10.107  1.0268 -1.4619 -0.1985
  512MOL0     H67523   7.258   1.368  10.392 -1.7073  0.3809 -0.4297
  512MOL0     H67524   7.375   1.308  10.282  0.4472 -0.1769 -1.8468
  512MOL0     H67525   7.188   1.185  10.155 -0.0212 -0.7752 -0.3525
  512MOL0     H67526   7.085   1.240  10.290  0.3745 -4.9880  3.1260
  512MOL0     H67527   7.341   1.069  10.301  2.6448  2.2162  1.9269
  512MOL0     H67528   7.276   1.134  10.449 -0.5590 -1.4967  0.6730
  512MOL0     H67529   7.119   0.998  10.480 -1.4608 -2.7249 -0.8144
  512MOL0     H67530   7.237   0.891  10.391  0.0364 -1.4945 -2.3969
  512MOL0     H67531   7.014   1.023  10.257  0.6739  1.8291  2.1868
  512MOL0     H67532   7.004   0.855  10.333  0.7931 -0.0398  0.5511
  512MOL0     H67533   7.211   0.920  10.133 -0.7985  2.7608  0.4191
  512MOL0     H67534   7.170   0.766  10.203 -1.5088 -1.0231 -0.5438
  512MOL0     H67535   6.978   0.931  10.033 -1.0595 -0.6708 -0.8367
  512MOL0     H67536   6.938   0.778  10.112 -0.4414  1.4892  2.3879
  512MOL0     H67537   7.265   0.832   9.915 -2.5197  1.9753  0.2113
  512MOL0     H67538   7.392   0.710   9.714  1.0557 -1.2164  2.0818
  512MOL0     H67539   7.272   0.656   9.616 -1.2306 -0.7490 -0.7627
  512MOL0     H67540   7.444   0.469   9.638  0.3628  2.5685  0.0715
  512MOL0     H67541   7.289   0.408   9.700 -0.1334 -0.2240 -2.1528
  512MOL0     H67542   7.412   0.533   9.936  2.1810 -0.1341  0.3754
  512MOL0     H67543   7.357   0.379   9.903  0.6086  0.8059  2.0945
  512MOL0     H67544   7.561   0.311   9.819  0.6257  0.5286  0.5305
  512MOL0     H67545   7.601   0.418   9.955 -3.8374  0.0103  1.4738
  512MOL0     H67546   7.744   0.242   9.766 -1.0382  0.4677 -0.4447
  512MOL0     H67547   7.912   0.171   9.570  1.2496  1.5988 -1.0480
  512MOL0     H67548   8.214   0.330   9.178 -0.9476  0.9023  0.2633
  512MOL0     H67549   8.304   0.186   8.995 -2.4406 -1.3362 -2.6556
  512MOL0     H67550   8.132  -0.171   8.901  1.2677 -0.3553  3.7189
  512MOL0     H67551   8.278  -0.258   8.967  0.6970 -1.5392 -0.9651
  512MOL0     H67552   8.308  -0.313   8.766 -3.0894 -0.7169  3.2858
  512MOL0     H67553   8.399  -0.166   8.751  1.2546 -1.0436  0.9403
  512MOL0     H67554   8.217  -0.054   8.631  0.5226 -1.1316  0.5240
  512MOL0     H67555   8.095  -0.173   8.678 -0.7820  2.0804 -1.1046
  512MOL0     H67556   8.250  -0.182   8.431  1.2867 -1.4336 -0.4304
  512MOL0     H67557   8.324  -0.292   8.543 -0.6998  1.0545  3.9589
  512MOL0     H67558   8.022  -0.285   8.447 -1.5927  0.1723  1.7230
  512MOL0     H67559   8.080  -0.397   8.572 -0.6630  2.6659  1.3034
  512MOL0     H67560   8.164  -0.387   8.285 -1.5843  1.1990  1.0740
  512MOL0     H67561   8.073  -0.512   8.358 -0.6474 -0.2206 -1.9970
  512MOL0     H67562   8.367  -0.478   8.428  0.2978 -2.0300 -0.4290
  512MOL0     H67563   8.236  -0.574   8.508  1.2912 -1.1476  1.0931
  512MOL0     H67564   8.204  -0.661   8.264  0.6455 -0.1684  0.8386
  512MOL0     H67565   8.316  -0.739   8.375 -1.7357 -1.7371  0.8505
  512MOL0     H67566   8.176  -0.175   9.175 -0.6277 -0.1917 -1.8434
  512MOL0     H67567   8.067  -0.050   9.356  0.4925 -2.6520 -1.0766
  512MOL0     H67568   7.854   0.545   9.380 -1.2544 -0.4597 -0.8030
  512MOL0     H67569   7.715   0.622   9.567  1.5285  1.1447 -2.0845
  512MOL0     H67570   6.945   1.622  10.402 -2.8112  2.7002  1.1122
  512MOL0     H67571   6.878   1.871  10.375  2.9344  0.1322  0.9267
  512MOL0     H67572   6.647   2.212   9.944 -0.8727  2.1770 -1.8027
  512MOL0     H67573   6.616   2.436   9.949  0.9796  0.8335 -0.3366
  512MOL0     H67574   6.684   2.716   9.902 -2.1954 -1.6708  2.9352
  512MOL0     H67575   6.838   2.638   9.867 -0.8255 -1.9588  0.7461
  512MOL0     H67576   6.938   2.817  10.016 -1.3819 -2.2323  1.5402
  512MOL0     H67577   6.907   2.851   9.843  0.1932 -1.6279 -1.1059
  512MOL0     H67578   6.676   2.913  10.033  0.9441 -2.7009 -0.0283
  512MOL0     H67579   6.710   2.960   9.869 -0.9749  1.5500 -0.5771
  512MOL0     H67580   6.859   3.119   9.930  1.2383  1.8477  1.2783
  512MOL0     H67581   6.738   3.135  10.063 -0.2174 -1.9376  3.2056
  512MOL0     H67582   7.042   3.017  10.316 -1.7897 -3.6528  0.5465
  512MOL0     H67583   6.959   2.501  10.201 -0.7536  0.5645 -0.4265
  512MOL0     H67584   6.983   2.246  10.224 -0.7097 -0.2192  1.2867
  513MOL0     O67585   2.407  10.088   8.000  0.4911 -0.4040  0.9602
  513MOL0     C67586   2.352  10.147   8.097 -0.1493  0.5383  0.7612
  513MOL0     O67587   2.226  10.113   8.143 -0.5020  0.0916  1.4508
  513MOL0     C67588   2.169  10.014   8.062  0.8144 -0.3820 -0.9014
  513MOL0     C67589   2.068  10.067   7.983 -0.2062 -0.3015  0.2087
  513MOL0     C67590   1.994   9.994   7.896  0.5144  0.4971  0.5668
  513MOL0     C67591   2.004   9.853   7.898 -0.4758  0.1805  0.2568
  513MOL0     O67592   1.924   9.769   7.823  0.1602 -0.4208  0.6650
  513MOL0     C67593   1.876   9.815   7.695 -0.1652  0.3509  0.6460
  513MOL0     C67594   1.986   9.830   7.589 -0.1513  0.9532 -0.3855
  513MOL0     C67595   1.906   9.842   7.450 -0.7326  0.0184  0.7777
  513MOL0     C67596   1.997   9.852   7.326  0.3208  0.0296 -0.0654
  513MOL0     C67597   1.911   9.845   7.202 -0.9346  0.0842  0.1199
  513MOL0     C67598   1.984   9.918   7.086 -0.3167 -1.1272  0.1223
  513MOL0     C67599   2.002  10.070   7.122  0.5358 -0.0496 -0.0228
  513MOL0     C67600   2.048  10.131   6.982 -0.0662 -0.0102 -0.1347
  513MOL0     N67601   2.038  10.276   6.981 -1.2421 -0.3007  0.4700
  513MOL0     C67602   1.940  10.351   6.917  0.2679 -0.0265  0.5349
  513MOL0     C67603   1.972  10.484   6.960 -0.1013  0.1993  0.4664
  513MOL0     C67604   1.902  10.597   6.901 -0.6663  0.2930  0.5811
  513MOL0     C67605   1.985  10.650   6.786  0.4382  0.7174  0.1823
  513MOL0     C67606   1.902  10.754   6.719  0.4998 -0.1780 -0.0214
  513MOL0     C67607   1.853  10.875   6.806 -0.0802  0.0127 -0.3283
  513MOL0     O67608   1.801  10.980   6.716  0.1660 -0.2265  0.0915
  513MOL0     C67609   1.775  11.098   6.785 -0.3586  0.2961  0.3531
  513MOL0     C67610   1.780  11.118   6.919 -0.0436  0.0633 -0.2306
  513MOL0     C67611   1.749  11.248   6.956  0.0526 -1.3725  0.6405
  513MOL0     C67612   1.729  11.353   6.870 -0.3023 -0.2740  0.3396
  513MOL0     C67613   1.696  11.489   6.925 -0.4924  0.7643  0.3634
  513MOL0     O67614   1.750  11.593   6.846 -0.1511  0.3140 -0.1641
  513MOL0     C67615   1.771  11.716   6.895 -0.4614  0.3495 -0.1369
  513MOL0     C67616   1.748  11.817   6.805  0.4687  0.0115 -1.4138
  513MOL0     C67617   1.770  11.943   6.842  0.7260 -0.3238  0.9099
  513MOL0     C67618   1.821  11.981   6.967 -0.6220 -0.5275 -0.7450
  513MOL0     O67619   1.838  12.116   6.986  0.1482  0.3349  0.5456
  513MOL0     C67620   1.873  12.162   7.113  0.3234 -0.5225 -0.1180
  513MOL0     C67621   1.846  12.319   7.110 -0.7126 -0.0048  0.2668
  513MOL0     C67622   1.837  12.396   7.244  1.1081  0.2663  0.1750
  513MOL0     C67623   1.974  12.382   7.316 -0.1594 -0.1542  0.7658
  513MOL0     C67624   1.966  12.451   7.450 -0.1338 -0.0636  0.7505
  513MOL0     C67625   2.067  12.388   7.548  0.3146  0.7247 -0.1630
  513MOL0     C67626   2.211  12.398   7.505  0.9451 -0.0620  0.2481
  513MOL0     C67627   2.303  12.356   7.628  0.0172 -0.1329  0.6012
  513MOL0    Cl67628   2.268  12.198   7.699 -0.1690 -0.2396  0.0295
  513MOL0     C67629   1.843  11.875   7.062 -0.0406 -1.3523 -0.1525
  513MOL0     C67630   1.812  11.743   7.024 -0.8002  0.0075  0.2995
  513MOL0     O67631   1.637  11.494   7.029  0.7415 -0.6637 -0.8377
  513MOL0     C67632   1.735  11.333   6.734  0.2193 -0.5535  0.2959
  513MOL0     C67633   1.757  11.203   6.693  1.0758 -0.4755  0.8389
  513MOL0     N67634   2.073  10.473   7.056 -0.5698 -0.1537 -0.4990
  513MOL0     N67635   2.116  10.354   7.061  1.0314 -0.2458 -0.6401
  513MOL0     C67636   2.097   9.794   7.980  0.1609 -0.4960  0.1752
  513MOL0     C67637   2.180   9.875   8.064 -0.5123 -0.6440  0.4238
  513MOL0     C67638   2.426  10.252   8.166  0.6576 -1.2024 -0.2403
  513MOL0     C67639   2.553  10.297   8.129  0.0745 -0.1333  0.4437
  513MOL0     C67640   2.615  10.402   8.204 -0.7751 -0.3825  0.0575
  513MOL0     C67641   2.539  10.482   8.294 -0.0582 -1.3420 -0.2491
  513MOL0     O67642   2.608  10.595   8.339  1.7092  0.0724 -0.0875
  513MOL0     C67643   2.547  10.709   8.272 -0.2762 -0.3101  0.6901
  513MOL0     C67644   2.595  10.827   8.361  0.4419 -0.6211  0.4629
  513MOL0     C67645   2.616  10.801   8.510  0.6274  0.7085 -0.0457
  513MOL0     C67646   2.609  10.925   8.605  0.4873 -0.3997 -0.3527
  513MOL0     C67647   2.590  10.887   8.747 -0.1842 -0.1565 -0.0509
  513MOL0     C67648   2.594  10.849   8.862 -0.6078  0.6071 -0.0789
  513MOL0     C67649   2.412  10.448   8.323 -0.8338 -0.3004 -0.0365
  513MOL0     C67650   2.360  10.331   8.261 -0.2639 -0.4572  0.5105
  513MOL0     H67651   2.066  10.176   7.985  0.2583 -0.1929 -2.0030
  513MOL0     H67652   1.907  10.031   7.842  0.4310 -0.9007 -0.3092
  513MOL0     H67653   1.813   9.904   7.703  0.7203  1.3386 -1.9902
  513MOL0     H67654   1.814   9.730   7.667  1.5052 -1.9773  3.4765
  513MOL0     H67655   2.040   9.735   7.592 -1.4619  0.1771 -0.1737
  513MOL0     H67656   2.052   9.916   7.605  1.1169  0.0364 -0.5489
  513MOL0     H67657   1.846   9.934   7.452 -2.1729 -0.8551 -0.0377
  513MOL0     H67658   1.840   9.755   7.444 -1.7562  0.7740  0.6520
  513MOL0     H67659   2.052   9.946   7.336  1.4407 -0.3788 -1.8644
  513MOL0     H67660   2.066   9.768   7.315 -1.6354 -2.3204  3.6868
  513MOL0     H67661   1.813   9.888   7.222 -1.4150 -0.5042 -0.8683
  513MOL0     H67662   1.888   9.739   7.186  0.9492 -0.2114 -0.8971
  513MOL0     H67663   1.934   9.915   6.988  2.5463  3.8343 -1.8478
  513MOL0     H67664   2.084   9.875   7.072  1.5073  2.3780  1.2902
  513MOL0     H67665   1.902  10.104   7.154 -0.1467 -1.7277 -0.2637
  513MOL0     H67666   2.074  10.086   7.203 -2.0004  0.4119  2.3458
  513MOL0     H67667   1.977  10.099   6.905 -1.4379 -0.7467  1.3765
  513MOL0     H67668   2.149  10.096   6.958 -0.2079 -1.6985  1.5698
  513MOL0     H67669   1.855  10.325   6.855  1.8510  0.4797 -1.9869
  513MOL0     H67670   1.879  10.670   6.979  1.2597 -1.7157  3.2493
  513MOL0     H67671   1.808  10.564   6.857 -1.0963  0.0240  1.6694
  513MOL0     H67672   2.003  10.571   6.713 -1.1069  3.3008 -3.2872
  513MOL0     H67673   2.078  10.697   6.821  0.2975  1.3415 -0.2650
  513MOL0     H67674   1.959  10.792   6.634  1.2931 -0.4373  0.3866
  513MOL0     H67675   1.809  10.709   6.683  1.3984 -1.7148 -0.5010
  513MOL0     H67676   1.943  10.908   6.859 -0.2242 -0.3262  0.1347
  513MOL0     H67677   1.769  10.839   6.866  0.1426 -2.5643 -1.4138
  513MOL0     H67678   1.786  11.039   6.994 -1.8026 -0.5132 -0.6429
  513MOL0     H67679   1.727  11.282   7.057  1.9061  3.0795 -0.2009
  513MOL0     H67680   1.706  11.793   6.708 -0.4161 -1.6071 -0.6752
  513MOL0     H67681   1.750  12.027   6.776 -2.0900  0.6201  2.7744
  513MOL0     H67682   1.976  12.130   7.131  0.0519 -1.3942 -0.0271
  513MOL0     H67683   1.809  12.126   7.194 -1.3642  1.2999 -0.5472
  513MOL0     H67684   1.746  12.324   7.065  0.2751 -1.1063 -2.2472
  513MOL0     H67685   1.916  12.363   7.039 -0.8479 -1.3451 -0.7224
  513MOL0     H67686   1.747  12.361   7.295 -2.2187  1.3759 -4.2756
  513MOL0     H67687   1.816  12.498   7.212 -0.4052 -0.0577  0.0773
  513MOL0     H67688   2.000  12.276   7.313 -2.5483 -0.7916  0.1463
  513MOL0     H67689   2.046  12.435   7.253 -1.7418  0.8701 -0.2740
  513MOL0     H67690   1.863  12.435   7.486 -0.9002 -0.8693 -1.6538
  513MOL0     H67691   1.984  12.558   7.440 -1.2397  0.0331 -0.4337
  513MOL0     H67692   2.042  12.283   7.566  0.5879  0.8205  0.8220
  513MOL0     H67693   2.058  12.436   7.646  1.6504 -2.4734  1.6811
  513MOL0     H67694   2.217  12.339   7.413 -2.2720  1.8644 -1.4034
  513MOL0     H67695   2.227  12.504   7.482  1.7236 -0.2915 -0.3326
  513MOL0     H67696   2.303  12.437   7.702  3.9448  1.9962 -1.4092
  513MOL0     H67697   2.404  12.347   7.588 -0.4920  0.3291 -0.8665
  513MOL0     H67698   1.862  11.895   7.167  0.9693  4.8946 -1.1406
  513MOL0     H67699   1.832  11.660   7.091 -1.1535 -0.7691 -0.5446
  513MOL0     H67700   1.716  11.414   6.664 -0.3856 -0.9653 -0.0226
  513MOL0     H67701   1.740  11.195   6.586 -2.0042 -0.3403  1.2276
  513MOL0     H67702   2.109   9.686   7.975  0.6690 -0.3888 -2.4589
  513MOL0     H67703   2.255   9.830   8.128 -1.4697 -0.0846  1.9876
  513MOL0     H67704   2.596  10.233   8.052 -1.8669 -1.2810  0.2430
  513MOL0     H67705   2.719  10.427   8.187 -1.4109  1.9468 -0.7970
  513MOL0     H67706   2.438  10.705   8.270 -0.2419 -2.0303  1.0346
  513MOL0     H67707   2.584  10.729   8.171 -0.3497 -0.6803  0.5884
  513MOL0     H67708   2.691  10.863   8.323  0.5835  0.2019  1.5802
  513MOL0     H67709   2.521  10.906   8.349 -0.5897 -1.6403 -0.1845
  513MOL0     H67710   2.714  10.752   8.504 -0.0979 -0.6235 -2.3831
  513MOL0     H67711   2.541  10.731   8.547  0.4598  1.2971  0.7600
  513MOL0     H67712   2.700  10.985   8.596  2.9824 -3.6430  1.2817
  513MOL0     H67713   2.529  10.992   8.571 -1.0393 -2.7642 -1.7254
  513MOL0     H67714   2.607  10.814   8.962 -2.7469  0.3977  0.1719
  513MOL0     H67715   2.358  10.495   8.406  0.6398  0.7895  0.3475
  513MOL0     H67716   2.257  10.300   8.279  0.0153 -2.1968 -0.6602
  514MOL0     O67717   4.135   3.261  10.890  0.3388 -1.0357 -0.2440
  514MOL0     C67718   4.203   3.251  10.992  0.1968  0.5048  0.5303
  514MOL0     O67719   4.208   3.132  11.062  0.1192 -0.0017  0.2489
  514MOL0     C67720   4.091   3.055  11.080 -0.0427 -0.2678  0.0679
  514MOL0     C67721   4.110   2.924  11.082  0.1968  0.1125 -0.6191
  514MOL0     C67722   3.998   2.839  11.108  0.4504  0.0595  0.2392
  514MOL0     C67723   3.868   2.888  11.136  0.7592 -0.0381  0.7215
  514MOL0     O67724   3.771   2.801  11.189  0.2530  0.3379 -0.3786
  514MOL0     C67725   3.735   2.703  11.089 -0.1061  0.1373  0.8106
  514MOL0     C67726   3.672   2.577  11.141  0.5886  0.9117 -0.0839
  514MOL0     C67727   3.753   2.506  11.250 -0.5944 -0.2665  0.4837
  514MOL0     C67728   3.890   2.442  11.203 -0.5669 -0.8348 -0.2016
  514MOL0     C67729   3.868   2.343  11.084  0.4763  0.3468  0.6087
  514MOL0     C67730   3.761   2.242  11.108  0.1249  0.1049 -0.5346
  514MOL0     C67731   3.763   2.140  10.993 -0.2400  0.1431  0.1600
  514MOL0     C67732   3.670   2.013  11.015 -0.5323 -0.2313 -0.2118
  514MOL0     N67733   3.731   1.935  11.123 -0.4185 -0.7834  0.0230
  514MOL0     C67734   3.861   1.887  11.114  0.4755  0.1600 -0.0252
  514MOL0     C67735   3.883   1.840  11.239 -0.1911 -0.0422 -0.1399
  514MOL0     C67736   4.002   1.772  11.272 -0.9574  0.2944 -0.5007
  514MOL0     C67737   4.005   1.631  11.202 -0.1368  1.4078 -0.1262
  514MOL0     C67738   4.148   1.563  11.220  0.8555 -0.1636 -0.1645
  514MOL0     C67739   4.168   1.450  11.113  0.0467  0.4786 -0.3170
  514MOL0     O67740   4.102   1.342  11.165  0.6593  0.3927  0.0653
  514MOL0     C67741   4.090   1.224  11.090 -0.8257  0.2576  0.9469
  514MOL0     C67742   3.977   1.144  11.125 -0.5097  0.8277  0.6615
  514MOL0     C67743   3.963   1.019  11.063  0.0056 -0.4792 -0.7287
  514MOL0     C67744   4.051   0.975  10.958  0.2242 -0.5102  0.2309
  514MOL0     C67745   4.033   0.838  10.906 -0.5080 -0.3466  0.2471
  514MOL0     O67746   3.910   0.785  10.888 -0.1124 -0.1865  0.2251
  514MOL0     C67747   3.901   0.661  10.828 -0.3217 -0.7034 -0.7735
  514MOL0     C67748   3.882   0.647  10.689 -0.5158 -0.4535 -0.5055
  514MOL0     C67749   3.917   0.526  10.631 -0.3599  0.1593  0.4395
  514MOL0     C67750   3.926   0.417  10.713 -0.4477  0.8555  0.2317
  514MOL0     O67751   3.933   0.286  10.647  0.7494 -0.0925 -0.2957
  514MOL0     C67752   3.872   0.285  10.513 -0.4964  1.1171  0.2655
  514MOL0     C67753   3.855   0.155  10.441  0.5718 -0.6046 -0.6385
  514MOL0     C67754   3.899   0.157  10.295  0.0317 -0.3719 -0.0770
  514MOL0     C67755   3.914   0.014  10.238  0.5206 -1.3390 -0.5185
  514MOL0     C67756   3.969   0.018  10.095  0.5030 -0.2460  0.9494
  514MOL0     C67757   3.864   0.063   9.984 -0.5384  1.0369  0.1256
  514MOL0     C67758   3.915   0.071   9.834 -0.1489  0.4968  0.7450
  514MOL0     C67759   4.012   0.178   9.807  0.5465 -0.0750  0.0393
  514MOL0    Cl67760   3.923   0.324   9.770  0.2674 -0.0508 -0.4067
  514MOL0     C67761   3.943   0.424  10.851 -0.5679 -0.3687 -0.1121
  514MOL0     C67762   3.922   0.547  10.907  0.1533 -0.2519  0.1473
  514MOL0     O67763   4.139   0.781  10.885 -0.2810 -0.7475  0.0599
  514MOL0     C67764   4.161   1.054  10.928 -0.2546  0.4762  0.4381
  514MOL0     C67765   4.184   1.178  10.990  0.2431  0.4537 -0.7094
  514MOL0     N67766   3.771   1.843  11.323 -0.5520  0.7064  0.5739
  514MOL0     N67767   3.688   1.921  11.247 -0.1794  0.4080  0.3656
  514MOL0     C67768   3.855   3.026  11.134 -0.8141  0.4446  0.0028
  514MOL0     C67769   3.966   3.103  11.112  0.1832  0.4986 -0.7089
  514MOL0     C67770   4.295   3.362  11.031 -0.1271  0.6637 -0.7069
  514MOL0     C67771   4.317   3.473  10.947 -0.0011  0.5846 -0.2191
  514MOL0     C67772   4.397   3.584  10.988  0.0480 -0.1373  0.2490
  514MOL0     C67773   4.467   3.576  11.105 -0.0862  0.0347 -0.1557
  514MOL0     O67774   4.552   3.681  11.124 -0.7059  0.6561  0.4212
  514MOL0     C67775   4.641   3.683  11.238 -0.6067  1.0190  0.2140
  514MOL0     C67776   4.742   3.811  11.224  0.6819 -0.0668  0.1821
  514MOL0     C67777   4.861   3.806  11.323  0.5612  0.2671 -0.1081
  514MOL0     C67778   4.951   3.924  11.299  0.4246 -0.2305 -0.1912
  514MOL0     C67779   5.054   3.928  11.406 -0.3534  0.4167 -0.0037
  514MOL0     C67780   5.142   3.919  11.498  0.1337 -0.1195  0.2396
  514MOL0     C67781   4.451   3.464  11.189  0.5412  0.8962 -0.2770
  514MOL0     C67782   4.358   3.367  11.158  0.2410  0.4578 -0.3331
  514MOL0     H67783   4.210   2.888  11.064 -1.2855 -4.2470 -1.2187
  514MOL0     H67784   4.010   2.732  11.107 -1.6137 -0.2526 -2.5071
  514MOL0     H67785   3.810   2.679  11.013 -1.1244  0.4574 -0.3398
  514MOL0     H67786   3.654   2.744  11.028 -0.8399 -2.2662  0.0318
  514MOL0     H67787   3.641   2.508  11.062  0.1015 -0.4843  1.2778
  514MOL0     H67788   3.576   2.609  11.182  0.8359  2.2561 -0.5000
  514MOL0     H67789   3.695   2.424  11.292 -1.2764 -0.4544 -0.8011
  514MOL0     H67790   3.769   2.587  11.322  0.2525  0.6448 -0.6835
  514MOL0     H67791   3.961   2.523  11.183 -2.5408  0.4278 -2.6301
  514MOL0     H67792   3.925   2.385  11.290  0.2781 -1.0763 -0.6883
  514MOL0     H67793   3.966   2.311  11.049  0.6742 -1.4713  2.5884
  514MOL0     H67794   3.819   2.401  11.005  0.3382  0.6626  0.9205
  514MOL0     H67795   3.667   2.297  11.104 -0.0184 -0.0773  0.1819
  514MOL0     H67796   3.786   2.194  11.204  2.0150  3.7199  0.9976
  514MOL0     H67797   3.713   2.195  10.913 -0.9939 -0.2584  0.3379
  514MOL0     H67798   3.868   2.113  10.982  0.1714  1.0455  1.6504
  514MOL0     H67799   3.679   1.947  10.928 -1.3533  1.9551 -2.0469
  514MOL0     H67800   3.563   2.033  11.030 -0.5738 -1.3487  1.2240
  514MOL0     H67801   3.923   1.878  11.025  0.3172 -3.7380  0.0823
  514MOL0     H67802   4.024   1.763  11.378  1.1565 -3.1388 -1.0818
  514MOL0     H67803   4.085   1.821  11.219  0.4523 -1.3834  0.0722
  514MOL0     H67804   3.982   1.637  11.096  0.3877  3.5390 -0.1653
  514MOL0     H67805   3.933   1.569  11.256 -1.6023  0.9837 -2.4563
  514MOL0     H67806   4.229   1.636  11.214  0.2966  0.5250  0.4408
  514MOL0     H67807   4.152   1.517  11.319  0.4315  0.1079 -0.0147
  514MOL0     H67808   4.276   1.442  11.105  0.1877  1.4742  0.3842
  514MOL0     H67809   4.138   1.467  11.009  0.5234  3.9379 -0.0189
  514MOL0     H67810   3.909   1.164  11.207  0.7012 -1.5694  2.3690
  514MOL0     H67811   3.881   0.958  11.101 -1.8248  1.9470 -0.5402
  514MOL0     H67812   3.874   0.739  10.634 -0.2943 -1.2643 -1.9410
  514MOL0     H67813   3.920   0.525  10.522 -0.1889 -0.7595  0.4461
  514MOL0     H67814   3.922   0.346  10.437 -1.1031  1.1290 -0.1306
  514MOL0     H67815   3.770   0.322  10.527 -0.5208  1.4303 -0.6269
  514MOL0     H67816   3.751   0.123  10.443  1.5227 -4.0659 -0.8800
  514MOL0     H67817   3.917   0.079  10.489  1.1945 -1.4401 -2.6567
  514MOL0     H67818   3.992   0.213  10.284 -0.1873 -0.0753 -0.4703
  514MOL0     H67819   3.826   0.211  10.234  1.9138 -0.3456 -2.4911
  514MOL0     H67820   3.980  -0.053  10.294 -0.0316 -0.9632  0.6247
  514MOL0     H67821   3.818  -0.039  10.240  0.8789 -2.0537 -1.5171
  514MOL0     H67822   4.003  -0.081  10.064 -0.1755  0.0924 -1.0519
  514MOL0     H67823   4.051   0.090  10.104 -0.1894  0.6636  0.2398
  514MOL0     H67824   3.815   0.160   9.995 -1.0171  1.7264 -5.2813
  514MOL0     H67825   3.777  -0.004   9.985 -0.4967  0.9484 -0.9756
  514MOL0     H67826   3.967  -0.023   9.816 -2.4532 -0.5959 -0.6372
  514MOL0     H67827   3.837   0.057   9.758  0.8669 -2.9841  0.1638
  514MOL0     H67828   4.070   0.152   9.718 -1.5248  0.1377 -1.4638
  514MOL0     H67829   4.074   0.187   9.897 -1.4850 -0.8592  1.5921
  514MOL0     H67830   3.955   0.345  10.925  1.0968  1.9104  2.2182
  514MOL0     H67831   3.920   0.554  11.015 -1.1072  0.2353  0.1105
  514MOL0     H67832   4.220   1.021  10.843 -0.6074  0.1033  0.3338
  514MOL0     H67833   4.254   1.247  10.944 -1.1946  0.4231 -3.1021
  514MOL0     H67834   3.757   3.066  11.155 -0.8890  1.0260 -1.3672
  514MOL0     H67835   3.956   3.211  11.114  3.8664  1.0653 -3.3750
  514MOL0     H67836   4.271   3.489  10.850  1.9425 -0.3375 -1.3430
  514MOL0     H67837   4.394   3.674  10.927 -0.7868 -0.9498 -0.9421
  514MOL0     H67838   4.702   3.594  11.251  3.4831  3.6256  0.6635
  514MOL0     H67839   4.583   3.686  11.330 -3.0889 -1.1652 -1.1210
  514MOL0     H67840   4.767   3.814  11.117  0.2549  0.6443  0.0892
  514MOL0     H67841   4.681   3.897  11.253 -2.0156 -1.1512 -1.8271
  514MOL0     H67842   4.921   3.715  11.310 -0.1627 -0.5268  1.7099
  514MOL0     H67843   4.821   3.815  11.424  1.2400  2.1469  0.0273
  514MOL0     H67844   5.003   3.920  11.202  0.7935  0.2667 -0.0218
  514MOL0     H67845   4.896   4.019  11.301  0.5469 -0.1096 -1.4630
  514MOL0     H67846   5.228   3.930  11.561  2.1605  0.2796 -2.4145
  514MOL0     H67847   4.502   3.455  11.285  0.0534 -1.2266 -0.1666
  514MOL0     H67848   4.351   3.271  11.209 -1.2047 -0.5059 -2.2159
  515MOL0     O67849   9.045   4.574   7.465 -0.1854 -0.1213 -0.3288
  515MOL0     C67850   9.100   4.461   7.484  0.5811  0.1175  0.4923
  515MOL0     O67851   9.158   4.380   7.386  0.4651 -0.0521 -0.0196
  515MOL0     C67852   9.140   4.425   7.256  0.2987  0.1085  0.4808
  515MOL0     C67853   9.032   4.393   7.176  0.8741  0.4008  0.2644
  515MOL0     C67854   9.017   4.439   7.042 -0.3928  1.0216 -0.6144
  515MOL0     C67855   9.110   4.520   6.993  0.2596 -0.5709  0.0483
  515MOL0     O67856   9.092   4.561   6.865  0.3112 -0.4115  0.0284
  515MOL0     C67857   9.192   4.497   6.787  0.6988 -0.1182  0.2027
  515MOL0     C67858   9.129   4.489   6.645 -0.4716 -0.3266  0.4107
  515MOL0     C67859   9.203   4.393   6.550  0.6444 -0.5636 -0.4589
  515MOL0     C67860   9.116   4.366   6.423 -0.0840 -0.1790 -0.9734
  515MOL0     C67861   9.116   4.483   6.321 -0.4586 -0.0907  0.4468
  515MOL0     C67862   9.258   4.494   6.255  0.2873 -1.0107  0.3879
  515MOL0     C67863   9.269   4.632   6.191 -0.0629  0.1256 -0.4625
  515MOL0     C67864   9.333   4.737   6.284  0.6069  0.8448 -0.8046
  515MOL0     N67865   9.365   4.854   6.204 -1.0266  0.2651  0.2264
  515MOL0     C67866   9.272   4.944   6.148 -0.5520 -0.5625 -0.2858
  515MOL0     C67867   9.353   5.037   6.091  0.1257  0.3391 -0.1749
  515MOL0     C67868   9.306   5.166   6.027 -0.9436  0.5382  1.9831
  515MOL0     C67869   9.287   5.154   5.867  0.1703 -0.1862 -0.0739
  515MOL0     C67870   9.238   5.288   5.816 -0.2466  0.3702 -0.1590
  515MOL0     C67871   9.256   5.310   5.664  1.0758  0.5052  0.1277
  515MOL0     O67872   9.206   5.446   5.631  0.0440  0.6161  1.0706
  515MOL0     C67873   9.232   5.491   5.500 -0.7959  0.3120 -0.3648
  515MOL0     C67874   9.218   5.632   5.479  0.3124  0.2013  0.0321
  515MOL0     C67875   9.249   5.673   5.353  1.0020  0.0894  1.0923
  515MOL0     C67876   9.286   5.584   5.241  0.5641  0.0254  0.1513
  515MOL0     C67877   9.297   5.633   5.096 -1.4349 -0.9967 -0.3289
  515MOL0     O67878   9.268   5.766   5.090  0.1521 -0.4864  0.5488
  515MOL0     C67879   9.281   5.818   4.961  0.4199 -0.8786 -0.7413
  515MOL0     C67880   9.350   5.940   4.935 -0.1533 -0.4448  1.1749
  515MOL0     C67881   9.332   6.012   4.812 -0.7750  0.0005  0.6115
  515MOL0     C67882   9.243   5.961   4.713 -0.0494  0.1218  0.3577
  515MOL0     O67883   9.206   6.040   4.605 -1.0779  0.5691  0.6852
  515MOL0     C67884   9.310   6.121   4.546  0.3133 -0.1100 -0.5074
  515MOL0     C67885   9.296   6.137   4.393  0.4188 -0.1882 -0.8445
  515MOL0     C67886   9.340   6.016   4.317 -0.1475  0.7767 -0.6757
  515MOL0     C67887   9.239   5.895   4.323 -0.4468 -0.4382  0.0503
  515MOL0     C67888   9.308   5.768   4.283 -0.3271  0.1450  0.5166
  515MOL0     C67889   9.224   5.652   4.223  0.7089 -0.0914 -0.1400
  515MOL0     C67890   9.306   5.531   4.194 -0.5989 -0.6187  0.6156
  515MOL0     C67891   9.412   5.569   4.086  1.5395  0.7340 -0.5809
  515MOL0    Cl67892   9.483   5.417   4.038  0.2856  0.0854 -0.3197
  515MOL0     C67893   9.169   5.844   4.750  1.1867  0.1068 -0.0013
  515MOL0     C67894   9.193   5.770   4.868  0.1357 -1.5636 -0.6773
  515MOL0     O67895   9.331   5.560   5.003 -0.3461 -0.0523  0.2639
  515MOL0     C67896   9.303   5.452   5.272  0.1978 -0.0606  0.9750
  515MOL0     C67897   9.273   5.408   5.395 -0.4839  0.3502  0.1301
  515MOL0     N67898   9.486   5.013   6.125 -0.7924 -0.1462 -0.5716
  515MOL0     N67899   9.492   4.907   6.206  0.2870 -0.1965 -0.5150
  515MOL0     C67900   9.225   4.554   7.070 -0.0411  0.0459  0.0555
  515MOL0     C67901   9.238   4.510   7.204  0.4443  1.0488 -0.9129
  515MOL0     C67902   9.103   4.413   7.626  0.3293  0.2154  0.0340
  515MOL0     C67903   9.172   4.296   7.667  0.4034 -0.1560  0.4927
  515MOL0     C67904   9.178   4.256   7.804  0.9332  0.3496  0.5340
  515MOL0     C67905   9.107   4.328   7.896  1.1488 -0.9238  0.1143
  515MOL0     O67906   9.125   4.315   8.031  0.5406  0.2313  0.2806
  515MOL0     C67907   9.250   4.327   8.077 -0.4779  0.1347 -0.4256
  515MOL0     C67908   9.252   4.407   8.208  0.0341 -0.7521  0.1797
  515MOL0     C67909   9.166   4.331   8.313  0.2462 -0.1597 -0.3070
  515MOL0     C67910   9.207   4.374   8.458  1.1098 -0.5026 -0.5513
  515MOL0     C67911   9.171   4.274   8.559  0.2262  0.1273 -0.2271
  515MOL0     C67912   9.156   4.183   8.638  0.4032  0.4738 -1.1444
  515MOL0     C67913   9.039   4.448   7.872 -0.2737 -0.1602  0.3086
  515MOL0     C67914   9.034   4.483   7.738 -0.8014  0.2304  1.1414
  515MOL0     H67915   8.953   4.328   7.212  0.3197 -0.0309 -1.6115
  515MOL0     H67916   8.938   4.406   6.975  0.5288  1.9023 -2.2041
  515MOL0     H67917   9.223   4.398   6.823 -0.2504 -0.5930 -0.2441
  515MOL0     H67918   9.279   4.563   6.783 -1.2489  2.7430  1.4241
  515MOL0     H67919   9.152   4.590   6.611 -0.8364  1.0724  3.8996
  515MOL0     H67920   9.023   4.465   6.654 -0.5013  0.2678  1.8565
  515MOL0     H67921   9.199   4.295   6.598 -1.0386  1.3898  3.9013
  515MOL0     H67922   9.306   4.430   6.538 -0.3610  3.4687  1.7344
  515MOL0     H67923   9.154   4.279   6.370 -0.6557  0.8889 -3.2462
  515MOL0     H67924   9.015   4.343   6.459 -0.4859  3.3402  0.5636
  515MOL0     H67925   9.089   4.574   6.375  0.1777  0.4295 -0.0992
  515MOL0     H67926   9.034   4.474   6.248 -0.6909  1.6494  0.4495
  515MOL0     H67927   9.274   4.419   6.177  1.0811 -0.2234 -0.2321
  515MOL0     H67928   9.340   4.472   6.325  1.2390  0.2853 -0.2763
  515MOL0     H67929   9.337   4.630   6.105  2.3101  0.1686  1.2867
  515MOL0     H67930   9.169   4.658   6.156 -1.2090 -1.2167  1.6065
  515MOL0     H67931   9.414   4.684   6.335  0.5418  0.4670 -1.0920
  515MOL0     H67932   9.257   4.767   6.357 -1.5000 -2.6207 -1.3275
  515MOL0     H67933   9.165   4.939   6.135 -0.4279  0.0492 -1.7633
  515MOL0     H67934   9.374   5.249   6.048  1.3808  0.5433 -3.7112
  515MOL0     H67935   9.207   5.194   6.064 -2.6568  1.0336 -2.3594
  515MOL0     H67936   9.216   5.073   5.846 -0.2710  0.6325 -1.8609
  515MOL0     H67937   9.383   5.146   5.816 -0.7529  3.9928 -2.9417
  515MOL0     H67938   9.129   5.285   5.828 -0.6619 -0.6523 -3.2593
  515MOL0     H67939   9.278   5.374   5.870 -0.9833  0.3124  0.4973
  515MOL0     H67940   9.199   5.236   5.607  3.4231 -1.2327 -0.0803
  515MOL0     H67941   9.363   5.298   5.644  1.3506 -3.0639  2.7760
  515MOL0     H67942   9.188   5.697   5.560 -0.8160 -2.2969  1.7756
  515MOL0     H67943   9.243   5.775   5.316  0.1058  0.3922  2.0166
  515MOL0     H67944   9.419   5.985   5.006 -1.3671  1.0515  1.4796
  515MOL0     H67945   9.371   6.113   4.808 -0.4520 -0.0889  1.3202
  515MOL0     H67946   9.411   6.091   4.573  0.1908  2.4124  3.5864
  515MOL0     H67947   9.308   6.222   4.589 -0.7743 -0.3429  0.0382
  515MOL0     H67948   9.354   6.225   4.364  1.0447  0.0511  0.9962
  515MOL0     H67949   9.191   6.160   4.370  0.9886  1.3114 -2.1388
  515MOL0     H67950   9.440   5.983   4.346 -0.1570  2.5927  1.6964
  515MOL0     H67951   9.363   6.040   4.212  4.2927 -0.7876 -0.2865
  515MOL0     H67952   9.194   5.888   4.423 -1.4864  0.1230 -0.3569
  515MOL0     H67953   9.161   5.912   4.248  0.3951  0.2122 -0.7016
  515MOL0     H67954   9.374   5.725   4.359  1.9040 -1.8769 -2.3419
  515MOL0     H67955   9.374   5.798   4.201 -0.3748  1.9407  1.1087
  515MOL0     H67956   9.164   5.685   4.137  3.2755 -0.9334 -2.4265
  515MOL0     H67957   9.156   5.633   4.306  0.3404  1.5926 -0.0143
  515MOL0     H67958   9.350   5.497   4.288  0.3542 -1.1643 -0.0021
  515MOL0     H67959   9.238   5.457   4.149 -0.1553 -0.6897  0.0503
  515MOL0     H67960   9.487   5.640   4.122  1.7059 -0.6067  1.9369
  515MOL0     H67961   9.370   5.614   3.996  1.3307 -1.1148 -1.4469
  515MOL0     H67962   9.100   5.795   4.682 -0.7375 -1.3754  2.8155
  515MOL0     H67963   9.139   5.679   4.894 -0.2346 -1.2797 -0.4380
  515MOL0     H67964   9.316   5.370   5.203 -0.2343 -2.2512  3.3524
  515MOL0     H67965   9.288   5.301   5.401 -0.8683  0.3654  2.3956
  515MOL0     H67966   9.301   4.614   7.021  0.1472  0.7434  1.1582
  515MOL0     H67967   9.325   4.541   7.260  0.8945 -0.8154 -0.5466
  515MOL0     H67968   9.226   4.235   7.595 -0.1316 -1.2568  1.0086
  515MOL0     H67969   9.227   4.164   7.834  0.5855 -0.0305 -0.0578
  515MOL0     H67970   9.330   4.361   8.010  0.3357  0.5159  0.7171
  515MOL0     H67971   9.285   4.225   8.094 -2.1531 -0.4728 -0.3867
  515MOL0     H67972   9.351   4.432   8.247 -0.6713  0.3085  1.3387
  515MOL0     H67973   9.206   4.504   8.187 -0.5166 -1.5301 -2.5956
  515MOL0     H67974   9.192   4.224   8.311  0.8318 -0.0160 -0.3902
  515MOL0     H67975   9.058   4.344   8.297 -0.7460 -1.9183  3.7312
  515MOL0     H67976   9.313   4.395   8.476  0.7318  1.2279 -0.0918
  515MOL0     H67977   9.164   4.472   8.482  4.8226  1.0863  0.2212
  515MOL0     H67978   9.141   4.104   8.709 -6.1488  0.0713 -2.3331
  515MOL0     H67979   8.982   4.509   7.942 -2.5063 -1.7523 -0.0190
  515MOL0     H67980   8.990   4.576   7.702 -4.2159 -0.9522  1.8412
  516MOL0     O67981   8.615  10.288   3.969  0.8903 -0.4128 -0.1020
  516MOL0     C67982   8.559  10.251   4.074 -0.6196  0.4954 -0.2551
  516MOL0     O67983   8.492  10.126   4.099  0.3600 -0.1124 -0.3824
  516MOL0     C67984   8.483  10.026   4.006  0.1272 -0.2418  0.2355
  516MOL0     C67985   8.584   9.930   3.977 -0.2860 -1.4037  0.2480
  516MOL0     C67986   8.567   9.830   3.882 -0.0273  0.0633 -0.1807
  516MOL0     C67987   8.452   9.822   3.803 -0.6613 -0.2561 -1.1717
  516MOL0     O67988   8.433   9.733   3.707 -0.4204  0.3854  0.3488
  516MOL0     C67989   8.511   9.610   3.713  0.4365  0.2288  0.2189
  516MOL0     C67990   8.454   9.505   3.615 -0.3673 -0.1815  1.0642
  516MOL0     C67991   8.566   9.395   3.585  0.1186  0.3670 -0.7134
  516MOL0     C67992   8.527   9.311   3.461 -0.3657 -0.6425  0.3545
  516MOL0     C67993   8.633   9.225   3.399 -0.1099  0.0037  0.1015
  516MOL0     C67994   8.678   9.101   3.474 -0.6027 -0.2378 -0.5465
  516MOL0     C67995   8.772   9.021   3.397 -1.1061  0.1569  0.4053
  516MOL0     C67996   8.829   8.905   3.470 -0.6045 -0.6377  0.0514
  516MOL0     N67997   8.911   8.810   3.391 -0.3492 -0.0369 -0.3030
  516MOL0     C67998   9.033   8.835   3.336  0.7548 -0.6386 -0.0896
  516MOL0     C67999   9.089   8.722   3.318  0.3193 -0.7848  0.3684
  516MOL0     C68000   9.231   8.702   3.265  1.2180 -0.0983 -0.9801
  516MOL0     C68001   9.295   8.567   3.297 -0.5876  0.0069 -0.1088
  516MOL0     C68002   9.269   8.463   3.192  0.1487 -0.2394  0.7392
  516MOL0     C68003   9.258   8.326   3.265 -0.2781 -0.3240  0.2681
  516MOL0     O68004   9.234   8.225   3.159 -0.2394 -0.2774  0.1667
  516MOL0     C68005   9.331   8.137   3.121 -0.5349  1.2200  0.2616
  516MOL0     C68006   9.463   8.164   3.144 -0.0666  0.2419 -0.9020
  516MOL0     C68007   9.558   8.065   3.126 -0.3570  0.3325  0.0032
  516MOL0     C68008   9.526   7.943   3.066 -0.6574 -0.2797 -0.1715
  516MOL0     C68009   9.622   7.839   3.046  0.5278 -0.0037 -0.0199
  516MOL0     O68010   9.752   7.867   3.068  0.1155 -0.0419  0.7303
  516MOL0     C68011   9.849   7.769   3.063 -0.6177  0.8381  0.0665
  516MOL0     C68012   9.969   7.804   3.000  0.8480  0.4707 -0.1885
  516MOL0     C68013  10.087   7.730   3.021  1.4924 -0.4081  0.0768
  516MOL0     C68014  10.079   7.607   3.083 -0.6163  0.4913  0.1391
  516MOL0     O68015  10.198   7.533   3.094  0.6668  0.3083 -0.5006
  516MOL0     C68016  10.187   7.391   3.042  0.2080 -0.6276 -1.0848
  516MOL0     C68017  10.148   7.386   2.897  0.2785  0.2699 -0.7506
  516MOL0     C68018  10.110   7.246   2.864 -0.0603 -0.1482  0.6895
  516MOL0     C68019  10.237   7.162   2.825  0.3433 -0.0173  0.4822
  516MOL0     C68020  10.258   7.142   2.677 -0.0823  0.8167 -0.1871
  516MOL0     C68021  10.299   7.276   2.609 -0.8050  0.7769 -0.6347
  516MOL0     C68022  10.293   7.281   2.460 -0.0478  0.2060 -0.4357
  516MOL0     C68023  10.379   7.170   2.395  0.5564  0.5203 -0.2631
  516MOL0    Cl68024  10.333   7.139   2.210 -0.7510 -0.3765 -0.1165
  516MOL0     C68025   9.957   7.560   3.138 -0.8162 -0.5266 -0.0614
  516MOL0     C68026   9.847   7.646   3.137  0.2717 -0.1521 -0.2063
  516MOL0     O68027   9.583   7.736   2.992  0.2410  0.7656 -0.6867
  516MOL0     C68028   9.392   7.916   3.041  0.4125 -0.0525  1.4284
  516MOL0     C68029   9.296   8.016   3.068  0.0031  0.3358 -0.0913
  516MOL0     N68030   9.005   8.619   3.357 -0.1188  0.2010 -0.9230
  516MOL0     N68031   8.897   8.675   3.396 -0.6504  0.0883  0.2732
  516MOL0     C68032   8.343   9.914   3.836 -0.6243 -0.6570  0.6992
  516MOL0     C68033   8.363  10.007   3.946 -0.5727 -0.0142  0.3322
  516MOL0     C68034   8.561  10.336   4.193  0.2366 -0.5558 -0.5490
  516MOL0     C68035   8.466  10.329   4.302 -0.3819  1.0380 -0.9282
  516MOL0     C68036   8.457  10.429   4.403  0.1882 -0.2142 -0.3031
  516MOL0     C68037   8.548  10.527   4.415 -0.0125 -1.2978  0.1996
  516MOL0     O68038   8.543  10.638   4.501 -0.7409  0.5222  0.1979
  516MOL0     C68039   8.451  10.633   4.610 -0.7671  0.3528 -0.7589
  516MOL0     C68040   8.487  10.522   4.712  0.6416  0.5263 -0.1840
  516MOL0     C68041   8.390  10.520   4.831  0.2891 -0.0479  0.7291
  516MOL0     C68042   8.436  10.409   4.929  0.4357 -1.1928 -0.3874
  516MOL0     C68043   8.338  10.397   5.044  0.5512 -0.2353 -0.3132
  516MOL0     C68044   8.266  10.390   5.150 -0.4207 -0.5805  0.2967
  516MOL0     C68045   8.660  10.524   4.321  1.1942  0.3601 -0.8654
  516MOL0     C68046   8.660  10.436   4.206 -0.0461 -0.0694 -0.4334
  516MOL0     H68047   8.673   9.949   4.035 -2.6419  0.5172  3.5417
  516MOL0     H68048   8.652   9.762   3.886 -1.3090 -1.6409 -0.7667
  516MOL0     H68049   8.517   9.559   3.810 -3.0709  1.1319  1.0492
  516MOL0     H68050   8.615   9.631   3.685  0.2394 -0.3199 -0.9702
  516MOL0     H68051   8.429   9.558   3.523  2.2068  2.2827  1.6577
  516MOL0     H68052   8.370   9.444   3.651 -1.4972 -1.6978 -3.4247
  516MOL0     H68053   8.588   9.336   3.674 -1.6304 -1.5446 -1.4653
  516MOL0     H68054   8.659   9.448   3.559  0.2399  0.6951  0.3445
  516MOL0     H68055   8.438   9.254   3.491  1.1757 -1.9873  2.6327
  516MOL0     H68056   8.504   9.387   3.386  4.9563  2.9111  1.8276
  516MOL0     H68057   8.722   9.276   3.363 -0.3562 -0.4373 -1.1734
  516MOL0     H68058   8.587   9.183   3.309  2.4073 -1.9498 -0.3956
  516MOL0     H68059   8.587   9.042   3.491 -1.6084  1.3248 -0.2461
  516MOL0     H68060   8.734   9.121   3.565  3.6386 -1.1548 -2.6885
  516MOL0     H68061   8.737   8.983   3.300  2.1603 -1.1705 -0.3908
  516MOL0     H68062   8.857   9.086   3.373 -2.1099  2.3653  2.4570
  516MOL0     H68063   8.756   8.840   3.518  0.2231 -0.9190  0.9560
  516MOL0     H68064   8.903   8.939   3.543  0.9739  2.4959 -2.7200
  516MOL0     H68065   9.075   8.933   3.317  0.8824  0.0144  2.9766
  516MOL0     H68066   9.281   8.788   3.312 -0.0625  0.2562 -0.2377
  516MOL0     H68067   9.238   8.720   3.157  2.0239 -0.5558 -1.0138
  516MOL0     H68068   9.251   8.533   3.391 -1.7955  1.1841 -0.2171
  516MOL0     H68069   9.401   8.584   3.315 -0.4843  0.3708 -1.0012
  516MOL0     H68070   9.168   8.474   3.151 -1.1029 -1.3146  3.2987
  516MOL0     H68071   9.350   8.456   3.118 -1.5127  0.5452 -1.2439
  516MOL0     H68072   9.176   8.324   3.337  0.9367  1.5616  1.8202
  516MOL0     H68073   9.347   8.297   3.322  1.1598  2.8249 -0.1403
  516MOL0     H68074   9.507   8.262   3.161  0.0625 -0.1852  1.5778
  516MOL0     H68075   9.661   8.085   3.153 -0.5644 -1.1378  2.1158
  516MOL0     H68076   9.991   7.900   2.954  1.7106  1.1342  1.5283
  516MOL0     H68077  10.182   7.763   2.980  2.1692 -0.6188  1.4295
  516MOL0     H68078  10.118   7.340   3.109 -1.9876  3.8150  0.3761
  516MOL0     H68079  10.280   7.334   3.049 -1.8632 -4.6567 -2.7696
  516MOL0     H68080  10.237   7.417   2.841  0.9672  0.7942  0.5985
  516MOL0     H68081  10.056   7.442   2.877  1.0267  1.4103 -1.0787
  516MOL0     H68082  10.042   7.239   2.779 -0.4015  2.0012  0.7366
  516MOL0     H68083  10.049   7.184   2.932  0.9960 -0.1742  1.6468
  516MOL0     H68084  10.326   7.196   2.879 -0.2491  0.4182  1.1860
  516MOL0     H68085  10.219   7.060   2.862 -0.1381  0.4595  1.5902
  516MOL0     H68086  10.162   7.116   2.631  0.8037 -0.1406 -1.5769
  516MOL0     H68087  10.333   7.065   2.654 -3.4989 -2.0548 -3.0119
  516MOL0     H68088  10.399   7.314   2.633 -0.3092  0.4211 -2.0421
  516MOL0     H68089  10.221   7.338   2.653 -1.8077 -1.6657  1.2986
  516MOL0     H68090  10.189   7.263   2.432  0.0637  1.6947 -1.9510
  516MOL0     H68091  10.328   7.371   2.409 -0.3601 -0.3425 -1.6683
  516MOL0     H68092  10.357   7.079   2.453  0.0428 -0.4537 -1.9061
  516MOL0     H68093  10.486   7.189   2.411  1.3461 -3.9313  1.5043
  516MOL0     H68094   9.961   7.459   3.177 -4.4104 -1.3606 -1.4744
  516MOL0     H68095   9.761   7.610   3.192 -1.5834  2.5248 -1.1533
  516MOL0     H68096   9.356   7.819   3.008  0.1791  0.5136 -0.0600
  516MOL0     H68097   9.191   7.989   3.055  0.1600 -0.7201  0.6822
  516MOL0     H68098   8.251   9.920   3.778  0.2824 -0.8384 -0.8132
  516MOL0     H68099   8.282  10.068   3.985  0.1210  0.8770  0.4087
  516MOL0     H68100   8.399  10.245   4.315  0.2250  0.8753  1.6096
  516MOL0     H68101   8.367  10.419   4.462 -1.6183  1.2468 -2.6372
  516MOL0     H68102   8.353  10.612   4.565 -1.3428 -0.5842  0.8635
  516MOL0     H68103   8.432  10.722   4.670 -0.7749 -1.6823  2.4642
  516MOL0     H68104   8.475  10.425   4.663  1.2133 -1.0113  2.5306
  516MOL0     H68105   8.595  10.532   4.728  0.8250 -1.8407  0.5221
  516MOL0     H68106   8.295  10.500   4.781 -0.5863 -0.1503  2.3403
  516MOL0     H68107   8.393  10.616   4.884  1.8684 -0.5780  1.6806
  516MOL0     H68108   8.449  10.318   4.870 -0.4503 -0.9666 -0.9534
  516MOL0     H68109   8.535  10.437   4.966  0.5143  0.7162 -1.9293
  516MOL0     H68110   8.199  10.389   5.233 -1.4012  2.4849 -0.3266
  516MOL0     H68111   8.740  10.597   4.331 -0.0875  1.5645  1.3451
  516MOL0     H68112   8.745  10.441   4.138 -0.5428 -1.5944 -1.2246
  517MOL0     O68113   7.402   9.245   9.896  0.7165 -0.4175  0.1866
  517MOL0     C68114   7.349   9.137   9.865 -0.6205  0.5234 -0.7493
  517MOL0     O68115   7.422   9.021   9.823 -0.1727 -0.7316 -0.5250
  517MOL0     C68116   7.557   9.004   9.820 -0.1160 -0.8669 -0.3226
  517MOL0     C68117   7.613   8.923   9.720  0.3985  0.3753  0.3061
  517MOL0     C68118   7.749   8.884   9.728 -0.1641  0.2154 -0.4291
  517MOL0     C68119   7.825   8.930   9.840  0.4429  0.0576  0.0885
  517MOL0     O68120   7.959   8.903   9.862  0.3712 -0.0231  0.4898
  517MOL0     C68121   7.991   8.765   9.879 -0.5291  0.4917  0.3964
  517MOL0     C68122   8.117   8.750   9.967 -0.4743  0.4353  0.8345
  517MOL0     C68123   8.231   8.842   9.921  0.1209 -0.3702  1.0114
  517MOL0     C68124   8.273   8.820   9.776  0.4458  0.4383 -0.6352
  517MOL0     C68125   8.423   8.860   9.746  0.1107 -0.0392  0.8969
  517MOL0     C68126   8.457   8.825   9.597  0.3562 -0.7590  0.3108
  517MOL0     C68127   8.586   8.884   9.552 -0.2512 -0.1509  0.4495
  517MOL0     C68128   8.578   9.042   9.560 -0.0920  0.4585  0.1253
  517MOL0     N68129   8.680   9.101   9.471 -0.6019 -0.6092 -0.1121
  517MOL0     C68130   8.812   9.111   9.501 -0.5544  0.4789  0.0687
  517MOL0     C68131   8.850   9.202   9.408  0.1649  0.1859  0.3800
  517MOL0     C68132   8.982   9.281   9.392  0.3367  0.0601 -0.3989
  517MOL0     C68133   9.004   9.316   9.242  0.3643 -0.5683 -0.2472
  517MOL0     C68134   9.027   9.187   9.150 -0.3648  0.0477  0.9270
  517MOL0     C68135   9.124   9.086   9.211 -0.3852  0.2965 -1.0162
  517MOL0     O68136   9.145   8.982   9.113  0.0297 -0.7551 -0.1699
  517MOL0     C68137   9.042   8.895   9.081  0.6416  0.6945 -0.0809
  517MOL0     C68138   9.065   8.810   8.974 -0.0059 -1.5615 -0.2352
  517MOL0     C68139   8.972   8.712   8.940  0.6408 -0.3728 -0.2804
  517MOL0     C68140   8.857   8.692   9.021  0.5765  0.0559  0.6808
  517MOL0     C68141   8.754   8.591   8.981  0.7668 -1.2981 -0.8263
  517MOL0     O68142   8.671   8.552   9.085 -0.3167 -0.5786 -0.0821
  517MOL0     C68143   8.576   8.460   9.055  0.6352 -0.7052  0.2715
  517MOL0     C68144   8.445   8.510   9.033  0.0558 -0.0500 -0.0046
  517MOL0     C68145   8.327   8.428   9.041 -1.0303  0.0630 -0.1938
  517MOL0     C68146   8.349   8.291   9.045  0.1518 -0.4504 -0.0217
  517MOL0     O68147   8.238   8.216   9.074  0.5269 -0.0461  0.1622
  517MOL0     C68148   8.242   8.078   9.105  0.2343 -0.4032 -0.2728
  517MOL0     C68149   8.101   8.012   9.118 -0.6093 -0.5734 -0.0115
  517MOL0     C68150   8.097   7.875   9.201  0.5780 -0.0853 -0.2411
  517MOL0     C68151   7.962   7.808   9.198 -0.2688 -0.5556  0.5217
  517MOL0     C68152   7.964   7.669   9.256 -0.7624  0.3612 -0.0141
  517MOL0     C68153   7.845   7.584   9.216 -0.1616 -0.4936  0.5926
  517MOL0     C68154   7.711   7.594   9.293  0.6370 -1.0047 -1.0952
  517MOL0     C68155   7.610   7.490   9.244  0.8820  0.1454  0.2494
  517MOL0    Cl68156   7.451   7.518   9.304 -0.2112 -0.2994  0.4695
  517MOL0     C68157   8.475   8.235   9.041  0.0081  1.2384 -0.7332
  517MOL0     C68158   8.587   8.313   9.048  0.4481  0.0842 -0.4841
  517MOL0     O68159   8.775   8.534   8.877 -0.1445  0.3094  0.2008
  517MOL0     C68160   8.833   8.779   9.130  0.2943  0.4276 -0.0618
  517MOL0     C68161   8.919   8.883   9.156  0.0715  0.1599 -0.4361
  517MOL0     N68162   8.741   9.233   9.327  0.6687 -0.3701 -0.1756
  517MOL0     N68163   8.643   9.171   9.366 -0.8261 -0.8468 -0.2253
  517MOL0     C68164   7.771   9.017   9.932  0.0212  0.5816 -1.1613
  517MOL0     C68165   7.641   9.061   9.921  0.4827  0.2994 -0.4047
  517MOL0     C68166   7.199   9.121   9.865  1.0604  0.3533 -0.3060
  517MOL0     C68167   7.115   9.202   9.951 -0.1020 -0.3643  0.6213
  517MOL0     C68168   6.980   9.193   9.950  0.4474 -0.4890  0.2842
  517MOL0     C68169   6.921   9.106   9.855  0.2699 -1.0337  0.0296
  517MOL0     O68170   6.796   9.081   9.838  0.5641 -0.0616 -0.0605
  517MOL0     C68171   6.701   9.129   9.940  0.3748  0.3436  0.4569
  517MOL0     C68172   6.702   9.039  10.065  0.0326  0.1044 -0.2134
  517MOL0     C68173   6.647   8.907  10.014 -0.3571  0.7684  0.1582
  517MOL0     C68174   6.625   8.796  10.121 -0.0749 -0.3643  0.3817
  517MOL0     C68175   6.754   8.731  10.161  0.0227 -0.2567  0.0384
  517MOL0     C68176   6.860   8.668  10.175 -0.0533  0.1693  0.5307
  517MOL0     C68177   7.001   9.025   9.770  0.0183 -0.3684 -0.8139
  517MOL0     C68178   7.141   9.022   9.784  0.0246 -0.0222 -0.0366
  517MOL0     H68179   7.554   8.871   9.645  1.6004  1.3713 -1.3998
  517MOL0     H68180   7.785   8.818   9.649 -0.5073 -0.0608 -0.3568
  517MOL0     H68181   7.997   8.716   9.781 -4.4434 -2.1225  1.2602
  517MOL0     H68182   7.904   8.718   9.926 -0.7899 -1.2493 -1.6713
  517MOL0     H68183   8.152   8.648   9.947  2.5832  1.4690  0.4580
  517MOL0     H68184   8.099   8.754  10.075 -0.2286  2.6383  0.8261
  517MOL0     H68185   8.320   8.821   9.981  1.8275  0.6919 -0.9940
  517MOL0     H68186   8.190   8.941   9.942 -2.0580 -1.3820  1.9280
  517MOL0     H68187   8.262   8.712   9.759  1.4888  0.1195  0.5386
  517MOL0     H68188   8.204   8.879   9.715  3.6341  3.4701 -1.6271
  517MOL0     H68189   8.491   8.796   9.803  4.1918  0.0486 -3.3650
  517MOL0     H68190   8.437   8.967   9.760 -1.7042  0.4235 -0.4293
  517MOL0     H68191   8.382   8.854   9.523  0.6983  1.5638  0.7947
  517MOL0     H68192   8.486   8.719   9.593  1.5968 -0.5571  2.4049
  517MOL0     H68193   8.673   8.833   9.594 -1.7454 -0.7500  3.0722
  517MOL0     H68194   8.605   8.856   9.448  0.7324 -1.0071  0.8378
  517MOL0     H68195   8.602   9.088   9.656  2.1340  1.5844 -0.9049
  517MOL0     H68196   8.483   9.064   9.511  1.2342  1.5498 -2.1287
  517MOL0     H68197   8.883   9.050   9.555  0.7536  0.8669 -1.1461
  517MOL0     H68198   9.054   9.213   9.437 -1.9581 -1.0024  1.8971
  517MOL0     H68199   8.969   9.373   9.450  4.5751  0.5590  0.0797
  517MOL0     H68200   9.099   9.370   9.237  1.2346 -2.0569 -0.5102
  517MOL0     H68201   8.931   9.389   9.206  1.9274  1.0235 -0.2848
  517MOL0     H68202   8.931   9.139   9.129  1.1337 -1.9673 -1.9856
  517MOL0     H68203   9.063   9.211   9.050  1.0427  0.4322  1.5016
  517MOL0     H68204   9.074   9.048   9.300 -1.3352  1.4943 -1.0084
  517MOL0     H68205   9.217   9.140   9.229 -0.8040  0.7531 -0.1662
  517MOL0     H68206   9.159   8.815   8.920  1.2876  0.0670  2.0089
  517MOL0     H68207   9.002   8.640   8.865  0.7950 -3.8414  2.8193
  517MOL0     H68208   8.419   8.616   9.037 -0.1573  0.0843 -2.7335
  517MOL0     H68209   8.227   8.465   9.054 -3.0366 -4.2578 -1.3291
  517MOL0     H68210   8.284   8.075   9.206 -0.4490  0.2197  0.0421
  517MOL0     H68211   8.301   8.027   9.029 -0.0223 -0.8702 -0.1627
  517MOL0     H68212   8.075   7.977   9.018  0.6129  0.6246 -0.7834
  517MOL0     H68213   8.024   8.084   9.149 -0.3562  1.0015 -2.7281
  517MOL0     H68214   8.122   7.900   9.304  0.0627 -1.1708  0.1489
  517MOL0     H68215   8.172   7.816   9.147  2.0069  1.1741  0.2712
  517MOL0     H68216   7.898   7.873   9.259 -1.1663  0.2889 -1.2327
  517MOL0     H68217   7.937   7.800   9.092  2.2417  0.4448 -0.2301
  517MOL0     H68218   7.967   7.676   9.365 -0.8446  3.4123 -0.1077
  517MOL0     H68219   8.062   7.630   9.225  0.8337  2.4855  1.9535
  517MOL0     H68220   7.886   7.483   9.225  4.2725  1.1605  1.3935
  517MOL0     H68221   7.833   7.604   9.109  1.1798 -0.0062  0.5158
  517MOL0     H68222   7.725   7.580   9.400  4.7303 -0.8396 -1.4450
  517MOL0     H68223   7.669   7.694   9.278 -2.9286 -2.6823 -3.9729
  517MOL0     H68224   7.650   7.391   9.268  1.1164  0.4101  0.9974
  517MOL0     H68225   7.597   7.489   9.136 -1.6673 -0.6263  0.4985
  517MOL0     H68226   8.505   8.131   9.040  0.7983  1.4213  0.9703
  517MOL0     H68227   8.686   8.271   9.060  1.1133  1.8687  0.7894
  517MOL0     H68228   8.732   8.771   9.171  0.3547  1.7608  0.3910
  517MOL0     H68229   8.891   8.946   9.241  3.2829 -0.1315  0.9911
  517MOL0     H68230   7.831   9.034  10.020 -1.3194 -1.2273  0.1918
  517MOL0     H68231   7.599   9.114  10.007  2.2113  1.7085 -0.3866
  517MOL0     H68232   7.158   9.265  10.028 -0.1557  2.0909 -1.2392
  517MOL0     H68233   6.924   9.264  10.011 -0.1375 -0.0100 -0.7743
  517MOL0     H68234   6.608   9.131   9.882  1.3293 -1.5217 -1.2461
  517MOL0     H68235   6.722   9.232   9.973  1.5904  0.9696 -1.9808
  517MOL0     H68236   6.797   9.004  10.108 -0.8069 -1.5924  0.3314
  517MOL0     H68237   6.645   9.090  10.143  0.9946 -1.0421  1.3007
  517MOL0     H68238   6.708   8.861   9.936 -0.6532 -0.1774  0.4591
  517MOL0     H68239   6.546   8.926   9.979 -2.0359 -1.9802  2.9654
  517MOL0     H68240   6.575   8.850  10.202  2.7403  2.1567  0.5874
  517MOL0     H68241   6.562   8.713  10.087  1.2382 -0.7762 -1.1414
  517MOL0     H68242   6.950   8.616  10.200 -0.6615 -1.4495 -0.4685
  517MOL0     H68243   6.943   8.959   9.707 -0.8623 -1.7725  1.3495
  517MOL0     H68244   7.209   8.954   9.734 -0.0737 -1.5070  1.7505
  518MOL0     O68245  10.351   8.116   9.518  0.5542  0.4308 -0.6181
  518MOL0     C68246  10.320   8.150   9.636  0.0639  0.0671  0.9605
  518MOL0     O68247  10.298   8.285   9.678  0.4475 -0.4386  0.6172
  518MOL0     C68248  10.357   8.388   9.618 -0.0599 -0.2381  0.6676
  518MOL0     C68249  10.470   8.381   9.535 -0.7300 -0.0960 -0.3439
  518MOL0     C68250  10.509   8.493   9.462 -0.7000 -0.3783  0.3791
  518MOL0     C68251  10.469   8.619   9.476 -0.8870  0.6423 -0.3223
  518MOL0     O68252  10.508   8.725   9.392 -0.3255  0.6628 -0.4960
  518MOL0     C68253  10.649   8.768   9.401 -0.1286  0.6401  0.4138
  518MOL0     C68254  10.724   8.722   9.275  1.0338 -0.2145  0.0836
  518MOL0     C68255  10.861   8.652   9.314  0.9247  0.7220  0.5068
  518MOL0     C68256  10.914   8.571   9.199  0.6506  0.4621 -0.5727
  518MOL0     C68257  11.051   8.504   9.231  0.4809 -0.4458  0.0972
  518MOL0     C68258  11.091   8.432   9.110 -0.9014  0.9449  0.7566
  518MOL0     C68259  11.240   8.397   9.115 -0.0198 -0.0173 -0.6883
  518MOL0     C68260  11.290   8.291   9.012  0.1639  0.4657 -1.0011
  518MOL0     N68261  11.425   8.236   9.042 -0.0367  0.6433 -0.0348
  518MOL0     C68262  11.452   8.175   9.158 -0.0158 -0.1777  0.1687
  518MOL0     C68263  11.571   8.122   9.134 -0.4197 -0.2738  0.7360
  518MOL0     C68264  11.638   8.038   9.232 -0.2011  0.4490 -0.0077
  518MOL0     C68265  11.677   7.901   9.180 -0.3924  0.3013 -0.1122
  518MOL0     C68266  11.774   7.823   9.279  0.0437 -0.2601 -0.2394
  518MOL0     C68267  11.833   7.704   9.200  0.9534 -0.5573  0.4337
  518MOL0     O68268  11.810   7.575   9.265 -0.7260  0.0915  0.2428
  518MOL0     C68269  11.725   7.487   9.217 -0.4540 -0.7591  0.0533
  518MOL0     C68270  11.619   7.518   9.143  2.1191 -0.5790 -0.1625
  518MOL0     C68271  11.520   7.426   9.112 -0.0323 -0.2974 -1.8405
  518MOL0     C68272  11.530   7.298   9.152  0.2047 -0.2677  0.3972
  518MOL0     C68273  11.435   7.189   9.131  0.2666  0.5453 -0.4054
  518MOL0     O68274  11.480   7.059   9.164 -0.4178 -0.6579  0.3996
  518MOL0     C68275  11.394   6.965   9.216 -0.0347  0.1044  0.1029
  518MOL0     C68276  11.298   6.991   9.321  0.3310 -1.3725 -0.0680
  518MOL0     C68277  11.221   6.890   9.379 -0.5726  0.2463  0.3688
  518MOL0     C68278  11.244   6.761   9.342  0.0022  0.6681  0.4590
  518MOL0     O68279  11.193   6.643   9.391  0.0772 -0.8376  0.2242
  518MOL0     C68280  11.073   6.672   9.472 -0.6283 -0.2300  0.4263
  518MOL0     C68281  11.004   6.538   9.512  0.0580 -0.2268  0.0118
  518MOL0     C68282  11.091   6.426   9.572 -0.5513  0.2282 -0.8449
  518MOL0     C68283  11.145   6.461   9.715 -1.3363  1.3442  0.5044
  518MOL0     C68284  11.047   6.490   9.824  0.7044  0.0598  0.1066
  518MOL0     C68285  10.925   6.400   9.827  0.1626  0.4464  0.3578
  518MOL0     C68286  10.949   6.251   9.860 -0.9489 -0.4575 -0.5120
  518MOL0     C68287  10.821   6.178   9.879 -0.2717  0.8049  0.8774
  518MOL0    Cl68288  10.852   6.023   9.958 -0.0281 -0.5227  0.3223
  518MOL0     C68289  11.334   6.733   9.241 -0.4965 -0.5599 -0.0777
  518MOL0     C68290  11.418   6.830   9.183  0.1828 -0.1343 -0.2097
  518MOL0     O68291  11.319   7.212   9.102 -0.0997 -1.0877  0.7110
  518MOL0     C68292  11.644   7.264   9.230  0.5927 -0.0340 -0.6770
  518MOL0     C68293  11.740   7.352   9.264 -0.9131  0.3217 -0.9645
  518MOL0     N68294  11.624   8.156   9.014 -0.2440 -0.3679  0.9509
  518MOL0     N68295  11.537   8.241   8.969 -0.5355 -0.1679 -0.2528
  518MOL0     C68296  10.359   8.633   9.562  0.2116  0.7006  0.9264
  518MOL0     C68297  10.299   8.518   9.629 -0.1525 -0.7315 -0.6590
  518MOL0     C68298  10.290   8.049   9.735  0.6533 -0.3154  0.1126
  518MOL0     C68299  10.246   8.086   9.865 -0.2146  0.5270 -0.5215
  518MOL0     C68300  10.208   7.984   9.955  0.2126 -0.0604  0.4397
  518MOL0     C68301  10.203   7.846   9.924 -0.3816 -0.3976 -0.2358
  518MOL0     O68302  10.172   7.749  10.015  0.5602  0.4148 -0.6546
  518MOL0     C68303  10.110   7.634   9.960  0.4452 -0.1648 -0.1334
  518MOL0     C68304  10.050   7.555  10.073 -0.1798 -0.3255  0.3261
  518MOL0     C68305  10.044   7.409  10.046 -0.3088  0.2192 -0.2393
  518MOL0     C68306   9.954   7.337  10.153  1.0600  0.5563  0.7444
  518MOL0     C68307   9.834   7.268  10.107 -0.1514 -0.1367 -0.3591
  518MOL0     C68308   9.749   7.186  10.068  0.7188 -1.1647 -0.3066
  518MOL0     C68309  10.259   7.815   9.796  0.1076  0.1217  0.0017
  518MOL0     C68310  10.310   7.911   9.709 -0.2911 -1.1465 -0.3927
  518MOL0     H68311  10.527   8.291   9.517  2.1423  1.0536  2.1839
  518MOL0     H68312  10.587   8.486   9.386  1.1595  1.1810  2.0255
  518MOL0     H68313  10.697   8.720   9.487 -0.7179 -0.8604 -0.0572
  518MOL0     H68314  10.661   8.875   9.420  1.8213  0.6515 -0.6125
  518MOL0     H68315  10.739   8.805   9.205 -1.3260 -3.1707 -4.3539
  518MOL0     H68316  10.670   8.641   9.226  0.2354  0.2334  0.2016
  518MOL0     H68317  10.854   8.580   9.397  1.1104 -1.8426 -1.5899
  518MOL0     H68318  10.935   8.728   9.342  0.7989  0.5510  1.3535
  518MOL0     H68319  10.836   8.505   9.160  0.2358  0.2147  0.6583
  518MOL0     H68320  10.944   8.636   9.116  0.2497  3.8131  1.7228
  518MOL0     H68321  11.036   8.428   9.308  3.6100  1.3766  2.7669
  518MOL0     H68322  11.127   8.577   9.259 -1.3735  2.0163 -0.9115
  518MOL0     H68323  11.075   8.485   9.017  0.8814 -2.2041 -1.5644
  518MOL0     H68324  11.035   8.339   9.097  1.8095 -0.7076 -0.0656
  518MOL0     H68325  11.286   8.491   9.082 -5.2052  2.2967 -2.5615
  518MOL0     H68326  11.267   8.366   9.216  0.0124  0.7408 -0.4545
  518MOL0     H68327  11.268   8.338   8.916 -5.0965  0.7019  0.0118
  518MOL0     H68328  11.221   8.206   9.015  1.4854 -0.6379 -0.5584
  518MOL0     H68329  11.385   8.154   9.241  0.1014 -0.5035  0.1842
  518MOL0     H68330  11.570   8.021   9.316 -1.6297  1.4316 -0.9243
  518MOL0     H68331  11.729   8.088   9.268 -0.9192 -0.2504  3.0682
  518MOL0     H68332  11.732   7.911   9.086 -0.9717  4.7406 -0.2004
  518MOL0     H68333  11.579   7.853   9.171 -0.8271  1.0376  0.5400
  518MOL0     H68334  11.861   7.883   9.308  2.5345 -3.1974 -1.0397
  518MOL0     H68335  11.720   7.779   9.364  1.7286  2.5457  2.5140
  518MOL0     H68336  11.938   7.732   9.183  0.7196 -0.1628 -0.3739
  518MOL0     H68337  11.796   7.698   9.098 -0.8634  2.7683  0.7743
  518MOL0     H68338  11.600   7.623   9.119 -1.0227 -1.0821 -0.2806
  518MOL0     H68339  11.438   7.455   9.048  0.1079  0.4361 -1.7007
  518MOL0     H68340  11.295   7.088   9.370 -2.0176 -0.8088 -1.1726
  518MOL0     H68341  11.156   6.913   9.463 -4.8280 -2.8234 -1.7175
  518MOL0     H68342  11.004   6.746   9.431 -2.9381 -0.4531  3.5688
  518MOL0     H68343  11.097   6.711   9.571 -0.3616  1.4341 -0.2562
  518MOL0     H68344  10.955   6.491   9.426  0.9792 -3.2585  1.0268
  518MOL0     H68345  10.924   6.562   9.582  2.2879  1.2917  2.2313
  518MOL0     H68346  11.181   6.408   9.512  0.8559 -1.0311  1.4970
  518MOL0     H68347  11.037   6.332   9.585  0.8980 -0.5250  0.0340
  518MOL0     H68348  11.211   6.380   9.750 -1.6429  0.0939 -1.6021
  518MOL0     H68349  11.217   6.542   9.701  0.4376 -0.2374 -0.0600
  518MOL0     H68350  11.008   6.589   9.800  2.3059  0.3588 -1.4477
  518MOL0     H68351  11.104   6.509   9.916 -0.6145  2.6826  0.5003
  518MOL0     H68352  10.879   6.406   9.728  1.0634  2.3307  0.0176
  518MOL0     H68353  10.850   6.430   9.901  0.7063  0.8663  0.7412
  518MOL0     H68354  11.001   6.200   9.778 -2.9524 -1.2534 -1.3659
  518MOL0     H68355  11.008   6.244   9.952 -0.9440 -3.8016 -0.6473
  518MOL0     H68356  10.777   6.165   9.780  1.3939  2.0371 -0.0684
  518MOL0     H68357  10.745   6.240   9.928 -1.0578  1.9005 -1.5495
  518MOL0     H68358  11.355   6.630   9.213  1.7489 -0.0426 -0.5199
  518MOL0     H68359  11.506   6.811   9.123  2.5309  0.4438  2.8226
  518MOL0     H68360  11.654   7.168   9.280  0.4036 -0.1213 -0.8069
  518MOL0     H68361  11.813   7.319   9.337 -1.3201  1.2220 -0.1304
  518MOL0     H68362  10.300   8.724   9.569  1.3629  1.5374  0.1707
  518MOL0     H68363  10.216   8.521   9.699  0.2961 -0.2299 -0.1349
  518MOL0     H68364  10.220   8.188   9.889  2.9999  1.2233  0.4140
  518MOL0     H68365  10.167   8.004  10.054  0.0087  1.4568  0.0831
  518MOL0     H68366  10.190   7.576   9.913  0.8159 -0.5801  0.9753
  518MOL0     H68367  10.043   7.654   9.876 -0.2471  1.3117  0.7223
  518MOL0     H68368  10.107   7.565  10.166 -0.9604 -2.9743  1.1857
  518MOL0     H68369   9.944   7.581  10.077 -1.3117 -4.5030  2.0064
  518MOL0     H68370  10.145   7.367  10.043  0.0345  0.9003 -3.9428
  518MOL0     H68371  10.001   7.403   9.946  1.5842 -2.5375 -1.0130
  518MOL0     H68372  10.011   7.262  10.208  0.0404  1.3396  2.9892
  518MOL0     H68373   9.926   7.419  10.221 -0.2076  1.5634 -0.9149
  518MOL0     H68374   9.662   7.135  10.031 -0.5882 -0.9027  2.1425
  518MOL0     H68375  10.262   7.710   9.768 -0.8172 -0.1647  0.9206
  518MOL0     H68376  10.355   7.885   9.614 -2.7700  0.7537 -2.2029
  519MOL0     O68377   9.226   3.053   7.107  0.2563 -0.0229 -0.3411
  519MOL0     C68378   9.163   3.006   7.203 -0.6587 -0.7147  0.1101
  519MOL0     O68379   9.097   2.884   7.206  0.6615 -0.1720  0.6078
  519MOL0     C68380   9.086   2.811   7.095 -0.1169 -0.0468  0.4302
  519MOL0     C68381   9.125   2.677   7.099 -0.0606 -0.0181 -0.3279
  519MOL0     C68382   9.122   2.603   6.980  0.6392 -0.2768  1.0172
  519MOL0     C68383   9.066   2.654   6.861  0.6480 -0.1508 -0.1499
  519MOL0     O68384   9.035   2.570   6.762  0.4665  0.2799  0.5512
  519MOL0     C68385   9.091   2.601   6.634  0.4164  0.2094 -0.2604
  519MOL0     C68386   9.064   2.475   6.551  0.1022  0.8048  0.3612
  519MOL0     C68387   8.911   2.441   6.528  0.3266  0.0641  0.5056
  519MOL0     C68388   8.830   2.527   6.423  0.2171  0.5828  0.9904
  519MOL0     C68389   8.858   2.475   6.285 -0.7507  0.3164  0.6762
  519MOL0     C68390   9.006   2.468   6.234  0.0880 -0.1583 -0.2718
  519MOL0     C68391   9.004   2.448   6.083 -0.3031 -0.6147  0.3475
  519MOL0     C68392   9.144   2.402   6.046  0.0639 -0.4665  0.1596
  519MOL0     N68393   9.238   2.508   6.030  0.3117 -0.5730 -0.1712
  519MOL0     C68394   9.257   2.586   5.914  0.6902 -0.1493 -0.9255
  519MOL0     C68395   9.374   2.660   5.932  0.7559  0.3649  0.9111
  519MOL0     C68396   9.418   2.780   5.845 -0.2574  0.3680  0.4662
  519MOL0     C68397   9.521   2.731   5.744 -0.3003  1.1800 -0.7384
  519MOL0     C68398   9.507   2.818   5.603  1.1429  0.3825 -0.2213
  519MOL0     C68399   9.499   2.965   5.628  0.4528 -0.3082  0.3593
  519MOL0     O68400   9.629   3.023   5.644  0.1012 -0.3053  0.5460
  519MOL0     C68401   9.724   3.022   5.548  0.1540  0.1865 -0.1713
  519MOL0     C68402   9.856   3.023   5.598  0.0079  0.9756  0.5764
  519MOL0     C68403   9.973   3.024   5.516  0.5085 -0.9558  0.0593
  519MOL0     C68404   9.957   3.022   5.377  0.1708 -0.4003 -0.8840
  519MOL0     C68405  10.077   3.043   5.285 -0.5282  0.8845  0.7283
  519MOL0     O68406  10.046   3.042   5.152 -0.0804  0.2769  0.2347
  519MOL0     C68407  10.155   3.076   5.076  0.0493  0.8653  0.2920
  519MOL0     C68408  10.149   3.189   5.007 -0.3023 -0.5322 -0.0825
  519MOL0     C68409  10.246   3.234   4.925  0.4107  0.6643 -0.3785
  519MOL0     C68410  10.354   3.151   4.908 -0.5377 -1.4796 -0.9103
  519MOL0     O68411  10.447   3.204   4.819  0.9011 -0.1517 -0.7714
  519MOL0     C68412  10.572   3.132   4.808  0.2173  0.7943 -0.3907
  519MOL0     C68413  10.658   3.191   4.695  0.5895 -0.3265  0.4038
  519MOL0     C68414  10.573   3.183   4.559 -0.3776  0.2680  0.7625
  519MOL0     C68415  10.631   3.255   4.435 -0.4576  0.2350 -0.8144
  519MOL0     C68416  10.545   3.233   4.312 -0.6270  0.3676  1.1700
  519MOL0     C68417  10.418   3.318   4.313  1.0226  0.9439  0.8368
  519MOL0     C68418  10.421   3.472   4.337 -0.5436 -0.2543  0.0556
  519MOL0     C68419  10.550   3.535   4.271  1.2920 -0.5392 -0.1971
  519MOL0    Cl68420  10.528   3.722   4.250 -0.0371  0.0753  0.3271
  519MOL0     C68421  10.369   3.027   4.971  0.1851  0.8174 -0.2972
  519MOL0     C68422  10.258   2.985   5.047 -0.1610 -0.1480 -0.1778
  519MOL0     O68423  10.184   3.072   5.335  0.4771  0.4795  0.3618
  519MOL0     C68424   9.826   3.019   5.327  0.0946 -0.7604 -0.3174
  519MOL0     C68425   9.718   3.012   5.408  0.8967 -0.1822 -0.3188
  519MOL0     N68426   9.418   2.619   6.056 -1.3382  0.5963  0.2132
  519MOL0     N68427   9.340   2.528   6.113  0.1879 -0.5330 -0.0722
  519MOL0     C68428   9.014   2.787   6.867 -0.6069  0.7601 -0.2855
  519MOL0     C68429   9.029   2.865   6.983 -0.1850 -0.3028 -0.1703
  519MOL0     C68430   9.145   3.100   7.316 -0.9444 -1.2934 -0.8365
  519MOL0     C68431   9.213   3.220   7.325  1.1050 -0.1352  0.0051
  519MOL0     C68432   9.206   3.301   7.441  0.3277  0.2610  0.6015
  519MOL0     C68433   9.132   3.265   7.553  0.5424 -0.3255  1.2598
  519MOL0     O68434   9.119   3.332   7.665 -0.5479 -0.2827  0.0612
  519MOL0     C68435   9.205   3.444   7.695  0.4980  0.0407  0.3709
  519MOL0     C68436   9.354   3.403   7.714 -0.6041  0.1129 -0.0990
  519MOL0     C68437   9.383   3.251   7.754  0.4760 -0.2657  0.2838
  519MOL0     C68438   9.536   3.246   7.808 -0.1856 -0.0925 -0.2224
  519MOL0     C68439   9.633   3.314   7.719  0.4732  0.5883  0.5842
  519MOL0     C68440   9.703   3.378   7.647  0.1529 -0.8586  1.2429
  519MOL0     C68441   9.064   3.142   7.546 -0.1461  0.4563  0.1784
  519MOL0     C68442   9.080   3.055   7.433 -0.4301  0.1807 -0.3072
  519MOL0     H68443   9.168   2.627   7.185 -0.5808 -0.5351 -0.3623
  519MOL0     H68444   9.160   2.502   6.974  0.2322 -0.4129 -5.3686
  519MOL0     H68445   9.195   2.626   6.653  1.0463  1.7160 -4.5573
  519MOL0     H68446   9.060   2.693   6.583  2.9779  0.8601 -0.7856
  519MOL0     H68447   9.104   2.389   6.605 -2.9625 -0.5711  0.6048
  519MOL0     H68448   9.127   2.482   6.462  0.1975 -2.8665 -0.0141
  519MOL0     H68449   8.861   2.453   6.624 -0.8607  0.3565 -0.1336
  519MOL0     H68450   8.907   2.333   6.508  1.3776 -0.3406  2.2262
  519MOL0     H68451   8.724   2.504   6.437 -0.1248 -0.1068 -2.0313
  519MOL0     H68452   8.864   2.631   6.423  0.5138  0.4973  0.2431
  519MOL0     H68453   8.806   2.546   6.220  1.2578 -1.1292 -2.7392
  519MOL0     H68454   8.805   2.386   6.251 -0.0743  0.1947 -0.0719
  519MOL0     H68455   9.059   2.382   6.276  0.3928  0.4476  0.6058
  519MOL0     H68456   9.057   2.558   6.268 -0.1174 -0.1916  0.1235
  519MOL0     H68457   8.937   2.367   6.051  1.9759 -3.2193  1.7364
  519MOL0     H68458   8.977   2.542   6.033  0.8506  0.2608  1.3251
  519MOL0     H68459   9.135   2.368   5.942 -2.0579 -0.3725  0.2695
  519MOL0     H68460   9.175   2.317   6.107 -0.3883 -0.0885  0.9212
  519MOL0     H68461   9.189   2.582   5.829 -2.1891  1.2045  1.1362
  519MOL0     H68462   9.455   2.859   5.911 -2.2806 -0.8308  3.1791
  519MOL0     H68463   9.327   2.815   5.796 -0.6041 -2.1029 -0.8579
  519MOL0     H68464   9.498   2.628   5.717  0.7224  1.6147 -3.6607
  519MOL0     H68465   9.616   2.735   5.798 -1.8979  1.3469  2.2846
  519MOL0     H68466   9.591   2.787   5.541  0.7306 -1.8944  0.2620
  519MOL0     H68467   9.416   2.786   5.552  1.5687  0.1626 -0.8520
  519MOL0     H68468   9.423   3.005   5.696  0.9535 -0.4356  0.9992
  519MOL0     H68469   9.459   3.001   5.532 -0.5994 -2.0722  0.0795
  519MOL0     H68470   9.877   3.022   5.705  0.1166  0.5155  0.5500
  519MOL0     H68471  10.074   3.021   5.557  0.5915  0.3194 -0.0062
  519MOL0     H68472  10.062   3.252   5.026  1.4028  1.5349  1.3713
  519MOL0     H68473  10.249   3.324   4.864 -0.5223 -0.9915 -3.0652
  519MOL0     H68474  10.547   3.028   4.788 -1.3536  1.3524 -1.5903
  519MOL0     H68475  10.632   3.133   4.899  0.9945  0.8266 -0.8953
  519MOL0     H68476  10.758   3.153   4.672  0.2063  0.0765 -2.1997
  519MOL0     H68477  10.666   3.295   4.727 -3.0670  0.3519 -0.4703
  519MOL0     H68478  10.471   3.223   4.569 -0.7522 -0.4560  0.0147
  519MOL0     H68479  10.561   3.077   4.536 -1.6647  0.4678  0.4104
  519MOL0     H68480  10.643   3.361   4.459 -2.7335  0.5834 -0.9563
  519MOL0     H68481  10.735   3.223   4.423  0.4326  0.9530  3.3207
  519MOL0     H68482  10.529   3.125   4.300  0.9363 -0.2247  3.7179
  519MOL0     H68483  10.596   3.270   4.222 -0.2455  1.4044  1.8018
  519MOL0     H68484  10.346   3.291   4.390 -2.2077  0.8526 -1.9930
  519MOL0     H68485  10.366   3.308   4.217 -1.0010 -0.0508  1.9719
  519MOL0     H68486  10.321   3.503   4.307 -1.8072 -1.9362  2.2664
  519MOL0     H68487  10.432   3.493   4.444  1.6388 -3.2183  0.5546
  519MOL0     H68488  10.560   3.496   4.170  0.3770  1.7945 -1.2608
  519MOL0     H68489  10.639   3.515   4.333  3.3639 -0.2205 -2.8967
  519MOL0     H68490  10.442   2.949   4.948  1.6300  1.7480  0.9315
  519MOL0     H68491  10.245   2.882   5.077  1.3150 -1.2232 -2.8922
  519MOL0     H68492   9.813   3.017   5.219  4.8373 -2.0711 -1.1007
  519MOL0     H68493   9.623   2.974   5.373  0.5996 -2.6774  2.7701
  519MOL0     H68494   8.971   2.837   6.780 -0.8537  1.4510  0.2251
  519MOL0     H68495   9.003   2.970   6.990 -1.8783 -0.7243  0.2216
  519MOL0     H68496   9.285   3.253   7.251  1.5340  0.4551  0.6695
  519MOL0     H68497   9.271   3.387   7.431 -0.0508  0.3910 -0.8853
  519MOL0     H68498   9.167   3.487   7.788 -1.0634  1.3694 -0.8227
  519MOL0     H68499   9.211   3.527   7.625 -0.3335 -0.1342  0.0737
  519MOL0     H68500   9.407   3.421   7.620  1.4687  0.0457  0.9867
  519MOL0     H68501   9.399   3.467   7.790 -1.6547  0.6807  0.0588
  519MOL0     H68502   9.356   3.187   7.670  1.6147  0.3641 -0.5909
  519MOL0     H68503   9.316   3.223   7.836 -0.6294 -2.9142 -1.3956
  519MOL0     H68504   9.551   3.299   7.902 -1.2014  0.2058 -0.2200
  519MOL0     H68505   9.557   3.140   7.824 -0.0904  0.0088  0.3659
  519MOL0     H68506   9.773   3.431   7.585  0.7732 -2.1618  0.7959
  519MOL0     H68507   8.985   3.114   7.615 -0.0317 -0.1412  0.0653
  519MOL0     H68508   9.036   2.959   7.408  0.1244 -0.2081  0.2097
  520MOL0     O68509   4.700   3.220   7.297 -0.2245  0.3717 -0.1563
  520MOL0     C68510   4.599   3.265   7.342  0.7048 -0.2614 -0.3948
  520MOL0     O68511   4.471   3.216   7.318 -0.5088  0.2165 -0.3618
  520MOL0     C68512   4.457   3.111   7.233  0.2504  0.0375  0.0073
  520MOL0     C68513   4.449   2.979   7.292 -0.8202  0.8122 -0.2870
  520MOL0     C68514   4.466   2.869   7.199 -0.8940 -0.4704 -0.0046
  520MOL0     C68515   4.467   2.885   7.062  0.5252 -0.2421 -0.3068
  520MOL0     O68516   4.482   2.786   6.970  0.4528 -0.2800  0.5152
  520MOL0     C68517   4.387   2.677   6.978  0.6429 -1.0125  0.3299
  520MOL0     C68518   4.253   2.693   6.897  0.4115 -0.1728  1.1499
  520MOL0     C68519   4.250   2.729   6.743  0.8572  0.0516 -0.5429
  520MOL0     C68520   4.118   2.707   6.688 -0.2038 -0.7463  0.1343
  520MOL0     C68521   4.092   2.750   6.546  0.8395 -0.2734  0.5507
  520MOL0     C68522   4.179   2.669   6.452  1.0161  0.1780  0.1002
  520MOL0     C68523   4.134   2.619   6.307 -0.1961 -0.4305 -0.8549
  520MOL0     C68524   4.050   2.726   6.244  0.0499  0.3855 -0.2283
  520MOL0     N68525   4.136   2.837   6.203  1.2901 -0.1829 -0.0159
  520MOL0     C68526   4.173   2.952   6.276  0.1022 -0.0736  0.0059
  520MOL0     C68527   4.282   3.000   6.206 -0.4582 -0.1915  0.7747
  520MOL0     C68528   4.384   3.111   6.244 -1.4737  0.0399 -0.7746
  520MOL0     C68529   4.470   3.068   6.362  0.8837 -0.4887  0.1692
  520MOL0     C68530   4.423   3.092   6.501 -1.1130 -0.0273 -0.9859
  520MOL0     C68531   4.525   3.070   6.606  0.3462 -0.2673 -0.0694
  520MOL0     O68532   4.551   2.928   6.607 -0.0792  0.1044  0.2223
  520MOL0     C68533   4.681   2.885   6.591  0.2697  0.6098 -0.5486
  520MOL0     C68534   4.793   2.971   6.605  0.2058 -0.0574 -1.2627
  520MOL0     C68535   4.924   2.921   6.591  0.0021  0.3739 -0.2282
  520MOL0     C68536   4.947   2.790   6.540 -0.4943  0.2503 -0.6156
  520MOL0     C68537   5.076   2.717   6.518  0.0401 -0.0931  0.5278
  520MOL0     O68538   5.088   2.638   6.400 -0.0751  0.8307  0.6257
  520MOL0     C68539   5.187   2.545   6.388  0.0012 -0.1082 -0.3957
  520MOL0     C68540   5.295   2.517   6.479  0.3831  0.3657  0.6784
  520MOL0     C68541   5.406   2.432   6.438  0.0406 -0.0122 -0.3160
  520MOL0     C68542   5.402   2.355   6.327  0.0956  0.8562 -1.1490
  520MOL0     O68543   5.515   2.282   6.311 -0.6944 -0.3630  0.0711
  520MOL0     C68544   5.532   2.234   6.178  0.7462 -1.3350  0.2511
  520MOL0     C68545   5.662   2.171   6.169 -1.4130  0.2626 -0.1156
  520MOL0     C68546   5.667   2.032   6.229 -0.1125  0.0491  0.3610
  520MOL0     C68547   5.807   1.978   6.257 -1.1912 -0.4243  0.3115
  520MOL0     C68548   5.809   1.851   6.339 -0.1850  0.0218  0.6401
  520MOL0     C68549   5.943   1.822   6.409 -0.6794 -0.3754 -0.4062
  520MOL0     C68550   5.941   1.681   6.484 -0.1413 -0.3882 -0.1392
  520MOL0     C68551   6.048   1.673   6.596  1.1249  0.4151  0.8069
  520MOL0    Cl68552   6.086   1.505   6.661 -0.1563  0.0180 -0.0045
  520MOL0     C68553   5.287   2.366   6.243 -1.1553  0.5884  0.5411
  520MOL0     C68554   5.197   2.472   6.266  0.0055 -0.2414 -0.7912
  520MOL0     O68555   5.159   2.743   6.609  0.1339  0.6474  0.2740
  520MOL0     C68556   4.830   2.710   6.534  0.4335  0.7432 -1.1862
  520MOL0     C68557   4.699   2.761   6.551  0.3751  0.0881  0.1385
  520MOL0     N68558   4.286   2.932   6.078 -0.4198  0.5392  0.8477
  520MOL0     N68559   4.207   2.836   6.089 -0.0933  0.8448 -0.0726
  520MOL0     C68560   4.443   3.015   7.012 -0.5205 -0.0367 -0.0928
  520MOL0     C68561   4.443   3.131   7.089 -0.5446  0.3479 -0.9165
  520MOL0     C68562   4.610   3.386   7.428  0.0908 -0.1489  0.3765
  520MOL0     C68563   4.495   3.452   7.488 -0.3722  0.2418 -0.2106
  520MOL0     C68564   4.508   3.559   7.586  0.4036  0.2357  0.6501
  520MOL0     C68565   4.636   3.604   7.618  0.3956 -0.4134 -0.6290
  520MOL0     O68566   4.656   3.711   7.705 -0.4240  0.4099  0.5000
  520MOL0     C68567   4.564   3.740   7.807  1.0548  0.1440 -0.0314
  520MOL0     C68568   4.627   3.808   7.921  0.9353  0.7019 -0.1642
  520MOL0     C68569   4.537   3.799   8.040 -0.4163  0.0350 -0.7461
  520MOL0     C68570   4.559   3.922   8.134 -0.6483 -0.0766  0.1930
  520MOL0     C68571   4.686   3.933   8.203 -1.0524  0.5472  0.4894
  520MOL0     C68572   4.807   3.944   8.252 -0.0970  0.0131  0.8301
  520MOL0     C68573   4.747   3.545   7.559  1.0497  0.4830 -1.1917
  520MOL0     C68574   4.739   3.441   7.464 -0.4582 -0.5695 -0.5265
  520MOL0     H68575   4.450   2.967   7.400 -1.9026  0.8106 -0.2654
  520MOL0     H68576   4.482   2.771   7.243  4.5685  0.9381  1.9823
  520MOL0     H68577   4.370   2.653   7.083  0.7816 -5.6191 -0.4891
  520MOL0     H68578   4.452   2.598   6.940  1.7299 -1.1477  2.3386
  520MOL0     H68579   4.181   2.761   6.943 -0.9386 -2.1534  2.1231
  520MOL0     H68580   4.201   2.598   6.916  3.3246 -2.2793 -0.5750
  520MOL0     H68581   4.338   2.680   6.701  0.5518 -1.2633  0.2918
  520MOL0     H68582   4.272   2.836   6.734  2.6646 -0.2412 -0.0660
  520MOL0     H68583   4.096   2.600   6.685  0.2532 -0.8370 -0.1894
  520MOL0     H68584   4.044   2.751   6.755 -2.4173 -1.4450 -1.7495
  520MOL0     H68585   4.114   2.857   6.537  0.7363 -0.0490  2.5231
  520MOL0     H68586   3.987   2.726   6.529  1.3328 -1.2086 -1.4640
  520MOL0     H68587   4.213   2.575   6.497  1.8375 -0.8923 -2.5623
  520MOL0     H68588   4.267   2.730   6.427  0.4076  0.3219 -1.8003
  520MOL0     H68589   4.215   2.593   6.238 -1.0823  3.6254 -3.7979
  520MOL0     H68590   4.060   2.539   6.319 -3.0868  1.9559 -1.4712
  520MOL0     H68591   3.972   2.767   6.309  1.5509  2.2360  0.4789
  520MOL0     H68592   4.002   2.688   6.153  1.2441 -1.2033 -0.2325
  520MOL0     H68593   4.137   2.995   6.368 -1.9732 -2.0797  0.2177
  520MOL0     H68594   4.337   3.206   6.270 -1.1576  0.4893 -1.7937
  520MOL0     H68595   4.441   3.127   6.152 -0.0663 -0.2872  0.0159
  520MOL0     H68596   4.561   3.122   6.336 -1.7691  3.6039 -1.6841
  520MOL0     H68597   4.490   2.961   6.348  1.1277 -0.3590 -0.4963
  520MOL0     H68598   4.376   3.189   6.519 -3.6824 -1.4373  0.5142
  520MOL0     H68599   4.348   3.017   6.529  0.4508 -0.9462  1.0362
  520MOL0     H68600   4.489   3.104   6.704  0.6869 -1.0984  0.3524
  520MOL0     H68601   4.602   3.147   6.589 -0.8189  1.8434  3.2435
  520MOL0     H68602   4.783   3.077   6.627 -0.3080  0.2422 -2.8335
  520MOL0     H68603   5.005   2.991   6.611  1.1165  0.3928 -4.0086
  520MOL0     H68604   5.312   2.586   6.562 -0.6225  0.2886  0.9516
  520MOL0     H68605   5.497   2.423   6.496  1.2570  1.5551 -1.8696
  520MOL0     H68606   5.510   2.311   6.104 -2.6635 -2.3993 -0.0171
  520MOL0     H68607   5.450   2.163   6.160 -0.4054  0.3499 -1.5832
  520MOL0     H68608   5.735   2.236   6.219 -1.3594 -1.7774  2.6831
  520MOL0     H68609   5.695   2.162   6.065  0.1572  0.5987  0.3310
  520MOL0     H68610   5.625   1.952   6.168  0.2911 -0.2944  0.5254
  520MOL0     H68611   5.600   2.038   6.316 -3.0446 -0.0889 -1.7329
  520MOL0     H68612   5.866   1.977   6.165  1.6258 -2.0468  1.9823
  520MOL0     H68613   5.862   2.049   6.320 -2.4441  0.6413  0.2335
  520MOL0     H68614   5.789   1.765   6.274  1.3448 -0.1577  0.3483
  520MOL0     H68615   5.722   1.850   6.404 -0.1613 -0.0263  0.6713
  520MOL0     H68616   5.961   1.902   6.482 -0.2635  0.0071 -0.9181
  520MOL0     H68617   6.013   1.822   6.325 -0.8123  0.6009 -0.5350
  520MOL0     H68618   5.837   1.663   6.515 -0.7322 -0.8830 -2.2032
  520MOL0     H68619   5.959   1.595   6.419 -5.3598 -2.0085  0.1043
  520MOL0     H68620   6.008   1.733   6.678  0.8551  0.3040  0.7564
  520MOL0     H68621   6.144   1.720   6.570 -0.2223  3.3976  0.8903
  520MOL0     H68622   5.273   2.307   6.153  0.3861 -1.2126  1.4089
  520MOL0     H68623   5.112   2.490   6.201 -0.5665  0.8819  0.2376
  520MOL0     H68624   4.839   2.603   6.518 -0.7892  0.4905 -0.3390
  520MOL0     H68625   4.606   2.704   6.543  0.8100 -0.6437  0.1804
  520MOL0     H68626   4.445   3.021   6.904 -0.3764 -0.8215 -0.1391
  520MOL0     H68627   4.443   3.227   7.039 -0.7938  0.8090 -0.0437
  520MOL0     H68628   4.395   3.416   7.468 -0.9287  0.3741  2.1119
  520MOL0     H68629   4.430   3.623   7.627  0.9856  0.9782  0.6173
  520MOL0     H68630   4.527   3.645   7.847 -1.1832  1.4259  1.1190
  520MOL0     H68631   4.485   3.808   7.773  0.2933 -0.5835  0.2371
  520MOL0     H68632   4.719   3.756   7.949  2.0428  1.2729 -2.4918
  520MOL0     H68633   4.652   3.913   7.903  1.8255  0.3162 -1.3043
  520MOL0     H68634   4.550   3.704   8.093 -0.3938  1.5721  2.1884
  520MOL0     H68635   4.431   3.791   8.015 -1.0212  3.7399  0.1414
  520MOL0     H68636   4.542   4.021   8.089 -1.0310  0.3891  1.3146
  520MOL0     H68637   4.485   3.925   8.214 -0.5632 -0.0767  0.2726
  520MOL0     H68638   4.906   3.942   8.292 -0.3935  0.1760  1.5872
  520MOL0     H68639   4.843   3.594   7.573  2.1184 -1.5732 -0.8924
  520MOL0     H68640   4.838   3.417   7.428 -0.5494 -0.2826 -0.9764
  521MOL0     O68641   9.922   9.037   6.628  0.2125 -0.2593 -0.5990
  521MOL0     C68642   9.955   9.131   6.567  0.3288 -0.4536  0.8406
  521MOL0     O68643   9.946   9.267   6.618  0.3660  0.5260 -0.0997
  521MOL0     C68644   9.905   9.273   6.747 -0.2830  0.3653 -0.0615
  521MOL0     C68645   9.963   9.364   6.832  0.0226  0.3615 -0.4529
  521MOL0     C68646   9.925   9.377   6.970 -0.2704  0.5840  0.0344
  521MOL0     C68647   9.818   9.306   7.022  0.0362 -0.2850  0.4084
  521MOL0     O68648   9.763   9.308   7.151  0.3393 -0.4235  0.0033
  521MOL0     C68649   9.843   9.382   7.239  0.4068  0.2048  0.3564
  521MOL0     C68650   9.807   9.370   7.377 -0.6584  0.1149  0.2505
  521MOL0     C68651   9.834   9.232   7.438 -0.2110  0.0314 -0.0317
  521MOL0     C68652   9.797   9.244   7.589 -0.6801  0.4400  0.0313
  521MOL0     C68653   9.650   9.234   7.639  0.0073  0.5719  0.6130
  521MOL0     C68654   9.664   9.230   7.796 -0.2480  0.9063  1.0688
  521MOL0     C68655   9.527   9.248   7.860  0.0855  0.4802 -0.1408
  521MOL0     C68656   9.507   9.390   7.914  0.4567 -0.1195  0.1682
  521MOL0     N68657   9.505   9.494   7.807  0.1887  0.1716 -0.2454
  521MOL0     C68658   9.608   9.554   7.743 -0.3005 -0.2821  0.2075
  521MOL0     C68659   9.553   9.661   7.682  1.2783 -1.0352 -0.9497
  521MOL0     C68660   9.617   9.756   7.591 -0.8304 -0.0424 -0.0806
  521MOL0     C68661   9.510   9.781   7.475 -0.5036  0.4378  0.0239
  521MOL0     C68662   9.551   9.887   7.374 -0.6272  0.3204 -0.6312
  521MOL0     C68663   9.681   9.846   7.297  0.1971 -0.4053  0.8760
  521MOL0     O68664   9.667   9.747   7.181  0.5767  0.5523 -0.4169
  521MOL0     C68665   9.764   9.737   7.078 -0.1725 -0.4737  0.4593
  521MOL0     C68666   9.898   9.783   7.098  0.2695  1.3589  0.0324
  521MOL0     C68667   9.991   9.772   6.997 -0.0364  0.9101  0.9174
  521MOL0     C68668   9.952   9.721   6.872 -0.3638  1.6990  0.8552
  521MOL0     C68669  10.053   9.728   6.759  0.1606 -0.7185  0.0725
  521MOL0     O68670  10.008   9.675   6.635 -0.7937  0.4562 -0.5149
  521MOL0     C68671  10.108   9.667   6.536 -0.0720  0.4234 -0.1804
  521MOL0     C68672  10.134   9.782   6.464  0.2791 -1.0103  0.5356
  521MOL0     C68673  10.238   9.782   6.360  1.2181 -0.9751  0.2696
  521MOL0     C68674  10.304   9.661   6.329 -0.1448 -0.3399  0.8772
  521MOL0     O68675  10.393   9.649   6.223  0.2961 -1.0668  0.2973
  521MOL0     C68676  10.530   9.638   6.267  0.5728 -0.3751  0.2131
  521MOL0     C68677  10.602   9.759   6.332 -0.1643 -0.1562 -0.8582
  521MOL0     C68678  10.622   9.865   6.216 -0.1867 -0.0966 -0.4521
  521MOL0     C68679  10.658   9.998   6.280  0.1011 -0.0018 -0.4977
  521MOL0     C68680  10.617  10.124   6.197  0.0296  0.9861  0.1085
  521MOL0     C68681  10.687  10.112   6.061 -0.0645  0.7773 -0.5726
  521MOL0     C68682  10.629  10.216   5.967 -0.1163 -0.0228  0.2006
  521MOL0     C68683  10.711  10.354   5.964  0.3067  0.0073 -0.0275
  521MOL0    Cl68684  10.851  10.349   5.859 -0.1698 -0.3437  0.4258
  521MOL0     C68685  10.277   9.549   6.402 -0.2375  0.2722  0.1025
  521MOL0     C68686  10.186   9.549   6.508  0.1317  0.7402 -0.6136
  521MOL0     O68687  10.164   9.771   6.790 -0.5599 -0.3251 -0.0557
  521MOL0     C68688   9.825   9.671   6.847 -0.3340 -0.1609  0.8924
  521MOL0     C68689   9.740   9.673   6.954  0.0342 -0.0990 -0.3216
  521MOL0     N68690   9.427   9.663   7.709 -0.3544 -0.0997  0.2768
  521MOL0     N68691   9.395   9.575   7.792  0.2600 -0.3856  0.7431
  521MOL0     C68692   9.759   9.210   6.934 -0.2578  0.1767 -0.2722
  521MOL0     C68693   9.794   9.204   6.805  0.1607 -0.6667  0.9631
  521MOL0     C68694  10.006   9.127   6.425 -0.1890  0.1200  0.6906
  521MOL0     C68695  10.070   9.237   6.368 -0.5230 -1.1449  0.1964
  521MOL0     C68696  10.101   9.237   6.232 -0.0354  0.2792  0.1942
  521MOL0     C68697  10.073   9.123   6.151  0.5271  0.3835  0.7432
  521MOL0     O68698  10.101   9.103   6.021 -0.3311 -0.3799  0.1261
  521MOL0     C68699  10.222   9.170   5.968  0.1597  0.6586  0.0421
  521MOL0     C68700  10.262   9.120   5.835  0.0619 -0.6681  0.8307
  521MOL0     C68701  10.170   9.078   5.725  0.4188  0.7645  0.2691
  521MOL0     C68702  10.246   8.993   5.613  0.0977 -0.8666 -1.2844
  521MOL0     C68703  10.199   9.018   5.476  0.6785 -0.8296  0.6964
  521MOL0     C68704  10.151   9.052   5.368 -0.5725  0.1207 -0.2468
  521MOL0     C68705  10.019   9.011   6.215 -0.5598  0.3087 -0.0544
  521MOL0     C68706   9.995   9.010   6.349 -0.1721 -0.4141 -0.3117
  521MOL0     H68707  10.031   9.440   6.796 -0.1594  0.5011 -0.5023
  521MOL0     H68708   9.984   9.442   7.035 -1.4296 -0.0848  1.8327
  521MOL0     H68709   9.826   9.487   7.212 -0.6709 -0.5953 -2.4602
  521MOL0     H68710   9.951   9.363   7.230  0.3774  0.8547 -2.0961
  521MOL0     H68711   9.707   9.409   7.397  0.5324  2.7936  1.5875
  521MOL0     H68712   9.870   9.439   7.434 -0.3228 -0.4992  0.6447
  521MOL0     H68713   9.935   9.190   7.443 -2.2278 -6.5158 -2.5659
  521MOL0     H68714   9.764   9.168   7.384 -0.8167 -0.4710  1.3089
  521MOL0     H68715   9.848   9.156   7.630  1.0694  2.2906  2.0926
  521MOL0     H68716   9.849   9.330   7.631  2.0017 -0.4433 -1.2142
  521MOL0     H68717   9.596   9.155   7.587  2.6621 -0.4106 -0.8468
  521MOL0     H68718   9.587   9.320   7.613 -1.2685 -0.0558  1.5497
  521MOL0     H68719   9.725   9.316   7.823 -0.7279  2.0274 -1.2129
  521MOL0     H68720   9.712   9.135   7.821 -1.3364 -0.1389 -0.5853
  521MOL0     H68721   9.449   9.217   7.789  0.5686 -0.6461 -0.2017
  521MOL0     H68722   9.517   9.183   7.948  2.0904  0.3164  0.0000
  521MOL0     H68723   9.579   9.417   7.991 -1.1061  0.7748  1.3729
  521MOL0     H68724   9.412   9.386   7.967 -0.1559  1.3120 -0.7663
  521MOL0     H68725   9.714   9.531   7.738  0.1704  1.8280 -0.3594
  521MOL0     H68726   9.707   9.717   7.542 -1.4533  2.2428 -3.4079
  521MOL0     H68727   9.665   9.846   7.627  2.8069 -2.2037  0.9530
  521MOL0     H68728   9.414   9.820   7.511  0.1708  2.7371 -0.4898
  521MOL0     H68729   9.500   9.695   7.408 -1.8803 -0.5879  1.4550
  521MOL0     H68730   9.467   9.905   7.307  1.0063  1.5524 -2.4693
  521MOL0     H68731   9.580   9.980   7.424  3.1277 -0.8579 -0.2554
  521MOL0     H68732   9.759   9.805   7.361  0.0554 -0.9780  0.6846
  521MOL0     H68733   9.700   9.947   7.258 -2.7280  1.0034  2.7258
  521MOL0     H68734   9.931   9.833   7.189 -2.8705  1.0262  1.4836
  521MOL0     H68735  10.086   9.825   6.996  1.5861 -1.2869 -4.7939
  521MOL0     H68736  10.086   9.876   6.489  2.1909 -0.3503  1.9045
  521MOL0     H68737  10.256   9.871   6.301  0.4572 -2.4804 -2.4220
  521MOL0     H68738  10.577   9.611   6.172 -2.4029 -1.0457 -1.1879
  521MOL0     H68739  10.534   9.545   6.325  0.7132  1.0236  2.5803
  521MOL0     H68740  10.694   9.740   6.389  1.1331  1.9283 -2.1030
  521MOL0     H68741  10.533   9.795   6.408  0.9401 -0.4601  0.3106
  521MOL0     H68742  10.527   9.866   6.163 -0.9431  0.4907  0.8771
  521MOL0     H68743  10.703   9.825   6.153 -0.3957 -1.4747  0.1262
  521MOL0     H68744  10.610  10.006   6.379  0.8292 -0.9221 -0.0546
  521MOL0     H68745  10.762   9.989   6.313  0.0299 -0.7447 -0.4645
  521MOL0     H68746  10.634  10.214   6.256 -2.6608  1.1425  0.8015
  521MOL0     H68747  10.511  10.128   6.170  0.4104  2.5447 -1.3816
  521MOL0     H68748  10.669  10.018   6.009 -4.2929 -1.9316  4.8055
  521MOL0     H68749  10.795  10.126   6.073 -0.5166  1.9821  3.3068
  521MOL0     H68750  10.633  10.178   5.865  2.1741  2.1940 -0.6287
  521MOL0     H68751  10.524  10.224   5.998  0.4167  1.5613  1.7536
  521MOL0     H68752  10.740  10.378   6.067  2.3244 -0.2052 -0.5186
  521MOL0     H68753  10.640  10.429   5.927  0.8311 -0.1373 -1.3663
  521MOL0     H68754  10.313   9.448   6.380 -3.7325 -1.0574 -0.1840
  521MOL0     H68755  10.189   9.464   6.576  0.3918  0.1245 -1.3908
  521MOL0     H68756   9.808   9.627   6.749  5.6426  0.9745 -1.1158
  521MOL0     H68757   9.639   9.634   6.944 -0.9729  1.0659  3.5303
  521MOL0     H68758   9.681   9.156   6.987 -2.7447  0.8586 -3.0020
  521MOL0     H68759   9.727   9.142   6.745 -0.5841  0.3722  0.6819
  521MOL0     H68760  10.085   9.330   6.421 -0.4335  1.7035 -4.2465
  521MOL0     H68761  10.144   9.327   6.189 -0.4478  0.6081  0.4567
  521MOL0     H68762  10.298   9.161   6.046 -0.7953  1.8348  1.1677
  521MOL0     H68763  10.212   9.279   5.965  0.1504  0.8974  3.9936
  521MOL0     H68764  10.327   9.202   5.803 -1.2838 -0.6054 -2.0454
  521MOL0     H68765  10.319   9.029   5.854  1.0131 -0.7492 -2.0167
  521MOL0     H68766  10.132   9.162   5.665 -2.3367 -0.2077  0.4868
  521MOL0     H68767  10.092   9.020   5.775  0.5162  1.1350  0.8701
  521MOL0     H68768  10.354   8.993   5.628 -0.1661  1.1060  1.2309
  521MOL0     H68769  10.211   8.892   5.635 -1.5302 -0.1038 -0.0884
  521MOL0     H68770  10.104   9.067   5.272 -3.3811 -0.3068  0.9704
  521MOL0     H68771  10.015   8.922   6.153 -0.4845 -1.1043  1.8853
  521MOL0     H68772   9.956   8.929   6.409 -2.8084  0.6150 -0.5271
  522MOL0     O68773   9.374   7.749   0.421 -0.0238  0.5313 -0.8578
  522MOL0     C68774   9.423   7.736   0.313  0.5452  1.0524 -0.4049
  522MOL0     O68775   9.359   7.714   0.195 -0.0724 -0.2999 -0.3135
  522MOL0     C68776   9.222   7.744   0.172 -0.0812  0.3969  0.0945
  522MOL0     C68777   9.137   7.836   0.233  0.1506 -0.0496 -0.1960
  522MOL0     C68778   9.006   7.850   0.192 -0.3168  0.2870 -0.5176
  522MOL0     C68779   8.944   7.748   0.117 -0.9734 -0.0231  0.4072
  522MOL0     O68780   8.808   7.756   0.102 -0.2749 -0.0706 -0.0682
  522MOL0     C68781   8.772   7.832  -0.017 -0.2411 -0.2420 -0.9845
  522MOL0     C68782   8.649   7.784  -0.085 -0.1060  0.2259 -0.6689
  522MOL0     C68783   8.537   7.776   0.009 -0.2976 -0.7183  0.6770
  522MOL0     C68784   8.411   7.787  -0.061  0.7606  1.0256  0.2509
  522MOL0     C68785   8.279   7.765   0.030  0.2014  0.2141 -1.1684
  522MOL0     C68786   8.239   7.623   0.067  0.5010 -0.8557  0.2851
  522MOL0     C68787   8.245   7.523  -0.053 -0.6168 -0.6666 -0.5473
  522MOL0     C68788   8.150   7.542  -0.171 -0.5657  0.3761  0.5298
  522MOL0     N68789   8.016   7.498  -0.130  0.9451  0.2635  0.0279
  522MOL0     C68790   7.917   7.592  -0.087 -0.4703 -0.2673  0.9777
  522MOL0     C68791   7.811   7.521  -0.098 -0.1798 -0.5618 -0.8518
  522MOL0     C68792   7.670   7.581  -0.071 -0.3992  0.2726  0.3429
  522MOL0     C68793   7.568   7.479  -0.028  0.6467 -0.5883  0.0450
  522MOL0     C68794   7.501   7.403  -0.144  1.1635 -0.3733 -0.0798
  522MOL0     C68795   7.401   7.297  -0.093 -0.2944 -0.3237  0.3361
  522MOL0     O68796   7.315   7.358   0.006  0.1659  0.2679  0.2648
  522MOL0     C68797   7.215   7.275   0.064 -0.1405 -0.4623 -0.1679
  522MOL0     C68798   7.133   7.339   0.158 -0.6494  0.0122  0.2940
  522MOL0     C68799   7.022   7.278   0.216 -0.5281  0.2640  0.1793
  522MOL0     C68800   6.988   7.144   0.182 -0.2278  0.4883 -0.3242
  522MOL0     C68801   6.880   7.071   0.249  0.3273 -0.6138  0.6410
  522MOL0     O68802   6.890   6.939   0.252  0.1660 -0.1888  0.1037
  522MOL0     C68803   6.766   6.870   0.258 -0.6189  0.0830  0.1174
  522MOL0     C68804   6.759   6.745   0.328 -1.0006  0.4261  0.2566
  522MOL0     C68805   6.639   6.681   0.351 -0.9211  0.3097 -0.7332
  522MOL0     C68806   6.519   6.715   0.286 -0.3254  0.0743 -0.3934
  522MOL0     O68807   6.399   6.649   0.293  0.0679  0.8031  0.0561
  522MOL0     C68808   6.405   6.509   0.319  0.3168  0.0279 -0.1962
  522MOL0     C68809   6.259   6.462   0.310  1.2423  0.2254  0.2790
  522MOL0     C68810   6.201   6.497   0.164 -0.8591  0.2766  0.0506
  522MOL0     C68811   6.052   6.501   0.172 -0.2362 -0.2501 -0.6544
  522MOL0     C68812   5.981   6.517   0.038  0.2307 -0.5283 -0.2514
  522MOL0     C68813   5.835   6.477   0.058 -0.7096 -0.4527  0.1336
  522MOL0     C68814   5.755   6.421  -0.063  0.3993  0.1747 -0.2802
  522MOL0     C68815   5.701   6.523  -0.163 -0.6808  0.4045 -0.6773
  522MOL0    Cl68816   5.676   6.439  -0.318  0.3871  0.0903 -0.0437
  522MOL0     C68817   6.525   6.828   0.210 -0.1771 -0.4429  0.3096
  522MOL0     C68818   6.646   6.903   0.191 -0.1447 -0.0979 -0.3111
  522MOL0     O68819   6.791   7.139   0.309 -0.2080  0.0330 -0.7986
  522MOL0     C68820   7.061   7.082   0.087 -0.1653  0.3163  0.0639
  522MOL0     C68821   7.175   7.138   0.025 -0.7945 -0.4648 -0.7845
  522MOL0     N68822   7.836   7.391  -0.124  0.0833  0.3875  0.6794
  522MOL0     N68823   7.958   7.374  -0.151 -0.0941 -0.0751  0.7189
  522MOL0     C68824   9.022   7.656   0.049 -1.1946  0.8356 -0.3867
  522MOL0     C68825   9.162   7.659   0.076 -0.8283 -0.5401  0.0203
  522MOL0     C68826   9.570   7.738   0.312  0.1321 -0.6168 -0.2411
  522MOL0     C68827   9.655   7.695   0.197  0.7193  1.2854 -0.4049
  522MOL0     C68828   9.793   7.715   0.194  0.4172 -2.0619 -0.2417
  522MOL0     C68829   9.855   7.775   0.309  0.7440  0.4900 -0.8441
  522MOL0     O68830   9.991   7.792   0.319 -0.0893 -0.7426  1.3492
  522MOL0     C68831  10.052   7.813   0.447 -0.3868 -0.0967 -0.1361
  522MOL0     C68832  10.195   7.828   0.406  0.4583  0.0556 -1.1491
  522MOL0     C68833  10.277   7.856   0.530  0.3141  0.3536 -0.1299
  522MOL0     C68834  10.426   7.873   0.500  1.3549  0.4111  1.6593
  522MOL0     C68835  10.470   7.741   0.449 -0.7571 -0.4012  0.1517
  522MOL0     C68836  10.526   7.648   0.398  0.1029 -0.2856  0.1041
  522MOL0     C68837   9.774   7.816   0.421 -0.0645 -1.0461  0.3736
  522MOL0     C68838   9.638   7.796   0.422  0.2111  1.2187 -1.0485
  522MOL0     H68839   9.181   7.905   0.304 -0.0614  2.7896 -2.6061
  522MOL0     H68840   8.932   7.915   0.237 -1.7167 -0.8049 -1.1637
  522MOL0     H68841   8.846   7.839  -0.097 -0.1700 -0.4590 -0.9393
  522MOL0     H68842   8.750   7.936   0.008  0.8758  0.1272 -1.4692
  522MOL0     H68843   8.673   7.690  -0.135 -0.3209 -0.6200  0.7716
  522MOL0     H68844   8.626   7.860  -0.161 -3.0862  0.0671 -0.0205
  522MOL0     H68845   8.543   7.869   0.066  4.2114 -1.6377  2.1341
  522MOL0     H68846   8.536   7.692   0.080 -4.5887 -0.8661  0.6979
  522MOL0     H68847   8.408   7.884  -0.110 -1.1760  0.5470 -0.6840
  522MOL0     H68848   8.422   7.713  -0.141  2.3410 -0.8118  2.0298
  522MOL0     H68849   8.204   7.814  -0.033  0.5899  2.2439 -0.1184
  522MOL0     H68850   8.279   7.831   0.117 -2.5563  1.6224 -2.0898
  522MOL0     H68851   8.136   7.633   0.102 -0.2561  3.1907 -2.4565
  522MOL0     H68852   8.301   7.588   0.150 -0.4540  1.6601  2.1670
  522MOL0     H68853   8.351   7.510  -0.076  0.9309  3.6927  2.8260
  522MOL0     H68854   8.215   7.420  -0.031  0.6076 -0.9582 -0.1507
  522MOL0     H68855   8.197   7.487  -0.253  0.4323  1.9094  0.0321
  522MOL0     H68856   8.139   7.645  -0.204 -2.0457  0.3063  0.7168
  522MOL0     H68857   7.932   7.699  -0.078  3.6636 -0.0708 -3.8374
  522MOL0     H68858   7.641   7.637  -0.160  0.7172 -0.4952 -0.5279
  522MOL0     H68859   7.675   7.647   0.017  1.8187 -0.8949  1.1725
  522MOL0     H68860   7.483   7.537   0.008 -0.7177 -2.0033 -0.7857
  522MOL0     H68861   7.604   7.412   0.051  0.5110  0.7290  1.2693
  522MOL0     H68862   7.452   7.469  -0.217 -0.5412  0.6658  1.9038
  522MOL0     H68863   7.576   7.342  -0.194  2.9180  1.4283  0.2599
  522MOL0     H68864   7.456   7.218  -0.042  1.3737  0.6182  0.0597
  522MOL0     H68865   7.351   7.258  -0.182 -2.0490 -0.4608  1.3375
  522MOL0     H68866   7.147   7.445   0.179 -0.2917 -0.2841  1.6898
  522MOL0     H68867   6.960   7.344   0.275  1.9042  1.3510  1.6709
  522MOL0     H68868   6.849   6.716   0.381  1.4322  1.5509 -2.8901
  522MOL0     H68869   6.642   6.588   0.407  0.2872 -0.5529 -2.1422
  522MOL0     H68870   6.431   6.493   0.424  0.5457 -1.9607 -0.5072
  522MOL0     H68871   6.470   6.445   0.259 -1.5380 -0.7503 -1.4495
  522MOL0     H68872   6.207   6.504   0.397 -4.5139 -1.9439 -1.5838
  522MOL0     H68873   6.236   6.355   0.320 -2.5939  1.0260  1.7554
  522MOL0     H68874   6.232   6.435   0.079 -0.1971  2.1835 -1.1540
  522MOL0     H68875   6.233   6.591   0.119  0.9924 -0.3035  0.0794
  522MOL0     H68876   6.030   6.407   0.222  2.9223 -0.2973  0.8883
  522MOL0     H68877   6.032   6.583   0.241  0.5532 -0.1708 -0.5051
  522MOL0     H68878   6.033   6.452  -0.032 -0.0041 -0.7271 -0.2410
  522MOL0     H68879   5.982   6.620  -0.000 -2.5393  0.3203  1.6511
  522MOL0     H68880   5.788   6.571   0.091  0.9308  1.2737 -2.1212
  522MOL0     H68881   5.822   6.396   0.130 -3.3540 -0.7582 -0.5642
  522MOL0     H68882   5.818   6.358  -0.126  0.1355  0.4843 -0.8549
  522MOL0     H68883   5.674   6.361  -0.019 -1.0670  2.0551 -0.3168
  522MOL0     H68884   5.774   6.604  -0.175  1.2790 -0.8764  1.6426
  522MOL0     H68885   5.601   6.557  -0.132 -1.5929 -2.4145 -0.2687
  522MOL0     H68886   6.435   6.867   0.163 -1.8543 -1.1432  2.7693
  522MOL0     H68887   6.639   6.995   0.134 -0.8858  1.9255  2.7964
  522MOL0     H68888   7.028   6.983   0.057  0.0543  0.3260 -0.2117
  522MOL0     H68889   7.237   7.091  -0.051  2.1050 -0.9835  1.6924
  522MOL0     H68890   8.989   7.587  -0.027 -1.2081  0.3987  0.0096
  522MOL0     H68891   9.231   7.597   0.019  3.2106  1.7971  1.8906
  522MOL0     H68892   9.614   7.671   0.099 -0.1416 -2.2114  0.6960
  522MOL0     H68893   9.851   7.696   0.104  1.7991 -0.7078  0.3048
  522MOL0     H68894  10.040   7.724   0.510 -0.1546  0.5791  0.8975
  522MOL0     H68895  10.015   7.898   0.505  0.9970  1.0532 -0.8813
  522MOL0     H68896  10.231   7.736   0.360  0.1832  0.7200 -2.7475
  522MOL0     H68897  10.217   7.905   0.332  2.3571 -0.0159 -0.7057
  522MOL0     H68898  10.270   7.766   0.591  1.2654  1.6090  1.9313
  522MOL0     H68899  10.234   7.933   0.594 -1.2985 -1.3443  0.9266
  522MOL0     H68900  10.436   7.949   0.422 -0.8825 -0.8577  0.0227
  522MOL0     H68901  10.474   7.900   0.594  0.1350 -3.5091  3.6393
  522MOL0     H68902  10.560   7.567   0.337  1.1952  2.0909 -2.6733
  522MOL0     H68903   9.819   7.864   0.507 -2.9101 -2.2894  2.7502
  522MOL0     H68904   9.582   7.832   0.508  0.4075 -0.9086  0.0416
  523MOL0     O68905   4.936  11.064   3.787 -0.5418  0.0563  0.1899
  523MOL0     C68906   5.041  11.008   3.821  0.0225  0.2998 -0.3003
  523MOL0     O68907   5.095  10.890   3.764 -0.4584 -0.3031 -0.0485
  523MOL0     C68908   5.042  10.838   3.644  0.1286 -1.0634 -1.6598
  523MOL0     C68909   5.038  10.913   3.530  0.1969  0.1575  0.1942
  523MOL0     C68910   4.990  10.851   3.410  0.6504  0.1247  0.2863
  523MOL0     C68911   4.932  10.724   3.408  0.0315  0.1112 -0.4369
  523MOL0     O68912   4.902  10.667   3.284  0.5481  0.2568 -0.8577
  523MOL0     C68913   4.868  10.752   3.172 -0.1770  0.3727  0.0614
  523MOL0     C68914   4.809  10.683   3.051  0.8182 -0.1182  0.1785
  523MOL0     C68915   4.673  10.619   3.080 -0.6948 -0.3480 -0.0753
  523MOL0     C68916   4.586  10.629   2.953  0.4264  0.7623  1.1747
  523MOL0     C68917   4.477  10.527   2.947 -1.3616 -0.0728 -0.7943
  523MOL0     C68918   4.367  10.576   2.854  0.4549  0.4774 -0.6855
  523MOL0     C68919   4.275  10.678   2.928 -0.7505 -0.5156  0.7828
  523MOL0     C68920   4.135  10.679   2.860  0.3325 -0.0710  0.2397
  523MOL0     N68921   4.089  10.815   2.850 -0.7397 -0.0834  0.7117
  523MOL0     C68922   4.059  10.897   2.958 -0.8033  0.8719 -0.0778
  523MOL0     C68923   3.985  10.994   2.903 -0.0919  0.7367 -0.1540
  523MOL0     C68924   3.951  11.119   2.976 -0.4530  0.9625  0.2956
  523MOL0     C68925   3.819  11.111   3.060  0.0461 -0.1813  0.6833
  523MOL0     C68926   3.805  11.234   3.147  0.3504 -0.3271  0.0677
  523MOL0     C68927   3.908  11.269   3.246  0.0727 -0.8304  0.4855
  523MOL0     O68928   3.863  11.302   3.375  0.0508 -0.2428 -0.0274
  523MOL0     C68929   3.944  11.368   3.467  0.5576 -0.4303  0.1409
  523MOL0     C68930   3.889  11.474   3.539 -0.7327  0.8193 -0.0567
  523MOL0     C68931   3.967  11.532   3.642  0.2180  0.2493 -0.8827
  523MOL0     C68932   4.096  11.496   3.673  0.0623  0.2767 -0.3861
  523MOL0     C68933   4.164  11.573   3.787 -0.6326  0.8184  0.1502
  523MOL0     O68934   4.293  11.524   3.822  0.2919 -0.2580  0.3848
  523MOL0     C68935   4.350  11.571   3.934  0.2408  0.0260 -0.7831
  523MOL0     C68936   4.325  11.511   4.060 -0.0715  0.1897  0.6212
  523MOL0     C68937   4.389  11.549   4.175  0.5810 -0.1007  1.1621
  523MOL0     C68938   4.481  11.659   4.168 -0.5538 -0.2323  0.1848
  523MOL0     O68939   4.524  11.702   4.294  0.0214 -0.0117 -0.0193
  523MOL0     C68940   4.583  11.830   4.295  0.2783  0.4579 -0.0354
  523MOL0     C68941   4.600  11.871   4.441  0.9607 -0.5776  0.7805
  523MOL0     C68942   4.730  11.960   4.465  0.2460 -0.0563  0.5196
  523MOL0     C68943   4.726  12.035   4.603  0.8597  0.7132  0.5091
  523MOL0     C68944   4.873  12.074   4.640 -0.1715  0.0693 -0.2048
  523MOL0     C68945   4.865  12.222   4.690  0.5742  0.6646  1.1880
  523MOL0     C68946   4.995  12.298   4.690 -0.6761 -0.5641  0.8068
  523MOL0     C68947   5.031  12.344   4.548 -0.0166 -0.1629 -0.1591
  523MOL0    Cl68948   4.912  12.453   4.470  0.1957 -0.2845  0.0405
  523MOL0     C68949   4.507  11.718   4.042  0.5898 -0.9638 -0.9848
  523MOL0     C68950   4.437  11.681   3.931  0.9709  0.0933  0.3035
  523MOL0     O68951   4.100  11.659   3.846  0.2455  0.0485 -0.4572
  523MOL0     C68952   4.146  11.392   3.604  0.8392  1.2762 -0.2618
  523MOL0     C68953   4.068  11.323   3.515  0.9192  0.0247  0.6463
  523MOL0     N68954   3.963  10.968   2.765  0.0443 -0.6240 -0.3807
  523MOL0     N68955   4.041  10.859   2.735  0.2554 -0.1011  0.1560
  523MOL0     C68956   4.936  10.651   3.524  0.8130 -0.6303 -0.4080
  523MOL0     C68957   4.984  10.713   3.644  0.7303 -0.0112  0.1173
  523MOL0     C68958   5.113  11.059   3.932 -0.3362 -0.6794  0.5729
  523MOL0     C68959   5.080  11.189   3.980 -0.2650 -0.6781  0.2167
  523MOL0     C68960   5.155  11.235   4.087  0.3578 -0.6563  0.7016
  523MOL0     C68961   5.263  11.169   4.145  0.0729  0.0117 -0.1787
  523MOL0     O68962   5.323  11.211   4.262 -0.3111 -0.9056  0.3444
  523MOL0     C68963   5.248  11.307   4.339 -0.1500 -0.6603 -1.3958
  523MOL0     C68964   5.305  11.315   4.486  0.2956 -0.5123 -0.1718
  523MOL0     C68965   5.283  11.450   4.565  0.4644  0.7737  0.1997
  523MOL0     C68966   5.378  11.449   4.683  0.3487  0.0181  0.3311
  523MOL0     C68967   5.316  11.384   4.800  0.3138  0.4647 -0.8979
  523MOL0     C68968   5.277  11.315   4.897  0.0187  0.0410  0.6417
  523MOL0     C68969   5.293  11.046   4.095  0.4109  0.0161  0.0412
  523MOL0     C68970   5.228  10.988   3.987 -0.4696 -0.5376 -0.0384
  523MOL0     H68971   5.068  11.016   3.540  1.6402 -0.4668  4.6804
  523MOL0     H68972   4.992  10.913   3.321 -1.5521 -1.2655 -0.8306
  523MOL0     H68973   4.947  10.818   3.134  0.1783 -0.2763 -0.3414
  523MOL0     H68974   4.800  10.828   3.211 -0.6567 -0.9143  1.8337
  523MOL0     H68975   4.882  10.607   3.022  1.0997 -0.5703  1.9760
  523MOL0     H68976   4.809  10.762   2.975  5.1087  0.6000  0.7102
  523MOL0     H68977   4.613  10.664   3.160 -2.8496  1.1152 -2.3531
  523MOL0     H68978   4.699  10.513   3.088 -0.0021 -0.0857  1.2933
  523MOL0     H68979   4.544  10.730   2.949  4.2593  2.5120 -2.9040
  523MOL0     H68980   4.643  10.615   2.861  1.1429 -0.5618  1.7923
  523MOL0     H68981   4.444  10.518   3.051 -2.0204  1.6061 -0.8336
  523MOL0     H68982   4.510  10.427   2.916  1.7536 -1.3833  5.1666
  523MOL0     H68983   4.299  10.495   2.828 -0.6720  1.2265 -0.1649
  523MOL0     H68984   4.421  10.623   2.772  0.8602  0.8092 -0.2391
  523MOL0     H68985   4.284  10.655   3.035  2.4759 -1.2495  0.4727
  523MOL0     H68986   4.324  10.775   2.910  2.0677 -2.0205 -0.3206
  523MOL0     H68987   4.066  10.620   2.920  1.3632  1.2868  2.9414
  523MOL0     H68988   4.159  10.649   2.757 -1.1860  2.3218 -0.8842
  523MOL0     H68989   4.098  10.887   3.059 -0.1541  1.1277 -0.2954
  523MOL0     H68990   3.955  11.202   2.905 -1.7248 -0.8376 -2.0400
  523MOL0     H68991   4.039  11.124   3.040  1.7945 -2.0035 -2.2618
  523MOL0     H68992   3.815  11.021   3.121 -3.9013 -1.0962 -0.6220
  523MOL0     H68993   3.744  11.106   2.980  2.0835 -2.1294 -1.2536
  523MOL0     H68994   3.765  11.317   3.087  1.5516  0.2322  0.0120
  523MOL0     H68995   3.719  11.210   3.210 -0.9949  2.3667 -0.5691
  523MOL0     H68996   3.955  11.358   3.203 -2.9634  0.2473 -0.9059
  523MOL0     H68997   3.986  11.193   3.249  2.1699  1.2079  1.6335
  523MOL0     H68998   3.789  11.515   3.541 -0.7730  0.7038  0.6565
  523MOL0     H68999   3.914  11.602   3.707  1.8583  0.5358  0.1915
  523MOL0     H69000   4.247  11.436   4.067 -0.9434  1.1517  1.5145
  523MOL0     H69001   4.374  11.483   4.260 -4.0906  0.6574  1.1642
  523MOL0     H69002   4.516  11.898   4.243 -0.6070 -0.4515 -0.1290
  523MOL0     H69003   4.673  11.815   4.234  0.8595 -5.8137  1.6510
  523MOL0     H69004   4.601  11.783   4.505 -1.8750 -2.6023 -1.6646
  523MOL0     H69005   4.509  11.930   4.454  0.6063 -0.6281 -1.1219
  523MOL0     H69006   4.744  12.021   4.375 -3.4344  0.1524 -0.0637
  523MOL0     H69007   4.808  11.886   4.482 -0.4716 -1.1946 -0.8171
  523MOL0     H69008   4.666  12.124   4.583 -0.5005 -0.7791 -2.8001
  523MOL0     H69009   4.667  11.979   4.676  0.6413 -1.4304 -1.2038
  523MOL0     H69010   4.946  12.072   4.559 -0.5346 -0.9312 -0.5343
  523MOL0     H69011   4.921  12.014   4.718  1.3016  1.4341 -0.0222
  523MOL0     H69012   4.814  12.208   4.785 -1.5364 -2.4882 -0.2333
  523MOL0     H69013   4.802  12.277   4.620  1.6909 -0.2201 -0.6033
  523MOL0     H69014   4.977  12.381   4.759  0.1112  1.1993 -1.0136
  523MOL0     H69015   5.075  12.234   4.727 -0.4086  0.4062  1.9607
  523MOL0     H69016   5.037  12.258   4.480 -2.1100 -1.5115  1.2534
  523MOL0     H69017   5.127  12.394   4.563 -0.6672  1.2526 -0.5366
  523MOL0     H69018   4.565  11.810   4.038 -1.5221  0.5679  1.1327
  523MOL0     H69019   4.445  11.734   3.836 -1.0792 -1.8360 -1.0360
  523MOL0     H69020   4.237  11.340   3.630 -1.8026 -3.7016  0.1881
  523MOL0     H69021   4.104  11.239   3.456  2.0284  0.6933  0.3315
  523MOL0     H69022   4.916  10.544   3.530  4.1431 -1.3622 -0.4005
  523MOL0     H69023   4.973  10.656   3.736  1.0451 -0.3819 -0.0751
  523MOL0     H69024   5.002  11.250   3.935 -0.5731 -0.9910  0.3193
  523MOL0     H69025   5.122  11.332   4.123 -1.9993 -2.2457  3.2256
  523MOL0     H69026   5.144  11.281   4.359 -0.0732  0.7781  1.2658
  523MOL0     H69027   5.252  11.404   4.290 -0.7214 -0.5293 -1.1911
  523MOL0     H69028   5.272  11.233   4.551  2.1526  0.0105  1.5522
  523MOL0     H69029   5.413  11.298   4.482  0.6735  1.0483  1.8319
  523MOL0     H69030   5.177  11.455   4.589  0.4692  1.1926  0.1356
  523MOL0     H69031   5.304  11.529   4.493  3.8333  1.3817  1.6380
  523MOL0     H69032   5.467  11.391   4.658 -0.7340 -0.9028 -1.5678
  523MOL0     H69033   5.415  11.548   4.710  3.1236 -1.0526  0.7671
  523MOL0     H69034   5.241  11.250   4.974 -1.0219  0.5550  0.6102
  523MOL0     H69035   5.377  10.998   4.143 -0.5620 -2.0046 -0.1383
  523MOL0     H69036   5.249  10.891   3.942  0.5791  0.9153 -2.8885
  524MOL0     O69037   4.155   5.540   8.213 -0.1937 -0.0687  1.2774
  524MOL0     C69038   4.246   5.607   8.260 -0.1152 -0.1214  0.1255
  524MOL0     O69039   4.368   5.634   8.209 -0.2699  0.0596 -0.1383
  524MOL0     C69040   4.411   5.606   8.083 -0.1535  1.3405 -1.1168
  524MOL0     C69041   4.541   5.657   8.049  0.4751  0.3786  0.0859
  524MOL0     C69042   4.611   5.634   7.922  0.8256 -0.6580 -0.5380
  524MOL0     C69043   4.550   5.546   7.830 -0.6055 -0.0618  0.1806
  524MOL0     O69044   4.610   5.500   7.716  0.8239  0.7981 -0.2315
  524MOL0     C69045   4.593   5.586   7.602 -0.9711 -0.0368 -0.1047
  524MOL0     C69046   4.718   5.676   7.583 -0.6325 -0.0171  0.7424
  524MOL0     C69047   4.845   5.602   7.550  0.3893  0.0413 -0.3099
  524MOL0     C69048   4.875   5.597   7.401  0.6056 -0.6909  1.1465
  524MOL0     C69049   4.998   5.510   7.378  0.1007 -0.2855 -0.2678
  524MOL0     C69050   4.987   5.443   7.240  0.5215  0.3590 -1.0030
  524MOL0     C69051   4.995   5.541   7.114 -0.4990  0.1215 -0.4002
  524MOL0     C69052   4.932   5.468   6.985 -0.6816 -0.1761 -0.8184
  524MOL0     N69053   5.046   5.382   6.937 -0.2505  0.9992  1.2990
  524MOL0     C69054   5.162   5.438   6.901 -0.0226 -0.3227  0.1050
  524MOL0     C69055   5.238   5.329   6.861 -0.3138 -0.3740 -0.0785
  524MOL0     C69056   5.387   5.333   6.829 -0.7452  0.8916 -0.0523
  524MOL0     C69057   5.409   5.344   6.683 -0.5755  0.8828  0.9364
  524MOL0     C69058   5.323   5.252   6.597  0.0125  0.6716  0.2501
  524MOL0     C69059   5.377   5.239   6.447 -0.2112 -0.7556 -0.0190
  524MOL0     O69060   5.517   5.207   6.439 -1.1606  0.7198  0.2756
  524MOL0     C69061   5.561   5.073   6.439  0.2363  0.1183  0.6848
  524MOL0     C69062   5.466   4.964   6.428  0.7724  0.0147  0.0806
  524MOL0     C69063   5.508   4.831   6.429  0.3551  0.9358  0.4918
  524MOL0     C69064   5.640   4.804   6.422 -0.3619  0.1706 -0.0827
  524MOL0     C69065   5.663   4.658   6.430  0.4285  0.0769 -0.0432
  524MOL0     O69066   5.563   4.573   6.428  1.1401  0.1198 -0.0126
  524MOL0     C69067   5.589   4.441   6.440 -0.0089  0.2991 -0.6520
  524MOL0     C69068   5.536   4.375   6.553  0.8599  0.8973  0.7980
  524MOL0     C69069   5.557   4.241   6.581  0.2534  0.2072 -0.0495
  524MOL0     C69070   5.642   4.162   6.503  0.8701 -0.0881  0.0871
  524MOL0     O69071   5.660   4.029   6.534  0.3672 -0.2403  0.0040
  524MOL0     C69072   5.643   3.973   6.654  0.6317 -0.5327  0.2376
  524MOL0     C69073   5.744   3.874   6.693  0.2483  0.9390 -0.5257
  524MOL0     C69074   5.785   3.781   6.575  0.0801 -0.7219 -0.1736
  524MOL0     C69075   5.887   3.686   6.637 -1.8000  0.0679 -0.2444
  524MOL0     C69076   5.917   3.556   6.561 -1.1908 -0.9249  0.6257
  524MOL0     C69077   5.957   3.579   6.413 -0.9124  0.1497 -0.0142
  524MOL0     C69078   5.973   3.449   6.327 -0.8846 -0.7449 -0.0371
  524MOL0     C69079   5.916   3.458   6.186 -0.0624  0.6043  0.4471
  524MOL0    Cl69080   5.983   3.563   6.064  0.1513 -0.0288 -0.2187
  524MOL0     C69081   5.699   4.224   6.396  1.0892 -0.1752  0.5799
  524MOL0     C69082   5.669   4.357   6.356 -0.0866  0.1870  0.4202
  524MOL0     O69083   5.783   4.632   6.454  0.3501 -0.1906  0.5104
  524MOL0     C69084   5.735   4.904   6.441  0.4487  0.2118  0.4134
  524MOL0     C69085   5.696   5.041   6.436  0.7222 -0.3462 -0.2193
  524MOL0     N69086   5.162   5.211   6.860 -0.8169  1.0388 -0.2960
  524MOL0     N69087   5.042   5.246   6.904 -0.0398 -0.2513  0.2190
  524MOL0     C69088   4.420   5.501   7.859 -0.3728 -0.7667 -1.8197
  524MOL0     C69089   4.347   5.522   7.987 -0.4914 -0.7837  0.0443
  524MOL0     C69090   4.224   5.677   8.389 -0.1192 -0.3875 -1.3048
  524MOL0     C69091   4.333   5.725   8.463 -0.0965 -0.3109 -0.5047
  524MOL0     C69092   4.320   5.793   8.589 -0.2018 -0.2685 -0.2624
  524MOL0     C69093   4.187   5.808   8.634  0.1436 -0.7321  0.2050
  524MOL0     O69094   4.164   5.859   8.759 -0.3131 -0.2309 -0.5804
  524MOL0     C69095   4.254   5.823   8.868  1.4608 -0.2997  0.7551
  524MOL0     C69096   4.169   5.811   8.997  0.2271 -0.4619  0.1898
  524MOL0     C69097   4.263   5.792   9.112  0.8338  0.8557 -0.0549
  524MOL0     C69098   4.188   5.801   9.244  0.1457  0.4739 -0.4632
  524MOL0     C69099   4.100   5.691   9.262  0.0109  0.2178  0.0337
  524MOL0     C69100   4.036   5.589   9.284  0.4340  0.7922 -0.4175
  524MOL0     C69101   4.080   5.762   8.563 -0.0738 -0.9126  0.9745
  524MOL0     C69102   4.095   5.696   8.442  0.1994 -0.4288  1.1923
  524MOL0     H69103   4.587   5.722   8.123  0.2072 -0.4342  0.9781
  524MOL0     H69104   4.705   5.688   7.920  0.4579 -0.0209 -1.1616
  524MOL0     H69105   4.501   5.643   7.614 -1.0900  0.3284 -2.3604
  524MOL0     H69106   4.587   5.523   7.513  1.6330 -0.6104  0.0343
  524MOL0     H69107   4.732   5.731   7.677 -0.8275  1.4323 -0.0529
  524MOL0     H69108   4.696   5.746   7.502 -1.2374 -1.0812 -0.0349
  524MOL0     H69109   4.837   5.508   7.605  0.9082  1.1450  1.7758
  524MOL0     H69110   4.934   5.647   7.595 -2.4606  2.4322  3.6949
  524MOL0     H69111   4.790   5.553   7.347  1.8492 -0.3186 -1.2795
  524MOL0     H69112   4.898   5.695   7.357  0.9149 -1.1120  0.3491
  524MOL0     H69113   5.020   5.438   7.457  1.5998  1.6763  1.2204
  524MOL0     H69114   5.088   5.571   7.364  0.3025 -0.9592 -2.1686
  524MOL0     H69115   4.897   5.381   7.237  0.5198 -0.1276  3.4113
  524MOL0     H69116   5.067   5.369   7.233 -1.3943 -1.7698 -1.7458
  524MOL0     H69117   4.937   5.631   7.138  0.0322  0.9671 -2.1337
  524MOL0     H69118   5.097   5.575   7.096  1.9777 -2.7977  5.4308
  524MOL0     H69119   4.902   5.540   6.909  2.0444 -0.0549 -1.8650
  524MOL0     H69120   4.841   5.410   7.003 -1.3603  1.2158  0.5178
  524MOL0     H69121   5.201   5.539   6.905  0.4205 -0.5365  3.0004
  524MOL0     H69122   5.418   5.233   6.862 -0.6421  0.8643 -0.2307
  524MOL0     H69123   5.450   5.412   6.870  0.7155 -0.0186 -0.4818
  524MOL0     H69124   5.516   5.327   6.668 -0.5635  2.7015 -1.6669
  524MOL0     H69125   5.403   5.447   6.649 -0.9480 -0.0852 -2.2946
  524MOL0     H69126   5.330   5.150   6.637  1.3772  0.8378  0.4739
  524MOL0     H69127   5.218   5.284   6.597 -0.1628  0.2444 -2.1357
  524MOL0     H69128   5.345   5.331   6.397  0.5010 -0.8783 -0.7202
  524MOL0     H69129   5.320   5.160   6.397 -2.0859 -1.1922  2.5750
  524MOL0     H69130   5.360   4.987   6.428  0.5934 -0.7615  0.1707
  524MOL0     H69131   5.436   4.750   6.427  0.6339  0.5392 -3.5641
  524MOL0     H69132   5.486   4.436   6.628 -0.6031  0.6835  0.0390
  524MOL0     H69133   5.509   4.199   6.669  1.5154 -0.8528  0.1534
  524MOL0     H69134   5.547   3.920   6.649  0.0667  0.5498 -1.1660
  524MOL0     H69135   5.642   4.041   6.739 -2.9386 -2.2231  1.7567
  524MOL0     H69136   5.707   3.816   6.779  1.2103  2.2847  0.8429
  524MOL0     H69137   5.826   3.933   6.734 -1.7025  3.4590 -0.0523
  524MOL0     H69138   5.827   3.852   6.504 -3.0729  1.0139 -0.5101
  524MOL0     H69139   5.700   3.725   6.535  0.0526 -0.5690 -0.3276
  524MOL0     H69140   5.986   3.733   6.641  0.5292 -4.4275  1.9039
  524MOL0     H69141   5.863   3.658   6.740  0.2372 -2.1761 -0.3012
  524MOL0     H69142   5.839   3.484   6.585 -2.4315  0.2960  0.4208
  524MOL0     H69143   6.005   3.519   6.615 -1.1513  0.3323  1.4633
  524MOL0     H69144   6.054   3.631   6.414  0.0584 -1.5568 -1.1853
  524MOL0     H69145   5.879   3.641   6.369 -0.7151  1.1120  0.9363
  524MOL0     H69146   6.066   3.392   6.319 -2.1313 -2.6422 -2.2528
  524MOL0     H69147   5.901   3.383   6.377 -3.1615 -0.9154 -3.2376
  524MOL0     H69148   5.808   3.464   6.174 -0.4067 -3.0308  0.6244
  524MOL0     H69149   5.942   3.362   6.140 -1.6411  1.1423 -1.7331
  524MOL0     H69150   5.754   4.151   6.337  0.0690 -0.6137  0.1505
  524MOL0     H69151   5.726   4.398   6.274 -1.2507  0.6697 -0.1657
  524MOL0     H69152   5.839   4.873   6.448  0.4674  0.3735  0.9521
  524MOL0     H69153   5.765   5.125   6.427  0.0698  0.5273  2.1358
  524MOL0     H69154   4.380   5.441   7.778  0.6662 -0.5019 -2.5442
  524MOL0     H69155   4.246   5.482   7.996 -1.4589  1.9612  3.7726
  524MOL0     H69156   4.437   5.704   8.437  0.1078 -0.0066  0.0459
  524MOL0     H69157   4.410   5.824   8.641  2.1172  0.2636 -4.1694
  524MOL0     H69158   4.322   5.905   8.892  2.1579 -1.0395  1.3606
  524MOL0     H69159   4.310   5.730   8.858 -0.7383 -1.4480 -2.5459
  524MOL0     H69160   4.120   5.908   9.007  0.9495 -0.0253 -0.4476
  524MOL0     H69161   4.096   5.730   8.987  2.1757 -2.1755 -0.8967
  524MOL0     H69162   4.335   5.874   9.108  1.6747  0.1454  0.0914
  524MOL0     H69163   4.320   5.699   9.117 -0.1976  0.1526 -0.9924
  524MOL0     H69164   4.254   5.800   9.331 -1.7791  0.8420  1.0751
  524MOL0     H69165   4.132   5.895   9.247  2.8603  2.2014 -0.7102
  524MOL0     H69166   3.980   5.499   9.297 -0.7070  1.6532  0.9045
  524MOL0     H69167   3.985   5.783   8.610 -1.0570  1.7055 -1.8023
  524MOL0     H69168   4.001   5.676   8.391 -0.7486  0.3156  2.5809
  525MOL0     O69169   5.622   5.621   9.171 -0.6202  0.0327 -0.0040
  525MOL0     C69170   5.530   5.538   9.189 -0.0012 -1.2156  0.0006
  525MOL0     O69171   5.482   5.506   9.310  0.1582 -0.5412 -0.7013
  525MOL0     C69172   5.543   5.544   9.428 -0.1162  0.1674  0.4947
  525MOL0     C69173   5.474   5.626   9.519  0.3444  0.2078  0.5023
  525MOL0     C69174   5.521   5.656   9.648 -0.3412 -0.8358 -0.0698
  525MOL0     C69175   5.647   5.617   9.688  0.3971  0.2029 -1.2868
  525MOL0     O69176   5.709   5.662   9.802  0.2620 -0.5151  0.4195
  525MOL0     C69177   5.834   5.717   9.791  0.7460 -0.6202 -0.3009
  525MOL0     C69178   5.871   5.787   9.925  0.5789  0.7141 -0.3597
  525MOL0     C69179   6.026   5.806   9.939  0.6382 -0.1954  0.6424
  525MOL0     C69180   6.061   5.921   9.841 -0.2592 -0.6613  0.1614
  525MOL0     C69181   6.200   5.982   9.849 -0.0292  0.0806 -0.5782
  525MOL0     C69182   6.235   6.062   9.982  0.1168 -0.7232  0.0378
  525MOL0     C69183   6.363   6.153   9.966 -0.4474 -0.7281  0.1954
  525MOL0     C69184   6.487   6.068   9.955 -0.2495  0.1587 -0.4615
  525MOL0     N69185   6.608   6.151   9.972  0.4134 -0.2502  0.1141
  525MOL0     C69186   6.726   6.129  10.038 -0.1794  1.0244  0.6698
  525MOL0     C69187   6.789   6.245  10.040 -1.1778 -0.1133  0.7006
  525MOL0     C69188   6.931   6.278  10.080 -0.0868 -0.2535 -0.6349
  525MOL0     C69189   7.015   6.155  10.120 -0.3118  0.2020  0.4331
  525MOL0     C69190   7.166   6.167  10.120 -0.4485 -0.0762  0.5505
  525MOL0     C69191   7.228   6.199   9.983  0.0695 -0.2345  0.2357
  525MOL0     O69192   7.369   6.220   9.989 -0.2217 -0.1142  0.3964
  525MOL0     C69193   7.467   6.122   9.989  0.3541 -0.2099  0.8499
  525MOL0     C69194   7.444   5.980  10.012 -0.6532  0.7305 -0.2469
  525MOL0     C69195   7.556   5.900  10.040 -0.3229  0.2063 -0.2392
  525MOL0     C69196   7.688   5.950  10.035  0.1616 -0.4342 -0.7060
  525MOL0     C69197   7.800   5.865  10.057  0.6527  1.3136  0.4609
  525MOL0     O69198   7.777   5.734  10.026  0.2229 -0.8572 -0.5166
  525MOL0     C69199   7.862   5.631  10.038 -0.9134  0.0534 -0.6031
  525MOL0     C69200   7.881   5.564  10.155 -0.8947 -0.7056  0.3058
  525MOL0     C69201   7.965   5.450  10.155 -0.9632 -0.0337  0.0007
  525MOL0     C69202   8.038   5.409  10.042  0.0914  0.1248 -0.6805
  525MOL0     O69203   8.119   5.293  10.062 -0.2846 -0.1339 -0.3995
  525MOL0     C69204   8.222   5.290  10.155 -0.7090  0.0741 -0.3586
  525MOL0     C69205   8.353   5.285  10.079 -1.2573  0.4305 -0.4524
  525MOL0     C69206   8.465   5.297  10.185  0.0692  0.4774 -0.0778
  525MOL0     C69207   8.598   5.330  10.123  0.1318  0.3814  0.9797
  525MOL0     C69208   8.612   5.475  10.072  0.0717 -0.4832 -0.0243
  525MOL0     C69209   8.611   5.595  10.172  0.3057 -0.2199  0.1468
  525MOL0     C69210   8.667   5.724  10.097 -0.2649  0.5012 -0.6959
  525MOL0     C69211   8.676   5.834  10.213 -0.7061 -0.5459 -0.7251
  525MOL0    Cl69212   8.754   5.977  10.142 -0.3855  0.5576 -0.1316
  525MOL0     C69213   8.008   5.469   9.923  0.4007 -0.1745 -0.0205
  525MOL0     C69214   7.924   5.592   9.916 -0.8597  0.2653  1.2088
  525MOL0     O69215   7.899   5.906  10.103  0.6137 -0.5452 -0.2890
  525MOL0     C69216   7.717   6.087  10.001 -0.3455 -1.0765  0.3934
  525MOL0     C69217   7.603   6.168   9.979 -0.6927  0.0296  0.6186
  525MOL0     N69218   6.722   6.346   9.973 -0.4708 -0.7812  0.1211
  525MOL0     N69219   6.611   6.291   9.950  1.2777  0.0239 -0.1249
  525MOL0     C69220   5.711   5.530   9.598 -0.0378 -0.6045 -0.1787
  525MOL0     C69221   5.663   5.493   9.467 -0.8075 -0.6691 -0.7000
  525MOL0     C69222   5.465   5.492   9.064  0.0253  0.1207  0.0350
  525MOL0     C69223   5.543   5.478   8.943 -0.8437 -0.5496 -0.2533
  525MOL0     C69224   5.475   5.413   8.838 -1.0035  0.0964  0.8537
  525MOL0     C69225   5.341   5.378   8.842  0.9568  0.1615 -0.0082
  525MOL0     O69226   5.284   5.298   8.743 -0.6639 -0.0267 -0.6197
  525MOL0     C69227   5.353   5.181   8.710 -0.2464  0.7647  0.1419
  525MOL0     C69228   5.282   5.093   8.602  0.1229 -0.4063  1.0436
  525MOL0     C69229   5.272   5.160   8.468  0.3641  0.1931  0.4484
  525MOL0     C69230   5.320   5.091   8.347 -0.9778  0.9799 -0.3042
  525MOL0     C69231   5.471   5.101   8.327 -0.3573 -0.5629  0.5365
  525MOL0     C69232   5.588   5.112   8.311 -0.3655 -0.6156 -0.6466
  525MOL0     C69233   5.264   5.399   8.953 -0.5831 -0.3857 -0.1884
  525MOL0     C69234   5.325   5.455   9.067 -0.2825 -0.1218 -0.7524
  525MOL0     H69235   5.375   5.668   9.501  0.4430  0.3047  0.1739
  525MOL0     H69236   5.472   5.718   9.723  0.1873 -2.4686  1.7149
  525MOL0     H69237   5.833   5.793   9.713 -3.6771 -0.5226 -0.3877
  525MOL0     H69238   5.910   5.643   9.765  1.2565 -1.2314  2.5662
  525MOL0     H69239   5.845   5.702   9.989  2.7215 -0.8390 -1.4137
  525MOL0     H69240   5.806   5.873   9.947  0.7211  1.4350 -2.5234
  525MOL0     H69241   6.078   5.711   9.924 -1.5507 -1.2055 -1.0868
  525MOL0     H69242   6.044   5.841  10.041  0.0486  1.1357  0.3172
  525MOL0     H69243   6.047   5.875   9.743 -3.3157 -1.3008  0.7891
  525MOL0     H69244   5.984   5.998   9.838 -0.7119 -1.0963  0.4352
  525MOL0     H69245   6.205   6.069   9.782  1.7865  1.5022  1.2722
  525MOL0     H69246   6.274   5.904   9.827  2.6934  2.7471 -1.7643
  525MOL0     H69247   6.253   5.986  10.060 -0.2781 -0.3636  0.4819
  525MOL0     H69248   6.146   6.119  10.008 -0.2278 -1.0722 -0.3703
  525MOL0     H69249   6.349   6.223   9.883 -0.1516  1.1028  1.6361
  525MOL0     H69250   6.383   6.222  10.048  1.9192  2.8255 -3.0582
  525MOL0     H69251   6.484   6.010   9.861 -1.2976  0.7946 -0.8420
  525MOL0     H69252   6.489   5.995  10.036 -2.2779  0.4908 -0.0547
  525MOL0     H69253   6.769   6.033  10.063  1.6079  1.7021  0.3441
  525MOL0     H69254   6.920   6.346  10.165 -3.1005  0.9558 -1.8278
  525MOL0     H69255   6.964   6.333   9.992 -0.4843 -0.2965 -0.8135
  525MOL0     H69256   6.985   6.068  10.060 -1.2308  0.6546  0.2151
  525MOL0     H69257   6.989   6.130  10.223  1.7080  1.8840  1.4168
  525MOL0     H69258   7.208   6.235  10.194  2.5926 -2.1565  0.9329
  525MOL0     H69259   7.216   6.080  10.164  0.2955  1.3884  2.7830
  525MOL0     H69260   7.192   6.295   9.944  1.3648  0.6475  1.1001
  525MOL0     H69261   7.221   6.117   9.912  2.5156  0.5103 -0.9935
  525MOL0     H69262   7.346   5.938  10.034 -0.9953  2.5413  2.1967
  525MOL0     H69263   7.554   5.796  10.069 -2.1251  0.3390  0.2209
  525MOL0     H69264   7.828   5.592  10.245 -1.8462 -3.3405  0.6545
  525MOL0     H69265   7.985   5.398  10.248  0.4396 -0.5810 -0.5884
  525MOL0     H69266   8.215   5.211  10.230 -4.0525  1.7491  1.2960
  525MOL0     H69267   8.224   5.386  10.208 -0.3709  0.7272 -1.5250
  525MOL0     H69268   8.360   5.365  10.005 -0.0472  0.1545 -0.6657
  525MOL0     H69269   8.379   5.193  10.025 -0.2642  0.9853 -0.9441
  525MOL0     H69270   8.469   5.206  10.245 -0.4014  2.0662  2.5175
  525MOL0     H69271   8.428   5.380  10.246  0.3488  1.2665 -0.9541
  525MOL0     H69272   8.682   5.303  10.187  0.7839  2.0769  0.8901
  525MOL0     H69273   8.601   5.267  10.034  1.0279  3.7737 -1.6106
  525MOL0     H69274   8.541   5.497   9.991 -2.0995  2.7917  2.4873
  525MOL0     H69275   8.714   5.469  10.031  1.4245  2.2696  2.5305
  525MOL0     H69276   8.673   5.563  10.257  2.4619  1.8754 -0.5117
  525MOL0     H69277   8.518   5.624  10.222  1.6270  2.3490  1.3396
  525MOL0     H69278   8.763   5.697  10.052 -0.9900 -0.1662 -1.8853
  525MOL0     H69279   8.594   5.759  10.024 -1.4781  0.0729  0.2641
  525MOL0     H69280   8.734   5.808  10.302 -0.6119 -0.8905 -0.8880
  525MOL0     H69281   8.581   5.878  10.246 -1.3390 -2.5843  0.3240
  525MOL0     H69282   8.057   5.427   9.836 -0.6954 -0.7687 -0.3651
  525MOL0     H69283   7.897   5.646   9.826  0.2330 -0.8982  0.1527
  525MOL0     H69284   7.813   6.138  10.008 -0.8010 -0.3657  1.9785
  525MOL0     H69285   7.611   6.270   9.942 -1.8185 -0.1401 -0.1589
  525MOL0     H69286   5.814   5.504   9.617 -0.3310  0.2218  3.1890
  525MOL0     H69287   5.710   5.420   9.403 -1.3474 -0.5086 -1.2932
  525MOL0     H69288   5.643   5.517   8.938 -0.4819 -1.5318 -0.9838
  525MOL0     H69289   5.539   5.390   8.754  1.1381 -1.1058  2.7010
  525MOL0     H69290   5.369   5.110   8.791 -4.8427 -4.0885 -2.6004
  525MOL0     H69291   5.449   5.205   8.663  0.0695  0.5521  0.6789
  525MOL0     H69292   5.339   5.001   8.584  2.0931  0.4474  2.5621
  525MOL0     H69293   5.187   5.054   8.638  0.2728 -1.1026  0.7202
  525MOL0     H69294   5.334   5.250   8.462 -0.5043  0.6984 -2.0306
  525MOL0     H69295   5.168   5.189   8.449 -0.0556 -2.1909 -1.3543
  525MOL0     H69296   5.279   4.990   8.349  1.1356 -0.0126 -2.4702
  525MOL0     H69297   5.270   5.140   8.263  0.7118  4.6494  0.6103
  525MOL0     H69298   5.687   5.096   8.273 -1.1303 -2.2022 -2.1353
  525MOL0     H69299   5.168   5.351   8.971  1.1958 -2.8999  4.3755
  525MOL0     H69300   5.256   5.469   9.150 -0.1781 -0.9517 -0.5174
  526MOL0     O69301   9.267  11.204   0.798  0.9016 -1.0746  0.4576
  526MOL0     C69302   9.362  11.259   0.736  0.6054  0.5630  0.3134
  526MOL0     O69303   9.463  11.198   0.663 -0.2659  0.1102 -0.6629
  526MOL0     C69304   9.431  11.079   0.616 -1.2293 -0.3310  0.0249
  526MOL0     C69305   9.528  10.982   0.622 -0.2502  0.0942 -0.3530
  526MOL0     C69306   9.495  10.850   0.575 -0.2778 -0.4276 -1.1746
  526MOL0     C69307   9.370  10.819   0.515 -0.3273  0.0009  0.6329
  526MOL0     O69308   9.326  10.687   0.484  1.2264 -1.0198  0.1477
  526MOL0     C69309   9.419  10.578   0.478  0.2671  0.4628  0.2678
  526MOL0     C69310   9.373  10.464   0.385  0.1064  0.0854 -0.0619
  526MOL0     C69311   9.361  10.495   0.235  0.4672 -1.0354 -0.1637
  526MOL0     C69312   9.315  10.367   0.169  0.0315 -0.5645 -0.1862
  526MOL0     C69313   9.289  10.385   0.008  0.5163 -0.3456  0.1922
  526MOL0     C69314   9.181  10.483  -0.019 -0.2120  0.7309 -0.3835
  526MOL0     C69315   9.034  10.441   0.014 -0.3078 -0.8598  0.4793
  526MOL0     C69316   8.931  10.551  -0.017  0.7040 -0.6757  0.0148
  526MOL0     N69317   8.788  10.510   0.003 -0.4644 -1.3382 -0.4598
  526MOL0     C69318   8.722  10.522   0.123 -0.3952 -0.7782  0.3784
  526MOL0     C69319   8.605  10.473   0.092 -0.1599  0.8819  0.6587
  526MOL0     C69320   8.472  10.483   0.168 -0.8427  0.0925  0.0323
  526MOL0     C69321   8.402  10.616   0.146 -0.7741 -0.2947  0.2219
  526MOL0     C69322   8.277  10.631   0.219  0.1330  0.8928 -0.8142
  526MOL0     C69323   8.207  10.770   0.188  0.0390 -0.2177 -0.4489
  526MOL0     O69324   8.082  10.781   0.260 -0.3812 -0.2479  0.3212
  526MOL0     C69325   7.997  10.885   0.242  0.8502 -0.2623 -0.9536
  526MOL0     C69326   8.028  11.000   0.161  0.2537 -0.0200 -0.1427
  526MOL0     C69327   7.937  11.107   0.154  0.0491  0.2543  0.0308
  526MOL0     C69328   7.815  11.108   0.222  0.3041 -1.2804 -0.1823
  526MOL0     C69329   7.715  11.229   0.197 -0.1847  0.9506  1.1324
  526MOL0     O69330   7.592  11.203   0.233  0.0437 -0.1782  0.5819
  526MOL0     C69331   7.509  11.303   0.266 -0.5577  0.3956  0.4777
  526MOL0     C69332   7.375  11.294   0.224 -0.5340  0.0556  0.4067
  526MOL0     C69333   7.291  11.404   0.243 -0.7184  0.5798  0.1367
  526MOL0     C69334   7.329  11.513   0.321 -0.5559 -0.5818  0.3934
  526MOL0     O69335   7.246  11.619   0.347 -0.4452  0.0102 -0.6777
  526MOL0     C69336   7.102  11.594   0.357 -0.0460 -0.3352  0.8018
  526MOL0     C69337   7.012  11.689   0.443 -0.9984  0.0322  0.2344
  526MOL0     C69338   7.002  11.828   0.385  1.0221 -0.7188 -0.2815
  526MOL0     C69339   6.930  11.925   0.479  0.2712 -0.5546 -0.5203
  526MOL0     C69340   6.785  11.886   0.526  0.8459 -0.3908  0.7693
  526MOL0     C69341   6.677  11.871   0.406  0.2280 -0.0381 -0.3416
  526MOL0     C69342   6.542  11.849   0.458 -0.1919 -0.3953 -0.3217
  526MOL0     C69343   6.459  11.792   0.336 -0.1065  0.0777 -0.1363
  526MOL0    Cl69344   6.464  11.882   0.188 -0.1246 -0.1241 -0.0977
  526MOL0     C69345   7.457  11.525   0.362 -0.3166  0.0860  0.4382
  526MOL0     C69346   7.547  11.423   0.340  0.4662  1.2192  0.1188
  526MOL0     O69347   7.761  11.328   0.149  1.3890 -0.1087 -0.0138
  526MOL0     C69348   7.781  10.992   0.290 -0.9696  0.5460 -0.4466
  526MOL0     C69349   7.866  10.876   0.295  0.4547  0.0833 -0.2934
  526MOL0     N69350   8.606  10.420  -0.034 -0.8558  0.2582 -0.3649
  526MOL0     N69351   8.717  10.449  -0.090 -0.3586 -0.0733 -0.7294
  526MOL0     C69352   9.271  10.912   0.518 -0.4984 -0.5141  0.2055
  526MOL0     C69353   9.304  11.042   0.564  0.6483 -0.0282  0.0141
  526MOL0     C69354   9.375  11.404   0.760 -0.7425 -0.4679 -0.4617
  526MOL0     C69355   9.484  11.478   0.711 -1.0587  0.1948 -0.1263
  526MOL0     C69356   9.499  11.610   0.732  0.0170  0.8233 -0.6921
  526MOL0     C69357   9.398  11.690   0.794 -0.7408  0.0723 -0.4126
  526MOL0     O69358   9.415  11.822   0.837  0.1869  0.6469  0.4679
  526MOL0     C69359   9.518  11.895   0.764 -0.7331  0.1011 -1.0908
  526MOL0     C69360   9.471  11.924   0.621  0.1512  0.1131  0.3150
  526MOL0     C69361   9.342  11.994   0.624  0.9315  0.1445 -0.0078
  526MOL0     C69362   9.296  12.033   0.480 -0.1377  0.5401  0.7430
  526MOL0     C69363   9.366  12.142   0.411  0.2167 -0.3444 -0.5503
  526MOL0     C69364   9.389  12.246   0.355 -0.1942  0.6651  0.3219
  526MOL0     C69365   9.294  11.621   0.843  1.6120 -1.0807  0.5355
  526MOL0     C69366   9.282  11.482   0.834 -0.0828  0.2451 -0.1547
  526MOL0     H69367   9.620  11.005   0.674 -0.9476  2.2727  0.0003
  526MOL0     H69368   9.575  10.777   0.580 -0.8737 -0.9771  1.6200
  526MOL0     H69369   9.430  10.544   0.582  0.2992  0.4342  0.2552
  526MOL0     H69370   9.518  10.616   0.449  0.3537  1.0478  1.2858
  526MOL0     H69371   9.282  10.416   0.425 -2.1572  5.2738  1.9343
  526MOL0     H69372   9.462  10.400   0.389  0.1529  0.1022 -0.7816
  526MOL0     H69373   9.452  10.542   0.197  0.9413 -1.9464 -0.1727
  526MOL0     H69374   9.283  10.572   0.231  1.6376  0.1567 -0.7926
  526MOL0     H69375   9.390  10.291   0.196 -1.0772 -2.2750 -1.6658
  526MOL0     H69376   9.220  10.332   0.211  0.2127 -1.1172 -0.2189
  526MOL0     H69377   9.253  10.287  -0.025 -1.0423  0.0017  0.7535
  526MOL0     H69378   9.376  10.417  -0.049  0.2207  2.1952  1.0356
  526MOL0     H69379   9.199  10.486  -0.127  2.2023 -3.2345 -0.2764
  526MOL0     H69380   9.211  10.578   0.026  0.3506  0.1007  0.6028
  526MOL0     H69381   9.008  10.346  -0.033  0.3563 -0.7963 -0.0423
  526MOL0     H69382   9.037  10.414   0.120  0.7384 -0.7968  0.4819
  526MOL0     H69383   8.940  10.558  -0.126 -3.4548 -0.7078 -0.4885
  526MOL0     H69384   8.944  10.637   0.049 -2.8012  0.2965 -0.3632
  526MOL0     H69385   8.745  10.577   0.214 -1.4242  0.3862 -0.0471
  526MOL0     H69386   8.490  10.464   0.274 -0.1526  1.1499  0.1125
  526MOL0     H69387   8.421  10.393   0.133 -1.1540 -0.8147  2.5744
  526MOL0     H69388   8.401  10.617   0.037 -1.7504  0.8629  0.2176
  526MOL0     H69389   8.473  10.691   0.185  0.0651 -2.4148  3.1112
  526MOL0     H69390   8.210  10.547   0.202  0.5801  0.2355  0.5698
  526MOL0     H69391   8.293  10.611   0.325  1.2754  2.9948 -0.5295
  526MOL0     H69392   8.198  10.761   0.079  1.6281 -2.6037 -0.4705
  526MOL0     H69393   8.274  10.852   0.215  1.5447 -1.5229 -0.0535
  526MOL0     H69394   8.125  11.003   0.112  1.5895 -0.4576  2.2829
  526MOL0     H69395   7.963  11.196   0.098 -0.4846  0.4114  0.0350
  526MOL0     H69396   7.341  11.210   0.164  0.3714  0.1732 -0.2891
  526MOL0     H69397   7.198  11.400   0.188 -1.2795  0.7500  1.0528
  526MOL0     H69398   7.088  11.494   0.399  3.1181 -0.5661  1.5188
  526MOL0     H69399   7.066  11.609   0.255  3.0574 -0.0472 -0.3582
  526MOL0     H69400   7.056  11.699   0.543  0.1484 -1.8974 -0.0398
  526MOL0     H69401   6.910  11.651   0.456 -1.7005  1.8991  0.6541
  526MOL0     H69402   6.942  11.822   0.293  2.6175 -1.1096 -1.3441
  526MOL0     H69403   7.102  11.864   0.358  1.2305 -1.5276 -0.6541
  526MOL0     H69404   6.995  11.945   0.565 -3.7048  2.7253  2.1138
  526MOL0     H69405   6.906  12.019   0.429  1.1864  0.2371  0.4877
  526MOL0     H69406   6.750  11.967   0.592  1.0720 -0.7516  1.3339
  526MOL0     H69407   6.781  11.793   0.583  4.0452  0.1152  2.0149
  526MOL0     H69408   6.694  11.777   0.353 -1.4785 -0.7169  0.2255
  526MOL0     H69409   6.685  11.951   0.332  3.3406  0.4445  0.3979
  526MOL0     H69410   6.540  11.780   0.543 -3.0246 -0.6718 -0.4953
  526MOL0     H69411   6.495  11.944   0.485 -1.2733 -0.5041 -1.6935
  526MOL0     H69412   6.353  11.771   0.353  0.1611  1.1716  3.5519
  526MOL0     H69413   6.499  11.692   0.314 -0.5688 -0.2377  0.4324
  526MOL0     H69414   7.493  11.616   0.410  3.1405 -1.5734  1.2845
  526MOL0     H69415   7.646  11.444   0.379 -0.7688  3.1890  2.4354
  526MOL0     H69416   7.682  10.988   0.336 -0.7313 -1.1805 -0.0284
  526MOL0     H69417   7.833  10.795   0.358  0.3769  1.9020  2.1158
  526MOL0     H69418   9.171  10.891   0.482 -0.7968  2.4401 -1.0018
  526MOL0     H69419   9.221  11.111   0.556  0.9511  0.1672 -1.9896
  526MOL0     H69420   9.561  11.422   0.657  1.6510 -1.2749  4.6542
  526MOL0     H69421   9.594  11.652   0.701 -0.1132  0.2478 -1.9452
  526MOL0     H69422   9.612  11.845   0.787 -1.0625  0.5473  1.4978
  526MOL0     H69423   9.536  11.996   0.801 -0.3609  0.3392 -1.9032
  526MOL0     H69424   9.536  11.995   0.569 -0.6472 -1.3300 -2.9763
  526MOL0     H69425   9.469  11.836   0.556  1.4403  0.6818 -0.5436
  526MOL0     H69426   9.356  12.084   0.683 -1.8198  0.0785  0.8635
  526MOL0     H69427   9.263  11.938   0.674  0.9072  0.2264  0.0458
  526MOL0     H69428   9.313  11.948   0.414  1.0663  1.8816 -0.7577
  526MOL0     H69429   9.187  12.044   0.481 -0.2614  0.1556 -1.8183
  526MOL0     H69430   9.398  12.346   0.318 -2.4441  1.1665  0.9626
  526MOL0     H69431   9.224  11.682   0.899  3.2321  0.5787  0.8363
  526MOL0     H69432   9.194  11.428   0.867 -0.9002 -0.0192 -2.5752
  527MOL0     O69433   5.199   2.455  10.311  0.4194 -0.3713 -0.4929
  527MOL0     C69434   5.108   2.377  10.329 -0.7493  0.6771  0.1292
  527MOL0     O69435   4.980   2.379  10.286 -0.0310  0.0067 -0.0248
  527MOL0     C69436   4.945   2.499  10.234 -0.2518  1.3684 -0.2541
  527MOL0     C69437   4.996   2.533  10.106  0.1330 -0.5648  0.6195
  527MOL0     C69438   4.952   2.645  10.040  1.0396  0.3640  0.2957
  527MOL0     C69439   4.864   2.733  10.106  0.2917  0.9014 -0.0227
  527MOL0     O69440   4.796   2.839  10.046  0.2232  0.7735 -0.2005
  527MOL0     C69441   4.871   2.899   9.938 -1.1816  0.4169  0.9774
  527MOL0     C69442   4.790   3.023   9.874  0.2011 -0.3526  0.2910
  527MOL0     C69443   4.839   3.084   9.741  0.8948  0.4335 -0.4183
  527MOL0     C69444   4.964   3.153   9.754 -0.7487  0.5417  0.2482
  527MOL0     C69445   4.959   3.264   9.865  0.4340  0.6624  0.8271
  527MOL0     C69446   5.071   3.377   9.855  0.1616  0.2880 -0.3381
  527MOL0     C69447   5.043   3.481   9.970  0.1101 -0.0980 -0.7060
  527MOL0     C69448   5.093   3.438  10.109 -0.3306 -0.0913 -0.7728
  527MOL0     N69449   4.998   3.362  10.195 -0.4831  0.0532  0.2570
  527MOL0     C69450   5.016   3.243  10.253  0.1709 -0.3491  0.4373
  527MOL0     C69451   4.888   3.205  10.296 -0.4321 -0.0834 -0.0720
  527MOL0     C69452   4.846   3.072  10.356  0.5663  1.1388  0.5300
  527MOL0     C69453   4.878   3.047  10.504 -0.1172 -0.0230  0.9777
  527MOL0     C69454   4.796   2.920  10.557  0.7522 -0.0996 -0.1372
  527MOL0     C69455   4.806   2.895  10.706  0.3410 -0.2999  0.4208
  527MOL0     O69456   4.936   2.894  10.759  0.5826 -0.9835 -0.5318
  527MOL0     C69457   4.936   2.859  10.895 -0.7329  0.2842  0.0953
  527MOL0     C69458   4.889   2.738  10.946  0.1888 -0.8391 -0.0861
  527MOL0     C69459   4.895   2.711  11.085  0.5267  0.8977 -0.4654
  527MOL0     C69460   4.949   2.807  11.171 -0.2522 -1.5242  0.3370
  527MOL0     C69461   4.955   2.792  11.319 -0.1439  0.5873 -0.0810
  527MOL0     O69462   4.933   2.663  11.362  0.8790  0.4892  1.0017
  527MOL0     C69463   4.937   2.638  11.496  0.2560 -0.1345 -0.0430
  527MOL0     C69464   5.046   2.600  11.576  0.6363 -0.3721 -0.0044
  527MOL0     C69465   5.033   2.586  11.715 -0.0617  0.2533  0.4410
  527MOL0     C69466   4.917   2.613  11.789 -0.1563 -0.2945  0.1707
  527MOL0     O69467   4.899   2.594  11.922  1.1052 -0.4584  0.0292
  527MOL0     C69468   5.013   2.612  12.000  0.6344 -0.1720 -0.2626
  527MOL0     C69469   4.970   2.646  12.149  0.6565 -0.8659  0.6812
  527MOL0     C69470   4.971   2.521  12.236  0.0882  0.0392  0.1247
  527MOL0     C69471   4.905   2.520  12.376 -0.4209 -0.0757  0.1542
  527MOL0     C69472   4.757   2.503  12.354  0.2286 -0.4735 -0.4246
  527MOL0     C69473   4.684   2.503  12.489  0.7742  0.1055 -0.8416
  527MOL0     C69474   4.530   2.496  12.456  0.2888 -0.6478  0.6858
  527MOL0     C69475   4.476   2.365  12.402  0.5026 -0.2863  0.3513
  527MOL0    Cl69476   4.295   2.392  12.370  0.4164  0.1431 -0.4361
  527MOL0     C69477   4.812   2.647  11.710  0.6034 -0.1342 -0.3806
  527MOL0     C69478   4.818   2.656  11.565  0.0950  0.7417  0.0197
  527MOL0     O69479   4.954   2.888  11.387  0.3513 -0.4435 -0.1607
  527MOL0     C69480   4.995   2.931  11.122 -0.0864 -1.3662  0.3716
  527MOL0     C69481   4.986   2.955  10.985 -0.2009 -0.0447  0.3345
  527MOL0     N69482   4.802   3.311  10.286  0.2384 -0.2952  1.0117
  527MOL0     N69483   4.874   3.402  10.224 -0.1105 -0.8823  0.2807
  527MOL0     C69484   4.824   2.709  10.233  0.6345  0.3925 -1.0724
  527MOL0     C69485   4.857   2.581  10.298 -0.4452 -1.1933  0.4914
  527MOL0     C69486   5.143   2.264  10.421 -0.1923  0.6616 -0.2424
  527MOL0     C69487   5.275   2.247  10.467 -0.2893 -0.0310  0.7849
  527MOL0     C69488   5.318   2.140  10.549  0.9767  0.1760 -0.2184
  527MOL0     C69489   5.226   2.046  10.586  0.3130 -0.9807 -0.2719
  527MOL0     O69490   5.243   1.945  10.677 -0.9216  0.5286 -0.2642
  527MOL0     C69491   5.360   1.867  10.647 -0.3713 -0.1214 -0.2727
  527MOL0     C69492   5.354   1.724  10.695 -0.8543 -0.4892  0.2706
  527MOL0     C69493   5.380   1.721  10.844  0.2655 -0.1482  0.2252
  527MOL0     C69494   5.511   1.766  10.892 -0.3785  0.1120  0.3150
  527MOL0     C69495   5.619   1.686  10.829 -0.1502  0.9633  0.3742
  527MOL0     C69496   5.702   1.612  10.771 -0.1110 -1.0143  0.1557
  527MOL0     C69497   5.091   2.066  10.539  0.4953 -0.3877 -0.6518
  527MOL0     C69498   5.044   2.175  10.464  0.6526  0.6173 -0.5822
  527MOL0     H69499   5.052   2.457  10.054  1.1132 -0.8043  1.9544
  527MOL0     H69500   4.981   2.670   9.939  0.8122  0.2633  0.2061
  527MOL0     H69501   4.890   2.849   9.843  0.1516  1.1027  0.8603
  527MOL0     H69502   4.968   2.917   9.984  0.9823 -1.9892 -2.2131
  527MOL0     H69503   4.788   3.096   9.955 -1.1105  1.9927 -1.7187
  527MOL0     H69504   4.691   2.979   9.859  0.5966 -1.4168  0.6514
  527MOL0     H69505   4.766   3.160   9.710  0.6446  0.4861  0.2638
  527MOL0     H69506   4.836   3.004   9.667  1.4386 -3.6161  3.5294
  527MOL0     H69507   5.047   3.086   9.778 -1.0437 -0.7708 -2.0699
  527MOL0     H69508   4.998   3.200   9.662  2.2196 -0.0903  0.9071
  527MOL0     H69509   4.959   3.216   9.963 -0.1116 -0.2498  0.3945
  527MOL0     H69510   4.863   3.317   9.866 -0.6091 -0.8812 -2.7030
  527MOL0     H69511   5.076   3.422   9.756  0.6564  1.3505  0.1601
  527MOL0     H69512   5.165   3.325   9.875 -0.3056 -0.9919 -1.2959
  527MOL0     H69513   5.096   3.575   9.949 -0.9473  0.7410  0.2888
  527MOL0     H69514   4.936   3.501   9.977  0.5517  3.0718 -1.6619
  527MOL0     H69515   5.116   3.535  10.155  0.2572  0.5001 -2.2376
  527MOL0     H69516   5.185   3.380  10.103 -1.2872 -1.5554 -1.6901
  527MOL0     H69517   5.099   3.175  10.236  0.4277 -0.0966  0.6670
  527MOL0     H69518   4.902   2.994  10.303 -0.0417  2.3237 -2.0213
  527MOL0     H69519   4.740   3.058  10.330  1.5669 -1.0950 -3.1857
  527MOL0     H69520   4.838   3.128  10.565 -0.6505  1.1070 -0.7711
  527MOL0     H69521   4.987   3.037  10.505 -0.0935  0.2824  1.2767
  527MOL0     H69522   4.690   2.930  10.533  0.2730  2.5884  2.5614
  527MOL0     H69523   4.839   2.838  10.498  2.1702  1.1876 -0.9871
  527MOL0     H69524   4.766   2.795  10.723  1.9505 -0.7952  1.5902
  527MOL0     H69525   4.744   2.975  10.748  1.0018  0.1124  0.6378
  527MOL0     H69526   4.851   2.665  10.875  0.5716  0.6760 -1.9415
  527MOL0     H69527   4.876   2.609  11.115  1.8727  1.0284  0.9619
  527MOL0     H69528   5.141   2.582  11.528 -0.2050  0.6951 -2.2024
  527MOL0     H69529   5.120   2.547  11.768 -0.2037 -4.2603 -2.0859
  527MOL0     H69530   5.077   2.692  11.963  1.5018  0.9969  3.3505
  527MOL0     H69531   5.075   2.522  11.996  0.8286 -0.0447 -0.1312
  527MOL0     H69532   4.878   2.704  12.148  0.3955 -1.2331 -1.0568
  527MOL0     H69533   5.039   2.715  12.197  2.1246 -0.2934 -2.0234
  527MOL0     H69534   5.074   2.490  12.257  0.4122  3.4212  5.8962
  527MOL0     H69535   4.919   2.450  12.172  0.8859 -0.5125  0.0802
  527MOL0     H69536   4.943   2.437  12.435  2.9929  0.6173 -0.8437
  527MOL0     H69537   4.933   2.613  12.427 -1.0560  0.0424  0.2947
  527MOL0     H69538   4.729   2.414  12.297  1.4710 -0.3064 -1.3360
  527MOL0     H69539   4.723   2.599  12.315 -1.6779 -0.1771  1.7608
  527MOL0     H69540   4.704   2.599  12.537 -0.7691 -1.5605  3.6170
  527MOL0     H69541   4.718   2.426  12.559  2.2270  1.5175  0.0782
  527MOL0     H69542   4.464   2.529  12.537  2.5727  1.6850  1.7292
  527MOL0     H69543   4.515   2.574  12.380 -0.6489 -2.0987 -0.6828
  527MOL0     H69544   4.498   2.293  12.481  0.2472  2.4538  3.0592
  527MOL0     H69545   4.524   2.339  12.307  2.2601  0.4006  1.0209
  527MOL0     H69546   4.720   2.669  11.764  0.3448 -0.9461 -0.4733
  527MOL0     H69547   4.724   2.685  11.519 -0.4851 -1.7731 -0.5408
  527MOL0     H69548   5.042   3.012  11.176 -2.6252  1.3967 -1.3111
  527MOL0     H69549   5.008   3.047  10.932  1.8275  0.4748  1.9429
  527MOL0     H69550   4.756   2.784  10.273 -1.0300 -0.2343 -2.5573
  527MOL0     H69551   4.804   2.542  10.384 -2.3524 -0.0811 -0.1158
  527MOL0     H69552   5.352   2.316  10.435 -2.3660  1.8307 -0.4824
  527MOL0     H69553   5.420   2.149  10.585  1.5373 -0.6016 -1.5202
  527MOL0     H69554   5.448   1.916  10.690 -1.1894  1.6921 -0.6110
  527MOL0     H69555   5.367   1.877  10.538 -0.0742  0.5346 -0.1965
  527MOL0     H69556   5.260   1.672  10.677 -1.2638  0.0825  0.7001
  527MOL0     H69557   5.436   1.680  10.637 -2.1915 -1.3038 -1.0875
  527MOL0     H69558   5.379   1.618  10.882  0.3392  0.3459  1.6157
  527MOL0     H69559   5.297   1.778  10.887  2.5868  0.8036  3.9497
  527MOL0     H69560   5.528   1.871  10.866 -0.1317 -0.1149 -0.4723
  527MOL0     H69561   5.520   1.758  11.001  0.9244 -2.3750  0.0820
  527MOL0     H69562   5.766   1.551  10.711  0.3137 -1.6524  1.2152
  527MOL0     H69563   5.016   2.001  10.582  0.7104 -1.8419 -2.3382
  527MOL0     H69564   4.944   2.185  10.422 -0.6315  0.0111  2.1212
  528MOL0     O69565   0.530   5.288   5.728 -0.0759 -0.2694  0.1960
  528MOL0     C69566   0.586   5.393   5.737  0.1078  0.6866  0.3537
  528MOL0     O69567   0.656   5.441   5.850  0.4640  0.1872  0.4222
  528MOL0     C69568   0.707   5.361   5.947 -0.5192 -0.2573  0.7043
  528MOL0     C69569   0.719   5.405   6.072 -0.2429  0.0438 -0.1977
  528MOL0     C69570   0.769   5.331   6.180 -0.5506 -0.0724 -0.3640
  528MOL0     C69571   0.820   5.209   6.162  0.5953  0.3117 -0.3630
  528MOL0     O69572   0.871   5.110   6.249 -0.5092 -0.4152  0.1974
  528MOL0     C69573   0.842   5.134   6.394 -0.1415 -0.4096  0.8536
  528MOL0     C69574   0.849   5.001   6.464 -0.1233  0.4556  0.8135
  528MOL0     C69575   0.957   5.001   6.573 -0.0905 -0.1046  0.6606
  528MOL0     C69576   1.012   4.858   6.605  0.4403  0.3049 -0.1352
  528MOL0     C69577   1.078   4.853   6.747  0.4938 -0.1954 -0.1932
  528MOL0     C69578   1.203   4.948   6.765  0.7748  1.0465  0.0607
  528MOL0     C69579   1.274   4.893   6.890  0.0164 -0.5405 -0.5452
  528MOL0     C69580   1.344   4.995   6.978 -0.7058  0.1394  0.0015
  528MOL0     N69581   1.361   4.934   7.109  0.0268  0.3988 -0.3189
  528MOL0     C69582   1.424   4.820   7.141  0.5566  0.0587  1.2627
  528MOL0     C69583   1.428   4.827   7.277  0.9177  0.0515 -0.2633
  528MOL0     C69584   1.500   4.720   7.359 -0.0065  0.2088  0.8984
  528MOL0     C69585   1.637   4.753   7.400 -0.0515 -0.5536  0.0957
  528MOL0     C69586   1.669   4.680   7.530 -0.4607 -0.2934 -0.3495
  528MOL0     C69587   1.640   4.755   7.654 -0.0211 -0.4719  0.2318
  528MOL0     O69588   1.669   4.677   7.768  0.7518  0.6562  0.5730
  528MOL0     C69589   1.787   4.675   7.837 -0.0424 -0.3233  0.1606
  528MOL0     C69590   1.912   4.716   7.792 -0.3826  0.4290  0.9694
  528MOL0     C69591   2.026   4.708   7.870  1.1020  0.0853  0.2655
  528MOL0     C69592   2.017   4.656   8.003  0.6669 -0.1510  0.6133
  528MOL0     C69593   2.140   4.652   8.095  1.3110 -0.1997 -0.4436
  528MOL0     O69594   2.257   4.685   8.048 -0.5787  0.2723 -0.3140
  528MOL0     C69595   2.360   4.671   8.139  0.0561 -0.3283 -1.1833
  528MOL0     C69596   2.376   4.766   8.240 -0.3951 -0.3850  0.5813
  528MOL0     C69597   2.468   4.741   8.341  0.1916  0.9808  0.3453
  528MOL0     C69598   2.543   4.623   8.346 -0.2559 -0.5193 -0.8213
  528MOL0     O69599   2.628   4.581   8.445  0.0957 -0.0749 -0.0907
  528MOL0     C69600   2.620   4.652   8.572 -0.1758  0.2959 -1.1048
  528MOL0     C69601   2.713   4.575   8.665  0.8068 -0.1998  0.0361
  528MOL0     C69602   2.754   4.658   8.788 -0.0206 -1.1837  0.7374
  528MOL0     C69603   2.829   4.562   8.881 -0.2255  0.4583  0.1057
  528MOL0     C69604   2.856   4.625   9.008  0.1464 -0.6661 -0.3721
  528MOL0     C69605   2.917   4.539   9.120  0.2141 -0.6849 -0.2302
  528MOL0     C69606   3.048   4.478   9.086 -0.9998 -0.6966  1.0252
  528MOL0     C69607   3.085   4.370   9.183  0.4178 -0.1996 -0.8429
  528MOL0    Cl69608   3.232   4.283   9.132 -0.0552  0.4015 -0.0721
  528MOL0     C69609   2.534   4.546   8.233 -0.0345  0.1445  0.3067
  528MOL0     C69610   2.439   4.559   8.138 -0.0919  0.3314  0.7707
  528MOL0     O69611   2.111   4.626   8.216  0.3314 -0.1726  0.0865
  528MOL0     C69612   1.892   4.598   8.042  0.1590  0.3525  0.7940
  528MOL0     C69613   1.783   4.606   7.959 -0.0629 -0.4863 -0.4649
  528MOL0     N69614   1.350   4.931   7.330  0.3280  0.3948 -0.2621
  528MOL0     N69615   1.312   4.990   7.223  0.5893 -0.8755 -1.2436
  528MOL0     C69616   0.823   5.161   6.027 -0.0380 -0.4650  0.4475
  528MOL0     C69617   0.761   5.235   5.924  0.1689  0.7177 -1.3990
  528MOL0     C69618   0.573   5.473   5.615 -0.4412 -0.5251  0.6686
  528MOL0     C69619   0.525   5.415   5.492 -0.6015  0.0560 -0.0279
  528MOL0     C69620   0.516   5.495   5.381  0.3486 -0.5154 -1.0915
  528MOL0     C69621   0.560   5.624   5.377 -0.2843  0.2534  0.7914
  528MOL0     O69622   0.574   5.687   5.258  0.0509 -0.8184  0.0822
  528MOL0     C69623   0.703   5.741   5.224  0.8161 -0.4210 -0.2654
  528MOL0     C69624   0.709   5.759   5.074 -0.0922  0.0395 -0.2443
  528MOL0     C69625   0.856   5.780   5.032  0.0903  0.7610 -0.4720
  528MOL0     C69626   0.931   5.902   5.088 -0.1596 -0.0402  0.9040
  528MOL0     C69627   1.075   5.918   5.055 -0.3721 -0.5892 -0.4715
  528MOL0     C69628   1.198   5.941   5.025 -0.2457  0.3298  0.9806
  528MOL0     C69629   0.606   5.687   5.492  0.2129  0.7225 -0.8138
  528MOL0     C69630   0.615   5.612   5.610 -0.6620  0.0423 -0.5548
  528MOL0     H69631   0.690   5.506   6.098  2.0032  0.9084 -0.8551
  528MOL0     H69632   0.767   5.373   6.281 -0.7911  3.1959 -1.5980
  528MOL0     H69633   0.740   5.172   6.401 -1.0670 -1.0053 -4.5424
  528MOL0     H69634   0.923   5.191   6.439 -0.9839  1.3793  0.1763
  528MOL0     H69635   0.880   4.921   6.396  0.3310  0.6417  0.7987
  528MOL0     H69636   0.751   4.973   6.502 -1.4582  2.3406 -1.0431
  528MOL0     H69637   0.908   5.038   6.664  3.0311  0.1421  2.3605
  528MOL0     H69638   1.044   5.058   6.539 -1.6146  0.2917 -2.9957
  528MOL0     H69639   0.932   4.785   6.616 -0.2504  1.3611  2.5791
  528MOL0     H69640   1.083   4.822   6.529  0.0553 -0.5309 -0.1154
  528MOL0     H69641   1.113   4.751   6.766  1.5023 -0.3313 -2.3773
  528MOL0     H69642   1.007   4.884   6.824 -2.1456 -3.0946 -1.2524
  528MOL0     H69643   1.170   5.048   6.794 -1.7570 -0.1190  1.5760
  528MOL0     H69644   1.271   4.936   6.681 -0.3773  2.1806 -1.0808
  528MOL0     H69645   1.197   4.843   6.948 -1.2116 -1.4540 -2.8236
  528MOL0     H69646   1.348   4.816   6.867  2.0788  1.7604 -2.1660
  528MOL0     H69647   1.282   5.085   6.976 -1.6979 -0.5325  0.1833
  528MOL0     H69648   1.446   5.022   6.948 -0.7332  0.5215  0.2459
  528MOL0     H69649   1.463   4.753   7.065 -0.3017  1.7215 -0.7598
  528MOL0     H69650   1.498   4.632   7.293  0.3198  0.6128  0.3410
  528MOL0     H69651   1.441   4.719   7.451 -1.1432  0.6328  0.1982
  528MOL0     H69652   1.636   4.862   7.410 -0.4485 -0.6346  0.9696
  528MOL0     H69653   1.700   4.719   7.317 -0.4319  0.2924 -0.5535
  528MOL0     H69654   1.623   4.581   7.538 -1.7472  0.4304  3.0951
  528MOL0     H69655   1.775   4.651   7.525 -0.0937  1.2342 -3.6196
  528MOL0     H69656   1.537   4.787   7.635  0.5515 -0.4840 -3.8545
  528MOL0     H69657   1.699   4.846   7.668  3.5096 -3.0572  5.1406
  528MOL0     H69658   1.907   4.769   7.697  0.8692 -0.6756  0.2572
  528MOL0     H69659   2.118   4.758   7.838  1.6624 -2.0669 -1.7696
  528MOL0     H69660   2.306   4.850   8.240 -0.4606 -0.4385  1.0022
  528MOL0     H69661   2.473   4.812   8.422  2.6454  0.3170  0.8817
  528MOL0     H69662   2.520   4.639   8.615 -0.7170  0.6565 -2.2363
  528MOL0     H69663   2.655   4.755   8.561  1.6115 -0.2803 -1.2506
  528MOL0     H69664   2.803   4.539   8.616  0.2675 -1.6738  0.0922
  528MOL0     H69665   2.661   4.483   8.692  1.0192 -0.5238 -0.6266
  528MOL0     H69666   2.660   4.687   8.835 -0.4521 -0.2809 -0.6216
  528MOL0     H69667   2.802   4.754   8.764 -2.3854 -0.6217 -2.5109
  528MOL0     H69668   2.781   4.465   8.889  3.3213 -1.3452  1.7118
  528MOL0     H69669   2.921   4.529   8.831  1.5977 -1.6949  4.4058
  528MOL0     H69670   2.758   4.650   9.050  0.7194 -1.1762  1.3789
  528MOL0     H69671   2.911   4.718   8.989 -0.0138  0.1376  2.5990
  528MOL0     H69672   2.843   4.463   9.148 -0.8726  0.8349  1.3110
  528MOL0     H69673   2.950   4.604   9.202  4.7431 -1.2115 -1.3606
  528MOL0     H69674   3.053   4.434   8.986  1.3406 -3.5110  2.2544
  528MOL0     H69675   3.125   4.556   9.083 -2.6029  0.9062 -0.8162
  528MOL0     H69676   2.999   4.302   9.187  1.9583 -2.3435  4.0590
  528MOL0     H69677   3.091   4.418   9.281  3.0781 -1.8449 -0.1051
  528MOL0     H69678   2.590   4.453   8.221 -3.3749 -1.7214 -2.7894
  528MOL0     H69679   2.445   4.480   8.065  1.8691  3.1807 -2.4491
  528MOL0     H69680   1.883   4.548   8.138  4.9256  0.8963  1.7719
  528MOL0     H69681   1.697   4.576   8.017  2.3649  0.0033  3.8251
  528MOL0     H69682   0.856   5.061   5.999 -1.7752 -0.5586 -1.5495
  528MOL0     H69683   0.745   5.195   5.825 -0.5080  1.0690 -1.4371
  528MOL0     H69684   0.494   5.311   5.497 -1.2637 -0.1255 -4.0942
  528MOL0     H69685   0.470   5.467   5.286  1.5909 -0.9633 -1.5854
  528MOL0     H69686   0.774   5.660   5.248  1.7543 -0.3213 -2.4731
  528MOL0     H69687   0.730   5.832   5.279 -1.9649  0.5628 -0.4218
  528MOL0     H69688   0.670   5.666   5.030  2.8946 -2.3073  1.6444
  528MOL0     H69689   0.652   5.845   5.039 -2.6904 -0.6115  2.0289
  528MOL0     H69690   0.868   5.791   4.924  2.5505  0.5572 -0.2874
  528MOL0     H69691   0.901   5.685   5.060 -1.4541  0.0867 -0.1813
  528MOL0     H69692   0.882   5.991   5.049 -1.5291 -1.4582 -0.7786
  528MOL0     H69693   0.917   5.894   5.196 -1.1234 -0.2626  0.7655
  528MOL0     H69694   1.301   5.952   4.997 -1.2864  1.1684 -3.2216
  528MOL0     H69695   0.635   5.791   5.480 -2.9512  1.6700 -0.9746
  528MOL0     H69696   0.653   5.660   5.700 -2.8517 -0.6155  0.8019
  529MOL0     O69697   7.628   6.365   5.138  0.2101  0.2479 -0.2729
  529MOL0     C69698   7.521   6.313   5.144 -0.3283  1.1653 -0.4336
  529MOL0     O69699   7.438   6.316   5.248  0.3532  0.3561  0.3055
  529MOL0     C69700   7.453   6.383   5.365  0.0782  1.0955 -0.3209
  529MOL0     C69701   7.393   6.312   5.470 -0.2056 -0.4372  0.4851
  529MOL0     C69702   7.395   6.363   5.595  0.1102  0.1616  0.9203
  529MOL0     C69703   7.451   6.488   5.626 -0.0359 -1.3947 -0.7541
  529MOL0     O69704   7.455   6.543   5.757 -0.4306  0.5921 -0.6593
  529MOL0     C69705   7.461   6.438   5.853  0.1982  0.5570  0.4362
  529MOL0     C69706   7.540   6.499   5.974  0.1118 -0.9029  0.5952
  529MOL0     C69707   7.468   6.611   6.050  0.9269 -0.0451 -0.0379
  529MOL0     C69708   7.317   6.615   6.053  0.4454  0.8258 -0.5459
  529MOL0     C69709   7.275   6.752   6.117  1.0642 -0.5529 -0.1726
  529MOL0     C69710   7.291   6.765   6.273 -0.5565 -0.2863 -0.4486
  529MOL0     C69711   7.157   6.751   6.350  0.2571  0.2110 -0.5776
  529MOL0     C69712   7.082   6.620   6.342  1.2487  0.4142 -0.1213
  529MOL0     N69713   6.974   6.604   6.438  0.1334 -0.2033 -0.0053
  529MOL0     C69714   6.837   6.627   6.426 -0.6322  0.4884 -0.0599
  529MOL0     C69715   6.772   6.586   6.542  0.7992  0.2570  0.6190
  529MOL0     C69716   6.619   6.575   6.562  0.3430 -0.0936 -0.1154
  529MOL0     C69717   6.557   6.719   6.553 -0.3537  0.4199 -0.0217
  529MOL0     C69718   6.428   6.739   6.627  1.4633  0.6907  0.4897
  529MOL0     C69719   6.365   6.878   6.623  0.1777  0.0470  0.1642
  529MOL0     O69720   6.453   6.971   6.678 -1.0060  0.2176 -0.5814
  529MOL0     C69721   6.400   7.094   6.712  0.0391 -0.0954  0.0916
  529MOL0     C69722   6.502   7.178   6.747 -0.4055 -1.3423 -0.3629
  529MOL0     C69723   6.474   7.314   6.772 -0.7089  0.4007 -1.0517
  529MOL0     C69724   6.341   7.358   6.780 -0.2898  0.5788 -0.3393
  529MOL0     C69725   6.325   7.502   6.804  0.6480 -0.1147  0.0530
  529MOL0     O69726   6.209   7.555   6.764 -0.0099 -0.4792  0.3997
  529MOL0     C69727   6.169   7.682   6.812 -0.8440 -0.1381  0.6053
  529MOL0     C69728   6.060   7.700   6.886  0.0963  0.2358 -0.0769
  529MOL0     C69729   6.017   7.818   6.929 -0.4145  0.0941 -0.1129
  529MOL0     C69730   6.091   7.935   6.893 -0.7959 -0.2958  0.8865
  529MOL0     O69731   6.038   8.047   6.951  0.3673  0.2393  0.4855
  529MOL0     C69732   6.120   8.168   6.963 -0.6318  0.9901 -0.7662
  529MOL0     C69733   6.104   8.274   6.857  0.7048 -1.2901  0.2466
  529MOL0     C69734   5.961   8.314   6.818  0.3957 -0.3423  0.2814
  529MOL0     C69735   5.969   8.426   6.714 -0.2972 -0.2210  0.0882
  529MOL0     C69736   5.829   8.488   6.671 -0.5958 -0.2394 -0.2838
  529MOL0     C69737   5.837   8.629   6.620 -1.1587 -0.2782 -0.0331
  529MOL0     C69738   5.886   8.642   6.473 -0.0127 -0.1440 -0.3840
  529MOL0     C69739   5.778   8.717   6.396  0.7274  0.4446  0.2572
  529MOL0    Cl69740   5.841   8.746   6.233  0.5618  0.7369  0.1634
  529MOL0     C69741   6.204   7.926   6.816  0.2528  0.3302 -0.3258
  529MOL0     C69742   6.242   7.795   6.772  0.0853  0.9486  1.7349
  529MOL0     O69743   6.410   7.570   6.855  0.2842  0.4189  0.2044
  529MOL0     C69744   6.235   7.275   6.743  0.0738 -0.8818 -0.4456
  529MOL0     C69745   6.268   7.142   6.691  0.1855 -0.1623 -0.1299
  529MOL0     N69746   6.869   6.556   6.626 -1.1192 -1.1522 -0.1064
  529MOL0     N69747   6.991   6.571   6.576  0.3934 -0.0301  0.7031
  529MOL0     C69748   7.496   6.566   5.512 -0.0600 -0.1552  0.0890
  529MOL0     C69749   7.511   6.511   5.381  0.5895  0.7415 -0.2389
  529MOL0     C69750   7.475   6.248   5.018  0.2995  1.2263  0.6367
  529MOL0     C69751   7.561   6.243   4.909 -0.7268 -0.2921  0.6064
  529MOL0     C69752   7.520   6.189   4.788  0.3373  0.3344 -0.0261
  529MOL0     C69753   7.398   6.113   4.772 -0.3345 -0.9998 -0.1538
  529MOL0     O69754   7.352   6.049   4.662  0.7893 -0.2526  0.2809
  529MOL0     C69755   7.451   6.020   4.572  0.2683  0.4513  0.0099
  529MOL0     C69756   7.395   5.935   4.462  0.8472  0.5513 -0.1145
  529MOL0     C69757   7.277   5.973   4.365 -0.0367 -0.0960 -0.1140
  529MOL0     C69758   7.251   5.861   4.253 -0.1566  0.2943 -0.1883
  529MOL0     C69759   7.367   5.831   4.165  0.0098  0.0277  0.4529
  529MOL0     C69760   7.455   5.805   4.087 -0.3070  0.5962 -0.5234
  529MOL0     C69761   7.307   6.125   4.880 -0.1173 -0.2550 -0.3194
  529MOL0     C69762   7.341   6.201   4.996 -0.6508  0.6769  0.2858
  529MOL0     H69763   7.352   6.212   5.459 -0.5828 -0.1150 -1.3257
  529MOL0     H69764   7.350   6.285   5.657 -0.0019 -0.4150  0.1259
  529MOL0     H69765   7.529   6.357   5.824  0.3540  0.2406  1.6555
  529MOL0     H69766   7.369   6.388   5.882  2.0295 -1.9400  2.3128
  529MOL0     H69767   7.632   6.540   5.931 -0.3417 -1.6752 -1.2318
  529MOL0     H69768   7.561   6.417   6.043  0.7606 -2.5330 -1.4141
  529MOL0     H69769   7.504   6.707   6.011  2.3034 -0.6806 -0.3802
  529MOL0     H69770   7.507   6.606   6.152 -1.4795  2.0464  1.1022
  529MOL0     H69771   7.278   6.611   5.951  1.4197 -0.4310 -0.8884
  529MOL0     H69772   7.278   6.527   6.107  3.0828 -0.8076 -1.1376
  529MOL0     H69773   7.168   6.768   6.101  0.8343  1.9845  2.8628
  529MOL0     H69774   7.335   6.830   6.069  3.9554 -0.6177  2.9338
  529MOL0     H69775   7.330   6.863   6.305 -0.7942 -0.4788  0.4565
  529MOL0     H69776   7.355   6.690   6.321  0.0362  0.7902  0.5080
  529MOL0     H69777   7.175   6.781   6.453  1.1720 -0.2968 -0.5847
  529MOL0     H69778   7.085   6.818   6.302  1.8617  1.2320 -1.6908
  529MOL0     H69779   7.152   6.536   6.352 -1.4153 -2.1367 -1.4068
  529MOL0     H69780   7.037   6.625   6.242  0.0001 -2.7487  0.1682
  529MOL0     H69781   6.772   6.660   6.346 -0.0172 -0.7195 -1.0852
  529MOL0     H69782   6.595   6.516   6.652 -2.0111 -1.1563 -1.3485
  529MOL0     H69783   6.578   6.517   6.479  0.3894 -0.3731  0.0533
  529MOL0     H69784   6.556   6.743   6.446  1.5763  0.3469 -0.1018
  529MOL0     H69785   6.634   6.784   6.596  1.3899 -1.5998  0.0990
  529MOL0     H69786   6.359   6.662   6.591  0.7747  1.9385 -0.9938
  529MOL0     H69787   6.451   6.732   6.733  1.7504  1.2239  0.4679
  529MOL0     H69788   6.288   6.882   6.701  0.7815  0.3868  0.7532
  529MOL0     H69789   6.325   6.905   6.524 -1.6057 -0.1960  0.7760
  529MOL0     H69790   6.602   7.136   6.750  1.6672  3.0407  1.5997
  529MOL0     H69791   6.565   7.368   6.795  1.6530 -4.1580  1.8902
  529MOL0     H69792   6.016   7.613   6.934  3.4140 -1.4157  0.2685
  529MOL0     H69793   5.925   7.832   6.986  0.4139 -1.6257  1.7551
  529MOL0     H69794   6.226   8.143   6.960 -0.3132  1.8055 -6.1500
  529MOL0     H69795   6.101   8.206   7.064  2.1532 -0.6667  0.4767
  529MOL0     H69796   6.156   8.240   6.767 -0.3145  0.7826 -1.1894
  529MOL0     H69797   6.140   8.368   6.900 -2.8399  0.5800 -0.5258
  529MOL0     H69798   5.897   8.351   6.898 -0.9774 -1.0430 -0.4618
  529MOL0     H69799   5.906   8.229   6.777  0.8005  0.4144 -1.9843
  529MOL0     H69800   6.033   8.496   6.768 -0.5581 -0.9332  1.3536
  529MOL0     H69801   6.033   8.391   6.632  2.4028 -0.3549  2.1236
  529MOL0     H69802   5.780   8.495   6.769  2.2617 -0.9667  1.3144
  529MOL0     H69803   5.768   8.421   6.609 -0.8931 -1.4572  1.2410
  529MOL0     H69804   5.899   8.680   6.695  0.1599 -0.1666 -1.1487
  529MOL0     H69805   5.751   8.696   6.620 -1.7828 -1.0468 -1.1179
  529MOL0     H69806   5.983   8.692   6.483 -0.3840  0.9101 -1.6892
  529MOL0     H69807   5.892   8.540   6.434 -2.4894 -0.5986  0.3027
  529MOL0     H69808   5.763   8.819   6.434 -0.7582  0.0345  0.7971
  529MOL0     H69809   5.692   8.651   6.391  0.1471  1.2421 -0.6055
  529MOL0     H69810   6.257   8.010   6.774  1.3643 -0.0552  0.2606
  529MOL0     H69811   6.315   7.764   6.697 -1.4583 -0.7600  0.8820
  529MOL0     H69812   6.134   7.314   6.735  0.2274 -0.7904 -2.8048
  529MOL0     H69813   6.193   7.075   6.651  3.0105 -1.9753 -2.8359
  529MOL0     H69814   7.537   6.664   5.536  1.7822 -1.3655  2.3986
  529MOL0     H69815   7.565   6.567   5.305  2.7605 -0.7602  0.1260
  529MOL0     H69816   7.660   6.287   4.921 -0.5975 -0.0833 -1.0287
  529MOL0     H69817   7.579   6.195   4.697  2.9143 -1.6943  1.3858
  529MOL0     H69818   7.532   5.963   4.618  0.3170 -0.3385 -1.0043
  529MOL0     H69819   7.496   6.106   4.522 -1.5356 -0.2048 -3.0295
  529MOL0     H69820   7.486   5.910   4.406  2.1792 -1.2170  2.6186
  529MOL0     H69821   7.363   5.841   4.508  1.8956 -0.1316 -0.7286
  529MOL0     H69822   7.308   6.068   4.319 -1.2436  1.3833  1.9411
  529MOL0     H69823   7.182   5.984   4.418  0.5152 -1.1562  1.1454
  529MOL0     H69824   7.196   5.778   4.299 -1.0665  2.4184  2.8540
  529MOL0     H69825   7.172   5.896   4.187  0.5201  4.0181  0.7564
  529MOL0     H69826   7.538   5.783   4.022 -0.6711  0.4687 -0.9451
  529MOL0     H69827   7.209   6.081   4.868  0.2189 -2.9474  4.4485
  529MOL0     H69828   7.253   6.213   5.059 -0.0574  0.3616  1.1983
  530MOL0     O69829  10.256   5.627   9.689 -0.1780  0.2647 -0.4767
  530MOL0     C69830  10.156   5.615   9.620  1.7997  0.5070 -0.6360
  530MOL0     O69831  10.035   5.557   9.669  0.5197  0.3855  0.0741
  530MOL0     C69832  10.030   5.529   9.799 -0.3025 -0.5327  0.3028
  530MOL0     C69833  10.025   5.623   9.896  0.0508 -1.2808 -0.0726
  530MOL0     C69834  10.047   5.594  10.033  0.3667 -0.0907  0.2361
  530MOL0     C69835  10.042   5.460  10.069 -0.1836 -0.7627  0.2963
  530MOL0     O69836  10.031   5.424  10.200 -0.7037  0.3063  0.0533
  530MOL0     C69837  10.075   5.504  10.311  0.2615  0.8945  0.2392
  530MOL0     C69838  10.196   5.446  10.395 -0.3774  0.1068 -0.5549
  530MOL0     C69839  10.191   5.290  10.413  0.0461  0.2116  0.8752
  530MOL0     C69840  10.289   5.250  10.517 -0.4579  0.3403  0.5787
  530MOL0     C69841  10.317   5.103  10.521 -0.4833 -0.3803  0.1965
  530MOL0     C69842  10.435   5.080  10.426 -0.0777  0.1768 -0.7150
  530MOL0     C69843  10.452   4.928  10.403  0.1717  0.4369  0.1974
  530MOL0     C69844  10.442   4.831  10.534 -0.5901  0.2192 -0.0874
  530MOL0     N69845  10.441   4.690  10.516  0.1773  1.2297  0.1004
  530MOL0     C69846  10.550   4.621  10.477  0.0539 -0.3069 -1.0648
  530MOL0     C69847  10.505   4.495  10.445  0.3641  0.3631 -0.1163
  530MOL0     C69848  10.587   4.376  10.397  0.7112  0.3701 -0.4738
  530MOL0     C69849  10.662   4.304  10.504 -0.4991  0.1733 -0.1983
  530MOL0     C69850  10.777   4.216  10.465  1.0518 -0.4977 -0.3107
  530MOL0     C69851  10.740   4.106  10.360  0.0881 -1.1981  0.1876
  530MOL0     O69852  10.852   4.017  10.354 -0.0229 -0.4625 -0.1344
  530MOL0     C69853  10.967   4.066  10.291  0.8034  0.7154 -0.4269
  530MOL0     C69854  11.072   3.966  10.294 -0.1836  0.5623 -0.8382
  530MOL0     C69855  11.195   3.989  10.230 -0.4556  0.1915  0.2606
  530MOL0     C69856  11.214   4.111  10.170  0.2718 -0.3503 -0.4508
  530MOL0     C69857  11.353   4.154  10.127 -0.6998  0.0782  0.1358
  530MOL0     O69858  11.454   4.096  10.175 -0.2309 -0.3455  0.1464
  530MOL0     C69859  11.579   4.146  10.152  0.3211  0.1923 -0.3936
  530MOL0     C69860  11.632   4.113  10.035 -0.1022  0.4168  0.5072
  530MOL0     C69861  11.759   4.157   9.998 -1.1728 -0.5438 -0.3958
  530MOL0     C69862  11.834   4.235  10.084 -1.2865  0.5370  0.0808
  530MOL0     O69863  11.971   4.255  10.073  0.0684 -0.2906 -0.1827
  530MOL0     C69864  12.018   4.274   9.943 -0.1474 -0.6723 -0.6934
  530MOL0     C69865  12.172   4.276   9.939 -0.0386 -0.3736 -0.5731
  530MOL0     C69866  12.251   4.237   9.822 -0.4278  0.5696 -0.0920
  530MOL0     C69867  12.215   4.323   9.705  0.6197 -0.0102  1.0620
  530MOL0     C69868  12.297   4.307   9.573 -1.0410 -0.1024  0.2887
  530MOL0     C69869  12.444   4.354   9.578 -0.0581  0.0626 -0.2502
  530MOL0     C69870  12.521   4.342   9.444  0.4196 -0.7877 -0.2352
  530MOL0     C69871  12.672   4.365   9.454 -0.0765 -0.8652  0.4370
  530MOL0    Cl69872  12.755   4.383   9.294 -0.0585 -0.6642 -0.0375
  530MOL0     C69873  11.785   4.260  10.214 -0.0573  0.1925  0.2752
  530MOL0     C69874  11.648   4.224  10.249 -0.6967 -0.5754 -0.1441
  530MOL0     O69875  11.352   4.245  10.044 -0.1646 -0.2432 -0.3092
  530MOL0     C69876  11.107   4.205  10.153  0.0746 -0.0861 -0.2346
  530MOL0     C69877  10.981   4.190  10.217  0.0960  0.7351 -0.0393
  530MOL0     N69878  10.369   4.496  10.455  0.3045 -0.3333  0.5438
  530MOL0     N69879  10.329   4.612  10.497 -0.0148  0.7816 -0.2630
  530MOL0     C69880  10.026   5.357   9.973 -0.2979 -0.4926 -0.1227
  530MOL0     C69881  10.021   5.389   9.834  0.4385 -0.5333 -0.2246
  530MOL0     C69882  10.153   5.651   9.480 -0.1671  0.5558  0.6136
  530MOL0     C69883  10.263   5.731   9.433 -0.1483  0.2344 -0.2630
  530MOL0     C69884  10.276   5.784   9.300  1.1722  0.2377  0.2178
  530MOL0     C69885  10.168   5.757   9.210 -0.5517  0.7338 -1.0029
  530MOL0     O69886  10.158   5.787   9.080 -0.0618 -0.2382 -0.0278
  530MOL0     C69887  10.271   5.845   9.002  0.2436  0.0011  0.2858
  530MOL0     C69888  10.367   5.738   8.962 -0.5618  0.0536 -0.0894
  530MOL0     C69889  10.499   5.797   8.914  0.0034  0.1636  0.0925
  530MOL0     C69890  10.590   5.689   8.853 -0.3327 -0.5304  0.7495
  530MOL0     C69891  10.663   5.620   8.962  0.6744 -0.1515  0.8654
  530MOL0     C69892  10.713   5.564   9.064 -0.0258 -0.4860  0.5513
  530MOL0     C69893  10.065   5.673   9.252  0.0703  0.4919  0.4647
  530MOL0     C69894  10.052   5.620   9.386 -0.6906  0.2956 -0.1496
  530MOL0     H69895  10.028   5.725   9.859  1.6549 -0.6284  1.6508
  530MOL0     H69896  10.052   5.682  10.096  0.9608  0.8068 -1.0174
  530MOL0     H69897   9.992   5.500  10.382  1.0891 -0.3916  1.1685
  530MOL0     H69898  10.107   5.607  10.290  0.8282  0.6774  0.0335
  530MOL0     H69899  10.186   5.483  10.498 -2.6859  2.9629 -1.6379
  530MOL0     H69900  10.295   5.478  10.361 -1.3168  2.7231 -1.0911
  530MOL0     H69901  10.220   5.237  10.322 -0.2136  0.4353  0.6589
  530MOL0     H69902  10.095   5.268  10.460 -0.0480  3.7101  2.6546
  530MOL0     H69903  10.383   5.306  10.512 -0.1868 -0.0691  1.0064
  530MOL0     H69904  10.239   5.278  10.611 -2.0134  1.8750 -0.6418
  530MOL0     H69905  10.232   5.044  10.488 -0.4835  0.2167 -0.9175
  530MOL0     H69906  10.346   5.072  10.622  1.9195  0.7800 -0.0516
  530MOL0     H69907  10.525   5.120  10.475 -0.2090  0.7413 -0.9222
  530MOL0     H69908  10.410   5.129  10.332  2.1752  2.0110 -0.4532
  530MOL0     H69909  10.369   4.903  10.336 -0.0507 -1.9363  1.2647
  530MOL0     H69910  10.552   4.933  10.359 -0.4622  1.2572 -1.2122
  530MOL0     H69911  10.354   4.855  10.594 -0.1931  2.7047 -0.4074
  530MOL0     H69912  10.524   4.861  10.601  0.9672 -2.0792 -0.8357
  530MOL0     H69913  10.654   4.650  10.471 -0.1449  0.2140 -2.2624
  530MOL0     H69914  10.658   4.418  10.324 -0.3847  1.1790 -1.1068
  530MOL0     H69915  10.515   4.309  10.349  2.0790 -0.5558 -1.3281
  530MOL0     H69916  10.583   4.245  10.551 -1.6411  0.8636 -1.1779
  530MOL0     H69917  10.706   4.376  10.574  1.6380 -0.1513 -1.1518
  530MOL0     H69918  10.857   4.272  10.415  3.4894 -2.7046  0.8867
  530MOL0     H69919  10.815   4.171  10.557  1.9033 -0.0390 -0.4239
  530MOL0     H69920  10.713   4.166  10.272  2.7345  0.5633  0.4614
  530MOL0     H69921  10.651   4.046  10.384  0.6946 -2.2437 -0.1048
  530MOL0     H69922  11.053   3.866  10.334  1.6824  0.8426  0.9350
  530MOL0     H69923  11.276   3.917  10.244 -0.5801  0.4458  2.6566
  530MOL0     H69924  11.564   4.054   9.974  0.3972  0.3683 -0.0139
  530MOL0     H69925  11.782   4.138   9.894  0.2896 -0.8704 -0.0443
  530MOL0     H69926  11.979   4.365   9.896  3.7832  0.8963 -1.2888
  530MOL0     H69927  11.992   4.198   9.870 -1.7865  1.3882 -2.4057
  530MOL0     H69928  12.209   4.204  10.013  1.5889  0.5006 -0.4845
  530MOL0     H69929  12.207   4.367   9.988 -4.3112 -0.0608  2.4912
  530MOL0     H69930  12.241   4.133   9.789  2.4443  0.0948  0.3050
  530MOL0     H69931  12.359   4.234   9.837 -0.6592 -2.6815  1.7397
  530MOL0     H69932  12.109   4.301   9.687  0.7561 -0.8003  1.1716
  530MOL0     H69933  12.212   4.427   9.740  0.4586  0.6663 -0.8404
  530MOL0     H69934  12.247   4.368   9.498  0.8858  1.5074  0.2296
  530MOL0     H69935  12.288   4.201   9.549  0.1279 -0.4732  1.3827
  530MOL0     H69936  12.486   4.295   9.660  1.8500  3.1778  1.2299
  530MOL0     H69937  12.441   4.459   9.611 -2.5433 -0.4912  1.6067
  530MOL0     H69938  12.513   4.242   9.400  5.3371 -4.2996  5.2099
  530MOL0     H69939  12.468   4.423   9.393  3.5425  2.0559  0.6677
  530MOL0     H69940  12.724   4.286   9.509  0.7684 -0.8819 -0.3695
  530MOL0     H69941  12.697   4.447   9.522 -1.4276 -1.1427  1.3058
  530MOL0     H69942  11.830   4.300  10.304 -0.5475 -2.5577  1.8557
  530MOL0     H69943  11.605   4.262  10.341 -1.3567 -1.9720  0.1502
  530MOL0     H69944  11.120   4.282  10.077 -3.9416 -1.2185 -2.3677
  530MOL0     H69945  10.905   4.264  10.196 -1.5919 -0.3960  1.7240
  530MOL0     H69946  10.009   5.253   9.996 -0.2656 -1.2757 -3.1910
  530MOL0     H69947  10.016   5.307   9.763 -1.3461 -3.4734  2.9548
  530MOL0     H69948  10.340   5.768   9.499 -0.9523 -0.9449  1.3895
  530MOL0     H69949  10.357   5.847   9.264  0.1210  0.2461 -2.3464
  530MOL0     H69950  10.328   5.924   9.052  0.2185  1.4045 -1.7505
  530MOL0     H69951  10.218   5.895   8.920 -1.7194 -0.0333  1.4659
  530MOL0     H69952  10.392   5.677   9.049  1.0479 -0.3449 -0.7841
  530MOL0     H69953  10.325   5.670   8.887  1.2383 -0.2300 -0.9130
  530MOL0     H69954  10.544   5.854   8.996 -0.8486  0.3182  0.4572
  530MOL0     H69955  10.463   5.866   8.838  0.0807  1.1769  0.9587
  530MOL0     H69956  10.544   5.620   8.781  0.6382 -2.3763  1.8322
  530MOL0     H69957  10.677   5.730   8.802  0.9311 -0.6838  2.6868
  530MOL0     H69958  10.732   5.547   9.168 -1.1313  1.9771  1.2133
  530MOL0     H69959   9.991   5.650   9.176 -2.1579  0.2789  2.5619
  530MOL0     H69960   9.965   5.559   9.408  1.2377 -2.1583  1.1728
  531MOL0     O69961   2.386   8.902  10.095  0.6230 -0.1697  0.6390
  531MOL0     C69962   2.384   8.781  10.090  0.4383 -0.6348 -0.3700
  531MOL0     O69963   2.357   8.705   9.979  0.6691 -0.5805  0.0814
  531MOL0     C69964   2.324   8.762   9.861  0.4534 -0.0128 -0.0949
  531MOL0     C69965   2.193   8.798   9.838 -0.8155  0.6761 -0.6471
  531MOL0     C69966   2.157   8.844   9.718  0.0716  0.2758  0.3360
  531MOL0     C69967   2.256   8.875   9.626  0.3812 -1.1732  0.4408
  531MOL0     O69968   2.231   8.936   9.498 -0.7464 -0.8131  0.1766
  531MOL0     C69969   2.098   8.977   9.459 -0.0239 -0.6453 -1.1161
  531MOL0     C69970   2.013   8.879   9.383  0.2898  0.3913 -0.7660
  531MOL0     C69971   1.862   8.930   9.378 -0.3575 -0.4091  0.0826
  531MOL0     C69972   1.788   8.821   9.291 -0.0140 -0.2583 -0.3990
  531MOL0     C69973   1.635   8.859   9.293  0.1588  0.2811 -0.3462
  531MOL0     C69974   1.553   8.749   9.227  0.5584 -0.1433 -0.0909
  531MOL0     C69975   1.558   8.612   9.293  0.9296  0.7651 -1.2140
  531MOL0     C69976   1.525   8.620   9.451  0.4744  0.2624  0.5783
  531MOL0     N69977   1.514   8.486   9.511  0.1709  0.0091  0.0623
  531MOL0     C69978   1.623   8.424   9.560  0.3894 -0.1793  0.5216
  531MOL0     C69979   1.573   8.322   9.620  1.3981  1.2299 -0.4945
  531MOL0     C69980   1.649   8.221   9.707 -0.8385 -0.3915 -0.1928
  531MOL0     C69981   1.697   8.296   9.829  0.3064  0.2632 -0.1003
  531MOL0     C69982   1.743   8.196   9.942 -0.2933 -0.6995 -0.3364
  531MOL0     C69983   1.814   8.270  10.047 -0.4107 -0.8694 -0.3390
  531MOL0     O69984   1.833   8.191  10.168  0.7952  0.2434  0.4115
  531MOL0     C69985   1.926   8.227  10.262  0.3349  0.3968  0.7139
  531MOL0     C69986   2.024   8.330  10.259 -1.0485  1.0175 -0.7001
  531MOL0     C69987   2.107   8.353  10.361  0.0090 -1.0375  0.5186
  531MOL0     C69988   2.112   8.276  10.475 -0.5306 -0.5581 -0.3287
  531MOL0     C69989   2.208   8.310  10.582  0.3892 -0.2017 -0.9829
  531MOL0     O69990   2.218   8.217  10.679 -0.1730 -0.2285 -0.5175
  531MOL0     C69991   2.314   8.251  10.780 -0.7043  0.0289  0.1066
  531MOL0     C69992   2.298   8.373  10.845  0.2912 -0.7360  0.3141
  531MOL0     C69993   2.373   8.402  10.960 -0.3085 -0.5622  1.0044
  531MOL0     C69994   2.463   8.302  11.011  1.0048 -0.8692  0.6560
  531MOL0     O69995   2.543   8.326  11.115 -0.4608 -0.6228 -0.3225
  531MOL0     C69996   2.530   8.449  11.200  0.1480  1.1595 -0.3872
  531MOL0     C69997   2.640   8.448  11.311 -0.6781  0.4384 -0.6337
  531MOL0     C69998   2.785   8.435  11.251 -0.1585  0.9533  0.1663
  531MOL0     C69999   2.877   8.440  11.365  0.1713 -1.0745  0.0317
  531MOL0     C70000   3.027   8.420  11.331  0.6894 -0.4536  0.1427
  531MOL0     C70001   3.077   8.276  11.349  0.3463  0.0592 -0.1589
  531MOL0     C70002   3.188   8.231  11.252  0.0659 -0.1837  0.8897
  531MOL0     C70003   3.215   8.075  11.252 -0.5659 -1.3877  0.7088
  531MOL0    Cl70004   3.069   7.977  11.275 -0.3152  0.6166 -0.0095
  531MOL0     C70005   2.482   8.190  10.937  0.8302 -0.7080 -0.3753
  531MOL0     C70006   2.414   8.158  10.820  1.1193 -1.5239  0.0080
  531MOL0     O70007   2.263   8.415  10.580 -0.2497  0.6260  0.0261
  531MOL0     C70008   2.020   8.169  10.489  0.3436  0.2848  0.8680
  531MOL0     C70009   1.921   8.144  10.384  0.4731  0.6759  0.4255
  531MOL0     N70010   1.432   8.329   9.610  0.9974 -0.1940  0.0074
  531MOL0     N70011   1.402   8.441   9.553 -0.0149  0.0326 -0.1505
  531MOL0     C70012   2.388   8.850   9.660 -0.1670  0.2260  0.4201
  531MOL0     C70013   2.425   8.790   9.780 -0.5139  0.7142  0.7022
  531MOL0     C70014   2.434   8.701  10.210  0.3933 -0.2526  0.2431
  531MOL0     C70015   2.454   8.562  10.199 -0.2918  0.3619 -0.4543
  531MOL0     C70016   2.495   8.490  10.305  0.4225 -0.2811  0.2337
  531MOL0     C70017   2.516   8.551  10.425 -0.0489 -0.4964  0.5208
  531MOL0     O70018   2.568   8.458  10.519 -0.1949 -0.0289  0.2927
  531MOL0     C70019   2.602   8.518  10.648 -0.3235  0.0782  0.0054
  531MOL0     C70020   2.679   8.427  10.736  1.1706 -0.2207  0.1474
  531MOL0     C70021   2.773   8.484  10.840  0.3621  0.0988  0.6832
  531MOL0     C70022   2.899   8.390  10.856  0.4685 -0.9788 -1.0201
  531MOL0     C70023   2.869   8.259  10.915 -0.8989 -1.1800 -0.0510
  531MOL0     C70024   2.825   8.156  10.962 -0.7694 -0.6493 -0.2440
  531MOL0     C70025   2.484   8.690  10.446  0.0353  0.1927 -0.6434
  531MOL0     C70026   2.438   8.769  10.337 -0.6922  0.1811 -0.1076
  531MOL0     H70027   2.108   8.782   9.904 -1.3389  1.2605 -1.1689
  531MOL0     H70028   2.049   8.843   9.707  0.1541  2.8584 -1.6323
  531MOL0     H70029   2.117   9.064   9.396  3.6429  1.8315  2.8422
  531MOL0     H70030   2.045   9.012   9.548 -1.3123 -1.9655 -1.3114
  531MOL0     H70031   2.020   8.783   9.435 -0.9761  0.8853  0.3872
  531MOL0     H70032   2.046   8.883   9.279 -0.2452  2.4100 -0.9029
  531MOL0     H70033   1.864   9.018   9.314 -2.1164  0.2177  0.8396
  531MOL0     H70034   1.811   8.957   9.470  2.3252  1.3379  1.1886
  531MOL0     H70035   1.844   8.815   9.198  3.5776  0.4690  1.5348
  531MOL0     H70036   1.797   8.732   9.354 -1.1179  1.4634  2.4379
  531MOL0     H70037   1.618   8.957   9.248 -3.4904  1.0557  2.2917
  531MOL0     H70038   1.596   8.860   9.395  0.7729 -2.4638  0.0017
  531MOL0     H70039   1.584   8.740   9.122  1.2450 -1.8009  0.2157
  531MOL0     H70040   1.448   8.777   9.223 -0.2008 -2.7576 -2.4145
  531MOL0     H70041   1.498   8.545   9.232  0.8559 -0.7958  0.4669
  531MOL0     H70042   1.657   8.566   9.283 -0.0332 -2.1401  1.1545
  531MOL0     H70043   1.426   8.666   9.462  0.9802  0.7265  4.3730
  531MOL0     H70044   1.600   8.678   9.505  0.2843 -0.1939  1.3553
  531MOL0     H70045   1.728   8.454   9.555  0.9039 -2.0710 -1.1584
  531MOL0     H70046   1.726   8.174   9.645 -0.3800  0.4231 -0.2448
  531MOL0     H70047   1.578   8.147   9.747 -0.0804  0.1753  2.4069
  531MOL0     H70048   1.610   8.358   9.854 -1.5066 -1.9436 -0.6546
  531MOL0     H70049   1.778   8.366   9.810  0.8917  0.4739  2.6508
  531MOL0     H70050   1.659   8.139   9.983 -3.8708  3.3777 -1.3963
  531MOL0     H70051   1.816   8.122   9.908  1.0340  0.0049  0.8481
  531MOL0     H70052   1.751   8.356  10.068 -1.3174 -1.1692 -1.7082
  531MOL0     H70053   1.907   8.289   9.993 -1.6115  2.1757 -1.5308
  531MOL0     H70054   2.024   8.393  10.171 -1.5136  0.9409 -0.7583
  531MOL0     H70055   2.172   8.438  10.343 -0.3840 -0.9582 -0.6040
  531MOL0     H70056   2.218   8.434  10.804 -2.9639 -4.3512  0.7060
  531MOL0     H70057   2.385   8.505  10.995  3.1339  0.6570 -2.9882
  531MOL0     H70058   2.435   8.443  11.253  0.7444  0.4494  0.6487
  531MOL0     H70059   2.544   8.539  11.140 -0.1249  2.6876  1.7260
  531MOL0     H70060   2.628   8.373  11.390 -3.1297  2.7228  1.3430
  531MOL0     H70061   2.631   8.544  11.362  0.2948 -1.4760  3.5515
  531MOL0     H70062   2.801   8.518  11.181 -4.4848  2.0258  0.1205
  531MOL0     H70063   2.814   8.340  11.206 -1.5782  1.0893 -1.1327
  531MOL0     H70064   2.869   8.541  11.405 -1.1028 -0.6108 -1.3205
  531MOL0     H70065   2.845   8.366  11.439  0.3461 -1.4672 -0.2749
  531MOL0     H70066   3.075   8.479  11.409 -0.7049  0.8991  0.0128
  531MOL0     H70067   3.053   8.455  11.231 -1.9197  1.3509 -0.0035
  531MOL0     H70068   2.992   8.209  11.331  0.3449  0.4832 -1.9651
  531MOL0     H70069   3.112   8.253  11.450 -0.0135 -0.6079 -0.1812
  531MOL0     H70070   3.157   8.251  11.149 -0.1343  1.0220  1.1647
  531MOL0     H70071   3.269   8.302  11.271  1.5357 -1.5084 -0.1649
  531MOL0     H70072   3.296   8.063  11.324 -0.0954  0.5541  0.5647
  531MOL0     H70073   3.258   8.053  11.154 -1.2812 -4.7334  1.0256
  531MOL0     H70074   2.565   8.130  10.972  1.1024  0.6260  1.4156
  531MOL0     H70075   2.440   8.067  10.768 -2.4494 -1.9743 -1.2783
  531MOL0     H70076   2.017   8.121  10.586 -2.9005  2.8047  2.2147
  531MOL0     H70077   1.840   8.072  10.391 -1.1221  2.1152 -1.7811
  531MOL0     H70078   2.473   8.861   9.593  1.3757 -1.4331  2.0297
  531MOL0     H70079   2.531   8.772   9.796 -0.5035  1.5262  1.6392
  531MOL0     H70080   2.446   8.512  10.103  0.8016  2.5556 -1.7627
  531MOL0     H70081   2.507   8.384  10.284  0.0048 -0.4301  0.7525
  531MOL0     H70082   2.514   8.549  10.707  1.2994 -0.5560  2.9608
  531MOL0     H70083   2.662   8.607  10.625  1.0806 -1.0248 -0.6924
  531MOL0     H70084   2.622   8.354  10.794  1.8140  0.9850  2.4225
  531MOL0     H70085   2.726   8.363  10.661  0.1986 -1.2141  0.3638
  531MOL0     H70086   2.717   8.489  10.934 -1.4119  2.4061 -0.3728
  531MOL0     H70087   2.808   8.582  10.805  1.4221 -1.0062 -1.5389
  531MOL0     H70088   2.946   8.399  10.758 -0.0939  1.3571 -1.1461
  531MOL0     H70089   2.965   8.442  10.926 -0.8690  0.7271 -0.9445
  531MOL0     H70090   2.808   8.060  11.007  2.6423  0.5922  4.5088
  531MOL0     H70091   2.487   8.734  10.546 -0.7528 -0.7676 -0.1817
  531MOL0     H70092   2.422   8.876  10.343  0.5831  0.5231 -1.7796
  532MOL0     O70093  11.125   6.921   2.269 -0.4010  0.2245 -0.2362
  532MOL0     C70094  11.063   7.019   2.222 -0.1378  0.6995 -0.3315
  532MOL0     O70095  11.025   7.134   2.288  0.1408 -0.0692  0.1469
  532MOL0     C70096  11.066   7.172   2.414 -0.6430 -0.6588 -0.2950
  532MOL0     C70097  11.036   7.304   2.456  1.1868  0.1442  1.2165
  532MOL0     C70098  11.066   7.345   2.583  1.3534  0.1544  0.2222
  532MOL0     C70099  11.117   7.246   2.678  0.0397 -0.2924  0.9320
  532MOL0     O70100  11.172   7.255   2.810 -0.5314 -0.1247  1.0715
  532MOL0     C70101  11.180   7.393   2.857  0.2961  0.3527  0.4319
  532MOL0     C70102  11.219   7.379   3.001 -0.1586  1.1196 -0.5104
  532MOL0     C70103  11.368   7.330   3.013  0.1325  0.3584  0.4424
  532MOL0     C70104  11.399   7.280   3.155 -1.2232 -1.6350 -0.2926
  532MOL0     C70105  11.373   7.402   3.246 -0.4700 -0.1527 -0.9510
  532MOL0     C70106  11.432   7.370   3.383 -0.7958 -0.2218  0.0589
  532MOL0     C70107  11.402   7.470   3.492 -0.4652  0.8410  0.1903
  532MOL0     C70108  11.459   7.414   3.626 -0.0053 -0.0224  1.4881
  532MOL0     N70109  11.452   7.528   3.719 -0.4496  0.0067  0.3325
  532MOL0     C70110  11.367   7.547   3.825  0.3420 -0.2174 -0.0527
  532MOL0     C70111  11.408   7.662   3.891  0.0430  0.3072  0.2410
  532MOL0     C70112  11.359   7.711   4.025 -0.2498 -0.4322  0.2767
  532MOL0     C70113  11.373   7.609   4.139 -0.5699 -0.4981 -0.8580
  532MOL0     C70114  11.511   7.616   4.210 -0.1909 -1.1274 -1.0554
  532MOL0     C70115  11.533   7.748   4.300  0.1237 -0.1215 -0.0686
  532MOL0     O70116  11.440   7.767   4.413  0.7332 -0.2911  0.8471
  532MOL0     C70117  11.487   7.737   4.537 -2.0845 -0.1158 -0.5244
  532MOL0     C70118  11.594   7.662   4.580  0.6462  0.6165  0.5140
  532MOL0     C70119  11.602   7.608   4.707 -0.5270  0.8692  0.6664
  532MOL0     C70120  11.507   7.630   4.802  0.3660  0.7552 -0.4018
  532MOL0     C70121  11.511   7.577   4.938 -0.3522 -0.0114  0.1848
  532MOL0     O70122  11.437   7.635   5.024  0.6944  0.2038 -0.1890
  532MOL0     C70123  11.435   7.607   5.157  0.8039  0.1092 -0.0622
  532MOL0     C70124  11.321   7.641   5.233  0.1788  0.8644  0.3927
  532MOL0     C70125  11.326   7.612   5.366 -0.5739 -0.6760 -0.7926
  532MOL0     C70126  11.437   7.587   5.442  0.0950 -0.3064  0.0043
  532MOL0     O70127  11.442   7.582   5.579  0.4384 -0.4255 -0.2667
  532MOL0     C70128  11.508   7.474   5.643 -0.2689  1.0894 -1.1395
  532MOL0     C70129  11.625   7.533   5.730 -1.1543  0.3285  0.3316
  532MOL0     C70130  11.589   7.615   5.861 -0.7659 -0.6148  0.9197
  532MOL0     C70131  11.528   7.524   5.965  0.0381 -0.3720  0.1454
  532MOL0     C70132  11.517   7.608   6.094 -0.5263  0.3330 -0.4547
  532MOL0     C70133  11.652   7.655   6.152  0.2979  0.5469 -0.7900
  532MOL0     C70134  11.633   7.741   6.284 -0.2544  0.3566  0.1207
  532MOL0     C70135  11.760   7.779   6.346 -0.1668 -0.4714 -0.0149
  532MOL0    Cl70136  11.848   7.624   6.393 -0.0375  0.6601 -0.0806
  532MOL0     C70137  11.556   7.565   5.363  0.5211 -0.2518  0.8785
  532MOL0     C70138  11.551   7.569   5.228 -0.2250  0.5678  0.3788
  532MOL0     O70139  11.563   7.464   4.948  0.1638 -0.7209 -0.5418
  532MOL0     C70140  11.396   7.705   4.763  0.9860 -0.3954  0.5697
  532MOL0     C70141  11.389   7.759   4.631  0.2464  0.2479  0.5390
  532MOL0     N70142  11.513   7.714   3.820  0.4892  0.2852 -0.3279
  532MOL0     N70143  11.545   7.632   3.729 -0.5554 -0.6614  0.3170
  532MOL0     C70144  11.141   7.120   2.636  0.7996  0.0226 -0.7489
  532MOL0     C70145  11.111   7.082   2.508  0.5053  0.2152 -0.9600
  532MOL0     C70146  11.009   7.006   2.082 -0.8336 -0.1487 -0.7531
  532MOL0     C70147  10.976   7.125   2.007 -0.3191  0.2495 -0.4673
  532MOL0     C70148  10.926   7.099   1.879  0.6852 -0.6966  0.9982
  532MOL0     C70149  10.895   6.968   1.821 -0.1385 -1.0335  0.4747
  532MOL0     O70150  10.827   6.989   1.696 -0.4802 -0.2931 -0.0606
  532MOL0     C70151  10.769   6.859   1.651 -0.1333 -0.3129  0.4812
  532MOL0     C70152  10.679   6.871   1.522  0.3663  0.0018  0.2170
  532MOL0     C70153  10.756   6.933   1.415 -0.6692 -0.1479  0.0500
  532MOL0     C70154  10.679   6.963   1.291 -0.0434 -0.1750  0.0835
  532MOL0     C70155  10.750   7.046   1.200  0.3188  0.2165 -0.1132
  532MOL0     C70156  10.824   7.117   1.141  0.7350 -0.5301  0.2848
  532MOL0     C70157  10.940   6.858   1.896  0.7784 -0.3741  0.5375
  532MOL0     C70158  10.997   6.879   2.023 -0.5540  0.2117 -1.1531
  532MOL0     H70159  10.982   7.361   2.381 -0.3676 -3.1409 -0.3682
  532MOL0     H70160  11.077   7.449   2.610  1.0667 -0.7001  4.3162
  532MOL0     H70161  11.091   7.455   2.842  0.4987  0.0065 -2.9785
  532MOL0     H70162  11.262   7.451   2.815 -0.1315  0.6929  0.0530
  532MOL0     H70163  11.155   7.307   3.053  1.2978 -2.2796 -3.0355
  532MOL0     H70164  11.211   7.479   3.043  1.2487  0.6934  0.8495
  532MOL0     H70165  11.433   7.412   2.981 -0.3649  1.6405  2.5545
  532MOL0     H70166  11.391   7.245   2.948  0.5328  1.0425 -0.3244
  532MOL0     H70167  11.339   7.196   3.195 -1.2986  0.0222  3.5559
  532MOL0     H70168  11.504   7.253   3.163 -0.6997  0.3302 -0.2169
  532MOL0     H70169  11.266   7.425   3.253 -0.5726 -0.7209 -0.4488
  532MOL0     H70170  11.404   7.499   3.207 -1.4227  1.0455  1.0984
  532MOL0     H70171  11.540   7.363   3.369 -0.8761 -0.5971 -0.3937
  532MOL0     H70172  11.387   7.274   3.412  1.9979 -1.4123  0.8442
  532MOL0     H70173  11.457   7.564   3.479 -2.2264  1.9973  0.7410
  532MOL0     H70174  11.295   7.494   3.488 -0.5314  0.4604 -0.4115
  532MOL0     H70175  11.561   7.376   3.611  0.2603  0.4431  2.0817
  532MOL0     H70176  11.406   7.328   3.668 -4.4021  2.4450  1.5751
  532MOL0     H70177  11.282   7.482   3.844 -0.6347  0.6873 -1.2227
  532MOL0     H70178  11.252   7.732   4.025 -0.5334 -1.7974  0.4080
  532MOL0     H70179  11.418   7.800   4.050  0.8777 -0.4905 -1.9129
  532MOL0     H70180  11.358   7.510   4.093  2.1655 -1.2453 -0.3074
  532MOL0     H70181  11.296   7.618   4.216  2.6924 -2.2673  2.9319
  532MOL0     H70182  11.511   7.527   4.274 -0.1947 -1.1676 -1.1110
  532MOL0     H70183  11.595   7.598   4.141  1.2279 -0.2849  0.3874
  532MOL0     H70184  11.497   7.834   4.242  0.6227  1.4611  1.8395
  532MOL0     H70185  11.637   7.750   4.333  0.4327  3.3639 -0.8293
  532MOL0     H70186  11.671   7.638   4.507 -0.3367 -1.0356 -0.0335
  532MOL0     H70187  11.698   7.558   4.715 -2.3345 -3.4140 -1.1364
  532MOL0     H70188  11.236   7.681   5.180 -1.6186  0.9621  3.1579
  532MOL0     H70189  11.237   7.634   5.426 -1.0672  0.2129 -1.8226
  532MOL0     H70190  11.550   7.401   5.573  1.1785 -1.7183  2.3642
  532MOL0     H70191  11.441   7.426   5.715  1.5991  0.8534  0.4945
  532MOL0     H70192  11.680   7.598   5.661 -3.7883  0.9008 -1.3625
  532MOL0     H70193  11.694   7.456   5.765 -0.0721 -0.9071 -3.9465
  532MOL0     H70194  11.522   7.692   5.824  0.0910 -0.2952 -0.0040
  532MOL0     H70195  11.680   7.665   5.896 -0.3589  0.0482 -0.9502
  532MOL0     H70196  11.424   7.503   5.941 -0.3955  0.6949  1.0233
  532MOL0     H70197  11.592   7.438   5.986  1.0266  1.1503  4.2621
  532MOL0     H70198  11.479   7.539   6.169  0.2781 -1.3744 -1.5441
  532MOL0     H70199  11.462   7.702   6.080  1.4007  1.3690 -1.6288
  532MOL0     H70200  11.706   7.718   6.081  3.8048  1.0456  2.0251
  532MOL0     H70201  11.723   7.576   6.177  0.9683  2.0115  2.6351
  532MOL0     H70202  11.576   7.830   6.260  0.6334  0.2121 -2.8967
  532MOL0     H70203  11.570   7.673   6.343  0.2782  0.7022  1.1049
  532MOL0     H70204  11.748   7.844   6.433 -0.7577 -2.5054  1.4929
  532MOL0     H70205  11.821   7.837   6.276  1.9708 -1.3393  1.0747
  532MOL0     H70206  11.648   7.547   5.417  1.3019 -0.3226 -0.4387
  532MOL0     H70207  11.640   7.543   5.171 -0.1171  1.3130  0.1925
  532MOL0     H70208  11.306   7.721   4.820  0.5155 -0.3241 -0.1861
  532MOL0     H70209  11.303   7.818   4.601  1.9281  2.0577 -0.9505
  532MOL0     H70210  11.199   7.056   2.702  3.0753  2.4998 -0.1646
  532MOL0     H70211  11.139   6.977   2.499 -1.3789 -1.2304  4.9491
  532MOL0     H70212  10.994   7.222   2.053 -0.4895  0.7789 -1.4956
  532MOL0     H70213  10.911   7.181   1.809 -0.8741 -2.2652 -0.6150
  532MOL0     H70214  10.712   6.819   1.735 -0.3073 -2.5810 -0.6573
  532MOL0     H70215  10.856   6.795   1.634  1.8453  2.3959 -0.3067
  532MOL0     H70216  10.642   6.770   1.504 -1.1806  0.4301  0.8971
  532MOL0     H70217  10.592   6.933   1.542  1.4217  0.9654  2.1971
  532MOL0     H70218  10.849   6.879   1.397 -0.5372  0.0238  0.2071
  532MOL0     H70219  10.787   7.030   1.456 -2.9337  0.9018 -0.5707
  532MOL0     H70220  10.659   6.866   1.243 -2.5581 -0.1898  1.0202
  532MOL0     H70221  10.590   7.023   1.313  1.3321  1.5644  1.0269
  532MOL0     H70222  10.896   7.176   1.086 -1.3924  1.7122 -0.2571
  532MOL0     H70223  10.920   6.756   1.867  0.6689 -0.5520  1.2128
  532MOL0     H70224  11.016   6.790   2.083 -0.8922  0.4806 -0.6344
  533MOL0     O70225   5.790   4.337   5.541 -0.2731 -0.5657  0.2237
  533MOL0     C70226   5.844   4.245   5.605  0.9171 -0.3265 -0.9784
  533MOL0     O70227   5.857   4.117   5.563 -0.1545 -0.2204 -0.7238
  533MOL0     C70228   5.815   4.090   5.431 -0.0772  0.2262 -0.2536
  533MOL0     C70229   5.895   4.112   5.321 -0.4680  0.0399  0.7927
  533MOL0     C70230   5.836   4.082   5.194  0.6662 -0.1527 -0.4193
  533MOL0     C70231   5.708   4.019   5.185 -0.6367  0.2685  0.6295
  533MOL0     O70232   5.684   3.971   5.062  0.3794  0.4004 -0.3383
  533MOL0     C70233   5.552   3.946   5.029  0.2580  0.4597 -0.0507
  533MOL0     C70234   5.551   3.891   4.892 -1.1069  0.5675  0.1526
  533MOL0     C70235   5.439   3.805   4.852 -0.7730  0.3428  0.0236
  533MOL0     C70236   5.419   3.793   4.702 -0.1416  0.5614 -0.7931
  533MOL0     C70237   5.318   3.685   4.664  0.6041 -0.2916 -0.1932
  533MOL0     C70238   5.373   3.557   4.607  0.2411  0.2913  0.0775
  533MOL0     C70239   5.260   3.448   4.599  0.5182  0.6683  0.5131
  533MOL0     C70240   5.160   3.488   4.492  0.2539  0.7162  0.6562
  533MOL0     N70241   5.038   3.407   4.501 -1.2837  0.4016 -0.1010
  533MOL0     C70242   5.053   3.272   4.504 -1.0289  0.1361 -0.0888
  533MOL0     C70243   4.929   3.233   4.465  0.7921 -0.3448 -0.3306
  533MOL0     C70244   4.889   3.086   4.474 -0.0639 -0.7535 -0.7383
  533MOL0     C70245   4.755   3.050   4.541  0.0440  1.2178 -0.3676
  533MOL0     C70246   4.634   3.034   4.453  0.3230 -0.1462  0.8077
  533MOL0     C70247   4.644   2.904   4.364  0.4058 -0.3551  0.0975
  533MOL0     O70248   4.532   2.903   4.274  0.0700  0.2448  0.1401
  533MOL0     C70249   4.534   2.973   4.158  1.4567  0.3597  0.1437
  533MOL0     C70250   4.397   2.992   4.112 -1.1418  0.6471  0.3334
  533MOL0     C70251   4.367   3.065   3.998 -1.1209 -0.4514 -0.4234
  533MOL0     C70252   4.474   3.126   3.916 -0.4794 -0.9333 -1.1499
  533MOL0     C70253   4.444   3.201   3.796 -0.1400 -0.0490 -0.0460
  533MOL0     O70254   4.315   3.169   3.755 -1.1441 -0.0270  0.1462
  533MOL0     C70255   4.271   3.227   3.640  0.2077 -0.0166  0.5317
  533MOL0     C70256   4.209   3.135   3.546  0.7880 -0.1917  0.4685
  533MOL0     C70257   4.168   3.165   3.415  0.5074 -0.4883 -0.6654
  533MOL0     C70258   4.175   3.302   3.390  0.1277  0.0861 -0.4425
  533MOL0     O70259   4.107   3.334   3.274  0.1925 -0.0684 -0.7412
  533MOL0     C70260   3.959   3.313   3.289 -0.1510 -0.7063 -0.5377
  533MOL0     C70261   3.913   3.214   3.188 -0.4560 -0.8416  0.3540
  533MOL0     C70262   3.762   3.175   3.216 -0.7236  0.9360  0.2107
  533MOL0     C70263   3.727   3.059   3.123 -0.8972  0.7633  0.3526
  533MOL0     C70264   3.579   3.044   3.138  0.3504 -0.6967  0.4894
  533MOL0     C70265   3.536   2.919   3.070 -0.5244 -0.2811  0.3205
  533MOL0     C70266   3.388   2.892   3.069  0.2194  0.0097  0.0808
  533MOL0     C70267   3.359   2.761   3.003 -0.1965  0.1807  0.3611
  533MOL0    Cl70268   3.184   2.744   2.968  0.0337  0.0147 -0.1174
  533MOL0     C70269   4.218   3.401   3.474 -0.1985 -0.1929  0.6392
  533MOL0     C70270   4.276   3.364   3.597  0.6220 -0.0456 -0.1930
  533MOL0     O70271   4.519   3.280   3.737 -0.6761  0.3105  0.4117
  533MOL0     C70272   4.605   3.120   3.968 -0.1536  0.4555 -0.2580
  533MOL0     C70273   4.628   3.046   4.085 -0.1285 -0.3328  0.2689
  533MOL0     N70274   4.842   3.336   4.446 -0.5205 -0.8093 -0.9168
  533MOL0     N70275   4.910   3.442   4.472 -0.3386 -0.1309  1.1098
  533MOL0     C70276   5.633   4.010   5.302 -0.1263  0.0227  0.2413
  533MOL0     C70277   5.684   4.046   5.430  0.3115  0.0452  0.1266
  533MOL0     C70278   5.881   4.266   5.746 -0.4964 -0.2315 -0.6007
  533MOL0     C70279   5.852   4.382   5.820 -0.0252  0.0112 -0.4391
  533MOL0     C70280   5.898   4.397   5.950 -0.4597  0.4072 -0.7700
  533MOL0     C70281   5.965   4.304   6.018  0.5148 -0.3150 -0.0156
  533MOL0     O70282   6.002   4.334   6.142 -0.0672  0.7440  0.2569
  533MOL0     C70283   6.054   4.227   6.220 -0.4269  0.2843 -0.3280
  533MOL0     C70284   6.076   4.285   6.360 -0.7399  0.0881  0.2365
  533MOL0     C70285   6.072   4.184   6.471  0.1846  0.8187 -0.3550
  533MOL0     C70286   6.179   4.081   6.470 -0.0845 -0.0578 -0.0868
  533MOL0     C70287   6.160   3.968   6.383  0.3891 -0.2557  0.3703
  533MOL0     C70288   6.129   3.877   6.314 -0.4986 -0.2121 -0.0572
  533MOL0     C70289   6.001   4.190   5.948  0.2263 -0.6403 -0.5938
  533MOL0     C70290   5.966   4.176   5.815  0.0224 -0.5663 -0.7394
  533MOL0     H70291   5.993   4.154   5.340 -0.3382  0.0845  0.0388
  533MOL0     H70292   5.884   4.111   5.101  0.8767  2.6944  0.4579
  533MOL0     H70293   5.482   4.030   5.033  0.2076  0.4273 -0.2325
  533MOL0     H70294   5.506   3.862   5.083  0.0652  0.9529  0.5577
  533MOL0     H70295   5.647   3.838   4.895 -0.3586  1.9347  1.6318
  533MOL0     H70296   5.555   3.971   4.817 -1.6024 -2.6466 -3.6409
  533MOL0     H70297   5.352   3.853   4.897 -0.9617 -0.6566  0.7323
  533MOL0     H70298   5.446   3.708   4.902  3.0838  1.3225  1.7448
  533MOL0     H70299   5.377   3.887   4.665 -1.3655 -0.1147 -1.1796
  533MOL0     H70300   5.513   3.766   4.653 -1.6781 -4.0174 -1.6506
  533MOL0     H70301   5.248   3.733   4.594 -2.0361 -2.2331  0.9689
  533MOL0     H70302   5.261   3.674   4.757  0.0707  2.9111  0.0012
  533MOL0     H70303   5.445   3.508   4.673  0.0966 -4.5512 -2.8873
  533MOL0     H70304   5.418   3.568   4.507  0.6757 -3.1190 -0.2105
  533MOL0     H70305   5.301   3.351   4.570 -2.2690  0.1190 -2.1423
  533MOL0     H70306   5.215   3.434   4.698  1.0520 -4.5885  0.3113
  533MOL0     H70307   5.207   3.485   4.394  1.8799  3.7632  1.2108
  533MOL0     H70308   5.131   3.593   4.498 -0.9508  0.3279  2.7648
  533MOL0     H70309   5.150   3.223   4.512 -0.1129  1.8412 -0.4384
  533MOL0     H70310   4.972   3.037   4.526 -0.2932 -0.4172 -0.0601
  533MOL0     H70311   4.887   3.053   4.369 -0.1335 -2.3874 -0.2573
  533MOL0     H70312   4.736   3.118   4.624  0.5922  0.8026  0.1004
  533MOL0     H70313   4.766   2.961   4.602  0.3829  2.4809  1.4969
  533MOL0     H70314   4.536   3.038   4.501 -0.1181  3.2960 -0.1089
  533MOL0     H70315   4.633   3.124   4.391  1.9549 -1.2417 -0.9074
  533MOL0     H70316   4.641   2.821   4.435 -1.1914  1.2474  2.0335
  533MOL0     H70317   4.746   2.898   4.324  0.7630 -0.9931  1.0619
  533MOL0     H70318   4.323   2.939   4.172  0.0285 -2.1336 -0.5280
  533MOL0     H70319   4.263   3.083   3.974 -0.9749  1.2356  0.0863
  533MOL0     H70320   4.194   3.031   3.574  1.5590 -1.2462 -2.6589
  533MOL0     H70321   4.120   3.086   3.358  1.7803 -1.9322  0.2140
  533MOL0     H70322   3.900   3.405   3.290 -0.2352 -0.7068 -2.5660
  533MOL0     H70323   3.929   3.275   3.388 -1.8246 -2.1410 -1.5306
  533MOL0     H70324   3.975   3.124   3.192 -1.3181 -1.4506  0.3421
  533MOL0     H70325   3.927   3.257   3.088  0.8903 -1.9626  0.0294
  533MOL0     H70326   3.693   3.258   3.198 -1.8518  0.6717  2.8532
  533MOL0     H70327   3.752   3.137   3.318  1.4472 -2.3435 -0.6354
  533MOL0     H70328   3.757   3.088   3.022  1.5586 -0.3984  0.6556
  533MOL0     H70329   3.774   2.968   3.161  0.4127  0.7465 -1.2236
  533MOL0     H70330   3.536   3.140   3.108  3.0831  1.0854  1.8229
  533MOL0     H70331   3.550   3.043   3.244  0.3357  0.6759  0.5110
  533MOL0     H70332   3.597   2.838   3.112  0.6613  1.9930  3.3113
  533MOL0     H70333   3.585   2.930   2.973  1.1154 -1.2046  1.0044
  533MOL0     H70334   3.341   2.873   3.166  0.5344  1.5237  0.5558
  533MOL0     H70335   3.341   2.977   3.019 -0.1115 -1.1342 -1.6540
  533MOL0     H70336   3.400   2.679   3.063  3.2112  0.6020 -1.1556
  533MOL0     H70337   3.410   2.743   2.908 -0.6152 -1.2551  0.3800
  533MOL0     H70338   4.217   3.505   3.446  1.0738 -0.3696 -0.0990
  533MOL0     H70339   4.297   3.447   3.664  1.5622  0.8526 -1.5325
  533MOL0     H70340   4.683   3.165   3.908 -0.3628 -2.2780 -2.8131
  533MOL0     H70341   4.726   3.047   4.131 -0.4298  1.1118  0.9435
  533MOL0     H70342   5.528   3.985   5.291 -0.9267  3.3279 -0.5245
  533MOL0     H70343   5.618   4.036   5.516  1.5757  0.5561  1.1772
  533MOL0     H70344   5.780   4.458   5.790 -0.5724  0.9100  2.7067
  533MOL0     H70345   5.873   4.484   6.009  0.7569 -1.5371  2.9217
  533MOL0     H70346   6.156   4.210   6.183 -0.0801  1.5091  0.0375
  533MOL0     H70347   5.997   4.135   6.236  0.7788 -0.3002  0.7927
  533MOL0     H70348   6.173   4.336   6.359 -2.1132  2.8291 -0.3247
  533MOL0     H70349   6.007   4.364   6.392 -3.3233 -2.2670  0.8886
  533MOL0     H70350   5.970   4.153   6.494 -0.5613  2.8421 -0.6816
  533MOL0     H70351   6.099   4.253   6.553 -0.1572  0.1333  0.3447
  533MOL0     H70352   6.277   4.125   6.449  0.3108  0.4211  2.4447
  533MOL0     H70353   6.186   4.038   6.571 -0.7038 -1.2663 -0.5327
  533MOL0     H70354   6.102   3.789   6.260 -2.9033  1.4909 -1.7999
  533MOL0     H70355   6.079   4.129   5.993  4.9024  4.1215 -1.2512
  533MOL0     H70356   6.010   4.095   5.759  2.3848 -0.9678  1.5038
  534MOL0     O70357   0.514   5.515   9.215 -0.3610  0.4312  0.1378
  534MOL0     C70358   0.542   5.577   9.117 -0.9469 -0.1693 -0.4340
  534MOL0     O70359   0.451   5.629   9.031 -0.4422  0.1541  0.1812
  534MOL0     C70360   0.316   5.583   9.047 -0.0141  0.1941 -0.8538
  534MOL0     C70361   0.274   5.449   9.032 -0.0903 -0.2286 -0.5081
  534MOL0     C70362   0.144   5.411   9.069 -0.7593 -0.2906 -0.1084
  534MOL0     C70363   0.042   5.510   9.088 -0.8544 -0.1673  0.4127
  534MOL0     O70364  -0.090   5.475   9.105  0.1551  0.4389 -0.1927
  534MOL0     C70365  -0.134   5.347   9.144  0.2178 -0.3338 -0.5051
  534MOL0     C70366  -0.267   5.357   9.216  0.2094 -0.0048  1.0229
  534MOL0     C70367  -0.274   5.448   9.329  0.4438  0.5471  0.4694
  534MOL0     C70368  -0.395   5.428   9.413  0.4367  0.8305  0.7219
  534MOL0     C70369  -0.511   5.514   9.360 -0.3334 -0.3925  0.7254
  534MOL0     C70370  -0.518   5.657   9.417 -1.0046  0.4538 -0.8940
  534MOL0     C70371  -0.622   5.743   9.336  0.3725 -0.3281  0.4758
  534MOL0     C70372  -0.765   5.720   9.386  0.4878 -0.1763 -0.2511
  534MOL0     N70373  -0.775   5.772   9.518  1.1243 -1.0099 -0.8590
  534MOL0     C70374  -0.823   5.707   9.632  0.1550  0.9459 -0.4433
  534MOL0     C70375  -0.818   5.794   9.735  0.3751 -0.4243 -0.5566
  534MOL0     C70376  -0.851   5.773   9.877  0.2368  0.3860 -0.5191
  534MOL0     C70377  -0.885   5.630   9.927  0.7384 -0.0442  0.0720
  534MOL0     C70378  -1.005   5.607  10.031  0.0026 -0.4194  0.3354
  534MOL0     C70379  -1.015   5.461  10.065  0.0743  0.0435  0.0023
  534MOL0     O70380  -0.896   5.437  10.142 -0.9160 -0.3276 -0.2356
  534MOL0     C70381  -0.837   5.309  10.151 -0.3397 -0.0912  0.9791
  534MOL0     C70382  -0.704   5.308  10.178  0.9079  0.3390 -0.2152
  534MOL0     C70383  -0.640   5.181  10.199 -0.3023  1.1234  0.2597
  534MOL0     C70384  -0.717   5.062  10.186 -0.1583 -0.2464 -0.6412
  534MOL0     C70385  -0.656   4.933  10.211  0.4161  0.1339 -0.5768
  534MOL0     O70386  -0.532   4.930  10.272 -0.4615  0.7731  0.9155
  534MOL0     C70387  -0.488   4.804  10.306 -0.2198  0.0501  0.5109
  534MOL0     C70388  -0.386   4.737  10.239  0.8863 -0.4450  0.5234
  534MOL0     C70389  -0.345   4.611  10.276 -0.1520  0.0736 -0.3226
  534MOL0     C70390  -0.404   4.543  10.387 -0.3477 -1.4287  0.6658
  534MOL0     O70391  -0.377   4.420  10.443  0.4947  0.0247 -0.5394
  534MOL0     C70392  -0.246   4.360  10.433 -0.3189  0.4264  0.1984
  534MOL0     C70393  -0.238   4.223  10.503 -0.0118 -0.2335 -1.4019
  534MOL0     C70394  -0.229   4.233  10.657 -0.2477 -0.3883 -0.5862
  534MOL0     C70395  -0.101   4.291  10.714 -0.5535  0.1924 -0.3861
  534MOL0     C70396  -0.100   4.439  10.749 -0.8593  0.5508 -0.6976
  534MOL0     C70397  -0.198   4.478  10.868 -0.2861  0.0099 -0.3327
  534MOL0     C70398  -0.186   4.635  10.880  0.2131 -0.0812  1.0372
  534MOL0     C70399  -0.261   4.715  10.768  0.5477  0.1552 -1.1949
  534MOL0    Cl70400  -0.299   4.879  10.836  0.0014 -0.0906  0.2431
  534MOL0     C70401  -0.506   4.604  10.460  0.7958 -0.1455 -0.6326
  534MOL0     C70402  -0.545   4.734  10.421  0.5940  0.5067  0.1662
  534MOL0     O70403  -0.718   4.832  10.171 -0.1636  0.2943 -0.2636
  534MOL0     C70404  -0.851   5.074  10.148  0.4804  0.1505  0.1215
  534MOL0     C70405  -0.915   5.198  10.130  0.7828  0.0075 -0.6156
  534MOL0     N70406  -0.777   5.916   9.680 -0.3362  0.4818 -0.2822
  534MOL0     N70407  -0.760   5.904   9.551 -0.2448 -0.2279  0.0689
  534MOL0     C70408   0.090   5.647   9.084  0.5881 -0.1821 -0.1191
  534MOL0     C70409   0.222   5.679   9.072 -0.3278  0.2828  1.3494
  534MOL0     C70410   0.687   5.569   9.072  0.6183  0.3270 -0.3501
  534MOL0     C70411   0.786   5.544   9.164 -0.1819 -0.0207  0.3151
  534MOL0     C70412   0.916   5.518   9.125  0.1029 -0.1022  0.2979
  534MOL0     C70413   0.961   5.507   8.994  0.0567 -0.1245  0.5051
  534MOL0     O70414   1.091   5.489   8.968 -0.0019 -0.2372  0.7203
  534MOL0     C70415   1.131   5.458   8.833 -0.1830 -0.7107 -0.2789
  534MOL0     C70416   1.277   5.418   8.839  0.4361  0.2228  0.2981
  534MOL0     C70417   1.328   5.393   8.696  0.0619  0.2643 -0.1604
  534MOL0     C70418   1.300   5.254   8.640  0.3880  0.2728  0.1651
  534MOL0     C70419   1.380   5.240   8.519  0.0134 -0.5416 -0.2568
  534MOL0     C70420   1.428   5.223   8.410 -0.2565 -0.1298 -0.2402
  534MOL0     C70421   0.857   5.526   8.900  0.4279  0.1747  0.6783
  534MOL0     C70422   0.721   5.562   8.934 -0.6791 -0.3807  0.3146
  534MOL0     H70423   0.349   5.372   9.044 -0.8566 -0.6159  2.6324
  534MOL0     H70424   0.108   5.309   9.065  0.3637 -0.7257  0.2695
  534MOL0     H70425  -0.064   5.301   9.214 -0.7305 -1.6157 -0.3515
  534MOL0     H70426  -0.148   5.282   9.056  1.5853 -2.6104  0.8555
  534MOL0     H70427  -0.294   5.257   9.251  4.3514 -0.6224  3.0291
  534MOL0     H70428  -0.332   5.402   9.140  1.3825  0.2360  0.1315
  534MOL0     H70429  -0.276   5.553   9.296  0.4142 -0.0674 -1.6610
  534MOL0     H70430  -0.194   5.439   9.402  1.0325 -1.5967 -0.3842
  534MOL0     H70431  -0.421   5.323   9.426 -0.2601  1.0132  0.8599
  534MOL0     H70432  -0.362   5.464   9.511  4.3124  4.1663 -1.4842
  534MOL0     H70433  -0.607   5.467   9.385  0.1126 -0.7057  1.9416
  534MOL0     H70434  -0.495   5.533   9.254  0.0340 -1.8093  0.5034
  534MOL0     H70435  -0.422   5.704   9.397 -1.4015  1.4419 -0.5583
  534MOL0     H70436  -0.524   5.659   9.527  2.3505  2.7446 -0.6126
  534MOL0     H70437  -0.596   5.847   9.358 -0.5856 -0.2409  1.2085
  534MOL0     H70438  -0.611   5.726   9.228 -1.5772  1.7175 -0.1287
  534MOL0     H70439  -0.782   5.613   9.406  0.4381 -0.1079  0.0822
  534MOL0     H70440  -0.844   5.753   9.318 -0.3657  1.9809  1.6725
  534MOL0     H70441  -0.854   5.603   9.630  0.9027  0.7303 -1.7863
  534MOL0     H70442  -0.942   5.833   9.883 -0.7235 -1.0222 -0.5000
  534MOL0     H70443  -0.766   5.820   9.928 -0.7984 -0.3555  2.0516
  534MOL0     H70444  -0.788   5.587   9.955 -0.1281 -1.7775  0.5169
  534MOL0     H70445  -0.905   5.567   9.840 -1.1502 -1.4568  1.4451
  534MOL0     H70446  -0.998   5.678  10.113  0.4068  1.5356 -1.3161
  534MOL0     H70447  -1.092   5.636   9.970 -0.0019 -0.4286  0.3381
  534MOL0     H70448  -1.032   5.394   9.980  0.0778  0.6041 -0.4473
  534MOL0     H70449  -1.111   5.452  10.116  0.7502 -2.7472  0.9779
  534MOL0     H70450  -0.649   5.401  10.188  2.1888 -0.4554  0.3790
  534MOL0     H70451  -0.533   5.173  10.216  0.0088  0.6370 -1.7517
  534MOL0     H70452  -0.352   4.781  10.146 -4.6512  1.9546 -0.7384
  534MOL0     H70453  -0.258   4.567  10.228  0.4065  0.2966  0.4582
  534MOL0     H70454  -0.167   4.424  10.476 -0.9281  0.3271  1.5248
  534MOL0     H70455  -0.213   4.350  10.330  3.1704  0.7757  1.1319
  534MOL0     H70456  -0.157   4.171  10.452 -0.4145 -0.4648 -1.8087
  534MOL0     H70457  -0.331   4.170  10.483 -1.9578  2.8721 -1.2001
  534MOL0     H70458  -0.232   4.127  10.685  0.7255  0.6031  4.0265
  534MOL0     H70459  -0.320   4.279  10.696 -0.7538 -2.7183  1.1856
  534MOL0     H70460  -0.069   4.233  10.802  2.9962  3.4235  0.6928
  534MOL0     H70461  -0.022   4.274  10.641  1.2142  3.8503  0.4611
  534MOL0     H70462  -0.114   4.504  10.662  1.4306 -0.0242 -1.5587
  534MOL0     H70463   0.003   4.465  10.776 -0.7301 -0.0377 -0.6014
  534MOL0     H70464  -0.174   4.436  10.966  2.8726 -0.9363 -1.3741
  534MOL0     H70465  -0.295   4.441  10.834 -0.6043 -1.7422  2.2190
  534MOL0     H70466  -0.227   4.652  10.980  2.5932 -1.8571  2.4276
  534MOL0     H70467  -0.080   4.660  10.884  0.6548 -1.5600 -0.3471
  534MOL0     H70468  -0.353   4.660  10.748 -0.6912 -0.0537  3.7352
  534MOL0     H70469  -0.191   4.713  10.685  2.1371  0.3074  0.0869
  534MOL0     H70470  -0.543   4.544  10.542  1.2346  2.5132  1.6670
  534MOL0     H70471  -0.618   4.791  10.479 -1.5760  1.0714 -2.8799
  534MOL0     H70472  -0.924   4.993  10.151 -1.8763  2.1895  0.6422
  534MOL0     H70473  -1.020   5.203  10.105  0.0625 -0.4841  2.0547
  534MOL0     H70474   0.034   5.739   9.094  0.3940 -0.3882  0.7856
  534MOL0     H70475   0.259   5.781   9.078 -2.8718  1.5020 -1.3126
  534MOL0     H70476   0.748   5.517   9.263 -2.9291 -2.1026 -1.1699
  534MOL0     H70477   0.986   5.475   9.197  1.8167  1.5313 -0.3155
  534MOL0     H70478   1.114   5.548   8.773  0.9430 -0.1435  0.2145
  534MOL0     H70479   1.076   5.378   8.783  1.2219 -0.7449 -1.8603
  534MOL0     H70480   1.324   5.506   8.883  0.1220  1.1101 -1.0793
  534MOL0     H70481   1.287   5.318   8.882 -2.8854 -2.0187 -3.4410
  534MOL0     H70482   1.435   5.412   8.697  0.0734  0.4437  2.8496
  534MOL0     H70483   1.290   5.466   8.623 -3.3734 -0.7659  0.3934
  534MOL0     H70484   1.342   5.179   8.708  2.0119  1.4436  0.5053
  534MOL0     H70485   1.196   5.224   8.626  0.5792  0.3794 -1.6633
  534MOL0     H70486   1.476   5.215   8.314 -0.7764  1.9911 -0.7217
  534MOL0     H70487   0.876   5.507   8.794 -1.8482  0.7234  0.1125
  534MOL0     H70488   0.654   5.555   8.849  0.4329 -0.6374 -0.5588
  535MOL0     O70489  10.155   9.514   5.951  0.1986  0.4052  0.6110
  535MOL0     C70490  10.062   9.540   5.866 -0.6358 -0.8447  0.2266
  535MOL0     O70491   9.932   9.540   5.884 -0.0154  0.3676 -0.2405
  535MOL0     C70492   9.879   9.476   5.991  0.2367 -0.2462 -0.7579
  535MOL0     C70493   9.917   9.505   6.132  0.3765  0.2462 -0.1235
  535MOL0     C70494   9.854   9.446   6.240  0.1954 -0.4901  0.7858
  535MOL0     C70495   9.749   9.355   6.219 -0.2176 -0.1508 -0.0080
  535MOL0     O70496   9.684   9.302   6.327 -0.0611  0.6584 -0.1143
  535MOL0     C70497   9.662   9.391   6.430 -0.3458  1.2628 -0.4841
  535MOL0     C70498   9.585   9.304   6.533 -0.1830 -0.6877  0.1346
  535MOL0     C70499   9.555   9.382   6.654  0.6790  1.2043 -0.0391
  535MOL0     C70500   9.470   9.297   6.750 -0.5566 -0.8205  0.7976
  535MOL0     C70501   9.418   9.395   6.853 -0.3230  0.1279  0.1086
  535MOL0     C70502   9.392   9.338   6.991  0.5683  0.0682  0.2549
  535MOL0     C70503   9.291   9.226   6.982 -0.4476  0.6590  0.7025
  535MOL0     C70504   9.149   9.283   6.943  0.2143 -0.0985  0.2662
  535MOL0     N70505   9.110   9.415   7.010  0.6545 -0.3961  0.2181
  535MOL0     C70506   9.085   9.437   7.141 -0.3309  0.1727 -0.2341
  535MOL0     C70507   9.054   9.573   7.153 -0.9102  0.2461  0.5819
  535MOL0     C70508   9.045   9.647   7.279  0.0759 -0.6387  0.8903
  535MOL0     C70509   9.065   9.559   7.396 -0.4216 -0.0750  0.2931
  535MOL0     C70510   9.225   9.544   7.419  0.2567 -0.8279  0.7072
  535MOL0     C70511   9.254   9.455   7.544  0.5104 -0.3781 -0.1034
  535MOL0     O70512   9.187   9.327   7.522 -0.0744  0.1715  0.5862
  535MOL0     C70513   9.247   9.232   7.439  0.3195 -1.0880  0.3772
  535MOL0     C70514   9.374   9.228   7.383  1.0162  0.2032  0.3471
  535MOL0     C70515   9.419   9.123   7.301  0.3071  0.0140 -0.2834
  535MOL0     C70516   9.326   9.022   7.269  0.9165 -0.4393 -0.9917
  535MOL0     C70517   9.363   8.904   7.181  0.9773 -0.5503  0.1741
  535MOL0     O70518   9.485   8.915   7.129  0.4950 -0.0468 -0.2508
  535MOL0     C70519   9.492   8.881   6.992  0.1085 -0.5812 -0.8510
  535MOL0     C70520   9.618   8.861   6.937  1.0001  1.3566 -0.4217
  535MOL0     C70521   9.627   8.825   6.801 -0.6796 -0.3307  0.4934
  535MOL0     C70522   9.518   8.833   6.706  0.8149 -0.4342 -0.4777
  535MOL0     O70523   9.525   8.841   6.570  0.6259  0.1535  0.6403
  535MOL0     C70524   9.644   8.891   6.503  0.1267  0.6479  0.0636
  535MOL0     C70525   9.627   8.869   6.352  0.2743  0.3737 -0.1825
  535MOL0     C70526   9.527   8.967   6.301  0.3300 -0.0961  0.4157
  535MOL0     C70527   9.505   8.942   6.154 -0.7175 -1.0347 -0.4430
  535MOL0     C70528   9.383   9.014   6.101 -0.5032  0.2824 -0.4158
  535MOL0     C70529   9.373   9.052   5.953 -1.0103 -1.3322  0.5405
  535MOL0     C70530   9.230   9.101   5.908  0.6271  0.2927  0.5119
  535MOL0     C70531   9.144   9.002   5.828  0.5169  0.1598 -0.6474
  535MOL0    Cl70532   9.116   8.839   5.907  0.0148 -0.2787 -0.2490
  535MOL0     C70533   9.397   8.870   6.766 -0.9443 -0.3690 -0.1286
  535MOL0     C70534   9.385   8.890   6.907  0.3942 -0.5270 -0.0312
  535MOL0     O70535   9.292   8.803   7.176  0.0298  0.1924  0.1375
  535MOL0     C70536   9.194   9.018   7.334 -1.6871  0.4747 -0.4871
  535MOL0     C70537   9.155   9.125   7.415 -0.5431  0.1565  0.0401
  535MOL0     N70538   9.062   9.626   7.022  0.0725  0.5216 -1.0676
  535MOL0     N70539   9.086   9.533   6.941 -0.3866 -0.1434  0.8700
  535MOL0     C70540   9.701   9.340   6.090  0.1103 -1.2846  1.6576
  535MOL0     C70541   9.763   9.401   5.979  0.0158 -0.5113  0.2177
  535MOL0     C70542  10.120   9.586   5.729  0.1656 -0.5626 -0.6590
  535MOL0     C70543  10.248   9.546   5.696  0.5808 -0.5804  0.2538
  535MOL0     C70544  10.317   9.594   5.579  0.1500  0.5463  1.0557
  535MOL0     C70545  10.241   9.685   5.488  0.6789 -0.5624  0.6978
  535MOL0     O70546  10.272   9.726   5.365  0.7989  0.5966 -0.2332
  535MOL0     C70547  10.387   9.658   5.305  0.8468  0.9041 -0.5163
  535MOL0     C70548  10.357   9.636   5.158  0.4976 -0.5372  0.3988
  535MOL0     C70549  10.237   9.534   5.138  0.0979 -0.6456 -0.4378
  535MOL0     C70550  10.239   9.484   4.995  0.2774  0.3285 -0.1566
  535MOL0     C70551  10.314   9.352   4.992 -0.7647  0.0187 -0.6618
  535MOL0     C70552  10.380   9.251   5.009 -0.1178  0.2567  0.4592
  535MOL0     C70553  10.109   9.726   5.520 -0.6552 -0.1850  0.6604
  535MOL0     C70554  10.047   9.678   5.640  0.1537  0.3799 -0.3283
  535MOL0     H70555   9.996   9.575   6.158 -0.1942  0.8259  0.0753
  535MOL0     H70556   9.896   9.469   6.337  1.9222 -1.0556  0.2126
  535MOL0     H70557   9.605   9.478   6.396  0.8405  2.3684  0.2960
  535MOL0     H70558   9.751   9.422   6.484  0.2951  0.6611 -1.1600
  535MOL0     H70559   9.659   9.226   6.556 -0.3194 -1.0018 -0.4640
  535MOL0     H70560   9.486   9.270   6.502 -2.2393  3.3898  1.5669
  535MOL0     H70561   9.503   9.475   6.631 -0.1532  0.6437 -0.4723
  535MOL0     H70562   9.647   9.397   6.711 -0.5605 -0.0151  2.4301
  535MOL0     H70563   9.394   9.248   6.688  1.3416 -0.7663 -1.6926
  535MOL0     H70564   9.536   9.222   6.794  2.0986 -0.1753 -1.7831
  535MOL0     H70565   9.320   9.424   6.815  0.4763  1.6648 -0.8944
  535MOL0     H70566   9.493   9.473   6.870  1.5195 -1.6386  0.4417
  535MOL0     H70567   9.360   9.413   7.063 -1.0339 -0.2723 -0.0697
  535MOL0     H70568   9.487   9.303   7.033  0.6139 -0.3136 -0.1673
  535MOL0     H70569   9.324   9.158   6.903 -1.0843  3.0382 -1.7599
  535MOL0     H70570   9.287   9.177   7.079  1.3755  0.8384  0.9130
  535MOL0     H70571   9.081   9.199   6.955  0.1715  0.3048  4.2214
  535MOL0     H70572   9.142   9.305   6.836  1.6731 -0.5106  0.0528
  535MOL0     H70573   9.093   9.363   7.220 -1.9434 -1.6529 -1.6658
  535MOL0     H70574   8.946   9.691   7.287  0.7806  0.8364  1.9548
  535MOL0     H70575   9.108   9.736   7.278  1.1470 -1.3168 -1.6653
  535MOL0     H70576   9.001   9.471   7.380 -1.3205  0.7595 -0.9404
  535MOL0     H70577   9.018   9.611   7.480 -0.3233 -2.4777  1.9414
  535MOL0     H70578   9.269   9.492   7.333  2.3023  1.5537  0.1898
  535MOL0     H70579   9.270   9.643   7.432  0.3955 -0.9341  1.0494
  535MOL0     H70580   9.219   9.501   7.637 -0.5683 -0.6929 -0.3320
  535MOL0     H70581   9.363   9.444   7.550  0.6092  1.2331  3.8763
  535MOL0     H70582   9.445   9.305   7.410 -0.6722  2.6049 -1.6398
  535MOL0     H70583   9.517   9.109   7.257 -0.2656 -1.3257 -1.1876
  535MOL0     H70584   9.705   8.857   7.002  1.4366  0.6481 -1.0386
  535MOL0     H70585   9.729   8.806   6.768 -0.6164  0.1573  0.3975
  535MOL0     H70586   9.725   8.832   6.548 -2.9109 -2.9715  1.4197
  535MOL0     H70587   9.659   8.997   6.521  0.9676  0.8822 -1.7779
  535MOL0     H70588   9.613   8.761   6.342 -1.8795  0.0469  4.1293
  535MOL0     H70589   9.720   8.890   6.299  0.9143 -1.2173  0.2588
  535MOL0     H70590   9.560   9.064   6.338  1.5631 -0.6186  0.7254
  535MOL0     H70591   9.432   8.934   6.344 -1.3443  2.0137 -1.4327
  535MOL0     H70592   9.593   8.977   6.098 -1.2285  0.6849 -0.2344
  535MOL0     H70593   9.481   8.840   6.122 -4.1637  0.0462 -1.6986
  535MOL0     H70594   9.386   9.109   6.155  1.4451  0.6636 -1.1007
  535MOL0     H70595   9.292   8.958   6.126  0.4605 -1.6703 -1.0798
  535MOL0     H70596   9.402   8.965   5.893  0.9442 -0.5788  0.2877
  535MOL0     H70597   9.457   9.119   5.933 -1.7157 -0.8145 -0.8484
  535MOL0     H70598   9.162   9.131   5.988  3.3295  3.1721  1.9203
  535MOL0     H70599   9.243   9.184   5.838 -3.0734  0.3884 -0.2666
  535MOL0     H70600   9.186   8.979   5.730 -2.7560 -3.1354 -1.5448
  535MOL0     H70601   9.044   9.038   5.800 -1.2196 -0.5948  3.8124
  535MOL0     H70602   9.308   8.858   6.705 -0.8631 -2.8885  0.1169
  535MOL0     H70603   9.285   8.905   6.947  0.3920 -1.6186  0.4046
  535MOL0     H70604   9.126   8.936   7.315 -1.9460  0.8552 -1.2472
  535MOL0     H70605   9.063   9.132   7.472  1.0134 -2.0280  3.1255
  535MOL0     H70606   9.625   9.264   6.074 -2.9824  1.9296 -0.4900
  535MOL0     H70607   9.718   9.385   5.881 -0.0784 -3.2242  0.6188
  535MOL0     H70608  10.299   9.471   5.757 -0.7991 -0.5088  1.5591
  535MOL0     H70609  10.421   9.566   5.571 -0.0828 -0.0427 -0.2707
  535MOL0     H70610  10.415   9.558   5.339  3.4039  1.4857 -0.7068
  535MOL0     H70611  10.474   9.722   5.320  0.4091  1.0354  1.6651
  535MOL0     H70612  10.334   9.730   5.108 -0.2430  0.1574  1.9725
  535MOL0     H70613  10.443   9.582   5.119  0.3286 -3.1712  3.2720
  535MOL0     H70614  10.145   9.594   5.142  1.4754  1.5673 -0.2070
  535MOL0     H70615  10.234   9.451   5.209 -3.2905 -2.1177 -2.0912
  535MOL0     H70616  10.136   9.470   4.958 -0.9508  3.8751  1.4600
  535MOL0     H70617  10.285   9.551   4.922 -1.8958 -0.3562 -2.2998
  535MOL0     H70618  10.423   9.154   5.023 -1.6066 -0.9010 -2.1832
  535MOL0     H70619  10.044   9.783   5.455 -2.0509 -1.5131  0.8284
  535MOL0     H70620   9.940   9.693   5.640 -0.0692 -1.1253 -0.3739
  536MOL0     O70621   6.983   9.021   2.415  0.7564 -0.5704 -0.4124
  536MOL0     C70622   6.870   8.979   2.464  0.1369 -0.0219  0.5553
  536MOL0     O70623   6.752   8.975   2.394 -0.1987  0.4389 -0.2929
  536MOL0     C70624   6.770   9.014   2.261 -0.0414 -0.2563  0.4877
  536MOL0     C70625   6.838   8.938   2.157  1.0765 -0.9144 -0.5463
  536MOL0     C70626   6.850   8.978   2.026  0.2971  0.8579 -0.8447
  536MOL0     C70627   6.810   9.109   1.995  0.1468  0.1999  0.0156
  536MOL0     O70628   6.809   9.151   1.857  0.4547  0.4934  0.1501
  536MOL0     C70629   6.947   9.135   1.817  0.2790 -0.2955  0.4718
  536MOL0     C70630   6.955   9.186   1.680  0.0267  0.6785 -1.0279
  536MOL0     C70631   6.981   9.335   1.675 -1.0078 -1.0634 -0.5850
  536MOL0     C70632   7.008   9.385   1.527 -0.0236  0.1157 -0.0024
  536MOL0     C70633   7.045   9.522   1.491 -1.0770 -0.4193 -0.3847
  536MOL0     C70634   7.043   9.533   1.336 -0.4397  0.4773 -0.4687
  536MOL0     C70635   6.929   9.476   1.254  0.2236 -0.1833 -0.4426
  536MOL0     C70636   6.794   9.548   1.275  1.2710 -0.3537  0.8733
  536MOL0     N70637   6.681   9.490   1.195 -0.9149  0.4735 -0.0034
  536MOL0     C70638   6.605   9.388   1.241  0.7046 -0.2737  0.3361
  536MOL0     C70639   6.517   9.373   1.149  0.5534  0.4807  0.5191
  536MOL0     C70640   6.413   9.268   1.170  0.4667 -0.9945 -0.1399
  536MOL0     C70641   6.281   9.348   1.204 -0.7916 -1.4704 -0.0703
  536MOL0     C70642   6.165   9.261   1.263  0.1636 -0.3655 -0.4274
  536MOL0     C70643   6.040   9.344   1.293  0.6420 -0.7335 -0.5086
  536MOL0     O70644   5.954   9.259   1.378 -0.1953  0.1415  0.1579
  536MOL0     C70645   5.835   9.304   1.424  0.0955 -0.3645 -0.5963
  536MOL0     C70646   5.768   9.422   1.378  0.7295  0.6818  0.9769
  536MOL0     C70647   5.627   9.445   1.404 -0.5470 -0.1738 -0.4385
  536MOL0     C70648   5.562   9.357   1.487  0.9059 -0.1111  1.1055
  536MOL0     C70649   5.421   9.366   1.526 -0.3143  0.6648 -0.1348
  536MOL0     O70650   5.357   9.479   1.509 -1.4645 -0.1627 -0.6928
  536MOL0     C70651   5.226   9.488   1.530  1.1326 -0.6398  0.1624
  536MOL0     C70652   5.176   9.467   1.657  0.4822  0.1369 -0.5901
  536MOL0     C70653   5.040   9.480   1.692  0.0695 -0.0082  0.2239
  536MOL0     C70654   4.954   9.535   1.586  0.8817  0.3361 -0.2738
  536MOL0     O70655   4.816   9.534   1.607  0.5292  0.3793  0.4339
  536MOL0     C70656   4.769   9.574   1.742  0.6149 -0.6965 -0.5795
  536MOL0     C70657   4.618   9.549   1.775 -0.7004 -0.6814  0.8124
  536MOL0     C70658   4.561   9.587   1.912  0.1675  0.2879 -0.7577
  536MOL0     C70659   4.564   9.734   1.947 -0.4065 -0.5864  0.4065
  536MOL0     C70660   4.444   9.819   1.893 -0.1341  0.3004 -0.2126
  536MOL0     C70661   4.330   9.820   1.992 -0.5089  0.5903 -0.0252
  536MOL0     C70662   4.237   9.938   1.983  0.0348 -0.1124  0.3955
  536MOL0     C70663   4.145   9.934   1.860 -0.6944  0.0511 -0.1028
  536MOL0    Cl70664   4.037   9.802   1.900 -1.0657  0.0010  0.2519
  536MOL0     C70665   5.009   9.571   1.460  0.1077  0.1650 -1.0431
  536MOL0     C70666   5.142   9.531   1.423  0.6023 -0.2617 -0.1732
  536MOL0     O70667   5.384   9.281   1.604 -0.2398 -0.4840  0.9403
  536MOL0     C70668   5.631   9.243   1.529  0.2965  0.5167  0.7805
  536MOL0     C70669   5.760   9.209   1.489  1.5503 -0.0998 -0.4510
  536MOL0     N70670   6.515   9.472   1.048  0.3321  0.4061  0.6796
  536MOL0     N70671   6.623   9.538   1.083  0.5382  0.7580  0.6996
  536MOL0     C70672   6.760   9.195   2.093  0.1682 -0.1470 -1.1112
  536MOL0     C70673   6.741   9.145   2.224  0.8401 -0.1576  0.1859
  536MOL0     C70674   6.850   8.957   2.595 -0.1939 -0.0576 -0.3146
  536MOL0     C70675   6.726   8.967   2.657  0.9051  0.6156 -0.9828
  536MOL0     C70676   6.711   8.960   2.800  0.6845 -0.6438 -0.2059
  536MOL0     C70677   6.825   8.925   2.874  0.8497 -0.0950 -0.6545
  536MOL0     O70678   6.822   8.889   3.005  0.6738 -0.4145  0.3936
  536MOL0     C70679   6.698   8.830   3.046  0.0627  0.0499  0.0615
  536MOL0     C70680   6.736   8.757   3.180  0.7095  1.0218  0.5827
  536MOL0     C70681   6.810   8.629   3.142 -0.6901 -0.5027  0.5325
  536MOL0     C70682   6.857   8.567   3.267 -0.1577  0.1539  0.6081
  536MOL0     C70683   6.802   8.432   3.286 -0.0228  0.2587 -0.4644
  536MOL0     C70684   6.769   8.317   3.298  0.6715  0.2629  0.2997
  536MOL0     C70685   6.949   8.921   2.820  0.5199 -0.0747 -0.4490
  536MOL0     C70686   6.964   8.943   2.678 -0.3407 -0.6076  1.0346
  536MOL0     H70687   6.871   8.842   2.193 -2.9842 -2.7226 -1.0873
  536MOL0     H70688   6.895   8.901   1.964  3.1164 -0.9887  3.0311
  536MOL0     H70689   6.977   9.030   1.807  0.4056 -0.2918  0.8096
  536MOL0     H70690   7.012   9.192   1.883 -1.0051  0.1317  1.4069
  536MOL0     H70691   6.858   9.165   1.635 -0.8997 -1.7920  1.7885
  536MOL0     H70692   7.034   9.135   1.624 -0.4523  0.9657 -1.9942
  536MOL0     H70693   7.077   9.361   1.722 -2.2137  3.5055 -0.0955
  536MOL0     H70694   6.909   9.398   1.727 -1.9032 -1.1470 -1.6834
  536MOL0     H70695   7.080   9.319   1.478  0.7838  0.2019  1.0139
  536MOL0     H70696   6.908   9.364   1.490  0.4716 -5.5662  1.0760
  536MOL0     H70697   7.144   9.552   1.528  0.4610 -1.7350 -3.0847
  536MOL0     H70698   6.977   9.596   1.533  0.7755 -0.3167  2.8073
  536MOL0     H70699   7.138   9.486   1.311  1.0528  0.3320  4.4091
  536MOL0     H70700   7.053   9.640   1.322  0.8633  0.5549  0.8518
  536MOL0     H70701   6.947   9.485   1.147  3.3248  0.6246  0.0533
  536MOL0     H70702   6.913   9.373   1.289  1.0917  0.0439  0.6759
  536MOL0     H70703   6.806   9.655   1.259  2.3949 -0.7895 -1.6861
  536MOL0     H70704   6.775   9.543   1.382  2.9264  0.1929  1.2206
  536MOL0     H70705   6.623   9.328   1.330  1.3559  1.1923  1.2347
  536MOL0     H70706   6.451   9.205   1.250 -2.1193 -1.4074  0.8714
  536MOL0     H70707   6.398   9.198   1.088 -1.9370 -1.9199  0.9949
  536MOL0     H70708   6.247   9.392   1.110  2.7609 -2.8570 -2.2231
  536MOL0     H70709   6.291   9.425   1.282 -2.4210 -0.6412 -0.6442
  536MOL0     H70710   6.130   9.175   1.204  2.6973 -1.1669 -0.8976
  536MOL0     H70711   6.208   9.217   1.354 -1.4799 -1.4110 -0.1071
  536MOL0     H70712   5.991   9.392   1.208  3.5728  3.8078 -0.0036
  536MOL0     H70713   6.073   9.431   1.351  0.2423  2.6419 -4.8123
  536MOL0     H70714   5.818   9.486   1.305  0.4906 -0.2870 -0.0502
  536MOL0     H70715   5.581   9.526   1.347 -3.8241 -1.2401  0.4489
  536MOL0     H70716   5.234   9.424   1.738 -2.6524 -1.3089  1.0755
  536MOL0     H70717   5.003   9.450   1.790 -3.6934  3.0279  0.0114
  536MOL0     H70718   4.781   9.682   1.756 -2.9924 -0.3596  0.9729
  536MOL0     H70719   4.823   9.530   1.825 -2.0390 -0.2823  1.5094
  536MOL0     H70720   4.610   9.441   1.761 -1.7527 -1.4060  5.2728
  536MOL0     H70721   4.553   9.602   1.706  0.5558 -2.8046 -2.2055
  536MOL0     H70722   4.608   9.533   1.994  0.3766  1.7660  0.1326
  536MOL0     H70723   4.455   9.564   1.917  0.1763 -0.5781 -3.1883
  536MOL0     H70724   4.575   9.748   2.055  1.5796  0.7973  0.0791
  536MOL0     H70725   4.657   9.769   1.902 -1.3802  0.5817 -0.7606
  536MOL0     H70726   4.416   9.800   1.789  0.6698  0.6798 -0.5147
  536MOL0     H70727   4.495   9.916   1.899  0.5784  0.1271 -2.4730
  536MOL0     H70728   4.371   9.803   2.092 -2.5041 -2.2411  0.4468
  536MOL0     H70729   4.273   9.729   1.971  1.6770 -1.0004  0.6599
  536MOL0     H70730   4.175   9.943   2.073  1.1597 -0.6362  1.2079
  536MOL0     H70731   4.289  10.034   1.974 -0.1237 -0.0240  0.4089
  536MOL0     H70732   4.204   9.915   1.770  2.0842 -3.7400  2.2127
  536MOL0     H70733   4.092  10.029   1.845 -1.9825 -1.1211 -4.1870
  536MOL0     H70734   4.950   9.596   1.373  0.3755  1.3604 -0.9011
  536MOL0     H70735   5.173   9.559   1.323  0.8158 -1.9158 -0.6075
  536MOL0     H70736   5.589   9.170   1.598  0.3368  2.1617  2.6307
  536MOL0     H70737   5.795   9.109   1.514  4.2257  0.9904  0.5567
  536MOL0     H70738   6.716   9.285   2.050 -2.5825 -0.2266  1.2087
  536MOL0     H70739   6.709   9.223   2.292  1.9669  0.8790 -0.4451
  536MOL0     H70740   6.644   8.993   2.591  0.7211  0.4439 -0.8258
  536MOL0     H70741   6.614   8.969   2.848  1.2167  1.0051  0.6607
  536MOL0     H70742   6.667   8.756   2.972 -0.6449  1.6017 -1.2486
  536MOL0     H70743   6.628   8.913   3.056  0.6045  0.4457  0.6831
  536MOL0     H70744   6.795   8.817   3.250  0.4564 -0.4707  2.1636
  536MOL0     H70745   6.647   8.741   3.243  0.7715 -1.6952  0.0841
  536MOL0     H70746   6.892   8.669   3.082 -1.3022  3.0143  1.7834
  536MOL0     H70747   6.743   8.566   3.083 -0.7371  0.2053 -0.2034
  536MOL0     H70748   6.966   8.575   3.274 -0.1408  1.9711 -0.7546
  536MOL0     H70749   6.821   8.619   3.357  0.4627  2.1939 -0.2468
  536MOL0     H70750   6.745   8.213   3.306  2.6900 -0.0787  3.1938
  536MOL0     H70751   7.043   8.915   2.873 -1.0169  2.6234  2.9578
  536MOL0     H70752   7.070   8.945   2.654 -0.7713  3.7858 -1.6968
  537MOL0     O70753   4.498   2.850   4.758 -0.2424 -0.4988 -0.6847
  537MOL0     C70754   4.410   2.927   4.802  0.4991  0.3505 -0.4782
  537MOL0     O70755   4.415   2.978   4.926 -0.9235 -0.1980 -0.1667
  537MOL0     C70756   4.506   2.934   5.024 -0.5288  1.2162  0.1391
  537MOL0     C70757   4.612   3.009   5.079 -0.5300  0.1219 -0.2665
  537MOL0     C70758   4.700   2.962   5.171 -0.0312  0.8132  0.0687
  537MOL0     C70759   4.703   2.830   5.217 -0.0831  0.8560  0.1766
  537MOL0     O70760   4.805   2.784   5.303  1.2783 -0.6350 -0.1630
  537MOL0     C70761   4.801   2.650   5.356  0.4090  0.4899  0.9000
  537MOL0     C70762   4.911   2.621   5.463  1.3099  0.6690 -0.3313
  537MOL0     C70763   5.045   2.662   5.418  0.3711 -0.8947  0.6375
  537MOL0     C70764   5.159   2.601   5.512  0.3027  0.8107  1.0054
  537MOL0     C70765   5.299   2.601   5.449  0.2622 -0.5549  0.4327
  537MOL0     C70766   5.324   2.460   5.387 -0.0178  0.5311 -1.0046
  537MOL0     C70767   5.459   2.464   5.311 -0.9709  1.3344  0.0568
  537MOL0     C70768   5.482   2.321   5.235  0.4054  0.1493  0.4764
  537MOL0     N70769   5.610   2.338   5.160 -0.1626 -0.6066  0.4158
  537MOL0     C70770   5.737   2.317   5.204 -0.2325 -1.3911  0.6596
  537MOL0     C70771   5.816   2.314   5.095 -0.1406  1.2045 -0.9109
  537MOL0     C70772   5.963   2.316   5.104  0.0015  0.0093  0.4985
  537MOL0     C70773   6.018   2.442   5.033 -0.0064 -0.4668 -0.5165
  537MOL0     C70774   6.170   2.465   5.043 -0.0857  0.3872 -0.5683
  537MOL0     C70775   6.255   2.341   4.992  0.6324 -0.4704 -0.1650
  537MOL0     O70776   6.200   2.304   4.861 -0.4843 -0.0400 -0.5288
  537MOL0     C70777   6.263   2.198   4.799  0.3417  0.9420 -0.8717
  537MOL0     C70778   6.397   2.173   4.795 -2.1609 -0.6958  1.2883
  537MOL0     C70779   6.450   2.070   4.713 -0.6805  0.7377 -0.1590
  537MOL0     C70780   6.366   1.973   4.653  0.7913  0.0522 -0.6661
  537MOL0     C70781   6.409   1.844   4.592 -0.9885 -0.4532 -0.2326
  537MOL0     O70782   6.313   1.758   4.551 -0.3668 -0.3727 -0.2452
  537MOL0     C70783   6.347   1.632   4.507  0.2806 -0.1144 -1.2193
  537MOL0     C70784   6.401   1.613   4.384 -0.8505 -0.7181 -0.3589
  537MOL0     C70785   6.444   1.484   4.344  0.2373  0.9991  0.3639
  537MOL0     C70786   6.427   1.366   4.431 -0.4676 -0.2518  0.7739
  537MOL0     O70787   6.451   1.236   4.414  0.1140 -0.1296  0.4945
  537MOL0     C70788   6.409   1.191   4.278  0.0956 -0.4420  0.6528
  537MOL0     C70789   6.441   1.039   4.265  0.9613 -0.7774  0.2283
  537MOL0     C70790   6.358   0.953   4.364 -0.2817  0.4408  0.1449
  537MOL0     C70791   6.368   0.800   4.328  0.4200 -0.4364  0.0301
  537MOL0     C70792   6.342   0.702   4.444  0.3336 -0.5835 -0.0731
  537MOL0     C70793   6.193   0.692   4.458  0.3460 -0.6214 -0.0384
  537MOL0     C70794   6.139   0.619   4.592  0.8300  0.6176  0.8448
  537MOL0     C70795   6.186   0.473   4.585 -0.4693 -0.0167  0.4837
  537MOL0    Cl70796   6.130   0.411   4.746 -0.0723  0.3247  0.5233
  537MOL0     C70797   6.370   1.394   4.561  0.8136  0.6538  0.8104
  537MOL0     C70798   6.320   1.518   4.589  0.6868 -0.4394  0.2896
  537MOL0     O70799   6.531   1.829   4.578 -0.2370  0.1886 -0.3859
  537MOL0     C70800   6.230   2.004   4.661 -0.1528  0.5009  1.0267
  537MOL0     C70801   6.175   2.110   4.730  0.1108 -0.0090 -0.4932
  537MOL0     N70802   5.742   2.326   4.988  0.0246  0.1701  1.0209
  537MOL0     N70803   5.617   2.333   5.028  0.1570  0.4725 -0.7353
  537MOL0     C70804   4.611   2.749   5.164  0.1029  0.3500 -0.6955
  537MOL0     C70805   4.522   2.795   5.060 -0.2007 -0.0521 -0.1299
  537MOL0     C70806   4.295   2.968   4.711 -0.5179  0.4671 -0.2650
  537MOL0     C70807   4.292   2.910   4.588  0.2938 -0.2239  0.7042
  537MOL0     C70808   4.185   2.947   4.507 -0.3149  0.2050  0.8545
  537MOL0     C70809   4.095   3.050   4.539  0.2152  0.1795 -0.1850
  537MOL0     O70810   3.986   3.069   4.451  0.5051 -0.1187 -0.1884
  537MOL0     C70811   3.891   3.180   4.456 -0.4195 -0.3384  0.9195
  537MOL0     C70812   3.767   3.147   4.537 -0.8502 -0.4836  0.1364
  537MOL0     C70813   3.648   3.241   4.507  0.1766 -0.2514  0.1597
  537MOL0     C70814   3.635   3.374   4.586 -0.1429  0.0918 -0.0888
  537MOL0     C70815   3.736   3.472   4.545 -0.0280  0.3025 -0.0803
  537MOL0     C70816   3.812   3.559   4.496  0.7406  0.5369 -0.2252
  537MOL0     C70817   4.100   3.105   4.670  0.6405  0.5662 -0.9185
  537MOL0     C70818   4.201   3.057   4.759  0.1904 -0.5034  0.4899
  537MOL0     H70819   4.622   3.113   5.049 -2.4592  0.2982 -0.4594
  537MOL0     H70820   4.771   3.033   5.211  0.7159  0.8921 -1.3432
  537MOL0     H70821   4.820   2.576   5.278  0.2573  0.6235  0.7355
  537MOL0     H70822   4.700   2.640   5.397  1.6049 -2.6744  3.5392
  537MOL0     H70823   4.919   2.518   5.498 -0.0229  1.0392  1.1674
  537MOL0     H70824   4.878   2.668   5.556 -4.6981 -1.0802 -1.1963
  537MOL0     H70825   5.050   2.772   5.424  1.1182 -1.0076  4.8845
  537MOL0     H70826   5.072   2.618   5.321  1.3817  0.0438  0.4686
  537MOL0     H70827   5.166   2.648   5.611 -0.6881 -1.0957  2.0582
  537MOL0     H70828   5.127   2.500   5.539  2.7350 -0.7601 -1.4247
  537MOL0     H70829   5.380   2.616   5.520  0.4637 -1.5195  0.4078
  537MOL0     H70830   5.314   2.674   5.368 -1.3212  0.0387  0.6306
  537MOL0     H70831   5.239   2.453   5.319 -0.3691  2.9203 -0.8881
  537MOL0     H70832   5.322   2.372   5.452  0.9744 -1.1689 -3.1499
  537MOL0     H70833   5.476   2.557   5.255  2.2015  0.1808 -1.1474
  537MOL0     H70834   5.535   2.470   5.390 -2.3538 -2.2584  1.8565
  537MOL0     H70835   5.394   2.306   5.172  0.5170  2.6366 -0.3932
  537MOL0     H70836   5.491   2.236   5.302 -0.1141 -0.7633 -0.5822
  537MOL0     H70837   5.772   2.327   5.306 -2.4515  1.2353  1.3006
  537MOL0     H70838   6.016   2.226   5.073  3.7672  0.4351  4.7069
  537MOL0     H70839   5.991   2.333   5.208 -1.7769  1.0971  0.8448
  537MOL0     H70840   5.970   2.529   5.080 -1.6667 -0.7742 -1.5337
  537MOL0     H70841   5.997   2.442   4.925  1.8571  1.8714 -0.9615
  537MOL0     H70842   6.195   2.554   4.985 -2.7818  1.8212  0.3011
  537MOL0     H70843   6.203   2.485   5.145  1.5304  2.1333 -1.3734
  537MOL0     H70844   6.238   2.259   5.062 -3.1672  0.4870  0.2232
  537MOL0     H70845   6.364   2.356   4.990  0.5243  0.3518 -1.7514
  537MOL0     H70846   6.462   2.234   4.855  2.1966 -1.8812 -1.7165
  537MOL0     H70847   6.559   2.061   4.710 -0.7125  0.4927 -0.8073
  537MOL0     H70848   6.432   1.699   4.325 -0.9825 -0.4925 -0.0987
  537MOL0     H70849   6.487   1.471   4.246 -1.6967  1.1265 -0.5552
  537MOL0     H70850   6.477   1.228   4.200  1.5720  0.2184  2.2029
  537MOL0     H70851   6.303   1.212   4.266  0.0760  2.8308  4.4202
  537MOL0     H70852   6.546   1.023   4.287  0.0454 -2.0732  4.4596
  537MOL0     H70853   6.421   1.003   4.163 -1.2220  1.0862 -0.0968
  537MOL0     H70854   6.251   0.975   4.355 -0.2675  0.1625 -0.8271
  537MOL0     H70855   6.386   0.978   4.467 -0.0649  1.3260 -0.1298
  537MOL0     H70856   6.309   0.763   4.243 -1.9207 -1.1607  1.8374
  537MOL0     H70857   6.472   0.776   4.306  0.5554  0.3545 -0.2001
  537MOL0     H70858   6.396   0.732   4.534  3.7117  0.5791 -2.2774
  537MOL0     H70859   6.385   0.610   4.405 -3.0378 -1.6168 -1.6819
  537MOL0     H70860   6.156   0.640   4.369 -0.1824 -1.7593  0.8260
  537MOL0     H70861   6.154   0.794   4.464  3.4376  0.5931  1.5766
  537MOL0     H70862   6.196   0.667   4.672 -0.0932  0.3418  1.6982
  537MOL0     H70863   6.033   0.613   4.620  1.2420  0.1090  2.4187
  537MOL0     H70864   6.292   0.470   4.560 -0.2895  1.8181  0.9438
  537MOL0     H70865   6.131   0.414   4.510  1.1030  0.4191 -1.0815
  537MOL0     H70866   6.345   1.304   4.617  0.4187  0.8159  0.8945
  537MOL0     H70867   6.282   1.543   4.688 -2.1648  4.6634 -1.7122
  537MOL0     H70868   6.164   1.938   4.605  0.1149  0.4322  0.7906
  537MOL0     H70869   6.070   2.138   4.726  0.9140  3.9807  1.5174
  537MOL0     H70870   4.612   2.644   5.192  1.3038  0.4557 -0.2600
  537MOL0     H70871   4.457   2.719   5.018 -0.7836  0.1231  0.4327
  537MOL0     H70872   4.366   2.834   4.566 -1.5586 -1.4180 -1.9392
  537MOL0     H70873   4.173   2.897   4.411  0.4957  1.7709 -0.0970
  537MOL0     H70874   3.853   3.199   4.356  2.6241  0.5357 -0.1840
  537MOL0     H70875   3.933   3.280   4.473 -3.3967  1.5790 -1.8389
  537MOL0     H70876   3.732   3.044   4.523  0.0137 -0.3050 -5.7822
  537MOL0     H70877   3.789   3.160   4.643  0.9991 -3.5967  0.2356
  537MOL0     H70878   3.564   3.183   4.544 -0.2029  1.5978  2.4364
  537MOL0     H70879   3.631   3.262   4.401  0.3630  0.2163  0.2200
  537MOL0     H70880   3.535   3.416   4.578 -0.4773  0.8582  4.9362
  537MOL0     H70881   3.652   3.355   4.693 -0.2734 -0.4063 -0.1582
  537MOL0     H70882   3.879   3.640   4.474 -0.8735  1.9555 -0.1698
  537MOL0     H70883   4.033   3.180   4.712  0.5803 -0.1180  0.2272
  537MOL0     H70884   4.195   3.082   4.864 -2.0091 -1.3612  0.6449
  538MOL0     O70885   1.216   0.598   8.297  0.0258 -0.3972  0.0341
  538MOL0     C70886   1.331   0.640   8.278  0.2315  0.0369  0.7640
  538MOL0     O70887   1.359   0.725   8.181  0.3130 -0.1517  0.2107
  538MOL0     C70888   1.260   0.766   8.092 -0.4020 -0.2706  0.5803
  538MOL0     C70889   1.303   0.747   7.959 -0.1048 -0.5453 -0.5007
  538MOL0     C70890   1.230   0.791   7.847  0.4266 -1.1366 -0.5409
  538MOL0     C70891   1.119   0.869   7.871  0.1063 -0.2522  0.5787
  538MOL0     O70892   1.039   0.925   7.782 -0.2075 -0.5831  0.0716
  538MOL0     C70893   1.065   0.899   7.642 -0.2325  0.1663 -1.1057
  538MOL0     C70894   0.952   0.923   7.547 -0.1916  0.2752 -0.1532
  538MOL0     C70895   0.945   1.067   7.523 -0.4783  0.5934  0.5499
  538MOL0     C70896   0.880   1.093   7.380  0.0020 -0.1177 -0.9146
  538MOL0     C70897   0.904   1.231   7.322 -0.3165  0.2504 -0.2389
  538MOL0     C70898   0.822   1.337   7.403  0.4560  0.4955 -0.1304
  538MOL0     C70899   0.669   1.330   7.374 -0.6331 -0.3496  0.2559
  538MOL0     C70900   0.606   1.465   7.366  0.3817 -0.1080 -0.2641
  538MOL0     N70901   0.606   1.519   7.501  1.1589 -0.5400 -0.4435
  538MOL0     C70902   0.505   1.522   7.599  0.4977 -0.1926  0.5612
  538MOL0     C70903   0.555   1.611   7.689 -0.3138  0.7518 -0.2370
  538MOL0     C70904   0.496   1.670   7.816  1.2679  0.2940  0.0485
  538MOL0     C70905   0.368   1.755   7.801 -0.1043 -0.4075  0.2044
  538MOL0     C70906   0.370   1.854   7.915 -0.4086  0.6127 -1.3574
  538MOL0     C70907   0.240   1.914   7.952  0.2580 -0.7990 -0.7577
  538MOL0     O70908   0.212   2.024   7.865  0.2446 -0.3400  0.6210
  538MOL0     C70909   0.085   2.071   7.870 -0.3916 -0.8800 -0.1709
  538MOL0     C70910   0.041   2.142   7.762 -0.1213 -1.1404 -0.3755
  538MOL0     C70911  -0.078   2.213   7.766 -0.5162  0.5353  0.0314
  538MOL0     C70912  -0.178   2.175   7.862 -0.6684 -0.9418  0.3825
  538MOL0     C70913  -0.311   2.240   7.864  0.5546 -0.1314  0.2045
  538MOL0     O70914  -0.338   2.320   7.755 -0.1229 -0.1294 -0.6530
  538MOL0     C70915  -0.468   2.366   7.747  0.3575  0.1800  0.8698
  538MOL0     C70916  -0.562   2.317   7.655  0.4123  0.0878 -0.8425
  538MOL0     C70917  -0.699   2.335   7.670 -0.0384 -0.6221  0.6371
  538MOL0     C70918  -0.737   2.426   7.767  0.3850 -0.7798 -0.4185
  538MOL0     O70919  -0.868   2.459   7.783  0.5626 -0.7453  0.3224
  538MOL0     C70920  -0.956   2.432   7.678  0.0589  0.5595  0.7147
  538MOL0     C70921  -1.098   2.486   7.714 -0.2372  0.2807 -1.1060
  538MOL0     C70922  -1.212   2.393   7.680  0.1093  0.5221 -0.0641
  538MOL0     C70923  -1.355   2.438   7.711 -0.9571 -0.0782 -1.3984
  538MOL0     C70924  -1.446   2.321   7.713  0.3017  0.0353  0.0212
  538MOL0     C70925  -1.513   2.289   7.578  0.6525 -0.2999  0.1283
  538MOL0     C70926  -1.634   2.192   7.604 -0.9461 -0.5666 -0.8420
  538MOL0     C70927  -1.631   2.072   7.520  0.3980 -0.0937  0.7873
  538MOL0    Cl70928  -1.603   2.107   7.339  0.2387 -0.0653  0.2019
  538MOL0     C70929  -0.641   2.487   7.859  0.5632  0.9868 -0.3295
  538MOL0     C70930  -0.507   2.461   7.839  0.6043  1.2927 -0.2086
  538MOL0     O70931  -0.386   2.210   7.959 -0.5381 -0.3628  0.1802
  538MOL0     C70932  -0.139   2.092   7.964  0.4120 -0.0696 -0.3771
  538MOL0     C70933  -0.003   2.051   7.973 -0.4266  0.8077 -0.0475
  538MOL0     N70934   0.670   1.669   7.646 -0.6800 -0.4121  0.3235
  538MOL0     N70935   0.701   1.606   7.539 -0.2101 -0.1175  0.0863
  538MOL0     C70936   1.069   0.894   8.000  0.2153  0.3231 -0.0037
  538MOL0     C70937   1.131   0.822   8.105 -0.3192 -0.5582  0.0045
  538MOL0     C70938   1.444   0.587   8.355 -0.1871  0.4794  0.2571
  538MOL0     C70939   1.423   0.494   8.453 -0.0519 -0.0038 -0.1888
  538MOL0     C70940   1.532   0.445   8.520  0.2191  0.3493  0.2223
  538MOL0     C70941   1.662   0.488   8.489 -0.4071 -0.1247 -0.3297
  538MOL0     O70942   1.779   0.440   8.548  1.1897 -0.2962 -0.5176
  538MOL0     C70943   1.780   0.335   8.657  0.5845  0.3445 -0.8275
  538MOL0     C70944   1.918   0.256   8.668 -0.1509 -0.7708  0.3355
  538MOL0     C70945   2.018   0.327   8.752  0.5732 -0.5856 -0.2211
  538MOL0     C70946   2.015   0.478   8.733  0.2787  0.3303 -0.2312
  538MOL0     C70947   2.076   0.513   8.601  0.3055  0.2924  0.1203
  538MOL0     C70948   2.124   0.536   8.488  0.3574 -0.5202 -0.5072
  538MOL0     C70949   1.684   0.574   8.384 -0.8872 -0.6954 -0.0693
  538MOL0     C70950   1.571   0.628   8.321 -0.0526  0.1551  0.0624
  538MOL0     H70951   1.393   0.692   7.933  0.9887  1.7716 -1.9916
  538MOL0     H70952   1.253   0.773   7.742 -1.4861  2.0790 -1.6840
  538MOL0     H70953   1.086   0.794   7.621 -0.8795 -0.1415 -0.2519
  538MOL0     H70954   1.153   0.961   7.622  0.6020  1.4628  4.6826
  538MOL0     H70955   0.856   0.890   7.586  0.4770 -2.7076 -0.7883
  538MOL0     H70956   0.974   0.868   7.455  2.6592 -0.4857  0.8591
  538MOL0     H70957   1.043   1.115   7.517 -1.7801  3.3382 -1.1503
  538MOL0     H70958   0.881   1.107   7.602  0.6338  1.8585  0.8512
  538MOL0     H70959   0.905   1.007   7.317  2.5280 -0.2751  0.2024
  538MOL0     H70960   0.773   1.078   7.397  0.7270 -2.2884  2.8338
  538MOL0     H70961   0.871   1.237   7.219  0.4219  1.3521 -0.4192
  538MOL0     H70962   1.011   1.256   7.330 -0.2283  0.0438 -0.7520
  538MOL0     H70963   0.868   1.434   7.378  1.9715 -0.6801 -2.2480
  538MOL0     H70964   0.826   1.310   7.508 -1.5796 -2.4207 -0.6861
  538MOL0     H70965   0.660   1.271   7.282  1.2405 -4.0537  2.2494
  538MOL0     H70966   0.619   1.268   7.448 -3.1099  0.1478 -0.8636
  538MOL0     H70967   0.500   1.458   7.342  0.6608 -1.5095 -1.2423
  538MOL0     H70968   0.653   1.529   7.292 -1.0431  1.2044 -0.0704
  538MOL0     H70969   0.413   1.463   7.600  1.8767 -2.5134 -0.6480
  538MOL0     H70970   0.580   1.723   7.862  2.0322 -0.9215  0.0966
  538MOL0     H70971   0.477   1.581   7.876  0.1879 -0.7148 -1.7262
  538MOL0     H70972   0.283   1.690   7.827  0.4128 -0.5581  1.6525
  538MOL0     H70973   0.358   1.808   7.706  0.8137 -0.5219  0.0396
  538MOL0     H70974   0.397   1.799   8.006 -0.2142  1.9181 -0.6025
  538MOL0     H70975   0.447   1.930   7.897  0.3209 -0.3224 -2.3275
  538MOL0     H70976   0.253   1.949   8.055  0.5706 -3.0441  0.0220
  538MOL0     H70977   0.164   1.836   7.953 -1.4966  0.8241  0.0698
  538MOL0     H70978   0.107   2.167   7.680 -0.9467 -0.8774 -0.9827
  538MOL0     H70979  -0.096   2.292   7.693  2.2765  0.2169 -1.1180
  538MOL0     H70980  -0.536   2.246   7.577 -0.6849 -0.7068 -0.5009
  538MOL0     H70981  -0.762   2.274   7.605 -0.1678  0.1687 -0.0123
  538MOL0     H70982  -0.961   2.323   7.667  6.1185  0.1040 -0.8388
  538MOL0     H70983  -0.913   2.485   7.593  2.1770  0.3628  1.5932
  538MOL0     H70984  -1.119   2.583   7.668 -0.3540  0.6125 -0.3815
  538MOL0     H70985  -1.110   2.517   7.819 -1.1161  2.2919 -1.7473
  538MOL0     H70986  -1.197   2.295   7.726 -3.0446 -0.4601 -0.8500
  538MOL0     H70987  -1.205   2.367   7.574  2.5938 -4.1251  0.9715
  538MOL0     H70988  -1.354   2.473   7.815  0.7361 -2.3288 -0.5775
  538MOL0     H70989  -1.398   2.512   7.643 -0.3612 -1.2422 -3.1277
  538MOL0     H70990  -1.531   2.344   7.778 -1.0269  1.1918 -2.0360
  538MOL0     H70991  -1.395   2.232   7.753 -0.1077 -1.3154 -2.2576
  538MOL0     H70992  -1.440   2.267   7.500 -0.9192  0.2070 -1.5667
  538MOL0     H70993  -1.550   2.382   7.534  2.8839  0.3689 -0.4655
  538MOL0     H70994  -1.627   2.155   7.706 -0.1967  2.3525  0.2620
  538MOL0     H70995  -1.727   2.251   7.599  1.3056  3.4867  0.5218
  538MOL0     H70996  -1.723   2.020   7.548  0.5352 -0.1358  1.1833
  538MOL0     H70997  -1.544   2.020   7.562  1.8645  3.6993  2.9787
  538MOL0     H70998  -0.674   2.558   7.934 -0.6844  0.4940 -0.3920
  538MOL0     H70999  -0.439   2.500   7.914  1.6082 -1.0460  0.1838
  538MOL0     H71000  -0.215   2.076   8.040 -0.8444  3.3053 -0.7278
  538MOL0     H71001   0.012   1.990   8.062 -3.6105 -1.0757 -0.6345
  538MOL0     H71002   0.982   0.957   8.014  0.8371  1.0043  0.9276
  538MOL0     H71003   1.092   0.830   8.206 -0.7290 -4.2326  0.2575
  538MOL0     H71004   1.320   0.462   8.467 -0.3198  0.6778 -0.5584
  538MOL0     H71005   1.524   0.371   8.600 -2.1837 -1.3685 -1.4770
  538MOL0     H71006   1.699   0.262   8.643 -0.5436  1.3074  0.4425
  538MOL0     H71007   1.769   0.381   8.755  3.1889  1.0250 -0.7655
  538MOL0     H71008   1.897   0.162   8.718 -2.9686  0.2557  1.2781
  538MOL0     H71009   1.960   0.242   8.568 -1.2589  1.7971 -0.5969
  538MOL0     H71010   2.116   0.278   8.745 -0.2021 -2.6187  2.0674
  538MOL0     H71011   1.993   0.307   8.856  1.9990  0.0846  0.2740
  538MOL0     H71012   1.920   0.526   8.756 -0.0226 -0.9069  1.3273
  538MOL0     H71013   2.084   0.518   8.808  0.3063 -1.2123  0.6239
  538MOL0     H71014   2.157   0.585   8.399  0.2607  1.4994  0.5209
  538MOL0     H71015   1.783   0.601   8.351 -0.7720 -1.9311 -0.8398
  538MOL0     H71016   1.592   0.700   8.242  0.1552  2.4438  2.0570
  539MOL0     O71017   6.530   5.358   0.650  0.6842 -0.1129 -0.7590
  539MOL0     C71018   6.608   5.339   0.559 -0.0430  0.1383 -0.5787
  539MOL0     O71019   6.744   5.354   0.560 -0.4178 -0.6271 -0.0814
  539MOL0     C71020   6.809   5.384   0.679 -0.8217  0.9901 -0.8214
  539MOL0     C71021   6.760   5.377   0.819 -0.7190 -0.4090  1.1057
  539MOL0     C71022   6.836   5.434   0.922 -0.7693  0.1247  0.0445
  539MOL0     C71023   6.951   5.501   0.890 -0.2084  0.6158 -0.4296
  539MOL0     O71024   7.024   5.566   0.991 -1.4525 -0.7616 -0.0144
  539MOL0     C71025   7.100   5.682   0.957 -0.1907  0.0126  0.7175
  539MOL0     C71026   7.105   5.773   1.080 -0.4900 -0.5626  0.3971
  539MOL0     C71027   6.966   5.794   1.140 -0.1459  1.1289  0.0869
  539MOL0     C71028   6.971   5.886   1.270  0.0405  0.9135  0.0823
  539MOL0     C71029   6.831   5.932   1.312 -0.3203  0.7469  0.5998
  539MOL0     C71030   6.853   6.033   1.424  0.0915 -0.2505 -0.1922
  539MOL0     C71031   6.837   6.170   1.374 -0.3542  0.1670 -1.1137
  539MOL0     C71032   6.691   6.210   1.360  0.3998  0.2835 -0.1218
  539MOL0     N71033   6.673   6.352   1.328 -0.1453  0.0204  0.4620
  539MOL0     C71034   6.748   6.455   1.384 -0.3433  0.2139 -0.7440
  539MOL0     C71035   6.714   6.567   1.319  0.1979  0.3878  0.7613
  539MOL0     C71036   6.779   6.704   1.367  1.2604  0.4574 -0.9664
  539MOL0     C71037   6.667   6.808   1.350 -0.7357 -0.0637  0.2111
  539MOL0     C71038   6.730   6.944   1.341 -0.3896 -0.1468 -0.1530
  539MOL0     C71039   6.631   7.047   1.298  0.1508  0.5802 -0.6115
  539MOL0     O71040   6.697   7.168   1.275  0.5416 -0.4407  0.1970
  539MOL0     C71041   6.646   7.259   1.189  0.4846  0.7494  0.2855
  539MOL0     C71042   6.732   7.339   1.127 -0.6545  0.1644  0.2695
  539MOL0     C71043   6.694   7.464   1.089  1.0718 -1.1295 -0.2655
  539MOL0     C71044   6.562   7.514   1.095  0.4642  0.3455  0.3527
  539MOL0     C71045   6.526   7.638   1.059  0.2585 -0.2899 -0.0025
  539MOL0     O71046   6.401   7.671   1.110 -0.1100 -0.0349  0.4728
  539MOL0     C71047   6.340   7.791   1.064 -0.5355  1.0743  0.0069
  539MOL0     C71048   6.318   7.824   0.932  0.6741 -0.1494 -0.2871
  539MOL0     C71049   6.225   7.923   0.890 -0.5578 -1.3013  0.4924
  539MOL0     C71050   6.146   7.991   0.987 -0.3809  0.3491 -1.0274
  539MOL0     O71051   6.054   8.089   0.957  0.3010 -0.2057  0.3104
  539MOL0     C71052   5.987   8.069   0.831 -0.0285  0.1610 -0.6087
  539MOL0     C71053   5.833   8.083   0.845 -0.8936 -0.3361  0.4095
  539MOL0     C71054   5.783   8.219   0.908 -0.7899  0.6643  0.1873
  539MOL0     C71055   5.851   8.340   0.838  1.3243  0.7437  0.8617
  539MOL0     C71056   5.754   8.460   0.835  0.5831 -0.6048  0.3084
  539MOL0     C71057   5.825   8.583   0.774 -0.3109  0.9748  1.3052
  539MOL0     C71058   5.723   8.697   0.762  0.3167  0.4658  0.6307
  539MOL0     C71059   5.773   8.816   0.822 -0.3791  0.5535  0.4716
  539MOL0    Cl71060   5.906   8.876   0.713  0.1128  0.3040 -0.1710
  539MOL0     C71061   6.184   7.971   1.123 -0.2758  0.3815 -0.6119
  539MOL0     C71062   6.279   7.867   1.162  0.1007 -0.1208  0.7054
  539MOL0     O71063   6.609   7.707   1.001 -0.6309 -0.0817 -0.4700
  539MOL0     C71064   6.468   7.418   1.142 -0.1112  0.6784  0.1880
  539MOL0     C71065   6.512   7.299   1.195 -0.5577  0.3974 -0.3012
  539MOL0     N71066   6.609   6.532   1.226 -0.8354 -0.0500 -0.7093
  539MOL0     N71067   6.589   6.411   1.232 -0.1757  1.1493  0.2554
  539MOL0     C71068   7.001   5.489   0.761 -0.5828  1.2056 -0.4929
  539MOL0     C71069   6.934   5.431   0.655 -0.2839 -0.9014 -0.1845
  539MOL0     C71070   6.548   5.280   0.434 -0.5008 -0.9327  0.0830
  539MOL0     C71071   6.595   5.166   0.373  0.5343  0.0651  0.2944
  539MOL0     C71072   6.527   5.109   0.257  0.1565 -0.3337 -0.8313
  539MOL0     C71073   6.411   5.176   0.203  0.0357  0.6859  0.4363
  539MOL0     O71074   6.343   5.116   0.100 -2.1999 -0.3666 -0.2489
  539MOL0     C71075   6.277   5.199   0.001 -0.2807  0.6620  0.0097
  539MOL0     C71076   6.299   5.134  -0.130  0.1501 -0.5592 -0.8431
  539MOL0     C71077   6.235   5.198  -0.248 -0.0840  0.6037  0.6677
  539MOL0     C71078   6.248   5.105  -0.372 -0.0819 -0.2103 -0.2090
  539MOL0     C71079   6.170   5.154  -0.482 -0.7915  0.3026 -0.6712
  539MOL0     C71080   6.101   5.194  -0.575  0.5718  0.8179  0.6613
  539MOL0     C71081   6.372   5.286   0.270  0.0391  0.4118  0.9048
  539MOL0     C71082   6.431   5.342   0.385  0.4630  1.0254 -0.1213
  539MOL0     H71083   6.660   5.341   0.842 -0.9725  0.0760  0.7789
  539MOL0     H71084   6.800   5.456   1.023  1.3140 -2.2147  1.3939
  539MOL0     H71085   7.049   5.731   0.873 -0.2903 -1.7256 -0.2887
  539MOL0     H71086   7.200   5.667   0.916 -0.4520 -2.0508  0.7305
  539MOL0     H71087   7.154   5.867   1.053  0.7216 -0.7744  1.7638
  539MOL0     H71088   7.174   5.733   1.155  0.2375  1.5885  0.9346
  539MOL0     H71089   6.920   5.697   1.161 -0.8396  0.5421 -3.4701
  539MOL0     H71090   6.905   5.846   1.066 -0.4237 -0.6417 -0.9817
  539MOL0     H71091   7.006   5.832   1.359  3.5406 -0.6398 -2.0454
  539MOL0     H71092   7.032   5.973   1.246  1.4276  0.2919  1.2185
  539MOL0     H71093   6.786   5.850   1.368  2.6311 -1.3525  0.1101
  539MOL0     H71094   6.775   5.964   1.223  3.3154  1.1695 -1.7458
  539MOL0     H71095   6.954   6.030   1.466  0.8207  2.9503 -1.4182
  539MOL0     H71096   6.790   6.004   1.508  1.0526 -3.3434 -0.4067
  539MOL0     H71097   6.880   6.229   1.455 -3.4485  1.2496 -0.1470
  539MOL0     H71098   6.897   6.186   1.283 -0.9179  0.4182 -1.4440
  539MOL0     H71099   6.641   6.183   1.454  1.6265  2.2557  1.1951
  539MOL0     H71100   6.642   6.145   1.288  2.3576  0.9152 -2.1558
  539MOL0     H71101   6.821   6.452   1.465 -2.9640  1.4994  1.8269
  539MOL0     H71102   6.859   6.724   1.295  0.4748 -0.0448 -2.0012
  539MOL0     H71103   6.823   6.710   1.467 -1.6681  4.8101  0.3448
  539MOL0     H71104   6.600   6.806   1.436  0.2713  2.2278  1.1080
  539MOL0     H71105   6.622   6.784   1.253 -0.4310  0.5289 -0.0801
  539MOL0     H71106   6.772   6.969   1.439  3.2428  1.3926 -1.9363
  539MOL0     H71107   6.813   6.957   1.271 -1.1124  3.9036 -0.5139
  539MOL0     H71108   6.561   7.054   1.382  0.9225 -0.3689  0.1269
  539MOL0     H71109   6.577   7.019   1.206 -0.8423 -0.6515  0.2975
  539MOL0     H71110   6.838   7.321   1.130 -0.9390 -1.6013  0.7933
  539MOL0     H71111   6.765   7.543   1.066 -0.3189  1.8456  4.2507
  539MOL0     H71112   6.367   7.766   0.854 -0.3351  0.1863 -1.2004
  539MOL0     H71113   6.218   7.950   0.784  2.3514 -1.9627  0.0641
  539MOL0     H71114   6.006   7.965   0.801 -0.4029  0.4691 -1.9815
  539MOL0     H71115   6.038   8.124   0.752 -1.7205 -0.6568 -2.3616
  539MOL0     H71116   5.788   8.003   0.905  0.8120 -2.0096 -0.4286
  539MOL0     H71117   5.795   8.065   0.744 -2.8316  1.1978  0.8171
  539MOL0     H71118   5.822   8.228   1.010  1.8755 -0.0307 -0.6836
  539MOL0     H71119   5.675   8.234   0.896 -0.8090  0.0671 -0.4443
  539MOL0     H71120   5.949   8.359   0.885  1.7618 -1.6785  1.0323
  539MOL0     H71121   5.872   8.315   0.733 -1.1775 -1.4072  0.7869
  539MOL0     H71122   5.730   8.474   0.941  0.6839  0.2499  0.2304
  539MOL0     H71123   5.664   8.431   0.780  1.5372 -1.3755 -0.9017
  539MOL0     H71124   5.852   8.556   0.672 -0.3920  1.0549  1.2623
  539MOL0     H71125   5.907   8.617   0.838  1.0804 -2.2189  1.4303
  539MOL0     H71126   5.718   8.723   0.656 -3.1149  3.2836  1.2844
  539MOL0     H71127   5.623   8.680   0.803  0.1814  0.1149  0.1579
  539MOL0     H71128   5.805   8.792   0.924 -0.0494 -1.2347 -0.0168
  539MOL0     H71129   5.690   8.887   0.827 -0.3572  0.7407 -1.3016
  539MOL0     H71130   6.143   8.025   1.208 -1.0162 -3.5615  1.7652
  539MOL0     H71131   6.300   7.839   1.265 -1.8194 -0.1818  1.1153
  539MOL0     H71132   6.365   7.444   1.118 -0.7716 -1.2380  0.7785
  539MOL0     H71133   6.439   7.228   1.234 -1.9591  1.7436 -0.3986
  539MOL0     H71134   7.095   5.538   0.737  1.0132 -1.7597 -0.7364
  539MOL0     H71135   6.965   5.444   0.552 -0.8520 -1.8643 -0.4908
  539MOL0     H71136   6.690   5.127   0.407 -0.3614 -2.2322  0.2899
  539MOL0     H71137   6.570   5.024   0.205 -0.3820 -2.6621  2.2265
  539MOL0     H71138   6.328   5.295  -0.002  1.2638 -0.0547  1.6941
  539MOL0     H71139   6.171   5.213   0.024  0.1525  3.0012  0.8780
  539MOL0     H71140   6.405   5.123  -0.156  0.1632  1.8164 -2.0365
  539MOL0     H71141   6.250   5.037  -0.119  0.7698 -0.6578  1.7344
  539MOL0     H71142   6.280   5.297  -0.261  1.7464 -0.3801 -0.9338
  539MOL0     H71143   6.130   5.220  -0.229  0.1324  3.5411 -0.9095
  539MOL0     H71144   6.350   5.097  -0.411 -0.1180 -2.1505 -0.0332
  539MOL0     H71145   6.223   5.000  -0.354  0.8510 -0.4229 -0.0560
  539MOL0     H71146   6.050   5.223  -0.664 -0.6384  0.0902  1.0868
  539MOL0     H71147   6.275   5.326   0.243 -0.2653 -1.3734 -0.8283
  539MOL0     H71148   6.387   5.434   0.421 -1.6194  1.5078 -3.4383
  540MOL0     O71149   8.027   5.165  11.240  1.4189  0.4640  0.5350
  540MOL0     C71150   8.093   5.270  11.239  0.7323  0.3155  0.6254
  540MOL0     O71151   8.228   5.268  11.234  0.4883  0.2554  0.1200
  540MOL0     C71152   8.292   5.148  11.207 -0.3168 -0.4927 -0.3224
  540MOL0     C71153   8.290   5.053  11.310 -0.0031 -0.1120  1.2048
  540MOL0     C71154   8.356   4.927  11.283  0.2592  0.3019 -1.1561
  540MOL0     C71155   8.411   4.901  11.160 -0.2091  0.2044  0.1959
  540MOL0     O71156   8.451   4.774  11.138 -0.6584  0.8402 -0.3177
  540MOL0     C71157   8.496   4.732  11.002 -1.0926 -0.1259 -0.2686
  540MOL0     C71158   8.525   4.584  11.002  0.3137 -0.3095  0.0375
  540MOL0     C71159   8.410   4.483  11.006 -0.1781 -0.5207  0.1436
  540MOL0     C71160   8.460   4.337  11.029 -0.1662 -0.7550  0.1025
  540MOL0     C71161   8.362   4.238  10.975  0.1108 -0.5138  0.7234
  540MOL0     C71162   8.370   4.098  11.013 -0.9421  0.8996 -0.2522
  540MOL0     C71163   8.525   4.048  11.018  1.5473 -0.5208 -0.3587
  540MOL0     C71164   8.530   3.898  11.033  0.4676  0.3772  0.3745
  540MOL0     N71165   8.475   3.826  10.911 -0.4545 -0.1996 -0.3014
  540MOL0     C71166   8.366   3.744  10.904  0.4475  0.3145  0.7234
  540MOL0     C71167   8.370   3.705  10.774 -0.8994  0.2327 -0.2992
  540MOL0     C71168   8.274   3.623  10.706 -0.1625  1.0968  0.4422
  540MOL0     C71169   8.353   3.490  10.675 -0.2598  0.5180  0.2979
  540MOL0     C71170   8.250   3.383  10.641  0.1120 -0.8792 -1.0559
  540MOL0     C71171   8.311   3.240  10.617 -0.4103 -0.5334 -1.2833
  540MOL0     O71172   8.414   3.213  10.716 -0.4496  0.0257 -0.4682
  540MOL0     C71173   8.480   3.093  10.707 -0.2104 -0.1347  0.2751
  540MOL0     C71174   8.517   3.020  10.587 -0.6550  0.3413  0.8268
  540MOL0     C71175   8.561   2.878  10.602 -0.1366 -0.0265  0.7901
  540MOL0     C71176   8.573   2.820  10.725 -1.5099  0.0559  0.8837
  540MOL0     C71177   8.635   2.687  10.732 -0.0189 -0.3695 -1.0064
  540MOL0     O71178   8.708   2.664  10.847 -0.7772  0.3350  1.0280
  540MOL0     C71179   8.734   2.534  10.880 -0.5002 -0.1476 -0.9349
  540MOL0     C71180   8.844   2.525  10.973 -0.3140  0.6277 -0.3835
  540MOL0     C71181   8.874   2.395  11.029  0.2333  1.0198  0.4660
  540MOL0     C71182   8.800   2.276  10.998 -0.3928 -0.2284 -0.6044
  540MOL0     O71183   8.846   2.155  11.035  0.8700  0.1341  0.0938
  540MOL0     C71184   8.939   2.153  11.143 -0.0863  0.1353 -0.1172
  540MOL0     C71185   8.947   2.016  11.209 -0.4150 -0.3385  0.1892
  540MOL0     C71186   9.056   2.010  11.314  0.5934  0.6555  0.1914
  540MOL0     C71187   9.037   1.889  11.408  0.8558  0.9342  0.1080
  540MOL0     C71188   9.133   1.870  11.529  0.4599  0.9062  0.1011
  540MOL0     C71189   9.280   1.864  11.497 -0.0876 -0.8959  0.7744
  540MOL0     C71190   9.320   1.745  11.399  0.0061 -0.3216  0.3365
  540MOL0     C71191   9.472   1.743  11.395  0.6267 -0.7676 -0.8033
  540MOL0    Cl71192   9.519   1.572  11.342 -0.2167 -0.4021 -0.1306
  540MOL0     C71193   8.696   2.294  10.915  0.0312 -0.9878  1.2560
  540MOL0     C71194   8.669   2.412  10.847  1.0486 -0.0862 -0.5043
  540MOL0     O71195   8.621   2.616  10.638  0.3283 -0.1610  0.1930
  540MOL0     C71196   8.543   2.900  10.841 -0.1097 -0.3032 -0.5625
  540MOL0     C71197   8.492   3.032  10.830  0.5370  0.2797  0.0807
  540MOL0     N71198   8.478   3.752  10.711  0.3323 -0.7407  0.3824
  540MOL0     N71199   8.542   3.838  10.787  0.4803 -0.8118  0.4860
  540MOL0     C71200   8.411   5.007  11.062 -0.2510  0.2891  0.6102
  540MOL0     C71201   8.348   5.126  11.079 -0.0232 -0.1986  0.1095
  540MOL0     C71202   8.024   5.397  11.237  0.5303 -0.0806  0.4567
  540MOL0     C71203   7.890   5.393  11.277  0.9592 -0.4330 -1.0209
  540MOL0     C71204   7.823   5.516  11.283  0.0699 -0.0096 -0.5526
  540MOL0     C71205   7.875   5.635  11.245  0.0671  0.2852  0.0832
  540MOL0     O71206   7.799   5.750  11.227 -0.2411 -0.7485 -0.1643
  540MOL0     C71207   7.662   5.749  11.251  0.6006 -1.0115  0.1503
  540MOL0     C71208   7.582   5.673  11.149 -0.7156  0.2202  0.2431
  540MOL0     C71209   7.597   5.730  11.005  0.7580 -0.1444  0.0618
  540MOL0     C71210   7.492   5.666  10.908 -0.4671  0.1856 -0.4742
  540MOL0     C71211   7.352   5.690  10.959  0.2367  0.9259  0.7813
  540MOL0     C71212   7.241   5.713  11.002  0.3288 -0.2113  0.7218
  540MOL0     C71213   8.006   5.634  11.201 -0.0503 -0.1373  0.0355
  540MOL0     C71214   8.083   5.514  11.205  0.1654 -0.7044  0.3090
  540MOL0     H71215   8.233   5.079  11.399 -0.0981  1.0135  0.8231
  540MOL0     H71216   8.358   4.850  11.359 -0.2130 -0.4248 -1.8639
  540MOL0     H71217   8.588   4.783  10.972 -2.1330  1.1645 -1.3818
  540MOL0     H71218   8.416   4.742  10.929 -1.4288 -2.1808 -0.2606
  540MOL0     H71219   8.596   4.557  11.081  5.0690  1.1352 -3.2597
  540MOL0     H71220   8.587   4.566  10.913 -1.0603  0.7040 -1.1840
  540MOL0     H71221   8.370   4.504  10.906 -0.4709  2.6562  0.8231
  540MOL0     H71222   8.329   4.513  11.074  0.2438 -1.9277  1.3094
  540MOL0     H71223   8.554   4.329  10.974  0.6846 -1.4945  1.6080
  540MOL0     H71224   8.488   4.316  11.133  1.7925  0.8695 -0.0154
  540MOL0     H71225   8.366   4.259  10.868  1.8658  2.3005  1.2494
  540MOL0     H71226   8.263   4.270  11.009 -1.1168 -1.3256 -1.7887
  540MOL0     H71227   8.304   4.033  10.954 -0.1621  1.2680 -1.5702
  540MOL0     H71228   8.326   4.088  11.113  1.0872 -0.7824  0.5566
  540MOL0     H71229   8.587   4.076  10.933  1.7896 -0.4385 -0.1551
  540MOL0     H71230   8.571   4.073  11.114 -0.0196 -1.5834  0.7184
  540MOL0     H71231   8.485   3.867  11.129  0.7379  2.3761  1.1922
  540MOL0     H71232   8.637   3.880  11.044  0.7853  0.9278 -1.5112
  540MOL0     H71233   8.284   3.723  10.971  0.1965 -2.4450 -0.3163
  540MOL0     H71234   8.228   3.663  10.615 -0.9720 -1.9703 -0.6534
  540MOL0     H71235   8.182   3.602  10.762  0.3023 -1.6860  0.3235
  540MOL0     H71236   8.411   3.461  10.763 -2.3097 -3.3199  0.5750
  540MOL0     H71237   8.432   3.501  10.600  2.4858 -2.0658  2.5692
  540MOL0     H71238   8.186   3.380  10.729  3.1645  0.5807  1.3806
  540MOL0     H71239   8.190   3.417  10.555 -0.2675 -1.9124 -1.2153
  540MOL0     H71240   8.361   3.242  10.519  2.6469  0.8770  0.1559
  540MOL0     H71241   8.233   3.165  10.627  0.6485 -1.5795 -0.6429
  540MOL0     H71242   8.504   3.066  10.490  0.6283  3.4655  2.0032
  540MOL0     H71243   8.602   2.833  10.512 -1.2021  0.6436 -0.0642
  540MOL0     H71244   8.891   2.622  10.985 -1.4321  1.0400  0.9117
  540MOL0     H71245   8.951   2.385  11.104  1.2726  0.5175 -0.6253
  540MOL0     H71246   8.919   2.217  11.229 -2.0498  2.3875 -2.1129
  540MOL0     H71247   9.034   2.182  11.096 -0.4085 -0.1060 -0.9366
  540MOL0     H71248   8.960   1.935  11.136 -1.7995 -0.2603 -0.1822
  540MOL0     H71249   8.851   1.997  11.258 -0.2450  0.4961  0.8479
  540MOL0     H71250   9.056   2.099  11.377 -1.3366  0.0908  1.0569
  540MOL0     H71251   9.149   2.003  11.256 -0.7158  2.0859 -2.2562
  540MOL0     H71252   8.934   1.864  11.433  0.7124 -0.3490 -1.5963
  540MOL0     H71253   9.065   1.803  11.346  0.2683 -1.7684  3.3104
  540MOL0     H71254   9.098   1.778  11.577 -1.3869  0.7554 -1.4178
  540MOL0     H71255   9.115   1.950  11.601 -1.3597  0.8156 -0.1828
  540MOL0     H71256   9.332   1.872  11.593  2.0458  0.8394 -0.4389
  540MOL0     H71257   9.301   1.957  11.444  2.1252 -1.1174  1.1480
  540MOL0     H71258   9.283   1.650  11.439 -0.4566 -0.3212 -0.0841
  540MOL0     H71259   9.282   1.768  11.299 -0.9418 -1.4962  0.4054
  540MOL0     H71260   9.515   1.750  11.495  2.8948 -2.0448 -1.6283
  540MOL0     H71261   9.500   1.834  11.341 -2.4066  0.9896  0.3288
  540MOL0     H71262   8.647   2.203  10.881  1.0853 -1.8320  1.9115
  540MOL0     H71263   8.592   2.396  10.772  0.3366  2.2899 -0.3740
  540MOL0     H71264   8.559   2.861  10.941  0.0395 -1.7511 -1.1236
  540MOL0     H71265   8.452   3.086  10.916  0.1712 -0.0465  0.1199
  540MOL0     H71266   8.463   4.995  10.967 -0.3026  0.8846  0.5021
  540MOL0     H71267   8.342   5.197  10.997 -2.5759  0.5999  0.8697
  540MOL0     H71268   7.834   5.309  11.318  0.7354  0.5918  0.8510
  540MOL0     H71269   7.725   5.498  11.326 -0.2474 -0.3677 -1.4197
  540MOL0     H71270   7.630   5.853  11.248  2.3132 -0.4631 -1.4329
  540MOL0     H71271   7.635   5.710  11.349  0.0209  2.4134  1.4807
  540MOL0     H71272   7.611   5.567  11.155  0.4760  0.6114  4.0494
  540MOL0     H71273   7.481   5.660  11.188 -1.0162 -3.0353 -1.2806
  540MOL0     H71274   7.699   5.725  10.965 -0.3592  2.0616 -3.6398
  540MOL0     H71275   7.576   5.837  11.016  0.1024 -0.2672  0.0676
  540MOL0     H71276   7.484   5.710  10.808 -0.0379  0.3448 -0.4398
  540MOL0     H71277   7.516   5.559  10.904 -1.0692 -0.2734  3.7802
  540MOL0     H71278   7.146   5.746  11.037  1.2281  1.5103  1.7174
  540MOL0     H71279   8.052   5.729  11.174  0.2549 -0.2748  0.0725
  540MOL0     H71280   8.189   5.522  11.184  0.3271  0.2721  1.3373
  541MOL0     O71281   1.664   3.244   6.834 -0.5083 -0.4901 -0.4695
  541MOL0     C71282   1.684   3.295   6.946  0.7630  0.3304  0.6762
  541MOL0     O71283   1.603   3.376   7.013 -0.3124  0.3222 -0.3285
  541MOL0     C71284   1.489   3.426   6.960  0.1878 -0.1426 -0.6326
  541MOL0     C71285   1.371   3.422   7.045 -0.2259 -0.8073  0.5801
  541MOL0     C71286   1.251   3.470   6.989  0.1405 -0.7952  0.8538
  541MOL0     C71287   1.247   3.515   6.856  0.0209  1.2192  0.6223
  541MOL0     O71288   1.130   3.541   6.790  0.0387 -0.4220 -1.0701
  541MOL0     C71289   1.019   3.449   6.824  0.7023 -0.5033 -0.0700
  541MOL0     C71290   0.915   3.436   6.713  0.4533  0.6946 -0.5602
  541MOL0     C71291   0.961   3.415   6.562  0.5459 -0.7673  1.1212
  541MOL0     C71292   0.848   3.368   6.460 -0.6394 -0.2398 -0.3183
  541MOL0     C71293   0.907   3.361   6.321  1.0725 -0.4076 -0.0512
  541MOL0     C71294   0.784   3.345   6.221 -0.3446  0.4610 -0.5945
  541MOL0     C71295   0.701   3.216   6.235 -0.5763  0.0480  0.2136
  541MOL0     C71296   0.614   3.183   6.109 -0.5997  0.6002 -0.9845
  541MOL0     N71297   0.516   3.282   6.101 -0.0718 -0.2129  0.5596
  541MOL0     C71298   0.391   3.288   6.168 -0.2318  1.2829 -0.1496
  541MOL0     C71299   0.313   3.380   6.089  0.7122 -0.2794 -0.8387
  541MOL0     C71300   0.165   3.386   6.094  0.5499  0.0165 -0.0373
  541MOL0     C71301   0.106   3.530   6.088 -0.3793 -0.7453 -0.4606
  541MOL0     C71302   0.156   3.610   6.210 -0.4769 -0.6057  0.3381
  541MOL0     C71303   0.067   3.729   6.233  0.1019  0.5137  0.0081
  541MOL0     O71304  -0.057   3.675   6.276  0.3220 -0.6803 -0.0575
  541MOL0     C71305  -0.171   3.741   6.234 -0.4079  0.4917  0.3925
  541MOL0     C71306  -0.203   3.869   6.277 -0.6473  0.3766  0.1396
  541MOL0     C71307  -0.308   3.946   6.221  0.3684 -0.5730  0.4327
  541MOL0     C71308  -0.374   3.899   6.100  0.0776  0.1063  0.3296
  541MOL0     C71309  -0.485   3.972   6.022 -1.0743 -0.1791 -0.1746
  541MOL0     O71310  -0.498   3.927   5.889 -0.0829 -0.2326  0.5209
  541MOL0     C71311  -0.599   3.962   5.803  0.0615  0.5439  0.4549
  541MOL0     C71312  -0.584   3.900   5.675  0.4793 -0.0546 -0.5583
  541MOL0     C71313  -0.655   3.950   5.566  0.4431  0.6699  0.6335
  541MOL0     C71314  -0.765   4.034   5.577 -0.5777 -0.5435 -0.8145
  541MOL0     O71315  -0.838   4.073   5.464 -0.2950  0.0029 -0.4300
  541MOL0     C71316  -0.945   3.985   5.428  0.4127  0.9925  0.6521
  541MOL0     C71317  -0.930   3.937   5.280  0.1430  0.2285  0.3051
  541MOL0     C71318  -0.805   3.862   5.257 -0.2342 -0.3304  0.5336
  541MOL0     C71319  -0.771   3.798   5.119 -0.0527  0.7953 -0.7314
  541MOL0     C71320  -0.778   3.888   4.997  0.9783 -0.3613  0.3561
  541MOL0     C71321  -0.711   3.806   4.891 -0.9457  0.6377  0.2331
  541MOL0     C71322  -0.718   3.867   4.742  0.5895  0.2088  0.2093
  541MOL0     C71323  -0.854   3.838   4.669 -0.1602 -0.7358  0.0690
  541MOL0    Cl71324  -0.878   3.657   4.629 -0.2245  0.8588 -0.1369
  541MOL0     C71325  -0.788   4.085   5.704  0.7712  0.4483 -0.1343
  541MOL0     C71326  -0.696   4.057   5.813 -0.3450  0.5322 -0.0350
  541MOL0     O71327  -0.537   4.067   6.078  0.3932 -0.0322 -0.5418
  541MOL0     C71328  -0.353   3.765   6.067 -0.9931 -0.2244  0.3526
  541MOL0     C71329  -0.246   3.692   6.120  0.3757 -0.4894  1.3556
  541MOL0     N71330   0.392   3.424   5.993 -0.1429 -0.6140 -0.5291
  541MOL0     N71331   0.512   3.376   5.998  0.5161 -0.4693 -0.1963
  541MOL0     C71332   1.360   3.529   6.784 -1.1150  0.3044 -0.3087
  541MOL0     C71333   1.478   3.475   6.831 -0.4175 -0.0091 -1.1525
  541MOL0     C71334   1.797   3.236   7.005  0.4670  0.1050 -1.3318
  541MOL0     C71335   1.772   3.164   7.124  0.3455 -0.5490 -1.0549
  541MOL0     C71336   1.877   3.100   7.194  0.9176 -0.1109 -0.2859
  541MOL0     C71337   2.009   3.110   7.148  0.9682  0.0193 -0.3880
  541MOL0     O71338   2.113   3.065   7.212 -0.6119  0.8231  0.0190
  541MOL0     C71339   2.108   2.958   7.321 -0.7809 -0.0052 -0.5643
  541MOL0     C71340   2.105   2.824   7.261 -0.4192 -0.2824  0.1029
  541MOL0     C71341   2.158   2.710   7.350  1.0998 -0.5044  1.0306
  541MOL0     C71342   2.130   2.563   7.299 -0.6551 -0.0833  0.0364
  541MOL0     C71343   2.163   2.456   7.387  0.6767  0.3689 -0.7600
  541MOL0     C71344   2.182   2.373   7.477 -0.5187 -0.5014  0.8820
  541MOL0     C71345   2.032   3.184   7.028 -0.9930 -0.3917 -0.1613
  541MOL0     C71346   1.928   3.256   6.963  0.4166  0.4220  0.5172
  541MOL0     H71347   1.374   3.380   7.145 -0.3705 -0.6897  0.6345
  541MOL0     H71348   1.151   3.453   7.028 -2.2146 -0.3854 -4.1945
  541MOL0     H71349   0.967   3.478   6.915 -0.9206  0.9068 -1.3915
  541MOL0     H71350   1.070   3.352   6.826  0.5279 -0.5916  0.0368
  541MOL0     H71351   0.853   3.524   6.731 -3.6151 -1.2621 -3.4722
  541MOL0     H71352   0.853   3.349   6.734  0.4375  1.2811  2.1415
  541MOL0     H71353   1.042   3.343   6.548  1.1936  0.1315  0.0035
  541MOL0     H71354   1.012   3.502   6.520  0.7408 -0.8763  1.1313
  541MOL0     H71355   0.811   3.268   6.487  0.4864 -0.8376 -0.9125
  541MOL0     H71356   0.773   3.447   6.458  1.5328  2.0910  2.0951
  541MOL0     H71357   0.978   3.279   6.312  0.8091 -0.8561  1.6492
  541MOL0     H71358   0.956   3.457   6.301 -1.8837  0.9245 -1.6454
  541MOL0     H71359   0.823   3.351   6.119  0.0780 -0.8441 -0.5314
  541MOL0     H71360   0.708   3.423   6.229 -2.6853 -1.7807  0.1382
  541MOL0     H71361   0.761   3.127   6.255 -1.0572 -0.2165  0.4891
  541MOL0     H71362   0.645   3.219   6.328  0.8120 -2.3702  1.2239
  541MOL0     H71363   0.567   3.087   6.134  0.6387  0.7898  2.7711
  541MOL0     H71364   0.673   3.175   6.018  1.0385  1.4866 -0.0475
  541MOL0     H71365   0.352   3.213   6.237  2.0265  0.3153  0.1673
  541MOL0     H71366   0.136   3.352   6.193 -3.2131 -2.1914 -1.6603
  541MOL0     H71367   0.135   3.321   6.011 -0.9150 -0.6063  0.9420
  541MOL0     H71368  -0.003   3.525   6.094 -0.4744  1.3955  0.3490
  541MOL0     H71369   0.123   3.599   6.006 -3.3300 -0.0395 -0.5627
  541MOL0     H71370   0.168   3.547   6.299  3.9548  1.5055  1.5084
  541MOL0     H71371   0.250   3.662   6.195 -0.4385 -1.2740 -2.3002
  541MOL0     H71372   0.064   3.791   6.143  1.7061 -0.6016 -0.8818
  541MOL0     H71373   0.098   3.791   6.318 -1.8925  0.9550  0.4566
  541MOL0     H71374  -0.146   3.909   6.360  4.0189 -2.8268 -1.1251
  541MOL0     H71375  -0.332   4.042   6.266 -0.7768 -1.1630  1.1190
  541MOL0     H71376  -0.493   3.841   5.667 -0.2513 -1.1697 -0.8865
  541MOL0     H71377  -0.622   3.912   5.470  1.6949  2.2800  0.3955
  541MOL0     H71378  -1.045   4.030   5.438 -1.3968 -2.3371 -0.9190
  541MOL0     H71379  -0.938   3.896   5.490  2.2174 -0.6422 -1.7409
  541MOL0     H71380  -0.928   4.028   5.218  0.1308 -0.5312 -0.8480
  541MOL0     H71381  -1.014   3.872   5.252 -1.1075  2.2717 -0.9446
  541MOL0     H71382  -0.804   3.777   5.326  1.5840 -1.2369 -0.5228
  541MOL0     H71383  -0.723   3.930   5.283  0.4609  0.0376 -2.3040
  541MOL0     H71384  -0.669   3.763   5.133 -0.9553 -1.6833  0.1257
  541MOL0     H71385  -0.839   3.714   5.099  0.5606  0.5589 -1.9417
  541MOL0     H71386  -0.706   3.969   5.014  1.0378 -0.3270 -0.0540
  541MOL0     H71387  -0.876   3.932   4.980  1.9505  1.5634 -0.6108
  541MOL0     H71388  -0.757   3.707   4.887  0.2406 -0.0417  1.9247
  541MOL0     H71389  -0.605   3.793   4.915 -0.5228  1.4075 -1.1028
  541MOL0     H71390  -0.702   3.975   4.735  3.1277 -0.1713 -0.8430
  541MOL0     H71391  -0.634   3.828   4.684 -1.1520  0.9270 -3.0647
  541MOL0     H71392  -0.857   3.893   4.574 -0.2034  0.7118  0.8892
  541MOL0     H71393  -0.933   3.878   4.733  0.7158 -1.0566  1.3775
  541MOL0     H71394  -0.871   4.156   5.707 -0.3827 -0.8803  0.4820
  541MOL0     H71395  -0.708   4.104   5.910  1.4366  0.2637  0.3463
  541MOL0     H71396  -0.415   3.716   5.993  0.4686 -0.2521 -0.9014
  541MOL0     H71397  -0.219   3.594   6.082 -2.2895 -1.2078  1.1307
  541MOL0     H71398   1.347   3.573   6.686 -5.8917  0.6213  0.2430
  541MOL0     H71399   1.570   3.480   6.773  0.2138  3.9132 -0.0754
  541MOL0     H71400   1.665   3.159   7.143  0.4993 -0.1918 -0.0143
  541MOL0     H71401   1.843   3.032   7.272 -0.3142 -1.5374 -1.9855
  541MOL0     H71402   2.029   2.979   7.393  2.0816  1.0794  2.5598
  541MOL0     H71403   2.193   2.959   7.390 -1.2165  3.0175  0.0488
  541MOL0     H71404   2.000   2.806   7.239 -0.3447 -0.6139 -0.0018
  541MOL0     H71405   2.152   2.814   7.163  0.6637 -0.0535  0.5820
  541MOL0     H71406   2.131   2.718   7.456  3.0647  2.1031  1.4616
  541MOL0     H71407   2.267   2.722   7.339  1.1821 -2.3684 -0.6586
  541MOL0     H71408   2.024   2.547   7.279 -0.4022 -2.2019  0.1843
  541MOL0     H71409   2.190   2.542   7.210 -1.3148  0.0450 -0.4461
  541MOL0     H71410   2.189   2.317   7.568  0.6522 -3.2908 -0.7946
  541MOL0     H71411   2.129   3.196   6.980 -2.4130 -0.6971 -3.3374
  541MOL0     H71412   1.955   3.312   6.874  0.6894 -0.4065  0.0676
  542MOL0     O71413   5.966   8.829   3.947  0.3090 -0.2592 -0.2183
  542MOL0     C71414   5.863   8.804   4.007 -0.1692  1.5476  0.4505
  542MOL0     O71415   5.761   8.885   4.055  0.3467 -0.8088  0.0743
  542MOL0     C71416   5.760   9.021   4.013  1.1719 -0.0328  0.1127
  542MOL0     C71417   5.822   9.083   3.902  0.1651  0.0390  0.5413
  542MOL0     C71418   5.801   9.219   3.871 -0.0239 -0.0296  0.2344
  542MOL0     C71419   5.712   9.298   3.948 -0.1645 -0.5548  0.2051
  542MOL0     O71420   5.691   9.434   3.922 -0.2316 -0.1493 -0.5474
  542MOL0     C71421   5.632   9.464   3.791  0.3106 -0.2265 -0.4166
  542MOL0     C71422   5.480   9.471   3.801 -0.5040 -0.9921  0.9198
  542MOL0     C71423   5.426   9.623   3.823  0.3529  0.0744  0.1236
  542MOL0     C71424   5.275   9.637   3.819  0.4294 -0.1828  1.1743
  542MOL0     C71425   5.230   9.782   3.843  0.2795  0.8597  0.9416
  542MOL0     C71426   5.090   9.815   3.780 -0.8680 -0.2919 -0.3005
  542MOL0     C71427   5.072   9.971   3.786  0.1552 -0.1650  0.4624
  542MOL0     C71428   4.924  10.010   3.740  0.7568  0.3513  0.1836
  542MOL0     N71429   4.872  10.142   3.785 -0.3186 -0.0443 -1.2046
  542MOL0     C71430   4.840  10.166   3.919 -0.0078  0.1066 -0.1409
  542MOL0     C71431   4.858  10.306   3.920 -0.2081 -0.4170 -0.7736
  542MOL0     C71432   4.826  10.401   4.024 -0.8445 -0.2060 -0.0209
  542MOL0     C71433   4.887  10.364   4.159  0.1385 -0.2045 -0.5252
  542MOL0     C71434   5.042  10.376   4.144 -0.5533 -0.1669  0.0830
  542MOL0     C71435   5.105  10.268   4.228 -0.9238  0.3048 -0.4995
  542MOL0     O71436   5.063  10.148   4.161 -0.5535  0.2110 -0.7927
  542MOL0     C71437   5.122  10.036   4.220 -0.2085 -0.2716  0.1164
  542MOL0     C71438   5.193  10.032   4.341 -1.1215  0.2894 -0.0025
  542MOL0     C71439   5.255   9.908   4.379  0.5454  0.1304 -0.4043
  542MOL0     C71440   5.221   9.782   4.317  0.5541 -0.0942 -0.7290
  542MOL0     C71441   5.256   9.650   4.383 -0.3300  0.6266  0.4454
  542MOL0     O71442   5.243   9.528   4.323  0.1127  0.2650 -0.7421
  542MOL0     C71443   5.295   9.406   4.375  0.9018  0.0370 -0.4840
  542MOL0     C71444   5.200   9.303   4.407 -0.0739 -0.5662 -1.3384
  542MOL0     C71445   5.249   9.179   4.453  0.4535  0.3199 -0.7597
  542MOL0     C71446   5.384   9.160   4.463  0.5660  0.2798 -0.1170
  542MOL0     O71447   5.407   9.029   4.479 -0.6527 -0.8504 -1.0544
  542MOL0     C71448   5.548   8.988   4.494  0.4524  0.7047 -0.5728
  542MOL0     C71449   5.615   9.036   4.631 -0.7802  0.5954  0.3678
  542MOL0     C71450   5.541   9.006   4.763  0.3462 -0.5643  0.6706
  542MOL0     C71451   5.557   8.869   4.811 -0.2196  0.0885 -0.0038
  542MOL0     C71452   5.431   8.796   4.797 -0.3218  1.0711  0.6782
  542MOL0     C71453   5.438   8.651   4.856 -0.7451 -0.2746 -0.2653
  542MOL0     C71454   5.296   8.584   4.875  0.1403 -0.1641 -0.3129
  542MOL0     C71455   5.283   8.524   5.011 -0.2607  0.3690 -0.3864
  542MOL0    Cl71456   5.224   8.647   5.126 -0.5634  0.1994 -0.1625
  542MOL0     C71457   5.481   9.262   4.440 -1.6824 -0.0094 -0.2721
  542MOL0     C71458   5.430   9.383   4.406 -0.2929  0.1045 -0.2587
  542MOL0     O71459   5.298   9.665   4.493 -0.4068  0.1423  0.2320
  542MOL0     C71460   5.142   9.790   4.203  0.0758 -0.2149  0.8699
  542MOL0     C71461   5.096   9.916   4.157  0.8623  0.3364  0.9703
  542MOL0     N71462   4.918  10.349   3.802  0.2223 -0.5874  0.4810
  542MOL0     N71463   4.929  10.247   3.725 -1.0161 -0.4564  0.0797
  542MOL0     C71464   5.666   9.239   4.060 -0.1713  0.0495  0.8177
  542MOL0     C71465   5.677   9.105   4.095  0.0867  0.1384 -0.4030
  542MOL0     C71466   5.866   8.659   4.049  0.1629  0.1021  0.7587
  542MOL0     C71467   5.774   8.623   4.150  0.2203  0.9257 -0.3853
  542MOL0     C71468   5.770   8.491   4.189  0.1564 -0.3878  0.0094
  542MOL0     C71469   5.849   8.392   4.126  1.1415  0.4115  0.9519
  542MOL0     O71470   5.836   8.250   4.146  0.1572 -0.5389  0.3054
  542MOL0     C71471   5.817   8.219   4.286  0.0169  0.7209  0.7135
  542MOL0     C71472   5.934   8.146   4.347  0.6904 -0.2320  0.3297
  542MOL0     C71473   5.953   8.012   4.287 -0.6312 -0.6570  0.3424
  542MOL0     C71474   6.083   7.959   4.356 -0.1086 -0.2720 -0.6457
  542MOL0     C71475   6.101   7.815   4.323  0.6780  0.2947  0.7740
  542MOL0     C71476   6.106   7.694   4.306  1.0141  0.7534 -0.5902
  542MOL0     C71477   5.932   8.426   4.023  0.4541 -0.9625 -0.2039
  542MOL0     C71478   5.942   8.560   3.983  0.1706  0.4199  1.6624
  542MOL0     H71479   5.894   9.024   3.846  0.9521 -0.1519  1.7360
  542MOL0     H71480   5.848   9.277   3.792 -0.8642  0.7578  0.2989
  542MOL0     H71481   5.662   9.384   3.723 -0.2531 -2.5323  1.9108
  542MOL0     H71482   5.669   9.562   3.757 -1.5926  0.7174  0.0823
  542MOL0     H71483   5.456   9.400   3.881  0.6859 -0.4236  1.8032
  542MOL0     H71484   5.448   9.450   3.698  0.1376  4.0491 -0.5876
  542MOL0     H71485   5.448   9.686   3.736 -1.1314  1.1608  0.5076
  542MOL0     H71486   5.456   9.675   3.915 -1.1176  0.2720  0.5098
  542MOL0     H71487   5.244   9.611   3.717  0.8783 -0.9604  1.2224
  542MOL0     H71488   5.220   9.565   3.880  0.2216  1.3443  2.8590
  542MOL0     H71489   5.304   9.855   3.808  0.6657  0.3429  0.6652
  542MOL0     H71490   5.217   9.795   3.950 -3.3612  0.1818  0.7192
  542MOL0     H71491   5.016   9.758   3.837 -0.0988  0.4236  1.5040
  542MOL0     H71492   5.080   9.772   3.680 -2.1439 -1.0630  0.1357
  542MOL0     H71493   5.083  10.016   3.885  0.7531 -2.6201  1.6059
  542MOL0     H71494   5.136  10.028   3.718 -1.4340  0.8481 -0.2468
  542MOL0     H71495   4.869   9.924   3.780  3.3810 -0.6045  1.9863
  542MOL0     H71496   4.931  10.003   3.631 -0.3890 -1.9183  0.1773
  542MOL0     H71497   4.806  10.097   3.995 -1.9980  0.5551 -0.5548
  542MOL0     H71498   4.718  10.418   4.033 -0.8201 -0.0413 -0.0419
  542MOL0     H71499   4.868  10.493   3.982  0.2409  0.6472  2.7393
  542MOL0     H71500   4.862  10.264   4.195  0.8767 -1.3918 -3.0929
  542MOL0     H71501   4.851  10.444   4.225  2.5099  1.8785 -1.5826
  542MOL0     H71502   5.076  10.354   4.043 -2.1213 -3.2426  0.0909
  542MOL0     H71503   5.071  10.471   4.190  2.1303 -2.8945  4.8962
  542MOL0     H71504   5.064  10.276   4.329 -0.0403  0.1377 -0.1193
  542MOL0     H71505   5.213  10.262   4.243 -0.8137 -5.6521 -1.0248
  542MOL0     H71506   5.200  10.102   4.424 -2.2494  1.6259 -0.9957
  542MOL0     H71507   5.328   9.901   4.459 -1.5645 -0.7330  1.5798
  542MOL0     H71508   5.094   9.320   4.389 -0.1308  0.4409 -0.2100
  542MOL0     H71509   5.183   9.096   4.474  1.2163 -0.3685 -1.0529
  542MOL0     H71510   5.608   9.014   4.406  0.9241 -2.3735 -1.2733
  542MOL0     H71511   5.551   8.879   4.498  0.6641  0.7138 -0.4246
  542MOL0     H71512   5.615   9.145   4.639 -2.8403  0.6804 -0.1379
  542MOL0     H71513   5.713   8.989   4.638 -2.1668 -2.8190 -0.8689
  542MOL0     H71514   5.440   9.045   4.748  0.0301 -1.1886  1.1549
  542MOL0     H71515   5.587   9.071   4.838 -0.3190 -2.1612  2.5515
  542MOL0     H71516   5.633   8.812   4.756  0.0341  1.0114 -0.6379
  542MOL0     H71517   5.571   8.872   4.919 -3.1757  1.0652  0.4360
  542MOL0     H71518   5.414   8.796   4.689  0.4722  4.5966  0.4130
  542MOL0     H71519   5.347   8.852   4.838 -1.1662 -1.0372  1.9745
  542MOL0     H71520   5.494   8.648   4.950  0.2360  2.8963 -0.6407
  542MOL0     H71521   5.498   8.582   4.795 -0.2576 -0.4311  0.3733
  542MOL0     H71522   5.216   8.656   4.861 -3.0700 -3.0276  1.6961
  542MOL0     H71523   5.290   8.503   4.802  0.4761 -1.2174  0.7905
  542MOL0     H71524   5.379   8.487   5.050 -0.9269  1.1129  2.0785
  542MOL0     H71525   5.211   8.442   5.004  2.0430 -1.9374  0.8016
  542MOL0     H71526   5.589   9.245   4.442 -0.3393  6.2596 -0.1299
  542MOL0     H71527   5.498   9.467   4.389 -0.9772  0.9359  0.9492
  542MOL0     H71528   5.124   9.701   4.144  1.2933 -0.9583  1.5667
  542MOL0     H71529   5.035   9.905   4.068  2.7918 -1.0655 -0.2595
  542MOL0     H71530   5.601   9.299   4.123 -0.6752 -1.0101  1.3452
  542MOL0     H71531   5.614   9.071   4.177 -1.7142  1.2328 -1.2610
  542MOL0     H71532   5.708   8.697   4.195  0.1217  2.8950 -3.4768
  542MOL0     H71533   5.691   8.474   4.261 -0.2932 -1.5700 -0.7229
  542MOL0     H71534   5.736   8.146   4.289  0.2490  0.4930  1.8266
  542MOL0     H71535   5.799   8.298   4.358  0.0627 -1.6404  3.5031
  542MOL0     H71536   6.018   8.216   4.354 -2.0056  3.2205  1.6418
  542MOL0     H71537   5.902   8.131   4.451 -1.6544  1.4790 -0.0555
  542MOL0     H71538   5.954   8.016   4.177  1.1396  0.2156  0.3652
  542MOL0     H71539   5.876   7.952   4.337  1.0709 -1.2663  2.3779
  542MOL0     H71540   6.178   8.003   4.323 -0.3178  0.3795 -0.3920
  542MOL0     H71541   6.077   7.980   4.463 -3.1147 -1.1458 -0.5462
  542MOL0     H71542   6.114   7.588   4.291  1.2275  0.7659 -0.5636
  542MOL0     H71543   5.990   8.354   3.966  2.2105 -0.1425  0.4774
  542MOL0     H71544   6.019   8.593   3.913 -0.0703 -0.1256  1.1273
  543MOL0     O71545   7.527  10.811   1.836  0.2235 -0.3343  0.0606
  543MOL0     C71546   7.406  10.812   1.821 -0.8757 -0.6868  0.3293
  543MOL0     O71547   7.339  10.922   1.767 -0.1982 -0.7573 -0.3238
  543MOL0     C71548   7.418  11.026   1.713 -1.4094 -0.4657  0.2799
  543MOL0     C71549   7.511  11.090   1.790 -0.4364 -0.4236  0.3731
  543MOL0     C71550   7.589  11.196   1.739  0.6857 -0.8894  0.2521
  543MOL0     C71551   7.563  11.249   1.605  0.6589 -0.2873  0.2729
  543MOL0     O71552   7.620  11.350   1.541  0.4892  0.1061 -0.2180
  543MOL0     C71553   7.662  11.461   1.618  1.1998  0.6268  0.2783
  543MOL0     C71554   7.533  11.542   1.644  0.2846 -0.2007  1.6024
  543MOL0     C71555   7.549  11.659   1.743  0.8866 -0.4011  0.0173
  543MOL0     C71556   7.435  11.767   1.749 -0.5402  0.8171 -0.4215
  543MOL0     C71557   7.435  11.869   1.637  1.2377  0.2813 -0.6341
  543MOL0     C71558   7.317  11.966   1.650  0.4071  0.3293 -0.1438
  543MOL0     C71559   7.183  11.896   1.644  0.7741 -0.7621  0.7278
  543MOL0     C71560   7.079  12.005   1.592  0.4207  0.5530  0.8891
  543MOL0     N71561   7.059  12.115   1.687  0.1153  0.5592 -0.2667
  543MOL0     C71562   7.036  12.095   1.815 -0.5428  0.9435 -0.2550
  543MOL0     C71563   6.989  12.207   1.871 -0.2589 -0.3231  0.1001
  543MOL0     C71564   6.958  12.233   2.013 -0.2204  0.5710 -0.0192
  543MOL0     C71565   6.836  12.165   2.078  0.3781 -0.4407  0.5128
  543MOL0     C71566   6.704  12.178   1.999 -0.8375 -0.3219  0.4739
  543MOL0     C71567   6.642  12.315   1.983 -0.2970 -0.7896  0.2715
  543MOL0     O71568   6.495  12.297   1.995 -0.1174 -1.0642  0.6994
  543MOL0     C71569   6.420  12.414   1.995  1.0689 -0.8024 -0.5507
  543MOL0     C71570   6.291  12.399   2.036 -1.1251 -0.6946  0.5952
  543MOL0     C71571   6.200  12.499   2.032 -0.2686 -0.0030 -0.2444
  543MOL0     C71572   6.237  12.630   2.006  0.2384  0.8356 -0.6392
  543MOL0     C71573   6.143  12.735   2.018 -0.8293 -0.1620 -0.3015
  543MOL0     O71574   6.006  12.701   2.018 -0.1811  1.1131 -0.4652
  543MOL0     C71575   5.911  12.775   2.080 -0.0845 -0.5014  0.2103
  543MOL0     C71576   5.798  12.801   2.014  0.6826 -0.3220  0.7075
  543MOL0     C71577   5.689  12.865   2.077  0.6913 -0.2422 -0.2091
  543MOL0     C71578   5.697  12.913   2.210  0.2547 -0.0322  0.0250
  543MOL0     O71579   5.584  12.940   2.279  0.1569 -0.5673  0.0595
  543MOL0     C71580   5.461  12.917   2.211  0.1370  0.3189 -1.0663
  543MOL0     C71581   5.342  12.881   2.303 -0.4061  0.5693  0.7718
  543MOL0     C71582   5.327  12.997   2.404  0.5910  0.8751 -0.0391
  543MOL0     C71583   5.278  13.128   2.355 -0.0621  0.0007 -0.0477
  543MOL0     C71584   5.295  13.248   2.452  0.4037  0.1996 -0.7952
  543MOL0     C71585   5.207  13.240   2.574  0.6180 -0.2271  0.6133
  543MOL0     C71586   5.236  13.362   2.668 -0.6700 -0.1204 -0.4918
  543MOL0     C71587   5.129  13.383   2.756 -1.0867  0.1196 -0.3601
  543MOL0    Cl71588   5.134  13.276   2.884  0.1884 -0.4496 -0.0532
  543MOL0     C71589   5.818  12.896   2.273  0.7046 -0.3991  0.0480
  543MOL0     C71590   5.914  12.826   2.212 -0.5840  0.1532 -0.5013
  543MOL0     O71591   6.186  12.848   2.038 -0.2553  0.2782  0.7788
  543MOL0     C71592   6.370  12.650   1.971  0.8413  0.0137 -0.3356
  543MOL0     C71593   6.455  12.543   1.950  0.0406 -0.4208 -0.8981
  543MOL0     N71594   7.001  12.303   1.773  0.2922 -0.1940  0.8143
  543MOL0     N71595   7.039  12.249   1.668 -0.0708  0.0552  0.9167
  543MOL0     C71596   7.472  11.174   1.521  0.2889 -0.4336 -0.6130
  543MOL0     C71597   7.400  11.065   1.580  0.0107 -1.3152 -0.0797
  543MOL0     C71598   7.322  10.704   1.865 -0.5206  0.1282 -0.9666
  543MOL0     C71599   7.184  10.726   1.866 -0.1665  1.3618  0.2693
  543MOL0     C71600   7.093  10.624   1.921  0.2890  0.1147 -0.6912
  543MOL0     C71601   7.145  10.515   1.985  0.7171  1.0947 -0.3053
  543MOL0     O71602   7.071  10.411   2.044  0.0149  0.2091 -0.2669
  543MOL0     C71603   6.930  10.428   2.044  0.5181  0.2130  1.0712
  543MOL0     C71604   6.873  10.383   1.910  0.7672  0.0421 -0.5477
  543MOL0     C71605   6.721  10.440   1.887  0.4608 -0.3671 -0.6017
  543MOL0     C71606   6.660  10.390   1.754 -0.3113 -0.7436  0.1127
  543MOL0     C71607   6.740  10.421   1.636 -0.6651  0.0303  0.6156
  543MOL0     C71608   6.784  10.475   1.542  0.3009 -0.1402 -0.5728
  543MOL0     C71609   7.285  10.494   1.973 -0.3077 -1.0963 -1.1107
  543MOL0     C71610   7.368  10.591   1.928  0.1067 -0.5822  0.9161
  543MOL0     H71611   7.515  11.069   1.897 -3.0694  1.4170  0.9244
  543MOL0     H71612   7.664  11.235   1.807  1.0582  1.7910 -1.5471
  543MOL0     H71613   7.736  11.522   1.565 -1.2491  1.8713 -1.9601
  543MOL0     H71614   7.697  11.443   1.719  0.1452  2.6020  1.0633
  543MOL0     H71615   7.444  11.483   1.668 -0.3776 -0.0941 -0.3843
  543MOL0     H71616   7.501  11.585   1.548  1.2271 -0.0354  1.3538
  543MOL0     H71617   7.651  11.696   1.730  0.7749 -0.2240 -0.3897
  543MOL0     H71618   7.545  11.609   1.839 -0.5818 -1.4378 -0.5453
  543MOL0     H71619   7.340  11.714   1.739 -1.3431  1.0334  4.1562
  543MOL0     H71620   7.436  11.820   1.844 -2.0310  1.9912 -1.0141
  543MOL0     H71621   7.429  11.817   1.541 -0.4908  0.4665 -0.6524
  543MOL0     H71622   7.528  11.926   1.638  0.1167  2.1890  0.2525
  543MOL0     H71623   7.326  12.026   1.559  1.1650 -1.5494 -1.3712
  543MOL0     H71624   7.339  12.044   1.724  0.2947  3.2140 -2.9357
  543MOL0     H71625   7.187  11.817   1.568  2.2451 -1.0154  1.0321
  543MOL0     H71626   7.162  11.861   1.746  1.9428 -0.0706  1.2252
  543MOL0     H71627   6.981  11.969   1.561  0.6902 -1.8814  2.6023
  543MOL0     H71628   7.125  12.040   1.499  2.9509 -0.2273  1.7555
  543MOL0     H71629   7.058  12.000   1.863 -0.1433 -0.7435 -3.5142
  543MOL0     H71630   6.933  12.340   2.011  3.5730  1.6304  0.5002
  543MOL0     H71631   7.041  12.212   2.082 -1.9878 -0.7744  1.8221
  543MOL0     H71632   6.820  12.193   2.182 -4.3288 -0.0065 -0.1145
  543MOL0     H71633   6.853  12.058   2.095  2.4415  0.3463  4.5378
  543MOL0     H71634   6.724  12.127   1.905 -3.2530 -0.8982  0.2038
  543MOL0     H71635   6.628  12.119   2.051  1.3465 -1.0645  3.0879
  543MOL0     H71636   6.650  12.353   1.881 -2.5569  2.7786  1.2279
  543MOL0     H71637   6.693  12.384   2.050  2.2059 -0.7572 -1.5571
  543MOL0     H71638   6.251  12.300   2.061 -2.9592 -0.2084 -0.2540
  543MOL0     H71639   6.096  12.467   2.041 -0.7954  0.9770 -2.3101
  543MOL0     H71640   5.791  12.762   1.913  0.2346  2.1755 -0.2845
  543MOL0     H71641   5.610  12.875   2.004  0.3516 -0.1753  0.1624
  543MOL0     H71642   5.462  12.818   2.165  1.1736 -0.7509  1.1060
  543MOL0     H71643   5.438  13.002   2.146  2.6536  1.5907 -0.4164
  543MOL0     H71644   5.372  12.794   2.361 -3.4141 -0.0674  1.5281
  543MOL0     H71645   5.250  12.857   2.249  0.7042 -2.8445  0.1713
  543MOL0     H71646   5.411  13.012   2.473  1.0718  0.8994 -0.6267
  543MOL0     H71647   5.249  12.950   2.465 -1.7092 -2.6117 -5.0162
  543MOL0     H71648   5.331  13.163   2.266 -2.0225  2.3296 -0.3790
  543MOL0     H71649   5.175  13.120   2.321 -0.7910  4.9977  0.2716
  543MOL0     H71650   5.269  13.332   2.387  1.9555  2.7033  1.6131
  543MOL0     H71651   5.401  13.253   2.477  0.4718 -0.5075 -0.8993
  543MOL0     H71652   5.239  13.146   2.620  0.4337 -0.7610 -0.3366
  543MOL0     H71653   5.104  13.235   2.537  1.3779  1.6394 -2.0289
  543MOL0     H71654   5.334  13.346   2.714  0.9439  0.6023 -3.4555
  543MOL0     H71655   5.257  13.448   2.604  0.3178  1.5056  1.8763
  543MOL0     H71656   5.029  13.385   2.711 -1.5430  2.7744  0.5968
  543MOL0     H71657   5.141  13.487   2.787  1.5110 -0.3821  0.6293
  543MOL0     H71658   5.828  12.936   2.374  1.3339  0.0960 -0.2049
  543MOL0     H71659   6.002  12.806   2.272 -1.9271 -0.1649  1.4928
  543MOL0     H71660   6.420  12.743   1.948  0.3841 -0.0599 -1.6920
  543MOL0     H71661   6.553  12.539   1.903 -0.7590 -1.5994 -2.5452
  543MOL0     H71662   7.460  11.211   1.419 -3.7927 -0.3329 -0.2624
  543MOL0     H71663   7.316  11.030   1.521  0.6105 -1.5094 -0.8247
  543MOL0     H71664   7.131  10.811   1.825 -1.5790  0.9578  1.1776
  543MOL0     H71665   6.989  10.655   1.914  0.7267  1.3383 -2.8321
  543MOL0     H71666   6.914  10.530   2.080  3.7374  0.7478  1.2821
  543MOL0     H71667   6.881  10.363   2.116  1.0111  0.4507  1.6296
  543MOL0     H71668   6.937  10.419   1.829 -2.9247  2.0576 -2.8005
  543MOL0     H71669   6.866  10.274   1.910 -1.6350  0.1240 -1.8514
  543MOL0     H71670   6.724  10.549   1.881 -0.2103 -0.2650  0.5434
  543MOL0     H71671   6.655  10.398   1.963  1.1218 -0.3121  0.0122
  543MOL0     H71672   6.654  10.281   1.765  0.5251 -0.6451  1.7856
  543MOL0     H71673   6.558  10.430   1.752 -0.0974 -0.1814  0.2270
  543MOL0     H71674   6.820  10.519   1.451  0.7451  2.4355  0.7325
  543MOL0     H71675   7.345  10.411   2.011  1.7392  0.3277 -1.1066
  543MOL0     H71676   7.476  10.580   1.932  0.0489 -1.2991  0.6971
  544MOL0     O71677  10.081   3.041   8.118  0.2644  0.3334  0.1522
  544MOL0     C71678   9.987   2.965   8.084 -0.5226 -0.6405 -1.0370
  544MOL0     O71679   9.967   2.931   7.952  1.0761  0.6398 -1.3448
  544MOL0     C71680  10.022   2.998   7.847  1.3421  0.1486 -0.0944
  544MOL0     C71681  10.041   2.927   7.726  0.6810 -0.3563 -0.3752
  544MOL0     C71682  10.083   2.987   7.614 -0.5756 -0.8005  0.0238
  544MOL0     C71683  10.116   3.125   7.612 -0.1086  0.5339 -0.1169
  544MOL0     O71684  10.153   3.201   7.509 -0.6269 -0.5981  0.3578
  544MOL0     C71685  10.253   3.150   7.424 -0.2611  0.4722  0.1358
  544MOL0     C71686  10.387   3.172   7.497 -0.7116 -0.4954  0.4934
  544MOL0     C71687  10.501   3.187   7.395  0.5146 -0.1784 -0.8258
  544MOL0     C71688  10.502   3.336   7.331 -0.2746  1.6736  0.3156
  544MOL0     C71689  10.595   3.345   7.210  1.1854 -0.5422  0.8613
  544MOL0     C71690  10.587   3.488   7.149 -0.5344 -0.3163  0.3532
  544MOL0     C71691  10.643   3.499   7.006 -0.5248  0.2312  0.4200
  544MOL0     C71692  10.592   3.624   6.934 -0.2427  0.4132 -0.3150
  544MOL0     N71693  10.685   3.685   6.833  0.1716 -0.6352 -0.3744
  544MOL0     C71694  10.676   3.644   6.705 -0.5649 -0.7015 -0.3710
  544MOL0     C71695  10.753   3.742   6.644  0.1145  0.3475  0.7438
  544MOL0     C71696  10.801   3.751   6.503 -0.3927 -0.4932  0.0893
  544MOL0     C71697  10.710   3.791   6.398  0.0644  0.0171 -0.4256
  544MOL0     C71698  10.772   3.858   6.278 -0.1292  1.0366  0.9357
  544MOL0     C71699  10.680   3.858   6.158 -0.4794 -0.1799 -0.1129
  544MOL0     O71700  10.652   3.725   6.119  0.6077 -0.0509 -0.9454
  544MOL0     C71701  10.633   3.694   5.991  0.1752  0.3183 -0.0740
  544MOL0     C71702  10.687   3.574   5.944 -0.4535  1.0254 -0.6467
  544MOL0     C71703  10.667   3.529   5.808  0.9773  0.3422 -0.0385
  544MOL0     C71704  10.580   3.598   5.724 -0.1240  0.9706 -0.0764
  544MOL0     C71705  10.570   3.538   5.585 -0.3863  0.5496  0.1686
  544MOL0     O71706  10.590   3.400   5.570 -0.0968 -0.0188  0.6305
  544MOL0     C71707  10.636   3.348   5.445  0.2444 -0.7999  0.2202
  544MOL0     C71708  10.706   3.424   5.353  0.3508  1.0719  0.0478
  544MOL0     C71709  10.761   3.367   5.241 -0.2145  0.4762 -0.4416
  544MOL0     C71710  10.762   3.223   5.219  0.2918 -0.5459  0.5574
  544MOL0     O71711  10.811   3.153   5.115  0.2399 -0.3491 -0.9372
  544MOL0     C71712  10.873   3.231   5.015  0.0973 -0.1432  0.4734
  544MOL0     C71713  10.931   3.150   4.903 -0.5476  0.9499  0.2052
  544MOL0     C71714  11.065   3.074   4.938  0.2315 -0.8662  0.3236
  544MOL0     C71715  11.127   3.012   4.810 -0.2586  0.3348  0.3213
  544MOL0     C71716  11.240   2.919   4.856 -0.3358 -0.6240 -0.7069
  544MOL0     C71717  11.301   2.839   4.742  0.0470  0.1679  0.7190
  544MOL0     C71718  11.397   2.729   4.793 -0.6036 -1.1657  0.7160
  544MOL0     C71719  11.359   2.588   4.792  0.6075 -0.3332 -0.4403
  544MOL0    Cl71720  11.216   2.586   4.908  0.3761 -0.3143  0.2057
  544MOL0     C71721  10.688   3.147   5.313 -0.5099 -0.8874  0.0811
  544MOL0     C71722  10.633   3.209   5.426  0.2658 -0.7028  0.5425
  544MOL0     O71723  10.537   3.626   5.500 -0.6794 -0.2874  0.3131
  544MOL0     C71724  10.522   3.715   5.768 -0.9425  0.0060  0.1626
  544MOL0     C71725  10.547   3.761   5.904  0.0791 -0.3898  0.2668
  544MOL0     N71726  10.806   3.827   6.745 -0.2844  0.6796  0.2283
  544MOL0     N71727  10.746   3.806   6.847 -0.6615 -0.2379 -0.6350
  544MOL0     C71728  10.088   3.199   7.730 -0.2086  0.2956 -0.1563
  544MOL0     C71729  10.052   3.131   7.845 -0.2897  0.2052  0.1410
  544MOL0     C71730   9.895   2.902   8.182  0.9427 -0.1433 -0.0670
  544MOL0     C71731   9.757   2.875   8.154 -0.5551  0.3674  1.0217
  544MOL0     C71732   9.675   2.819   8.245  0.2094  0.4979  0.7291
  544MOL0     C71733   9.715   2.785   8.375 -1.3860  0.2545  0.2517
  544MOL0     O71734   9.650   2.718   8.474 -0.1884 -0.0821 -0.3436
  544MOL0     C71735   9.507   2.740   8.471  0.1516 -0.3345 -0.7553
  544MOL0     C71736   9.432   2.622   8.414  0.5741  0.3766  0.5430
  544MOL0     C71737   9.468   2.483   8.469  0.4403  0.1793  0.4804
  544MOL0     C71738   9.572   2.412   8.392  0.8955 -0.5246 -1.1964
  544MOL0     C71739   9.610   2.288   8.462  0.3734 -0.4060 -0.5881
  544MOL0     C71740   9.638   2.183   8.507  0.0420  0.1228  0.2034
  544MOL0     C71741   9.849   2.811   8.404  0.2295  0.0759  0.1491
  544MOL0     C71742   9.940   2.859   8.306  1.1024 -0.6068 -0.0480
  544MOL0     H71743  10.033   2.819   7.714  2.3480 -0.6135  0.6089
  544MOL0     H71744  10.117   2.929   7.529 -2.0440 -1.2418 -0.2949
  544MOL0     H71745  10.243   3.206   7.331 -1.9505 -0.6009 -0.3862
  544MOL0     H71746  10.225   3.048   7.395  0.6096 -0.0449  1.0462
  544MOL0     H71747  10.419   3.087   7.557  0.6518 -0.4361 -0.1110
  544MOL0     H71748  10.397   3.266   7.550 -0.7046  0.7400 -1.5764
  544MOL0     H71749  10.496   3.122   7.307  5.0591 -0.4322 -1.1220
  544MOL0     H71750  10.599   3.164   7.439  0.5036  0.5076 -0.4172
  544MOL0     H71751  10.405   3.367   7.292  0.7727  1.6372 -2.5847
  544MOL0     H71752  10.543   3.409   7.401  1.8721 -1.1960  2.2771
  544MOL0     H71753  10.569   3.273   7.132 -1.5377  2.3054 -1.1502
  544MOL0     H71754  10.699   3.332   7.239  1.0476  1.3891  2.5499
  544MOL0     H71755  10.642   3.558   7.212  0.2633 -0.0406 -0.6211
  544MOL0     H71756  10.480   3.511   7.138 -0.6092 -1.2284 -1.0254
  544MOL0     H71757  10.752   3.505   7.002 -0.6053  1.2116 -2.0740
  544MOL0     H71758  10.614   3.408   6.954 -5.8749 -0.4386  3.7991
  544MOL0     H71759  10.572   3.690   7.018 -0.1317  2.0361 -1.5160
  544MOL0     H71760  10.497   3.603   6.885  0.1286 -1.0121 -0.4733
  544MOL0     H71761  10.655   3.544   6.667  0.6380 -0.5801 -1.4316
  544MOL0     H71762  10.857   3.660   6.481  1.9144  0.6877  0.7395
  544MOL0     H71763  10.865   3.839   6.515  0.1344 -0.9170  0.3912
  544MOL0     H71764  10.635   3.859   6.441 -3.0564 -3.4605  0.1589
  544MOL0     H71765  10.656   3.702   6.365 -0.3044 -0.5918  1.7131
  544MOL0     H71766  10.812   3.958   6.294  0.0382  1.8326 -3.3348
  544MOL0     H71767  10.857   3.798   6.243 -0.8617  1.0065 -0.9101
  544MOL0     H71768  10.722   3.920   6.079  1.6301 -1.0638  0.2573
  544MOL0     H71769  10.588   3.908   6.190 -1.0494 -1.4752  0.3629
  544MOL0     H71770  10.733   3.502   6.011 -2.8484  1.5823  1.8089
  544MOL0     H71771  10.710   3.434   5.778 -1.9234 -0.9966 -0.2816
  544MOL0     H71772  10.726   3.530   5.369  2.1485  0.4508  2.5652
  544MOL0     H71773  10.803   3.435   5.167  1.1677 -2.0968 -2.1852
  544MOL0     H71774  10.943   3.303   5.061 -0.3700  0.8901 -0.3824
  544MOL0     H71775  10.799   3.304   4.981  2.2555  1.5825 -0.8298
  544MOL0     H71776  10.953   3.216   4.819 -2.0807 -1.0576 -1.9053
  544MOL0     H71777  10.854   3.077   4.877  1.3791 -1.1180 -0.0107
  544MOL0     H71778  11.051   2.996   5.013  1.0549  0.5849  2.0713
  544MOL0     H71779  11.129   3.150   4.983 -0.0977 -0.3936  0.0148
  544MOL0     H71780  11.059   2.960   4.742  3.6096 -0.8222 -3.0615
  544MOL0     H71781  11.166   3.101   4.759  2.9459  0.0076  1.9665
  544MOL0     H71782  11.214   2.848   4.934  1.8705 -0.7067  0.0109
  544MOL0     H71783  11.320   2.975   4.905  0.4120 -0.4104 -2.1167
  544MOL0     H71784  11.333   2.901   4.657 -2.6004 -0.7811 -1.1204
  544MOL0     H71785  11.215   2.780   4.707  0.1185 -0.3571  1.4125
  544MOL0     H71786  11.487   2.725   4.732  0.9485 -4.0186  2.9380
  544MOL0     H71787  11.424   2.761   4.894 -2.1916  2.7633  0.0916
  544MOL0     H71788  11.439   2.521   4.823  2.4596  0.1840 -3.6800
  544MOL0     H71789  11.328   2.579   4.687 -1.1866 -2.1537  0.1779
  544MOL0     H71790  10.690   3.038   5.310  5.5248 -1.0868 -0.3011
  544MOL0     H71791  10.588   3.147   5.503 -1.6365 -0.8341 -0.6151
  544MOL0     H71792  10.455   3.776   5.707 -2.9074  0.0010  2.1824
  544MOL0     H71793  10.489   3.851   5.922 -2.9076 -1.9292 -0.9526
  544MOL0     H71794  10.096   3.308   7.729 -0.0545  0.3589  2.1985
  544MOL0     H71795  10.049   3.190   7.936  3.2757 -1.9323  1.8714
  544MOL0     H71796   9.717   2.899   8.055  1.6597 -1.1446 -0.3331
  544MOL0     H71797   9.569   2.828   8.225  0.3159  1.9998  0.7597
  544MOL0     H71798   9.483   2.837   8.427 -1.8435 -0.2565  0.4075
  544MOL0     H71799   9.480   2.759   8.575 -0.6740 -0.4982 -0.9339
  544MOL0     H71800   9.326   2.645   8.433  0.4521  1.6361 -1.4091
  544MOL0     H71801   9.431   2.613   8.305 -0.2226  1.0301  0.4827
  544MOL0     H71802   9.377   2.427   8.447  0.1411  0.8991 -0.1358
  544MOL0     H71803   9.488   2.480   8.577  0.5090 -1.9555  0.4501
  544MOL0     H71804   9.533   2.366   8.301 -1.3421 -2.5162  0.6208
  544MOL0     H71805   9.653   2.475   8.356  0.6910  0.6169  0.2571
  544MOL0     H71806   9.671   2.085   8.535 -0.5959 -0.6475 -1.5729
  544MOL0     H71807   9.886   2.779   8.500  0.7696  0.3681  0.0423
  544MOL0     H71808  10.047   2.872   8.319  2.1926 -2.2564 -5.1753
  545MOL0     O71809   5.436  10.470   7.189  0.1020 -0.6858 -0.1144
  545MOL0     C71810   5.372  10.367   7.202  0.0868 -0.5344  0.3091
  545MOL0     O71811   5.426  10.250   7.247  0.9758 -0.2699  0.3705
  545MOL0     C71812   5.554  10.222   7.281 -0.7317  0.0678  0.5770
  545MOL0     C71813   5.597  10.091   7.273  0.0513  0.2215  0.0913
  545MOL0     C71814   5.724  10.046   7.320 -0.2403 -0.6059 -0.1565
  545MOL0     C71815   5.824  10.144   7.351 -0.0645  0.5551 -0.4287
  545MOL0     O71816   5.941  10.101   7.409  0.6780 -0.5671  0.3776
  545MOL0     C71817   6.026  10.181   7.495  0.1350  0.7524 -0.1764
  545MOL0     C71818   5.961  10.218   7.630 -0.2392  0.4944  0.5243
  545MOL0     C71819   5.893  10.097   7.696  0.4978 -0.0282  0.0098
  545MOL0     C71820   5.983   9.980   7.744 -0.7316 -1.0678  0.2157
  545MOL0     C71821   6.072  10.005   7.865  0.5452  0.5197  0.5190
  545MOL0     C71822   6.009   9.981   8.009 -0.7168 -0.4943 -0.2869
  545MOL0     C71823   5.912   9.858   8.022  0.2625  0.2610 -0.4057
  545MOL0     C71824   5.847   9.851   8.157 -0.5833 -1.4031 -0.0394
  545MOL0     N71825   5.799   9.715   8.184  0.3429 -0.3188  0.0348
  545MOL0     C71826   5.875   9.627   8.257  0.4486  0.0050 -0.6866
  545MOL0     C71827   5.789   9.534   8.304  0.2385 -0.3037  0.0711
  545MOL0     C71828   5.822   9.419   8.396 -0.3361  0.5917  0.0022
  545MOL0     C71829   5.893   9.461   8.528 -0.8358 -0.1750 -1.2005
  545MOL0     C71830   5.791   9.523   8.626  0.2306  0.8883 -0.4145
  545MOL0     C71831   5.836   9.634   8.727  0.0850  0.3313 -0.3428
  545MOL0     O71832   5.933   9.584   8.820 -0.2278 -0.0544  0.2781
  545MOL0     C71833   6.009   9.684   8.877 -0.4400 -0.4467 -0.1060
  545MOL0     C71834   6.149   9.669   8.895  0.9383 -0.0906 -0.4024
  545MOL0     C71835   6.226   9.774   8.941 -1.7077 -0.1269  1.2836
  545MOL0     C71836   6.174   9.884   9.008  0.7201 -0.4870 -0.7168
  545MOL0     C71837   6.267   9.989   9.066  0.1658  0.8256 -0.3347
  545MOL0     O71838   6.407   9.981   9.050  1.0076  0.0338  0.1795
  545MOL0     C71839   6.477  10.107   9.043  0.1100 -0.4547  0.6626
  545MOL0     C71840   6.588  10.139   9.116  0.0306 -0.8912 -0.5515
  545MOL0     C71841   6.651  10.266   9.103  0.4083 -0.3258  0.1284
  545MOL0     C71842   6.603  10.364   9.014 -0.0931  0.5522  0.0292
  545MOL0     O71843   6.664  10.482   8.990 -0.4446  0.1633 -0.1810
  545MOL0     C71844   6.739  10.491   8.869 -0.1262  0.9649  0.2354
  545MOL0     C71845   6.833  10.604   8.851  0.4302 -1.1528  0.7292
  545MOL0     C71846   6.926  10.619   8.969 -0.2001 -0.2249  0.4005
  545MOL0     C71847   7.003  10.487   8.998  0.2175  0.3485  0.3070
  545MOL0     C71848   7.064  10.488   9.136  0.3291 -0.0734 -1.2170
  545MOL0     C71849   7.216  10.532   9.144  0.3428  0.2222  0.9604
  545MOL0     C71850   7.315  10.416   9.122  0.2749 -0.5191  0.5177
  545MOL0     C71851   7.347  10.330   9.238  0.9805  1.0595  0.8127
  545MOL0    Cl71852   7.237  10.196   9.275 -0.5313 -0.0046 -0.4203
  545MOL0     C71853   6.495  10.324   8.936  0.1933  0.1953  0.2190
  545MOL0     C71854   6.434  10.201   8.948 -0.3016  1.1060  0.7945
  545MOL0     O71855   6.203  10.069   9.141 -0.4481 -0.2694  0.1000
  545MOL0     C71856   6.034   9.905   9.003  0.2926 -0.5300  0.8914
  545MOL0     C71857   5.960   9.804   8.931  0.5536 -0.5242 -0.3477
  545MOL0     N71858   5.666   9.564   8.250  0.1961 -1.3449  0.6486
  545MOL0     N71859   5.671   9.686   8.195  0.2890 -0.4044 -0.5880
  545MOL0     C71860   5.785  10.279   7.339  0.5600 -0.1915 -0.5883
  545MOL0     C71861   5.655  10.318   7.317  1.2779 -0.0689  0.7571
  545MOL0     C71862   5.229  10.373   7.192 -0.0664 -0.3102 -0.0516
  545MOL0     C71863   5.149  10.255   7.181 -0.5925  0.3461 -0.7262
  545MOL0     C71864   5.010  10.263   7.158 -0.0604  0.1119 -0.8339
  545MOL0     C71865   4.952  10.389   7.146  0.1110  0.1515 -0.3470
  545MOL0     O71866   4.820  10.390   7.104 -0.9644  0.1530  0.2718
  545MOL0     C71867   4.767  10.497   7.030  1.0868 -0.3640  2.3204
  545MOL0     C71868   4.672  10.581   7.115  0.7716 -0.3023  0.2923
  545MOL0     C71869   4.613  10.709   7.047 -1.0651  0.4499  0.6375
  545MOL0     C71870   4.707  10.816   7.018 -0.1828  0.1716  0.6009
  545MOL0     C71871   4.793  10.851   7.132  0.4658 -0.4287 -0.3192
  545MOL0     C71872   4.860  10.884   7.226  0.3116 -0.2014  0.4724
  545MOL0     C71873   5.025  10.505   7.174  0.1835 -0.7094 -0.2937
  545MOL0     C71874   5.161  10.495   7.199 -0.3374  0.3000  0.6929
  545MOL0     H71875   5.523  10.015   7.251  0.6664  0.1170 -1.8786
  545MOL0     H71876   5.745   9.940   7.311 -0.4563 -1.0163  3.0961
  545MOL0     H71877   6.051  10.266   7.431  0.1572  0.6720 -0.2750
  545MOL0     H71878   6.121  10.138   7.525 -0.3401  0.3169  0.7562
  545MOL0     H71879   5.870  10.276   7.615 -1.4435 -1.4110  0.0010
  545MOL0     H71880   6.018  10.269   7.707 -3.1083 -0.8743  3.8350
  545MOL0     H71881   5.824  10.061   7.619 -1.8724  3.5667  0.2067
  545MOL0     H71882   5.823  10.128   7.774 -1.2155  1.5069 -2.0017
  545MOL0     H71883   5.916   9.899   7.770  0.2429 -1.2789  2.2064
  545MOL0     H71884   6.035   9.934   7.659 -1.3763 -0.9198 -0.2708
  545MOL0     H71885   6.112  10.106   7.850  4.1882 -0.5552  1.9926
  545MOL0     H71886   6.167   9.951   7.864  1.4273  2.0056 -0.9756
  545MOL0     H71887   5.960  10.078   8.020  1.1251  0.4524 -0.0561
  545MOL0     H71888   6.081   9.978   8.091 -0.1859 -0.3936 -0.7439
  545MOL0     H71889   5.820   9.879   7.968 -1.6347  1.0303  2.8826
  545MOL0     H71890   5.959   9.761   7.998  1.2070  0.8773 -1.1251
  545MOL0     H71891   5.769   9.927   8.165  2.1150  1.5998 -0.3236
  545MOL0     H71892   5.930   9.858   8.227  0.0312 -3.6433 -0.4467
  545MOL0     H71893   5.979   9.642   8.285  0.4860  2.6335 -1.9498
  545MOL0     H71894   5.887   9.347   8.346  0.3949  0.0829  1.5946
  545MOL0     H71895   5.741   9.359   8.440  1.7686 -1.3374  1.5357
  545MOL0     H71896   5.974   9.532   8.505  1.2149 -1.1859  2.0801
  545MOL0     H71897   5.950   9.385   8.583  2.2394  2.2615 -0.6648
  545MOL0     H71898   5.703   9.561   8.575  1.3789  2.9365 -0.9885
  545MOL0     H71899   5.760   9.437   8.685 -0.5756  0.6492 -1.1699
  545MOL0     H71900   5.746   9.658   8.785  0.7983 -2.3621  2.1134
  545MOL0     H71901   5.861   9.723   8.669  0.9707 -1.6919 -3.2394
  545MOL0     H71902   6.184   9.573   8.859  1.3300 -0.7287  1.5669
  545MOL0     H71903   6.334   9.768   8.951 -1.1464  0.8974 -2.6215
  545MOL0     H71904   6.640  10.072   9.185  3.9443 -0.4893 -2.8118
  545MOL0     H71905   6.739  10.292   9.161 -2.3690  3.3514  3.2546
  545MOL0     H71906   6.666  10.495   8.788  0.0164  2.9706  0.1578
  545MOL0     H71907   6.797  10.400   8.849 -0.6508  0.4990  0.8235
  545MOL0     H71908   6.782  10.701   8.848  1.0644 -0.8209  0.3341
  545MOL0     H71909   6.885  10.602   8.755 -2.8716  1.1505 -1.3048
  545MOL0     H71910   6.874  10.657   9.057 -1.9088  0.7697 -0.9860
  545MOL0     H71911   7.005  10.689   8.938  3.0619 -4.2329 -1.3541
  545MOL0     H71912   6.934  10.404   9.011  1.1402 -0.1238  2.7716
  545MOL0     H71913   7.077  10.469   8.919 -0.4584  1.2286 -0.5568
  545MOL0     H71914   7.047  10.388   9.176  2.2492 -1.1386 -2.9285
  545MOL0     H71915   7.007  10.556   9.201 -0.6167 -1.0303 -1.0098
  545MOL0     H71916   7.237  10.579   9.240  2.6768  1.0981  0.0883
  545MOL0     H71917   7.237  10.614   9.075 -1.0603  2.2078  2.7677
  545MOL0     H71918   7.268  10.352   9.046 -1.8112  1.2153  0.2650
  545MOL0     H71919   7.407  10.463   9.085  0.4213 -2.3758 -1.7385
  545MOL0     H71920   7.367  10.391   9.327  3.6383 -4.3358  4.4428
  545MOL0     H71921   7.440  10.277   9.215  1.1570  1.5205  0.4372
  545MOL0     H71922   6.452  10.389   8.861 -0.7431  0.4514  0.9567
  545MOL0     H71923   6.349  10.171   8.888  2.8586  0.5617 -3.9531
  545MOL0     H71924   5.970   9.986   9.035  1.0158  1.7167 -2.6931
  545MOL0     H71925   5.854   9.818   8.915 -0.1030 -5.4570 -1.9865
  545MOL0     H71926   5.858  10.356   7.360 -1.8923  1.6465  1.8773
  545MOL0     H71927   5.628  10.422   7.308 -1.4397 -0.7851 -0.2451
  545MOL0     H71928   5.194  10.157   7.196  3.4068  1.9941 -0.6146
  545MOL0     H71929   4.938  10.183   7.145 -1.4516  1.3356 -0.8628
  545MOL0     H71930   4.707  10.441   6.957  2.2789  0.9054  0.2567
  545MOL0     H71931   4.839  10.556   6.973 -0.3953 -1.8908 -1.4509
  545MOL0     H71932   4.593  10.514   7.150 -0.5366 -1.3356 -3.9570
  545MOL0     H71933   4.720  10.604   7.210 -0.1665 -1.3297  1.0313
  545MOL0     H71934   4.547  10.748   7.125  1.1528 -2.7509  4.5194
  545MOL0     H71935   4.572  10.678   6.951  1.5410  2.2917 -1.1981
  545MOL0     H71936   4.764  10.770   6.936  0.4306 -1.4727  1.8907
  545MOL0     H71937   4.653  10.899   6.972  1.3436  1.2242  0.6189
  545MOL0     H71938   4.926  10.906   7.308  1.5470 -2.7363  0.2606
  545MOL0     H71939   4.975  10.598   7.149  2.0693  0.5026  0.2120
  545MOL0     H71940   5.215  10.588   7.189  0.2774 -0.0806  0.4112
  546MOL0     O71941   9.037   1.684   0.356 -0.5062 -0.3814 -1.1030
  546MOL0     C71942   8.953   1.663   0.447 -0.1705  0.9496  0.2481
  546MOL0     O71943   8.909   1.533   0.479 -0.2999 -0.5347  0.2056
  546MOL0     C71944   8.976   1.429   0.419  1.1059 -0.3481 -0.7482
  546MOL0     C71945   8.896   1.333   0.348  0.3401 -0.0011 -0.0838
  546MOL0     C71946   8.950   1.217   0.280  0.1865  0.0089 -0.8688
  546MOL0     C71947   9.093   1.191   0.298  0.5788  0.8947  0.9499
  546MOL0     O71948   9.158   1.072   0.251  0.7014  0.1664 -0.2730
  546MOL0     C71949   9.170   1.061   0.106  0.7422 -0.4365  0.2065
  546MOL0     C71950   9.193   0.914   0.060  0.2299 -0.5924 -0.0251
  546MOL0     C71951   9.166   0.891  -0.087  0.2459 -0.2849 -0.9445
  546MOL0     C71952   9.268   0.967  -0.175 -0.2466  0.3088  0.4884
  546MOL0     C71953   9.237   0.945  -0.328  0.4748  0.1684 -0.3339
  546MOL0     C71954   9.352   0.997  -0.410 -0.4910  0.3178 -0.4602
  546MOL0     C71955   9.302   1.018  -0.556  0.9504  0.7344 -1.1416
  546MOL0     C71956   9.264   1.160  -0.585 -0.1159 -0.2584 -0.3398
  546MOL0     N71957   9.257   1.190  -0.730 -0.0941  0.2554  0.6024
  546MOL0     C71958   9.323   1.282  -0.802 -0.6169 -0.7487  0.9708
  546MOL0     C71959   9.250   1.291  -0.918 -0.7857  0.0382  0.0015
  546MOL0     C71960   9.286   1.400  -1.019 -0.5010 -0.7749 -0.6686
  546MOL0     C71961   9.193   1.523  -1.003 -0.0965  0.5923 -1.1141
  546MOL0     C71962   9.194   1.592  -0.863  0.0562  0.6456 -0.0553
  546MOL0     C71963   9.145   1.734  -0.865 -0.2642 -0.0562  0.0248
  546MOL0     O71964   9.198   1.818  -0.973  0.4929  0.2265  0.4130
  546MOL0     C71965   9.310   1.893  -0.959  0.3603  0.2737 -0.0392
  546MOL0     C71966   9.391   1.894  -0.844  0.1542  0.9967 -0.4791
  546MOL0     C71967   9.503   1.971  -0.828  0.1688  0.3879 -0.2567
  546MOL0     C71968   9.540   2.057  -0.928  0.0934 -0.0507 -0.5531
  546MOL0     C71969   9.662   2.136  -0.904 -0.4750 -1.4119  0.5852
  546MOL0     O71970   9.664   2.205  -0.788  0.3727  0.0127 -0.5624
  546MOL0     C71971   9.758   2.296  -0.757 -0.9071  0.1455  0.4835
  546MOL0     C71972   9.726   2.402  -0.673  0.9072 -0.1030 -0.0292
  546MOL0     C71973   9.823   2.490  -0.632  0.0365 -0.1649 -0.6787
  546MOL0     C71974   9.956   2.486  -0.668  0.1465 -0.7067  0.4425
  546MOL0     O71975  10.031   2.587  -0.620  0.7971  0.4013  0.3018
  546MOL0     C71976  10.163   2.563  -0.599 -0.6586  0.0984  0.0726
  546MOL0     C71977  10.217   2.630  -0.473 -0.1609 -0.5040  0.0753
  546MOL0     C71978  10.231   2.787  -0.500  0.6513  0.3946  0.0698
  546MOL0     C71979  10.289   2.867  -0.385 -0.9222  0.7423 -0.2744
  546MOL0     C71980  10.203   2.870  -0.255 -0.2987 -0.4945  0.8626
  546MOL0     C71981  10.093   2.976  -0.266 -0.8172 -0.4329  0.0109
  546MOL0     C71982   9.998   2.959  -0.148 -1.1847 -1.2137  0.5375
  546MOL0     C71983   9.893   3.073  -0.161  0.7534 -0.4991  0.0464
  546MOL0    Cl71984   9.963   3.240  -0.116 -0.4014 -0.2130  0.0581
  546MOL0     C71985   9.994   2.393  -0.754  0.6073 -0.1667  0.5945
  546MOL0     C71986   9.897   2.292  -0.793 -0.3461 -0.2122 -0.4628
  546MOL0     O71987   9.748   2.150  -0.997  0.1574  0.1526  0.4290
  546MOL0     C71988   9.466   2.061  -1.049  0.8129 -0.7957  0.3073
  546MOL0     C71989   9.358   1.974  -1.063  1.3126  0.0440  0.1834
  546MOL0     N71990   9.148   1.206  -0.914  0.5836  0.6480  0.0288
  546MOL0     N71991   9.154   1.158  -0.799  0.2219  0.5234 -0.4971
  546MOL0     C71992   9.166   1.291   0.353 -0.0653  0.5263 -0.4764
  546MOL0     C71993   9.111   1.410   0.414  0.3966  0.6878  0.7309
  546MOL0     C71994   8.884   1.769   0.520  0.8741 -0.3320 -0.7959
  546MOL0     C71995   8.763   1.738   0.584 -0.7585 -1.6687  0.2755
  546MOL0     C71996   8.696   1.839   0.655  0.3484 -0.0842  0.2677
  546MOL0     C71997   8.747   1.968   0.668 -0.3800  0.5361 -0.8512
  546MOL0     O71998   8.702   2.075   0.749  0.4242  0.1023 -0.2487
  546MOL0     C71999   8.593   2.043   0.835 -0.0996 -0.1749 -0.5341
  546MOL0     C72000   8.554   2.173   0.898  0.3670  1.0660 -0.4888
  546MOL0     C72001   8.505   2.162   1.039  0.4854  0.9448 -0.0592
  546MOL0     C72002   8.479   2.296   1.111 -0.4956  0.3474 -0.6156
  546MOL0     C72003   8.339   2.336   1.087  0.1336 -0.1320 -0.3105
  546MOL0     C72004   8.234   2.393   1.072 -0.0238  0.8667 -1.0089
  546MOL0     C72005   8.862   1.991   0.590  0.3150  0.6696 -0.3353
  546MOL0     C72006   8.932   1.902   0.520  0.1440  0.3448  0.0678
  546MOL0     H72007   8.790   1.351   0.363  0.6614  0.3410  2.0895
  546MOL0     H72008   8.894   1.133   0.241 -0.5755 -1.1611  2.3743
  546MOL0     H72009   9.265   1.110   0.083  2.0691 -2.1358  1.7142
  546MOL0     H72010   9.083   1.103   0.056  1.7109 -0.4757 -1.6265
  546MOL0     H72011   9.120   0.857   0.118 -2.4667 -0.2047 -2.7531
  546MOL0     H72012   9.297   0.892   0.084  1.0517  2.1820 -0.6925
  546MOL0     H72013   9.067   0.932  -0.104  1.2080  2.8108  0.2178
  546MOL0     H72014   9.175   0.784  -0.108  3.2950  0.2519 -3.0150
  546MOL0     H72015   9.258   1.075  -0.156 -1.3483  0.5184 -1.0911
  546MOL0     H72016   9.369   0.940  -0.145  0.2870  1.6783  0.0413
  546MOL0     H72017   9.149   1.003  -0.358  1.5594  1.6737 -0.7023
  546MOL0     H72018   9.216   0.841  -0.354 -2.9162  0.8046 -0.6583
  546MOL0     H72019   9.442   0.934  -0.402 -0.1922  0.6679 -0.9713
  546MOL0     H72020   9.385   1.091  -0.365 -2.3437  0.2257  1.2141
  546MOL0     H72021   9.384   0.999  -0.625  0.8394 -0.9827 -0.8595
  546MOL0     H72022   9.218   0.957  -0.591 -0.1283  2.6189 -1.9945
  546MOL0     H72023   9.341   1.226  -0.544  0.2392 -1.1395  0.4349
  546MOL0     H72024   9.170   1.191  -0.541 -0.3848  0.6488 -1.4933
  546MOL0     H72025   9.403   1.352  -0.781  0.7917 -1.6543 -1.0801
  546MOL0     H72026   9.265   1.364  -1.120 -1.0494  2.8626 -1.9979
  546MOL0     H72027   9.389   1.434  -1.004 -1.1594  0.6269  1.1984
  546MOL0     H72028   9.094   1.485  -1.031 -0.3501  0.3743  0.0149
  546MOL0     H72029   9.227   1.594  -1.079  2.7329  0.1446 -0.3823
  546MOL0     H72030   9.134   1.531  -0.796  2.0312 -3.2890 -1.5281
  546MOL0     H72031   9.299   1.598  -0.831  0.9936  1.0925 -2.8630
  546MOL0     H72032   9.149   1.781  -0.766 -4.1184 -0.0918  0.3704
  546MOL0     H72033   9.039   1.735  -0.891  0.1309 -1.7379 -1.9096
  546MOL0     H72034   9.372   1.820  -0.767 -2.8199  2.0661 -0.0536
  546MOL0     H72035   9.563   1.946  -0.741 -0.7021  0.0366  0.2466
  546MOL0     H72036   9.627   2.399  -0.628 -0.1569  3.0285 -1.8537
  546MOL0     H72037   9.796   2.568  -0.561  0.7469  1.1714 -1.8157
  546MOL0     H72038  10.217   2.589  -0.690  1.4302 -0.6847  1.0385
  546MOL0     H72039  10.184   2.458  -0.576  2.4945  0.3192 -1.3990
  546MOL0     H72040  10.319   2.607  -0.442  1.5731  4.2656 -1.1828
  546MOL0     H72041  10.140   2.613  -0.397 -0.2267  1.6313  0.5677
  546MOL0     H72042  10.136   2.827  -0.536  1.5277  0.1675 -2.7177
  546MOL0     H72043  10.293   2.804  -0.588  0.4562  1.8401  0.1799
  546MOL0     H72044  10.385   2.821  -0.361 -1.3066 -0.3861 -0.8105
  546MOL0     H72045  10.307   2.969  -0.421  2.6492  0.9283  1.6025
  546MOL0     H72046  10.276   2.891  -0.176 -0.2032  3.7017 -0.1249
  546MOL0     H72047  10.154   2.774  -0.235 -0.1099 -0.5455  1.0911
  546MOL0     H72048  10.035   2.967  -0.358 -2.0956 -1.0715  0.8464
  546MOL0     H72049  10.143   3.073  -0.266  0.3848 -0.9133 -3.2919
  546MOL0     H72050   9.941   2.866  -0.159 -1.1214 -1.0593 -1.4941
  546MOL0     H72051  10.057   2.953  -0.056  0.4119  1.5146 -0.2005
  546MOL0     H72052   9.816   3.044  -0.089 -1.8104  1.8818 -1.5451
  546MOL0     H72053   9.847   3.081  -0.259  0.3285  0.9209  0.3382
  546MOL0     H72054  10.090   2.413  -0.800 -0.3508  0.6338 -1.1510
  546MOL0     H72055   9.921   2.202  -0.849 -0.3575 -0.6826  0.2714
  546MOL0     H72056   9.508   2.126  -1.125  0.0530  0.3686  0.8593
  546MOL0     H72057   9.304   1.980  -1.156 -0.4884 -0.2759  1.1643
  546MOL0     H72058   9.273   1.277   0.355 -0.1410 -0.0003  1.0174
  546MOL0     H72059   9.175   1.490   0.450 -1.9496  2.2458  1.6878
  546MOL0     H72060   8.719   1.639   0.584 -2.9380 -0.7837 -1.2777
  546MOL0     H72061   8.606   1.819   0.713 -0.2532  1.0301 -0.2539
  546MOL0     H72062   8.614   1.970   0.914 -0.3275 -0.1327 -0.4310
  546MOL0     H72063   8.504   2.015   0.778 -0.6391  1.6489 -0.6672
  546MOL0     H72064   8.642   2.238   0.906  1.2701  0.0956 -2.0811
  546MOL0     H72065   8.481   2.233   0.843  2.4027  3.0082 -1.2433
  546MOL0     H72066   8.586   2.109   1.090  0.2797 -1.8982 -2.4630
  546MOL0     H72067   8.421   2.093   1.048  0.3719  1.2160  1.0835
  546MOL0     H72068   8.499   2.293   1.219  0.0713 -2.3134 -0.7256
  546MOL0     H72069   8.539   2.365   1.053 -1.3567 -0.2680 -2.2964
  546MOL0     H72070   8.132   2.427   1.069 -0.9715 -1.2840  1.8962
  546MOL0     H72071   8.913   2.086   0.594 -0.4627  1.0624  2.0395
  546MOL0     H72072   9.030   1.930   0.483  0.6601 -0.1815  0.9885
  547MOL0     O72073  10.952   0.598   1.594 -0.2121 -0.4970 -0.1214
  547MOL0     C72074  11.036   0.655   1.517  0.4364  0.8283  0.2911
  547MOL0     O72075  11.024   0.652   1.380 -1.7427  0.1095  0.4400
  547MOL0     C72076  10.925   0.575   1.325 -0.0026 -0.6555 -0.1640
  547MOL0     C72077  10.828   0.635   1.239 -1.0616  0.2143 -0.2048
  547MOL0     C72078  10.743   0.556   1.162 -0.1146 -0.2385  0.1494
  547MOL0     C72079  10.742   0.416   1.177  0.4005  0.2579 -0.6622
  547MOL0     O72080  10.677   0.327   1.093 -0.2557 -0.0222 -0.7126
  547MOL0     C72081  10.598   0.374   0.988 -0.2272  1.2786 -0.3096
  547MOL0     C72082  10.520   0.253   0.940  0.6649 -0.4508  1.0330
  547MOL0     C72083  10.437   0.192   1.054  0.5456  0.2973  1.2620
  547MOL0     C72084  10.422   0.041   1.015 -0.0145  0.6549  0.8612
  547MOL0     C72085  10.323  -0.034   1.117  0.4158  0.6838  0.7027
  547MOL0     C72086  10.292  -0.184   1.075  1.2030 -0.4431 -0.1306
  547MOL0     C72087  10.209  -0.190   0.949  0.6309 -0.1387  1.3576
  547MOL0     C72088  10.100  -0.295   0.937  0.4858  0.7581  0.0060
  547MOL0     N72089  10.026  -0.314   0.803 -0.5484 -0.3345 -0.1119
  547MOL0     C72090  10.068  -0.396   0.695  0.6455 -0.3589  1.0051
  547MOL0     C72091   9.969  -0.377   0.595 -1.1375  0.2127 -0.5297
  547MOL0     C72092   9.962  -0.451   0.462 -0.5198 -0.4360  0.5756
  547MOL0     C72093   9.822  -0.517   0.438  0.4679 -0.0649 -1.0536
  547MOL0     C72094   9.813  -0.584   0.305 -0.3773 -0.3430  0.5644
  547MOL0     C72095   9.693  -0.667   0.277  1.0194  0.2995 -0.6296
  547MOL0     O72096   9.683  -0.697   0.134 -0.2446 -0.5886  1.0786
  547MOL0     C72097   9.700  -0.823   0.088 -0.7993  0.2794  0.6203
  547MOL0     C72098   9.662  -0.859  -0.047  0.2627  0.1309  0.0743
  547MOL0     C72099   9.658  -0.982  -0.102  0.2839 -0.0834  0.4707
  547MOL0     C72100   9.704  -1.086  -0.029  0.9695  0.2114  0.7801
  547MOL0     C72101   9.699  -1.224  -0.071 -0.3576 -0.7273  0.0305
  547MOL0     O72102   9.680  -1.325   0.018 -0.8486 -0.2751  0.2255
  547MOL0     C72103   9.664  -1.453  -0.020  0.4877  0.7583  0.3154
  547MOL0     C72104   9.569  -1.491  -0.111 -0.4857  0.3537  0.2176
  547MOL0     C72105   9.543  -1.629  -0.139 -0.3167 -1.0606 -0.5842
  547MOL0     C72106   9.614  -1.729  -0.084 -0.1661 -0.7128 -0.1909
  547MOL0     O72107   9.562  -1.851  -0.107 -0.2839  0.3107  0.2448
  547MOL0     C72108   9.647  -1.958  -0.087  0.2847 -0.2163 -0.8115
  547MOL0     C72109   9.578  -2.094  -0.104 -1.1092  0.9840  0.5519
  547MOL0     C72110   9.533  -2.129   0.042  0.0914 -0.7121  0.8001
  547MOL0     C72111   9.429  -2.238   0.050 -0.1155  0.1687 -0.2358
  547MOL0     C72112   9.368  -2.261   0.199 -0.3041 -0.4553  0.5844
  547MOL0     C72113   9.233  -2.326   0.206  0.1835  0.4154 -0.3235
  547MOL0     C72114   9.182  -2.325   0.347 -0.3063  0.5225  0.3789
  547MOL0     C72115   9.083  -2.443   0.377 -0.4877 -0.0568 -0.3442
  547MOL0    Cl72116   8.978  -2.421   0.528 -0.4819 -0.4252  0.0026
  547MOL0     C72117   9.727  -1.692  -0.006  0.1061  0.1073 -0.5145
  547MOL0     C72118   9.755  -1.549   0.015 -0.5474  1.3481  0.1214
  547MOL0     O72119   9.702  -1.239  -0.193  0.5625 -0.6410  0.5476
  547MOL0     C72120   9.743  -1.062   0.103  0.1192 -0.7886  0.1300
  547MOL0     C72121   9.749  -0.931   0.158 -0.0385 -0.1679  0.0701
  547MOL0     N72122   9.882  -0.288   0.641  0.0150 -0.1289  0.6468
  547MOL0     N72123   9.921  -0.240   0.757 -0.0041 -0.0198  0.4727
  547MOL0     C72124  10.839   0.351   1.265 -1.1338  0.1036 -0.5184
  547MOL0     C72125  10.919   0.437   1.337 -0.3427  0.7141 -0.5416
  547MOL0     C72126  11.143   0.742   1.570 -1.2652  0.2959 -0.7361
  547MOL0     C72127  11.152   0.754   1.709 -0.4138  0.0899  0.4539
  547MOL0     C72128  11.267   0.812   1.768  1.1223  0.4038 -0.5393
  547MOL0     C72129  11.375   0.851   1.694 -0.0796 -0.3931  0.9895
  547MOL0     O72130  11.473   0.914   1.764  0.0622  0.0774  0.0770
  547MOL0     C72131  11.597   0.924   1.700 -0.1625 -0.1417  0.7045
  547MOL0     C72132  11.702   0.991   1.790  0.9829 -0.4435 -0.9393
  547MOL0     C72133  11.771   0.893   1.903 -0.2214  0.4432 -1.6592
  547MOL0     C72134  11.673   0.825   2.000  0.2527 -0.6953  0.7381
  547MOL0     C72135  11.575   0.920   2.059  0.5569 -0.2106  0.0542
  547MOL0     C72136  11.484   0.980   2.123 -0.1320  0.1475 -1.2015
  547MOL0     C72137  11.369   0.829   1.550  0.0277 -0.2905  0.1361
  547MOL0     C72138  11.255   0.783   1.489  0.1751 -0.1000  0.2045
  547MOL0     H72139  10.840   0.740   1.218 -0.2228  0.1685  0.0064
  547MOL0     H72140  10.674   0.600   1.091 -0.7643  1.8606  1.9616
  547MOL0     H72141  10.657   0.408   0.902  1.2134 -2.1829 -0.8561
  547MOL0     H72142  10.531   0.447   1.033  2.1208  1.2388  3.6036
  547MOL0     H72143  10.591   0.175   0.910  0.4694 -0.6521  1.0881
  547MOL0     H72144  10.455   0.272   0.853 -0.0802  2.1417  2.0578
  547MOL0     H72145  10.346   0.253   1.052  2.4503  3.2955 -0.3177
  547MOL0     H72146  10.491   0.193   1.149  0.9508 -2.8063  1.1913
  547MOL0     H72147  10.376   0.036   0.916 -1.6802  1.0190  1.5894
  547MOL0     H72148  10.521  -0.004   1.004 -0.3488  0.1853 -0.4128
  547MOL0     H72149  10.228   0.020   1.115  0.6772  1.4229  3.5790
  547MOL0     H72150  10.352  -0.034   1.223 -2.1207  0.2270  1.4712
  547MOL0     H72151  10.250  -0.231   1.165 -0.0043 -0.3229 -0.6176
  547MOL0     H72152  10.382  -0.241   1.048  1.9660  1.7885 -2.6272
  547MOL0     H72153  10.160  -0.095   0.925  0.2598 -1.2203 -3.0776
  547MOL0     H72154  10.270  -0.208   0.860 -0.8860 -0.6776  0.3601
  547MOL0     H72155  10.025  -0.281   1.015 -0.6835 -1.1864 -0.6995
  547MOL0     H72156  10.147  -0.392   0.953 -1.4517  0.2705  3.7560
  547MOL0     H72157  10.146  -0.469   0.675 -1.3127 -1.9938 -1.2133
  547MOL0     H72158  10.046  -0.521   0.467 -0.4215 -0.3200  0.5419
  547MOL0     H72159   9.992  -0.392   0.375  0.7464 -1.6719  0.1573
  547MOL0     H72160   9.750  -0.434   0.436  1.1793  0.5464 -1.6386
  547MOL0     H72161   9.793  -0.581   0.522 -2.4521 -0.0880 -1.9617
  547MOL0     H72162   9.816  -0.497   0.238  3.4215  1.4149  2.7124
  547MOL0     H72163   9.897  -0.652   0.289 -1.1988 -1.5811  1.3537
  547MOL0     H72164   9.609  -0.602   0.306  1.6787  0.3083  1.4373
  547MOL0     H72165   9.688  -0.752   0.345  1.9438  1.3495  0.8149
  547MOL0     H72166   9.636  -0.772  -0.106 -2.8253 -2.3363 -2.5517
  547MOL0     H72167   9.635  -0.991  -0.207  1.1423 -2.7490  0.4370
  547MOL0     H72168   9.523  -1.410  -0.166  1.1096  1.2480  0.1461
  547MOL0     H72169   9.477  -1.646  -0.223 -2.6793  0.5346  0.8020
  547MOL0     H72170   9.705  -1.949   0.005 -0.0254  1.0202 -0.7195
  547MOL0     H72171   9.735  -1.947  -0.152  1.4641 -2.5479  0.2903
  547MOL0     H72172   9.641  -2.171  -0.151  0.3895  2.5468 -0.1132
  547MOL0     H72173   9.494  -2.073  -0.170  0.6027  0.9056 -1.8144
  547MOL0     H72174   9.481  -2.040   0.077 -0.1402  0.9081 -3.1339
  547MOL0     H72175   9.620  -2.162   0.099  0.2915 -4.0341 -1.1127
  547MOL0     H72176   9.345  -2.208  -0.014 -1.3459 -0.9850  0.7724
  547MOL0     H72177   9.464  -2.338   0.024  0.1208 -1.2265  4.4591
  547MOL0     H72178   9.369  -2.164   0.250  1.9276  0.5478 -1.1981
  547MOL0     H72179   9.438  -2.324   0.253  0.7352  0.9298  0.9051
  547MOL0     H72180   9.256  -2.432   0.190 -0.7624 -1.0400  5.5939
  547MOL0     H72181   9.149  -2.300   0.141 -0.7080 -0.1025  0.5849
  547MOL0     H72182   9.264  -2.340   0.418  1.6008 -1.8564 -2.1186
  547MOL0     H72183   9.138  -2.226   0.367 -1.5965  0.5391 -2.1579
  547MOL0     H72184   9.132  -2.539   0.397 -0.6102 -0.1536 -0.5099
  547MOL0     H72185   9.013  -2.454   0.294 -0.5520  1.3290 -0.5027
  547MOL0     H72186   9.781  -1.771   0.045  0.3220 -0.1488 -1.1392
  547MOL0     H72187   9.847  -1.519   0.063  0.3274  2.1970 -1.9392
  547MOL0     H72188   9.794  -1.146   0.149  1.5764  0.4520  0.8830
  547MOL0     H72189   9.788  -0.915   0.258  0.3538  2.0006 -0.3759
  547MOL0     H72190  10.864   0.245   1.259 -2.4557 -0.1521 -2.1486
  547MOL0     H72191  10.992   0.398   1.408  1.0519  2.7756 -0.7470
  547MOL0     H72192  11.065   0.726   1.768  1.7199 -0.5326  3.5244
  547MOL0     H72193  11.286   0.829   1.873  6.9471  1.0136 -1.3893
  547MOL0     H72194  11.568   0.976   1.608 -0.0901 -0.0439  0.7363
  547MOL0     H72195  11.634   0.827   1.667  2.1930 -0.4930  3.9347
  547MOL0     H72196  11.781   1.026   1.724 -1.5141 -2.1635 -5.3326
  547MOL0     H72197  11.658   1.077   1.842 -0.8310 -2.2029  0.6307
  547MOL0     H72198  11.847   0.935   1.969 -1.6089 -1.9443  1.6887
  547MOL0     H72199  11.836   0.818   1.857 -1.5035 -0.5051 -1.9796
  547MOL0     H72200  11.615   0.747   1.949 -1.0343 -0.3763  1.6452
  547MOL0     H72201  11.721   0.775   2.084  1.9907  0.1638  0.2889
  547MOL0     H72202  11.433   1.046   2.189  2.3889 -0.3349  1.4320
  547MOL0     H72203  11.460   0.848   1.494 -0.1610  2.2544  0.5634
  547MOL0     H72204  11.251   0.764   1.382  4.2074 -0.4271 -0.0343
  548MOL0     O72205   2.374   8.319   5.221 -0.0964  0.6711 -0.1627
  548MOL0     C72206   2.259   8.358   5.251 -0.2476  0.7945 -0.1988
  548MOL0     O72207   2.141   8.331   5.188  0.1009  0.0815  1.1224
  548MOL0     C72208   2.149   8.305   5.054 -0.0017 -0.0113 -0.3245
  548MOL0     C72209   2.210   8.181   5.020  0.9425  0.1556 -0.4111
  548MOL0     C72210   2.241   8.159   4.887 -0.2642 -0.0740  0.0125
  548MOL0     C72211   2.193   8.248   4.788  0.1812  0.9006  0.1147
  548MOL0     O72212   2.217   8.228   4.657 -0.5601  0.2474  1.0050
  548MOL0     C72213   2.355   8.261   4.610  0.5934 -0.6219  0.5965
  548MOL0     C72214   2.389   8.217   4.470 -1.2645 -0.4652 -0.4282
  548MOL0     C72215   2.354   8.072   4.421  1.1891 -0.8906 -0.0007
  548MOL0     C72216   2.389   7.960   4.526 -0.4090 -0.5577  0.2264
  548MOL0     C72217   2.539   7.949   4.552  0.2117  0.3441 -0.1551
  548MOL0     C72218   2.561   7.892   4.698 -0.2716  0.5215 -0.2784
  548MOL0     C72219   2.559   7.732   4.711 -0.6481  0.6313 -0.2215
  548MOL0     C72220   2.704   7.696   4.675  0.1433 -0.2608 -0.3618
  548MOL0     N72221   2.736   7.558   4.715  0.0874  0.7012 -0.2932
  548MOL0     C72222   2.673   7.459   4.641 -0.4560  0.7135  0.0389
  548MOL0     C72223   2.678   7.347   4.714 -0.1444  0.5706  0.2040
  548MOL0     C72224   2.619   7.213   4.675 -1.3724 -0.0208 -0.8967
  548MOL0     C72225   2.464   7.212   4.704  0.0129 -0.3505 -0.2025
  548MOL0     C72226   2.424   7.071   4.713  0.7493 -0.0879 -1.0511
  548MOL0     C72227   2.276   7.030   4.723  0.8157  0.7133  0.7396
  548MOL0     O72228   2.270   6.891   4.687  0.4124  0.4464 -0.5436
  548MOL0     C72229   2.156   6.830   4.722  0.3841  0.4821 -0.0378
  548MOL0     C72230   2.040   6.883   4.774 -1.2785 -0.0402  0.4196
  548MOL0     C72231   1.917   6.810   4.788 -0.2037  0.0567 -0.5588
  548MOL0     C72232   1.913   6.674   4.759 -0.5663  1.1930  0.2585
  548MOL0     C72233   1.800   6.587   4.800  0.5001  0.9182  0.0307
  548MOL0     O72234   1.722   6.639   4.896  0.5923 -0.0833  0.2873
  548MOL0     C72235   1.635   6.562   4.973  0.0234 -0.1213  0.4759
  548MOL0     C72236   1.514   6.615   5.012 -0.1983  0.0028  0.2534
  548MOL0     C72237   1.434   6.544   5.099 -0.4925  0.6555 -0.4122
  548MOL0     C72238   1.468   6.419   5.154  0.8182  0.3226  0.0896
  548MOL0     O72239   1.386   6.385   5.254  0.0801  0.1056  0.4816
  548MOL0     C72240   1.394   6.265   5.333 -0.0209  0.3479  1.1325
  548MOL0     C72241   1.486   6.273   5.455  0.4383 -1.2337 -0.8871
  548MOL0     C72242   1.440   6.354   5.580 -0.2058  0.3136 -0.4509
  548MOL0     C72243   1.528   6.341   5.706  0.6104 -0.0486  0.8443
  548MOL0     C72244   1.474   6.432   5.814  0.2639  0.4154 -0.3740
  548MOL0     C72245   1.512   6.411   5.964 -0.3239  0.3394  0.1926
  548MOL0     C72246   1.454   6.533   6.043  0.3929  0.3856  0.3729
  548MOL0     C72247   1.477   6.508   6.194  0.5849 -1.3291  0.9557
  548MOL0    Cl72248   1.419   6.361   6.254 -0.3521  0.2103  0.2620
  548MOL0     C72249   1.586   6.365   5.110  0.1879 -0.4990  0.5335
  548MOL0     C72250   1.668   6.430   5.013  0.0104 -0.2346 -0.4521
  548MOL0     O72251   1.789   6.476   4.750  0.9282 -0.4250  0.1310
  548MOL0     C72252   2.032   6.620   4.693 -0.0639  0.2165 -0.6572
  548MOL0     C72253   2.148   6.695   4.684  0.1962 -0.0454 -0.6180
  548MOL0     N72254   2.718   7.373   4.839 -0.0443  0.1305  0.0265
  548MOL0     N72255   2.746   7.503   4.845 -0.7357 -0.0914 -0.2582
  548MOL0     C72256   2.115   8.353   4.817 -0.3434  0.0131  0.2271
  548MOL0     C72257   2.100   8.387   4.959  0.4601 -0.6195  0.1206
  548MOL0     C72258   2.254   8.429   5.385 -1.6032 -0.4544  1.3107
  548MOL0     C72259   2.371   8.447   5.459 -0.3799  0.0652 -0.1829
  548MOL0     C72260   2.379   8.522   5.576  0.1634 -0.6524  0.0825
  548MOL0     C72261   2.261   8.593   5.619 -0.5670  0.4584  0.0228
  548MOL0     O72262   2.269   8.687   5.722 -0.5251 -0.9375  0.2030
  548MOL0     C72263   2.231   8.822   5.692  0.0491  0.2456 -0.1047
  548MOL0     C72264   2.349   8.921   5.716  0.0682  0.1824  0.0271
  548MOL0     C72265   2.371   8.959   5.862 -0.9641 -0.9493  0.0557
  548MOL0     C72266   2.456   9.085   5.886 -0.1582 -0.9122  0.4649
  548MOL0     C72267   2.588   9.065   5.837 -0.0611  0.0954 -0.1192
  548MOL0     C72268   2.694   9.024   5.794  0.0324  0.6928 -0.1805
  548MOL0     C72269   2.142   8.574   5.540 -0.0718  0.2397 -0.4882
  548MOL0     C72270   2.139   8.492   5.423  0.8388  0.4984  0.2046
  548MOL0     H72271   2.233   8.100   5.087  2.3025 -0.6936 -1.8350
  548MOL0     H72272   2.292   8.073   4.843  1.2925 -0.7714  2.9723
  548MOL0     H72273   2.421   8.217   4.686 -0.1484  0.5828  2.0015
  548MOL0     H72274   2.366   8.370   4.620 -1.3044 -0.4999  2.0903
  548MOL0     H72275   2.495   8.224   4.443 -2.1769 -1.0391 -4.8825
  548MOL0     H72276   2.341   8.290   4.404  1.9826  0.1131 -2.3886
  548MOL0     H72277   2.407   8.057   4.327 -0.6512 -0.4491 -1.1488
  548MOL0     H72278   2.249   8.062   4.392  1.2466 -0.1948 -0.4683
  548MOL0     H72279   2.331   7.961   4.619 -0.2658  0.5584  0.3237
  548MOL0     H72280   2.362   7.866   4.479  0.7534 -0.6171 -0.3567
  548MOL0     H72281   2.585   8.049   4.552  3.8173 -1.0346  3.7303
  548MOL0     H72282   2.570   7.890   4.466 -2.5902 -0.7323 -0.5090
  548MOL0     H72283   2.483   7.930   4.766  0.9323  1.8866  0.4074
  548MOL0     H72284   2.653   7.934   4.739  0.2617 -0.4279 -0.4810
  548MOL0     H72285   2.543   7.692   4.811  0.1559 -1.6014 -0.9222
  548MOL0     H72286   2.496   7.676   4.640 -1.4108 -0.0099  0.9297
  548MOL0     H72287   2.771   7.769   4.721 -0.6207  0.8712 -0.9688
  548MOL0     H72288   2.720   7.699   4.567 -0.9752 -2.7582 -0.6784
  548MOL0     H72289   2.633   7.470   4.541 -0.9854  2.5693  0.4281
  548MOL0     H72290   2.675   7.131   4.720  2.6819  1.4058 -2.8790
  548MOL0     H72291   2.639   7.203   4.568  2.3906  1.3712 -0.4641
  548MOL0     H72292   2.394   7.257   4.633 -2.7784 -2.1569  1.2645
  548MOL0     H72293   2.451   7.255   4.803 -0.4074 -1.5366  0.2691
  548MOL0     H72294   2.471   7.023   4.627 -1.2232 -0.3917 -2.0072
  548MOL0     H72295   2.477   7.036   4.803  1.3495  2.4471 -0.3434
  548MOL0     H72296   2.218   7.092   4.654  2.6692  0.4627 -1.1299
  548MOL0     H72297   2.229   7.053   4.820 -1.2634 -0.1147 -0.0031
  548MOL0     H72298   2.039   6.990   4.793 -0.4676 -0.3723  2.6972
  548MOL0     H72299   1.822   6.849   4.823 -0.7871 -1.1613 -0.7563
  548MOL0     H72300   1.496   6.719   4.985 -0.2965  0.5704  2.3077
  548MOL0     H72301   1.346   6.603   5.126 -2.4180 -0.6913 -3.2519
  548MOL0     H72302   1.410   6.188   5.256  1.1870  0.8463  0.8642
  548MOL0     H72303   1.288   6.255   5.358 -0.2117 -0.5591  0.0700
  548MOL0     H72304   1.576   6.329   5.426 -0.9404  2.6904  1.6570
  548MOL0     H72305   1.506   6.170   5.488 -1.1093 -0.7216  1.9955
  548MOL0     H72306   1.351   6.293   5.600 -0.5553  0.4496 -1.5346
  548MOL0     H72307   1.422   6.460   5.564  0.4825  0.8425  1.8855
  548MOL0     H72308   1.527   6.237   5.739  0.0584 -0.8754 -1.6086
  548MOL0     H72309   1.630   6.364   5.674  0.7289 -0.5719  0.8482
  548MOL0     H72310   1.365   6.439   5.803 -0.5498 -3.3893  3.0704
  548MOL0     H72311   1.521   6.530   5.799 -3.4196  2.9195  2.6025
  548MOL0     H72312   1.621   6.420   5.976 -0.2824  1.1799 -0.7533
  548MOL0     H72313   1.473   6.311   5.986 -1.8644  0.7917 -0.4239
  548MOL0     H72314   1.516   6.619   6.019  1.4946  0.0936  2.0249
  548MOL0     H72315   1.347   6.543   6.022  0.7252  1.0658 -1.0612
  548MOL0     H72316   1.443   6.599   6.244  1.7990  0.3958 -1.1732
  548MOL0     H72317   1.583   6.526   6.212  0.0678  3.9536  0.4072
  548MOL0     H72318   1.608   6.267   5.150 -1.4932 -1.6728 -1.2175
  548MOL0     H72319   1.759   6.384   4.975  0.2971  0.7101 -0.9681
  548MOL0     H72320   2.032   6.520   4.652  1.7440 -0.5380  0.9697
  548MOL0     H72321   2.236   6.641   4.650  2.9854  3.2454  0.7743
  548MOL0     H72322   2.079   8.421   4.741  0.6008 -1.1727 -1.3414
  548MOL0     H72323   2.052   8.482   4.979  0.7724  0.1413 -2.3897
  548MOL0     H72324   2.466   8.401   5.433  0.4264  0.2270  2.1588
  548MOL0     H72325   2.471   8.548   5.628  0.8511 -0.2974 -1.2758
  548MOL0     H72326   2.148   8.843   5.761 -1.5103 -1.9882 -1.1575
  548MOL0     H72327   2.199   8.831   5.588  4.3139  2.1923 -1.4424
  548MOL0     H72328   2.435   8.879   5.663 -0.6918  0.0507 -1.1452
  548MOL0     H72329   2.329   9.012   5.660 -1.0690  0.8689  1.4715
  548MOL0     H72330   2.409   8.871   5.914 -0.7683 -0.2281  1.1894
  548MOL0     H72331   2.270   8.973   5.903 -2.0298 -1.1634 -2.3628
  548MOL0     H72332   2.401   9.161   5.830  2.4827  0.6149 -0.2056
  548MOL0     H72333   2.458   9.099   5.995  0.9005 -2.1854  0.6323
  548MOL0     H72334   2.786   8.979   5.763 -0.5954 -1.8715  1.4013
  548MOL0     H72335   2.057   8.619   5.591 -0.0870  1.2855 -1.3945
  548MOL0     H72336   2.050   8.475   5.364 -0.3972 -0.2266  2.1582
  549MOL0     O72337  10.916   7.326   5.969  0.0998 -0.1292  0.1041
  549MOL0     C72338  10.857   7.430   5.987 -0.4818 -0.1154  0.8190
  549MOL0     O72339  10.816   7.507   5.877  0.3492 -0.0478  0.0277
  549MOL0     C72340  10.841   7.466   5.752  0.5794 -0.5741  0.9908
  549MOL0     C72341  10.961   7.406   5.706 -0.1256 -0.4903  0.2928
  549MOL0     C72342  10.969   7.368   5.569  0.0119  0.5875 -0.3983
  549MOL0     C72343  10.874   7.400   5.470  1.0643 -0.7516  0.3601
  549MOL0     O72344  10.885   7.349   5.343 -0.9309 -0.2338 -0.6042
  549MOL0     C72345  11.013   7.299   5.294  1.1421  0.1618  0.0593
  549MOL0     C72346  11.013   7.293   5.142  1.0431  0.0329  0.2338
  549MOL0     C72347  11.151   7.294   5.084  0.2399  0.4276 -1.0569
  549MOL0     C72348  11.156   7.331   4.931  1.2938 -0.3485 -1.3536
  549MOL0     C72349  11.121   7.473   4.909  0.6625 -0.1139 -0.5630
  549MOL0     C72350  11.100   7.495   4.754  0.5144 -0.6459  0.4890
  549MOL0     C72351  11.023   7.633   4.743 -0.3283  0.6643 -0.4803
  549MOL0     C72352  11.011   7.684   4.595 -0.0054 -0.4978 -0.4591
  549MOL0     N72353  10.976   7.825   4.596  0.1492 -0.2691  0.7612
  549MOL0     C72354  10.860   7.879   4.640 -0.8494  0.2180 -0.4185
  549MOL0     C72355  10.860   8.007   4.602 -0.5392  1.0196  0.6823
  549MOL0     C72356  10.752   8.100   4.650  1.0798  0.1332  0.0259
  549MOL0     C72357  10.819   8.205   4.749 -0.0539 -0.6357 -0.4171
  549MOL0     C72358  10.728   8.284   4.831  0.3160 -0.2728 -1.4401
  549MOL0     C72359  10.658   8.392   4.750  0.4262 -0.2863 -0.6319
  549MOL0     O72360  10.560   8.457   4.819  0.8560 -0.0550  0.3058
  549MOL0     C72361  10.593   8.548   4.914 -0.6300  0.8177 -0.2797
  549MOL0     C72362  10.724   8.591   4.953 -0.0442  0.2948  0.6091
  549MOL0     C72363  10.743   8.695   5.047  0.3662  0.2364 -0.5761
  549MOL0     C72364  10.629   8.751   5.114 -0.8520 -0.8212  0.4801
  549MOL0     C72365  10.656   8.850   5.216  0.7271 -0.0424  0.7408
  549MOL0     O72366  10.544   8.867   5.304 -0.5831  0.4417 -0.2258
  549MOL0     C72367  10.565   8.954   5.402 -0.4099 -1.0665  0.0223
  549MOL0     C72368  10.541   9.099   5.392 -0.4681 -0.1079  0.1481
  549MOL0     C72369  10.565   9.179   5.502  0.5458  0.9474  0.5421
  549MOL0     C72370  10.594   9.127   5.625 -0.7633  1.2642 -0.5835
  549MOL0     O72371  10.618   9.203   5.729 -0.1727 -0.2244 -0.3038
  549MOL0     C72372  10.743   9.270   5.732 -0.8377  0.6384 -0.5331
  549MOL0     C72373  10.739   9.400   5.792  0.5858 -0.5975 -0.6391
  549MOL0     C72374  10.847   9.510   5.762 -0.4595 -0.0034  0.1714
  549MOL0     C72375  10.817   9.653   5.817 -0.7016 -0.4032 -0.6336
  549MOL0     C72376  10.928   9.751   5.798 -0.2593  0.4551 -0.0895
  549MOL0     C72377  10.921   9.814   5.664  0.1180 -0.0731 -0.8107
  549MOL0     C72378  11.050   9.911   5.638  0.8740 -0.4375  0.1850
  549MOL0     C72379  11.176   9.842   5.671 -1.1072 -0.0196  0.4598
  549MOL0    Cl72380  11.188   9.682   5.573  0.2648  0.1501  0.2355
  549MOL0     C72381  10.614   8.988   5.642  0.2920 -0.2869  0.4030
  549MOL0     C72382  10.611   8.903   5.528  0.1941  0.3218  0.0527
  549MOL0     O72383  10.763   8.918   5.224  0.1277 -0.1650  0.6134
  549MOL0     C72384  10.503   8.708   5.077  0.0045  0.5526  0.4992
  549MOL0     C72385  10.490   8.608   4.978  0.4211  1.2364 -0.9903
  549MOL0     N72386  10.974   8.036   4.521 -0.6981  0.4139 -0.2394
  549MOL0     N72387  11.049   7.926   4.530  0.1917  0.0272 -0.8361
  549MOL0     C72388  10.763   7.463   5.508  0.4342  0.4207 -0.0377
  549MOL0     C72389  10.744   7.490   5.646 -0.0445  0.0127 -0.1438
  549MOL0     C72390  10.823   7.480   6.115  0.0594  0.0265 -0.4894
  549MOL0     C72391  10.711   7.556   6.137 -0.0233 -0.1824  0.5454
  549MOL0     C72392  10.677   7.599   6.268  0.2065 -0.0688  0.1707
  549MOL0     C72393  10.761   7.590   6.371 -0.7757  1.0914 -0.1181
  549MOL0     O72394  10.747   7.649   6.494  0.0138  0.2040  0.2291
  549MOL0     C72395  10.697   7.791   6.501 -0.1186 -0.1993  0.1382
  549MOL0     C72396  10.660   7.831   6.640 -0.3162  0.8557  0.3055
  549MOL0     C72397  10.547   7.742   6.701 -0.7266  0.2751  1.0588
  549MOL0     C72398  10.500   7.795   6.837  0.3869  1.0172 -0.1600
  549MOL0     C72399  10.444   7.699   6.930 -0.1222 -0.1299  0.6132
  549MOL0     C72400  10.397   7.611   6.999  0.6253  0.2432 -0.4789
  549MOL0     C72401  10.861   7.493   6.355  0.5392 -0.2379  0.4879
  549MOL0     C72402  10.901   7.445   6.225 -0.5135 -1.1714 -1.2547
  549MOL0     H72403  11.055   7.387   5.757  1.7587 -1.3408 -3.1934
  549MOL0     H72404  11.063   7.327   5.534  0.8656  0.0303  2.2970
  549MOL0     H72405  11.041   7.201   5.335  0.1648  0.0425  0.4551
  549MOL0     H72406  11.078   7.385   5.317 -0.5197  1.3373  0.5052
  549MOL0     H72407  10.956   7.381   5.108 -1.8999 -0.6387  2.9734
  549MOL0     H72408  10.952   7.208   5.110  0.9455  0.8482 -1.9424
  549MOL0     H72409  11.196   7.194   5.087 -0.4963  0.0407 -2.2559
  549MOL0     H72410  11.221   7.356   5.141  0.1237 -0.3881  0.0109
  549MOL0     H72411  11.254   7.306   4.889  1.7766  0.5893 -0.8275
  549MOL0     H72412  11.086   7.261   4.884 -0.1335 -2.2665  3.0523
  549MOL0     H72413  11.210   7.523   4.947  1.2520 -1.5958  0.0635
  549MOL0     H72414  11.037   7.504   4.972  2.5595  0.8042  1.6665
  549MOL0     H72415  11.041   7.420   4.701  0.1805  0.7154 -1.1449
  549MOL0     H72416  11.196   7.499   4.702 -0.6972 -0.0583 -1.8185
  549MOL0     H72417  10.919   7.609   4.764  1.4809 -6.3665  3.3009
  549MOL0     H72418  11.061   7.704   4.817  0.3701 -0.8105  0.6194
  549MOL0     H72419  10.935   7.635   4.533 -3.3657  1.2286  1.9954
  549MOL0     H72420  11.106   7.676   4.541  1.0120 -0.4467  1.2501
  549MOL0     H72421  10.788   7.819   4.695  0.0758 -1.9021 -1.4102
  549MOL0     H72422  10.675   8.047   4.707 -0.0681  1.9442  0.2341
  549MOL0     H72423  10.693   8.144   4.569 -1.4530 -4.3792 -0.9504
  549MOL0     H72424  10.883   8.278   4.698 -1.0575 -0.4092 -1.4184
  549MOL0     H72425  10.877   8.154   4.826 -2.1365 -0.0716  1.6135
  549MOL0     H72426  10.646   8.226   4.874 -0.1185  0.2278 -1.5802
  549MOL0     H72427  10.781   8.321   4.920 -0.5399 -0.7130 -0.7304
  549MOL0     H72428  10.603   8.348   4.666  0.5722  0.4753 -1.1404
  549MOL0     H72429  10.735   8.458   4.708 -0.6147  1.2528 -0.2109
  549MOL0     H72430  10.822   8.573   4.909 -0.4753  2.6696 -1.5666
  549MOL0     H72431  10.837   8.743   5.070 -1.7378  3.6703  1.6913
  549MOL0     H72432  10.498   9.154   5.309 -0.2146 -0.9485 -0.5688
  549MOL0     H72433  10.547   9.286   5.494  0.3815  1.3954  4.7318
  549MOL0     H72434  10.772   9.289   5.628  1.4468  0.5746  0.0445
  549MOL0     H72435  10.816   9.201   5.775 -2.5446 -1.1657 -0.3559
  549MOL0     H72436  10.729   9.389   5.901  2.2634  0.0147 -0.3874
  549MOL0     H72437  10.650   9.447   5.751  0.6455  1.3080  1.2405
  549MOL0     H72438  10.863   9.513   5.654 -2.7550  1.7358 -0.1913
  549MOL0     H72439  10.938   9.479   5.815  1.8617  5.3527 -0.1227
  549MOL0     H72440  10.734   9.700   5.765 -0.9336  1.0870  1.0140
  549MOL0     H72441  10.802   9.642   5.925  0.2108 -0.7914 -0.5354
  549MOL0     H72442  11.018   9.691   5.787 -1.3536 -1.1980 -0.3713
  549MOL0     H72443  10.940   9.820   5.882 -0.8327 -0.6470  0.9382
  549MOL0     H72444  10.835   9.881   5.665  0.8439  0.9213 -1.9094
  549MOL0     H72445  10.910   9.737   5.587 -2.4182  0.9344 -1.5406
  549MOL0     H72446  11.059   9.932   5.531  2.6359  1.2439  0.6094
  549MOL0     H72447  11.057  10.010   5.684  0.5990 -1.3886  2.4436
  549MOL0     H72448  11.187   9.813   5.776  3.7345  2.4071  0.9338
  549MOL0     H72449  11.264   9.904   5.650 -1.4951 -0.0902 -1.6171
  549MOL0     H72450  10.647   8.963   5.743  2.8430 -0.8539 -0.4853
  549MOL0     H72451  10.633   8.800   5.557  0.6266  0.5190  0.4383
  549MOL0     H72452  10.420   8.766   5.117  1.6486  1.9944  2.0223
  549MOL0     H72453  10.394   8.561   4.958  3.2507 -5.3280 -1.5510
  549MOL0     H72454  10.691   7.489   5.432 -1.5316 -0.7065  1.3523
  549MOL0     H72455  10.667   7.556   5.687  1.8952 -0.6234  5.4258
  549MOL0     H72456  10.653   7.579   6.049 -1.3854 -2.9497  0.6088
  549MOL0     H72457  10.592   7.667   6.270 -1.5476 -2.0936  3.4753
  549MOL0     H72458  10.607   7.804   6.440  1.9308 -1.5646 -3.4588
  549MOL0     H72459  10.769   7.865   6.467  0.2849 -0.0093  1.3564
  549MOL0     H72460  10.751   7.817   6.699  0.3605 -0.8490 -1.0452
  549MOL0     H72461  10.629   7.936   6.643  1.6393  1.5015 -0.5859
  549MOL0     H72462  10.592   7.643   6.712 -0.9926  0.1273  0.8451
  549MOL0     H72463  10.470   7.725   6.624  2.6476 -3.2315 -1.9706
  549MOL0     H72464  10.584   7.842   6.890 -1.2671  2.6945  1.1044
  549MOL0     H72465  10.430   7.879   6.831  0.9956  1.5829  0.4335
  549MOL0     H72466  10.359   7.539   7.068  1.3338  1.3113  1.0867
  549MOL0     H72467  10.919   7.458   6.440  4.8048  0.6436 -1.8149
  549MOL0     H72468  10.975   7.367   6.214 -0.5823 -1.5757  0.7583
  550MOL0     O72469   5.882   3.728  11.193 -0.1519 -0.1331 -0.0105
  550MOL0     C72470   5.925   3.840  11.165  0.1930  0.7025  0.2581
  550MOL0     O72471   5.933   3.901  11.039  0.7093 -0.5539  0.4718
  550MOL0     C72472   5.923   3.816  10.937 -0.4204 -0.9111  0.1713
  550MOL0     C72473   6.041   3.771  10.877  0.8728 -0.5246  0.7467
  550MOL0     C72474   6.032   3.688  10.765 -0.7929 -0.0029  0.1822
  550MOL0     C72475   5.910   3.623  10.727 -0.6494  0.5864 -0.1251
  550MOL0     O72476   5.898   3.544  10.617 -0.9785  0.4937  0.1979
  550MOL0     C72477   5.993   3.556  10.506  0.6537 -0.0755 -0.3217
  550MOL0     C72478   5.933   3.473  10.390 -0.2496  0.2451 -0.6186
  550MOL0     C72479   6.013   3.489  10.260 -0.6544  0.5519 -0.1803
  550MOL0     C72480   5.951   3.423  10.142  0.4688 -1.6349 -0.4604
  550MOL0     C72481   6.036   3.411  10.020  0.6466  0.2450 -0.2221
  550MOL0     C72482   5.968   3.306   9.924 -0.6679  0.3048  0.5273
  550MOL0     C72483   6.048   3.265   9.796 -0.1579  1.2750  0.9701
  550MOL0     C72484   5.988   3.132   9.729 -0.1621  0.2608 -0.0774
  550MOL0     N72485   6.068   3.098   9.615  0.4675 -0.5543 -1.0367
  550MOL0     C72486   6.050   3.150   9.483 -0.1252  0.1202 -0.4215
  550MOL0     C72487   6.148   3.096   9.406  0.7294  0.6121  0.8809
  550MOL0     C72488   6.181   3.138   9.260 -0.7210 -0.5694  0.4498
  550MOL0     C72489   6.331   3.161   9.249  0.0640  0.1656  0.0282
  550MOL0     C72490   6.390   3.022   9.210 -0.8168  0.5488  0.3297
  550MOL0     C72491   6.457   3.022   9.081  0.1476  0.1697  0.3281
  550MOL0     O72492   6.547   3.133   9.063  0.6353  0.7889 -0.0472
  550MOL0     C72493   6.675   3.123   9.099 -1.0842  1.1676  0.0249
  550MOL0     C72494   6.735   3.244   9.113 -0.4775 -0.1173 -0.0950
  550MOL0     C72495   6.865   3.258   9.157 -0.1043 -0.0425 -0.5376
  550MOL0     C72496   6.940   3.145   9.194  1.0415 -0.0490 -0.1997
  550MOL0     C72497   7.082   3.147   9.232 -1.2964 -0.0829 -0.0421
  550MOL0     O72498   7.136   3.267   9.231  0.7095  0.7634  0.0679
  550MOL0     C72499   7.251   3.287   9.297 -1.0546  0.7671 -0.2822
  550MOL0     C72500   7.256   3.259   9.437 -0.2342  0.3775 -0.1409
  550MOL0     C72501   7.368   3.298   9.506  0.2633  0.5036 -0.4232
  550MOL0     C72502   7.493   3.322   9.443 -0.6240  0.3051 -0.5662
  550MOL0     O72503   7.608   3.331   9.518 -0.3524  0.0968 -0.1958
  550MOL0     C72504   7.730   3.296   9.433  1.0391  0.0293 -0.2880
  550MOL0     C72505   7.845   3.292   9.522  0.5079  0.0169 -0.0350
  550MOL0     C72506   7.963   3.249   9.446  0.1143  0.7812  0.0556
  550MOL0     C72507   8.084   3.235   9.531  0.2372  0.5407  0.8495
  550MOL0     C72508   8.193   3.147   9.461  0.2840  0.4594  0.0969
  550MOL0     C72509   8.327   3.180   9.521  0.2211 -1.6950  0.1778
  550MOL0     C72510   8.389   3.327   9.485  1.0498 -0.5717  0.2639
  550MOL0     C72511   8.535   3.347   9.511  0.5577  0.2837 -0.2211
  550MOL0    Cl72512   8.568   3.266   9.663  0.1606 -0.3877 -0.0363
  550MOL0     C72513   7.478   3.338   9.301  0.5631  0.0439  0.7266
  550MOL0     C72514   7.361   3.333   9.229 -0.0074 -0.1495 -0.2852
  550MOL0     O72515   7.137   3.042   9.252  0.2573  0.3409 -0.1491
  550MOL0     C72516   6.858   3.024   9.205 -0.3245 -0.6331  0.0391
  550MOL0     C72517   6.736   3.015   9.155 -0.5018 -0.6686 -0.8457
  550MOL0     N72518   6.219   3.011   9.485  0.0251 -0.2550  0.2844
  550MOL0     N72519   6.167   3.009   9.607  0.3387  0.3605 -0.1912
  550MOL0     C72520   5.795   3.667  10.788 -0.1854  0.8033 -0.1974
  550MOL0     C72521   5.806   3.757  10.895  0.4104 -0.8462  0.3948
  550MOL0     C72522   5.952   3.932  11.272  0.7084  0.0517  0.3421
  550MOL0     C72523   5.930   4.076  11.266 -0.6074 -0.4786  0.0415
  550MOL0     C72524   5.940   4.163  11.378 -0.3789 -0.2912  0.3842
  550MOL0     C72525   5.975   4.109  11.500  0.5950  0.1534 -0.3413
  550MOL0     O72526   5.979   4.192  11.605 -0.2121 -0.2797 -0.6475
  550MOL0     C72527   6.043   4.157  11.732 -0.8118  0.1292 -0.0298
  550MOL0     C72528   6.185   4.210  11.729 -0.1500  0.2722  0.2345
  550MOL0     C72529   6.256   4.172  11.868 -0.0101 -0.3399  0.0246
  550MOL0     C72530   6.200   4.214  11.997  0.2020 -0.7673  0.4032
  550MOL0     C72531   6.202   4.356  12.022 -0.6031 -0.3531 -0.0700
  550MOL0     C72532   6.194   4.463  12.079 -0.5353  0.3471 -0.0606
  550MOL0     C72533   6.005   3.970  11.510 -0.3730  0.5686 -0.7468
  550MOL0     C72534   5.991   3.884  11.401 -0.8235 -0.0824  0.4128
  550MOL0     H72535   6.132   3.820  10.909  0.4964  3.0883 -3.0122
  550MOL0     H72536   6.124   3.654  10.719  0.4831  0.8277  1.9789
  550MOL0     H72537   6.093   3.516  10.524  0.6777  0.5618  1.1888
  550MOL0     H72538   6.013   3.663  10.494 -3.9524  0.9403 -0.6266
  550MOL0     H72539   5.829   3.503  10.371 -0.6013 -0.9367 -0.6595
  550MOL0     H72540   5.931   3.372  10.431  1.5443 -0.1679 -1.4486
  550MOL0     H72541   6.105   3.432  10.276 -0.6116  0.7119  0.1479
  550MOL0     H72542   6.038   3.595  10.261 -0.3510  0.4967  2.0299
  550MOL0     H72543   5.926   3.323  10.177 -2.1410 -0.5305  1.1202
  550MOL0     H72544   5.856   3.471  10.115  0.1827 -0.9848  1.5756
  550MOL0     H72545   6.134   3.372  10.051 -0.7124 -1.2490  2.5869
  550MOL0     H72546   6.051   3.501   9.959 -1.9170 -0.4293 -1.9772
  550MOL0     H72547   5.871   3.335   9.882 -0.8375 -1.6677 -0.5689
  550MOL0     H72548   5.959   3.212   9.979  0.7830  1.0834  2.1909
  550MOL0     H72549   6.059   3.344   9.722 -4.8036  0.7702 -0.6640
  550MOL0     H72550   6.147   3.241   9.834  0.5678  1.4237 -0.7638
  550MOL0     H72551   5.885   3.143   9.695  0.1730 -1.1114 -1.6566
  550MOL0     H72552   5.981   3.047   9.796  2.8153 -0.3520 -0.3804
  550MOL0     H72553   5.963   3.204   9.447  0.4740 -0.2951 -2.6241
  550MOL0     H72554   6.127   3.232   9.242 -0.2850  0.0637  2.1755
  550MOL0     H72555   6.146   3.072   9.181  0.1089 -1.2190  0.6082
  550MOL0     H72556   6.373   3.202   9.341  0.4896  0.1332 -0.1510
  550MOL0     H72557   6.331   3.241   9.174 -2.8337  2.6937  2.4884
  550MOL0     H72558   6.464   3.009   9.290 -0.5981 -1.4505 -0.1366
  550MOL0     H72559   6.311   2.947   9.208 -0.0262 -0.4350  2.5318
  550MOL0     H72560   6.380   3.031   9.004 -0.4180  1.3280  0.9978
  550MOL0     H72561   6.503   2.923   9.078  3.0378  1.2385  3.5655
  550MOL0     H72562   6.677   3.322   9.066  2.0247  1.7420 -0.2821
  550MOL0     H72563   6.898   3.362   9.156 -1.3921  0.3815 -0.0581
  550MOL0     H72564   7.162   3.234   9.483  0.7819 -1.4910  1.0483
  550MOL0     H72565   7.347   3.284   9.611 -3.7071 -2.8568 -1.3833
  550MOL0     H72566   7.764   3.373   9.363  2.6395  0.7348  1.1589
  550MOL0     H72567   7.715   3.211   9.367 -3.1625 -0.0131  0.4973
  550MOL0     H72568   7.823   3.213   9.594  1.9192  1.0093  1.5622
  550MOL0     H72569   7.866   3.379   9.584  0.2842  0.3758 -0.4640
  550MOL0     H72570   7.986   3.320   9.367 -0.9686  2.0132  0.8090
  550MOL0     H72571   7.941   3.153   9.398  1.3268 -0.4252  1.7531
  550MOL0     H72572   8.115   3.337   9.555  3.0530  0.4652 -1.8773
  550MOL0     H72573   8.052   3.184   9.622  0.0397  2.0260  1.6538
  550MOL0     H72574   8.189   3.196   9.363 -0.6569 -0.2926 -0.2561
  550MOL0     H72575   8.167   3.043   9.444 -3.2396  1.1343  0.5705
  550MOL0     H72576   8.398   3.109   9.477  2.9342  1.6723 -1.3514
  550MOL0     H72577   8.334   3.178   9.630  0.6645 -0.6221  0.1818
  550MOL0     H72578   8.360   3.354   9.383  0.9908 -2.1145 -0.1591
  550MOL0     H72579   8.343   3.395   9.557  0.4133 -0.7694  0.0537
  550MOL0     H72580   8.579   3.447   9.518  1.5902 -0.1763  0.0155
  550MOL0     H72581   8.591   3.296   9.431  5.4004 -2.2812  4.2101
  550MOL0     H72582   7.564   3.383   9.253  0.2898  0.3003  0.4738
  550MOL0     H72583   7.345   3.355   9.124 -0.2573 -1.8512 -0.6348
  550MOL0     H72584   6.901   2.930   9.238 -2.6183 -3.3016 -3.7863
  550MOL0     H72585   6.682   2.921   9.151 -2.4166  0.4048 -1.5585
  550MOL0     H72586   5.698   3.625  10.765 -0.3750  0.0347  1.7553
  550MOL0     H72587   5.720   3.800  10.947 -0.8557  0.1639 -2.3472
  550MOL0     H72588   5.913   4.121  11.169  2.0717  1.4401  0.3795
  550MOL0     H72589   5.929   4.270  11.363 -2.3535 -0.7141 -1.9021
  550MOL0     H72590   6.029   4.053  11.762 -3.7712  0.1493 -1.0577
  550MOL0     H72591   6.008   4.218  11.815  0.9926  0.2197  0.7028
  550MOL0     H72592   6.238   4.168  11.644 -0.7147 -0.1712  0.0913
  550MOL0     H72593   6.179   4.319  11.718 -1.4990  0.6230  3.3310
  550MOL0     H72594   6.364   4.191  11.872 -0.1197  0.2381  0.3800
  550MOL0     H72595   6.258   4.065  11.885  0.6788 -0.1859  0.9772
  550MOL0     H72596   6.103   4.165  12.003  0.6426 -2.1260 -2.0437
  550MOL0     H72597   6.261   4.171  12.077  0.0036 -0.7756  0.5497
  550MOL0     H72598   6.206   4.552  12.138  2.0308  0.2481 -0.3131
  550MOL0     H72599   6.039   3.931  11.605  0.9780 -1.7420 -2.0813
  550MOL0     H72600   6.019   3.780  11.411  1.0901  0.2863 -0.6204
  551MOL0     O72601   5.614   9.726  10.009 -0.2847 -0.4021 -0.1552
  551MOL0     C72602   5.598   9.717   9.886  0.2160 -0.0267 -0.9184
  551MOL0     O72603   5.662   9.779   9.795 -0.7592  0.3087 -0.2006
  551MOL0     C72604   5.793   9.816   9.801  0.3799 -0.6333  0.1466
  551MOL0     C72605   5.837   9.867   9.684  0.3974  0.3280  0.4125
  551MOL0     C72606   5.962   9.930   9.673  0.2566  0.1768 -0.0715
  551MOL0     C72607   6.047   9.954   9.780  0.4855  1.3784  0.2762
  551MOL0     O72608   6.167  10.015   9.782  0.3411 -0.1008  0.1566
  551MOL0     C72609   6.215  10.063   9.665  0.7162 -0.1349  0.3288
  551MOL0     C72610   6.352  10.124   9.685 -1.2332  0.1508  1.0769
  551MOL0     C72611   6.437  10.133   9.562  0.1945  0.2352  0.2217
  551MOL0     C72612   6.390  10.216   9.432 -0.3912 -0.0554 -0.1405
  551MOL0     C72613   6.331  10.356   9.472  0.7453 -0.7615  1.1558
  551MOL0     C72614   6.319  10.441   9.347  0.4535  0.6211  0.3413
  551MOL0     C72615   6.207  10.394   9.254 -0.4181 -0.7520  0.4118
  551MOL0     C72616   6.204  10.479   9.121  0.2701 -0.5695  0.8479
  551MOL0     N72617   6.097  10.424   9.026  0.6128  0.2842 -0.0072
  551MOL0     C72618   5.974  10.362   9.051  0.2490  0.1267 -1.1331
  551MOL0     C72619   5.921  10.327   8.931  0.3210  0.1372  0.4901
  551MOL0     C72620   5.789  10.266   8.899 -0.0340  0.4421  0.1056
  551MOL0     C72621   5.703  10.364   8.819  0.0989  0.6550  0.5251
  551MOL0     C72622   5.682  10.501   8.883  0.4695 -0.2392 -0.4169
  551MOL0     C72623   5.567  10.584   8.820 -0.0789  0.1682 -0.3410
  551MOL0     O72624   5.607  10.622   8.686 -0.6488 -0.0547 -0.1457
  551MOL0     C72625   5.507  10.635   8.590 -0.8145 -1.0719 -0.5448
  551MOL0     C72626   5.360  10.647   8.616 -0.2681  0.4569 -0.2375
  551MOL0     C72627   5.273  10.680   8.509  0.0676  1.0190  0.2480
  551MOL0     C72628   5.329  10.679   8.378  0.9264 -1.2905 -0.1682
  551MOL0     C72629   5.230  10.681   8.272  0.5136 -0.8138  0.5949
  551MOL0     O72630   5.105  10.720   8.304 -0.1115 -0.3320  0.0644
  551MOL0     C72631   5.010  10.766   8.216  0.3843  0.5746 -0.3389
  551MOL0     C72632   4.988  10.732   8.078 -0.0895  0.2233  0.5900
  551MOL0     C72633   4.887  10.788   8.001  1.2851  0.2660 -0.0327
  551MOL0     C72634   4.797  10.878   8.058 -0.4412 -0.8624  0.1015
  551MOL0     O72635   4.705  10.925   7.965  0.0761 -0.4999 -0.4474
  551MOL0     C72636   4.617  10.821   7.921 -0.2093 -0.9735 -0.2746
  551MOL0     C72637   4.480  10.879   7.870 -1.2225 -0.4297  0.5284
  551MOL0     C72638   4.378  10.768   7.850 -0.7820  0.9092 -0.0749
  551MOL0     C72639   4.241  10.836   7.840 -0.9118 -0.4096  0.0790
  551MOL0     C72640   4.133  10.739   7.794  0.1294 -1.0073  0.2289
  551MOL0     C72641   4.122  10.623   7.887  0.5070 -0.4004  0.4004
  551MOL0     C72642   3.991  10.538   7.862  0.8749  1.7480  0.3273
  551MOL0     C72643   3.954  10.454   7.986 -0.2987  0.1679  0.0211
  551MOL0    Cl72644   3.955  10.533   8.146 -0.1266  0.2908 -0.9521
  551MOL0     C72645   4.816  10.912   8.189  0.0932  0.6451 -0.5053
  551MOL0     C72646   4.915  10.855   8.273 -0.5200 -0.5144  0.3383
  551MOL0     O72647   5.279  10.657   8.160  0.5163  0.2475 -0.0697
  551MOL0     C72648   5.464  10.671   8.360 -0.4551 -0.1961 -0.4540
  551MOL0     C72649   5.554  10.653   8.465  0.5664 -0.6577 -0.2305
  551MOL0     N72650   6.015  10.352   8.835  0.1980  0.1509  0.0438
  551MOL0     N72651   6.121  10.409   8.889 -0.1050 -0.2228 -0.2491
  551MOL0     C72652   5.994   9.907   9.899 -0.1238  0.2764  0.1896
  551MOL0     C72653   5.872   9.837   9.912 -0.8266 -0.0920  0.0004
  551MOL0     C72654   5.481   9.635   9.848  0.3742  0.7818 -0.0906
  551MOL0     C72655   5.472   9.585   9.720  0.0924  0.1821 -0.6190
  551MOL0     C72656   5.375   9.497   9.684 -0.1141  0.3701 -0.0963
  551MOL0     C72657   5.286   9.439   9.775 -0.4203  0.1500 -0.4977
  551MOL0     O72658   5.214   9.334   9.722  0.1175  0.1112 -1.1502
  551MOL0     C72659   5.180   9.228   9.815  0.4920  0.0491  0.1159
  551MOL0     C72660   5.096   9.127   9.733  1.1236  0.2510 -0.9592
  551MOL0     C72661   5.159   9.069   9.607 -0.7489 -0.2928  0.4982
  551MOL0     C72662   5.291   8.990   9.624  0.5610 -1.0229 -0.5568
  551MOL0     C72663   5.288   8.872   9.712 -0.0791 -0.8076 -0.2591
  551MOL0     C72664   5.279   8.780   9.786 -0.1937 -0.6293 -0.6652
  551MOL0     C72665   5.295   9.487   9.913 -0.1540 -0.5547 -0.2102
  551MOL0     C72666   5.396   9.583   9.947 -0.5184 -0.6833  0.5985
  551MOL0     H72667   5.786   9.861   9.588  2.7493 -1.1520 -0.8456
  551MOL0     H72668   5.995   9.972   9.578  3.8444 -1.5603  0.2461
  551MOL0     H72669   6.143  10.128   9.614  0.2906 -1.6999 -1.1180
  551MOL0     H72670   6.221   9.978   9.597  1.5312 -0.6508  1.0164
  551MOL0     H72671   6.410  10.058   9.750 -0.9356  0.0801  0.7407
  551MOL0     H72672   6.346  10.218   9.739  3.0595  0.1266  1.9030
  551MOL0     H72673   6.456  10.035   9.517  1.1945  0.1115  0.8704
  551MOL0     H72674   6.538  10.170   9.582  0.4152 -1.0775  1.8358
  551MOL0     H72675   6.476  10.222   9.364  0.6573 -0.8066  1.0738
  551MOL0     H72676   6.309  10.164   9.382 -0.0489  0.3314 -1.1255
  551MOL0     H72677   6.401  10.412   9.536  2.0952  1.3407 -1.9114
  551MOL0     H72678   6.228  10.348   9.507 -0.0225  0.7501 -0.6015
  551MOL0     H72679   6.415  10.430   9.297  0.2111 -1.2699  0.2248
  551MOL0     H72680   6.303  10.547   9.369 -3.5133  1.0766 -3.3664
  551MOL0     H72681   6.230  10.296   9.212  1.5663  0.7039 -2.1836
  551MOL0     H72682   6.110  10.393   9.305 -1.5631 -2.7563 -1.5855
  551MOL0     H72683   6.298  10.477   9.065 -0.6431 -2.5247 -0.6916
  551MOL0     H72684   6.177  10.584   9.139  2.4682  0.0820  0.6887
  551MOL0     H72685   5.933  10.363   9.151  0.1325 -0.3671 -1.1699
  551MOL0     H72686   5.744  10.226   8.991 -0.7920  0.6247 -0.1864
  551MOL0     H72687   5.803  10.178   8.836 -2.4888  0.0800 -0.0381
  551MOL0     H72688   5.607  10.318   8.796  0.7741 -0.5422 -0.0266
  551MOL0     H72689   5.746  10.377   8.719  3.4277  0.8873  1.8442
  551MOL0     H72690   5.650  10.481   8.986  0.3980  1.2289 -0.1318
  551MOL0     H72691   5.775  10.558   8.885  0.4791 -0.1390  3.1189
  551MOL0     H72692   5.540  10.669   8.883 -0.8779 -0.3123 -0.0162
  551MOL0     H72693   5.485  10.512   8.811  2.0734 -2.3018 -1.4785
  551MOL0     H72694   5.306  10.643   8.710 -0.7528 -0.1157 -0.5376
  551MOL0     H72695   5.166  10.696   8.524  0.4303  2.4263  1.6096
  551MOL0     H72696   5.056  10.671   8.018  0.3725  2.8972 -1.8225
  551MOL0     H72697   4.880  10.765   7.895 -1.9274  0.0630  0.1360
  551MOL0     H72698   4.591  10.750   8.000 -0.8973  0.7949  1.1463
  551MOL0     H72699   4.668  10.769   7.839  2.1209 -1.7823  1.5637
  551MOL0     H72700   4.500  10.937   7.780  1.6799 -0.2329  1.2052
  551MOL0     H72701   4.445  10.944   7.951  0.3385  1.2344 -0.0683
  551MOL0     H72702   4.369  10.702   7.937  0.4694 -0.5621 -1.0039
  551MOL0     H72703   4.402  10.711   7.760  0.7083  1.2754  0.0590
  551MOL0     H72704   4.213  10.876   7.938 -0.2688 -1.7575  0.8503
  551MOL0     H72705   4.241  10.920   7.770  0.8594 -0.5539 -0.1488
  551MOL0     H72706   4.163  10.698   7.698  2.0036 -0.0036  0.3308
  551MOL0     H72707   4.040  10.797   7.787  0.7389  0.1570  1.1963
  551MOL0     H72708   4.110  10.667   7.986  1.1562 -2.9161  1.6901
  551MOL0     H72709   4.215  10.567   7.871  0.2324 -0.6092 -0.5785
  551MOL0     H72710   3.902  10.598   7.841 -0.9039 -1.2959 -1.4818
  551MOL0     H72711   3.997  10.474   7.774  0.6222  2.4289 -0.1965
  551MOL0     H72712   4.021  10.369   8.002  1.3393  1.7302  1.9352
  551MOL0     H72713   3.852  10.417   7.968  1.0127 -4.4075  0.6740
  551MOL0     H72714   4.743  10.982   8.229  3.1015  2.7929  1.6644
  551MOL0     H72715   4.903  10.883   8.377 -3.0644  1.4295 -0.3851
  551MOL0     H72716   5.517  10.685   8.266  0.2668  3.1194  0.3071
  551MOL0     H72717   5.659  10.657   8.439  1.4621 -2.1709  2.7729
  551MOL0     H72718   6.051   9.923   9.990 -1.8955  1.5070  1.1419
  551MOL0     H72719   5.839   9.790  10.004 -2.2128  0.1287 -0.3710
  551MOL0     H72720   5.539   9.628   9.647  0.5628  1.7338  0.6724
  551MOL0     H72721   5.361   9.474   9.579  2.5360  3.0422 -1.1845
  551MOL0     H72722   5.114   9.260   9.896  0.2724 -0.6507  0.2200
  551MOL0     H72723   5.274   9.176   9.836  0.6758  0.8409  1.3109
  551MOL0     H72724   5.053   9.049   9.795 -2.6261  2.0108 -1.0173
  551MOL0     H72725   5.007   9.184   9.703  1.9345  0.7188 -2.6422
  551MOL0     H72726   5.183   9.147   9.534  0.5474  0.2973  1.5065
  551MOL0     H72727   5.081   9.015   9.552  0.5709 -1.7610  0.0201
  551MOL0     H72728   5.317   8.957   9.523 -0.2639  0.6173 -1.3331
  551MOL0     H72729   5.367   9.057   9.664 -1.2457  1.2759 -0.7408
  551MOL0     H72730   5.260   8.700   9.854 -1.6002 -1.3430 -1.8433
  551MOL0     H72731   5.229   9.455   9.993 -0.8975 -0.0928 -0.6209
  551MOL0     H72732   5.400   9.625  10.047 -3.1662 -2.3768  1.5213
  552MOL0     O72733   8.696   5.110   4.058  0.6698 -0.0946 -0.4338
  552MOL0     C72734   8.582   5.158   4.056 -0.4935 -0.8676  0.1914
  552MOL0     O72735   8.544   5.280   4.098  0.5839  0.4714 -0.2488
  552MOL0     C72736   8.622   5.376   4.141  0.0222  0.0338  0.4935
  552MOL0     C72737   8.585   5.447   4.256  0.3777  0.3635  0.1285
  552MOL0     C72738   8.654   5.569   4.284  0.0950 -1.0384  0.1827
  552MOL0     C72739   8.782   5.601   4.228 -0.1448 -0.1539  0.0282
  552MOL0     O72740   8.867   5.705   4.271 -0.5083 -0.5548  0.7942
  552MOL0     C72741   8.802   5.819   4.329 -0.6056 -0.3474  0.9450
  552MOL0     C72742   8.827   5.829   4.475 -0.3259 -0.4922 -0.6312
  552MOL0     C72743   8.756   5.936   4.556 -0.2581  0.4407 -0.2191
  552MOL0     C72744   8.755   6.071   4.490  0.1254  0.0654  0.3873
  552MOL0     C72745   8.731   6.190   4.587  0.3270 -0.7530 -0.0275
  552MOL0     C72746   8.592   6.203   4.636 -0.7795 -0.2455 -0.5676
  552MOL0     C72747   8.583   6.311   4.743  0.8984 -0.0045 -0.0431
  552MOL0     C72748   8.438   6.355   4.786 -0.2078  0.1240 -0.0650
  552MOL0     N72749   8.345   6.370   4.673 -0.8566 -0.0638 -0.5745
  552MOL0     C72750   8.358   6.455   4.571 -0.5200  0.7908  0.1690
  552MOL0     C72751   8.242   6.431   4.495 -0.0112 -0.7108  0.6476
  552MOL0     C72752   8.209   6.520   4.378 -0.8341  0.5124 -0.4614
  552MOL0     C72753   8.189   6.433   4.251 -0.7529  0.2233  0.1405
  552MOL0     C72754   8.154   6.521   4.131 -0.4580 -0.7321  0.3604
  552MOL0     C72755   8.145   6.438   3.996  0.1608 -0.1419  0.3406
  552MOL0     O72756   8.282   6.401   3.965 -0.1871 -0.0021 -0.1581
  552MOL0     C72757   8.332   6.457   3.851  0.4586  0.4970 -0.6520
  552MOL0     C72758   8.398   6.581   3.868  0.6528 -0.2754 -0.0607
  552MOL0     C72759   8.471   6.644   3.768  0.4739 -0.2314  0.1724
  552MOL0     C72760   8.464   6.591   3.638 -1.0268  0.0235 -0.9004
  552MOL0     C72761   8.540   6.662   3.531  0.1544  0.8820 -0.8013
  552MOL0     O72762   8.542   6.600   3.407  0.7281 -0.4345 -0.1726
  552MOL0     C72763   8.605   6.664   3.304  0.2652  0.7483  0.3674
  552MOL0     C72764   8.594   6.800   3.270  0.7343  0.3440 -0.0014
  552MOL0     C72765   8.668   6.852   3.162  0.6938  0.3199  0.9245
  552MOL0     C72766   8.762   6.772   3.091  0.3727 -0.3997 -0.6057
  552MOL0     O72767   8.832   6.835   2.989 -0.4480 -0.1117  0.2506
  552MOL0     C72768   8.899   6.765   2.884  0.4215  0.0648  0.4160
  552MOL0     C72769   8.826   6.770   2.748  0.1280 -0.3988 -1.1492
  552MOL0     C72770   8.767   6.630   2.722 -0.2316 -0.2891  1.2584
  552MOL0     C72771   8.697   6.606   2.583  1.2303 -0.5665 -0.1457
  552MOL0     C72772   8.576   6.697   2.576 -0.3545 -0.3657 -0.1848
  552MOL0     C72773   8.518   6.689   2.430 -0.0592 -0.7499 -0.3909
  552MOL0     C72774   8.584   6.781   2.332 -0.2380  0.6144 -0.2611
  552MOL0     C72775   8.500   6.798   2.207 -0.9102  0.2518 -0.0233
  552MOL0    Cl72776   8.488   6.651   2.116  0.5646 -0.2399  0.4716
  552MOL0     C72777   8.775   6.638   3.131  0.2858 -0.1194  0.0080
  552MOL0     C72778   8.697   6.589   3.235 -0.1238  0.6347  0.9014
  552MOL0     O72779   8.607   6.756   3.568 -0.1622  0.8582 -0.1587
  552MOL0     C72780   8.390   6.476   3.621 -0.3427  1.0197 -0.4404
  552MOL0     C72781   8.338   6.402   3.718 -0.0777  1.1363 -0.3073
  552MOL0     N72782   8.171   6.329   4.546  0.0766 -0.4597 -0.7118
  552MOL0     N72783   8.240   6.291   4.655 -0.6372  0.3890 -0.0876
  552MOL0     C72784   8.824   5.515   4.127  0.6563  0.0927  0.0622
  552MOL0     C72785   8.749   5.409   4.083  0.8252  1.2172  0.4965
  552MOL0     C72786   8.479   5.072   4.018  0.6834 -0.8769  0.7893
  552MOL0     C72787   8.489   4.932   4.018  0.3693 -0.6031 -0.2128
  552MOL0     C72788   8.371   4.854   3.985 -0.8579 -0.1592 -0.1565
  552MOL0     C72789   8.254   4.920   3.934 -2.1025  0.9855  0.6831
  552MOL0     O72790   8.152   4.842   3.890  0.2650 -0.7549 -0.0961
  552MOL0     C72791   8.028   4.871   3.952  0.5243  0.8082 -0.5658
  552MOL0     C72792   7.965   4.744   4.009  0.5914 -0.3181  0.4641
  552MOL0     C72793   7.944   4.655   3.884  0.2397 -0.1043  0.0703
  552MOL0     C72794   7.842   4.545   3.924  0.5138  0.3606  0.1366
  552MOL0     C72795   7.834   4.423   3.836  0.4644  0.2068  1.1208
  552MOL0     C72796   7.808   4.324   3.773  0.5144  0.4741  0.6951
  552MOL0     C72797   8.262   5.058   3.905  0.2489  0.0551 -0.0772
  552MOL0     C72798   8.363   5.128   3.958 -0.2438 -0.5878  0.4262
  552MOL0     H72799   8.495   5.412   4.305 -0.1562  2.9071  1.1248
  552MOL0     H72800   8.611   5.642   4.351  0.8171  2.5338 -2.9231
  552MOL0     H72801   8.692   5.820   4.321 -0.6442 -2.0083  0.7731
  552MOL0     H72802   8.842   5.905   4.276 -0.4705 -0.9677  0.0126
  552MOL0     H72803   8.934   5.846   4.493 -0.9289  1.0483  2.0699
  552MOL0     H72804   8.820   5.727   4.516  3.7524 -0.1730  1.3483
  552MOL0     H72805   8.804   5.949   4.654  0.5242 -1.4760 -0.2989
  552MOL0     H72806   8.653   5.903   4.567 -0.5427  0.7737 -1.6511
  552MOL0     H72807   8.843   6.089   4.428 -0.5553  1.0050 -0.3314
  552MOL0     H72808   8.663   6.068   4.431  0.1269  1.3172  0.3010
  552MOL0     H72809   8.766   6.286   4.551  0.3367  0.4082  2.8021
  552MOL0     H72810   8.791   6.173   4.677 -0.2998  0.6098  0.6742
  552MOL0     H72811   8.555   6.107   4.671  1.4107 -1.9763 -2.6237
  552MOL0     H72812   8.542   6.224   4.541  0.8999  0.0177 -1.4361
  552MOL0     H72813   8.630   6.271   4.833 -1.3721 -0.2649  1.0954
  552MOL0     H72814   8.642   6.395   4.705  0.6397 -0.5950 -1.8228
  552MOL0     H72815   8.433   6.447   4.845  2.8644 -0.3825  1.1321
  552MOL0     H72816   8.400   6.284   4.860  1.7053  2.3519  3.3510
  552MOL0     H72817   8.442   6.521   4.549  0.4198  0.1585  1.6827
  552MOL0     H72818   8.296   6.586   4.370 -1.7773  1.6334 -1.9252
  552MOL0     H72819   8.122   6.584   4.395 -0.5069  1.1211 -1.0269
  552MOL0     H72820   8.109   6.360   4.267 -2.3324  1.6446 -0.9686
  552MOL0     H72821   8.289   6.389   4.241 -1.3108 -1.6435  1.9753
  552MOL0     H72822   8.066   6.583   4.149  2.0697  2.5935  2.5240
  552MOL0     H72823   8.227   6.602   4.118 -0.4089 -0.8245  0.0446
  552MOL0     H72824   8.093   6.496   3.919 -1.2510 -0.2599  1.1608
  552MOL0     H72825   8.081   6.350   4.009 -2.9394  2.0469  0.8795
  552MOL0     H72826   8.395   6.618   3.970  2.3742 -2.9243  1.0524
  552MOL0     H72827   8.519   6.740   3.780 -2.4150  1.0678  2.6006
  552MOL0     H72828   8.533   6.870   3.325  0.0223  1.0619 -1.6227
  552MOL0     H72829   8.655   6.956   3.135 -3.1205 -0.4800 -1.0279
  552MOL0     H72830   8.915   6.661   2.915 -0.0606 -0.6506 -1.5500
  552MOL0     H72831   9.000   6.796   2.856 -0.5736  1.0199 -2.5412
  552MOL0     H72832   8.895   6.812   2.673 -0.3357  2.0491 -0.3094
  552MOL0     H72833   8.746   6.844   2.737  2.0690  1.8862 -0.8875
  552MOL0     H72834   8.690   6.602   2.795 -3.0339  0.0192 -1.4046
  552MOL0     H72835   8.849   6.557   2.727 -0.8812 -1.2453 -0.9004
  552MOL0     H72836   8.765   6.631   2.500  2.0173 -2.0987 -0.0048
  552MOL0     H72837   8.659   6.505   2.566 -1.9144  0.6936 -1.2409
  552MOL0     H72838   8.598   6.801   2.602 -0.4151 -0.7067  1.3020
  552MOL0     H72839   8.505   6.653   2.647  2.7027 -1.4790  2.4446
  552MOL0     H72840   8.410   6.704   2.431  0.1756  2.0273  2.4001
  552MOL0     H72841   8.543   6.592   2.387  0.4597 -0.1530 -1.4939
  552MOL0     H72842   8.606   6.874   2.386  1.5990 -0.0631  0.2535
  552MOL0     H72843   8.679   6.732   2.309  0.2429  0.4698  1.8259
  552MOL0     H72844   8.562   6.867   2.149  0.4788  0.5761  1.7636
  552MOL0     H72845   8.399   6.838   2.222 -3.6989 -4.3761 -3.9558
  552MOL0     H72846   8.854   6.578   3.085 -2.4437 -3.2348 -1.0202
  552MOL0     H72847   8.701   6.486   3.271 -0.3308 -0.6548 -2.4413
  552MOL0     H72848   8.381   6.420   3.528  0.5235  1.1059 -0.5837
  552MOL0     H72849   8.292   6.309   3.685 -0.0350  1.2713 -0.7481
  552MOL0     H72850   8.920   5.553   4.092  0.1771  2.0084  0.7348
  552MOL0     H72851   8.790   5.352   4.000  0.2519  0.6033  0.6292
  552MOL0     H72852   8.575   4.878   4.056  2.4380  1.7780 -1.2017
  552MOL0     H72853   8.369   4.747   3.998 -2.9003  0.1868  3.9153
  552MOL0     H72854   7.959   4.928   3.889  0.2761  1.5849  0.3806
  552MOL0     H72855   8.038   4.942   4.035 -0.4114 -1.8712  2.0433
  552MOL0     H72856   8.023   4.682   4.079 -1.3570 -2.4752  0.3068
  552MOL0     H72857   7.879   4.777   4.068  0.0905  1.0834 -0.9674
  552MOL0     H72858   8.041   4.611   3.860  0.1659  0.0637 -0.5434
  552MOL0     H72859   7.906   4.716   3.802 -0.0211  1.6084  1.4019
  552MOL0     H72860   7.873   4.507   4.022  1.5482 -1.1367 -0.7179
  552MOL0     H72861   7.739   4.581   3.936  1.1124  1.6419  1.7577
  552MOL0     H72862   7.779   4.244   3.708  4.1546  0.2618 -0.9155
  552MOL0     H72863   8.190   5.105   3.838 -0.3085 -2.2413 -1.2116
  552MOL0     H72864   8.354   5.235   3.943 -0.7175 -0.8381 -1.2797
  553MOL0     O72865   1.041   4.012   3.538  0.2086  0.3976  0.1992
  553MOL0     C72866   1.107   3.923   3.490  0.6281 -0.4950 -0.4273
  553MOL0     O72867   1.081   3.789   3.512 -0.2309  0.6799  0.4674
  553MOL0     C72868   0.952   3.745   3.551  0.3588 -1.2143  0.3485
  553MOL0     C72869   0.934   3.677   3.672 -0.8947 -0.8084  0.2276
  553MOL0     C72870   0.808   3.629   3.713 -0.0937  1.1015 -0.5557
  553MOL0     C72871   0.695   3.661   3.644  0.8176 -0.0492  0.6661
  553MOL0     O72872   0.585   3.606   3.701  0.5277  0.4437  0.7526
  553MOL0     C72873   0.468   3.593   3.619  0.3216 -0.7526 -0.6538
  553MOL0     C72874   0.482   3.501   3.506 -0.0456 -0.1131 -0.0841
  553MOL0     C72875   0.347   3.461   3.437 -0.5312  0.2874 -1.0665
  553MOL0     C72876   0.373   3.389   3.307 -1.1600 -0.4524  0.2842
  553MOL0     C72877   0.265   3.431   3.205  0.2334 -0.5018 -1.0145
  553MOL0     C72878   0.315   3.392   3.066 -1.2375 -0.3192  0.4658
  553MOL0     C72879   0.209   3.441   2.957  0.0717 -0.5224 -0.2682
  553MOL0     C72880   0.257   3.418   2.817  0.5431  0.7518  1.2528
  553MOL0     N72881   0.394   3.464   2.780 -0.3841  0.0746 -0.6132
  553MOL0     C72882   0.451   3.589   2.804 -0.4080  0.3908  0.0395
  553MOL0     C72883   0.580   3.571   2.754  0.9925  0.1601  0.6585
  553MOL0     C72884   0.692   3.674   2.754  0.4440 -0.4199  0.0744
  553MOL0     C72885   0.831   3.616   2.731 -0.7452 -0.7794 -0.0942
  553MOL0     C72886   0.925   3.716   2.673 -0.2327  0.0164  0.4132
  553MOL0     C72887   1.051   3.641   2.615  0.7183 -0.7626 -0.4122
  553MOL0     O72888   1.022   3.577   2.492  0.3447  0.1384  0.0941
  553MOL0     C72889   1.125   3.538   2.406 -0.0161 -0.3083  1.1123
  553MOL0     C72890   1.249   3.602   2.399  0.0156 -0.3170 -0.0348
  553MOL0     C72891   1.349   3.533   2.335  1.0489  0.2184  0.5834
  553MOL0     C72892   1.319   3.436   2.231 -0.0937  0.2355 -0.3836
  553MOL0     C72893   1.433   3.387   2.148 -0.7949  0.0047  0.7353
  553MOL0     O72894   1.411   3.288   2.066  0.4251 -0.6215  0.0429
  553MOL0     C72895   1.513   3.240   1.987  0.3914 -0.2355  0.5346
  553MOL0     C72896   1.630   3.183   2.037 -0.4136  0.6196 -0.3745
  553MOL0     C72897   1.716   3.127   1.942  0.4179  0.0759  0.9147
  553MOL0     C72898   1.699   3.141   1.800 -0.6732 -0.0861  0.2228
  553MOL0     O72899   1.785   3.102   1.697 -0.2636  0.7647  0.3959
  553MOL0     C72900   1.907   3.032   1.735 -0.4544  0.1705 -0.0936
  553MOL0     C72901   1.881   2.882   1.782  0.3561 -0.0664 -0.2519
  553MOL0     C72902   1.801   2.808   1.677 -0.1488  0.5657  1.1126
  553MOL0     C72903   1.780   2.657   1.703  0.5238  0.6587  0.4218
  553MOL0     C72904   1.692   2.591   1.593  0.1178  0.6537 -0.7102
  553MOL0     C72905   1.638   2.459   1.646 -0.2369 -1.5657 -1.0362
  553MOL0     C72906   1.518   2.415   1.560  0.6574 -0.0050  0.4917
  553MOL0     C72907   1.500   2.272   1.541 -0.3196  0.9815  1.2204
  553MOL0    Cl72908   1.622   2.189   1.445 -0.4732  0.0151 -0.3805
  553MOL0     C72909   1.591   3.218   1.755  0.5169  0.3224  0.6372
  553MOL0     C72910   1.494   3.265   1.848 -0.2593  0.1948 -0.1635
  553MOL0     O72911   1.548   3.449   2.156 -0.8086 -0.6032 -0.0982
  553MOL0     C72912   1.183   3.375   2.237  0.0137  1.0805 -1.0799
  553MOL0     C72913   1.094   3.429   2.328  0.8306  0.2191 -0.5714
  553MOL0     N72914   0.584   3.443   2.701 -1.1214  0.7450 -0.1814
  553MOL0     N72915   0.481   3.373   2.739  0.1179  0.5158 -1.2330
  553MOL0     C72916   0.712   3.733   3.519 -0.1238  0.3290  0.1239
  553MOL0     C72917   0.834   3.772   3.474  0.1479  0.9254 -0.2838
  553MOL0     C72918   1.224   3.953   3.408 -1.0302 -0.2663  0.1300
  553MOL0     C72919   1.238   4.084   3.358  0.2931  0.9776  0.1392
  553MOL0     C72920   1.355   4.120   3.293 -0.1264  1.5219 -0.0071
  553MOL0     C72921   1.463   4.034   3.275  0.4234  0.0185 -0.1073
  553MOL0     O72922   1.576   4.096   3.224  0.2913  0.2117  0.7769
  553MOL0     C72923   1.699   4.016   3.219  0.1391  0.0581  0.2785
  553MOL0     C72924   1.822   4.094   3.170  0.3133  0.6290 -0.8500
  553MOL0     C72925   1.819   4.134   3.029 -0.3317  0.1016  0.2883
  553MOL0     C72926   1.938   4.203   2.964 -0.3233 -0.1396  1.2197
  553MOL0     C72927   2.046   4.109   2.957  0.4448 -0.1344 -1.1130
  553MOL0     C72928   2.118   4.021   2.985  0.0382 -0.2189 -0.2981
  553MOL0     C72929   1.436   3.897   3.309 -1.3160  0.3495  0.3443
  553MOL0     C72930   1.323   3.854   3.379 -0.1601  0.4414 -0.4173
  553MOL0     H72931   1.016   3.671   3.743 -0.5072 -0.1010 -0.1501
  553MOL0     H72932   0.791   3.581   3.809 -1.8705 -2.4708 -2.4506
  553MOL0     H72933   0.438   3.693   3.588 -1.8086 -0.5814  1.6239
  553MOL0     H72934   0.388   3.556   3.684 -0.9345  1.8299 -0.6071
  553MOL0     H72935   0.526   3.413   3.554 -0.0110  0.3761  0.8048
  553MOL0     H72936   0.547   3.547   3.431 -0.5426  0.0480 -0.4151
  553MOL0     H72937   0.290   3.554   3.439 -2.3951 -0.8203 -0.3797
  553MOL0     H72938   0.296   3.390   3.502 -1.6807  2.8997  1.0661
  553MOL0     H72939   0.475   3.405   3.271 -0.6526  1.6781  2.4113
  553MOL0     H72940   0.372   3.282   3.332  1.9573  0.0581  3.4049
  553MOL0     H72941   0.239   3.537   3.215  1.2990 -0.2295 -1.0590
  553MOL0     H72942   0.173   3.379   3.236 -1.2700  2.9901  0.9653
  553MOL0     H72943   0.326   3.283   3.066  2.0310 -0.1670  3.6370
  553MOL0     H72944   0.413   3.438   3.052  0.1280 -2.4264  2.4602
  553MOL0     H72945   0.119   3.383   2.979  0.1754 -1.1626 -1.4795
  553MOL0     H72946   0.196   3.550   2.961  2.6860 -0.1839  1.9909
  553MOL0     H72947   0.193   3.463   2.740  0.8390 -1.1057 -0.1428
  553MOL0     H72948   0.248   3.310   2.803 -0.4099  1.1321 -1.8227
  553MOL0     H72949   0.408   3.670   2.863 -0.8379 -0.0982  0.4041
  553MOL0     H72950   0.695   3.723   2.852  0.3795  2.3116 -1.2010
  553MOL0     H72951   0.659   3.753   2.686 -0.6730 -2.3386 -1.7212
  553MOL0     H72952   0.825   3.529   2.665  2.5805 -0.6068 -0.8148
  553MOL0     H72953   0.871   3.591   2.829 -1.5433 -0.3407  0.3541
  553MOL0     H72954   0.885   3.763   2.583  1.8246 -1.4725 -1.3839
  553MOL0     H72955   0.958   3.787   2.750 -0.4477 -0.0981  0.6102
  553MOL0     H72956   1.088   3.568   2.688  0.3522 -1.5417 -0.9858
  553MOL0     H72957   1.122   3.724   2.606 -0.2275  0.4622  2.4650
  553MOL0     H72958   1.264   3.687   2.464  1.3465 -1.2408  0.9179
  553MOL0     H72959   1.452   3.562   2.355  2.1004 -2.8707  0.1306
  553MOL0     H72960   1.637   3.184   2.145 -2.5296  0.1364 -0.1967
  553MOL0     H72961   1.804   3.079   1.984 -0.9845 -1.7141  1.9231
  553MOL0     H72962   1.944   3.087   1.822  1.8672 -0.9217 -0.3298
  553MOL0     H72963   1.984   3.042   1.658 -1.7898  2.3081 -1.2710
  553MOL0     H72964   1.823   2.877   1.875  1.8582 -1.5461  0.6579
  553MOL0     H72965   1.981   2.840   1.791  1.0272  1.3354 -0.9052
  553MOL0     H72966   1.859   2.810   1.585 -2.3898  0.1765 -0.3950
  553MOL0     H72967   1.703   2.856   1.666 -0.5924 -0.5234  0.2014
  553MOL0     H72968   1.880   2.615   1.714  0.2445  0.3461  1.8982
  553MOL0     H72969   1.726   2.646   1.797  0.1677  4.0730  0.7620
  553MOL0     H72970   1.742   2.574   1.497  0.2303  0.0953 -0.5550
  553MOL0     H72971   1.607   2.657   1.574  0.7873  1.2400 -1.7818
  553MOL0     H72972   1.591   2.467   1.744 -2.2346  0.6289 -2.0761
  553MOL0     H72973   1.712   2.380   1.654 -0.2502 -1.4441  0.4032
  553MOL0     H72974   1.435   2.464   1.611  1.9286  0.9798  1.6980
  553MOL0     H72975   1.526   2.461   1.461  2.0454 -0.3735  0.4117
  553MOL0     H72976   1.407   2.248   1.488  1.6926  1.8383 -3.1670
  553MOL0     H72977   1.510   2.209   1.629  0.6105 -0.6030  0.0269
  553MOL0     H72978   1.573   3.246   1.652  2.4184 -1.4867 -0.2624
  553MOL0     H72979   1.406   3.326   1.827 -1.9844 -0.5600  3.8452
  553MOL0     H72980   1.154   3.291   2.174 -4.5322 -0.0294  1.9902
  553MOL0     H72981   0.989   3.403   2.335  0.9495 -0.3008 -0.6799
  553MOL0     H72982   0.622   3.757   3.463  1.4582  2.6259 -1.7025
  553MOL0     H72983   0.845   3.828   3.382 -1.0825  1.6826  0.0162
  553MOL0     H72984   1.167   4.163   3.381  3.5581  3.7088  1.9800
  553MOL0     H72985   1.378   4.220   3.258  4.0366  1.0717  0.9165
  553MOL0     H72986   1.690   3.927   3.156  2.3662 -0.2355  0.2765
  553MOL0     H72987   1.721   3.984   3.322 -2.2349  3.1342  1.9093
  553MOL0     H72988   1.817   4.181   3.236  2.2959  0.4816 -0.4552
  553MOL0     H72989   1.912   4.034   3.185  0.8178  1.8016  1.2228
  553MOL0     H72990   1.728   4.194   3.017  0.0990  1.0539  1.6408
  553MOL0     H72991   1.802   4.044   2.968  3.1327 -1.2450  1.0886
  553MOL0     H72992   1.908   4.209   2.859  0.9993 -3.1946  0.5566
  553MOL0     H72993   1.969   4.299   3.005  0.7020  0.5879 -1.0880
  553MOL0     H72994   2.176   3.943   3.031  0.8529  3.3158  5.7467
  553MOL0     H72995   1.521   3.832   3.292  0.4027  2.6697 -0.5402
  553MOL0     H72996   1.302   3.750   3.404  0.0533 -0.2567 -2.8579
  554MOL0     O72997   9.244   0.090   4.817 -0.0463 -0.6876 -0.5980
  554MOL0     C72998   9.227   0.148   4.922  0.1395  0.0312 -0.1051
  554MOL0     O72999   9.122   0.229   4.946 -1.0239 -0.1911 -0.1143
  554MOL0     C73000   9.037   0.266   4.845  0.8754 -0.1310 -0.3181
  554MOL0     C73001   8.904   0.299   4.879  0.1110  0.6881  0.0252
  554MOL0     C73002   8.820   0.348   4.782  0.7521 -0.4831 -0.6359
  554MOL0     C73003   8.854   0.360   4.641 -0.6656  0.4305  0.6094
  554MOL0     O73004   8.758   0.404   4.555 -0.8383  0.5583  0.4562
  554MOL0     C73005   8.787   0.505   4.451  0.1362  0.7413  0.5824
  554MOL0     C73006   8.866   0.619   4.515  0.6384 -0.6567 -0.0181
  554MOL0     C73007   8.877   0.728   4.416 -0.6718 -0.7664 -0.1255
  554MOL0     C73008   8.955   0.839   4.487 -0.2320 -0.6467  1.1818
  554MOL0     C73009   8.970   0.956   4.393  0.3336 -1.4866  0.4005
  554MOL0     C73010   9.023   1.085   4.462  0.1608  0.2836 -0.2278
  554MOL0     C73011   9.059   1.192   4.371 -0.1855 -0.7018 -0.3110
  554MOL0     C73012   9.179   1.163   4.278  0.3554  0.0849  0.5716
  554MOL0     N73013   9.230   1.264   4.186  0.9393 -0.1054  0.4486
  554MOL0     C73014   9.245   1.267   4.052  0.0062 -0.4913  0.8758
  554MOL0     C73015   9.290   1.391   4.017 -0.0844 -1.2153 -1.0436
  554MOL0     C73016   9.344   1.433   3.883  0.1666 -0.2186 -0.3532
  554MOL0     C73017   9.487   1.382   3.868  0.2799  0.3781 -0.6638
  554MOL0     C73018   9.580   1.407   3.992 -0.3165  0.1672  0.3525
  554MOL0     C73019   9.724   1.369   3.951  0.6632  0.8651  0.4842
  554MOL0     O73020   9.725   1.219   3.958 -0.5229  0.1979 -0.3301
  554MOL0     C73021   9.848   1.156   3.945 -0.5244  0.0457  0.3130
  554MOL0     C73022   9.868   1.025   3.965 -0.4685  1.1576 -0.4455
  554MOL0     C73023   9.993   0.964   3.942 -0.6723 -0.5363 -0.4846
  554MOL0     C73024  10.111   1.032   3.904  0.6027  0.6026  0.2905
  554MOL0     C73025  10.248   0.961   3.889 -0.1193 -0.2570  0.4970
  554MOL0     O73026  10.337   1.028   3.815 -0.0951  0.5575 -0.9103
  554MOL0     C73027  10.421   0.950   3.742 -0.6645  0.8488  0.3064
  554MOL0     C73028  10.369   0.887   3.630 -0.6199  0.0577 -0.1109
  554MOL0     C73029  10.458   0.817   3.541 -0.0460 -0.0630 -0.3957
  554MOL0     C73030  10.589   0.798   3.569 -0.7229 -0.5362  0.7004
  554MOL0     O73031  10.655   0.715   3.482 -0.2077 -0.3026  0.0545
  554MOL0     C73032  10.794   0.689   3.527 -0.2767 -0.7052 -0.3677
  554MOL0     C73033  10.827   0.575   3.432 -0.7000 -0.1450  0.4692
  554MOL0     C73034  10.967   0.529   3.434  1.6635 -0.1659  0.0706
  554MOL0     C73035  11.031   0.478   3.299  0.9939 -0.0199  0.6960
  554MOL0     C73036  11.178   0.452   3.310 -0.1299 -0.2854 -0.5812
  554MOL0     C73037  11.235   0.390   3.187  0.2292  1.3818  0.4254
  554MOL0     C73038  11.385   0.409   3.182  0.9255  0.8805  0.3261
  554MOL0     C73039  11.450   0.295   3.249  0.9094  0.7650  0.9486
  554MOL0    Cl73040  11.468   0.326   3.420 -0.8353 -0.3558  0.1846
  554MOL0     C73041  10.649   0.870   3.679 -0.2544 -0.3824 -0.3619
  554MOL0     C73042  10.565   0.944   3.764 -0.2011 -0.0364  0.6636
  554MOL0     O73043  10.250   0.842   3.924 -0.0301  0.4990 -0.4045
  554MOL0     C73044  10.090   1.169   3.878 -1.0074 -1.2922 -0.8166
  554MOL0     C73045   9.965   1.224   3.904 -0.7676 -1.1449  0.6107
  554MOL0     N73046   9.302   1.463   4.135  0.3298  0.9107 -0.7818
  554MOL0     N73047   9.278   1.381   4.233  0.0118 -0.2944  0.5786
  554MOL0     C73048   8.990   0.335   4.612  0.2826 -0.9133  0.2759
  554MOL0     C73049   9.084   0.294   4.711  0.3585  0.3303  0.4600
  554MOL0     C73050   9.315   0.136   5.041 -0.1071  0.3837 -0.6392
  554MOL0     C73051   9.278   0.169   5.175  0.0463  0.4972  0.5562
  554MOL0     C73052   9.375   0.154   5.278  0.5722  0.0575 -0.5377
  554MOL0     C73053   9.496   0.093   5.255  0.1773 -0.0065  1.2807
  554MOL0     O73054   9.587   0.086   5.357 -0.6181 -0.3548  0.2320
  554MOL0     C73055   9.543   0.019   5.473  0.3342 -0.1489  0.2697
  554MOL0     C73056   9.589  -0.136   5.487 -0.6312 -0.0344 -0.4565
  554MOL0     C73057   9.551  -0.236   5.381 -0.6758  0.0711 -0.8610
  554MOL0     C73058   9.417  -0.298   5.416 -0.5825 -0.6516  0.8111
  554MOL0     C73059   9.294  -0.223   5.378 -0.0602 -0.1216  0.0473
  554MOL0     C73060   9.200  -0.170   5.339 -0.3398  0.7116 -0.6254
  554MOL0     C73061   9.524   0.070   5.125 -0.4152 -0.1113 -0.2003
  554MOL0     C73062   9.439   0.085   5.023  0.1691 -0.4210  0.6264
  554MOL0     H73063   8.868   0.274   4.979 -0.2889 -0.7952 -0.4670
  554MOL0     H73064   8.716   0.371   4.799  0.5910  2.2937 -4.2332
  554MOL0     H73065   8.698   0.542   4.400  1.0809 -1.2768 -2.7832
  554MOL0     H73066   8.853   0.455   4.379  2.3918  0.6691  2.5591
  554MOL0     H73067   8.966   0.580   4.539 -0.1558 -1.2866  2.4944
  554MOL0     H73068   8.832   0.650   4.614  3.7245  1.8272  0.4400
  554MOL0     H73069   8.784   0.770   4.378 -0.3302  1.1415  1.0005
  554MOL0     H73070   8.932   0.701   4.326 -1.4320  0.6681 -1.0566
  554MOL0     H73071   8.902   0.870   4.577 -2.5585 -1.2303  0.0738
  554MOL0     H73072   9.052   0.794   4.509  1.4526  2.1154 -0.0032
  554MOL0     H73073   8.875   0.977   4.345  0.4704 -1.8761 -0.0496
  554MOL0     H73074   9.031   0.926   4.307 -0.5731  1.9971 -1.6215
  554MOL0     H73075   9.109   1.060   4.523 -1.2787 -5.7275 -0.0979
  554MOL0     H73076   8.952   1.137   4.527  3.9967  1.8710  3.1111
  554MOL0     H73077   8.974   1.226   4.311 -0.1112  0.8707  0.4247
  554MOL0     H73078   9.094   1.279   4.428  0.6122  0.0915 -1.9559
  554MOL0     H73079   9.153   1.079   4.213  2.0778  0.3825 -0.5876
  554MOL0     H73080   9.260   1.130   4.344 -0.6213 -1.9387  0.8504
  554MOL0     H73081   9.233   1.186   3.981  1.6301 -0.2246  0.2705
  554MOL0     H73082   9.346   1.543   3.890  0.4119 -0.3448  4.3762
  554MOL0     H73083   9.275   1.404   3.803 -1.4297  1.9310  0.1268
  554MOL0     H73084   9.538   1.422   3.780  2.4085  1.4281  0.9663
  554MOL0     H73085   9.475   1.275   3.847 -2.2523  0.8998 -2.2993
  554MOL0     H73086   9.579   1.515   4.005 -1.5592  0.4413 -1.6384
  554MOL0     H73087   9.554   1.355   4.085 -1.8405 -1.7553 -1.0434
  554MOL0     H73088   9.788   1.407   4.032  0.1883  3.3012 -0.2094
  554MOL0     H73089   9.771   1.401   3.858  0.6736 -2.2405 -0.7095
  554MOL0     H73090   9.782   0.970   4.003 -0.6169 -0.1591 -2.4863
  554MOL0     H73091   9.998   0.858   3.965 -0.0379  0.0053  2.2191
  554MOL0     H73092  10.262   0.888   3.612 -1.4218 -0.5848  3.7477
  554MOL0     H73093  10.409   0.766   3.460 -0.0403 -0.8612  0.0944
  554MOL0     H73094  10.807   0.654   3.630  0.7675  0.5972 -0.0361
  554MOL0     H73095  10.859   0.776   3.512 -1.9547  0.8532  0.9729
  554MOL0     H73096  10.819   0.620   3.332  1.8424 -0.3666  0.0886
  554MOL0     H73097  10.758   0.494   3.459 -2.4985  1.4413  0.8063
  554MOL0     H73098  10.975   0.447   3.507 -0.8207 -1.4999 -1.0450
  554MOL0     H73099  11.025   0.610   3.480 -1.2871  1.6381  0.8393
  554MOL0     H73100  10.982   0.386   3.266  1.8467  0.5247 -2.3968
  554MOL0     H73101  11.013   0.543   3.214 -2.0841 -1.8255 -0.1641
  554MOL0     H73102  11.191   0.387   3.397 -1.1243 -1.1457 -1.0485
  554MOL0     H73103  11.241   0.539   3.330 -0.0675 -0.1938 -1.1771
  554MOL0     H73104  11.198   0.449   3.102  0.8392 -1.7372 -2.2391
  554MOL0     H73105  11.202   0.285   3.189  1.8814  0.8272  2.9602
  554MOL0     H73106  11.420   0.409   3.078  0.9503 -3.3654  0.1551
  554MOL0     H73107  11.414   0.504   3.229  3.8454 -1.0612  2.8323
  554MOL0     H73108  11.545   0.285   3.196  0.5346 -1.0256  0.5226
  554MOL0     H73109  11.389   0.205   3.236  3.2243 -0.8237  0.4300
  554MOL0     H73110  10.755   0.870   3.706  0.1460  0.1272 -1.8253
  554MOL0     H73111  10.603   1.006   3.845 -3.3363  0.0960  2.2162
  554MOL0     H73112  10.174   1.233   3.850 -1.7679  0.6254  0.9999
  554MOL0     H73113   9.967   1.331   3.885  0.1244 -1.0328  1.2683
  554MOL0     H73114   9.021   0.337   4.508 -3.6632 -1.9806 -1.1080
  554MOL0     H73115   9.186   0.269   4.682  0.4430 -0.3107  1.2717
  554MOL0     H73116   9.191   0.226   5.206  0.6293 -0.0504  3.4800
  554MOL0     H73117   9.355   0.190   5.378  2.1989 -0.2940 -0.0585
  554MOL0     H73118   9.433   0.016   5.476 -0.1289  0.5178 -5.3969
  554MOL0     H73119   9.578   0.085   5.553 -2.6898 -1.2469  2.7175
  554MOL0     H73120   9.698  -0.143   5.491 -0.6177  0.4341  0.0650
  554MOL0     H73121   9.538  -0.164   5.580 -2.2583  3.8970  0.0368
  554MOL0     H73122   9.618  -0.322   5.374  1.5447  1.6782 -0.2277
  554MOL0     H73123   9.543  -0.183   5.285 -2.3485  3.5045  0.9906
  554MOL0     H73124   9.432  -0.394   5.365 -2.8556 -2.4678  3.2515
  554MOL0     H73125   9.411  -0.317   5.524 -3.1014 -2.7455  0.3933
  554MOL0     H73126   9.117  -0.111   5.303 -0.0901  1.5484  0.1339
  554MOL0     H73127   9.622   0.035   5.092  0.6694  2.9060 -0.4511
  554MOL0     H73128   9.468   0.056   4.922  3.1186 -1.2666  1.6226
  555MOL0     O73129   1.372   8.119   1.192 -0.9956 -0.5853  0.5563
  555MOL0     C73130   1.437   8.020   1.222 -1.4948 -0.0774 -0.4795
  555MOL0     O73131   1.437   7.900   1.164  0.2522  0.1771 -0.7180
  555MOL0     C73132   1.345   7.859   1.073 -0.1659  0.5214 -0.3474
  555MOL0     C73133   1.391   7.745   0.994  0.0726 -0.3956 -0.2657
  555MOL0     C73134   1.315   7.697   0.890  0.5855 -0.5603  0.1866
  555MOL0     C73135   1.176   7.725   0.881  0.7403  0.0544 -0.3204
  555MOL0     O73136   1.085   7.670   0.787 -0.7043  0.0607 -0.6328
  555MOL0     C73137   1.121   7.565   0.708  0.1514  0.3759  0.8418
  555MOL0     C73138   0.981   7.530   0.645  0.5904 -0.0363  0.3347
  555MOL0     C73139   0.908   7.435   0.745  0.4134  0.3314  0.9964
  555MOL0     C73140   0.769   7.410   0.678  0.0506  0.3471 -0.7527
  555MOL0     C73141   0.672   7.380   0.800 -0.1781  0.4518 -0.3278
  555MOL0     C73142   0.699   7.244   0.852  0.2385  0.0016 -0.5073
  555MOL0     C73143   0.586   7.170   0.932  0.1863  0.8183  0.8182
  555MOL0     C73144   0.472   7.123   0.842  0.0380 -0.6723  0.0686
  555MOL0     N73145   0.512   7.033   0.726  0.0534 -0.4088 -0.7085
  555MOL0     C73146   0.538   6.907   0.748  0.0744 -0.2533 -0.6849
  555MOL0     C73147   0.582   6.857   0.626 -0.6266 -0.4475 -1.1055
  555MOL0     C73148   0.604   6.707   0.602  0.3639 -0.3326 -0.1234
  555MOL0     C73149   0.740   6.693   0.538  0.2947  0.5595 -0.1911
  555MOL0     C73150   0.832   6.637   0.645  0.8390 -0.7631 -0.1330
  555MOL0     C73151   0.965   6.599   0.570  0.3324 -0.6400  0.7708
  555MOL0     O73152   1.038   6.706   0.526 -1.1765  0.3383 -0.3534
  555MOL0     C73153   1.093   6.791   0.622 -0.9544  0.7639  0.4522
  555MOL0     C73154   1.091   6.923   0.568  0.0750  0.3321 -0.4016
  555MOL0     C73155   1.143   7.027   0.641 -0.2024  0.0084  0.6188
  555MOL0     C73156   1.198   7.003   0.763 -0.3667  0.1006 -0.9991
  555MOL0     C73157   1.243   7.113   0.847 -0.1794  0.4613 -0.5028
  555MOL0     O73158   1.290   7.088   0.970  0.5030  0.6757  0.7418
  555MOL0     C73159   1.288   7.203   1.049 -0.8508 -0.3022 -1.5221
  555MOL0     C73160   1.414   7.236   1.099  0.5495  0.1766  0.9487
  555MOL0     C73161   1.428   7.356   1.181  0.2861  1.1958  0.1022
  555MOL0     C73162   1.316   7.439   1.210  0.8532 -0.0343  0.1023
  555MOL0     O73163   1.333   7.543   1.296  0.4986 -0.2296 -0.9554
  555MOL0     C73164   1.219   7.615   1.349  0.3069  0.8863  0.2212
  555MOL0     C73165   1.265   7.739   1.420 -1.3966 -0.5284 -0.2392
  555MOL0     C73166   1.156   7.808   1.500  0.1792 -0.3194  0.3748
  555MOL0     C73167   1.191   7.931   1.590  0.4898  0.9492 -1.1308
  555MOL0     C73168   1.094   7.932   1.716  0.0020  0.4716 -0.6175
  555MOL0     C73169   1.128   8.038   1.814 -0.1623  0.1871  0.9527
  555MOL0     C73170   1.021   8.051   1.929  0.1850  0.6070 -1.1629
  555MOL0     C73171   1.008   7.931   2.019  0.7575 -0.3841  0.5367
  555MOL0    Cl73172   0.871   7.967   2.131  0.5964  0.1493 -0.1146
  555MOL0     C73173   1.195   7.413   1.138  0.1479 -0.3234 -0.1123
  555MOL0     C73174   1.187   7.295   1.065 -0.1391 -0.1805 -0.4719
  555MOL0     O73175   1.236   7.223   0.799  0.3412  0.1084 -0.5244
  555MOL0     C73176   1.210   6.866   0.811  0.0185 -0.2764  1.1735
  555MOL0     C73177   1.151   6.761   0.744 -0.0969  0.4799  0.0786
  555MOL0     N73178   0.578   6.963   0.534  0.1826 -0.4758 -0.2097
  555MOL0     N73179   0.524   7.063   0.594  0.3788  0.5863  0.1846
  555MOL0     C73180   1.129   7.831   0.959  0.7835  0.2642  0.2333
  555MOL0     C73181   1.211   7.902   1.055 -0.0167  0.3727  0.1969
  555MOL0     C73182   1.545   8.060   1.322  0.5398 -0.4259  1.5103
  555MOL0     C73183   1.656   7.978   1.325 -0.1851  0.1644  0.2379
  555MOL0     C73184   1.764   8.007   1.408  0.0676 -0.0952 -0.3863
  555MOL0     C73185   1.752   8.114   1.492  0.2370 -0.2972  0.2441
  555MOL0     O73186   1.871   8.147   1.552 -0.3171 -0.0682  0.2199
  555MOL0     C73187   1.870   8.173   1.691  0.0544  0.0025  0.8445
  555MOL0     C73188   1.906   8.318   1.726  0.1737  1.1466 -0.2122
  555MOL0     C73189   1.941   8.329   1.880  0.1306  0.2912  0.0064
  555MOL0     C73190   1.974   8.481   1.914 -0.4526 -1.4301  0.7001
  555MOL0     C73191   2.000   8.500   2.058  0.8698  0.0370  0.1855
  555MOL0     C73192   1.995   8.506   2.175 -0.6012 -0.6086 -1.1985
  555MOL0     C73193   1.641   8.199   1.488  0.3888  0.0349 -0.7020
  555MOL0     C73194   1.536   8.171   1.400  0.4975  0.0018  1.1576
  555MOL0     H73195   1.491   7.714   1.019  0.9720  0.9559 -1.9780
  555MOL0     H73196   1.361   7.626   0.822  0.0519 -0.5489 -0.1928
  555MOL0     H73197   1.168   7.481   0.760  1.9585  0.6455 -0.2764
  555MOL0     H73198   1.192   7.615   0.642 -1.1503 -1.2153 -1.9090
  555MOL0     H73199   0.994   7.465   0.558 -0.4415  0.6563 -0.3619
  555MOL0     H73200   0.933   7.623   0.614  1.7930  0.4500 -0.1331
  555MOL0     H73201   0.901   7.480   0.844  1.1530  0.2524  1.0940
  555MOL0     H73202   0.966   7.344   0.765 -1.4736 -0.2212  4.8237
  555MOL0     H73203   0.743   7.509   0.640 -0.3535  1.2721  1.7210
  555MOL0     H73204   0.762   7.338   0.597 -0.6367 -1.4846  0.8420
  555MOL0     H73205   0.569   7.386   0.762 -0.4174 -1.0331  0.0154
  555MOL0     H73206   0.683   7.456   0.878 -1.8229  0.3858  0.0190
  555MOL0     H73207   0.782   7.246   0.924  1.3381  2.0952 -1.7311
  555MOL0     H73208   0.729   7.180   0.769  2.4018  1.2904 -0.8161
  555MOL0     H73209   0.630   7.080   0.977 -0.5462  1.4465  2.8666
  555MOL0     H73210   0.549   7.230   1.015  1.3457  2.0314  0.4967
  555MOL0     H73211   0.420   7.216   0.816  3.1064  1.9775  2.5638
  555MOL0     H73212   0.410   7.064   0.909 -0.1782 -0.8405 -0.2737
  555MOL0     H73213   0.513   6.850   0.837 -1.1251  0.8222 -0.2996
  555MOL0     H73214   0.526   6.683   0.529 -1.4448 -2.1711  2.2694
  555MOL0     H73215   0.601   6.659   0.700  0.8308  2.7807  1.5642
  555MOL0     H73216   0.775   6.793   0.511 -0.6739  0.4600 -1.9123
  555MOL0     H73217   0.716   6.634   0.449 -0.1769  1.5265 -0.7184
  555MOL0     H73218   0.843   6.712   0.725 -1.4505 -1.5022  0.9566
  555MOL0     H73219   0.781   6.550   0.687 -1.8226 -1.7263 -4.6516
  555MOL0     H73220   0.936   6.529   0.491 -1.3771 -0.7344  1.4380
  555MOL0     H73221   1.030   6.544   0.640 -1.2562 -2.1257  1.1636
  555MOL0     H73222   1.052   6.924   0.467 -0.8143  1.8102 -0.0764
  555MOL0     H73223   1.135   7.124   0.593 -2.9779 -0.9579 -1.0821
  555MOL0     H73224   1.497   7.168   1.081 -0.9038 -1.1483 -1.3023
  555MOL0     H73225   1.529   7.363   1.220 -0.0457 -1.5789  1.7167
  555MOL0     H73226   1.173   7.552   1.426  1.7534  0.1091  0.4958
  555MOL0     H73227   1.152   7.648   1.269 -0.8087 -0.3099  0.6277
  555MOL0     H73228   1.304   7.808   1.345 -1.4789 -0.9651 -0.6899
  555MOL0     H73229   1.341   7.719   1.495  0.2183  1.4786 -1.2165
  555MOL0     H73230   1.104   7.742   1.570  1.4133 -0.0507  1.5932
  555MOL0     H73231   1.091   7.846   1.420 -0.6749 -1.2739  0.5943
  555MOL0     H73232   1.295   7.936   1.626  1.0955  0.3522 -2.6899
  555MOL0     H73233   1.182   8.024   1.532 -2.8931  1.7573  0.4692
  555MOL0     H73234   1.094   7.833   1.761  1.6316  0.5187 -0.4260
  555MOL0     H73235   0.993   7.939   1.675 -0.2673  0.6936  0.0842
  555MOL0     H73236   1.139   8.133   1.762 -0.9072  1.1029  2.4088
  555MOL0     H73237   1.226   8.020   1.859  0.2139  1.7980  0.8423
  555MOL0     H73238   1.039   8.131   2.002 -0.9381  0.8120 -1.0926
  555MOL0     H73239   0.924   8.074   1.885  0.2360  0.1041 -1.5590
  555MOL0     H73240   1.100   7.913   2.076  2.4977 -0.1345 -2.0167
  555MOL0     H73241   0.986   7.835   1.971  0.8007 -0.3098  0.3694
  555MOL0     H73242   1.106   7.471   1.162  0.0745 -1.1325  1.7256
  555MOL0     H73243   1.085   7.280   1.029 -0.1818  1.5479 -1.1440
  555MOL0     H73244   1.277   6.854   0.896  0.6597 -0.6471  0.6233
  555MOL0     H73245   1.158   6.655   0.764 -0.0553  0.4089 -0.3049
  555MOL0     H73246   1.026   7.866   0.953  0.2342 -0.8098  2.3799
  555MOL0     H73247   1.159   7.981   1.108 -3.3165 -0.4980 -1.4808
  555MOL0     H73248   1.676   7.897   1.255 -0.2889 -0.4077  0.8657
  555MOL0     H73249   1.852   7.944   1.408 -0.6263 -1.1091 -0.6782
  555MOL0     H73250   1.944   8.099   1.724  1.2120  1.0126  0.5959
  555MOL0     H73251   1.768   8.145   1.719  0.1986 -3.4644 -1.5713
  555MOL0     H73252   1.993   8.358   1.673  3.7997 -1.2281  3.3633
  555MOL0     H73253   1.825   8.388   1.702 -1.0703  0.7150  2.3753
  555MOL0     H73254   2.030   8.268   1.899 -0.5134 -2.1965 -3.7677
  555MOL0     H73255   1.856   8.290   1.936  2.1518 -1.7262  1.8812
  555MOL0     H73256   2.068   8.512   1.869  0.9638 -1.8237  3.2147
  555MOL0     H73257   1.897   8.551   1.879  0.8977  0.3615  1.1941
  555MOL0     H73258   1.995   8.509   2.282 -1.4543 -2.7097 -1.1005
  555MOL0     H73259   1.657   8.291   1.542  0.8071 -1.8760  2.7015
  555MOL0     H73260   1.461   8.249   1.387  0.3452 -0.3653 -0.3112
  556MOL0     O73261   3.770   2.016  10.169 -0.3938  0.3731 -0.3235
  556MOL0     C73262   3.875   1.966  10.219  0.6933 -0.0343 -0.3983
  556MOL0     O73263   3.926   1.999  10.340 -0.7219  0.0222 -0.2836
  556MOL0     C73264   3.866   2.086  10.418  0.0109 -0.2647 -0.8577
  556MOL0     C73265   3.730   2.065  10.469 -0.7339  1.5041 -0.0449
  556MOL0     C73266   3.676   2.161  10.556 -0.4579  0.9580 -1.1197
  556MOL0     C73267   3.749   2.276  10.599  0.3018 -0.1373  1.4462
  556MOL0     O73268   3.695   2.370  10.684  0.3372  0.3000  0.4004
  556MOL0     C73269   3.597   2.453  10.621  0.2011 -0.2837  0.7463
  556MOL0     C73270   3.667   2.560  10.536  0.4974  0.2896  0.6906
  556MOL0     C73271   3.579   2.607  10.420  0.7901 -0.3593 -0.1680
  556MOL0     C73272   3.465   2.707  10.460 -0.0497 -0.0366 -0.3913
  556MOL0     C73273   3.473   2.833  10.370  0.7597 -0.8385  0.7454
  556MOL0     C73274   3.338   2.903  10.401  0.0472 -0.8825  0.2027
  556MOL0     C73275   3.314   3.049  10.353 -0.2430  0.9729 -0.4650
  556MOL0     C73276   3.168   3.099  10.385  0.6619 -0.3033  0.1744
  556MOL0     N73277   3.124   3.072  10.524 -0.2228 -1.0970 -0.9499
  556MOL0     C73278   3.157   3.154  10.637 -0.7227 -0.0106 -0.3397
  556MOL0     C73279   3.081   3.108  10.738 -0.7735  0.4595 -0.1819
  556MOL0     C73280   3.083   3.158  10.885 -0.5813 -0.1929  0.2182
  556MOL0     C73281   2.947   3.220  10.931 -0.2049  0.6834 -0.9997
  556MOL0     C73282   2.913   3.336  10.837 -0.5979 -0.1286 -0.5772
  556MOL0     C73283   3.009   3.452  10.844 -0.0672  0.0362  0.4708
  556MOL0     O73284   3.025   3.506  10.982 -0.1753 -0.0613 -0.0171
  556MOL0     C73285   2.950   3.622  11.018  0.3963  0.5551  0.4248
  556MOL0     C73286   2.850   3.690  10.947 -0.1068 -0.8386 -0.1441
  556MOL0     C73287   2.767   3.777  11.007  0.4132  0.4093  0.0085
  556MOL0     C73288   2.766   3.811  11.141  0.4452  0.3312 -0.0418
  556MOL0     C73289   2.657   3.892  11.197 -0.5023 -0.6219 -0.0149
  556MOL0     O73290   2.674   3.943  11.323 -0.0988  0.6180  0.8061
  556MOL0     C73291   2.580   4.023  11.373  0.6010  0.4122 -0.1227
  556MOL0     C73292   2.439   4.000  11.366  0.4214 -0.3245 -0.9434
  556MOL0     C73293   2.345   4.100  11.406 -0.2726 -0.2198  0.3305
  556MOL0     C73294   2.379   4.227  11.469 -0.4370  1.0796  0.8020
  556MOL0     O73295   2.295   4.334  11.499 -0.5336 -0.9354 -0.9113
  556MOL0     C73296   2.156   4.309  11.484  1.5189 -0.1704  0.5377
  556MOL0     C73297   2.093   4.232  11.606 -0.8851 -0.1316 -0.0373
  556MOL0     C73298   2.101   4.288  11.743 -0.3235  0.3963  0.3498
  556MOL0     C73299   2.099   4.443  11.756 -0.8629 -0.4359 -1.5191
  556MOL0     C73300   2.095   4.493  11.906 -0.2679  0.1195 -0.1029
  556MOL0     C73301   1.967   4.466  11.982  0.7621 -1.4973  0.1213
  556MOL0     C73302   1.977   4.550  12.117  0.4029  0.2542 -0.0660
  556MOL0     C73303   1.860   4.515  12.215  0.1646 -0.2680  0.9334
  556MOL0    Cl73304   1.883   4.621  12.359  0.0044  0.4862 -0.4066
  556MOL0     C73305   2.521   4.241  11.476  0.2728 -0.3866  0.2012
  556MOL0     C73306   2.615   4.144  11.434 -0.0610  0.1944 -0.0277
  556MOL0     O73307   2.561   3.920  11.127 -0.1552 -0.2264 -0.1946
  556MOL0     C73308   2.863   3.743  11.215  0.6872 -0.0406  0.0604
  556MOL0     C73309   2.951   3.655  11.156 -0.2271  1.0235 -0.4633
  556MOL0     N73310   2.986   3.027  10.681 -0.7793 -0.2555  1.6052
  556MOL0     N73311   3.008   3.011  10.557 -0.4291  0.2619  0.0026
  556MOL0     C73312   3.880   2.289  10.553  0.0566 -0.0601 -0.2552
  556MOL0     C73313   3.939   2.198  10.466  0.8062 -0.2699  0.4523
  556MOL0     C73314   3.934   1.849  10.151 -0.0779 -0.0579  0.1983
  556MOL0     C73315   4.035   1.772  10.211 -0.5381  0.1229 -0.2574
  556MOL0     C73316   4.092   1.660  10.146 -0.1068  0.6284 -0.4448
  556MOL0     C73317   4.055   1.632  10.014  0.5069  0.7180  0.2453
  556MOL0     O73318   4.107   1.528   9.943  1.1536 -1.0448  0.1042
  556MOL0     C73319   4.232   1.570   9.896 -0.2019  0.3643 -0.2127
  556MOL0     C73320   4.332   1.475   9.958  0.2019  0.4357  0.3257
  556MOL0     C73321   4.476   1.499   9.915  0.5367 -0.6136 -0.3125
  556MOL0     C73322   4.582   1.397   9.939  0.0401 -0.0987 -0.9973
  556MOL0     C73323   4.560   1.274   9.852 -0.5566  0.1861 -0.0726
  556MOL0     C73324   4.538   1.170   9.789  0.2989 -0.3035  0.6141
  556MOL0     C73325   3.962   1.720   9.956 -0.4957  0.3450  0.4616
  556MOL0     C73326   3.899   1.828  10.024  0.0852 -0.0352 -0.2228
  556MOL0     H73327   3.668   1.979  10.443 -2.4892  1.4722  3.5840
  556MOL0     H73328   3.573   2.155  10.589 -0.1497  4.7721  1.0719
  556MOL0     H73329   3.546   2.508  10.700  0.9569 -0.6631  1.5189
  556MOL0     H73330   3.524   2.389  10.570 -1.5471  1.7814  0.5206
  556MOL0     H73331   3.758   2.515  10.496 -0.6947 -0.1484 -1.7264
  556MOL0     H73332   3.695   2.647  10.596 -2.6340  1.5877  0.4631
  556MOL0     H73333   3.539   2.523  10.362  0.3590  1.0101 -1.9487
  556MOL0     H73334   3.639   2.657  10.343  0.2953 -0.2525 -0.4979
  556MOL0     H73335   3.372   2.653  10.442 -0.9753  1.8169 -1.3763
  556MOL0     H73336   3.467   2.740  10.564  1.6147  6.2646 -1.9782
  556MOL0     H73337   3.488   2.820  10.262 -2.0195  2.5149 -0.2245
  556MOL0     H73338   3.555   2.899  10.399  1.9050 -2.0259  0.3330
  556MOL0     H73339   3.341   2.914  10.509 -0.0789  2.0065 -0.0252
  556MOL0     H73340   3.261   2.833  10.367 -0.2068 -1.7317  2.3863
  556MOL0     H73341   3.384   3.120  10.399 -2.0341  1.1654  2.1688
  556MOL0     H73342   3.322   3.053  10.244  1.4319  0.7704 -0.3840
  556MOL0     H73343   3.092   3.048  10.324  1.0146 -0.6479  0.0206
  556MOL0     H73344   3.166   3.206  10.361 -1.9753 -0.6345 -1.5018
  556MOL0     H73345   3.235   3.229  10.625 -1.4855  0.6318 -1.4986
  556MOL0     H73346   3.154   3.240  10.901 -1.1212  0.2253  0.4700
  556MOL0     H73347   3.137   3.079  10.940  1.2846  1.9233  1.6178
  556MOL0     H73348   2.937   3.248  11.036  0.2974 -0.4196 -0.6391
  556MOL0     H73349   2.878   3.135  10.921 -0.2696  0.6468 -0.3335
  556MOL0     H73350   2.884   3.307  10.736 -1.2694  0.5903 -0.6044
  556MOL0     H73351   2.822   3.389  10.866  1.0803  1.5405  2.0506
  556MOL0     H73352   2.983   3.531  10.773  3.1601  0.3895 -0.4591
  556MOL0     H73353   3.112   3.426  10.819  1.0129  3.9251  0.2923
  556MOL0     H73354   2.842   3.676  10.839  0.8018  1.7066 -0.6374
  556MOL0     H73355   2.688   3.820  10.947 -0.0934 -0.7171 -0.1678
  556MOL0     H73356   2.399   3.915  11.312 -2.4781 -0.5404  1.2771
  556MOL0     H73357   2.244   4.077  11.375  0.2664 -3.2720  0.5211
  556MOL0     H73358   2.131   4.261  11.389  0.1959  2.2537 -0.4452
  556MOL0     H73359   2.101   4.403  11.474  2.8362  0.4694 -1.2260
  556MOL0     H73360   2.144   4.135  11.600  0.6393  0.7414 -2.2900
  556MOL0     H73361   1.988   4.213  11.579 -1.8846 -0.0248  3.3803
  556MOL0     H73362   2.191   4.256  11.795  1.2557  0.4598 -2.1737
  556MOL0     H73363   2.022   4.233  11.796  0.6403  1.1438  2.6381
  556MOL0     H73364   2.179   4.482  11.693 -0.9326  3.0911  0.3244
  556MOL0     H73365   2.006   4.482  11.713 -1.2891  0.8575  0.4530
  556MOL0     H73366   2.108   4.601  11.901 -1.6283  0.2972 -0.2021
  556MOL0     H73367   2.174   4.445  11.965 -0.0034 -1.2916 -1.5320
  556MOL0     H73368   1.942   4.362  12.001 -1.8362 -1.4747 -2.4981
  556MOL0     H73369   1.897   4.518  11.915 -1.3790  0.9070  3.8660
  556MOL0     H73370   2.065   4.510  12.168 -2.2332 -3.3373  2.1332
  556MOL0     H73371   1.989   4.658  12.109  1.4435  0.0288 -2.3555
  556MOL0     H73372   1.862   4.415  12.259 -0.3858 -0.0376  1.5009
  556MOL0     H73373   1.758   4.530  12.180  0.4311 -0.4828  0.0425
  556MOL0     H73374   2.557   4.331  11.524 -0.2443 -0.6672  1.1568
  556MOL0     H73375   2.719   4.173  11.447  0.2883 -0.6964 -0.7486
  556MOL0     H73376   2.874   3.762  11.321 -1.0411 -0.6539  0.3808
  556MOL0     H73377   3.022   3.609  11.225  0.1240  1.7957 -0.2948
  556MOL0     H73378   3.944   2.369  10.591  2.2940 -2.6957  2.0175
  556MOL0     H73379   4.038   2.215  10.425  1.6993 -2.2481  1.6668
  556MOL0     H73380   4.060   1.798  10.313 -2.8207  0.8070  0.1714
  556MOL0     H73381   4.169   1.603  10.198  2.4524  1.2964 -3.2020
  556MOL0     H73382   4.258   1.674   9.915 -2.1312  1.3117 -2.2264
  556MOL0     H73383   4.235   1.556   9.787 -2.3224  2.9920 -0.7284
  556MOL0     H73384   4.322   1.489  10.066 -0.9270  2.0686  0.0521
  556MOL0     H73385   4.293   1.375   9.936 -3.1004  1.2126  1.9922
  556MOL0     H73386   4.503   1.584   9.978  0.0461 -2.3069  2.3402
  556MOL0     H73387   4.472   1.519   9.807  1.7579  1.5949 -0.0122
  556MOL0     H73388   4.686   1.427   9.924 -0.1633  1.1347 -0.0949
  556MOL0     H73389   4.570   1.376  10.045  0.8006  3.7772 -0.0092
  556MOL0     H73390   4.514   1.090   9.722  1.0266  0.2481 -0.3231
  556MOL0     H73391   3.931   1.701   9.854  1.7616 -1.6569  0.0728
  556MOL0     H73392   3.818   1.883   9.977 -0.0756 -0.3912 -0.3691
  557MOL0     O73393  11.359   9.348  10.750 -0.0846 -0.2334  0.2045
  557MOL0     C73394  11.274   9.437  10.726  0.8915  1.4334 -0.5036
  557MOL0     O73395  11.139   9.420  10.755 -0.9574  0.6147 -0.3888
  557MOL0     C73396  11.073   9.308  10.802 -0.5786 -0.1990  0.3668
  557MOL0     C73397  10.964   9.326  10.878  0.1428 -0.3095  0.0912
  557MOL0     C73398  10.893   9.214  10.921 -0.0905  0.4305  0.2040
  557MOL0     C73399  10.933   9.085  10.889 -0.0226  0.2147 -0.5175
  557MOL0     O73400  10.880   8.978  10.964 -0.0282 -0.1680  0.4857
  557MOL0     C73401  10.955   8.865  10.996 -0.2619 -0.2623 -0.1325
  557MOL0     C73402  10.895   8.765  11.088  0.4926 -0.2513 -0.3104
  557MOL0     C73403  10.988   8.651  11.117  0.0719 -0.4012  0.6841
  557MOL0     C73404  10.925   8.559  11.224  0.5295 -0.2000 -1.2202
  557MOL0     C73405  11.015   8.446  11.285 -0.0542 -0.1294 -0.0191
  557MOL0     C73406  11.097   8.377  11.177  0.3559 -0.0023 -0.2801
  557MOL0     C73407  11.008   8.294  11.086 -0.8453 -0.6512 -0.5497
  557MOL0     C73408  11.074   8.258  10.955  0.6746  0.7511 -0.7196
  557MOL0     N73409  11.006   8.155  10.881  1.2507 -0.1327  0.1033
  557MOL0     C73410  10.984   8.032  10.916 -0.4675  0.2151  0.1924
  557MOL0     C73411  10.930   7.980  10.806 -0.0453 -0.3081  0.0456
  557MOL0     C73412  10.910   7.834  10.770  1.5809 -1.0371 -0.1382
  557MOL0     C73413  11.047   7.758  10.764  0.5192 -0.2459 -0.3960
  557MOL0     C73414  11.036   7.612  10.742  0.1687  0.9393  0.4239
  557MOL0     C73415  11.003   7.574  10.597 -0.5128 -0.0003  0.8497
  557MOL0     O73416  11.107   7.642  10.508  0.1585 -0.2685 -0.2743
  557MOL0     C73417  11.104   7.592  10.383  0.1209  0.9630 -0.3784
  557MOL0     C73418  10.993   7.536  10.311  0.6279  0.1367  0.6449
  557MOL0     C73419  11.003   7.512  10.171 -1.1810  0.2652 -0.0298
  557MOL0     C73420  11.128   7.530  10.102 -0.6307  0.4211 -0.3845
  557MOL0     C73421  11.142   7.509   9.953  0.2168  0.7784  0.9136
  557MOL0     O73422  11.023   7.521   9.882  0.5510  0.3297  0.1050
  557MOL0     C73423  11.024   7.482   9.752 -0.3712  0.7495 -0.5632
  557MOL0     C73424  11.068   7.568   9.655 -0.6307 -0.2976 -0.4134
  557MOL0     C73425  11.047   7.542   9.524 -0.4128 -0.0818  0.4823
  557MOL0     C73426  10.970   7.431   9.484  0.7583  0.2364  0.9417
  557MOL0     O73427  10.923   7.420   9.349 -0.3599 -0.9835 -0.1961
  557MOL0     C73428  10.886   7.301   9.297 -0.4316  0.1894  1.0863
  557MOL0     C73429  11.015   7.226   9.246 -0.0861 -0.2193 -0.1708
  557MOL0     C73430  10.984   7.090   9.188 -0.0351  0.5762 -0.6089
  557MOL0     C73431  10.866   7.091   9.096  0.1174 -0.9874 -0.4496
  557MOL0     C73432  10.853   6.966   9.011 -0.0860 -0.2120  0.2311
  557MOL0     C73433  10.850   6.834   9.094 -0.4526  0.6049 -0.7621
  557MOL0     C73434  10.877   6.711   9.011  0.2805  0.0522 -0.4292
  557MOL0     C73435  10.935   6.592   9.089  0.6787 -0.0809 -0.6274
  557MOL0    Cl73436  10.895   6.433   9.003 -0.2844  0.1868 -0.0097
  557MOL0     C73437  10.933   7.339   9.582 -0.7420  0.2793 -0.1771
  557MOL0     C73438  10.961   7.370   9.713  0.0540  0.7739  0.0722
  557MOL0     O73439  11.251   7.476   9.908 -0.1314 -0.1238  0.6975
  557MOL0     C73440  11.241   7.570  10.176  0.3982  0.0594 -0.4373
  557MOL0     C73441  11.220   7.604  10.315 -0.5555 -0.4497  0.4653
  557MOL0     N73442  10.908   8.082  10.709 -0.6086 -0.4261 -0.5200
  557MOL0     N73443  10.963   8.185  10.759 -0.1332 -1.1514 -0.0041
  557MOL0     C73444  11.043   9.061  10.809 -0.4525 -0.0114  0.7462
  557MOL0     C73445  11.107   9.180  10.756 -0.9248  0.6672 -1.3137
  557MOL0     C73446  11.322   9.557  10.672 -0.0305 -1.0297 -0.1750
  557MOL0     C73447  11.234   9.644  10.607 -0.1237 -0.8816 -0.3934
  557MOL0     C73448  11.275   9.764  10.553 -0.5520 -0.3746  0.0109
  557MOL0     C73449  11.409   9.804  10.570  0.6831 -0.5133  0.3002
  557MOL0     O73450  11.461   9.921  10.511  0.2238 -0.6957 -0.7152
  557MOL0     C73451  11.390   9.968  10.398  0.5232 -1.3622 -0.1299
  557MOL0     C73452  11.401   9.872  10.277  0.4769  0.8726  0.2375
  557MOL0     C73453  11.536   9.876  10.208 -0.0356  0.4046  0.5578
  557MOL0     C73454  11.541   9.968  10.085 -1.1926 -0.2614  0.8960
  557MOL0     C73455  11.495  10.109  10.099  0.5260  0.8000  0.4428
  557MOL0     C73456  11.453  10.222  10.116  0.2345 -0.4854 -0.5228
  557MOL0     C73457  11.490   9.734  10.653  0.0132 -0.1057 -0.2957
  557MOL0     C73458  11.449   9.611  10.698  0.3045  0.3557 -0.5947
  557MOL0     H73459  10.919   9.418  10.913 -0.9083 -1.6204  2.3629
  557MOL0     H73460  10.813   9.218  10.994 -0.2482 -0.1396  0.0690
  557MOL0     H73461  11.040   8.899  11.055 -2.4951 -1.9638  4.5332
  557MOL0     H73462  10.994   8.821  10.904 -2.5237 -0.2762 -1.1659
  557MOL0     H73463  10.798   8.733  11.051  0.2337  1.9817 -1.7339
  557MOL0     H73464  10.881   8.814  11.185  1.2719 -0.3181 -0.1531
  557MOL0     H73465  11.086   8.689  11.148 -0.1738 -0.4490  1.5409
  557MOL0     H73466  11.000   8.601  11.020  0.2510  2.8288 -1.0944
  557MOL0     H73467  10.888   8.606  11.315 -1.0899 -2.1486 -0.8105
  557MOL0     H73468  10.832   8.524  11.179 -1.0129  0.1378  1.5027
  557MOL0     H73469  10.960   8.367  11.339  3.2506 -3.4703 -1.1296
  557MOL0     H73470  11.084   8.481  11.362 -0.4495 -0.3427  0.4421
  557MOL0     H73471  11.160   8.303  11.227 -0.9991 -1.0633 -0.0975
  557MOL0     H73472  11.149   8.453  11.119 -2.5330  1.4703 -1.1328
  557MOL0     H73473  10.982   8.204  11.142  1.0957 -1.3651 -0.7141
  557MOL0     H73474  10.917   8.351  11.065 -0.4496  0.6975  1.1369
  557MOL0     H73475  11.172   8.214  10.976  0.2435  0.4972  0.8837
  557MOL0     H73476  11.090   8.346  10.891  0.7513  0.5902 -0.9231
  557MOL0     H73477  11.013   7.985  11.009 -1.7548 -3.8508 -1.2488
  557MOL0     H73478  10.872   7.838  10.667 -0.4275 -1.6153  0.5267
  557MOL0     H73479  10.839   7.788  10.839  0.2562 -0.9097 -1.3661
  557MOL0     H73480  11.104   7.787  10.852  0.2691  1.3520 -0.7271
  557MOL0     H73481  11.096   7.807  10.679  1.1774 -3.1653 -1.8429
  557MOL0     H73482  11.139   7.584  10.764  0.8170  3.1748  0.4924
  557MOL0     H73483  10.966   7.568  10.814 -0.3108  0.0261 -0.5699
  557MOL0     H73484  10.901   7.602  10.568  0.8066  2.8083 -1.6771
  557MOL0     H73485  11.013   7.466  10.582  1.7718  0.3374 -0.4979
  557MOL0     H73486  10.894   7.508  10.346 -0.2392 -1.8322 -2.9317
  557MOL0     H73487  10.916   7.484  10.113 -0.3699  1.0866 -1.7201
  557MOL0     H73488  11.106   7.662   9.694  0.5655 -1.9428  2.7535
  557MOL0     H73489  11.081   7.617   9.453 -2.4639  1.4049  0.9794
  557MOL0     H73490  10.828   7.324   9.208  3.3637  0.6037 -1.5348
  557MOL0     H73491  10.828   7.239   9.366 -0.9378 -0.3387  0.1910
  557MOL0     H73492  11.079   7.206   9.332 -0.4238  0.8670  0.3513
  557MOL0     H73493  11.068   7.288   9.173 -0.6271  0.8446  0.3124
  557MOL0     H73494  10.970   7.032   9.279 -0.9895  0.4670 -0.8170
  557MOL0     H73495  11.073   7.045   9.143  0.7614 -1.9774  3.1133
  557MOL0     H73496  10.773   7.103   9.153  1.1088  0.0712  1.0393
  557MOL0     H73497  10.873   7.178   9.030 -1.0894  1.6160  2.5804
  557MOL0     H73498  10.942   6.967   8.948  1.2567  1.5953  2.0172
  557MOL0     H73499  10.766   6.981   8.947  0.8293  0.4594 -0.8864
  557MOL0     H73500  10.752   6.837   9.144 -0.0569  1.8075  0.0033
  557MOL0     H73501  10.930   6.839   9.169  1.3500 -3.0411 -2.2211
  557MOL0     H73502  10.779   6.671   8.986  0.4572 -1.7137  1.3883
  557MOL0     H73503  10.942   6.734   8.927 -0.1008 -0.9922 -1.0303
  557MOL0     H73504  10.881   6.586   9.184  2.4496  3.5222  0.8270
  557MOL0     H73505  11.042   6.614   9.097  0.2487  1.4067  1.9695
  557MOL0     H73506  10.869   7.256   9.557 -3.4544  2.3107 -0.3792
  557MOL0     H73507  10.934   7.293   9.784 -1.3360  0.2514 -0.9618
  557MOL0     H73508  11.333   7.598  10.126  2.3916 -0.0488  2.8873
  557MOL0     H73509  11.305   7.644  10.369 -0.6791 -0.8428  0.9548
  557MOL0     H73510  11.068   8.962  10.774  0.4827  0.6877 -0.6744
  557MOL0     H73511  11.186   9.177  10.682 -0.6224 -1.0261 -0.9652
  557MOL0     H73512  11.132   9.615  10.587  0.5878 -3.1207 -1.0459
  557MOL0     H73513  11.198   9.823  10.504  0.9552  2.5468  0.8567
  557MOL0     H73514  11.434  10.065  10.374 -0.1262 -0.9529  0.3107
  557MOL0     H73515  11.290   9.992  10.434  0.2547 -0.2269 -1.5831
  557MOL0     H73516  11.398   9.768  10.310  4.9777  0.0397 -1.2475
  557MOL0     H73517  11.332   9.886  10.194 -1.0048 -2.9374  0.6392
  557MOL0     H73518  11.558   9.777  10.167 -0.7523  0.6888 -0.5438
  557MOL0     H73519  11.613   9.904  10.280  0.4855  0.5661 -0.0574
  557MOL0     H73520  11.644   9.962  10.050 -0.8645 -1.0334  1.9601
  557MOL0     H73521  11.482   9.918  10.008  1.1256 -2.2266  0.3054
  557MOL0     H73522  11.431  10.324  10.140  3.1154 -0.6482  4.1326
  557MOL0     H73523  11.593   9.760  10.673 -0.2360 -0.6873  1.9240
  557MOL0     H73524  11.527   9.548  10.740 -0.6854 -2.6799 -2.9766
  558MOL0     O73525  10.775   8.289   7.070  0.0342  0.0182 -0.0926
  558MOL0     C73526  10.787   8.181   7.128 -0.3333 -0.4921 -0.0435
  558MOL0     O73527  10.854   8.075   7.088  0.3314 -0.2757  0.4601
  558MOL0     C73528  10.927   8.071   6.974 -0.3889  0.0840 -0.7034
  558MOL0     C73529  10.940   7.948   6.904 -0.3722 -0.0298  0.5087
  558MOL0     C73530  11.036   7.928   6.798  0.0269  0.8547 -0.2879
  558MOL0     C73531  11.111   8.035   6.753  0.9875 -0.3853 -0.2946
  558MOL0     O73532  11.193   8.039   6.641  0.3914  0.0894 -0.2019
  558MOL0     C73533  11.268   7.924   6.615 -0.4146  0.3287  0.0706
  558MOL0     C73534  11.288   7.899   6.474  0.2416  0.1055 -0.2217
  558MOL0     C73535  11.165   7.821   6.418 -0.0081  0.1495  0.1463
  558MOL0     C73536  11.187   7.813   6.270 -0.6517 -0.2212  0.8790
  558MOL0     C73537  11.074   7.738   6.204  0.2280 -0.8736  0.0115
  558MOL0     C73538  11.054   7.777   6.062  0.1529  0.5083 -0.5454
  558MOL0     C73539  11.178   7.710   5.986  1.0518  0.3334  0.2614
  558MOL0     C73540  11.143   7.680   5.853 -0.4535 -0.4607  0.3239
  558MOL0     N73541  11.124   7.802   5.776 -0.3574 -0.7255  0.3118
  558MOL0     C73542  11.218   7.893   5.731  0.5254  0.0166 -0.5005
  558MOL0     C73543  11.141   7.994   5.678 -0.0825  0.7107  0.0523
  558MOL0     C73544  11.199   8.120   5.617 -0.4589  0.4041 -0.1045
  558MOL0     C73545  11.223   8.090   5.467 -0.6506  0.7480  0.2052
  558MOL0     C73546  11.334   7.988   5.444  0.1902  0.7032 -0.3533
  558MOL0     C73547  11.419   8.003   5.314  1.2995  0.5566 -0.3749
  558MOL0     O73548  11.337   7.997   5.196  0.4489  0.6252 -0.8463
  558MOL0     C73549  11.393   8.044   5.078 -0.1853 -1.2598 -0.7406
  558MOL0     C73550  11.526   8.028   5.048 -0.3278  0.9958  0.1596
  558MOL0     C73551  11.570   8.034   4.923 -0.4431  0.1609  0.1160
  558MOL0     C73552  11.492   8.100   4.831 -0.3992 -0.2962  0.3818
  558MOL0     C73553  11.535   8.125   4.683 -0.4270 -0.9503 -0.0997
  558MOL0     O73554  11.474   8.219   4.608 -0.3092 -0.6020  0.6292
  558MOL0     C73555  11.528   8.237   4.482 -0.5107 -0.6759 -0.2584
  558MOL0     C73556  11.566   8.366   4.434  0.6630 -0.9701  0.1831
  558MOL0     C73557  11.598   8.388   4.298  0.5757 -0.3725 -0.7235
  558MOL0     C73558  11.605   8.276   4.209 -0.9984  0.5225 -0.8180
  558MOL0     O73559  11.669   8.284   4.093 -0.0948 -0.2906 -0.3088
  558MOL0     C73560  11.581   8.298   3.980  0.7364 -0.8137 -0.3841
  558MOL0     C73561  11.611   8.185   3.880  0.9526  0.2040  0.8384
  558MOL0     C73562  11.533   8.213   3.741  0.4625 -0.6884  0.0744
  558MOL0     C73563  11.582   8.139   3.616  0.9032  0.2048 -0.7269
  558MOL0     C73564  11.479   8.029   3.580 -0.5690  1.5774 -0.7060
  558MOL0     C73565  11.471   8.021   3.433 -0.2941  0.4533 -1.5944
  558MOL0     C73566  11.401   7.887   3.391 -0.7275 -0.1390  0.0705
  558MOL0     C73567  11.376   7.886   3.242  0.5351  0.4455 -0.4010
  558MOL0    Cl73568  11.274   7.752   3.184  0.1996 -0.1960  0.3149
  558MOL0     C73569  11.567   8.147   4.258  0.3955 -0.7805 -0.6270
  558MOL0     C73570  11.529   8.134   4.390 -0.8665  1.0012 -0.1513
  558MOL0     O73571  11.630   8.054   4.645  0.2844 -0.8704  0.7469
  558MOL0     C73572  11.365   8.148   4.868  0.0966  0.1110  0.5152
  558MOL0     C73573  11.316   8.107   4.989 -0.4831  0.0735  0.9324
  558MOL0     N73574  11.007   7.963   5.685 -0.5183  0.1881  0.2472
  558MOL0     N73575  10.998   7.844   5.734  0.0201 -0.1514 -0.1011
  558MOL0     C73576  11.093   8.152   6.822 -0.2425 -0.0789  0.1857
  558MOL0     C73577  11.009   8.176   6.932 -0.2876  1.2421  0.8104
  558MOL0     C73578  10.745   8.178   7.275  0.6009  0.0470  1.4397
  558MOL0     C73579  10.637   8.263   7.311  0.2910 -0.7095  0.1437
  558MOL0     C73580  10.580   8.247   7.432  0.1194  0.1870  0.9003
  558MOL0     C73581  10.629   8.166   7.531 -0.2841  0.5692 -0.1635
  558MOL0     O73582  10.571   8.133   7.655 -0.1686  0.7496  0.3500
  558MOL0     C73583  10.434   8.146   7.673  0.6207 -0.5503  0.3489
  558MOL0     C73584  10.371   8.071   7.786  0.9908  0.4062  0.6038
  558MOL0     C73585  10.230   8.127   7.798 -0.8324 -0.1480  0.8032
  558MOL0     C73586  10.156   8.065   7.907 -0.6608 -0.7881  0.1684
  558MOL0     C73587  10.027   8.123   7.940 -0.0003 -0.3002 -0.1476
  558MOL0     C73588   9.925   8.182   7.974  0.2876  0.7992 -0.4748
  558MOL0     C73589  10.752   8.096   7.499 -0.4036  0.5759 -0.6409
  558MOL0     C73590  10.808   8.094   7.373  0.9744 -0.5039 -0.5253
  558MOL0     H73591  10.885   7.864   6.944  0.7092 -2.8052 -3.2919
  558MOL0     H73592  11.039   7.831   6.748 -0.4463  1.6472 -1.9260
  558MOL0     H73593  11.232   7.831   6.660  1.5330  0.3998  1.9596
  558MOL0     H73594  11.370   7.942   6.649 -0.3456  3.2360 -1.4353
  558MOL0     H73595  11.376   7.837   6.451 -1.2602 -1.8027 -1.0606
  558MOL0     H73596  11.304   7.999   6.435  0.8573 -0.1760 -0.7073
  558MOL0     H73597  11.067   7.864   6.441  0.2593  0.8475 -0.0010
  558MOL0     H73598  11.159   7.718   6.454  0.8571 -0.6425 -1.8498
  558MOL0     H73599  11.188   7.915   6.229 -4.3116 -1.8826 -4.5462
  558MOL0     H73600  11.288   7.772   6.256 -0.4980  0.6473 -0.7947
  558MOL0     H73601  10.980   7.768   6.251 -0.7954 -1.1916 -1.7451
  558MOL0     H73602  11.077   7.631   6.229 -0.8111 -0.2527  3.3420
  558MOL0     H73603  11.053   7.884   6.043 -0.2535  0.4718 -0.7351
  558MOL0     H73604  10.960   7.730   6.032  1.3289 -2.6323  0.1878
  558MOL0     H73605  11.261   7.781   5.990 -1.8473  4.0618  0.8373
  558MOL0     H73606  11.205   7.616   6.033 -1.4680 -0.0860  1.0200
  558MOL0     H73607  11.067   7.602   5.861  0.1858 -1.1626 -0.2358
  558MOL0     H73608  11.220   7.625   5.798 -2.5623 -4.4882  1.0202
  558MOL0     H73609  11.325   7.887   5.747  0.2024 -0.8399  1.7346
  558MOL0     H73610  11.291   8.158   5.662 -0.4185  2.9169 -2.1011
  558MOL0     H73611  11.122   8.195   5.636 -3.1841 -2.3224  0.4258
  558MOL0     H73612  11.253   8.181   5.415 -1.0730 -0.6289 -2.6520
  558MOL0     H73613  11.135   8.047   5.417 -0.1058 -1.5567  1.1084
  558MOL0     H73614  11.409   7.995   5.523  0.7681 -1.3034 -0.6868
  558MOL0     H73615  11.294   7.888   5.464  1.7823  0.7670  4.3104
  558MOL0     H73616  11.493   7.923   5.307  2.5148  1.3959  1.8687
  558MOL0     H73617  11.478   8.095   5.320 -0.7515  1.8878  0.6054
  558MOL0     H73618  11.584   7.969   5.118  1.5380  1.7192 -0.7088
  558MOL0     H73619  11.668   8.000   4.892  0.5245  3.1254 -0.3740
  558MOL0     H73620  11.579   8.441   4.511  2.3164 -0.6342 -0.3781
  558MOL0     H73621  11.644   8.483   4.273  1.9119 -1.2152 -1.6043
  558MOL0     H73622  11.619   8.393   3.943  1.3310 -1.5107 -1.6202
  558MOL0     H73623  11.473   8.294   3.998  0.9659 -1.7590  0.8950
  558MOL0     H73624  11.582   8.087   3.919  0.4989  0.3652  0.9110
  558MOL0     H73625  11.717   8.168   3.862  0.2609 -1.7591 -2.2979
  558MOL0     H73626  11.533   8.317   3.710  1.4444  0.1521  2.6189
  558MOL0     H73627  11.427   8.192   3.759  0.7226 -0.7634  1.6832
  558MOL0     H73628  11.579   8.218   3.541  3.2854  1.7858  0.7136
  558MOL0     H73629  11.686   8.103   3.623  0.6453 -0.2839  1.5369
  558MOL0     H73630  11.379   8.051   3.621  0.8918 -0.7851  5.1622
  558MOL0     H73631  11.495   7.925   3.609 -5.4997  1.0093  1.0188
  558MOL0     H73632  11.566   8.025   3.379  1.4129 -0.7821  1.1054
  558MOL0     H73633  11.415   8.106   3.395 -0.3263  0.7152 -0.9691
  558MOL0     H73634  11.463   7.800   3.415  0.2339  0.3346 -0.6363
  558MOL0     H73635  11.307   7.876   3.446  0.3302  3.6394  3.0764
  558MOL0     H73636  11.469   7.901   3.187  0.2350 -1.3449 -1.4941
  558MOL0     H73637  11.321   7.979   3.224 -0.0841 -0.3371 -2.9763
  558MOL0     H73638  11.591   8.059   4.199  1.1832  1.1838 -3.4489
  558MOL0     H73639  11.489   8.037   4.418  1.0374  0.4675  0.9271
  558MOL0     H73640  11.296   8.200   4.803  2.0387 -0.4198 -2.1656
  558MOL0     H73641  11.211   8.127   5.008 -0.1230  3.1615  0.1905
  558MOL0     H73642  11.150   8.236   6.786 -1.3923  1.0926  1.0060
  558MOL0     H73643  11.011   8.272   6.983  2.5039  2.3322 -1.1553
  558MOL0     H73644  10.580   8.323   7.241  1.2844 -2.6143 -2.4796
  558MOL0     H73645  10.493   8.307   7.456 -2.5079 -2.2866 -1.6768
  558MOL0     H73646  10.370   8.101   7.596 -1.1376 -0.0232  1.4554
  558MOL0     H73647  10.418   8.254   7.673 -1.7277 -0.8358  1.7556
  558MOL0     H73648  10.364   7.964   7.767 -3.6603  0.3155  1.4834
  558MOL0     H73649  10.420   8.103   7.879  0.2535  0.3888  1.0082
  558MOL0     H73650  10.178   8.109   7.704  0.7088 -3.1230  0.3719
  558MOL0     H73651  10.241   8.235   7.811  0.2965 -0.1632  0.1157
  558MOL0     H73652  10.142   7.960   7.878 -0.1064  0.0592 -3.5889
  558MOL0     H73653  10.214   8.074   7.999  2.1819  1.9235 -1.7111
  558MOL0     H73654   9.848   8.244   8.017  3.0655  0.6223  5.9431
  558MOL0     H73655  10.798   8.038   7.579 -1.8782  0.4514  0.1568
  558MOL0     H73656  10.902   8.040   7.366  3.2941  2.3502  3.8197
  559MOL0     O73657   4.821   4.132   5.714 -0.2995  0.1441  0.0879
  559MOL0     C73658   4.935   4.117   5.669  0.2755  0.3183  0.0451
  559MOL0     O73659   4.979   4.189   5.568 -0.2942  0.2341 -0.4494
  559MOL0     C73660   4.906   4.286   5.510  0.7338 -0.7996 -0.2459
  559MOL0     C73661   4.874   4.412   5.561 -0.3647  1.1570  0.0772
  559MOL0     C73662   4.802   4.505   5.486 -0.1933 -0.3263 -0.2140
  559MOL0     C73663   4.777   4.487   5.348 -0.0498  0.0560  0.2503
  559MOL0     O73664   4.709   4.590   5.277 -0.2013  0.8255  0.1386
  559MOL0     C73665   4.700   4.722   5.333 -0.2298  0.5977  0.0328
  559MOL0     C73666   4.638   4.823   5.234 -0.4650 -0.0375  0.0458
  559MOL0     C73667   4.750   4.868   5.147 -0.2005 -0.7635 -0.2813
  559MOL0     C73668   4.817   4.756   5.063  0.4987  0.1313  0.5557
  559MOL0     C73669   4.931   4.823   4.983 -0.0774 -0.5676 -0.9739
  559MOL0     C73670   5.011   4.724   4.906  0.2237 -0.2373  0.4258
  559MOL0     C73671   5.085   4.611   4.982 -0.0010 -0.7235  0.3583
  559MOL0     C73672   5.188   4.660   5.099 -0.5878  0.1883  0.0941
  559MOL0     N73673   5.287   4.744   5.036 -0.3848  0.1810  0.3820
  559MOL0     C73674   5.365   4.717   4.918  0.5178  0.1975 -0.0157
  559MOL0     C73675   5.414   4.841   4.892 -0.1624 -0.4403 -0.6383
  559MOL0     C73676   5.504   4.884   4.778  0.3422  0.0470 -0.1639
  559MOL0     C73677   5.649   4.832   4.808 -0.8078  1.0580  0.8141
  559MOL0     C73678   5.723   4.917   4.920 -0.2905  0.0194  0.2739
  559MOL0     C73679   5.726   5.073   4.885 -0.0207  0.3677  0.4559
  559MOL0     O73680   5.835   5.157   4.932 -0.1664 -0.1849  0.9425
  559MOL0     C73681   5.857   5.282   4.886 -0.0075  0.7915 -0.2860
  559MOL0     C73682   5.760   5.362   4.824 -0.4943  0.0517  0.3204
  559MOL0     C73683   5.789   5.497   4.794  0.4979 -0.1655 -1.2533
  559MOL0     C73684   5.926   5.542   4.815  0.7932  0.1946  0.5358
  559MOL0     C73685   5.988   5.674   4.766 -0.3737 -0.0694 -0.5427
  559MOL0     O73686   6.089   5.717   4.859  0.6383 -0.1706  0.2118
  559MOL0     C73687   6.137   5.854   4.855  0.3016  0.7824 -0.7204
  559MOL0     C73688   6.060   5.962   4.817 -0.5147 -0.1798  1.0806
  559MOL0     C73689   6.107   6.089   4.818 -0.2721 -1.0880 -0.0808
  559MOL0     C73690   6.244   6.118   4.849 -0.0196 -0.6048  0.1428
  559MOL0     O73691   6.290   6.253   4.838  0.4433  0.4813 -0.1777
  559MOL0     C73692   6.404   6.289   4.750  0.0797 -0.6845  0.3538
  559MOL0     C73693   6.463   6.424   4.786  0.0177 -0.2601  0.0179
  559MOL0     C73694   6.565   6.472   4.672 -0.4159  1.1278 -1.0624
  559MOL0     C73695   6.627   6.597   4.730 -1.0294 -0.3184 -0.2722
  559MOL0     C73696   6.743   6.645   4.644  0.0787  0.3719 -0.1336
  559MOL0     C73697   6.775   6.793   4.684  0.2340 -0.1806 -0.5509
  559MOL0     C73698   6.874   6.851   4.596 -0.1993 -0.2871 -0.0463
  559MOL0     C73699   6.923   6.990   4.631  0.6330  0.7004  0.2989
  559MOL0    Cl73700   7.034   6.987   4.762 -0.0211  0.2576 -0.3437
  559MOL0     C73701   6.330   6.011   4.877  0.0584 -1.0563 -0.4503
  559MOL0     C73702   6.273   5.881   4.883 -0.1779  0.0311  0.3530
  559MOL0     O73703   5.937   5.739   4.677  0.0920 -0.7793 -0.2487
  559MOL0     C73704   6.020   5.458   4.880 -0.0391  0.6036  0.2600
  559MOL0     C73705   5.985   5.325   4.916  0.2908  0.9300 -0.4809
  559MOL0     N73706   5.383   4.932   4.995  0.5804 -0.3394  0.4210
  559MOL0     N73707   5.304   4.869   5.072  0.9750  0.6792  0.9899
  559MOL0     C73708   4.816   4.362   5.293  0.1031 -0.5274  0.3778
  559MOL0     C73709   4.879   4.265   5.370  0.8181 -0.6249 -0.1562
  559MOL0     C73710   5.027   4.015   5.718  0.6385 -0.5280 -0.7813
  559MOL0     C73711   5.153   4.000   5.670 -0.4872  0.0983  0.7584
  559MOL0     C73712   5.254   3.921   5.730 -0.2099 -0.5737  0.2617
  559MOL0     C73713   5.215   3.838   5.826  0.1118 -0.8582 -0.3107
  559MOL0     O73714   5.319   3.760   5.879  0.0588 -0.9876  0.6431
  559MOL0     C73715   5.302   3.632   5.936 -0.3528 -1.0636 -0.3440
  559MOL0     C73716   5.269   3.541   5.819  0.6559  0.3792 -0.0207
  559MOL0     C73717   5.258   3.388   5.850 -0.9943 -0.8443  0.5486
  559MOL0     C73718   5.185   3.313   5.740 -0.2429  0.4736  1.0188
  559MOL0     C73719   5.043   3.345   5.738  0.0187  0.3553  0.3806
  559MOL0     C73720   4.927   3.381   5.739  0.0286  0.6852  0.7090
  559MOL0     C73721   5.085   3.836   5.876 -0.0496  0.0254  0.1834
  559MOL0     C73722   4.991   3.935   5.823 -0.3849  0.1978 -0.7116
  559MOL0     H73723   4.917   4.426   5.659 -0.4307 -0.7614  0.4049
  559MOL0     H73724   4.776   4.593   5.545 -3.1817 -0.2312 -1.4737
  559MOL0     H73725   4.788   4.776   5.368 -1.2362  1.5167  1.2869
  559MOL0     H73726   4.636   4.715   5.422 -1.2019  0.2379 -0.6803
  559MOL0     H73727   4.570   4.895   5.280  1.4691  0.4521  2.3346
  559MOL0     H73728   4.588   4.750   5.169  1.4924  0.0300 -1.6513
  559MOL0     H73729   4.825   4.917   5.211  0.6822 -1.9694 -0.3741
  559MOL0     H73730   4.698   4.935   5.078  0.1443 -0.2730 -0.0714
  559MOL0     H73731   4.869   4.696   5.138  0.7552  1.1277  1.2062
  559MOL0     H73732   4.751   4.714   4.988 -1.2501  1.1008  1.4895
  559MOL0     H73733   4.991   4.871   5.061 -2.8686 -2.6583  2.7833
  559MOL0     H73734   4.892   4.899   4.915 -0.9771  1.1842  1.3647
  559MOL0     H73735   5.092   4.784   4.864  0.2421 -0.4616  0.1324
  559MOL0     H73736   4.955   4.691   4.817  1.6157  2.0280 -1.3972
  559MOL0     H73737   5.020   4.540   5.033 -0.0191  1.2141  3.2689
  559MOL0     H73738   5.135   4.551   4.906  1.3273  0.0691  0.5691
  559MOL0     H73739   5.239   4.573   5.141 -1.6416 -0.3441  0.3006
  559MOL0     H73740   5.129   4.715   5.173  0.6440  1.4128  0.2046
  559MOL0     H73741   5.361   4.626   4.859 -0.8334  1.3425 -1.8236
  559MOL0     H73742   5.505   4.993   4.773  0.9687  0.0256 -4.1232
  559MOL0     H73743   5.466   4.858   4.679 -1.3358  2.5790 -0.2540
  559MOL0     H73744   5.714   4.827   4.720  1.0258 -0.1701  2.1660
  559MOL0     H73745   5.629   4.733   4.849 -1.3188  1.7170  2.2389
  559MOL0     H73746   5.669   4.905   5.015  1.7390 -1.2505  1.3587
  559MOL0     H73747   5.824   4.879   4.939 -0.1045  0.4883  0.2164
  559MOL0     H73748   5.641   5.117   4.937  0.3879  1.4187  0.2713
  559MOL0     H73749   5.716   5.098   4.779  1.9313 -0.1915  0.1022
  559MOL0     H73750   5.664   5.327   4.789  0.4052  0.0613 -2.4268
  559MOL0     H73751   5.723   5.562   4.739 -0.8270 -0.9068 -0.5892
  559MOL0     H73752   5.963   5.942   4.773 -0.6248 -1.1602  1.7194
  559MOL0     H73753   6.039   6.166   4.783  0.8036 -0.7002 -1.4300
  559MOL0     H73754   6.355   6.291   4.653 -3.1707  4.9640  1.6715
  559MOL0     H73755   6.489   6.219   4.752  0.2674 -0.4700  0.0287
  559MOL0     H73756   6.517   6.423   4.881  3.2673  1.8565 -1.6418
  559MOL0     H73757   6.382   6.496   4.800 -2.7035 -3.1254  0.4684
  559MOL0     H73758   6.511   6.483   4.577 -2.0973  2.2609 -0.0388
  559MOL0     H73759   6.650   6.403   4.667 -2.8071 -2.0103 -1.2422
  559MOL0     H73760   6.553   6.674   4.753  2.3489  2.8661  1.1832
  559MOL0     H73761   6.665   6.584   4.832 -0.3096  1.0920 -0.3269
  559MOL0     H73762   6.710   6.652   4.540 -1.4163  3.1414  0.4187
  559MOL0     H73763   6.826   6.576   4.658  0.0740  1.0045  4.7937
  559MOL0     H73764   6.812   6.794   4.787  1.5388  0.0256 -0.9941
  559MOL0     H73765   6.683   6.851   4.683  0.4417  0.1773  0.2722
  559MOL0     H73766   6.960   6.786   4.581 -0.4100 -0.8855  1.1823
  559MOL0     H73767   6.815   6.857   4.504 -0.2636  2.7306  0.1042
  559MOL0     H73768   6.842   7.058   4.660  1.9443  2.5598 -0.2752
  559MOL0     H73769   6.967   7.034   4.541 -1.4016  0.1764 -1.0280
  559MOL0     H73770   6.429   6.031   4.918 -1.0834  1.0452  1.4699
  559MOL0     H73771   6.345   5.805   4.910  3.0915  3.0357  0.7577
  559MOL0     H73772   6.124   5.486   4.891  0.7606 -2.1244  0.4630
  559MOL0     H73773   6.065   5.259   4.947  0.4962  1.6727  0.6104
  559MOL0     H73774   4.812   4.350   5.185 -1.7076  0.0265  0.3463
  559MOL0     H73775   4.914   4.173   5.326  1.0129 -0.4207 -0.4344
  559MOL0     H73776   5.187   4.059   5.586 -1.2176 -3.0603 -1.9767
  559MOL0     H73777   5.355   3.926   5.693 -0.5686 -0.9639 -0.8047
  559MOL0     H73778   5.225   3.633   6.013  1.0656  0.8253  1.1434
  559MOL0     H73779   5.391   3.616   5.998 -1.3429 -0.6748  1.2096
  559MOL0     H73780   5.171   3.568   5.779 -1.9153 -4.9242  1.7658
  559MOL0     H73781   5.350   3.553   5.746 -0.5801 -0.9688 -1.6951
  559MOL0     H73782   5.214   3.369   5.948 -0.8981  4.0998  1.8147
  559MOL0     H73783   5.356   3.338   5.852 -1.6729 -2.1883  1.0572
  559MOL0     H73784   5.220   3.346   5.642  4.8933  0.7978  2.6435
  559MOL0     H73785   5.211   3.207   5.749 -0.3866  0.0615 -2.2934
  559MOL0     H73786   4.824   3.411   5.739 -0.2061 -0.0608 -0.2975
  559MOL0     H73787   5.052   3.778   5.961  3.8118  2.3706  3.5925
  559MOL0     H73788   4.890   3.940   5.861 -0.7636  0.2745 -1.6967
  560MOL0     O73789   8.198  10.099  10.079 -0.4709 -0.9137  0.5458
  560MOL0     C73790   8.222   9.999  10.017 -0.0848 -0.1285 -0.1505
  560MOL0     O73791   8.272   9.887  10.071  1.2047 -0.9658  1.4341
  560MOL0     C73792   8.283   9.885  10.205 -0.2960  0.9448  1.1674
  560MOL0     C73793   8.172   9.885  10.290 -0.6693  0.0625 -0.3063
  560MOL0     C73794   8.193   9.867  10.431 -0.2908 -0.3264  0.4142
  560MOL0     C73795   8.317   9.863  10.489 -0.9419 -0.5249 -0.1153
  560MOL0     O73796   8.336   9.838  10.626 -0.4392  0.2212  0.3327
  560MOL0     C73797   8.475   9.837  10.678  0.2478  0.3251  0.5313
  560MOL0     C73798   8.474   9.795  10.821  0.1361 -0.5729  0.4490
  560MOL0     C73799   8.447   9.644  10.842 -0.2329 -0.6795 -0.1755
  560MOL0     C73800   8.411   9.609  10.986  0.0372  0.3095 -0.2703
  560MOL0     C73801   8.407   9.458  11.022  0.3242 -0.6520 -0.2688
  560MOL0     C73802   8.423   9.451  11.168 -0.6424  0.4400 -1.1249
  560MOL0     C73803   8.345   9.330  11.225  0.2544 -0.7623 -0.1475
  560MOL0     C73804   8.420   9.197  11.232 -0.3364  0.3514  0.3285
  560MOL0     N73805   8.411   9.129  11.098  0.5793  0.6929  0.1467
  560MOL0     C73806   8.303   9.095  11.009  0.3999  1.2896 -0.0542
  560MOL0     C73807   8.358   9.011  10.917 -0.2231  0.1605  0.2895
  560MOL0     C73808   8.295   8.941  10.801  0.0055 -0.7308 -0.3417
  560MOL0     C73809   8.182   8.829  10.835 -0.4461 -0.1147 -0.1119
  560MOL0     C73810   8.058   8.891  10.881  0.3521  0.4400  0.1483
  560MOL0     C73811   7.954   8.794  10.945  0.0132  0.2666 -0.9217
  560MOL0     O73812   7.859   8.882  11.010 -0.0897  0.2506 -0.6945
  560MOL0     C73813   7.733   8.837  10.999  0.1827  0.4441  0.6815
  560MOL0     C73814   7.636   8.904  10.926  0.2608 -0.1391 -0.4324
  560MOL0     C73815   7.506   8.860  10.901 -0.1510  0.7463  0.1050
  560MOL0     C73816   7.461   8.737  10.953 -0.1033  0.3007 -0.5372
  560MOL0     C73817   7.335   8.662  10.933 -0.2616  0.4360 -0.1504
  560MOL0     O73818   7.291   8.587  11.035 -0.4528 -0.0329 -0.7387
  560MOL0     C73819   7.177   8.512  11.005  0.1050  0.0061  0.4729
  560MOL0     C73820   7.181   8.373  10.981  0.4892  0.0862  0.1393
  560MOL0     C73821   7.064   8.297  10.971  0.2148  0.0495  0.8883
  560MOL0     C73822   6.937   8.362  10.986 -0.0442  0.4658  0.4265
  560MOL0     O73823   6.816   8.305  10.987  1.1282 -0.3615  0.0654
  560MOL0     C73824   6.787   8.175  10.934  0.9227  0.9756  0.5621
  560MOL0     C73825   6.630   8.168  10.919 -0.5837 -0.6823 -0.0037
  560MOL0     C73826   6.568   8.174  11.068 -0.0138 -0.3082  0.2791
  560MOL0     C73827   6.414   8.153  11.074 -0.8102 -0.5874 -0.3694
  560MOL0     C73828   6.363   8.007  11.088 -0.1997 -1.0118  0.6276
  560MOL0     C73829   6.422   7.935  11.204 -0.7685  0.1208 -0.7054
  560MOL0     C73830   6.353   7.797  11.221 -0.0966  0.2941 -0.1302
  560MOL0     C73831   6.432   7.706  11.323 -0.6073  0.6192 -0.4636
  560MOL0    Cl73832   6.493   7.789  11.469  0.5390 -0.0490  0.1140
  560MOL0     C73833   6.944   8.501  11.010  0.2660 -0.3664  0.9756
  560MOL0     C73834   7.061   8.569  11.012  0.6581  0.5637  0.2113
  560MOL0     O73835   7.294   8.673  10.821 -0.4197  0.4741  0.2470
  560MOL0     C73836   7.561   8.668  11.030  0.3734 -0.1609 -0.3346
  560MOL0     C73837   7.687   8.715  11.060  0.0463 -1.2784  0.3389
  560MOL0     N73838   8.496   9.012  10.931  0.0136  0.3089 -0.7300
  560MOL0     N73839   8.525   9.078  11.038 -0.1064  0.2892 -0.4828
  560MOL0     C73840   8.424   9.874  10.402  0.8009 -0.5645  0.7754
  560MOL0     C73841   8.408   9.883  10.259 -0.0511  0.4870  0.2562
  560MOL0     C73842   8.165   9.990   9.877 -0.1832 -0.8633 -0.3689
  560MOL0     C73843   8.110  10.098   9.814  0.7981 -0.2711 -0.3561
  560MOL0     C73844   8.055  10.098   9.688 -0.6614 -0.4244 -0.3974
  560MOL0     C73845   8.051   9.977   9.617  0.3901  0.3409  0.3223
  560MOL0     O73846   8.000   9.965   9.488  0.6626  0.5735  1.0509
  560MOL0     C73847   7.967   9.833   9.432  0.4121 -0.6353  0.3842
  560MOL0     C73848   7.861   9.845   9.321 -0.7464  0.0055 -0.1591
  560MOL0     C73849   7.735   9.929   9.353 -1.8004 -0.5237  0.4257
  560MOL0     C73850   7.660   9.898   9.478  0.8473  0.5008 -0.5693
  560MOL0     C73851   7.548   9.988   9.494  0.1306  0.6107 -0.0156
  560MOL0     C73852   7.450  10.061   9.482 -0.5471  1.0137  0.3638
  560MOL0     C73853   8.111   9.863   9.676 -0.3075 -0.5292 -0.3128
  560MOL0     C73854   8.174   9.870   9.806  0.6898  0.1210  0.5322
  560MOL0     H73855   8.078   9.898  10.238  0.7746  4.1308 -2.3826
  560MOL0     H73856   8.114   9.878  10.504 -1.9305 -1.8755 -1.0262
  560MOL0     H73857   8.518   9.937  10.676 -2.8003  1.7729 -2.4871
  560MOL0     H73858   8.534   9.765  10.620 -0.9744 -1.0489  0.9084
  560MOL0     H73859   8.405   9.863  10.871  1.0076  0.8766 -0.2533
  560MOL0     H73860   8.569   9.821  10.868 -0.5044  0.4201  1.2357
  560MOL0     H73861   8.536   9.598  10.798  1.2223  0.2722  1.6203
  560MOL0     H73862   8.357   9.606  10.793 -1.0382  1.8937 -0.8554
  560MOL0     H73863   8.487   9.665  11.041  2.4507  0.6620 -3.6313
  560MOL0     H73864   8.314   9.655  11.004 -0.0337  1.3969 -2.9775
  560MOL0     H73865   8.487   9.402  10.972  0.5299 -0.7414  0.1546
  560MOL0     H73866   8.319   9.411  10.978  1.0285 -1.6757 -0.6167
  560MOL0     H73867   8.378   9.531  11.227  2.4296  0.3772  1.5916
  560MOL0     H73868   8.527   9.451  11.202 -1.4634 -0.1355  1.6739
  560MOL0     H73869   8.323   9.363  11.327 -0.6848  1.0436 -0.8934
  560MOL0     H73870   8.245   9.326  11.183  0.8003 -2.4163 -1.3890
  560MOL0     H73871   8.376   9.142  11.315  3.1955  0.7699  2.7083
  560MOL0     H73872   8.524   9.214  11.260 -1.0697  2.8490  1.8270
  560MOL0     H73873   8.200   9.125  11.024  0.5170  0.8913  1.7439
  560MOL0     H73874   8.384   8.902  10.752  0.6014 -0.5327  0.5651
  560MOL0     H73875   8.241   9.009  10.734 -0.9110 -1.6653 -0.5846
  560MOL0     H73876   8.222   8.767  10.915 -2.6136 -1.0352  0.3318
  560MOL0     H73877   8.163   8.780  10.740 -1.2502 -1.4296  0.7060
  560MOL0     H73878   8.090   8.981  10.934 -0.4041  1.7624 -1.5228
  560MOL0     H73879   8.004   8.932  10.795  1.6480  1.6428 -0.1243
  560MOL0     H73880   8.000   8.713  11.003 -1.5516  0.2700  0.3843
  560MOL0     H73881   7.905   8.750  10.858 -3.2253  0.0165  0.8782
  560MOL0     H73882   7.654   9.004  10.889  1.5783  0.2548  1.1765
  560MOL0     H73883   7.431   8.914  10.844 -0.4263 -0.4536 -0.6959
  560MOL0     H73884   7.276   8.324  10.965  1.7598  2.1897  0.8405
  560MOL0     H73885   7.078   8.191  10.956  2.0905  0.4666 -0.7516
  560MOL0     H73886   6.822   8.094  10.998 -0.6973 -0.5642 -0.3909
  560MOL0     H73887   6.830   8.163  10.834 -6.1565  3.2791 -3.4683
  560MOL0     H73888   6.608   8.079  10.859 -1.8850  0.4643 -1.3129
  560MOL0     H73889   6.602   8.258  10.863  2.2299  1.4149  1.6746
  560MOL0     H73890   6.579   8.273  11.111  0.8184  0.2253 -1.0994
  560MOL0     H73891   6.629   8.108  11.131  2.1902  1.5442  0.2210
  560MOL0     H73892   6.365   8.211  11.153 -2.6996 -0.1316 -1.7767
  560MOL0     H73893   6.380   8.196  10.979  2.5840 -0.2494 -1.5471
  560MOL0     H73894   6.416   7.959  11.005  0.7972  0.5393  0.3204
  560MOL0     H73895   6.254   8.015  11.087 -0.0834  1.3938  1.7435
  560MOL0     H73896   6.406   7.995  11.294  0.2270  1.4839 -1.3882
  560MOL0     H73897   6.529   7.916  11.191 -1.4054 -4.3591 -0.8949
  560MOL0     H73898   6.253   7.817  11.262  1.2356  1.6193  2.7674
  560MOL0     H73899   6.347   7.748  11.123 -0.9678  1.1737 -0.5334
  560MOL0     H73900   6.513   7.650  11.274  0.7748  2.0177  0.1452
  560MOL0     H73901   6.358   7.631  11.351  0.3974 -0.3600 -0.3645
  560MOL0     H73902   6.850   8.552  11.030 -0.9523 -1.8867 -0.4720
  560MOL0     H73903   7.061   8.677  11.022  5.1492  1.0605 -2.2064
  560MOL0     H73904   7.551   8.562  11.055 -0.5896 -0.1791 -0.7421
  560MOL0     H73905   7.760   8.660  11.120  2.9468  1.6875 -0.1911
  560MOL0     H73906   8.527   9.852  10.428  0.4375 -1.0682  1.8478
  560MOL0     H73907   8.502   9.854  10.213 -0.8783 -3.4146  0.6331
  560MOL0     H73908   8.097  10.189   9.873 -1.8106  0.1226 -1.4293
  560MOL0     H73909   8.024  10.197   9.655 -0.1584 -0.3163 -0.5456
  560MOL0     H73910   7.924   9.771   9.512 -1.5148  0.7769  0.5186
  560MOL0     H73911   8.052   9.770   9.405 -1.1843 -2.8489  0.1586
  560MOL0     H73912   7.902   9.893   9.232 -0.1203  1.3276  0.8128
  560MOL0     H73913   7.816   9.749   9.294 -1.0805 -0.4174  1.7557
  560MOL0     H73914   7.670   9.927   9.265 -3.1157  0.5755  1.3357
  560MOL0     H73915   7.766  10.033   9.338 -0.9555 -1.0308 -1.7238
  560MOL0     H73916   7.618   9.797   9.471  3.2437 -0.5945 -0.1118
  560MOL0     H73917   7.725   9.919   9.563  1.0995  0.3858 -0.7317
  560MOL0     H73918   7.389  10.147   9.464  0.1543  1.6699  1.0496
  560MOL0     H73919   8.133   9.770   9.623  0.9180 -2.2287  2.9139
  560MOL0     H73920   8.242   9.791   9.836  4.5066  0.7914 -4.8491
  561MOL0     O73921   4.032   3.992   8.874  0.2621 -0.2953  0.4025
  561MOL0     C73922   4.109   3.981   8.969  0.9096  0.4375 -0.1227
  561MOL0     O73923   4.174   3.859   9.004  0.5756 -0.1302  0.0753
  561MOL0     C73924   4.124   3.743   8.957  0.2560  0.5424  0.5970
  561MOL0     C73925   4.218   3.650   8.899  0.2461  0.8138  0.4544
  561MOL0     C73926   4.173   3.533   8.851 -0.2553 -0.8773  0.2076
  561MOL0     C73927   4.045   3.508   8.849  0.3413  0.0662  0.8901
  561MOL0     O73928   4.020   3.397   8.776 -0.1614 -0.6186  0.7902
  561MOL0     C73929   3.893   3.355   8.732 -0.4535 -0.8240  0.5457
  561MOL0     C73930   3.873   3.247   8.630 -0.1102  0.3422  0.3427
  561MOL0     C73931   3.955   3.268   8.503  0.0763  1.1243  0.3799
  561MOL0     C73932   3.897   3.192   8.381  0.2662  0.0787 -0.5386
  561MOL0     C73933   3.975   3.232   8.252 -0.2692  0.8184 -0.3132
  561MOL0     C73934   3.928   3.141   8.141  0.2359 -0.0243 -0.7729
  561MOL0     C73935   3.966   3.208   8.012 -0.6643 -0.1387  0.1813
  561MOL0     C73936   3.888   3.145   7.890  0.0869  0.1162  1.1848
  561MOL0     N73937   3.920   3.003   7.861  0.1782  0.0940 -0.0850
  561MOL0     C73938   4.040   2.957   7.826 -0.9160  0.1937 -0.1107
  561MOL0     C73939   4.025   2.830   7.786  0.1885  0.2337  0.7246
  561MOL0     C73940   4.130   2.770   7.710 -0.3168  0.0736  0.6319
  561MOL0     C73941   4.166   2.845   7.575  0.1290 -0.5482 -0.3105
  561MOL0     C73942   4.040   2.893   7.496  0.3627 -0.0650  0.5524
  561MOL0     C73943   4.095   2.966   7.371 -0.3523  0.0750  0.5203
  561MOL0     O73944   3.980   3.014   7.302  0.3349  0.0551  0.0790
  561MOL0     C73945   4.011   3.100   7.199 -0.1450  0.9269 -0.6457
  561MOL0     C73946   4.094   3.057   7.090 -0.6343  0.9359  0.6598
  561MOL0     C73947   4.118   3.145   6.978  0.7828  0.8136  0.2137
  561MOL0     C73948   4.049   3.267   6.978  0.2682  0.5681 -0.5535
  561MOL0     C73949   4.060   3.367   6.868 -1.1523 -0.0383  0.1048
  561MOL0     O73950   3.961   3.461   6.862  0.2584 -0.2905  0.1349
  561MOL0     C73951   3.973   3.566   6.774 -0.1261 -0.0144 -0.0093
  561MOL0     C73952   4.074   3.659   6.778 -0.2719  0.0751 -0.0135
  561MOL0     C73953   4.064   3.766   6.687 -0.7870  0.5251  0.2250
  561MOL0     C73954   3.964   3.794   6.596 -0.1563 -0.4318  0.2085
  561MOL0     O73955   3.966   3.891   6.504  0.0027 -0.4734 -0.2008
  561MOL0     C73956   3.830   3.931   6.456 -0.5353  1.0432 -0.3152
  561MOL0     C73957   3.840   4.055   6.378  0.6204  0.5126  0.4489
  561MOL0     C73958   3.719   4.079   6.292  0.6569 -1.0295  0.0399
  561MOL0     C73959   3.750   4.201   6.197 -0.4164 -0.0681 -0.8204
  561MOL0     C73960   3.626   4.288   6.171  1.1812  0.6929 -0.3655
  561MOL0     C73961   3.650   4.438   6.148  0.2389 -0.4738 -0.2898
  561MOL0     C73962   3.731   4.465   6.024 -0.0556 -0.9004 -0.0492
  561MOL0     C73963   3.761   4.617   6.007  0.4812  0.5380  0.6022
  561MOL0    Cl73964   3.858   4.624   5.846  0.0327  0.1938  0.1124
  561MOL0     C73965   3.881   3.693   6.581  0.7718  0.2294 -0.4933
  561MOL0     C73966   3.878   3.580   6.671  0.6340  0.2625 -0.6816
  561MOL0     O73967   4.152   3.360   6.787  0.2512  0.0542 -0.8578
  561MOL0     C73968   3.969   3.313   7.087 -1.2377 -0.4191  0.5996
  561MOL0     C73969   3.949   3.221   7.191 -0.9363 -0.0570  0.8922
  561MOL0     N73970   3.890   2.798   7.792 -0.5741 -0.5723 -0.3708
  561MOL0     N73971   3.832   2.905   7.853  0.3173  0.1254  0.2316
  561MOL0     C73972   3.947   3.594   8.903  0.6302  1.3412 -0.3071
  561MOL0     C73973   3.987   3.715   8.955  0.0271  0.2381  0.0796
  561MOL0     C73974   4.125   4.096   9.063  0.0749 -0.1959  0.5806
  561MOL0     C73975   4.077   4.227   9.033  0.1717  1.6377 -0.2191
  561MOL0     C73976   4.094   4.333   9.122 -0.3531 -0.7435 -1.2869
  561MOL0     C73977   4.151   4.321   9.247  0.1670 -0.0873  0.2382
  561MOL0     O73978   4.147   4.411   9.343  0.4673  0.3908  0.4273
  561MOL0     C73979   4.280   4.458   9.383 -0.9902 -0.4365 -0.0575
  561MOL0     C73980   4.262   4.587   9.461  0.5499  0.2157  0.0640
  561MOL0     C73981   4.178   4.696   9.392 -0.7770  0.4158 -0.6092
  561MOL0     C73982   4.243   4.733   9.259 -0.3181  0.6817  0.5700
  561MOL0     C73983   4.378   4.791   9.262 -1.7176  1.1273 -0.6371
  561MOL0     C73984   4.486   4.844   9.268 -1.0085 -0.8484  0.4021
  561MOL0     C73985   4.190   4.189   9.275 -1.0477 -0.7480  0.5210
  561MOL0     C73986   4.180   4.077   9.190  0.8600  0.0478  0.1649
  561MOL0     H73987   4.321   3.683   8.908  0.2442  1.4851 -1.5382
  561MOL0     H73988   4.253   3.473   8.808  0.1455 -1.8980  2.2236
  561MOL0     H73989   3.839   3.441   8.690 -0.7019 -1.8153 -1.2313
  561MOL0     H73990   3.856   3.334   8.833  0.6806  0.1610  1.2058
  561MOL0     H73991   3.771   3.227   8.597  0.2321 -0.2663 -0.3614
  561MOL0     H73992   3.904   3.156   8.682  2.7885  1.7251  1.2666
  561MOL0     H73993   4.058   3.238   8.528  0.1227  0.0387 -0.9837
  561MOL0     H73994   3.967   3.371   8.469 -0.9420  0.5004 -2.0994
  561MOL0     H73995   3.913   3.086   8.400  1.6727  0.6780  2.1741
  561MOL0     H73996   3.795   3.229   8.370  0.1169  0.7341  2.3859
  561MOL0     H73997   4.082   3.211   8.247 -0.3241  0.9058 -3.0562
  561MOL0     H73998   3.945   3.335   8.230 -0.5941  0.4075 -1.8696
  561MOL0     H73999   3.820   3.121   8.145  0.5353 -1.6727 -0.1714
  561MOL0     H74000   3.979   3.045   8.138  4.4778  2.0148 -0.3822
  561MOL0     H74001   3.939   3.314   8.009 -0.6417 -0.1038  1.1754
  561MOL0     H74002   4.075   3.202   8.007 -0.5851  0.8242  0.4779
  561MOL0     H74003   3.904   3.209   7.803 -2.4174  0.9916  1.3133
  561MOL0     H74004   3.783   3.153   7.917 -0.7996 -1.2273 -1.4912
  561MOL0     H74005   4.124   3.024   7.814 -1.9011  1.5407  0.2365
  561MOL0     H74006   4.091   2.673   7.678  1.6285  0.0424 -1.9891
  561MOL0     H74007   4.214   2.771   7.780  1.0233 -1.2866 -0.8737
  561MOL0     H74008   4.231   2.783   7.512 -0.1592 -1.1692 -0.0066
  561MOL0     H74009   4.215   2.940   7.595 -0.2324  0.5350 -3.8894
  561MOL0     H74010   3.990   2.802   7.463 -0.1854  0.9241 -1.5140
  561MOL0     H74011   3.974   2.958   7.555 -0.2672 -1.6506  1.6487
  561MOL0     H74012   4.145   2.884   7.318  0.5400  0.1116  1.2788
  561MOL0     H74013   4.170   3.040   7.399 -0.8967  0.1491  1.8619
  561MOL0     H74014   4.141   2.959   7.087 -0.6020  0.8670  2.3381
  561MOL0     H74015   4.181   3.124   6.891  0.2217 -2.4773  0.4582
  561MOL0     H74016   4.158   3.651   6.846 -0.9103  2.8644  1.2563
  561MOL0     H74017   4.145   3.838   6.699 -2.0367  1.7433  1.8148
  561MOL0     H74018   3.755   3.945   6.535  1.2070  1.8827  1.2650
  561MOL0     H74019   3.793   3.862   6.380  1.3220 -0.3018 -0.0661
  561MOL0     H74020   3.930   4.064   6.318  0.2844 -3.3915 -0.9041
  561MOL0     H74021   3.836   4.148   6.436  0.2942  0.6208  0.2567
  561MOL0     H74022   3.637   4.107   6.359  1.7224 -1.7585  1.7190
  561MOL0     H74023   3.679   3.997   6.231 -0.1784  0.2722 -1.2106
  561MOL0     H74024   3.823   4.270   6.241 -0.6930  0.8529 -1.7731
  561MOL0     H74025   3.788   4.151   6.108  0.3410  2.1146 -1.7902
  561MOL0     H74026   3.566   4.271   6.260 -0.7290 -0.0741 -1.7317
  561MOL0     H74027   3.556   4.256   6.093  1.1384  2.0241 -0.8863
  561MOL0     H74028   3.689   4.472   6.245  0.6348  0.7277 -0.8602
  561MOL0     H74029   3.557   4.496   6.152 -0.8701 -2.2273  0.6501
  561MOL0     H74030   3.823   4.408   6.033  1.5795  1.7856  1.4759
  561MOL0     H74031   3.659   4.432   5.948 -0.9357  0.4441  0.1720
  561MOL0     H74032   3.831   4.653   6.083 -1.0543  1.8185  1.4724
  561MOL0     H74033   3.674   4.683   6.016  1.5178  1.9239  0.8327
  561MOL0     H74034   3.795   3.691   6.515 -0.1840 -0.2111  0.7299
  561MOL0     H74035   3.795   3.514   6.647  0.4637  0.4370 -0.5802
  561MOL0     H74036   3.920   3.410   7.092 -3.6570 -1.4874 -0.8242
  561MOL0     H74037   3.873   3.252   7.263 -2.7981  3.0609 -2.1027
  561MOL0     H74038   3.841   3.573   8.912  0.6309  1.4268 -0.1015
  561MOL0     H74039   3.916   3.784   9.000 -1.0481 -1.6214  1.3995
  561MOL0     H74040   4.035   4.243   8.935  1.1102  2.3940 -0.5087
  561MOL0     H74041   4.061   4.431   9.090 -0.6915 -0.1625  0.7243
  561MOL0     H74042   4.355   4.461   9.303  1.4793  0.7255  2.1640
  561MOL0     H74043   4.328   4.380   9.443  1.0399 -0.7765 -2.0024
  561MOL0     H74044   4.221   4.558   9.558  0.9760  1.5178  0.6615
  561MOL0     H74045   4.359   4.634   9.482  0.5735 -0.4475  1.5339
  561MOL0     H74046   4.149   4.781   9.455  0.5695  1.8074 -1.7777
  561MOL0     H74047   4.083   4.643   9.377 -1.1592 -0.0229  2.7133
  561MOL0     H74048   4.258   4.645   9.195  2.0194 -0.1596  2.1691
  561MOL0     H74049   4.178   4.808   9.214 -0.1108  1.1733  1.0817
  561MOL0     H74050   4.583   4.890   9.266 -0.3790 -2.1028  0.9745
  561MOL0     H74051   4.238   4.158   9.367 -0.2301 -0.1025  0.3291
  561MOL0     H74052   4.218   3.979   9.217 -0.7235 -0.8822 -0.8996
  562MOL0     O74053   7.672   3.180   3.496  0.0216 -0.7011 -0.4904
  562MOL0     C74054   7.561   3.134   3.469  0.0872  0.2376 -0.0097
  562MOL0     O74055   7.528   3.078   3.350 -0.7666 -0.6156 -0.1472
  562MOL0     C74056   7.601   3.132   3.242 -0.8381  0.0452  0.4244
  562MOL0     C74057   7.732   3.104   3.211  0.6072 -0.1508 -1.2177
  562MOL0     C74058   7.787   3.137   3.085  0.2967 -0.2937 -0.3547
  562MOL0     C74059   7.719   3.230   3.001  0.0713  0.0107  0.1899
  562MOL0     O74060   7.792   3.271   2.890  0.5158  0.0825 -0.1861
  562MOL0     C74061   7.726   3.362   2.800  0.0536 -0.5291  0.0422
  562MOL0     C74062   7.806   3.391   2.672 -0.5611 -0.2280 -0.1450
  562MOL0     C74063   7.825   3.270   2.583  0.0378 -0.3971 -0.4233
  562MOL0     C74064   7.912   3.311   2.460 -0.4111 -0.8051 -0.8691
  562MOL0     C74065   7.945   3.203   2.355 -0.2714  0.9104 -0.5292
  562MOL0     C74066   7.969   3.049   2.405 -0.3132 -0.2770 -0.5090
  562MOL0     C74067   7.825   2.982   2.409 -0.4149  0.4867  0.0295
  562MOL0     C74068   7.831   2.833   2.386  0.8231  0.3637  0.0946
  562MOL0     N74069   7.703   2.760   2.400 -0.4863 -0.7015 -0.7403
  562MOL0     C74070   7.617   2.788   2.509 -0.1911 -0.8482  0.7843
  562MOL0     C74071   7.513   2.713   2.476 -0.5223  1.4863  0.4939
  562MOL0     C74072   7.408   2.667   2.572 -0.3028  0.5149 -0.6271
  562MOL0     C74073   7.330   2.790   2.638  0.1331 -0.5326  0.0912
  562MOL0     C74074   7.266   2.888   2.527  0.6592  0.3638 -0.4288
  562MOL0     C74075   7.142   2.832   2.452 -0.5855  0.3323  0.0354
  562MOL0     O74076   7.102   2.931   2.354  0.2813  0.0794  0.6527
  562MOL0     C74077   7.012   2.893   2.260  0.1905  0.7762 -0.0169
  562MOL0     C74078   6.894   2.820   2.288 -0.0292 -0.2288 -0.5785
  562MOL0     C74079   6.800   2.790   2.193  0.0018 -0.1248 -1.0904
  562MOL0     C74080   6.829   2.820   2.059  0.7418  1.3197 -0.1122
  562MOL0     C74081   6.734   2.782   1.944 -0.5911 -0.7177 -0.4812
  562MOL0     O74082   6.785   2.801   1.821  0.2482 -0.2183 -0.0164
  562MOL0     C74083   6.712   2.761   1.711 -0.1092  0.0363  0.7557
  562MOL0     C74084   6.631   2.650   1.694 -0.5368  1.0515  0.0909
  562MOL0     C74085   6.582   2.620   1.570 -0.8287 -0.8545  0.0054
  562MOL0     C74086   6.606   2.693   1.454 -0.2080  0.5107 -1.1473
  562MOL0     O74087   6.555   2.644   1.338 -1.7024  0.4736  0.4408
  562MOL0     C74088   6.540   2.718   1.220 -0.1039  0.0594  0.3444
  562MOL0     C74089   6.507   2.635   1.102 -0.0441  0.0579  0.4798
  562MOL0     C74090   6.397   2.540   1.130 -1.1494 -0.6957 -0.1009
  562MOL0     C74091   6.260   2.601   1.145 -0.3812 -0.2330 -0.1184
  562MOL0     C74092   6.151   2.489   1.179  0.5093  0.1553  0.6784
  562MOL0     C74093   6.003   2.538   1.173  1.1235  0.0101  0.3079
  562MOL0     C74094   5.973   2.650   1.276 -0.4848 -0.2563 -0.1018
  562MOL0     C74095   5.828   2.650   1.307 -0.2013  0.6194 -0.2432
  562MOL0    Cl74096   5.801   2.816   1.379 -0.1694  1.0736  0.6151
  562MOL0     C74097   6.683   2.807   1.471 -0.5097  0.2101  0.1657
  562MOL0     C74098   6.739   2.835   1.600 -0.1717  0.3367 -0.1894
  562MOL0     O74099   6.631   2.718   1.977 -0.0512 -0.3245  0.7903
  562MOL0     C74100   6.947   2.880   2.027 -0.7397 -0.8702  0.2977
  562MOL0     C74101   7.030   2.931   2.126 -0.9825  1.0145  0.4901
  562MOL0     N74102   7.534   2.651   2.349  1.0445  0.1089  0.4136
  562MOL0     N74103   7.644   2.695   2.301 -0.4950 -0.1885  0.1531
  562MOL0     C74104   7.595   3.274   3.047 -0.4067  0.4973  1.1533
  562MOL0     C74105   7.536   3.226   3.160  0.1224 -0.1384  0.0702
  562MOL0     C74106   7.448   3.146   3.558 -0.4529 -0.1526  0.4879
  562MOL0     C74107   7.313   3.107   3.521 -0.5373 -0.7873  0.5272
  562MOL0     C74108   7.215   3.105   3.619 -0.5544 -0.3185 -0.0276
  562MOL0     C74109   7.245   3.128   3.750  1.1510 -0.0833  0.0442
  562MOL0     O74110   7.141   3.124   3.850 -0.5643  0.0434  0.7519
  562MOL0     C74111   7.172   3.182   3.977 -0.1064  0.0460  0.7782
  562MOL0     C74112   7.059   3.148   4.073  0.5062  0.7735  0.6598
  562MOL0     C74113   7.090   3.207   4.215  0.4451 -0.2103  0.2018
  562MOL0     C74114   7.208   3.160   4.288 -0.0058 -0.8430  0.2822
  562MOL0     C74115   7.217   3.010   4.269  0.0964 -1.1645  0.1964
  562MOL0     C74116   7.225   2.892   4.291 -0.6767  0.4408  0.4275
  562MOL0     C74117   7.379   3.159   3.792 -0.6354 -0.1731  0.5481
  562MOL0     C74118   7.481   3.162   3.693  0.4110  0.9911 -0.5692
  562MOL0     H74119   7.796   3.050   3.280  1.0680  0.1410 -1.4067
  562MOL0     H74120   7.892   3.116   3.066  0.2750 -0.0051 -0.8021
  562MOL0     H74121   7.728   3.458   2.852 -3.1753  0.4276 -1.3941
  562MOL0     H74122   7.619   3.342   2.796 -0.4879  1.9466  0.6287
  562MOL0     H74123   7.906   3.421   2.706 -0.6435 -1.3817  1.1964
  562MOL0     H74124   7.762   3.476   2.619  2.8551  0.3884 -2.3369
  562MOL0     H74125   7.730   3.228   2.550  0.8499 -2.4837 -0.2742
  562MOL0     H74126   7.882   3.208   2.653  0.6424 -2.1248 -2.3656
  562MOL0     H74127   7.851   3.385   2.407 -0.4841 -1.2767 -1.4451
  562MOL0     H74128   8.006   3.352   2.497 -1.3368 -0.1188  0.8479
  562MOL0     H74129   8.042   3.225   2.308 -1.5309 -1.0297 -4.4772
  562MOL0     H74130   7.865   3.196   2.282 -1.9869  4.8993  0.6804
  562MOL0     H74131   8.015   3.044   2.504  0.7346 -1.0521 -1.0134
  562MOL0     H74132   8.031   3.004   2.327  0.0263  1.9243 -1.5613
  562MOL0     H74133   7.782   2.989   2.509 -0.2208 -1.1698  0.2570
  562MOL0     H74134   7.762   3.030   2.333 -0.7117  1.3103  0.7802
  562MOL0     H74135   7.895   2.782   2.458  0.1031 -1.8795 -0.7570
  562MOL0     H74136   7.867   2.800   2.288 -0.1665 -1.5425  0.3168
  562MOL0     H74137   7.638   2.846   2.598 -1.0228 -0.7891  0.9481
  562MOL0     H74138   7.454   2.625   2.662 -2.7369  0.9180  0.8901
  562MOL0     H74139   7.339   2.590   2.537 -0.2868  0.0555  0.3306
  562MOL0     H74140   7.395   2.848   2.704  0.4268  0.4831 -1.0403
  562MOL0     H74141   7.251   2.754   2.704  0.0510  0.3814  0.5026
  562MOL0     H74142   7.241   2.982   2.579 -3.4327 -0.7974  0.0502
  562MOL0     H74143   7.346   2.910   2.455  0.6351 -0.4566 -0.7109
  562MOL0     H74144   7.071   2.812   2.533  2.0821  1.9452  3.0064
  562MOL0     H74145   7.166   2.734   2.409  0.9777  1.1725 -1.1076
  562MOL0     H74146   6.873   2.796   2.392 -0.4226 -1.8495 -1.0070
  562MOL0     H74147   6.703   2.750   2.221  0.6174 -0.9502 -0.0414
  562MOL0     H74148   6.625   2.583   1.778 -2.9466  3.4952  2.0628
  562MOL0     H74149   6.538   2.522   1.567  1.2124 -1.8589 -3.4549
  562MOL0     H74150   6.636   2.764   1.197  0.9005 -1.2206  1.8248
  562MOL0     H74151   6.468   2.800   1.232 -0.6212 -0.4192  0.5314
  562MOL0     H74152   6.587   2.570   1.066  0.2811  0.8787 -0.3321
  562MOL0     H74153   6.474   2.700   1.021  0.0066  1.2871  1.4095
  562MOL0     H74154   6.423   2.488   1.223  2.3124 -0.2402 -0.6917
  562MOL0     H74155   6.380   2.468   1.050 -1.2702 -0.2485 -0.4791
  562MOL0     H74156   6.254   2.680   1.220 -1.2463 -1.7132  1.4510
  562MOL0     H74157   6.249   2.657   1.052  0.0518  2.1865  1.1898
  562MOL0     H74158   6.169   2.442   1.277 -1.2507  1.6154  1.7728
  562MOL0     H74159   6.166   2.404   1.112  0.5035  0.2469  0.5628
  562MOL0     H74160   5.934   2.456   1.195 -3.1715  2.9850 -0.7695
  562MOL0     H74161   5.972   2.570   1.073 -3.5060 -0.1985  1.4539
  562MOL0     H74162   6.029   2.632   1.368 -1.4537 -1.3208  0.3036
  562MOL0     H74163   6.015   2.743   1.236 -1.7382 -0.0515 -0.9964
  562MOL0     H74164   5.816   2.573   1.384  2.1419  0.9987  0.5728
  562MOL0     H74165   5.765   2.631   1.219  1.0463 -0.3817 -0.9656
  562MOL0     H74166   6.723   2.877   1.397  1.2251  1.5088  2.1918
  562MOL0     H74167   6.809   2.918   1.598 -1.2202  1.2758 -2.4957
  562MOL0     H74168   6.966   2.904   1.923 -2.7512 -0.0329  0.0778
  562MOL0     H74169   7.125   2.978   2.100 -0.2852 -1.5199 -2.1322
  562MOL0     H74170   7.531   3.351   3.004 -1.4380 -0.0193  1.7197
  562MOL0     H74171   7.433   3.247   3.186  0.4459  1.8536 -0.0701
  562MOL0     H74172   7.278   3.078   3.422 -0.8153  1.3407 -0.0513
  562MOL0     H74173   7.114   3.073   3.598 -0.7843  0.4369 -0.0744
  562MOL0     H74174   7.182   3.287   3.946  4.2456 -0.4465 -0.0852
  562MOL0     H74175   7.263   3.148   4.027  1.4785  3.3456  0.4354
  562MOL0     H74176   6.973   3.200   4.029  1.9680  2.2939 -0.5510
  562MOL0     H74177   7.041   3.041   4.081 -0.3937  0.8168 -0.5149
  562MOL0     H74178   7.005   3.178   4.277  0.5308 -1.0595 -0.0618
  562MOL0     H74179   7.086   3.315   4.203 -1.4056 -0.1922  0.8024
  562MOL0     H74180   7.299   3.204   4.246 -1.3194 -0.4828 -2.4224
  562MOL0     H74181   7.198   3.184   4.394 -3.3280 -0.0940 -0.0917
  562MOL0     H74182   7.228   2.786   4.306 -1.7471  0.5592  1.6974
  562MOL0     H74183   7.414   3.167   3.895 -0.4819  0.2482  0.4654
  562MOL0     H74184   7.581   3.182   3.729 -0.0371  1.4329  0.4624
  563MOL0     O74185   7.776   6.043   4.434 -0.0788  0.2882  1.0786
  563MOL0     C74186   7.904   6.035   4.426  0.2619  0.2071  0.1257
  563MOL0     O74187   7.977   5.985   4.532  0.0223 -0.3438 -0.3831
  563MOL0     C74188   7.915   5.947   4.655  0.5525 -0.2757  1.0781
  563MOL0     C74189   7.789   5.877   4.664  0.6572 -0.0531  0.6685
  563MOL0     C74190   7.744   5.825   4.797 -0.4302 -0.5116  0.1149
  563MOL0     C74191   7.818   5.853   4.907 -0.4646 -0.4178 -0.3476
  563MOL0     O74192   7.782   5.801   5.033 -0.0777 -0.7574  1.2319
  563MOL0     C74193   7.787   5.913   5.126  0.5423  0.2448 -0.2860
  563MOL0     C74194   7.723   5.877   5.260  0.7389  1.4419 -0.2143
  563MOL0     C74195   7.703   5.995   5.356  0.8688  0.4751  0.0758
  563MOL0     C74196   7.838   6.074   5.405 -0.0494 -0.2844  0.4325
  563MOL0     C74197   7.809   6.178   5.515 -0.2476 -0.0234 -0.8456
  563MOL0     C74198   7.915   6.176   5.628 -0.0214 -0.9895  0.3333
  563MOL0     C74199   7.899   6.059   5.731  0.3922 -0.4604  0.1246
  563MOL0     C74200   7.771   6.075   5.818 -0.1535  0.3711  0.4350
  563MOL0     N74201   7.647   6.021   5.770  0.6497  0.2794  0.0729
  563MOL0     C74202   7.628   5.893   5.731  0.1347  0.8224  0.6296
  563MOL0     C74203   7.505   5.890   5.674  0.7626  0.1119  0.5873
  563MOL0     C74204   7.440   5.770   5.627  0.7138 -0.0807  0.1267
  563MOL0     C74205   7.379   5.707   5.755  0.1078 -0.6457 -0.4663
  563MOL0     C74206   7.292   5.589   5.701 -0.0760  0.2322 -0.9333
  563MOL0     C74207   7.181   5.555   5.796  1.0337  0.2474 -0.1418
  563MOL0     O74208   7.086   5.657   5.802  0.5459 -0.4445 -0.3440
  563MOL0     C74209   6.975   5.641   5.885  0.4809 -0.5967  0.9499
  563MOL0     C74210   6.896   5.757   5.896  0.5483  1.0318  0.1844
  563MOL0     C74211   6.776   5.743   5.963  0.0230  0.7347 -0.4475
  563MOL0     C74212   6.732   5.620   6.027  0.3897  0.0082 -0.1719
  563MOL0     C74213   6.604   5.602   6.106  0.4095 -1.1998  0.4171
  563MOL0     O74214   6.563   5.477   6.146  0.3166  0.0308  0.1853
  563MOL0     C74215   6.464   5.467   6.236  0.8914 -0.0373 -0.7777
  563MOL0     C74216   6.336   5.440   6.190  0.0309  0.6231 -0.7344
  563MOL0     C74217   6.220   5.436   6.276 -0.1759 -1.0513  0.2512
  563MOL0     C74218   6.241   5.456   6.417 -0.8663 -0.0931  1.9836
  563MOL0     O74219   6.125   5.444   6.494 -0.4370 -0.6217  0.5541
  563MOL0     C74220   6.125   5.530   6.611 -0.1875 -0.1280 -0.4032
  563MOL0     C74221   5.989   5.543   6.675  0.3573 -0.2021  0.8247
  563MOL0     C74222   5.984   5.624   6.812 -0.4383 -0.1417  0.3209
  563MOL0     C74223   5.847   5.620   6.870  0.7909  0.2958  1.0663
  563MOL0     C74224   5.816   5.696   7.000  0.3931 -0.1011  0.5951
  563MOL0     C74225   5.668   5.667   7.039 -0.1583  0.2586  0.4467
  563MOL0     C74226   5.619   5.751   7.157  0.6075 -1.0293 -0.3105
  563MOL0     C74227   5.480   5.706   7.168 -0.0023  0.0292  0.2421
  563MOL0    Cl74228   5.363   5.760   7.051  0.5036  0.0989 -0.3132
  563MOL0     C74229   6.371   5.485   6.459 -1.1249 -0.5557 -0.3170
  563MOL0     C74230   6.481   5.497   6.374  0.2972  0.2773  0.2736
  563MOL0     O74231   6.547   5.705   6.126  0.0891 -0.4346 -1.1639
  563MOL0     C74232   6.813   5.505   6.005  0.2245  0.0761  0.3935
  563MOL0     C74233   6.934   5.517   5.934 -1.3548 -0.0427 -0.3496
  563MOL0     N74234   7.452   6.021   5.671 -0.2736  0.5591  0.8710
  563MOL0     N74235   7.546   6.103   5.727  0.0461 -0.5488  0.3310
  563MOL0     C74236   7.935   5.937   4.894 -0.0655 -0.2302  0.8067
  563MOL0     C74237   7.986   5.980   4.767 -0.4145  0.9999  0.2438
  563MOL0     C74238   7.979   6.065   4.307 -1.0101  0.3050 -0.4046
  563MOL0     C74239   7.924   6.097   4.185  0.5045  0.9973 -0.2848
  563MOL0     C74240   7.998   6.098   4.068  0.2171 -0.1630 -0.4697
  563MOL0     C74241   8.136   6.097   4.065  0.3417  0.4645  0.5246
  563MOL0     O74242   8.219   6.096   3.955 -0.2449 -0.0111  0.1291
  563MOL0     C74243   8.158   6.092   3.821  0.4821  0.1404  0.1195
  563MOL0     C74244   8.261   6.031   3.720 -0.5135 -0.3911  0.0994
  563MOL0     C74245   8.277   5.885   3.738 -0.5011 -0.2356  0.1088
  563MOL0     C74246   8.178   5.798   3.644 -0.7962  0.4264 -0.4563
  563MOL0     C74247   8.215   5.656   3.661 -0.8173 -0.0508  1.2085
  563MOL0     C74248   8.225   5.533   3.679  0.2008  0.7477 -0.3227
  563MOL0     C74249   8.196   6.071   4.185 -0.3322  0.7844 -0.2277
  563MOL0     C74250   8.124   6.062   4.305  0.5423 -0.5236  0.1038
  563MOL0     H74251   7.731   5.858   4.575  2.5057 -4.5681  0.2022
  563MOL0     H74252   7.645   5.781   4.790 -1.5707  1.9555 -0.2365
  563MOL0     H74253   7.733   5.989   5.070  1.3148 -0.6153 -2.2838
  563MOL0     H74254   7.887   5.951   5.151  0.7031 -1.0944  1.3094
  563MOL0     H74255   7.798   5.818   5.313  0.0659 -0.5603 -1.3872
  563MOL0     H74256   7.636   5.812   5.249  0.9730  0.9813  0.6227
  563MOL0     H74257   7.655   5.949   5.443  0.6604 -0.2373 -0.4060
  563MOL0     H74258   7.635   6.073   5.319 -0.5255  0.2241  1.9506
  563MOL0     H74259   7.922   6.010   5.432 -0.7152 -1.0275  0.8089
  563MOL0     H74260   7.865   6.128   5.314 -2.7973  1.1338  0.3513
  563MOL0     H74261   7.710   6.166   5.560  1.1819 -0.2087  2.5674
  563MOL0     H74262   7.815   6.276   5.469  1.4720  0.1752 -0.2504
  563MOL0     H74263   7.902   6.268   5.685 -0.3301 -0.5646 -0.4143
  563MOL0     H74264   8.015   6.168   5.584 -0.2310 -4.0594  0.1417
  563MOL0     H74265   7.886   5.959   5.691 -2.5925  0.0590 -0.4586
  563MOL0     H74266   7.982   6.059   5.802  0.2207  0.0008  0.3332
  563MOL0     H74267   7.756   6.182   5.832 -1.8034  0.2012  0.0858
  563MOL0     H74268   7.792   6.035   5.918 -4.0297 -1.5091  0.6905
  563MOL0     H74269   7.699   5.812   5.745 -0.9439 -0.5584 -1.4854
  563MOL0     H74270   7.512   5.705   5.576  1.3576 -1.6069  2.8119
  563MOL0     H74271   7.363   5.791   5.552 -1.9666 -0.1748  2.6784
  563MOL0     H74272   7.311   5.775   5.807  1.0434 -0.0482 -0.0062
  563MOL0     H74273   7.456   5.685   5.829 -0.4374  0.3270  0.3983
  563MOL0     H74274   7.245   5.601   5.603 -2.2073  1.9972  0.2063
  563MOL0     H74275   7.363   5.506   5.701  2.7430  2.2229  3.6522
  563MOL0     H74276   7.225   5.540   5.894 -0.0970 -1.5381  0.1381
  563MOL0     H74277   7.139   5.458   5.766 -2.4845  1.2125  1.1116
  563MOL0     H74278   6.937   5.848   5.854  2.1361  0.6945  0.9302
  563MOL0     H74279   6.712   5.829   5.980 -1.6103 -0.5639  0.2308
  563MOL0     H74280   6.313   5.405   6.089 -2.9510  0.9210 -0.2583
  563MOL0     H74281   6.124   5.406   6.234 -1.4899  3.5878 -0.6917
  563MOL0     H74282   6.160   5.630   6.583  1.0294 -0.8420 -1.5347
  563MOL0     H74283   6.204   5.497   6.679  2.8699  1.4965 -2.9296
  563MOL0     H74284   5.939   5.447   6.692 -1.8756  0.3062 -2.0471
  563MOL0     H74285   5.922   5.599   6.609  2.7440  1.4911 -0.2818
  563MOL0     H74286   6.013   5.727   6.791  0.2212 -0.6798 -1.6773
  563MOL0     H74287   6.058   5.580   6.880 -1.4646 -1.7449  0.4467
  563MOL0     H74288   5.772   5.651   6.797 -2.6438  2.3602  5.0364
  563MOL0     H74289   5.817   5.515   6.880  0.7451  0.1190 -0.7048
  563MOL0     H74290   5.837   5.801   6.981 -0.6525 -0.0399 -0.3538
  563MOL0     H74291   5.876   5.676   7.089  2.7722  0.3672 -0.8229
  563MOL0     H74292   5.667   5.560   7.065 -0.3168  0.6528  2.1787
  563MOL0     H74293   5.603   5.689   6.954  0.6961  1.3007  0.0461
  563MOL0     H74294   5.679   5.734   7.248  4.4389 -2.0483 -2.7879
  563MOL0     H74295   5.620   5.858   7.136 -3.6576 -0.2845  2.1033
  563MOL0     H74296   5.433   5.736   7.262 -3.4803 -0.7128 -1.1019
  563MOL0     H74297   5.477   5.597   7.159  1.4797 -0.1410  1.3261
  563MOL0     H74298   6.393   5.519   6.560 -2.8212 -0.1845 -0.0360
  563MOL0     H74299   6.567   5.536   6.427 -0.9491 -0.7871  3.3257
  563MOL0     H74300   6.789   5.406   6.044  1.6590 -1.2316 -1.8081
  563MOL0     H74301   7.002   5.432   5.925 -1.8842 -0.9335  2.8499
  563MOL0     H74302   8.006   5.964   4.971 -0.8492  2.9684  0.5523
  563MOL0     H74303   8.069   6.048   4.752  1.0785 -0.7541  0.3216
  563MOL0     H74304   7.817   6.087   4.174  0.6547 -0.6862 -0.5422
  563MOL0     H74305   7.946   6.093   3.973  1.4969 -0.1069 -1.1971
  563MOL0     H74306   8.149   6.198   3.793 -1.9494 -0.5308 -2.1130
  563MOL0     H74307   8.071   6.029   3.803  0.6264  0.3921 -1.6334
  563MOL0     H74308   8.224   6.051   3.619 -3.9735 -1.7866  0.9480
  563MOL0     H74309   8.357   6.081   3.733 -0.9268  0.5409 -0.3215
  563MOL0     H74310   8.270   5.859   3.844 -2.8207  1.4857  0.4478
  563MOL0     H74311   8.379   5.860   3.710 -0.6918 -1.6642  0.5894
  563MOL0     H74312   8.073   5.807   3.676 -0.7106  0.2293 -0.1167
  563MOL0     H74313   8.169   5.829   3.539 -1.5866 -0.3437 -0.6397
  563MOL0     H74314   8.226   5.432   3.714  2.0474  0.2806 -1.6022
  563MOL0     H74315   8.303   6.052   4.186 -0.6186 -1.4477 -2.5551
  563MOL0     H74316   8.172   6.034   4.399  3.2193  0.7148 -0.7993
  564MOL0     O74317   8.188   6.666   3.485  0.1100  0.0394  0.5996
  564MOL0     C74318   8.207   6.782   3.450 -0.3115  0.7578  0.3077
  564MOL0     O74319   8.229   6.821   3.314 -0.0907  0.2140 -0.7400
  564MOL0     C74320   8.191   6.733   3.217  0.1455  0.2036 -0.4302
  564MOL0     C74321   8.063   6.679   3.199  0.2205 -0.2238  0.2765
  564MOL0     C74322   8.023   6.587   3.097 -0.7117 -1.6108 -0.5643
  564MOL0     C74323   8.124   6.542   3.009  0.2972  0.5316 -0.0970
  564MOL0     O74324   8.095   6.445   2.914 -0.1346 -0.6335  0.1850
  564MOL0     C74325   8.180   6.336   2.916 -0.5074  0.0951  1.0172
  564MOL0     C74326   8.159   6.247   2.786 -0.0545  0.1663  0.7518
  564MOL0     C74327   8.184   6.322   2.650  0.2197 -0.3373 -0.4332
  564MOL0     C74328   8.151   6.235   2.533 -0.1319  0.2860 -0.3000
  564MOL0     C74329   8.222   6.284   2.401 -0.0068  0.8769 -0.1572
  564MOL0     C74330   8.372   6.252   2.389 -0.5644  0.8729  0.2278
  564MOL0     C74331   8.452   6.333   2.280  0.5281  0.1613  0.1169
  564MOL0     C74332   8.466   6.263   2.144  0.8285 -1.9779 -0.3379
  564MOL0     N74333   8.544   6.146   2.164 -0.2048  0.1662  0.4703
  564MOL0     C74334   8.499   6.021   2.156 -0.0002  0.0901  0.2157
  564MOL0     C74335   8.605   5.954   2.193 -0.1709 -0.1095  0.1545
  564MOL0     C74336   8.614   5.804   2.201 -0.3249 -0.9083  0.3664
  564MOL0     C74337   8.643   5.758   2.057 -0.4226 -1.0846 -0.0704
  564MOL0     C74338   8.667   5.611   2.051  0.6328 -0.2263 -0.1325
  564MOL0     C74339   8.695   5.555   1.912  0.1424  0.6851  0.6267
  564MOL0     O74340   8.717   5.410   1.917  0.0671  0.2320  0.2851
  564MOL0     C74341   8.750   5.334   1.804  0.9672 -0.0228  0.0603
  564MOL0     C74342   8.716   5.378   1.678  0.2016  0.0925 -0.6415
  564MOL0     C74343   8.720   5.299   1.568  0.1653  0.1012  0.4884
  564MOL0     C74344   8.781   5.174   1.561 -0.3114  0.0326  0.2804
  564MOL0     C74345   8.767   5.091   1.437 -0.3968 -0.2049  0.1861
  564MOL0     O74346   8.868   5.001   1.417  0.2376 -0.1086  0.2917
  564MOL0     C74347   8.867   4.929   1.298 -0.3183 -1.4046 -0.5711
  564MOL0     C74348   8.985   4.942   1.217 -0.3745  0.1926 -0.9974
  564MOL0     C74349   8.998   4.866   1.103 -0.3878 -1.3918 -0.2920
  564MOL0     C74350   8.886   4.806   1.041 -0.2915 -0.9128 -0.6042
  564MOL0     O74351   8.919   4.743   0.923  0.4981  0.1690  0.0910
  564MOL0     C74352   8.813   4.742   0.832 -0.5779  0.6424 -0.7711
  564MOL0     C74353   8.868   4.725   0.695  0.7342 -0.2371  0.3338
  564MOL0     C74354   8.976   4.829   0.651 -0.5485  0.4200 -0.5018
  564MOL0     C74355   9.035   4.816   0.498  0.7175 -0.4788  0.3677
  564MOL0     C74356   9.180   4.861   0.475  0.3577 -0.5963  0.7496
  564MOL0     C74357   9.229   4.822   0.339 -0.5752  0.5481  0.1871
  564MOL0     C74358   9.382   4.855   0.320  0.5947 -0.3960 -0.0998
  564MOL0     C74359   9.434   4.813   0.183  0.4309 -0.2951 -0.2480
  564MOL0    Cl74360   9.375   4.910   0.046  0.2678 -0.2080  0.0095
  564MOL0     C74361   8.756   4.806   1.108 -0.8306  0.0447  0.1269
  564MOL0     C74362   8.748   4.870   1.241  0.3889 -0.4619 -0.0918
  564MOL0     O74363   8.675   5.113   1.360  0.3473 -0.8861 -0.2744
  564MOL0     C74364   8.834   5.135   1.689  0.6413 -0.1290  0.5646
  564MOL0     C74365   8.811   5.208   1.806 -0.1175  0.0889 -1.4246
  564MOL0     N74366   8.717   6.032   2.199  0.4346  0.5288 -0.8094
  564MOL0     N74367   8.676   6.150   2.179 -0.0544  0.8147  0.9680
  564MOL0     C74368   8.252   6.595   3.012  0.1729  0.3337 -0.7915
  564MOL0     C74369   8.282   6.691   3.116 -0.3165  0.4166 -0.9733
  564MOL0     C74370   8.198   6.886   3.555 -0.4501 -0.5511  0.1485
  564MOL0     C74371   8.220   7.024   3.522 -0.1968  0.1227 -0.1013
  564MOL0     C74372   8.217   7.111   3.626 -0.9947  0.3325 -0.6005
  564MOL0     C74373   8.191   7.080   3.758 -0.0320  0.5015 -0.5854
  564MOL0     O74374   8.224   7.159   3.868 -0.2349  0.0709 -0.8046
  564MOL0     C74375   8.261   7.291   3.857  0.4108  0.0401 -0.8640
  564MOL0     C74376   8.278   7.344   3.999 -0.0848 -0.1161  0.3673
  564MOL0     C74377   8.149   7.331   4.091  0.6129  0.4770  0.3514
  564MOL0     C74378   8.051   7.427   4.044  0.5232  0.7524 -0.1557
  564MOL0     C74379   7.932   7.428   4.129  0.0895 -0.3294 -0.1833
  564MOL0     C74380   7.847   7.443   4.212 -0.3770  0.1748  0.6019
  564MOL0     C74381   8.167   6.950   3.787  0.2338  0.2828 -0.1877
  564MOL0     C74382   8.164   6.850   3.690 -0.5639  0.0488  0.3685
  564MOL0     H74383   7.990   6.702   3.275  1.9583 -1.2190  2.3529
  564MOL0     H74384   7.920   6.557   3.086 -0.5450 -2.1358 -0.7192
  564MOL0     H74385   8.153   6.269   2.998 -1.4820  0.0308  0.6551
  564MOL0     H74386   8.286   6.364   2.918 -0.0801 -1.3981  0.8625
  564MOL0     H74387   8.058   6.205   2.792  0.1149 -0.0988  2.1360
  564MOL0     H74388   8.228   6.163   2.791  0.3372  0.3857 -0.7039
  564MOL0     H74389   8.286   6.361   2.655 -0.4590  1.4001  2.8649
  564MOL0     H74390   8.124   6.414   2.649  1.3236  0.3977 -0.3996
  564MOL0     H74391   8.199   6.140   2.561 -0.5404  0.1843  0.0587
  564MOL0     H74392   8.044   6.226   2.517  0.1328  0.7145 -2.6162
  564MOL0     H74393   8.203   6.391   2.388 -0.2237  0.7782 -0.6813
  564MOL0     H74394   8.168   6.221   2.329  1.0778 -1.2893  0.8135
  564MOL0     H74395   8.389   6.150   2.353  0.8122  0.8840  0.7818
  564MOL0     H74396   8.422   6.263   2.486  1.2328 -3.1946 -0.0578
  564MOL0     H74397   8.402   6.429   2.264 -0.5668 -0.5732 -1.0884
  564MOL0     H74398   8.550   6.359   2.321  0.6626 -2.5092  1.7414
  564MOL0     H74399   8.519   6.335   2.081  1.2832 -1.3310  0.7369
  564MOL0     H74400   8.371   6.233   2.100 -0.7539 -0.7427  2.0134
  564MOL0     H74401   8.402   5.985   2.122  0.0978  1.6467 -1.9091
  564MOL0     H74402   8.514   5.773   2.233 -1.5303  0.5386 -1.7872
  564MOL0     H74403   8.693   5.772   2.269  3.7124  2.8177 -2.0883
  564MOL0     H74404   8.722   5.819   2.013  0.0698 -1.4009  0.3616
  564MOL0     H74405   8.566   5.777   1.982 -0.3865  2.5578  0.6515
  564MOL0     H74406   8.753   5.591   2.115  3.3518 -0.1522 -3.4524
  564MOL0     H74407   8.569   5.575   2.083 -0.5505  3.1531  0.4478
  564MOL0     H74408   8.784   5.601   1.868 -1.1046  1.2455 -1.4396
  564MOL0     H74409   8.604   5.561   1.852 -0.8209 -0.9539  1.8278
  564MOL0     H74410   8.661   5.471   1.682 -1.3864 -0.8202 -0.7389
  564MOL0     H74411   8.686   5.334   1.471  2.3732  0.3873 -0.2297
  564MOL0     H74412   9.065   5.005   1.255  1.0772 -1.3340 -1.3936
  564MOL0     H74413   9.095   4.866   1.055 -0.1585  2.3518 -0.1296
  564MOL0     H74414   8.766   4.841   0.832  0.2094  1.0935  1.8156
  564MOL0     H74415   8.734   4.667   0.848 -1.3375  1.1977 -1.7889
  564MOL0     H74416   8.785   4.730   0.624  0.1410  3.4596  1.1132
  564MOL0     H74417   8.906   4.622   0.686 -3.5454 -1.8429 -4.7923
  564MOL0     H74418   9.052   4.839   0.728  0.6087 -3.9764 -0.8066
  564MOL0     H74419   8.912   4.917   0.667 -0.5270  0.3784 -0.1860
  564MOL0     H74420   9.031   4.710   0.469 -0.6147 -0.1827 -0.6290
  564MOL0     H74421   8.964   4.870   0.436  1.8739 -2.2871 -2.7708
  564MOL0     H74422   9.243   4.807   0.547  0.5362 -4.1001 -1.7427
  564MOL0     H74423   9.177   4.970   0.476 -1.6226 -0.6081  0.2760
  564MOL0     H74424   9.164   4.871   0.265 -3.6488 -2.7742  0.4249
  564MOL0     H74425   9.210   4.715   0.331 -1.4587  0.7827 -1.4021
  564MOL0     H74426   9.418   4.958   0.321  1.4066 -0.6749 -0.3078
  564MOL0     H74427   9.445   4.793   0.384  3.0261  2.3823  0.3866
  564MOL0     H74428   9.413   4.706   0.174 -2.6000 -0.1066  2.7652
  564MOL0     H74429   9.543   4.827   0.186  0.3383  0.4488  2.9897
  564MOL0     H74430   8.659   4.778   1.067 -1.6146 -1.3050  2.6723
  564MOL0     H74431   8.655   4.868   1.297 -0.1348  1.6388 -0.8057
  564MOL0     H74432   8.879   5.037   1.700  1.6774 -0.0335 -2.0327
  564MOL0     H74433   8.835   5.171   1.905 -0.4214  0.3798 -1.2418
  564MOL0     H74434   8.327   6.576   2.937  3.1770  2.9607  1.2505
  564MOL0     H74435   8.381   6.731   3.134 -0.8154  1.6465 -0.8164
  564MOL0     H74436   8.244   7.038   3.417 -0.3379 -0.7248 -0.2510
  564MOL0     H74437   8.250   7.213   3.611 -1.6657  0.5201 -0.8369
  564MOL0     H74438   8.187   7.346   3.798 -1.5633  1.9134  2.9776
  564MOL0     H74439   8.360   7.299   3.809  0.8438 -1.9951 -0.4105
  564MOL0     H74440   8.356   7.280   4.041  1.5965  0.7309 -1.2828
  564MOL0     H74441   8.308   7.450   4.000 -0.9743  0.1453  1.3310
  564MOL0     H74442   8.171   7.334   4.198  0.6199 -4.4129  0.7002
  564MOL0     H74443   8.109   7.231   4.073  2.4657 -0.1194 -0.7982
  564MOL0     H74444   8.082   7.532   4.051 -0.7693  1.0712  1.3959
  564MOL0     H74445   8.021   7.398   3.943  0.4103 -1.3660  0.4459
  564MOL0     H74446   7.772   7.475   4.282 -1.4258 -1.6051  0.3721
  564MOL0     H74447   8.166   6.928   3.893 -4.3357  0.6691  0.0618
  564MOL0     H74448   8.141   6.746   3.707  0.3288 -0.6507 -2.1902
  565MOL0     O74449   2.979   1.377   9.021 -0.2050 -0.4129  0.1680
  565MOL0     C74450   2.986   1.464   9.107  0.1403  0.0854 -0.8276
  565MOL0     O74451   3.050   1.580   9.085 -0.0303 -0.2230 -0.6615
  565MOL0     C74452   3.109   1.600   8.964 -0.0824 -1.1031 -0.5448
  565MOL0     C74453   3.250   1.590   8.958 -0.1625  1.1934  0.2975
  565MOL0     C74454   3.307   1.589   8.834  0.1238 -0.5712  1.5445
  565MOL0     C74455   3.228   1.597   8.710 -0.0746  0.3012 -0.0582
  565MOL0     O74456   3.278   1.585   8.580  0.2223  0.4333 -0.4108
  565MOL0     C74457   3.420   1.538   8.561  0.1905 -0.0935  0.1942
  565MOL0     C74458   3.445   1.398   8.614  0.0198  0.5982  0.8280
  565MOL0     C74459   3.568   1.327   8.575  0.4701 -0.6438  0.3071
  565MOL0     C74460   3.684   1.428   8.555  0.4567  0.8245  0.4071
  565MOL0     C74461   3.820   1.376   8.497 -0.4029 -0.1832 -0.2020
  565MOL0     C74462   3.818   1.337   8.355  0.2395 -0.3153  0.4368
  565MOL0     C74463   3.954   1.287   8.294  0.1995 -0.1489  0.3971
  565MOL0     C74464   4.038   1.413   8.246 -0.7761  0.9547 -0.8726
  565MOL0     N74465   4.174   1.355   8.201 -0.0376 -0.1860 -0.2577
  565MOL0     C74466   4.291   1.413   8.241  0.1691  0.5731 -0.4039
  565MOL0     C74467   4.379   1.373   8.147 -0.5889  0.0849  0.3500
  565MOL0     C74468   4.532   1.403   8.139 -0.0054 -0.4867 -0.2016
  565MOL0     C74469   4.565   1.451   8.000  0.4177 -0.2809  0.4681
  565MOL0     C74470   4.706   1.483   7.983  0.4773  0.1062  0.2770
  565MOL0     C74471   4.754   1.601   8.065 -0.5379 -0.2067 -0.2134
  565MOL0     O74472   4.657   1.700   8.040  0.0559  0.1675 -0.0398
  565MOL0     C74473   4.674   1.836   8.070 -0.3501 -0.2634  0.8594
  565MOL0     C74474   4.781   1.901   8.138 -0.0329 -0.5316  0.3638
  565MOL0     C74475   4.773   2.043   8.149 -0.1128 -0.8054 -0.4667
  565MOL0     C74476   4.668   2.123   8.095  0.2860  0.9833  0.7243
  565MOL0     C74477   4.656   2.270   8.114 -0.1974  0.2262 -0.0087
  565MOL0     O74478   4.757   2.355   8.096 -0.0221 -0.3100  0.1251
  565MOL0     C74479   4.723   2.493   8.095 -0.3312  0.3505 -0.0273
  565MOL0     C74480   4.649   2.553   8.197  0.4821  0.2291  0.0647
  565MOL0     C74481   4.626   2.696   8.203  0.2726  0.7869 -0.7440
  565MOL0     C74482   4.673   2.779   8.100  0.2350 -0.3818 -0.3362
  565MOL0     O74483   4.629   2.909   8.079  0.4932  0.7615 -0.2036
  565MOL0     C74484   4.738   2.987   8.019  0.6005 -0.9685  0.7762
  565MOL0     C74485   4.854   3.016   8.107 -0.3711 -0.1134 -0.9271
  565MOL0     C74486   4.949   3.122   8.051  0.9161  0.6390 -0.2009
  565MOL0     C74487   4.873   3.259   8.037  0.2321  0.1284 -0.3404
  565MOL0     C74488   4.972   3.362   7.957  0.4680 -0.2635  0.2758
  565MOL0     C74489   4.904   3.492   7.933 -0.3011 -0.0254 -1.1770
  565MOL0     C74490   4.983   3.590   7.844  0.0534  0.3890  0.1758
  565MOL0     C74491   5.072   3.689   7.924 -0.6520  0.2873  0.4512
  565MOL0    Cl74492   4.984   3.839   7.973 -0.0060  0.1354 -0.3912
  565MOL0     C74493   4.747   2.716   7.997 -0.0822 -0.4270 -0.4277
  565MOL0     C74494   4.776   2.580   8.002 -0.8516  0.3282  1.0079
  565MOL0     O74495   4.546   2.303   8.156  0.3208 -0.4572  0.0677
  565MOL0     C74496   4.562   2.051   8.038 -1.2366  0.7016 -0.2784
  565MOL0     C74497   4.572   1.914   8.024  0.3582  0.3732 -0.0683
  565MOL0     N74498   4.319   1.292   8.051 -0.4123 -0.0420 -0.2936
  565MOL0     N74499   4.196   1.290   8.084  0.3093 -0.3982 -0.3215
  565MOL0     C74500   3.097   1.618   8.719  0.7972  0.3301 -0.9759
  565MOL0     C74501   3.037   1.619   8.850  0.6829 -1.4887 -0.1830
  565MOL0     C74502   2.905   1.443   9.232 -0.4000 -0.3369 -0.2655
  565MOL0     C74503   2.812   1.337   9.243 -0.4115  0.1891  1.1080
  565MOL0     C74504   2.728   1.306   9.358 -0.1429 -0.9733  1.1349
  565MOL0     C74505   2.746   1.382   9.467 -0.4905 -0.4459  0.7186
  565MOL0     O74506   2.665   1.363   9.580 -0.3724  0.2122 -0.8744
  565MOL0     C74507   2.656   1.449   9.694  0.7772 -0.5663 -0.4083
  565MOL0     C74508   2.720   1.381   9.816 -0.0840 -0.0601 -0.8679
  565MOL0     C74509   2.715   1.470   9.949 -0.5044  0.3727  0.7082
  565MOL0     C74510   2.786   1.406  10.064  0.0539  0.1479  1.0633
  565MOL0     C74511   2.729   1.270  10.086 -0.3679  0.7290 -0.1164
  565MOL0     C74512   2.675   1.167  10.116  0.2964  0.8342  0.4373
  565MOL0     C74513   2.850   1.485   9.459  0.5663  0.3811 -1.0052
  565MOL0     C74514   2.929   1.515   9.348 -0.4582 -0.4624 -0.6610
  565MOL0     H74515   3.301   1.586   9.053 -0.9398 -0.0920  0.6874
  565MOL0     H74516   3.415   1.580   8.845  0.0858 -0.5837  1.9343
  565MOL0     H74517   3.494   1.606   8.604  3.2986 -1.8549 -1.9379
  565MOL0     H74518   3.441   1.537   8.453  3.0502 -0.0796  0.6769
  565MOL0     H74519   3.367   1.323   8.599 -1.0295  1.3024  2.4274
  565MOL0     H74520   3.443   1.417   8.722 -0.6193  1.2643  0.7058
  565MOL0     H74521   3.550   1.281   8.477  2.6392  0.9138 -0.9092
  565MOL0     H74522   3.591   1.243   8.642 -0.8001 -0.7288  0.6521
  565MOL0     H74523   3.653   1.508   8.487  1.9377  0.7415 -0.4095
  565MOL0     H74524   3.693   1.477   8.652  2.4215  2.1467 -0.3910
  565MOL0     H74525   3.865   1.290   8.548  1.5097  0.0370 -1.4216
  565MOL0     H74526   3.891   1.458   8.511 -1.1218  1.1718 -3.6579
  565MOL0     H74527   3.790   1.428   8.301 -2.6363 -0.4559  1.4890
  565MOL0     H74528   3.742   1.259   8.341 -3.2445  2.2174  3.1249
  565MOL0     H74529   4.019   1.237   8.368  3.0230  1.0466 -1.1017
  565MOL0     H74530   3.924   1.222   8.211 -2.0449  0.2796  0.8350
  565MOL0     H74531   4.060   1.490   8.320 -0.9205 -0.3761  0.5930
  565MOL0     H74532   3.998   1.457   8.154 -0.8380  2.5249 -0.1101
  565MOL0     H74533   4.318   1.473   8.327  0.0943 -2.4544  1.8546
  565MOL0     H74534   4.589   1.313   8.162 -0.0113 -0.4452 -0.0229
  565MOL0     H74535   4.568   1.472   8.216 -0.1911 -1.7713  1.0650
  565MOL0     H74536   4.506   1.542   7.986  1.0958 -0.0069 -0.7444
  565MOL0     H74537   4.543   1.377   7.922 -0.8392  1.7122 -1.1824
  565MOL0     H74538   4.768   1.394   7.997  3.0865  1.8144  0.1900
  565MOL0     H74539   4.723   1.506   7.878 -0.6734  0.4761  0.1529
  565MOL0     H74540   4.849   1.639   8.025 -1.1284 -2.0635 -3.7769
  565MOL0     H74541   4.753   1.603   8.174  0.0385  1.9061 -0.1984
  565MOL0     H74542   4.850   1.838   8.193 -3.5064 -3.2937  1.9858
  565MOL0     H74543   4.861   2.089   8.193 -1.3896  2.7096 -1.2861
  565MOL0     H74544   4.608   2.494   8.278 -3.1051 -0.4995 -2.0507
  565MOL0     H74545   4.568   2.736   8.286 -1.2711 -2.4777 -0.0733
  565MOL0     H74546   4.687   3.078   7.985  0.8616 -1.9759 -2.6895
  565MOL0     H74547   4.781   2.954   7.924  0.4272 -1.3441  0.8298
  565MOL0     H74548   4.909   2.926   8.136 -1.9762 -0.5233  1.0736
  565MOL0     H74549   4.817   3.053   8.203 -0.0902  1.6203 -1.4578
  565MOL0     H74550   4.987   3.085   7.955 -1.0249  4.9072 -2.9464
  565MOL0     H74551   5.045   3.127   8.103 -0.2130 -0.9792  2.2330
  565MOL0     H74552   4.783   3.255   7.976 -1.1750 -5.0949  1.5127
  565MOL0     H74553   4.845   3.306   8.132 -0.5401 -3.3887  1.3513
  565MOL0     H74554   4.987   3.322   7.856 -1.8309  1.6718 -0.9155
  565MOL0     H74555   5.066   3.377   8.012  0.0445 -0.6157  1.1217
  565MOL0     H74556   4.875   3.535   8.029  1.5669 -0.4505 -0.3870
  565MOL0     H74557   4.808   3.469   7.886 -2.0102  0.5972  1.7711
  565MOL0     H74558   5.054   3.548   7.772  1.7992  1.8712  0.9700
  565MOL0     H74559   4.909   3.649   7.789 -0.7703 -0.1490  0.6776
  565MOL0     H74560   5.151   3.716   7.854  1.3009  1.5955  3.0216
  565MOL0     H74561   5.112   3.645   8.016 -0.9493 -2.6769 -0.7312
  565MOL0     H74562   4.783   2.760   7.905 -1.7044  3.6040  0.6449
  565MOL0     H74563   4.840   2.553   7.919  0.1949  2.7301  0.9184
  565MOL0     H74564   4.468   2.097   8.008 -3.0415 -0.8532  2.5307
  565MOL0     H74565   4.493   1.866   7.967  2.3305  0.9542 -3.6068
  565MOL0     H74566   3.042   1.645   8.629 -4.3371  1.5156  2.0676
  565MOL0     H74567   2.931   1.636   8.865  1.0504 -0.4567  1.5185
  565MOL0     H74568   2.792   1.262   9.167 -1.4665 -0.8727  2.3771
  565MOL0     H74569   2.661   1.220   9.359  0.1866 -1.2798 -0.2061
  565MOL0     H74570   2.548   1.467   9.695  1.2633  3.9734 -3.3398
  565MOL0     H74571   2.703   1.547   9.681 -3.1404  1.5734 -0.0619
  565MOL0     H74572   2.654   1.296   9.832 -0.9949  0.8845  0.6677
  565MOL0     H74573   2.823   1.363   9.784 -0.9427 -2.8177 -2.3206
  565MOL0     H74574   2.610   1.487   9.971 -0.9626  3.6743 -3.0558
  565MOL0     H74575   2.741   1.575   9.933 -0.5308  0.5664  1.8560
  565MOL0     H74576   2.882   1.393  10.011 -0.1030  1.6672  0.3497
  565MOL0     H74577   2.801   1.473  10.149  1.3222  1.1902  0.0803
  565MOL0     H74578   2.627   1.078  10.153  1.6274  0.4482  1.2991
  565MOL0     H74579   2.861   1.552   9.544 -2.2346  1.2231 -1.2023
  565MOL0     H74580   3.011   1.586   9.347 -0.5609 -0.3528 -1.2449
  566MOL0     O74581   2.836  10.381   7.895  0.1429 -0.0794 -0.5790
  566MOL0     C74582   2.780  10.332   7.801  0.2379  0.4124  1.9922
  566MOL0     O74583   2.676  10.384   7.726  0.4279  0.0234  0.6809
  566MOL0     C74584   2.621  10.519   7.756  0.3234 -0.6735  0.5966
  566MOL0     C74585   2.530  10.564   7.662 -0.4376 -0.0660  0.5031
  566MOL0     C74586   2.456  10.683   7.680 -0.2829 -0.4187  1.0949
  566MOL0     C74587   2.480  10.760   7.796  0.6370 -0.3242  0.4267
  566MOL0     O74588   2.410  10.881   7.805  0.2080  0.1570 -0.4124
  566MOL0     C74589   2.393  10.945   7.936 -1.4308 -0.2755 -0.2774
  566MOL0     C74590   2.401  11.099   7.922 -0.7180  0.3457  0.6671
  566MOL0     C74591   2.271  11.151   7.860  1.1811 -0.5267 -0.6316
  566MOL0     C74592   2.159  11.154   7.968  0.0393  0.2532  0.2632
  566MOL0     C74593   2.006  11.134   7.931  0.7012 -0.0204  0.1999
  566MOL0     C74594   1.960  11.262   7.858  0.2960 -1.6527 -0.5257
  566MOL0     C74595   1.812  11.281   7.850 -0.5666  0.1076  0.9199
  566MOL0     C74596   1.741  11.182   7.745  0.6585 -0.0392  0.5940
  566MOL0     N74597   1.594  11.185   7.739  0.6467 -0.1570 -0.0242
  566MOL0     C74598   1.510  11.091   7.680 -0.4456  0.2388  0.8337
  566MOL0     C74599   1.390  11.134   7.691  0.8142  0.1996  0.3279
  566MOL0     C74600   1.277  11.061   7.644  0.1843  1.1005 -0.5259
  566MOL0     C74601   1.218  11.096   7.506  0.0234 -0.7562  0.1420
  566MOL0     C74602   1.080  11.037   7.471 -0.0094  1.5854 -0.5395
  566MOL0     C74603   0.978  11.045   7.586 -0.7605  1.0267  0.6771
  566MOL0     O74604   1.004  10.934   7.676 -1.1933 -0.4099 -0.2495
  566MOL0     C74605   0.985  10.953   7.813  0.1213  0.6224  0.1717
  566MOL0     C74606   1.057  10.870   7.902 -0.0399 -0.4344  0.7456
  566MOL0     C74607   1.042  10.877   8.043  0.5141  0.1882 -0.0756
  566MOL0     C74608   0.947  10.964   8.098  0.3856  0.6009 -0.1933
  566MOL0     C74609   0.944  10.992   8.249  0.2871 -0.1988  0.3879
  566MOL0     O74610   1.033  10.925   8.325 -0.3337 -0.3287  0.2900
  566MOL0     C74611   1.051  10.955   8.454 -0.4933 -0.1163  0.0607
  566MOL0     C74612   1.005  11.059   8.534  0.0645 -0.4219 -0.1506
  566MOL0     C74613   1.052  11.072   8.666 -0.9710  0.2716 -0.5089
  566MOL0     C74614   1.136  10.977   8.725 -0.8986 -0.2994 -0.3558
  566MOL0     O74615   1.176  11.006   8.854  0.0549 -0.5861  0.2935
  566MOL0     C74616   1.303  11.068   8.857  0.1206  0.7624 -0.4310
  566MOL0     C74617   1.377  11.005   8.971  0.5781  0.6741 -0.2540
  566MOL0     C74618   1.397  10.850   8.955 -0.1406 -0.0115  0.1065
  566MOL0     C74619   1.300  10.772   9.048 -0.2912 -0.0967  0.7109
  566MOL0     C74620   1.290  10.628   8.995  0.8851 -1.1019  0.2615
  566MOL0     C74621   1.422  10.544   9.002 -0.9320 -0.1145  1.2084
  566MOL0     C74622   1.398  10.386   8.995 -0.3691 -0.2206 -0.4625
  566MOL0     C74623   1.321  10.329   9.125 -0.4472  0.2028  0.5100
  566MOL0    Cl74624   1.203  10.202   9.080  0.0035  0.2243 -0.4963
  566MOL0     C74625   1.176  10.872   8.647 -0.2708 -0.2622  0.2851
  566MOL0     C74626   1.133  10.865   8.520  0.6313  0.0110 -0.5496
  566MOL0     O74627   0.859  11.067   8.290  0.4376  0.1193 -0.9922
  566MOL0     C74628   0.879  11.049   8.007 -0.0552  0.0780  0.7101
  566MOL0     C74629   0.895  11.044   7.865 -0.2741 -0.0726 -0.1452
  566MOL0     N74630   1.383  11.256   7.757 -0.7849 -0.0659  0.3296
  566MOL0     N74631   1.515  11.283   7.788 -0.6142 -0.0182 -0.0011
  566MOL0     C74632   2.571  10.711   7.893 -0.2257 -0.0115  0.2839
  566MOL0     C74633   2.637  10.590   7.875 -0.0903  1.0040 -0.6027
  566MOL0     C74634   2.824  10.194   7.783 -0.9136  0.1115 -0.6454
  566MOL0     C74635   2.832  10.107   7.902  1.0374  0.7949 -0.6943
  566MOL0     C74636   2.856   9.970   7.867 -0.7402 -0.9785  0.7137
  566MOL0     C74637   2.893   9.920   7.739 -0.5709  0.6497  0.2731
  566MOL0     O74638   2.917   9.785   7.722 -0.3641 -0.1192  0.5007
  566MOL0     C74639   3.023   9.734   7.799 -0.2070  0.5881  0.5179
  566MOL0     C74640   3.029   9.590   7.771  0.9411 -0.4769 -0.0867
  566MOL0     C74641   3.132   9.527   7.864 -0.2461 -0.6838 -0.3189
  566MOL0     C74642   3.276   9.575   7.816 -0.0256  0.7650  0.7885
  566MOL0     C74643   3.358   9.459   7.785  0.6334 -0.5233  0.2004
  566MOL0     C74644   3.418   9.366   7.751 -0.7546  0.4002  0.1225
  566MOL0     C74645   2.909  10.011   7.632  0.2441 -0.4326 -0.1248
  566MOL0     C74646   2.867  10.139   7.657  0.1637 -0.4924 -0.3242
  566MOL0     H74647   2.523  10.504   7.571  0.4019 -0.6814  0.8240
  566MOL0     H74648   2.379  10.721   7.614  0.7577  0.6173  0.4309
  566MOL0     H74649   2.486  10.932   7.992 -1.3596  0.1017 -0.3034
  566MOL0     H74650   2.305  10.904   7.986 -1.4185  0.8373  0.6992
  566MOL0     H74651   2.479  11.131   7.853 -1.7991  2.2205  0.2187
  566MOL0     H74652   2.418  11.153   8.016 -1.8728 -0.0795  1.1499
  566MOL0     H74653   2.240  11.090   7.775 -0.8522  0.2083 -0.4870
  566MOL0     H74654   2.270  11.242   7.799  0.4103 -0.3743 -0.3996
  566MOL0     H74655   2.182  11.066   8.030  1.2288 -0.0824 -0.6005
  566MOL0     H74656   2.176  11.248   8.021  0.1600  1.7344 -2.2341
  566MOL0     H74657   1.946  11.109   8.019 -2.3717  1.3897 -1.3330
  566MOL0     H74658   1.999  11.047   7.865  3.8807  1.9414 -3.1080
  566MOL0     H74659   2.005  11.272   7.759  2.0182  0.7041  0.4049
  566MOL0     H74660   2.004  11.345   7.915 -0.7739 -1.2208 -0.3044
  566MOL0     H74661   1.764  11.279   7.948 -1.3502 -0.6367  0.5399
  566MOL0     H74662   1.796  11.385   7.820  0.4386 -0.1464 -0.6367
  566MOL0     H74663   1.773  11.086   7.785 -0.2573 -0.4397  0.3861
  566MOL0     H74664   1.768  11.193   7.640 -1.2358  1.8342  0.2384
  566MOL0     H74665   1.540  11.006   7.620 -0.8568  0.0387  0.9113
  566MOL0     H74666   1.198  11.075   7.718  0.5640 -2.8834  0.8781
  566MOL0     H74667   1.291  10.954   7.629  0.1144  1.0727 -0.3904
  566MOL0     H74668   1.278  11.077   7.417 -0.4823 -0.3942 -0.2825
  566MOL0     H74669   1.208  11.205   7.505 -0.5740 -0.8072  0.0336
  566MOL0     H74670   1.041  11.102   7.392 -0.8054  1.9190  0.1241
  566MOL0     H74671   1.096  10.939   7.425 -0.1353  0.1345  2.2981
  566MOL0     H74672   0.878  11.042   7.541  0.5852  4.1880 -3.1682
  566MOL0     H74673   0.981  11.143   7.634 -0.5370  1.3593  0.0066
  566MOL0     H74674   1.124  10.794   7.864 -0.4146 -0.4201  0.0539
  566MOL0     H74675   1.100  10.813   8.109 -0.8029 -0.8847  0.0847
  566MOL0     H74676   0.947  11.138   8.489  0.5412  1.6981  2.6673
  566MOL0     H74677   1.026  11.157   8.728 -0.2090 -0.6981  1.1852
  566MOL0     H74678   1.304  11.177   8.865 -0.2802  0.8521 -1.5482
  566MOL0     H74679   1.357  11.044   8.765 -1.7013  2.8461 -2.1632
  566MOL0     H74680   1.318  11.018   9.061 -2.8783 -2.2554 -1.8709
  566MOL0     H74681   1.476  11.052   8.980  0.2554  1.4484 -0.6000
  566MOL0     H74682   1.502  10.842   8.985  1.0370  2.5435 -2.7803
  566MOL0     H74683   1.391  10.819   8.851 -1.9301  2.3132 -0.5712
  566MOL0     H74684   1.344  10.776   9.148  3.5390  0.0046 -0.8067
  566MOL0     H74685   1.198  10.813   9.048  0.7427  2.7023  1.3093
  566MOL0     H74686   1.262  10.635   8.889  3.0740 -0.9452 -0.3495
  566MOL0     H74687   1.211  10.594   9.062 -2.6486 -0.2739 -3.0828
  566MOL0     H74688   1.471  10.570   9.096 -1.8658  0.0969  1.6523
  566MOL0     H74689   1.481  10.575   8.916 -1.9900  2.4275  1.3185
  566MOL0     H74690   1.337  10.351   8.911  2.0061 -2.4294 -1.3774
  566MOL0     H74691   1.493  10.340   8.967 -0.6717  0.2019 -2.3472
  566MOL0     H74692   1.261  10.406   9.173 -0.9651 -1.3457  2.4661
  566MOL0     H74693   1.388  10.293   9.204  3.1545  3.2609 -0.8035
  566MOL0     H74694   1.241  10.804   8.702  0.5238 -0.0342 -0.3599
  566MOL0     H74695   1.180  10.789   8.458 -0.4995 -0.4491 -0.8650
  566MOL0     H74696   0.819  11.129   8.049  0.8614  1.4448 -0.5163
  566MOL0     H74697   0.838  11.114   7.805 -2.8307  0.2280  2.4032
  566MOL0     H74698   2.617  10.771   7.971  2.8294 -0.8433 -0.7236
  566MOL0     H74699   2.708  10.559   7.951  0.2085 -1.2031 -1.7074
  566MOL0     H74700   2.816  10.146   8.002  1.5816  1.5216 -0.8849
  566MOL0     H74701   2.860   9.888   7.939  1.0073 -0.1693  1.6072
  566MOL0     H74702   3.010   9.735   7.908 -0.3091 -1.0553  0.5506
  566MOL0     H74703   3.110   9.795   7.774 -0.4309  0.7425  0.1033
  566MOL0     H74704   2.929   9.551   7.793 -0.2393  1.0530 -2.3716
  566MOL0     H74705   3.066   9.569   7.670  2.1089  1.5576 -0.1270
  566MOL0     H74706   3.135   9.419   7.851  1.2983 -0.6145 -0.8598
  566MOL0     H74707   3.108   9.555   7.967  2.7612  1.0626  0.0592
  566MOL0     H74708   3.272   9.637   7.725  2.2125  0.5598  0.5072
  566MOL0     H74709   3.326   9.636   7.892  0.5926  1.6421 -0.2823
  566MOL0     H74710   3.463   9.287   7.694  1.4242  2.0463 -0.5742
  566MOL0     H74711   2.943   9.983   7.533  2.2065  0.0903  0.3557
  566MOL0     H74712   2.863  10.205   7.571 -4.2206 -2.6498 -2.0744
  567MOL0     O74713   8.598   3.739   4.598 -0.1386  0.5595 -0.6540
  567MOL0     C74714   8.555   3.841   4.650  0.3826  0.0356 -0.1493
  567MOL0     O74715   8.572   3.874   4.792  0.9080  0.3024  0.6099
  567MOL0     C74716   8.683   3.820   4.841  0.0606  1.0005 -0.4713
  567MOL0     C74717   8.672   3.691   4.895 -0.4512  0.2224 -0.3731
  567MOL0     C74718   8.769   3.648   4.984 -1.2352  0.0052  0.3153
  567MOL0     C74719   8.880   3.724   5.014 -0.1485  0.1220 -0.4209
  567MOL0     O74720   8.953   3.674   5.117 -0.9214 -0.6419 -0.1778
  567MOL0     C74721   9.081   3.636   5.056 -0.3905 -0.9233  0.3483
  567MOL0     C74722   9.144   3.545   5.147  0.1465  0.1792 -0.1517
  567MOL0     C74723   9.080   3.408   5.172 -0.3257 -0.0988 -0.9048
  567MOL0     C74724   9.183   3.301   5.218 -0.0999  0.4129 -0.1179
  567MOL0     C74725   9.104   3.170   5.252  0.3211  0.1256  0.5436
  567MOL0     C74726   9.066   3.194   5.390  0.0689  0.5341  0.0053
  567MOL0     C74727   8.978   3.070   5.428  0.2736  0.0035 -0.4935
  567MOL0     C74728   9.062   2.955   5.489 -0.5064  0.8726 -0.6731
  567MOL0     N74729   8.997   2.836   5.555 -0.2730 -0.4515  0.2284
  567MOL0     C74730   8.918   2.842   5.669 -0.9304  0.4659  0.0108
  567MOL0     C74731   8.886   2.717   5.698 -0.6578  0.3220  0.1949
  567MOL0     C74732   8.786   2.668   5.796 -0.2722  0.1120  0.4692
  567MOL0     C74733   8.745   2.525   5.766  0.5861  0.8803  0.3450
  567MOL0     C74734   8.651   2.456   5.866  0.5634  0.3860  0.4826
  567MOL0     C74735   8.503   2.487   5.858  0.7734 -0.8305 -0.1750
  567MOL0     O74736   8.437   2.422   5.961  0.0080 -0.2712 -0.0337
  567MOL0     C74737   8.356   2.314   5.940 -0.9118 -1.1694  0.8651
  567MOL0     C74738   8.284   2.272   6.051 -1.2374 -0.0771 -0.0675
  567MOL0     C74739   8.205   2.161   6.050  0.2315  0.5088  0.9868
  567MOL0     C74740   8.199   2.080   5.934  0.4261 -0.1057 -0.3721
  567MOL0     C74741   8.103   1.964   5.931  0.7002  0.0110 -0.0524
  567MOL0     O74742   8.094   1.902   5.813  0.6998  0.0331  0.4853
  567MOL0     C74743   7.999   1.803   5.794  0.0995  0.1176  0.1243
  567MOL0     C74744   7.873   1.842   5.740  0.0606  0.4222 -0.8265
  567MOL0     C74745   7.765   1.753   5.720 -0.7985 -0.2863 -0.1648
  567MOL0     C74746   7.770   1.620   5.755 -0.5667  0.3078  0.4834
  567MOL0     O74747   7.678   1.525   5.738 -0.4134  0.0820 -0.1206
  567MOL0     C74748   7.541   1.572   5.749 -0.1510  0.7310 -0.2605
  567MOL0     C74749   7.450   1.463   5.803 -0.4943 -0.9029  0.1884
  567MOL0     C74750   7.502   1.398   5.937  0.7302 -0.0756  0.7325
  567MOL0     C74751   7.383   1.329   5.991  0.5699  0.5812 -0.5419
  567MOL0     C74752   7.404   1.233   6.106  1.1681  0.3531  0.0347
  567MOL0     C74753   7.462   1.284   6.236  0.8695 -0.7393  0.4555
  567MOL0     C74754   7.464   1.176   6.345  0.0353  0.1140  0.0862
  567MOL0     C74755   7.567   1.209   6.449  0.2949  0.0560  0.7168
  567MOL0    Cl74756   7.587   1.385   6.505 -0.0090  0.4965 -1.0377
  567MOL0     C74757   7.900   1.576   5.794 -0.8204 -0.2967  1.2361
  567MOL0     C74758   8.018   1.665   5.814 -0.5853 -0.2463 -0.9830
  567MOL0     O74759   8.033   1.941   6.031  0.0259  0.4978 -0.4482
  567MOL0     C74760   8.285   2.102   5.826  0.6859 -0.8557 -0.4813
  567MOL0     C74761   8.363   2.222   5.830 -0.2424 -0.1543  0.8633
  567MOL0     N74762   8.959   2.637   5.601 -0.9000 -0.4229 -0.1565
  567MOL0     N74763   9.013   2.710   5.513  0.0603  0.0756 -0.1557
  567MOL0     C74764   8.894   3.860   4.963 -0.1514 -0.1432  0.0018
  567MOL0     C74765   8.797   3.898   4.873 -0.4959 -0.1321  0.5227
  567MOL0     C74766   8.451   3.912   4.567  0.1392 -0.1797 -0.3888
  567MOL0     C74767   8.397   3.847   4.452 -0.5751  0.6340 -0.1490
  567MOL0     C74768   8.300   3.901   4.382 -0.6733  0.3563  0.4016
  567MOL0     C74769   8.242   4.023   4.423  0.2839  0.2535  0.0430
  567MOL0     O74770   8.145   4.093   4.364 -0.8398  0.5406 -0.5187
  567MOL0     C74771   8.100   4.054   4.240 -0.0774  0.3597 -0.6436
  567MOL0     C74772   7.976   3.959   4.245  0.1781  0.1266  0.4695
  567MOL0     C74773   7.961   3.910   4.099  0.7686  0.0192  0.5568
  567MOL0     C74774   8.045   3.788   4.073  1.0787  0.2083 -0.3692
  567MOL0     C74775   8.017   3.746   3.934  0.7234  0.9036  0.3689
  567MOL0     C74776   7.986   3.708   3.822  0.0770 -0.6121  0.2031
  567MOL0     C74777   8.291   4.093   4.533  0.6241  0.3424  0.8973
  567MOL0     C74778   8.403   4.039   4.594 -0.5533  0.5569 -0.0237
  567MOL0     H74779   8.578   3.640   4.878 -0.1585  0.2022 -2.0814
  567MOL0     H74780   8.765   3.549   5.029  0.8773  0.5880  1.9120
  567MOL0     H74781   9.131   3.731   5.034 -0.9179 -0.7280 -0.0375
  567MOL0     H74782   9.052   3.580   4.967 -4.9615 -2.0096  2.1912
  567MOL0     H74783   9.165   3.595   5.242 -3.1952 -1.2297  1.4868
  567MOL0     H74784   9.243   3.519   5.109  0.0194  0.1352 -0.4571
  567MOL0     H74785   9.035   3.363   5.083  0.9061 -1.8483 -0.6942
  567MOL0     H74786   9.007   3.424   5.253  1.5825 -2.4936  1.4637
  567MOL0     H74787   9.256   3.275   5.141  1.3469  1.1658  0.9426
  567MOL0     H74788   9.238   3.333   5.307 -0.7169 -1.1491  0.8683
  567MOL0     H74789   9.169   3.082   5.251 -2.8565 -2.4294  0.4769
  567MOL0     H74790   9.028   3.146   5.177  1.1984 -3.3279  0.5769
  567MOL0     H74791   9.001   3.282   5.403 -2.6448 -1.1529 -1.3050
  567MOL0     H74792   9.155   3.194   5.453 -2.9723  0.9860  4.7594
  567MOL0     H74793   8.918   3.106   5.512 -3.2502 -0.5483 -2.5589
  567MOL0     H74794   8.918   3.032   5.345  3.5816  0.5614 -3.4113
  567MOL0     H74795   9.120   2.989   5.576 -1.1908  1.9330 -0.6095
  567MOL0     H74796   9.119   2.917   5.404  0.7601  1.2095 -0.0111
  567MOL0     H74797   8.874   2.930   5.714 -2.9196  0.1015 -1.1195
  567MOL0     H74798   8.695   2.729   5.791  0.0230  0.5122 -0.3331
  567MOL0     H74799   8.823   2.674   5.898 -4.8765 -1.2767  2.4632
  567MOL0     H74800   8.835   2.464   5.761 -1.1807 -1.7975 -3.0799
  567MOL0     H74801   8.706   2.510   5.665  2.5548  0.5694 -0.3965
  567MOL0     H74802   8.657   2.347   5.857 -1.5411  0.3349 -1.1099
  567MOL0     H74803   8.693   2.476   5.965 -1.6615  1.9594  1.1867
  567MOL0     H74804   8.466   2.458   5.759 -0.0600  0.2625 -0.1984
  567MOL0     H74805   8.489   2.595   5.855  0.7976 -0.7688  1.2789
  567MOL0     H74806   8.301   2.330   6.141  2.5225 -1.1678  0.1037
  567MOL0     H74807   8.142   2.144   6.138 -2.0691  1.4952 -0.3671
  567MOL0     H74808   7.861   1.947   5.715 -1.5683  0.1990 -1.0389
  567MOL0     H74809   7.674   1.797   5.680 -1.2798 -0.1074  1.0905
  567MOL0     H74810   7.507   1.615   5.655  0.4367  0.3949 -0.6368
  567MOL0     H74811   7.539   1.650   5.826  0.7237  2.4715 -1.9087
  567MOL0     H74812   7.436   1.388   5.725  0.9782 -0.4182 -0.5823
  567MOL0     H74813   7.355   1.512   5.827 -0.4580 -0.9040  0.3364
  567MOL0     H74814   7.537   1.482   5.998 -2.0312  1.5103  0.3144
  567MOL0     H74815   7.577   1.324   5.909 -0.2565 -0.7426 -0.2513
  567MOL0     H74816   7.302   1.401   6.009 -1.9784 -2.0630 -0.7920
  567MOL0     H74817   7.351   1.266   5.908  0.5800 -0.3044  0.1089
  567MOL0     H74818   7.467   1.154   6.065 -1.3058 -0.0215 -3.5431
  567MOL0     H74819   7.307   1.185   6.125  0.4282  1.6330 -0.3293
  567MOL0     H74820   7.401   1.372   6.258 -0.2962 -1.9913  2.5603
  567MOL0     H74821   7.566   1.315   6.226  0.4047  0.9291  0.4540
  567MOL0     H74822   7.365   1.166   6.390 -0.0873  0.2691 -0.1483
  567MOL0     H74823   7.486   1.077   6.305  0.0713 -0.2281  0.9367
  567MOL0     H74824   7.662   1.185   6.400 -1.4715 -1.6398 -2.0809
  567MOL0     H74825   7.551   1.141   6.533  0.2507 -0.8039  0.0227
  567MOL0     H74826   7.914   1.474   5.827  2.9396 -0.2757  0.1995
  567MOL0     H74827   8.110   1.631   5.862 -2.1377 -1.0652  1.6427
  567MOL0     H74828   8.294   2.029   5.746 -1.8754  0.6462 -2.2867
  567MOL0     H74829   8.440   2.231   5.755  1.5780  1.6030  2.8186
  567MOL0     H74830   8.969   3.925   5.007  1.7176 -3.0135  1.3844
  567MOL0     H74831   8.795   3.998   4.832  1.1813 -0.4194 -0.3284
  567MOL0     H74832   8.452   3.756   4.426  1.8941  2.1432 -0.5908
  567MOL0     H74833   8.283   3.838   4.295 -2.7831 -0.0159  1.0327
  567MOL0     H74834   8.185   4.005   4.190  3.9195  1.3537  4.2772
  567MOL0     H74835   8.067   4.141   4.184 -1.6146  0.4855  0.4066
  567MOL0     H74836   7.989   3.877   4.317 -2.2585  0.8016  1.7664
  567MOL0     H74837   7.894   4.016   4.290 -0.8319 -0.1147 -0.9864
  567MOL0     H74838   7.986   3.991   4.030 -0.2786  0.9376  1.2284
  567MOL0     H74839   7.859   3.882   4.071  1.5696 -0.1022 -2.6329
  567MOL0     H74840   8.155   3.794   4.074  1.2517 -0.9946 -3.3070
  567MOL0     H74841   8.015   3.709   4.143 -0.2113  0.0362 -1.0924
  567MOL0     H74842   7.956   3.665   3.728 -0.3306 -1.3019  0.6456
  567MOL0     H74843   8.257   4.189   4.568  2.4737  1.5536 -0.4591
  567MOL0     H74844   8.432   4.096   4.682 -0.9664  1.2834 -0.3525
  568MOL0     O74845   9.389   0.291   8.544 -0.7503  0.1915  0.2804
  568MOL0     C74846   9.327   0.385   8.491 -0.5256  0.6605 -0.4260
  568MOL0     O74847   9.286   0.499   8.563  0.1259 -0.4863 -0.4625
  568MOL0     C74848   9.320   0.513   8.695 -1.0470  0.0081  0.7677
  568MOL0     C74849   9.458   0.535   8.737  0.6466  0.2215 -1.0354
  568MOL0     C74850   9.492   0.575   8.871 -0.4276 -0.2766 -0.8684
  568MOL0     C74851   9.391   0.574   8.965 -0.0390 -0.0747  0.1998
  568MOL0     O74852   9.409   0.597   9.092 -0.0345  0.3716  1.3716
  568MOL0     C74853   9.468   0.725   9.119 -0.4766 -0.2774 -0.4298
  568MOL0     C74854   9.366   0.832   9.151 -0.1205 -0.1679  0.3599
  568MOL0     C74855   9.435   0.971   9.123 -0.4758 -0.2656  0.2509
  568MOL0     C74856   9.547   1.003   9.207 -0.6541 -0.1349  0.4695
  568MOL0     C74857   9.509   0.998   9.355  0.6143  0.0303  0.9853
  568MOL0     C74858   9.620   1.041   9.443 -0.2252 -0.0681  0.5529
  568MOL0     C74859   9.576   1.018   9.591 -0.2999 -0.4552  0.7747
  568MOL0     C74860   9.448   1.087   9.634  0.0272 -0.0443  0.0841
  568MOL0     N74861   9.434   1.097   9.779  0.9058 -0.0111 -0.4268
  568MOL0     C74862   9.380   1.211   9.845  0.5224  1.4158 -0.2362
  568MOL0     C74863   9.333   1.158   9.967  0.8963 -0.5329 -0.2042
  568MOL0     C74864   9.275   1.247  10.069 -1.0432  0.7462 -0.1340
  568MOL0     C74865   9.132   1.274  10.034 -0.4158 -0.5882 -0.8033
  568MOL0     C74866   9.075   1.391  10.113  0.5064  0.2031 -0.1459
  568MOL0     C74867   8.946   1.418  10.040 -0.0982  0.8346 -0.9760
  568MOL0     O74868   8.900   1.539  10.081 -0.1912 -0.3035  0.1255
  568MOL0     C74869   8.774   1.564  10.126 -0.6473 -0.6817  0.0798
  568MOL0     C74870   8.660   1.472  10.094 -0.1448 -0.3485  0.9863
  568MOL0     C74871   8.526   1.501  10.132  0.4449 -0.0198  0.2050
  568MOL0     C74872   8.498   1.625  10.206  0.2955  0.1995 -0.3403
  568MOL0     C74873   8.369   1.669  10.258  0.5197 -0.4120  0.2014
  568MOL0     O74874   8.373   1.745  10.364  0.3707 -0.4954 -0.2170
  568MOL0     C74875   8.248   1.803  10.405 -1.3620 -0.9824  0.0771
  568MOL0     C74876   8.221   1.937  10.381 -0.5604 -0.0192  0.2560
  568MOL0     C74877   8.106   1.988  10.435  0.2679 -0.1898 -0.6400
  568MOL0     C74878   8.012   1.926  10.507  0.3190  0.3973 -0.0857
  568MOL0     O74879   7.905   2.005  10.549 -0.4796  0.5250 -0.0993
  568MOL0     C74880   7.805   1.954  10.631 -0.2299 -0.3756 -0.7739
  568MOL0     C74881   7.840   1.995  10.774 -0.0695 -0.9764 -0.4042
  568MOL0     C74882   7.861   2.144  10.807  1.4643  0.3832 -0.4179
  568MOL0     C74883   7.859   2.176  10.958 -0.1797  0.2198  1.7278
  568MOL0     C74884   7.894   2.327  11.000 -0.0900 -0.0358 -0.2116
  568MOL0     C74885   7.818   2.435  10.922 -1.0983  0.5388  0.1488
  568MOL0     C74886   7.831   2.573  10.989 -0.8736 -1.3944 -0.0613
  568MOL0     C74887   7.755   2.685  10.910 -0.6113  0.6650  0.5100
  568MOL0    Cl74888   7.752   2.828  11.013  0.0973 -0.1483 -0.0317
  568MOL0     C74889   8.039   1.784  10.529 -0.0632 -0.1099 -1.3059
  568MOL0     C74890   8.161   1.729  10.480 -0.0147  0.2472 -0.0803
  568MOL0     O74891   8.268   1.627  10.210 -0.0425  0.6617 -0.2923
  568MOL0     C74892   8.608   1.712  10.235 -0.1040 -0.4786 -0.1145
  568MOL0     C74893   8.747   1.681  10.198  0.7022  0.2859 -1.1827
  568MOL0     N74894   9.351   1.023   9.970  0.3746  0.3392 -0.2169
  568MOL0     N74895   9.388   0.984   9.856  0.4917 -0.2032 -0.4157
  568MOL0     C74896   9.258   0.541   8.925 -0.0025 -0.6396 -0.7653
  568MOL0     C74897   9.226   0.515   8.793 -0.2423  0.1168 -0.4539
  568MOL0     C74898   9.296   0.362   8.345  0.1030  0.1795  0.4516
  568MOL0     C74899   9.203   0.444   8.275  0.3696 -0.1502  0.1097
  568MOL0     C74900   9.171   0.417   8.140 -0.7449 -0.3863  0.3245
  568MOL0     C74901   9.235   0.309   8.066 -0.8044  0.3452  0.4037
  568MOL0     O74902   9.196   0.288   7.938 -0.4657  0.5715  0.4079
  568MOL0     C74903   9.240   0.162   7.877 -0.3799 -0.6118 -0.0028
  568MOL0     C74904   9.380   0.195   7.818  0.2232 -0.1395 -0.3412
  568MOL0     C74905   9.418   0.072   7.742 -0.2969 -0.6144 -0.1123
  568MOL0     C74906   9.566   0.094   7.701 -1.1414  0.6595  0.7400
  568MOL0     C74907   9.591   0.042   7.568  1.1852 -0.8250  0.7686
  568MOL0     C74908   9.584   0.020   7.446 -1.0242 -0.2218  0.2967
  568MOL0     C74909   9.329   0.229   8.143 -0.1396  0.5392  0.5268
  568MOL0     C74910   9.352   0.252   8.280  0.1673  1.4731 -0.4853
  568MOL0     H74911   9.531   0.539   8.656  5.0379  0.7822  2.5578
  568MOL0     H74912   9.595   0.588   8.904 -0.7996  0.4368  0.0480
  568MOL0     H74913   9.538   0.765   9.046 -1.9016 -0.1579 -1.7896
  568MOL0     H74914   9.529   0.698   9.206  0.4875 -2.6384 -1.7620
  568MOL0     H74915   9.320   0.820   9.249  0.4963 -1.2009  0.5346
  568MOL0     H74916   9.289   0.835   9.073  1.8453 -1.7221 -1.7646
  568MOL0     H74917   9.362   1.051   9.141 -2.0304 -1.0402 -2.1443
  568MOL0     H74918   9.461   0.969   9.017  2.7951  0.9956  0.8970
  568MOL0     H74919   9.630   0.939   9.173  0.8684  2.0624 -0.1892
  568MOL0     H74920   9.582   1.103   9.181  1.3341 -1.2566 -1.5437
  568MOL0     H74921   9.480   0.899   9.390  0.6145  0.0614  1.0736
  568MOL0     H74922   9.416   1.054   9.369  1.5175  1.9823 -0.3240
  568MOL0     H74923   9.648   1.145   9.422 -0.0091 -0.1263  0.5526
  568MOL0     H74924   9.703   0.970   9.436  1.2832  1.7567 -1.6601
  568MOL0     H74925   9.561   0.912   9.614  0.1597 -0.6544  0.1728
  568MOL0     H74926   9.655   1.045   9.661 -2.1980  0.7128  2.6132
  568MOL0     H74927   9.368   1.023   9.597 -0.5234  1.0173 -0.6135
  568MOL0     H74928   9.447   1.189   9.593 -2.3012  0.5240  1.4325
  568MOL0     H74929   9.380   1.315   9.813  3.4413  1.6872  0.3773
  568MOL0     H74930   9.322   1.346  10.069 -2.7240  1.6204  1.7062
  568MOL0     H74931   9.282   1.191  10.163 -1.7968 -2.1381 -1.6674
  568MOL0     H74932   9.078   1.181  10.050  1.2372 -1.5919 -0.8683
  568MOL0     H74933   9.130   1.284   9.925 -3.2612  0.0027 -0.7679
  568MOL0     H74934   9.070   1.359  10.218  2.8069  3.4010  1.0813
  568MOL0     H74935   9.141   1.478  10.106 -2.1635  2.4967  1.1551
  568MOL0     H74936   8.868   1.344  10.059 -1.0505  1.2148 -3.1412
  568MOL0     H74937   8.959   1.435   9.933 -1.9424  1.4754 -1.1258
  568MOL0     H74938   8.678   1.377  10.045  4.2429  0.4680  0.6106
  568MOL0     H74939   8.444   1.433  10.109  0.2126  0.3394 -0.0295
  568MOL0     H74940   8.286   2.008  10.331  1.5671 -2.1603 -0.2050
  568MOL0     H74941   8.077   2.087  10.404  0.0115 -0.9709 -3.1410
  568MOL0     H74942   7.783   1.848  10.621 -0.4612 -0.3744 -0.3032
  568MOL0     H74943   7.714   2.006  10.599  1.6249  3.4692 -0.4009
  568MOL0     H74944   7.932   1.943  10.803  0.2446  0.5278  1.4809
  568MOL0     H74945   7.754   1.963  10.833  1.3590  1.9821  3.7398
  568MOL0     H74946   7.783   2.190  10.746  2.1630 -1.7908 -3.1789
  568MOL0     H74947   7.952   2.187  10.765  1.8422 -0.5309 -0.5578
  568MOL0     H74948   7.759   2.161  11.001 -2.1755  1.6142 -2.0433
  568MOL0     H74949   7.941   2.118  11.003  0.8736 -0.7335 -1.1822
  568MOL0     H74950   8.000   2.348  10.981 -0.1285  1.0849  0.7476
  568MOL0     H74951   7.887   2.337  11.108 -0.6796 -1.7247 -0.0637
  568MOL0     H74952   7.712   2.408  10.926 -1.5454  1.9274 -1.0892
  568MOL0     H74953   7.867   2.429  10.824 -1.5178  2.1458 -0.1941
  568MOL0     H74954   7.783   2.567  11.087 -0.9114 -1.1646 -0.0659
  568MOL0     H74955   7.933   2.609  11.004 -0.5915 -1.5119 -1.5373
  568MOL0     H74956   7.650   2.658  10.895 -0.7765  1.8250 -0.5764
  568MOL0     H74957   7.794   2.699  10.808 -0.7542  2.4798  0.6806
  568MOL0     H74958   7.971   1.714  10.575  0.8537 -0.7466 -0.8843
  568MOL0     H74959   8.183   1.626  10.507 -2.8015 -1.6345 -3.9363
  568MOL0     H74960   8.593   1.812  10.274 -0.6458  0.3354 -2.2502
  568MOL0     H74961   8.820   1.753  10.232 -1.1892  1.8889 -0.2803
  568MOL0     H74962   9.180   0.558   8.998  0.8612  0.9247 -0.1743
  568MOL0     H74963   9.125   0.523   8.755 -1.4229  2.7149  2.8003
  568MOL0     H74964   9.150   0.527   8.320 -0.4570 -0.9459  0.6247
  568MOL0     H74965   9.104   0.487   8.092  1.0304  0.1477 -1.5244
  568MOL0     H74966   9.168   0.120   7.806  0.2161  1.2089 -1.7707
  568MOL0     H74967   9.249   0.084   7.953  0.1806  1.1177  1.7769
  568MOL0     H74968   9.370   0.274   7.743 -1.2642 -0.7974 -0.8801
  568MOL0     H74969   9.448   0.225   7.898 -0.6226  0.4569  0.1687
  568MOL0     H74970   9.349   0.052   7.659  0.4802 -2.2640 -0.3846
  568MOL0     H74971   9.413  -0.013   7.810  3.6033 -1.1268 -0.2116
  568MOL0     H74972   9.612   0.193   7.699  1.5835 -0.4942  1.3238
  568MOL0     H74973   9.639   0.052   7.772 -3.2152  0.3868  2.8204
  568MOL0     H74974   9.581   0.014   7.340 -1.8122 -2.3413  0.3994
  568MOL0     H74975   9.385   0.144   8.106  1.0501  2.1968 -1.7672
  568MOL0     H74976   9.419   0.180   8.327 -1.9872  0.7261  1.6861
  569MOL0     O74977   6.790  10.326   0.855 -0.5730 -0.6251 -0.2059
  569MOL0     C74978   6.738  10.223   0.802 -0.3822 -0.7675 -1.0985
  569MOL0     O74979   6.607  10.183   0.826  0.1625 -0.0571  0.4709
  569MOL0     C74980   6.533  10.245   0.920  0.2053 -1.0004  0.2144
  569MOL0     C74981   6.499  10.388   0.921  0.3445 -1.3772  0.1826
  569MOL0     C74982   6.416  10.434   1.027 -0.0576 -0.3797 -0.8555
  569MOL0     C74983   6.365  10.357   1.132  0.0786  0.5033 -0.0808
  569MOL0     O74984   6.285  10.388   1.244 -0.6985 -0.0368  0.2222
  569MOL0     C74985   6.209  10.509   1.228  0.3905 -0.5465 -0.2182
  569MOL0     C74986   6.150  10.553   1.359  0.2792  0.2126 -0.4350
  569MOL0     C74987   6.246  10.606   1.470  0.3810 -0.2946 -0.8546
  569MOL0     C74988   6.323  10.728   1.432  0.3480 -0.4322  0.2190
  569MOL0     C74989   6.399  10.796   1.542  0.8444  0.3284  0.0993
  569MOL0     C74990   6.506  10.710   1.610  0.3348  0.9428  0.6795
  569MOL0     C74991   6.579  10.795   1.717 -0.1792  0.2973 -0.0260
  569MOL0     C74992   6.691  10.863   1.651 -0.4209 -0.4269  0.5682
  569MOL0     N74993   6.782  10.921   1.749 -0.8146  0.2828 -0.5247
  569MOL0     C74994   6.785  11.049   1.796  0.2685 -0.0076  0.0671
  569MOL0     C74995   6.860  11.043   1.913  0.6236  0.1196  0.7657
  569MOL0     C74996   6.858  11.155   2.012  0.7012 -0.7767 -0.1495
  569MOL0     C74997   6.957  11.129   2.115 -0.8294  0.9025 -0.5657
  569MOL0     C74998   7.102  11.152   2.074  0.5265  0.4964  0.0431
  569MOL0     C74999   7.199  11.166   2.202  0.7978 -0.5590  1.3656
  569MOL0     O75000   7.341  11.135   2.181  0.4442  0.6032 -0.4560
  569MOL0     C75001   7.370  11.012   2.240  0.7100  0.2684 -0.5763
  569MOL0     C75002   7.332  10.889   2.180  0.7478 -0.2053  0.8840
  569MOL0     C75003   7.354  10.765   2.234 -0.0926  0.4493 -0.0952
  569MOL0     C75004   7.410  10.776   2.371  1.0231  0.6285  0.6695
  569MOL0     C75005   7.426  10.650   2.455  0.4473  0.1599  0.5134
  569MOL0     O75006   7.488  10.666   2.580  0.1502  0.4617 -0.2360
  569MOL0     C75007   7.456  10.560   2.659 -0.3361 -0.8119  0.3231
  569MOL0     C75008   7.333  10.564   2.723 -0.1019  0.4395  0.5229
  569MOL0     C75009   7.297  10.455   2.808 -0.4536 -0.2017  0.4478
  569MOL0     C75010   7.387  10.350   2.822 -0.4457  0.6302  0.7624
  569MOL0     O75011   7.370  10.238   2.903 -0.4261 -0.4738  0.1526
  569MOL0     C75012   7.237  10.219   2.953  0.0578 -0.1151 -0.9300
  569MOL0     C75013   7.245  10.080   3.023  0.0437 -0.6703 -0.8110
  569MOL0     C75014   7.325  10.075   3.161 -0.4507  0.2703  0.1645
  569MOL0     C75015   7.283   9.957   3.249 -0.6098  0.2761  1.0231
  569MOL0     C75016   7.389   9.896   3.337 -0.0687 -0.1286  0.4489
  569MOL0     C75017   7.479   9.996   3.414 -1.1266  0.6455  0.1149
  569MOL0     C75018   7.393  10.084   3.499  0.4135 -0.0507 -0.3203
  569MOL0     C75019   7.488  10.170   3.584  0.1332  0.4347  0.5032
  569MOL0    Cl75020   7.612  10.248   3.476 -0.1231 -0.2939 -0.3133
  569MOL0     C75021   7.518  10.351   2.762  0.7288 -0.1891 -0.9759
  569MOL0     C75022   7.546  10.453   2.677 -0.0028  0.1993  0.4265
  569MOL0     O75023   7.384  10.549   2.404 -0.3318  0.3439 -0.1992
  569MOL0     C75024   7.451  10.894   2.425 -0.1234 -0.6421  0.1029
  569MOL0     C75025   7.432  11.019   2.364 -0.8740  0.2861  0.8877
  569MOL0     N75026   6.883  10.906   1.929 -0.1745 -0.0548 -0.5922
  569MOL0     N75027   6.848  10.836   1.829  0.0725  0.7212  0.0559
  569MOL0     C75028   6.404  10.222   1.132 -0.3498 -1.0489  0.3368
  569MOL0     C75029   6.484  10.167   1.024 -0.0052 -0.1554  0.1901
  569MOL0     C75030   6.822  10.144   0.703 -0.5083 -0.6441 -0.1263
  569MOL0     C75031   6.954  10.172   0.679  0.1505 -0.6410 -0.7607
  569MOL0     C75032   7.011  10.121   0.561  0.4105 -0.4729 -0.4457
  569MOL0     C75033   6.946  10.030   0.477 -0.0706  0.1847  0.3743
  569MOL0     O75034   7.009   9.959   0.374  0.2913 -0.5665  0.8450
  569MOL0     C75035   7.140   9.914   0.404 -0.0160 -0.1835  0.5280
  569MOL0     C75036   7.141   9.812   0.518 -0.2984 -0.4598  0.4372
  569MOL0     C75037   7.231   9.692   0.496 -0.0560 -0.3499  0.2691
  569MOL0     C75038   7.383   9.701   0.514 -0.2832 -0.2633 -0.0423
  569MOL0     C75039   7.398   9.761   0.642  0.3488 -0.3474  0.2838
  569MOL0     C75040   7.419   9.802   0.754 -0.0233  0.1483  0.2999
  569MOL0     C75041   6.813  10.002   0.507 -0.2344  0.2694  1.0968
  569MOL0     C75042   6.758  10.054   0.620  0.2336 -0.4115 -0.6761
  569MOL0     H75043   6.530  10.453   0.840 -1.4520 -0.8888 -0.1449
  569MOL0     H75044   6.400  10.541   1.033  3.9408  0.4150 -1.5496
  569MOL0     H75045   6.135  10.473   1.155  1.2786  1.2644 -2.1267
  569MOL0     H75046   6.252  10.603   1.194  1.2266 -1.1599 -0.9001
  569MOL0     H75047   6.102  10.469   1.409  3.5218 -1.1283  0.7115
  569MOL0     H75048   6.063  10.617   1.340 -1.3642 -0.6056  3.4016
  569MOL0     H75049   6.317  10.525   1.491  0.2206 -0.0932  0.5467
  569MOL0     H75050   6.180  10.619   1.556  0.3253  0.5420 -1.0179
  569MOL0     H75051   6.396  10.708   1.353 -1.3175 -1.6659 -1.1139
  569MOL0     H75052   6.257  10.805   1.390  2.0993  0.8476 -0.2964
  569MOL0     H75053   6.322  10.813   1.618  0.0032 -0.0906 -0.6500
  569MOL0     H75054   6.446  10.893   1.521  2.6726 -0.3809  0.7361
  569MOL0     H75055   6.567  10.661   1.535 -2.1935 -2.0549  0.3688
  569MOL0     H75056   6.448  10.634   1.663 -0.9821  0.1882 -1.6933
  569MOL0     H75057   6.517  10.865   1.774 -0.0490  0.2632  0.1577
  569MOL0     H75058   6.603  10.730   1.801  0.3557  0.2549 -0.2085
  569MOL0     H75059   6.652  10.940   1.583 -0.6344 -1.8045 -0.9286
  569MOL0     H75060   6.741  10.794   1.583 -0.6275  0.5590 -0.6348
  569MOL0     H75061   6.734  11.125   1.737  2.0969  2.0200  0.9317
  569MOL0     H75062   6.760  11.161   2.060  3.0675 -2.5505  5.7865
  569MOL0     H75063   6.884  11.246   1.956  0.2296 -1.0747 -0.8771
  569MOL0     H75064   6.962  11.025   2.148  2.8465  0.4424 -2.0794
  569MOL0     H75065   6.929  11.190   2.201  0.7553  2.5204 -1.1192
  569MOL0     H75066   7.135  11.069   2.010  0.0721  0.9284 -0.7618
  569MOL0     H75067   7.105  11.244   2.016  0.3902  1.3747  1.3996
  569MOL0     H75068   7.151  11.110   2.283 -1.9134 -0.8887 -0.3200
  569MOL0     H75069   7.184  11.273   2.221 -0.7005 -0.1485 -1.4561
  569MOL0     H75070   7.265  10.895   2.095  2.0589 -1.8784 -0.3418
  569MOL0     H75071   7.325  10.672   2.187 -2.6048  2.0039 -1.8710
  569MOL0     H75072   7.270  10.652   2.714 -0.4451  0.0359 -1.5860
  569MOL0     H75073   7.197  10.459   2.849 -0.1847  1.0915  1.0137
  569MOL0     H75074   7.159  10.199   2.879 -2.6283 -3.0768  2.3087
  569MOL0     H75075   7.198  10.301   3.014 -1.1313 -0.2940 -1.4080
  569MOL0     H75076   7.296  10.007   2.959 -1.7189 -1.4423 -1.3874
  569MOL0     H75077   7.140  10.060   3.045 -0.1431  1.6998  0.8453
  569MOL0     H75078   7.299  10.166   3.216  0.9127  1.0774 -0.4656
  569MOL0     H75079   7.434  10.080   3.148 -0.5446  1.4542 -0.3316
  569MOL0     H75080   7.198   9.983   3.313 -2.0207  2.8512 -1.6482
  569MOL0     H75081   7.243   9.885   3.177  0.1864  0.8509 -0.0221
  569MOL0     H75082   7.462   9.832   3.286 -0.8081 -1.3182  0.8564
  569MOL0     H75083   7.338   9.826   3.403  0.5494  1.1115  2.3258
  569MOL0     H75084   7.553  10.044   3.348 -1.7521  2.2177  0.4944
  569MOL0     H75085   7.530   9.934   3.488 -2.6633 -1.7187 -0.6982
  569MOL0     H75086   7.322  10.142   3.438 -1.8113 -0.9648  1.2711
  569MOL0     H75087   7.326  10.025   3.562 -1.2077  0.5857 -1.3840
  569MOL0     H75088   7.540  10.112   3.661 -0.8562  1.1248  1.7443
  569MOL0     H75089   7.431  10.253   3.626  2.0421  2.7685 -1.2162
  569MOL0     H75090   7.577  10.260   2.764  0.7571 -0.1750 -1.2145
  569MOL0     H75091   7.633  10.456   2.613  2.2448 -1.7352  3.1363
  569MOL0     H75092   7.498  10.903   2.523  1.5313 -0.6309 -0.6498
  569MOL0     H75093   7.464  11.109   2.416  3.5670 -1.7229  2.0787
  569MOL0     H75094   6.374  10.152   1.209  1.6734 -3.1382 -0.6594
  569MOL0     H75095   6.532  10.070   1.030  4.2685  1.3715 -3.4473
  569MOL0     H75096   6.992  10.246   0.750 -3.2137 -0.7131  1.3062
  569MOL0     H75097   7.110  10.152   0.531  1.0451 -2.4329 -0.5311
  569MOL0     H75098   7.209   9.991   0.439 -0.0649  0.2771 -0.3487
  569MOL0     H75099   7.197   9.880   0.317 -0.7371  0.3412 -0.1651
  569MOL0     H75100   7.174   9.858   0.611 -0.7353 -1.2741  1.0095
  569MOL0     H75101   7.042   9.765   0.523  0.3980 -2.1859 -0.6955
  569MOL0     H75102   7.214   9.652   0.396  0.2770 -3.2924  1.2919
  569MOL0     H75103   7.187   9.612   0.557 -0.4702 -1.7359 -1.7408
  569MOL0     H75104   7.437   9.606   0.511  2.5231  1.2265  0.1121
  569MOL0     H75105   7.419   9.758   0.427 -2.9006  1.0762 -0.3460
  569MOL0     H75106   7.461   9.839   0.845  0.6829 -0.6829  0.3255
  569MOL0     H75107   6.762   9.940   0.434  1.8962 -2.4691  1.7387
  569MOL0     H75108   6.652  10.031   0.623 -0.5141  2.6888  0.8749
  570MOL0     O75109   2.862   6.339   7.193  1.0366 -0.8559 -0.4422
  570MOL0     C75110   2.950   6.317   7.114 -1.2414  0.4113  0.3371
  570MOL0     O75111   3.090   6.316   7.148 -0.1831  0.1413 -0.7546
  570MOL0     C75112   3.129   6.372   7.263 -0.5121  0.1545  0.3172
  570MOL0     C75113   3.113   6.514   7.281 -0.2561 -1.4434 -0.7226
  570MOL0     C75114   3.146   6.571   7.407  0.8920  0.1958 -0.1852
  570MOL0     C75115   3.160   6.485   7.517  0.1949  1.0153  0.8259
  570MOL0     O75116   3.195   6.525   7.650  0.1551  0.5167  1.1547
  570MOL0     C75117   3.095   6.600   7.732  0.3517  1.2619 -0.4514
  570MOL0     C75118   3.161   6.710   7.806  0.4626 -0.8554 -0.1093
  570MOL0     C75119   3.073   6.796   7.903 -0.2530 -0.4001  0.8454
  570MOL0     C75120   2.989   6.880   7.811 -0.3259  0.1675 -1.1160
  570MOL0     C75121   2.904   6.983   7.896  0.5166  0.5988 -0.3413
  570MOL0     C75122   2.782   7.035   7.819  0.2660 -0.7046 -1.0956
  570MOL0     C75123   2.653   7.028   7.907  0.0667 -0.1572 -0.6800
  570MOL0     C75124   2.515   7.035   7.832 -0.1668 -0.5008 -0.2253
  570MOL0     N75125   2.482   7.172   7.780  0.3138  0.0873 -0.0102
  570MOL0     C75126   2.459   7.292   7.851 -0.5015 -0.6054  0.3751
  570MOL0     C75127   2.446   7.396   7.759  0.2024 -0.5961  0.3026
  570MOL0     C75128   2.400   7.536   7.777  1.4192  0.2352 -0.3004
  570MOL0     C75129   2.378   7.589   7.922 -0.4717  0.4768 -0.3386
  570MOL0     C75130   2.349   7.736   7.935  0.5590 -0.7371 -0.1875
  570MOL0     C75131   2.477   7.814   7.925  0.2896 -0.0765  0.2233
  570MOL0     O75132   2.556   7.793   8.039 -0.0611  0.5637 -0.1938
  570MOL0     C75133   2.657   7.880   8.075 -1.0816  0.9955 -0.4759
  570MOL0     C75134   2.724   7.969   7.988  0.8782  0.0807 -0.3340
  570MOL0     C75135   2.810   8.060   8.042  0.8602 -0.3647  0.5184
  570MOL0     C75136   2.846   8.058   8.176  0.0867  0.5543 -1.0407
  570MOL0     C75137   2.947   8.157   8.221  0.4144  0.6760  0.5148
  570MOL0     O75138   2.978   8.149   8.346  0.2331 -0.0508 -0.3137
  570MOL0     C75139   3.069   8.235   8.402 -0.0203  0.2967 -0.1020
  570MOL0     C75140   3.201   8.257   8.360  0.6368 -0.4558  0.1511
  570MOL0     C75141   3.285   8.305   8.442 -1.6166 -1.5007  0.0984
  570MOL0     C75142   3.260   8.340   8.579 -0.4665 -0.4137 -0.5004
  570MOL0     O75143   3.351   8.394   8.674 -0.4666 -0.1376  0.4711
  570MOL0     C75144   3.434   8.502   8.633 -0.3469  0.4312 -0.0745
  570MOL0     C75145   3.524   8.526   8.736  0.4238 -0.2583 -0.4100
  570MOL0     C75146   3.612   8.655   8.714 -0.2484 -0.3883 -0.4898
  570MOL0     C75147   3.671   8.723   8.835 -0.3279  0.2165 -0.0146
  570MOL0     C75148   3.732   8.862   8.811  1.1556 -0.6938 -0.0074
  570MOL0     C75149   3.746   8.931   8.942 -0.6915  0.7814 -1.3828
  570MOL0     C75150   3.843   9.037   8.936 -0.8396  0.8784  0.8139
  570MOL0     C75151   3.871   9.091   9.077  0.3965 -0.2642  0.1929
  570MOL0    Cl75152   3.939   8.969   9.192 -0.2808 -0.1198  0.4663
  570MOL0     C75153   3.131   8.327   8.623 -0.5533 -0.0589 -0.5081
  570MOL0     C75154   3.034   8.265   8.542  0.0863  0.3280 -0.2968
  570MOL0     O75155   2.990   8.245   8.139 -0.0993  1.0525  0.1315
  570MOL0     C75156   2.789   7.968   8.257  0.0841  0.8793 -0.0241
  570MOL0     C75157   2.692   7.879   8.214  0.5472 -0.1163 -0.1109
  570MOL0     N75158   2.477   7.343   7.636 -0.0684  0.5209 -0.6361
  570MOL0     N75159   2.513   7.211   7.655  0.1167 -0.5412  0.7139
  570MOL0     C75160   3.178   6.348   7.497  0.4819  0.4261  0.9368
  570MOL0     C75161   3.160   6.292   7.369  0.0457 -0.5341 -0.2510
  570MOL0     C75162   2.907   6.260   6.984  0.3310 -0.6999  0.6064
  570MOL0     C75163   2.786   6.295   6.920  0.3771 -0.0644  0.2974
  570MOL0     C75164   2.755   6.246   6.786  0.0925 -1.1161 -0.8363
  570MOL0     C75165   2.845   6.177   6.707  0.5646  0.6647  0.6929
  570MOL0     O75166   2.838   6.150   6.569  0.3288 -0.3045 -0.6462
  570MOL0     C75167   2.705   6.117   6.519 -0.4040 -1.1250 -0.5311
  570MOL0     C75168   2.720   6.041   6.393  0.3162 -0.8247  1.0034
  570MOL0     C75169   2.766   6.136   6.279 -0.4641 -0.8984 -0.8833
  570MOL0     C75170   2.775   6.061   6.139  0.3385  0.4071  0.7713
  570MOL0     C75171   2.810   6.143   6.032  0.6437 -0.3011  0.4654
  570MOL0     C75172   2.837   6.213   5.935 -0.9578 -0.0997  0.8309
  570MOL0     C75173   2.971   6.145   6.774  1.3655  0.4914 -0.0664
  570MOL0     C75174   3.002   6.187   6.902  0.2060  0.8858  0.9172
  570MOL0     H75175   3.079   6.575   7.198  0.5751 -1.6164 -1.2125
  570MOL0     H75176   3.154   6.678   7.419 -0.6471  0.1019  2.6657
  570MOL0     H75177   3.037   6.533   7.796  0.0062  2.3271  0.3876
  570MOL0     H75178   3.015   6.641   7.668  1.4928  0.7646 -2.2816
  570MOL0     H75179   3.208   6.775   7.732 -0.2718 -0.1644  0.0170
  570MOL0     H75180   3.247   6.675   7.864 -0.9958 -2.5373  1.1618
  570MOL0     H75181   3.136   6.862   7.963  0.0827  1.1510 -1.0997
  570MOL0     H75182   3.018   6.737   7.977 -0.2709 -1.7787 -0.2020
  570MOL0     H75183   3.062   6.935   7.751 -0.6958 -1.5540 -3.2409
  570MOL0     H75184   2.926   6.821   7.745 -2.2103  0.1656  0.5751
  570MOL0     H75185   2.971   7.057   7.940 -0.8344  3.4930 -2.8212
  570MOL0     H75186   2.867   6.920   7.977  0.2601  1.6043  0.3358
  570MOL0     H75187   2.763   6.981   7.725  3.7522  0.4354 -2.6231
  570MOL0     H75188   2.797   7.141   7.798  1.9736  0.4453  4.3204
  570MOL0     H75189   2.640   6.926   7.946 -2.1755  0.2222 -0.3142
  570MOL0     H75190   2.650   7.097   7.991 -0.1321  0.5028 -1.2232
  570MOL0     H75191   2.432   7.008   7.898 -0.0961  0.3674  0.2435
  570MOL0     H75192   2.523   6.958   7.756 -3.0273 -0.1940 -0.9535
  570MOL0     H75193   2.452   7.300   7.959  2.4106  1.5840  0.5279
  570MOL0     H75194   2.312   7.559   7.716 -0.4287  2.9677  3.0029
  570MOL0     H75195   2.494   7.580   7.741  2.0314 -0.9691 -0.2336
  570MOL0     H75196   2.456   7.557   7.993 -2.1986  1.2542  2.0259
  570MOL0     H75197   2.294   7.533   7.964 -1.2147 -0.8362 -3.3476
  570MOL0     H75198   2.267   7.773   7.873  0.5580  0.7332  0.6397
  570MOL0     H75199   2.309   7.758   8.034  0.3795 -1.7888 -0.0168
  570MOL0     H75200   2.445   7.915   7.900 -1.1281 -0.6417 -0.4183
  570MOL0     H75201   2.533   7.776   7.838 -0.3480 -0.1334 -0.1737
  570MOL0     H75202   2.717   7.972   7.880  4.2089 -3.9793 -0.9527
  570MOL0     H75203   2.855   8.136   7.978  2.8706 -1.0558  1.0287
  570MOL0     H75204   3.232   8.238   8.257 -0.1617  1.7616 -0.5603
  570MOL0     H75205   3.378   8.332   8.394 -1.9785 -0.8126 -0.2249
  570MOL0     H75206   3.384   8.599   8.630 -0.6602  0.2467 -1.0949
  570MOL0     H75207   3.472   8.487   8.532  0.1393  3.5111 -0.4214
  570MOL0     H75208   3.595   8.443   8.743  2.9154  1.7641 -0.0841
  570MOL0     H75209   3.461   8.531   8.825 -0.1780  1.2183 -0.8823
  570MOL0     H75210   3.555   8.734   8.665  3.3092  2.6482 -0.1852
  570MOL0     H75211   3.700   8.636   8.652  0.5318 -2.5955  1.1549
  570MOL0     H75212   3.602   8.727   8.920 -0.4635  0.5250 -0.1386
  570MOL0     H75213   3.751   8.656   8.866  1.4853  2.1947 -0.1453
  570MOL0     H75214   3.671   8.929   8.750  1.6693 -0.2095 -0.0045
  570MOL0     H75215   3.830   8.842   8.765  2.8376 -0.8708  3.3174
  570MOL0     H75216   3.777   8.857   9.017  0.4603  1.9117 -0.7082
  570MOL0     H75217   3.651   8.970   8.978  0.4640  1.0197  1.7741
  570MOL0     H75218   3.928   8.992   8.883 -1.3777  1.3358 -0.4986
  570MOL0     H75219   3.798   9.109   8.867 -3.9908 -2.3697 -0.8985
  570MOL0     H75220   3.781   9.128   9.128  1.2857 -0.2677  1.8480
  570MOL0     H75221   3.941   9.175   9.082  0.0794  0.0350  5.5159
  570MOL0     H75222   3.109   8.340   8.729  0.0220 -2.1735 -0.0871
  570MOL0     H75223   2.941   8.233   8.588  0.3384 -1.4036 -0.9103
  570MOL0     H75224   2.812   7.971   8.364  0.6666  1.4934 -0.1615
  570MOL0     H75225   2.627   7.822   8.279  0.2021  1.6767  1.2041
  570MOL0     H75226   3.194   6.278   7.578 -2.9277 -2.9315 -0.9794
  570MOL0     H75227   3.168   6.185   7.355 -2.0361 -0.6581 -0.8635
  570MOL0     H75228   2.707   6.357   6.962  0.2437 -0.4703  0.6509
  570MOL0     H75229   2.654   6.276   6.759 -0.4424 -0.6201  1.5224
  570MOL0     H75230   2.644   6.205   6.494 -1.3088 -1.5010  0.2992
  570MOL0     H75231   2.647   6.059   6.591 -1.9695  3.5334  2.4710
  570MOL0     H75232   2.793   5.959   6.400 -0.7099 -1.8415  0.1486
  570MOL0     H75233   2.622   6.008   6.359 -0.1005  1.2801 -0.0169
  570MOL0     H75234   2.859   6.182   6.313 -1.3178  0.5478 -0.3927
  570MOL0     H75235   2.700   6.223   6.269  0.8215 -0.0437 -2.5550
  570MOL0     H75236   2.856   5.990   6.119 -0.4890  0.0202 -1.5539
  570MOL0     H75237   2.682   6.005   6.126  0.4676  0.7173 -2.3307
  570MOL0     H75238   2.843   6.272   5.846 -1.0353  2.1283  2.2398
  570MOL0     H75239   3.029   6.072   6.720 -2.5041 -5.3631  2.5965
  570MOL0     H75240   3.089   6.172   6.965 -0.4980 -2.5622  1.2691
  571MOL0     O75241   7.998   9.083   4.774  0.8924  0.0431  0.1828
  571MOL0     C75242   8.105   9.022   4.749  0.5548 -0.2193 -0.1187
  571MOL0     O75243   8.213   9.009   4.834  0.7604  0.1406  0.1699
  571MOL0     C75244   8.204   9.055   4.963  0.1400 -1.0575  1.2434
  571MOL0     C75245   8.310   9.123   5.008 -0.7478 -0.5820 -0.0377
  571MOL0     C75246   8.316   9.167   5.140 -0.2693  0.7617  0.2217
  571MOL0     C75247   8.222   9.128   5.229  0.9849 -0.6036 -0.1015
  571MOL0     O75248   8.241   9.163   5.359  0.4116  1.0605  0.2656
  571MOL0     C75249   8.130   9.184   5.439 -0.2084  0.3106  0.4396
  571MOL0     C75250   8.186   9.218   5.576  0.7480  0.1648  0.2774
  571MOL0     C75251   8.215   9.091   5.655  0.3806  0.7787 -0.4809
  571MOL0     C75252   8.261   9.133   5.792  0.3961 -0.0719 -0.4123
  571MOL0     C75253   8.282   9.011   5.888 -0.5273 -0.5535  0.0318
  571MOL0     C75254   8.387   8.907   5.851 -0.0764  0.6714 -0.5208
  571MOL0     C75255   8.368   8.780   5.940  0.7922 -0.9965 -0.1464
  571MOL0     C75256   8.486   8.686   5.939  0.1749 -0.1589  0.2256
  571MOL0     N75257   8.456   8.577   6.033 -0.7992  0.0595 -0.1251
  571MOL0     C75258   8.336   8.501   6.042 -0.0079  0.3294 -0.0862
  571MOL0     C75259   8.337   8.440   6.160  0.2766  0.1495 -0.1625
  571MOL0     C75260   8.226   8.374   6.244 -0.5780 -0.0896  0.4899
  571MOL0     C75261   8.098   8.343   6.159  0.2042  0.2236 -0.7281
  571MOL0     C75262   8.139   8.211   6.072 -0.7401  0.8436  0.1958
  571MOL0     C75263   8.102   8.072   6.133 -0.2959 -0.8935  1.0364
  571MOL0     O75264   8.133   8.055   6.277  0.2013  0.3150  0.5997
  571MOL0     C75265   8.163   7.940   6.338 -0.1218  0.5786  1.1223
  571MOL0     C75266   8.179   7.932   6.479 -0.3846 -1.0555 -0.5124
  571MOL0     C75267   8.221   7.819   6.545 -0.4545  0.4923  0.1133
  571MOL0     C75268   8.238   7.700   6.469  0.6115 -0.4532  0.0044
  571MOL0     C75269   8.250   7.583   6.552  0.6730 -0.4204 -1.1006
  571MOL0     O75270   8.155   7.569   6.659  0.1889  0.1617  0.4276
  571MOL0     C75271   8.164   7.437   6.709  0.5868 -0.6512 -0.6730
  571MOL0     C75272   8.061   7.339   6.683  0.2247 -0.3147  0.1847
  571MOL0     C75273   8.076   7.208   6.732 -0.3407 -0.4650  0.0089
  571MOL0     C75274   8.181   7.166   6.815 -0.3468 -0.0616  0.1724
  571MOL0     O75275   8.193   7.029   6.848 -0.3399 -0.5934 -0.0994
  571MOL0     C75276   8.232   6.991   6.988 -0.2139  0.3321  0.8708
  571MOL0     C75277   8.121   7.011   7.089 -0.3842 -1.2504 -0.0326
  571MOL0     C75278   8.116   6.894   7.196  0.2069  0.2457 -0.5932
  571MOL0     C75279   8.247   6.830   7.245 -0.2075 -0.4163  0.1457
  571MOL0     C75280   8.225   6.698   7.329 -0.5907  0.3281  0.5463
  571MOL0     C75281   8.180   6.580   7.249 -0.1095 -0.1052 -0.1105
  571MOL0     C75282   8.161   6.452   7.337 -0.0138  0.8701  0.2905
  571MOL0     C75283   8.044   6.366   7.276  0.2102 -0.6699 -0.2226
  571MOL0    Cl75284   8.075   6.200   7.306  0.0494  0.1075  0.3498
  571MOL0     C75285   8.276   7.268   6.849 -0.8481 -0.6760 -0.3561
  571MOL0     C75286   8.271   7.398   6.797  0.6261  0.2791 -0.1341
  571MOL0     O75287   8.340   7.507   6.522  0.5017 -0.3432 -0.3132
  571MOL0     C75288   8.199   7.701   6.334  0.1979  0.5862 -0.4120
  571MOL0     C75289   8.159   7.818   6.265  0.2783  0.5569 -0.9039
  571MOL0     N75290   8.456   8.472   6.223  0.6063  0.2061  0.1401
  571MOL0     N75291   8.521   8.562   6.154 -0.2997  0.0475 -0.0112
  571MOL0     C75292   8.105   9.062   5.180 -0.0400  0.2127 -0.0388
  571MOL0     C75293   8.094   9.023   5.048  0.6092 -0.8125  0.8723
  571MOL0     C75294   8.109   8.948   4.624 -0.2326  0.1350  1.1275
  571MOL0     C75295   8.225   8.870   4.587  0.5903  0.2797  0.1213
  571MOL0     C75296   8.227   8.800   4.471  0.1000 -0.2392  0.1795
  571MOL0     C75297   8.118   8.799   4.376  0.0842  0.6761 -0.4660
  571MOL0     O75298   8.120   8.720   4.264  0.4361 -0.2211 -0.2083
  571MOL0     C75299   8.004   8.704   4.192  0.2139 -0.4946  0.1240
  571MOL0     C75300   8.039   8.640   4.059  0.5334 -0.5035  0.2820
  571MOL0     C75301   7.927   8.667   3.948 -0.4515 -0.3332  0.0757
  571MOL0     C75302   7.966   8.762   3.842  0.5107  0.1228 -1.1140
  571MOL0     C75303   7.941   8.893   3.893  0.1198 -0.1350  0.0736
  571MOL0     C75304   7.916   9.001   3.953  0.2414 -0.5797  0.2150
  571MOL0     C75305   8.013   8.881   4.411 -0.9657 -0.7617 -0.3787
  571MOL0     C75306   8.005   8.954   4.530  0.5692 -0.6304  0.6241
  571MOL0     H75307   8.395   9.151   4.946 -1.0618  2.7582  0.8475
  571MOL0     H75308   8.398   9.228   5.176  0.5620  1.7761 -3.0044
  571MOL0     H75309   8.057   9.103   5.445 -2.0401  1.8592 -0.1777
  571MOL0     H75310   8.093   9.279   5.400  4.1450  2.0757  0.0298
  571MOL0     H75311   8.114   9.276   5.634 -0.2318  0.9535 -1.6387
  571MOL0     H75312   8.275   9.282   5.570 -0.2750  1.6043 -0.0885
  571MOL0     H75313   8.286   9.027   5.603 -2.0789 -2.2216 -0.4864
  571MOL0     H75314   8.121   9.034   5.660  0.0832  1.0002 -2.6368
  571MOL0     H75315   8.349   9.199   5.791 -0.2103  0.8668  1.7374
  571MOL0     H75316   8.179   9.195   5.830  0.4071 -0.3287  0.0416
  571MOL0     H75317   8.188   8.960   5.911 -0.0398 -1.6128 -0.2458
  571MOL0     H75318   8.305   9.058   5.984 -0.8309  2.4955 -1.2768
  571MOL0     H75319   8.474   8.966   5.882 -1.0629  0.6461  2.6499
  571MOL0     H75320   8.382   8.881   5.745 -0.1843  1.5505 -0.7386
  571MOL0     H75321   8.357   8.808   6.045  1.5022 -1.0783 -0.0449
  571MOL0     H75322   8.275   8.727   5.919  0.5553 -2.4642  3.8459
  571MOL0     H75323   8.574   8.725   5.991 -0.2267 -0.9286  1.5371
  571MOL0     H75324   8.506   8.654   5.836  3.1668 -5.8528  2.1095
  571MOL0     H75325   8.251   8.511   5.976  0.4247  0.7582 -0.5851
  571MOL0     H75326   8.198   8.435   6.331  2.1550  1.9856  0.0268
  571MOL0     H75327   8.264   8.278   6.279  0.5522 -0.2099 -1.0001
  571MOL0     H75328   8.078   8.427   6.092  2.4762  2.4142  1.1280
  571MOL0     H75329   8.007   8.351   6.217  0.1322  1.6911 -1.0187
  571MOL0     H75330   8.082   8.203   5.979  0.0640 -4.0725 -0.1116
  571MOL0     H75331   8.247   8.217   6.052 -0.9883  1.0071 -1.2381
  571MOL0     H75332   8.160   8.001   6.072 -0.1003 -0.9498  1.2895
  571MOL0     H75333   7.998   8.046   6.114 -0.1208 -0.3503 -0.9384
  571MOL0     H75334   8.184   8.028   6.530  2.4029 -1.0186 -0.6963
  571MOL0     H75335   8.229   7.814   6.653 -1.1456 -0.3016  0.1337
  571MOL0     H75336   7.966   7.357   6.634 -3.4371 -2.0018  5.7277
  571MOL0     H75337   7.991   7.142   6.720  0.1779 -0.8299 -2.2441
  571MOL0     H75338   8.307   7.066   7.016 -1.5456  3.2560 -2.5732
  571MOL0     H75339   8.260   6.885   6.994 -1.4911 -0.0202  0.7685
  571MOL0     H75340   8.034   7.035   7.028  1.1246 -2.2171 -2.7332
  571MOL0     H75341   8.147   7.099   7.148 -2.4271 -1.7233  1.6949
  571MOL0     H75342   8.056   6.814   7.153  2.4886 -1.7186 -0.3803
  571MOL0     H75343   8.057   6.927   7.282 -0.1910  0.4331 -0.9365
  571MOL0     H75344   8.317   6.809   7.164  1.0040  0.4356  0.9303
  571MOL0     H75345   8.307   6.904   7.299  1.6267  0.3891 -2.7913
  571MOL0     H75346   8.156   6.712   7.412  0.0171  2.4079  0.7528
  571MOL0     H75347   8.321   6.674   7.377  0.7090 -2.3847 -2.9365
  571MOL0     H75348   8.256   6.571   7.171  1.6417  2.0690  1.2357
  571MOL0     H75349   8.088   6.609   7.198 -1.8191  0.0476  2.8382
  571MOL0     H75350   8.248   6.386   7.338  0.9719  1.9458  4.4281
  571MOL0     H75351   8.136   6.465   7.443  5.0030 -2.2333  2.1972
  571MOL0     H75352   8.053   6.364   7.167  1.3285  0.5893 -0.1780
  571MOL0     H75353   7.944   6.397   7.306  1.4360  2.5720  0.9194
  571MOL0     H75354   8.363   7.254   6.912  1.5308 -3.3223 -3.7944
  571MOL0     H75355   8.341   7.474   6.828 -1.8235  2.9046 -0.6093
  571MOL0     H75356   8.202   7.606   6.281  1.7382 -0.0915  0.7970
  571MOL0     H75357   8.124   7.809   6.162  0.1738  1.5708 -0.9687
  571MOL0     H75358   8.013   9.052   5.238 -0.3593 -0.4228 -0.6427
  571MOL0     H75359   8.005   8.971   5.012 -1.0990  0.9142  2.3325
  571MOL0     H75360   8.311   8.859   4.652  0.4790 -1.9143 -0.0343
  571MOL0     H75361   8.300   8.722   4.449 -0.2832 -0.2279 -1.2187
  571MOL0     H75362   7.959   8.802   4.170 -2.1934 -1.8692 -1.5739
  571MOL0     H75363   7.940   8.634   4.246 -2.8659  1.3212 -0.9152
  571MOL0     H75364   8.130   8.687   4.022  0.3629  0.0422  0.5451
  571MOL0     H75365   8.056   8.533   4.070 -0.1595 -0.4245  2.7156
  571MOL0     H75366   7.831   8.699   3.988 -1.7395 -0.4381 -2.7068
  571MOL0     H75367   7.902   8.573   3.898 -2.3763  0.4023 -0.4362
  571MOL0     H75368   8.062   8.736   3.798 -0.3421 -4.8985 -0.5944
  571MOL0     H75369   7.889   8.747   3.766  1.5927 -3.0215 -1.7515
  571MOL0     H75370   7.889   9.075   4.026  0.3740 -0.2356 -0.0830
  571MOL0     H75371   7.928   8.912   4.351 -0.4775  2.3126  0.3229
  571MOL0     H75372   7.914   9.012   4.545  0.1376 -0.4286 -2.2108
  572MOL0     O75373   9.123   3.948   3.875  0.1861 -0.0556 -0.5086
  572MOL0     C75374   9.095   4.037   3.793 -0.2444 -0.3215 -0.4468
  572MOL0     O75375   9.174   4.081   3.690 -1.3539 -0.0470  0.4417
  572MOL0     C75376   9.291   4.016   3.658 -0.3010 -0.4827  0.7236
  572MOL0     C75377   9.307   3.878   3.636  0.3167  0.5880  0.0730
  572MOL0     C75378   9.432   3.827   3.607 -0.6209 -0.2599  0.1492
  572MOL0     C75379   9.549   3.912   3.612  0.5074  0.0790  0.9870
  572MOL0     O75380   9.677   3.858   3.598 -0.1987 -0.0976 -0.6154
  572MOL0     C75381   9.701   3.713   3.611  0.3302  0.6457  0.2551
  572MOL0     C75382   9.736   3.692   3.759  0.1956  0.1735 -0.0543
  572MOL0     C75383   9.878   3.739   3.808 -1.1666  0.3097  0.2581
  572MOL0     C75384   9.917   3.688   3.949  0.3478  0.9610  0.9219
  572MOL0     C75385  10.022   3.773   4.011  0.1690  0.1364  0.2504
  572MOL0     C75386  10.159   3.749   3.954 -0.0748 -0.5599  0.4793
  572MOL0     C75387  10.224   3.609   3.995  0.6168  0.0898  0.1371
  572MOL0     C75388  10.351   3.566   3.918 -0.2776 -0.0359  0.4554
  572MOL0     N75389  10.319   3.495   3.793 -0.6083 -0.1368  0.4009
  572MOL0     C75390  10.339   3.539   3.663 -0.0575  0.5837  0.6402
  572MOL0     C75391  10.309   3.433   3.587  0.2165 -0.2163 -0.0668
  572MOL0     C75392  10.296   3.426   3.432 -0.2125  0.9290  0.8912
  572MOL0     C75393  10.149   3.420   3.367 -0.1555 -0.0314  0.2484
  572MOL0     C75394  10.136   3.369   3.230 -0.1754  0.1837 -0.2918
  572MOL0     C75395  10.007   3.408   3.137  0.1376  0.4496  0.1871
  572MOL0     O75396   9.890   3.390   3.209 -0.3265 -0.0917 -0.7267
  572MOL0     C75397   9.793   3.478   3.226 -0.2698  0.4178  0.7687
  572MOL0     C75398   9.662   3.434   3.198 -0.8238 -0.3738 -0.4199
  572MOL0     C75399   9.557   3.510   3.214 -0.3125 -1.0909 -0.7186
  572MOL0     C75400   9.578   3.644   3.250  0.2862 -1.3164  0.4594
  572MOL0     C75401   9.448   3.730   3.257 -0.9174 -0.5826 -0.2293
  572MOL0     O75402   9.466   3.867   3.257  0.6414  0.8790 -0.0631
  572MOL0     C75403   9.349   3.942   3.250 -0.4119 -1.3596 -0.1220
  572MOL0     C75404   9.232   3.905   3.180 -0.0345 -0.5998 -0.4930
  572MOL0     C75405   9.106   3.973   3.191 -0.2497 -0.0309  0.1781
  572MOL0     C75406   9.102   4.087   3.281  0.6396 -0.8443  1.0409
  572MOL0     O75407   8.994   4.169   3.310  0.1163  0.0609  0.3695
  572MOL0     C75408   8.862   4.110   3.283  0.5602 -0.9617 -1.4357
  572MOL0     C75409   8.753   4.157   3.379 -0.1927  0.1600 -0.4955
  572MOL0     C75410   8.614   4.123   3.327 -1.1490 -0.4644 -0.3086
  572MOL0     C75411   8.505   4.217   3.379 -1.1942  0.4928  0.0519
  572MOL0     C75412   8.413   4.170   3.488  0.3453 -0.5018  0.8868
  572MOL0     C75413   8.334   4.047   3.441 -0.9954 -0.0356  0.2566
  572MOL0     C75414   8.216   4.018   3.526  0.0160 -0.2660  0.4529
  572MOL0     C75415   8.099   4.115   3.493  0.7281  0.3523  0.6049
  572MOL0    Cl75416   7.962   4.088   3.610 -0.8383  0.0208 -0.5445
  572MOL0     C75417   9.216   4.138   3.333  0.0773  0.6374  0.4393
  572MOL0     C75418   9.343   4.068   3.320 -0.2363  0.1451 -0.4359
  572MOL0     O75419   9.340   3.676   3.277  0.0526  0.4696  0.5117
  572MOL0     C75420   9.707   3.702   3.251  0.1815 -0.2147 -0.1645
  572MOL0     C75421   9.818   3.613   3.243  0.2061 -1.0979  0.4990
  572MOL0     N75422  10.267   3.330   3.671  0.4146 -0.9809 -0.2553
  572MOL0     N75423  10.282   3.363   3.795  0.0858  0.4321 -0.1775
  572MOL0     C75424   9.529   4.051   3.638  0.2915  0.5175  0.0109
  572MOL0     C75425   9.406   4.103   3.667  0.1939 -0.8881 -0.2445
  572MOL0     C75426   8.960   4.100   3.811  0.1433 -0.6978  0.9965
  572MOL0     C75427   8.878   4.083   3.917 -0.2177  0.0537  0.1746
  572MOL0     C75428   8.761   4.141   3.942  0.5475  0.3434 -0.4402
  572MOL0     C75429   8.707   4.238   3.849  0.3044 -1.0852  0.0308
  572MOL0     O75430   8.588   4.316   3.864 -0.1881  0.3874 -0.2018
  572MOL0     C75431   8.529   4.308   3.985  0.7046  0.6492 -0.3388
  572MOL0     C75432   8.438   4.431   4.004  0.2104  0.1456  0.1417
  572MOL0     C75433   8.385   4.438   4.149 -0.2612  0.9689 -0.8739
  572MOL0     C75434   8.244   4.377   4.163 -0.1793  0.8471  0.7959
  572MOL0     C75435   8.177   4.424   4.282  0.4070 -0.4243  0.0257
  572MOL0     C75436   8.124   4.446   4.393 -0.2513 -0.8834  0.5876
  572MOL0     C75437   8.789   4.266   3.736  0.0812 -0.7832 -0.3107
  572MOL0     C75438   8.914   4.204   3.725 -0.1627 -0.9468 -0.7236
  572MOL0     H75439   9.219   3.814   3.630  1.6210 -1.1733 -1.3688
  572MOL0     H75440   9.428   3.719   3.590  2.7684 -0.2433 -1.6237
  572MOL0     H75441   9.777   3.671   3.546 -1.9971  2.0641 -3.7175
  572MOL0     H75442   9.612   3.662   3.574  1.9667 -1.2494 -1.2799
  572MOL0     H75443   9.721   3.586   3.780 -1.5288  0.5644  0.8689
  572MOL0     H75444   9.663   3.735   3.828  0.3804  1.0161 -0.3722
  572MOL0     H75445   9.876   3.848   3.817  0.7874  0.2687  1.8364
  572MOL0     H75446   9.947   3.707   3.729 -0.7837 -2.3054  1.5348
  572MOL0     H75447   9.825   3.703   4.006  1.0610  1.0188  2.0954
  572MOL0     H75448   9.943   3.582   3.961 -2.5699 -0.4191 -2.9270
  572MOL0     H75449  10.020   3.759   4.119 -0.5798  2.2593  0.5627
  572MOL0     H75450  10.004   3.881   4.001  1.6393  0.5144  1.1969
  572MOL0     H75451  10.223   3.831   3.989 -1.6507  1.0315 -0.1928
  572MOL0     H75452  10.157   3.756   3.844  3.0401 -3.1351  0.1160
  572MOL0     H75453  10.246   3.602   4.102  1.1849 -4.5053 -0.0767
  572MOL0     H75454  10.161   3.522   3.977 -0.3817  1.1482 -1.7283
  572MOL0     H75455  10.398   3.492   3.983  0.4476 -3.1303 -3.2144
  572MOL0     H75456  10.402   3.660   3.896  1.0218 -0.7179  0.4499
  572MOL0     H75457  10.373   3.635   3.624  0.7317  0.5635  1.2450
  572MOL0     H75458  10.347   3.335   3.397 -4.0009 -1.2252  0.4355
  572MOL0     H75459  10.336   3.514   3.381 -2.1681  0.7114 -1.1795
  572MOL0     H75460  10.105   3.519   3.378  0.5213  0.0874  2.1649
  572MOL0     H75461  10.083   3.366   3.435 -3.1072  1.2166 -1.4369
  572MOL0     H75462  10.230   3.409   3.189  2.8539 -2.5954  3.2266
  572MOL0     H75463  10.142   3.260   3.235  3.2603  0.0725 -2.9795
  572MOL0     H75464  10.004   3.332   3.059  2.6406 -1.3025  1.6532
  572MOL0     H75465  10.030   3.509   3.103  0.9799  0.1498 -0.1408
  572MOL0     H75466   9.664   3.330   3.168  1.2275 -0.6741  0.5720
  572MOL0     H75467   9.455   3.479   3.196 -0.6969 -0.1006 -0.3000
  572MOL0     H75468   9.242   3.813   3.122  0.6777 -0.4230 -0.6638
  572MOL0     H75469   9.017   3.938   3.139 -0.8963 -0.8260  1.7546
  572MOL0     H75470   8.854   4.001   3.291 -2.3038 -0.7015  1.7479
  572MOL0     H75471   8.814   4.151   3.193 -0.6116  1.9339  0.3521
  572MOL0     H75472   8.772   4.264   3.374  1.7663 -0.2005 -3.7692
  572MOL0     H75473   8.778   4.110   3.475  2.5088 -0.5454 -1.4417
  572MOL0     H75474   8.582   4.023   3.357 -2.4329  0.8278  3.2213
  572MOL0     H75475   8.622   4.122   3.218  4.0862 -0.3077 -0.1622
  572MOL0     H75476   8.553   4.303   3.427  1.7026 -2.4766  3.0165
  572MOL0     H75477   8.452   4.247   3.288  1.9738 -1.2357 -2.5463
  572MOL0     H75478   8.343   4.251   3.512 -1.2790 -1.6766  0.2711
  572MOL0     H75479   8.470   4.150   3.579 -0.7677 -1.5681  1.3844
  572MOL0     H75480   8.398   3.958   3.440 -0.8405  0.0110 -2.4229
  572MOL0     H75481   8.296   4.067   3.340 -4.2514 -1.0349  1.1626
  572MOL0     H75482   8.191   3.912   3.523  0.3455 -0.3266 -1.3013
  572MOL0     H75483   8.246   4.043   3.628 -3.7546  2.4794  1.1141
  572MOL0     H75484   8.064   4.106   3.390  3.8879  1.2649 -0.6687
  572MOL0     H75485   8.139   4.216   3.507 -0.0552  0.5408  1.5492
  572MOL0     H75486   9.221   4.224   3.399 -2.6102  0.3904  1.0795
  572MOL0     H75487   9.430   4.090   3.381  0.4684 -2.8047 -0.2321
  572MOL0     H75488   9.705   3.809   3.271 -1.6331  0.2130 -2.1801
  572MOL0     H75489   9.921   3.638   3.268 -0.7915  2.0949  1.9543
  572MOL0     H75490   9.615   4.118   3.646 -0.3636  1.3280  0.4942
  572MOL0     H75491   9.399   4.209   3.691 -0.4494 -0.9880  0.0358
  572MOL0     H75492   8.908   4.022   4.002 -2.2698  2.0842  2.4896
  572MOL0     H75493   8.711   4.118   4.036 -1.9927 -1.1604 -2.0444
  572MOL0     H75494   8.608   4.310   4.060 -1.0942 -2.4053  1.8849
  572MOL0     H75495   8.476   4.213   4.002  0.0032  1.1939  0.6108
  572MOL0     H75496   8.499   4.516   3.971 -1.0751  1.1068  0.1505
  572MOL0     H75497   8.355   4.417   3.935 -0.0761  3.4112 -0.3579
  572MOL0     H75498   8.374   4.542   4.183 -3.2079  1.0407 -1.6909
  572MOL0     H75499   8.462   4.395   4.213 -2.6338  1.9498  2.9984
  572MOL0     H75500   8.183   4.400   4.075 -0.8176 -2.0583  0.3964
  572MOL0     H75501   8.251   4.268   4.170  1.4870  0.7591 -1.3228
  572MOL0     H75502   8.083   4.443   4.491 -1.2315 -1.3287  0.1820
  572MOL0     H75503   8.764   4.349   3.671  1.1980 -0.3986 -0.2661
  572MOL0     H75504   8.973   4.243   3.643  0.4849 -1.2498 -0.4133
  573MOL0     O75505   6.412   4.653   7.506  0.3898 -0.1125  0.3082
  573MOL0     C75506   6.455   4.717   7.599 -0.7802 -0.6832  0.6766
  573MOL0     O75507   6.387   4.816   7.671 -1.1095  0.7639  0.3162
  573MOL0     C75508   6.318   4.903   7.588  0.2387 -0.6092 -1.3949
  573MOL0     C75509   6.205   4.868   7.514 -0.5098  0.6065  1.1210
  573MOL0     C75510   6.134   4.971   7.449  0.2859  0.5997 -0.4868
  573MOL0     C75511   6.175   5.102   7.450  0.1380 -0.2343  0.6272
  573MOL0     O75512   6.093   5.192   7.382  1.0648  0.3508  0.1089
  573MOL0     C75513   6.150   5.273   7.283 -1.1789 -0.3991  0.8748
  573MOL0     C75514   6.179   5.193   7.155  0.1602  0.6292  0.5403
  573MOL0     C75515   6.040   5.133   7.107 -0.6253  1.0417 -0.2980
  573MOL0     C75516   6.036   5.112   6.959 -0.0953  0.0566  0.4815
  573MOL0     C75517   5.905   5.055   6.912  0.1475  0.4820 -0.1354
  573MOL0     C75518   5.890   4.907   6.949 -0.0636 -0.2285  0.2255
  573MOL0     C75519   5.750   4.853   6.916  0.0839  0.2450  0.7472
  573MOL0     C75520   5.692   4.854   6.772 -0.5539 -0.3815 -1.0875
  573MOL0     N75521   5.549   4.810   6.768 -1.0498 -0.0108 -0.5155
  573MOL0     C75522   5.440   4.895   6.770 -1.4650 -0.4559  0.1839
  573MOL0     C75523   5.334   4.814   6.768 -0.5490  0.9881  0.0313
  573MOL0     C75524   5.191   4.850   6.767  0.3282 -0.7952 -0.3302
  573MOL0     C75525   5.138   4.879   6.625 -0.8862  0.4599 -0.1077
  573MOL0     C75526   5.005   4.960   6.611 -0.5909 -0.5529  0.0423
  573MOL0     C75527   4.892   4.876   6.669 -0.0713 -0.3710 -1.0688
  573MOL0     O75528   4.775   4.956   6.674 -0.8181 -0.1002 -0.0929
  573MOL0     C75529   4.648   4.909   6.702 -1.3316  0.4974  0.0037
  573MOL0     C75530   4.614   4.804   6.792 -0.7400  0.3643  1.0722
  573MOL0     C75531   4.479   4.754   6.790  1.2111  0.8515 -0.1216
  573MOL0     C75532   4.382   4.822   6.710  0.0528  0.3464 -0.0414
  573MOL0     C75533   4.246   4.758   6.706 -0.0118 -0.5871 -0.5095
  573MOL0     O75534   4.158   4.823   6.614  0.0953  0.0351 -0.1852
  573MOL0     C75535   4.025   4.804   6.635 -0.3799 -0.1280 -0.4984
  573MOL0     C75536   3.953   4.764   6.524 -0.0064 -0.2422  0.8786
  573MOL0     C75537   3.819   4.744   6.526 -0.6557 -0.1351 -1.4374
  573MOL0     C75538   3.751   4.743   6.645  0.4395 -0.2762 -0.0642
  573MOL0     O75539   3.620   4.722   6.643 -0.4902 -0.4171 -0.2112
  573MOL0     C75540   3.531   4.740   6.767 -0.3064 -0.0149  0.7646
  573MOL0     C75541   3.410   4.656   6.734 -0.2105  0.4004  0.3316
  573MOL0     C75542   3.315   4.654   6.855  0.4510 -0.9531  0.2129
  573MOL0     C75543   3.186   4.585   6.793 -0.3442 -0.5893 -0.4050
  573MOL0     C75544   3.083   4.560   6.903  0.0379 -0.4758  0.2720
  573MOL0     C75545   2.946   4.500   6.872  0.0854  0.0176 -0.6510
  573MOL0     C75546   2.946   4.351   6.844 -1.4060  0.1339  0.0733
  573MOL0     C75547   2.848   4.311   6.734  0.0916 -0.2673 -0.1739
  573MOL0    Cl75548   2.886   4.396   6.579 -0.3958 -0.1549  0.1965
  573MOL0     C75549   3.822   4.775   6.757 -0.4583 -0.2324  0.0185
  573MOL0     C75550   3.961   4.804   6.758  0.1321  0.0669 -0.2083
  573MOL0     O75551   4.231   4.644   6.747 -0.5662 -0.4928  0.7894
  573MOL0     C75552   4.412   4.941   6.638 -0.4359  0.1964 -0.8805
  573MOL0     C75553   4.545   4.982   6.646 -0.4542  0.1668  0.4844
  573MOL0     N75554   5.384   4.680   6.778 -0.9211  0.0527 -0.0040
  573MOL0     N75555   5.517   4.675   6.765  0.4012 -0.6418 -0.5725
  573MOL0     C75556   6.288   5.145   7.520  0.4063 -0.0271  0.2059
  573MOL0     C75557   6.357   5.041   7.585  0.4511 -0.2764 -0.3763
  573MOL0     C75558   6.579   4.664   7.659 -0.1029  0.5534  0.7373
  573MOL0     C75559   6.644   4.555   7.595 -0.2544  0.1432 -0.5827
  573MOL0     C75560   6.772   4.513   7.640 -0.5375 -0.4167  0.3387
  573MOL0     C75561   6.834   4.584   7.738  0.1891  0.2796  0.0209
  573MOL0     O75562   6.967   4.553   7.757 -0.2415  1.4985  0.3939
  573MOL0     C75563   7.010   4.546   7.898  0.1611  0.4342  1.0527
  573MOL0     C75564   6.982   4.394   7.931 -0.5626 -0.2096 -0.3307
  573MOL0     C75565   6.845   4.356   8.008  0.0741 -0.3742 -0.1150
  573MOL0     C75566   6.799   4.212   8.012  0.6757  0.4439 -1.0685
  573MOL0     C75567   6.756   4.169   7.881 -0.1636 -0.4446 -1.3980
  573MOL0     C75568   6.703   4.140   7.784 -0.7155  0.5655 -0.0966
  573MOL0     C75569   6.775   4.700   7.795 -0.3443 -0.4089  0.4085
  573MOL0     C75570   6.648   4.734   7.758 -0.0787  0.5045 -0.4598
  573MOL0     H75571   6.181   4.763   7.513  0.0676  0.3320  4.5696
  573MOL0     H75572   6.043   4.932   7.404  0.0665  0.5675 -0.0185
  573MOL0     H75573   6.241   5.329   7.307 -1.4291  1.0926 -1.3400
  573MOL0     H75574   6.081   5.352   7.255 -0.2632  0.5007  1.0987
  573MOL0     H75575   6.240   5.107   7.184 -2.2017 -0.7044  1.8482
  573MOL0     H75576   6.222   5.264   7.084 -0.8446  2.6876  1.8860
  573MOL0     H75577   5.955   5.198   7.134 -1.2992 -0.7600  2.2671
  573MOL0     H75578   6.033   5.046   7.172  0.1065  2.0992  1.2634
  573MOL0     H75579   6.048   5.207   6.906 -1.2724  0.5575  1.0731
  573MOL0     H75580   6.117   5.047   6.925  1.7951  3.1548 -1.4791
  573MOL0     H75581   5.902   5.063   6.803 -0.0582  0.4470 -0.1337
  573MOL0     H75582   5.823   5.110   6.959 -0.8671 -1.2215  0.1763
  573MOL0     H75583   5.877   4.886   7.056 -0.3877  0.8132  0.4023
  573MOL0     H75584   5.974   4.850   6.910  2.7819  2.7296  1.5639
  573MOL0     H75585   5.751   4.750   6.952  0.3266 -0.0044  0.0518
  573MOL0     H75586   5.679   4.907   6.979  1.7731  0.6754  2.3676
  573MOL0     H75587   5.748   4.777   6.717 -0.0305 -0.7646 -0.0317
  573MOL0     H75588   5.708   4.951   6.724 -0.7886  0.7223  0.9706
  573MOL0     H75589   5.443   5.001   6.790  3.5747 -0.2814 -0.1316
  573MOL0     H75590   5.174   4.932   6.838 -2.2403 -1.7343  0.2699
  573MOL0     H75591   5.113   4.784   6.808  2.9045 -1.6080  3.8968
  573MOL0     H75592   5.121   4.779   6.582  0.9762 -1.2779  2.8501
  573MOL0     H75593   5.209   4.938   6.567  0.1881 -1.3450 -0.7242
  573MOL0     H75594   5.004   5.048   6.677 -3.7926 -0.6846  0.3341
  573MOL0     H75595   5.004   4.977   6.503  1.9177  0.4418  0.1025
  573MOL0     H75596   4.905   4.854   6.776 -0.5486  2.9685 -0.2267
  573MOL0     H75597   4.876   4.786   6.609 -2.0330  0.4449 -1.8152
  573MOL0     H75598   4.698   4.759   6.843 -0.0672 -4.2091 -3.3174
  573MOL0     H75599   4.453   4.664   6.845  0.7981  0.8587 -0.3008
  573MOL0     H75600   4.011   4.756   6.432  2.0841  0.0041  2.1114
  573MOL0     H75601   3.774   4.710   6.433 -2.3502 -1.3294 -0.2381
  573MOL0     H75602   3.496   4.843   6.780 -2.2705 -0.9527  4.3220
  573MOL0     H75603   3.571   4.715   6.866  1.0385 -0.6568  0.0845
  573MOL0     H75604   3.457   4.558   6.725 -0.2584  0.3456  0.6620
  573MOL0     H75605   3.368   4.690   6.639  2.8228 -1.6852 -1.9563
  573MOL0     H75606   3.280   4.748   6.898 -3.2733 -2.5731  1.1253
  573MOL0     H75607   3.363   4.590   6.929 -0.0788 -0.5245  0.9346
  573MOL0     H75608   3.151   4.645   6.709  1.3605 -1.2709 -1.6632
  573MOL0     H75609   3.202   4.485   6.751 -0.4286 -0.1891 -1.4057
  573MOL0     H75610   3.062   4.653   6.955 -2.2144 -1.6811  1.6783
  573MOL0     H75611   3.129   4.495   6.979  1.9307 -0.9850 -1.2321
  573MOL0     H75612   2.899   4.551   6.787  1.4002 -1.7808 -2.5782
  573MOL0     H75613   2.881   4.518   6.957 -1.1908 -0.1750 -1.5589
  573MOL0     H75614   3.043   4.328   6.798 -0.0190  4.5602  0.2835
  573MOL0     H75615   2.932   4.284   6.930 -0.4057  1.4441  1.3155
  573MOL0     H75616   2.752   4.348   6.770  0.2397 -1.4487  1.5648
  573MOL0     H75617   2.846   4.203   6.713 -0.9224 -0.4035  0.5496
  573MOL0     H75618   3.769   4.764   6.852 -0.9345 -4.0274 -0.5328
  573MOL0     H75619   4.019   4.839   6.843  1.2611 -0.9489 -0.5297
  573MOL0     H75620   4.339   4.988   6.573 -2.2948 -2.2127 -0.6560
  573MOL0     H75621   4.589   5.067   6.595  1.0593 -1.1058 -0.4416
  573MOL0     H75622   6.322   5.248   7.520 -0.4117  0.2890 -1.6763
  573MOL0     H75623   6.453   5.060   7.633  1.0570 -2.2452 -0.6811
  573MOL0     H75624   6.613   4.515   7.499  1.7815 -1.6135 -0.5832
  573MOL0     H75625   6.816   4.434   7.579 -0.1801  0.6630 -0.8395
  573MOL0     H75626   6.976   4.613   7.977  0.8468  0.2177  1.5324
  573MOL0     H75627   7.118   4.564   7.892  0.1490  0.3020 -4.0955
  573MOL0     H75628   7.000   4.327   7.847 -1.5442  1.8954 -2.3308
  573MOL0     H75629   7.065   4.354   7.990 -2.3061 -4.1752 -0.2237
  573MOL0     H75630   6.764   4.422   7.976  1.2035  2.5743  2.5698
  573MOL0     H75631   6.857   4.376   8.115  2.0789  1.4792 -0.6232
  573MOL0     H75632   6.879   4.152   8.055 -2.3475 -3.4978 -0.3322
  573MOL0     H75633   6.710   4.205   8.076  0.9563  1.9812 -0.4632
  573MOL0     H75634   6.650   4.109   7.695 -0.2846 -0.1817 -0.1012
  573MOL0     H75635   6.844   4.766   7.848  0.1222 -0.4720 -0.1042
  573MOL0     H75636   6.605   4.823   7.803  0.5395 -0.5516  2.4343
  574MOL0     O75637  10.609   8.430  10.871 -0.1455 -0.5843 -0.8179
  574MOL0     C75638  10.541   8.460  10.783  0.5096  0.1985  0.1274
  574MOL0     O75639  10.448   8.376  10.726  0.3155  0.0738 -0.6688
  574MOL0     C75640  10.452   8.241  10.769  0.5294  0.8516 -0.8323
  574MOL0     C75641  10.328   8.195  10.790  0.6435 -0.4103  0.4539
  574MOL0     C75642  10.316   8.061  10.829  0.2524 -0.0914 -0.2844
  574MOL0     C75643  10.426   7.978  10.845 -0.2263 -0.0141 -0.5535
  574MOL0     O75644  10.400   7.848  10.887 -0.0360 -0.2564  0.8463
  574MOL0     C75645  10.499   7.746  10.878  0.0676 -0.2912 -0.6338
  574MOL0     C75646  10.415   7.622  10.858  0.0481 -0.4133  0.1206
  574MOL0     C75647  10.386   7.568  11.006 -0.6224  0.2575  0.3577
  574MOL0     C75648  10.232   7.541  11.015 -0.0832 -0.1971  0.0155
  574MOL0     C75649  10.185   7.472  11.146  0.8978  0.6013 -0.7389
  574MOL0     C75650  10.204   7.313  11.155  0.0287  0.7674  0.3503
  574MOL0     C75651  10.125   7.234  11.050 -0.6115  0.0676 -0.7580
  574MOL0     C75652  10.128   7.084  11.098 -0.8755 -0.2447  0.3166
  574MOL0     N75653  10.264   7.014  11.093  0.3227  0.1286  0.7283
  574MOL0     C75654  10.383   7.062  11.051 -0.2915  0.4857  0.6660
  574MOL0     C75655  10.476   6.964  11.072 -1.1029  0.1101 -0.1039
  574MOL0     C75656  10.620   6.968  11.057  0.3603 -0.3719  0.9197
  574MOL0     C75657  10.660   6.946  10.909  0.2490 -0.2528  0.3041
  574MOL0     C75658  10.676   6.797  10.892  0.1777 -0.1815  0.8675
  574MOL0     C75659  10.776   6.754  10.786  0.8033 -0.9553  0.5583
  574MOL0     O75660  10.905   6.809  10.804  0.1666  0.5434  0.3351
  574MOL0     C75661  10.962   6.793  10.931  0.0700  0.0037  1.5365
  574MOL0     C75662  11.027   6.894  10.994  0.4635 -0.0121  0.5473
  574MOL0     C75663  11.100   6.870  11.113  0.2816 -1.1119 -0.4566
  574MOL0     C75664  11.076   6.750  11.179  0.2042  0.0151  0.5037
  574MOL0     C75665  11.152   6.704  11.297  0.1440 -0.1421 -0.3210
  574MOL0     O75666  11.135   6.572  11.348  0.1449 -0.3711  0.1227
  574MOL0     C75667  11.108   6.559  11.480 -1.0677  0.1252  0.3197
  574MOL0     C75668  10.996   6.612  11.535  0.2669 -0.5311  0.1008
  574MOL0     C75669  10.956   6.586  11.669  0.2167  0.5673  0.0611
  574MOL0     C75670  11.030   6.496  11.746  1.5305 -0.4305 -0.5518
  574MOL0     O75671  10.994   6.446  11.871  0.1509  0.2033  0.1439
  574MOL0     C75672  10.856   6.458  11.908  0.6625 -0.3573  0.1594
  574MOL0     C75673  10.822   6.429  12.057 -0.5957  0.1565 -0.1901
  574MOL0     C75674  10.910   6.304  12.097 -0.0658  0.4976  0.3419
  574MOL0     C75675  10.883   6.238  12.236  0.3128  0.2128 -0.2611
  574MOL0     C75676  10.762   6.133  12.226 -0.3018 -0.3683 -0.2354
  574MOL0     C75677  10.718   6.053  12.339 -0.1745  0.8763  0.5722
  574MOL0     C75678  10.680   6.131  12.462 -0.5910 -0.0193  0.7217
  574MOL0     C75679  10.561   6.216  12.447  0.2284 -0.0473 -0.7106
  574MOL0    Cl75680  10.441   6.113  12.369  0.1790 -0.2298 -0.0629
  574MOL0     C75681  11.139   6.436  11.690  0.4720 -0.6487 -0.1737
  574MOL0     C75682  11.185   6.477  11.561  0.9364 -0.0104 -0.0789
  574MOL0     O75683  11.239   6.782  11.339  0.0428 -0.6411  0.1921
  574MOL0     C75684  11.008   6.648  11.109  0.9318  0.6311 -0.9767
  574MOL0     C75685  10.955   6.670  10.987  1.3489 -0.1895  0.1225
  574MOL0     N75686  10.406   6.852  11.116 -0.1719 -0.2084  0.2960
  574MOL0     N75687  10.285   6.895  11.143  0.4559  0.3069 -0.3159
  574MOL0     C75688  10.555   8.025  10.826  0.9695 -0.1488 -0.2662
  574MOL0     C75689  10.567   8.160  10.776  1.2505  0.3783 -0.3881
  574MOL0     C75690  10.560   8.582  10.710 -0.1747  0.3158  0.9442
  574MOL0     C75691  10.676   8.665  10.726  0.1644  0.0526  0.2454
  574MOL0     C75692  10.688   8.786  10.663  0.4320  0.5247  0.4332
  574MOL0     C75693  10.603   8.829  10.567  0.2718  0.1386  1.2947
  574MOL0     O75694  10.644   8.938  10.496 -0.8595  0.1163  0.3224
  574MOL0     C75695  10.555   9.050  10.507  0.7819  0.3156  0.1935
  574MOL0     C75696  10.537   9.088  10.655  0.1000  0.0903  0.0305
  574MOL0     C75697  10.433   9.190  10.689  0.4920  0.0529  0.1023
  574MOL0     C75698  10.440   9.332  10.611  0.5717 -0.4591 -0.1317
  574MOL0     C75699  10.579   9.379  10.596  0.2534  0.1894 -0.6630
  574MOL0     C75700  10.694   9.401  10.599  0.1405  0.0424  0.7403
  574MOL0     C75701  10.498   8.743  10.534  0.4678 -1.0388  0.1918
  574MOL0     C75702  10.472   8.622  10.605  0.0360 -1.1346 -1.0708
  574MOL0     H75703  10.248   8.268  10.793  0.4166 -0.1464 -4.4543
  574MOL0     H75704  10.218   8.016  10.844  0.5388 -0.6978 -0.1760
  574MOL0     H75705  10.575   7.752  10.957  0.6244  0.6813 -1.2177
  574MOL0     H75706  10.566   7.757  10.792 -0.9969  1.5389 -1.2803
  574MOL0     H75707  10.475   7.550  10.802 -2.6601 -2.2798 -0.5527
  574MOL0     H75708  10.323   7.643  10.803 -1.3904 -1.0387  2.2167
  574MOL0     H75709  10.403   7.642  11.085 -5.0848  3.4707 -1.3286
  574MOL0     H75710  10.442   7.474  11.021 -1.5808 -0.1992  1.2060
  574MOL0     H75711  10.180   7.637  11.005  0.3887  0.0092 -0.4432
  574MOL0     H75712  10.198   7.472  10.937 -1.7201 -1.1408  1.4785
  574MOL0     H75713  10.077   7.483  11.162  0.9089 -0.6549  0.3132
  574MOL0     H75714  10.228   7.533  11.226 -0.4095 -1.3348  1.5877
  574MOL0     H75715  10.179   7.269  11.252 -1.8395 -0.7449 -0.7541
  574MOL0     H75716  10.308   7.285  11.136 -0.9041 -2.5257 -0.5706
  574MOL0     H75717  10.022   7.269  11.059 -0.5956 -0.2520  1.1239
  574MOL0     H75718  10.165   7.241  10.949 -2.4576  2.9059 -1.4042
  574MOL0     H75719  10.052   7.021  11.051 -0.1625 -2.2333  1.6923
  574MOL0     H75720  10.094   7.078  11.202  1.3902 -0.8576  1.0722
  574MOL0     H75721  10.406   7.161  11.013  3.9012 -0.7386 -0.5743
  574MOL0     H75722  10.673   6.895  11.120  1.1955 -1.7690 -1.2702
  574MOL0     H75723  10.656   7.067  11.085 -2.4677  0.6663  1.1448
  574MOL0     H75724  10.755   6.997  10.891 -0.3610 -0.0229 -2.7431
  574MOL0     H75725  10.579   6.988  10.849  0.1458 -0.5688  0.2232
  574MOL0     H75726  10.709   6.740  10.979 -1.0554 -1.9652  0.2151
  574MOL0     H75727  10.574   6.762  10.877  0.0857 -0.0959  1.2918
  574MOL0     H75728  10.744   6.775  10.684  1.9185  0.5464  0.4756
  574MOL0     H75729  10.769   6.645  10.778  0.3150 -1.0868  2.2768
  574MOL0     H75730  11.019   6.991  10.946  1.0739 -0.7425 -1.0990
  574MOL0     H75731  11.160   6.952  11.153 -1.5306  0.2656 -0.4051
  574MOL0     H75732  10.934   6.676  11.473 -0.0003 -1.5672 -0.7327
  574MOL0     H75733  10.868   6.640  11.702 -1.0751 -1.0985 -0.5201
  574MOL0     H75734  10.795   6.392  11.846 -0.1280 -0.2732  0.8287
  574MOL0     H75735  10.831   6.563  11.889  0.5424 -0.8637 -3.1536
  574MOL0     H75736  10.716   6.405  12.073 -0.5107  0.7867  1.5442
  574MOL0     H75737  10.851   6.510  12.124  0.1068  0.8669 -1.3251
  574MOL0     H75738  11.016   6.330  12.103  0.5800 -2.2870  3.6017
  574MOL0     H75739  10.901   6.228  12.019 -3.4905  0.9072  0.1931
  574MOL0     H75740  10.978   6.190  12.259  1.1561  1.7125 -0.4947
  574MOL0     H75741  10.871   6.320  12.307  2.1138 -0.1076  0.4326
  574MOL0     H75742  10.803   6.073  12.144  1.2600 -0.0785  0.3064
  574MOL0     H75743  10.674   6.193  12.202 -0.5872 -0.7549 -0.1596
  574MOL0     H75744  10.794   5.977  12.360 -0.6936  0.2989  0.3913
  574MOL0     H75745  10.642   5.983  12.305  0.5503 -0.0631  0.8621
  574MOL0     H75746  10.656   6.059  12.542 -4.9686  0.7241  0.3683
  574MOL0     H75747  10.755   6.206  12.489 -0.0089 -0.7409  1.1493
  574MOL0     H75748  10.587   6.297  12.378  2.6214  1.3080  1.5637
  574MOL0     H75749  10.533   6.265  12.541  0.3252  0.9744 -1.1978
  574MOL0     H75750  11.182   6.351  11.742 -0.7683 -1.0172  0.2782
  574MOL0     H75751  11.276   6.436  11.518  1.4166 -1.1369  1.9051
  574MOL0     H75752  11.004   6.547  11.148 -1.6793 -0.4503 -3.6043
  574MOL0     H75753  10.896   6.594  10.938  2.7585 -0.4607 -1.2301
  574MOL0     H75754  10.639   7.956  10.836  1.3245  0.5878  2.8981
  574MOL0     H75755  10.670   8.184  10.751  0.6527  0.3173 -3.2873
  574MOL0     H75756  10.757   8.642  10.794  0.8334  1.4998 -0.0053
  574MOL0     H75757  10.781   8.834  10.691  1.3821 -0.0979 -1.4948
  574MOL0     H75758  10.456   9.029  10.466 -0.0913 -1.4209  2.9387
  574MOL0     H75759  10.595   9.131  10.446 -1.1067  1.3554  0.2682
  574MOL0     H75760  10.519   8.992  10.705 -3.7267  1.3670  1.5059
  574MOL0     H75761  10.629   9.137  10.687 -1.9923  3.9597  0.7625
  574MOL0     H75762  10.428   9.204  10.797 -0.5318  2.5679 -0.2129
  574MOL0     H75763  10.332   9.157  10.663  0.2872  0.5342  0.2730
  574MOL0     H75764  10.406   9.316  10.509 -1.5447 -0.4071  0.5138
  574MOL0     H75765  10.374   9.407  10.655  0.4998  0.4875 -1.7804
  574MOL0     H75766  10.793   9.441  10.587 -0.3669  1.7179  1.7068
  574MOL0     H75767  10.431   8.777  10.456  1.4116  0.1869 -0.1088
  574MOL0     H75768  10.389   8.558  10.578 -0.2166 -2.5537  2.4757
  575MOL0     O75769   2.901   6.014   9.195 -0.3052  0.4019 -0.3695
  575MOL0     C75770   2.867   5.921   9.120  0.4426  0.8134  0.6707
  575MOL0     O75771   2.739   5.863   9.117  0.1204 -0.1734 -0.3897
  575MOL0     C75772   2.647   5.892   9.211 -0.6247 -0.5857 -0.1635
  575MOL0     C75773   2.517   5.857   9.174  0.9498  0.2415  0.5377
  575MOL0     C75774   2.423   5.886   9.258 -0.3040 -0.0104 -0.6588
  575MOL0     C75775   2.441   5.940   9.385  0.1468 -0.5109 -0.0899
  575MOL0     O75776   2.326   5.969   9.458  0.0993  0.3303 -0.1045
  575MOL0     C75777   2.331   6.041   9.581  0.6708  0.5297 -0.5044
  575MOL0     C75778   2.321   6.185   9.536  0.8884 -0.8573 -0.0002
  575MOL0     C75779   2.382   6.277   9.645 -0.7676 -0.1270 -0.2948
  575MOL0     C75780   2.401   6.420   9.606  1.5758 -1.1390  0.0137
  575MOL0     C75781   2.367   6.520   9.723 -0.3868 -0.2153 -0.4185
  575MOL0     C75782   2.453   6.510   9.843  0.5791 -1.0913 -0.3081
  575MOL0     C75783   2.425   6.609   9.944  0.0373  0.4874 -0.3443
  575MOL0     C75784   2.301   6.575  10.018 -0.5030 -0.0602  0.5614
  575MOL0     N75785   2.280   6.667  10.127  0.9117 -0.0376  0.2579
  575MOL0     C75786   2.330   6.646  10.247 -0.0435 -1.2188 -0.2069
  575MOL0     C75787   2.318   6.768  10.312 -0.0002 -0.1682 -0.0706
  575MOL0     C75788   2.384   6.802  10.437  0.1301 -0.6012  0.2384
  575MOL0     C75789   2.449   6.942  10.455  1.0452 -0.7817 -0.8112
  575MOL0     C75790   2.344   7.057  10.470  0.6836  0.7316 -0.6059
  575MOL0     C75791   2.426   7.177  10.523 -1.1717  0.6645  0.3101
  575MOL0     O75792   2.350   7.227  10.630  1.1012  0.3234  0.4459
  575MOL0     C75793   2.383   7.345  10.688 -0.8408  1.5091  0.5093
  575MOL0     C75794   2.497   7.428  10.657  0.9737 -0.3649 -0.5610
  575MOL0     C75795   2.529   7.549  10.729 -0.3098  0.9863  0.0743
  575MOL0     C75796   2.438   7.590  10.818  0.3069 -0.3866  1.2789
  575MOL0     C75797   2.462   7.707  10.897  0.5253 -0.3736 -0.1173
  575MOL0     O75798   2.388   7.730  11.009 -0.0583 -0.3450  0.3109
  575MOL0     C75799   2.442   7.804  11.111 -0.1923  0.3289 -0.2947
  575MOL0     C75800   2.401   7.937  11.143 -0.3303 -0.2800  0.2849
  575MOL0     C75801   2.451   8.005  11.246 -0.1265  0.1969  0.6452
  575MOL0     C75802   2.531   7.936  11.340  0.5290 -0.5740 -0.2830
  575MOL0     O75803   2.589   8.001  11.445 -0.7089  0.1637  0.8267
  575MOL0     C75804   2.711   7.963  11.495 -0.3650  0.5330 -0.3059
  575MOL0     C75805   2.769   8.085  11.561 -0.3705 -0.0243  0.5315
  575MOL0     C75806   2.687   8.149  11.673 -0.0328 -0.8079 -0.1428
  575MOL0     C75807   2.769   8.263  11.738 -0.1344 -0.3735 -0.5209
  575MOL0     C75808   2.679   8.375  11.802 -0.0141 -0.1836  0.0521
  575MOL0     C75809   2.566   8.453  11.718 -0.5863 -0.2534  0.0459
  575MOL0     C75810   2.437   8.482  11.797 -0.5499 -0.4204 -0.8170
  575MOL0     C75811   2.463   8.586  11.918  0.0303 -0.1005  0.2526
  575MOL0    Cl75812   2.308   8.641  11.974  0.1883 -0.3716  0.2683
  575MOL0     C75813   2.548   7.800  11.332 -0.1135  0.3712 -0.2188
  575MOL0     C75814   2.507   7.739  11.211 -0.4113 -0.1439 -0.7133
  575MOL0     O75815   2.542   7.787  10.860 -0.2575 -0.6467  0.4896
  575MOL0     C75816   2.319   7.513  10.841 -0.7429  0.7208 -0.3538
  575MOL0     C75817   2.300   7.387  10.784  1.1450 -0.7855 -0.0248
  575MOL0     N75818   2.242   6.845  10.226 -0.1274 -0.1269  0.5062
  575MOL0     N75819   2.214   6.781  10.121  0.1227 -0.6501 -0.5613
  575MOL0     C75820   2.577   5.981   9.425 -0.6922 -0.4613  1.1824
  575MOL0     C75821   2.678   5.947   9.334 -0.6270 -0.3115  0.6134
  575MOL0     C75822   2.981   5.863   9.049 -0.0100  0.7578 -0.9390
  575MOL0     C75823   3.077   5.940   8.993 -0.4176 -1.3515  0.9501
  575MOL0     C75824   3.181   5.895   8.913  0.1594 -0.1316  1.0876
  575MOL0     C75825   3.177   5.764   8.871 -0.4727  0.5330  0.0499
  575MOL0     O75826   3.270   5.698   8.780 -0.1883  0.0548 -0.2255
  575MOL0     C75827   3.345   5.777   8.694 -0.0807  0.7061  0.1618
  575MOL0     C75828   3.391   5.677   8.584 -0.3694  0.1259 -0.0655
  575MOL0     C75829   3.523   5.608   8.613  0.1219  0.6096 -0.9645
  575MOL0     C75830   3.575   5.529   8.490 -0.4705  1.4712 -0.1210
  575MOL0     C75831   3.662   5.600   8.392  1.7312  0.1877 -0.5463
  575MOL0     C75832   3.733   5.666   8.325 -0.1692 -0.2736  0.4280
  575MOL0     C75833   3.079   5.684   8.919  0.0998  0.0903 -1.3741
  575MOL0     C75834   2.980   5.726   9.013 -0.6013  0.3979  0.2469
  575MOL0     H75835   2.486   5.806   9.083 -2.5490  0.4145  1.4758
  575MOL0     H75836   2.321   5.853   9.239 -0.3448 -1.2311  1.4543
  575MOL0     H75837   2.416   6.013   9.644 -1.0520 -5.1428 -0.1570
  575MOL0     H75838   2.246   6.034   9.649  0.0685  0.1029 -1.2862
  575MOL0     H75839   2.218   6.215   9.514  1.5350 -0.5807 -3.1983
  575MOL0     H75840   2.376   6.203   9.443  2.3284 -0.5730  0.8742
  575MOL0     H75841   2.480   6.236   9.671 -0.5203 -2.3585 -4.1218
  575MOL0     H75842   2.323   6.267   9.736 -0.7662  1.5192 -0.0797
  575MOL0     H75843   2.500   6.437   9.562  1.0826 -0.0894 -0.7335
  575MOL0     H75844   2.325   6.440   9.529  2.5208  0.7931 -0.4699
  575MOL0     H75845   2.263   6.504   9.753  0.4328  0.4429  3.3320
  575MOL0     H75846   2.386   6.610   9.664  0.1914  0.4847  0.7940
  575MOL0     H75847   2.558   6.527   9.819  0.3315  1.2635  0.0664
  575MOL0     H75848   2.451   6.404   9.872 -1.1366 -0.8116  0.7018
  575MOL0     H75849   2.512   6.602  10.011 -0.6900 -3.1445  0.4736
  575MOL0     H75850   2.423   6.710   9.903 -0.8934  1.0503  1.0270
  575MOL0     H75851   2.312   6.471  10.048  0.3035 -1.1173 -2.8721
  575MOL0     H75852   2.219   6.577   9.946  0.2065  2.4549 -0.2849
  575MOL0     H75853   2.398   6.567  10.278  1.5864  0.1270 -0.1925
  575MOL0     H75854   2.452   6.722  10.468  2.7853  2.0136  1.7418
  575MOL0     H75855   2.300   6.797  10.506 -0.0215 -2.5757 -0.0447
  575MOL0     H75856   2.507   6.976  10.369 -0.2477 -0.2692 -1.5230
  575MOL0     H75857   2.509   6.933  10.546 -1.4777 -1.4353  0.8897
  575MOL0     H75858   2.306   7.075  10.369  2.5149 -2.1750 -1.9415
  575MOL0     H75859   2.273   7.027  10.549  0.5169  1.9119 -0.2917
  575MOL0     H75860   2.449   7.245  10.440 -0.1441  0.4574  0.4053
  575MOL0     H75861   2.517   7.137  10.569 -1.6882 -0.9456 -0.0054
  575MOL0     H75862   2.567   7.401  10.579  1.8955 -0.7072  0.3638
  575MOL0     H75863   2.617   7.607  10.704  0.4809  0.9346  2.4811
  575MOL0     H75864   2.330   7.975  11.071 -1.1882 -2.3828 -0.0477
  575MOL0     H75865   2.432   8.111  11.254 -0.8500  0.3923 -2.4198
  575MOL0     H75866   2.784   7.936  11.418 -0.9785  0.2314 -0.7877
  575MOL0     H75867   2.716   7.876  11.562  0.8222  1.2849  0.6257
  575MOL0     H75868   2.777   8.154  11.477 -0.6258 -2.2376 -1.3999
  575MOL0     H75869   2.870   8.060  11.594  0.0832 -1.4552 -1.7388
  575MOL0     H75870   2.667   8.073  11.749  2.1496  0.7510  2.1298
  575MOL0     H75871   2.597   8.186  11.624 -0.7259 -1.6292  0.4629
  575MOL0     H75872   2.822   8.218  11.823 -0.3278  1.5739  0.6846
  575MOL0     H75873   2.844   8.301  11.669  2.0265  0.2410  2.0073
  575MOL0     H75874   2.743   8.455  11.838 -1.1595  1.0529 -0.5554
  575MOL0     H75875   2.628   8.327  11.886 -2.9543  1.1697 -0.8256
  575MOL0     H75876   2.541   8.387  11.634  1.3398 -1.4132  0.3245
  575MOL0     H75877   2.610   8.540  11.670 -0.4267 -0.5914 -0.4347
  575MOL0     H75878   2.361   8.528  11.733 -1.3749 -0.8117 -0.1512
  575MOL0     H75879   2.390   8.388  11.831  1.0048 -1.8919 -2.5310
  575MOL0     H75880   2.516   8.678  11.891 -1.0533  1.4684  3.0706
  575MOL0     H75881   2.521   8.548  12.003  1.2565  1.7639  0.2966
  575MOL0     H75882   2.609   7.744  11.402  1.4589  1.5188 -0.5953
  575MOL0     H75883   2.537   7.636  11.194  1.2697  0.7211 -3.6083
  575MOL0     H75884   2.258   7.549  10.923 -0.7976 -0.9468  0.3816
  575MOL0     H75885   2.214   7.331  10.817  0.6184 -1.4071 -2.2430
  575MOL0     H75886   2.622   6.015   9.518  3.6134  2.6546 -1.6508
  575MOL0     H75887   2.777   5.958   9.377 -1.0015  0.3657  1.3322
  575MOL0     H75888   3.072   6.045   9.023 -3.3996 -0.8728 -0.8259
  575MOL0     H75889   3.255   5.969   8.884 -0.6433  0.1210 -0.4760
  575MOL0     H75890   3.426   5.820   8.753 -2.1510  1.2367  2.8012
  575MOL0     H75891   3.281   5.854   8.650  3.1846  3.5177 -0.0500
  575MOL0     H75892   3.317   5.605   8.547 -2.2097  0.1626  3.1031
  575MOL0     H75893   3.403   5.741   8.497 -0.0925  1.8554  1.1987
  575MOL0     H75894   3.523   5.533   8.693 -0.6229  1.3691 -0.2445
  575MOL0     H75895   3.588   5.691   8.642 -3.2173  2.5968  1.6869
  575MOL0     H75896   3.651   5.463   8.531  2.2313  3.5718 -1.4236
  575MOL0     H75897   3.505   5.470   8.430  1.1408 -0.9000  0.2003
  575MOL0     H75898   3.818   5.719   8.287 -1.1403  3.0308  2.4805
  575MOL0     H75899   3.093   5.580   8.889  1.3635  0.4827 -2.2315
  575MOL0     H75900   2.896   5.663   9.038  0.5651 -2.1148 -1.7468
  576MOL0     O75901  11.274   5.988  10.078  0.1468 -0.1074 -0.6928
  576MOL0     C75902  11.318   5.919   9.986 -0.7057  0.5223 -0.4735
  576MOL0     O75903  11.439   5.938   9.926  0.0306  0.0255 -0.1152
  576MOL0     C75904  11.534   6.022   9.984 -1.2984 -0.9037  0.9677
  576MOL0     C75905  11.588   6.007  10.112 -0.4697 -1.1971  1.0233
  576MOL0     C75906  11.689   6.091  10.152 -0.6769  0.3050 -0.0350
  576MOL0     C75907  11.736   6.194  10.072  0.8275 -0.2415 -0.2258
  576MOL0     O75908  11.835   6.267  10.139 -0.2835  1.0907 -0.2853
  576MOL0     C75909  11.938   6.326  10.056 -0.5385  0.3740  0.0577
  576MOL0     C75910  12.059   6.341  10.141  0.3181 -0.3744  0.8764
  576MOL0     C75911  12.165   6.433  10.074  0.4239 -0.1169  0.0592
  576MOL0     C75912  12.293   6.449  10.155 -0.2807 -0.4966 -0.5749
  576MOL0     C75913  12.360   6.308  10.178  0.4676 -0.7857 -0.2309
  576MOL0     C75914  12.509   6.324  10.209 -0.6169 -0.2660  0.0716
  576MOL0     C75915  12.521   6.357  10.358  0.5279  0.5792  0.0369
  576MOL0     C75916  12.644   6.445  10.381 -0.3870 -0.5056  0.5117
  576MOL0     N75917  12.764   6.377  10.329 -0.7481 -0.3544 -0.1635
  576MOL0     C75918  12.885   6.439  10.307  0.1322  1.0415 -0.7674
  576MOL0     C75919  12.970   6.343  10.272  1.3085 -1.1484 -0.2834
  576MOL0     C75920  13.113   6.372  10.213  0.3450 -1.1331  0.4421
  576MOL0     C75921  13.116   6.470  10.084  1.0018  0.2894 -0.4540
  576MOL0     C75922  13.109   6.375   9.949 -0.2203  0.1371  0.5468
  576MOL0     C75923  13.006   6.433   9.849 -0.3983 -0.8550  0.2976
  576MOL0     O75924  12.874   6.388   9.891  0.9715  0.3322  0.8050
  576MOL0     C75925  12.762   6.422   9.819  0.5002 -0.3757 -0.1263
  576MOL0     C75926  12.657   6.343   9.837  0.3022  0.6351 -0.2229
  576MOL0     C75927  12.534   6.381   9.782 -0.2868 -0.7903 -0.4749
  576MOL0     C75928  12.513   6.507   9.725 -0.0865 -0.2358  0.0404
  576MOL0     C75929  12.373   6.544   9.682  0.5711 -0.5923 -1.2058
  576MOL0     O75930  12.273   6.453   9.690 -0.5124 -0.6447 -0.5407
  576MOL0     C75931  12.137   6.481   9.697  0.5337  0.0219  0.0350
  576MOL0     C75932  12.053   6.373   9.659 -1.0238 -0.4389  0.5522
  576MOL0     C75933  11.921   6.376   9.665  0.0447  0.2788  0.6956
  576MOL0     C75934  11.856   6.496   9.707  0.2770 -0.2623 -0.0033
  576MOL0     O75935  11.729   6.516   9.747  0.7776 -0.9706 -1.0434
  576MOL0     C75936  11.626   6.440   9.679 -0.6116 -0.5345 -0.1011
  576MOL0     C75937  11.572   6.507   9.547 -0.5352 -0.6675 -1.6629
  576MOL0     C75938  11.572   6.657   9.551 -0.3968  0.4719  0.0656
  576MOL0     C75939  11.486   6.707   9.669  0.2121  0.1056  0.0483
  576MOL0     C75940  11.498   6.863   9.685  0.1815 -0.2723  0.1000
  576MOL0     C75941  11.424   6.921   9.809  0.5842  0.3245 -0.6838
  576MOL0     C75942  11.445   7.077   9.844  0.2318  0.2247 -0.5786
  576MOL0     C75943  11.413   7.165   9.735 -0.5616 -0.7088 -0.3231
  576MOL0    Cl75944  11.281   7.114   9.632  0.2143  0.2832 -0.0723
  576MOL0     C75945  11.933   6.601   9.740 -0.4492 -0.1698 -0.5105
  576MOL0     C75946  12.073   6.603   9.731  0.0108  1.0079  0.1381
  576MOL0     O75947  12.359   6.663   9.652  0.4928 -0.1580 -0.0259
  576MOL0     C75948  12.622   6.591   9.712  0.5145  0.2233  0.1466
  576MOL0     C75949  12.748   6.546   9.754  0.3804  0.0487 -0.2456
  576MOL0     N75950  12.900   6.225  10.288 -0.0813  0.0226 -0.3792
  576MOL0     N75951  12.780   6.249  10.329 -0.3611  0.6471  0.5328
  576MOL0     C75952  11.689   6.202   9.942  0.4527  1.4234  0.9718
  576MOL0     C75953  11.591   6.114   9.896 -0.2338  0.4203 -0.0782
  576MOL0     C75954  11.226   5.810   9.958  0.0098 -0.0584  0.2995
  576MOL0     C75955  11.090   5.805  10.005  0.4447  0.2975 -0.2778
  576MOL0     C75956  11.011   5.705   9.958  0.8018  0.8966 -0.7507
  576MOL0     C75957  11.058   5.597   9.876 -0.3046 -0.4613  0.0487
  576MOL0     O75958  10.958   5.498   9.854 -0.2675  0.1095  0.6300
  576MOL0     C75959  10.989   5.361   9.813 -0.5625 -0.0257 -0.6066
  576MOL0     C75960  10.864   5.282   9.791 -0.2414  0.1283  0.3728
  576MOL0     C75961  10.778   5.339   9.684  0.6479 -0.4392  0.5600
  576MOL0     C75962  10.647   5.259   9.660 -0.3370  0.5779  0.6847
  576MOL0     C75963  10.574   5.314   9.550  0.2793 -0.2175 -0.7901
  576MOL0     C75964  10.511   5.359   9.452  0.5495  0.1665 -1.2248
  576MOL0     C75965  11.192   5.593   9.833 -0.0767 -0.1559 -0.1109
  576MOL0     C75966  11.272   5.710   9.871 -0.3399 -0.4157 -0.3264
  576MOL0     H75967  11.549   5.916  10.156 -2.4143 -2.8318 -3.5111
  576MOL0     H75968  11.728   6.081  10.253 -0.5363 -2.1114 -0.2829
  576MOL0     H75969  11.902   6.425  10.025 -0.1563 -0.3740 -3.1098
  576MOL0     H75970  11.959   6.273   9.962  2.0835  0.6629  0.4211
  576MOL0     H75971  12.097   6.239  10.157 -1.1368 -1.0439  0.2989
  576MOL0     H75972  12.040   6.392  10.236  0.1887  2.7586 -0.7043
  576MOL0     H75973  12.121   6.530  10.050 -0.9179 -0.7148  0.0540
  576MOL0     H75974  12.192   6.389   9.978 -0.8589  1.9711 -1.3206
  576MOL0     H75975  12.363   6.521  10.112  0.0115  0.8700  1.9866
  576MOL0     H75976  12.267   6.494  10.251  1.1857  0.9737 -0.8172
  576MOL0     H75977  12.354   6.262  10.080 -0.3764 -0.0648 -0.5310
  576MOL0     H75978  12.315   6.248  10.257 -0.6865  1.7860  1.1944
  576MOL0     H75979  12.546   6.408  10.150 -1.2498 -0.1256 -0.1331
  576MOL0     H75980  12.558   6.234  10.171 -0.5564  0.1983 -0.9963
  576MOL0     H75981  12.434   6.413  10.393 -0.7945 -1.2821 -0.0716
  576MOL0     H75982  12.521   6.259  10.407  1.5600 -0.6401 -2.2250
  576MOL0     H75983  12.667   6.476  10.484 -0.7963  3.3854 -0.4178
  576MOL0     H75984  12.623   6.533  10.320 -0.5877 -0.2103  1.0013
  576MOL0     H75985  12.891   6.544  10.279 -0.1751  0.4898 -3.0947
  576MOL0     H75986  13.174   6.281  10.210  4.6044  1.4572 -0.2865
  576MOL0     H75987  13.176   6.427  10.283  0.6981 -0.2189 -0.5751
  576MOL0     H75988  13.201   6.539  10.090  1.3574 -0.2069  4.0654
  576MOL0     H75989  13.037   6.542  10.106  0.7730 -0.5714  1.8135
  576MOL0     H75990  13.210   6.371   9.906 -0.4650 -4.2132 -0.1085
  576MOL0     H75991  13.087   6.274   9.986 -3.6236  0.3054 -0.7018
  576MOL0     H75992  13.025   6.389   9.751 -1.0158 -1.6728  0.5374
  576MOL0     H75993  13.011   6.542   9.849 -1.7351 -0.7738 -0.7068
  576MOL0     H75994  12.679   6.252   9.892  1.1235  1.0143  0.0998
  576MOL0     H75995  12.451   6.315   9.805  2.2845 -4.3119 -0.4935
  576MOL0     H75996  12.098   6.285   9.616 -2.7569 -1.9344  1.6622
  576MOL0     H75997  11.869   6.281   9.660  2.3628 -1.0122 -0.8586
  576MOL0     H75998  11.547   6.420   9.753  0.2785 -1.7225  0.5608
  576MOL0     H75999  11.648   6.335   9.659  0.1794 -0.8414  2.1280
  576MOL0     H76000  11.468   6.479   9.527 -1.4811  0.9566  0.5614
  576MOL0     H76001  11.648   6.471   9.478  1.7906 -1.4162  1.0962
  576MOL0     H76002  11.526   6.685   9.455 -4.3235 -1.2430  1.2499
  576MOL0     H76003  11.667   6.708   9.569 -0.5018  1.1689 -1.2183
  576MOL0     H76004  11.379   6.693   9.652 -0.6073  4.3257  0.6138
  576MOL0     H76005  11.534   6.655   9.753 -0.2354  1.0908  0.9353
  576MOL0     H76006  11.446   6.911   9.601  1.2822 -0.3753 -0.6679
  576MOL0     H76007  11.602   6.889   9.707  0.1771 -2.1848  2.6750
  576MOL0     H76008  11.474   6.879   9.897  0.4540  2.8538  0.6887
  576MOL0     H76009  11.319   6.889   9.801  0.5731 -0.4116  1.5960
  576MOL0     H76010  11.395   7.106   9.936  1.8534  1.8800 -0.1636
  576MOL0     H76011  11.548   7.095   9.873  0.2806 -0.8870  0.0061
  576MOL0     H76012  11.501   7.173   9.671  1.1551  1.0618  2.0371
  576MOL0     H76013  11.387   7.263   9.775 -1.8067 -1.4412  0.7718
  576MOL0     H76014  11.880   6.690   9.773  0.5874  0.4368 -0.4554
  576MOL0     H76015  12.131   6.685   9.772 -1.8406  2.9841 -0.9727
  576MOL0     H76016  12.628   6.678   9.648 -0.9687 -0.8741 -1.5733
  576MOL0     H76017  12.841   6.601   9.739  2.6520 -3.1965  0.6843
  576MOL0     H76018  11.726   6.271   9.867  0.7484  3.9214  3.2574
  576MOL0     H76019  11.550   6.112   9.795 -1.2303 -0.9301  0.3322
  576MOL0     H76020  11.046   5.881  10.069  0.4690 -1.0118  1.3750
  576MOL0     H76021  10.909   5.701   9.994  1.5760  0.6857  1.5473
  576MOL0     H76022  11.048   5.306   9.887 -0.3952  0.0558 -0.6798
  576MOL0     H76023  11.046   5.370   9.720 -1.0767  1.4419 -0.8081
  576MOL0     H76024  10.893   5.184   9.752 -0.8746 -0.0620  0.3727
  576MOL0     H76025  10.809   5.272   9.885 -0.4945  2.5603  0.5673
  576MOL0     H76026  10.836   5.342   9.590 -0.3218  2.4217 -0.0473
  576MOL0     H76027  10.754   5.441   9.714 -0.6298 -0.3124 -0.7926
  576MOL0     H76028  10.675   5.158   9.629 -0.8167  0.2835  1.1935
  576MOL0     H76029  10.575   5.263   9.743 -0.6007  0.2341  0.4769
  576MOL0     H76030  10.466   5.389   9.359 -0.0745 -0.3789 -1.1061
  576MOL0     H76031  11.241   5.510   9.783  0.7408 -0.0012  0.4155
  576MOL0     H76032  11.371   5.722   9.828 -1.4734  4.7134 -2.2076
  577MOL0     O76033   5.365   2.173   8.945  1.2570  0.3443  0.5633
  577MOL0     C76034   5.473   2.110   8.956 -0.4998  0.3008  0.4057
  577MOL0     O76035   5.525   2.025   8.860 -0.2990  0.1049  0.2434
  577MOL0     C76036   5.444   1.980   8.758  0.0512 -0.1063 -0.3485
  577MOL0     C76037   5.326   2.041   8.699 -0.5876  0.2886 -0.2157
  577MOL0     C76038   5.252   1.976   8.599  0.5022 -1.2709  1.3870
  577MOL0     C76039   5.292   1.859   8.540 -0.8862 -0.5581  0.4115
  577MOL0     O76040   5.206   1.811   8.446 -0.3719  0.1857  0.3898
  577MOL0     C76041   5.241   1.695   8.370  0.0711 -0.6267  0.2277
  577MOL0     C76042   5.104   1.646   8.309  0.1860  0.4510  0.1112
  577MOL0     C76043   5.125   1.496   8.263 -0.4538  1.8308  0.8061
  577MOL0     C76044   5.228   1.468   8.147  0.1911 -1.1066  0.5797
  577MOL0     C76045   5.145   1.412   8.029  1.0382 -0.0403 -0.7285
  577MOL0     C76046   5.228   1.399   7.894  0.1202  0.5965 -0.0502
  577MOL0     C76047   5.289   1.258   7.888  1.1133 -0.4815 -0.1515
  577MOL0     C76048   5.417   1.229   7.804  0.8153 -0.3489 -0.3943
  577MOL0     N76049   5.533   1.275   7.872  0.3874  0.0159  0.1873
  577MOL0     C76050   5.598   1.222   7.985 -0.3762  1.1993  0.3314
  577MOL0     C76051   5.683   1.319   8.022  0.3145  0.6018 -0.3372
  577MOL0     C76052   5.775   1.300   8.147 -0.1511  0.0013  0.0047
  577MOL0     C76053   5.727   1.354   8.280  0.1057  0.0944 -0.6525
  577MOL0     C76054   5.576   1.311   8.309 -0.0803  0.4467 -0.0338
  577MOL0     C76055   5.531   1.347   8.454 -0.3757  0.3826 -1.2483
  577MOL0     O76056   5.564   1.486   8.487 -0.4096 -0.7879  0.1632
  577MOL0     C76057   5.591   1.498   8.621  0.5968  0.0704 -0.5686
  577MOL0     C76058   5.718   1.535   8.658  0.3195  0.4114 -0.0856
  577MOL0     C76059   5.753   1.547   8.796  0.9561  0.4167  0.2359
  577MOL0     C76060   5.654   1.534   8.897  0.3009  0.8941 -0.4584
  577MOL0     C76061   5.685   1.562   9.043 -0.5994 -0.1651 -0.4641
  577MOL0     O76062   5.587   1.528   9.132  0.1733  0.1406 -0.4612
  577MOL0     C76063   5.598   1.571   9.263 -0.6541 -0.1688  0.6289
  577MOL0     C76064   5.542   1.493   9.362  0.6636 -0.4896 -0.0731
  577MOL0     C76065   5.549   1.536   9.488  0.1992 -0.4670 -0.2354
  577MOL0     C76066   5.623   1.650   9.533  0.7879  0.7328 -0.4436
  577MOL0     O76067   5.650   1.678   9.666 -0.5723 -0.6403  0.4740
  577MOL0     C76068   5.535   1.673   9.750 -1.1616  0.3585  1.6124
  577MOL0     C76069   5.568   1.751   9.882  0.2550  1.4880 -1.0051
  577MOL0     C76070   5.609   1.904   9.878  0.0772 -0.2528  0.5069
  577MOL0     C76071   5.642   1.947  10.023 -0.2089  0.8746 -0.3256
  577MOL0     C76072   5.680   2.094  10.043 -0.2594 -0.5963  0.1303
  577MOL0     C76073   5.668   2.141  10.189  0.4288 -0.2009 -0.2738
  577MOL0     C76074   5.725   2.047  10.288  0.1762  0.9855 -0.0482
  577MOL0     C76075   5.793   2.125  10.408 -1.0825 -0.7960 -0.7152
  577MOL0    Cl76076   5.923   2.244  10.357  0.8424 -0.0069  0.0879
  577MOL0     C76077   5.673   1.734   9.433 -0.0076 -0.3432 -0.2552
  577MOL0     C76078   5.663   1.696   9.299  1.0226 -0.6400  0.0708
  577MOL0     O76079   5.796   1.609   9.069  0.2050 -0.5592  0.2802
  577MOL0     C76080   5.522   1.506   8.856  0.2438 -0.5558  0.6224
  577MOL0     C76081   5.487   1.479   8.721 -0.6676 -0.5339 -0.2026
  577MOL0     N76082   5.655   1.436   7.953  0.2275  1.2664  0.1091
  577MOL0     N76083   5.561   1.408   7.864 -0.5124  0.2006 -0.3151
  577MOL0     C76084   5.422   1.808   8.580  1.0435  0.5217 -0.4896
  577MOL0     C76085   5.486   1.872   8.691 -0.2733 -0.1981 -0.3426
  577MOL0     C76086   5.547   2.105   9.076  0.2158  0.0658 -0.3511
  577MOL0     C76087   5.492   2.126   9.208  0.0826  1.2673  0.0539
  577MOL0     C76088   5.565   2.108   9.329 -0.1097 -0.1430  0.8716
  577MOL0     C76089   5.702   2.084   9.307  0.5193 -0.2174 -1.0835
  577MOL0     O76090   5.800   2.077   9.408  0.1217 -0.6646  0.4551
  577MOL0     C76091   5.780   2.101   9.552 -0.6828 -1.4576  0.6502
  577MOL0     C76092   5.782   2.258   9.571 -0.7176 -0.4823 -1.3311
  577MOL0     C76093   5.746   2.285   9.721 -0.0921  0.7294  1.3621
  577MOL0     C76094   5.758   2.435   9.762 -0.3883 -0.2761 -0.0737
  577MOL0     C76095   5.727   2.451   9.903  0.3635 -0.6430  0.0325
  577MOL0     C76096   5.726   2.457  10.024 -0.4334 -0.1566 -1.1930
  577MOL0     C76097   5.759   2.067   9.182  1.0326 -0.4190  0.4905
  577MOL0     C76098   5.686   2.078   9.070  0.3294 -0.3723 -0.3364
  577MOL0     H76099   5.284   2.134   8.738 -3.0418 -1.6363  2.1095
  577MOL0     H76100   5.159   2.022   8.566 -1.2347 -5.9670 -1.2089
  577MOL0     H76101   5.278   1.624   8.445 -0.9864  2.3715  3.8634
  577MOL0     H76102   5.305   1.717   8.284  1.3852  2.3766  1.8428
  577MOL0     H76103   5.056   1.714   8.239  0.3880 -1.9262 -2.5001
  577MOL0     H76104   5.026   1.640   8.385 -1.5414  1.2404 -1.5471
  577MOL0     H76105   5.027   1.450   8.247  0.6633 -1.0105  1.5198
  577MOL0     H76106   5.171   1.438   8.344 -0.0125  3.5637  1.8514
  577MOL0     H76107   5.270   1.565   8.122 -5.3289  1.4743 -0.1587
  577MOL0     H76108   5.305   1.397   8.179  1.6254 -0.3323 -0.9998
  577MOL0     H76109   5.067   1.483   7.999  0.3740  0.0458  1.0752
  577MOL0     H76110   5.093   1.321   8.061  3.7260 -1.2205  0.6222
  577MOL0     H76111   5.303   1.478   7.900 -0.0631  0.8552 -1.0269
  577MOL0     H76112   5.167   1.415   7.804  3.1028  0.8857 -2.1829
  577MOL0     H76113   5.317   1.238   7.991  0.7016 -0.4625 -0.0358
  577MOL0     H76114   5.209   1.193   7.852 -0.6851  0.7824  1.3543
  577MOL0     H76115   5.420   1.289   7.713 -1.5843  4.2693  2.1754
  577MOL0     H76116   5.426   1.124   7.777 -0.5497 -1.1290  1.8332
  577MOL0     H76117   5.593   1.124   8.030  1.0511  2.3554  3.3061
  577MOL0     H76118   5.866   1.356   8.126  0.1747 -1.1656 -1.9129
  577MOL0     H76119   5.799   1.194   8.162 -3.7487 -1.1518 -1.2063
  577MOL0     H76120   5.736   1.463   8.282  0.6190  0.0501 -0.2447
  577MOL0     H76121   5.801   1.320   8.353 -1.0916 -0.4039  0.3640
  577MOL0     H76122   5.507   1.367   8.246 -0.0652 -0.0604 -0.5118
  577MOL0     H76123   5.562   1.203   8.296  0.3799  0.4495 -0.6212
  577MOL0     H76124   5.573   1.270   8.520 -0.3143  1.6996  0.3253
  577MOL0     H76125   5.423   1.335   8.452 -0.2985 -0.3746 -1.1126
  577MOL0     H76126   5.793   1.551   8.581  2.3970 -0.5740  1.6055
  577MOL0     H76127   5.855   1.564   8.829  0.8229 -0.1529  0.9743
  577MOL0     H76128   5.491   1.401   9.334  1.5496 -1.4524  1.3867
  577MOL0     H76129   5.510   1.475   9.570  0.9967  0.8812  1.1996
  577MOL0     H76130   5.512   1.573   9.788 -1.8265 -0.1552 -0.0401
  577MOL0     H76131   5.442   1.706   9.702 -1.5513 -2.1492  0.4634
  577MOL0     H76132   5.645   1.689   9.930  0.3132  0.5417 -2.2678
  577MOL0     H76133   5.479   1.733   9.943  0.2601 -1.2249 -1.6645
  577MOL0     H76134   5.534   1.971   9.836  3.4516  4.2070  0.8616
  577MOL0     H76135   5.701   1.921   9.821 -0.2294 -0.5253 -0.0801
  577MOL0     H76136   5.542   1.938  10.066  0.0179  3.2338  0.8476
  577MOL0     H76137   5.710   1.876  10.070 -2.0035 -0.1159  0.9190
  577MOL0     H76138   5.612   2.156   9.984  1.2773  3.1472  1.9382
  577MOL0     H76139   5.783   2.107  10.010 -0.0307 -0.2805  0.9376
  577MOL0     H76140   5.565   2.165  10.220  1.5894  0.5812  3.4862
  577MOL0     H76141   5.723   2.236  10.196  0.6304 -0.1190 -2.3571
  577MOL0     H76142   5.645   1.989  10.335  2.0851 -0.1705  1.9244
  577MOL0     H76143   5.794   1.979  10.238  1.3565  2.0929  0.0055
  577MOL0     H76144   5.830   2.053  10.482 -1.1817 -1.2035 -1.0558
  577MOL0     H76145   5.724   2.186  10.467  0.5852  1.0182 -0.5452
  577MOL0     H76146   5.735   1.820   9.457  0.9416 -1.4068  1.2595
  577MOL0     H76147   5.699   1.768   9.226 -1.0976  0.7517  0.3086
  577MOL0     H76148   5.436   1.489   8.920 -0.8909 -1.0044 -0.9629
  577MOL0     H76149   5.387   1.451   8.689 -0.2811  1.0417 -3.1740
  577MOL0     H76150   5.462   1.711   8.552  2.4841  0.4460  1.6134
  577MOL0     H76151   5.584   1.832   8.717 -0.2064 -3.0201 -4.0037
  577MOL0     H76152   5.392   2.163   9.229 -0.8123 -2.5131  3.9454
  577MOL0     H76153   5.520   2.120   9.427  0.2895  0.7523  0.9545
  577MOL0     H76154   5.870   2.053   9.592 -1.5334 -2.9393  0.8258
  577MOL0     H76155   5.685   2.053   9.577 -2.3969  0.0802 -2.3395
  577MOL0     H76156   5.882   2.299   9.561 -1.7334  4.3231  3.4166
  577MOL0     H76157   5.707   2.311   9.512 -0.8019  2.3459  1.1006
  577MOL0     H76158   5.805   2.217   9.784  0.7632  1.2729  1.1567
  577MOL0     H76159   5.640   2.255   9.723 -0.4604  1.1934 -2.4777
  577MOL0     H76160   5.855   2.475   9.732 -0.0301 -3.2335 -3.4353
  577MOL0     H76161   5.685   2.494   9.706  1.0944 -0.7402 -2.6844
  577MOL0     H76162   5.721   2.462  10.131 -3.6501  0.2343 -1.2478
  577MOL0     H76163   5.862   2.038   9.168  0.4503 -3.1653  1.4067
  577MOL0     H76164   5.747   2.046   8.986  0.7613 -1.6705  0.4394
  578MOL0     O76165   3.927   0.700   6.197  0.2719 -0.5193 -0.0267
  578MOL0     C76166   4.022   0.710   6.279 -0.0592 -0.0741 -0.6347
  578MOL0     O76167   4.080   0.594   6.341 -0.0995  0.0145 -1.3756
  578MOL0     C76168   4.052   0.466   6.296 -0.3907 -0.1831 -1.1491
  578MOL0     C76169   4.083   0.431   6.166  0.6065 -0.0511 -0.6453
  578MOL0     C76170   4.064   0.298   6.121  0.9454  0.6234 -0.1778
  578MOL0     C76171   4.010   0.201   6.203  0.5643  0.7109  0.0112
  578MOL0     O76172   3.973   0.072   6.159 -0.1605  0.2513  0.5447
  578MOL0     C76173   3.988   0.040   6.019  0.3767 -0.1256 -0.8322
  578MOL0     C76174   4.130   0.007   5.979 -1.6585  0.7284 -0.2782
  578MOL0     C76175   4.204  -0.115   6.046  0.1247 -0.7401  0.3782
  578MOL0     C76176   4.341  -0.138   5.994 -1.4572  0.2170  0.2033
  578MOL0     C76177   4.400  -0.271   6.014 -0.4279  0.4577  0.3041
  578MOL0     C76178   4.395  -0.313   6.163  0.4008 -0.0244 -0.8728
  578MOL0     C76179   4.453  -0.446   6.193 -0.4958 -0.2111 -0.1390
  578MOL0     C76180   4.460  -0.462   6.351  0.0178 -0.2780  1.0228
  578MOL0     N76181   4.343  -0.542   6.400  1.5178 -0.2615  0.8048
  578MOL0     C76182   4.336  -0.589   6.525  0.4448 -0.5270  0.8650
  578MOL0     C76183   4.213  -0.633   6.537 -0.2950 -0.2039  0.1733
  578MOL0     C76184   4.149  -0.672   6.664  1.3631 -0.6353 -0.2229
  578MOL0     C76185   4.042  -0.780   6.639 -1.2831  0.1348  0.3490
  578MOL0     C76186   4.098  -0.921   6.590  0.4012 -0.3260 -0.4927
  578MOL0     C76187   4.185  -0.990   6.694 -0.9754 -0.3181  0.8790
  578MOL0     O76188   4.216  -1.115   6.639  0.2449 -0.6173 -0.0728
  578MOL0     C76189   4.290  -1.196   6.727  0.3138  0.0158 -1.1711
  578MOL0     C76190   4.320  -1.329   6.693  0.1274  0.7841 -0.5220
  578MOL0     C76191   4.402  -1.404   6.780 -1.0157  0.3867  0.4475
  578MOL0     C76192   4.473  -1.351   6.894  0.1116 -0.0386  0.6860
  578MOL0     C76193   4.558  -1.433   6.986 -0.5405 -0.0016 -0.3382
  578MOL0     O76194   4.500  -1.550   7.021  0.2457 -0.0906 -0.1107
  578MOL0     C76195   4.555  -1.619   7.122 -0.0454 -0.2308 -0.3124
  578MOL0     C76196   4.645  -1.715   7.090 -1.0086  0.7432  0.1764
  578MOL0     C76197   4.712  -1.774   7.199  0.1764 -0.2053  0.4014
  578MOL0     C76198   4.681  -1.749   7.335  0.5574 -0.1675  0.5697
  578MOL0     O76199   4.728  -1.811   7.447 -0.2241 -0.4433 -0.5946
  578MOL0     C76200   4.651  -1.919   7.500  0.3097  0.2888 -0.3020
  578MOL0     C76201   4.702  -1.937   7.649  0.3589  0.0524  1.0044
  578MOL0     C76202   4.628  -1.854   7.758 -0.7419  0.9442  0.8733
  578MOL0     C76203   4.695  -1.845   7.897  0.2288  0.4425 -0.7829
  578MOL0     C76204   4.845  -1.817   7.901  0.1662 -0.3026  0.6104
  578MOL0     C76205   4.917  -1.810   8.035 -0.2314 -0.1711 -1.6143
  578MOL0     C76206   5.060  -1.752   8.010 -0.0081  0.8234 -0.4649
  578MOL0     C76207   5.136  -1.745   8.149  0.0317  0.8961 -0.4265
  578MOL0    Cl76208   5.295  -1.691   8.122  0.3720  0.1839 -0.2770
  578MOL0     C76209   4.597  -1.647   7.355 -0.8723 -0.3649 -0.4007
  578MOL0     C76210   4.533  -1.585   7.253  0.2538 -0.4115 -0.3442
  578MOL0     O76211   4.668  -1.389   7.021 -0.1610  0.7159  0.3779
  578MOL0     C76212   4.448  -1.226   6.927  0.6436  0.1658  0.5702
  578MOL0     C76213   4.352  -1.150   6.848  0.8285 -0.0139 -0.2196
  578MOL0     N76214   4.152  -0.627   6.411 -0.3772  0.8175 -0.3713
  578MOL0     N76215   4.227  -0.553   6.330  0.5336 -0.1227 -0.1817
  578MOL0     C76216   3.984   0.234   6.338  0.1835 -1.1666 -0.1719
  578MOL0     C76217   3.996   0.369   6.382  0.1208  0.7202  0.8471
  578MOL0     C76218   4.056   0.843   6.329 -0.3749 -0.0584 -0.3597
  578MOL0     C76219   3.992   0.959   6.296 -0.4622 -0.1647  0.2670
  578MOL0     C76220   4.028   1.084   6.331 -0.0787  0.2917 -0.4304
  578MOL0     C76221   4.148   1.100   6.410 -0.3451 -0.9959 -0.3677
  578MOL0     O76222   4.204   1.227   6.452  0.2926  0.9234 -1.5101
  578MOL0     C76223   4.117   1.342   6.470 -0.4042 -0.6904  0.0080
  578MOL0     C76224   4.025   1.328   6.588  0.0339  0.4505  0.3420
  578MOL0     C76225   4.091   1.274   6.726  0.2644  0.4590  0.0592
  578MOL0     C76226   4.123   1.376   6.835  0.4134 -0.4601  0.8082
  578MOL0     C76227   4.176   1.306   6.951  0.7483 -0.6592 -0.0172
  578MOL0     C76228   4.205   1.237   7.039  0.0715  0.5903  0.1230
  578MOL0     C76229   4.219   0.982   6.446  0.9016  0.0728  0.1298
  578MOL0     C76230   4.166   0.856   6.413 -1.1371  0.8614  0.3078
  578MOL0     H76231   4.102   0.508   6.091 -0.5148  1.7187  0.8054
  578MOL0     H76232   4.104   0.280   6.022  1.8571 -1.2721  0.4954
  578MOL0     H76233   3.950   0.128   5.966 -2.3440 -1.2081 -0.8282
  578MOL0     H76234   3.928  -0.049   6.002 -3.4682  2.3560 -1.4780
  578MOL0     H76235   4.192   0.093   6.008  0.0540 -0.1679 -1.1026
  578MOL0     H76236   4.142  -0.006   5.871  1.1614 -1.2586  0.1604
  578MOL0     H76237   4.139  -0.203   6.042  0.5394 -1.0440  0.2190
  578MOL0     H76238   4.206  -0.094   6.153  0.6612 -1.0601  0.4305
  578MOL0     H76239   4.341  -0.127   5.885 -0.6423  1.4667  0.3113
  578MOL0     H76240   4.418  -0.069   6.029 -1.9612 -0.0258  1.8433
  578MOL0     H76241   4.502  -0.276   5.977 -0.4479  1.6701  0.0653
  578MOL0     H76242   4.336  -0.334   5.950 -0.3596  0.8543 -0.1617
  578MOL0     H76243   4.288  -0.312   6.188  0.6373  0.6333  0.1882
  578MOL0     H76244   4.435  -0.234   6.227 -3.0552  2.6294 -1.6869
  578MOL0     H76245   4.399  -0.530   6.148  2.9911  0.2537 -6.3614
  578MOL0     H76246   4.547  -0.458   6.139 -0.5911 -0.7036 -0.2080
  578MOL0     H76247   4.480  -0.364   6.396 -0.8281  0.1181  0.5724
  578MOL0     H76248   4.551  -0.515   6.381  0.5283  0.7589  1.3671
  578MOL0     H76249   4.427  -0.575   6.584  1.1321  3.6597 -0.7963
  578MOL0     H76250   4.104  -0.581   6.703  2.3685 -0.7789  1.3811
  578MOL0     H76251   4.215  -0.703   6.746  1.7827  2.0891  0.5528
  578MOL0     H76252   3.974  -0.735   6.566 -0.6077  0.3736 -0.1425
  578MOL0     H76253   3.987  -0.779   6.734  0.8182 -1.2458  1.6704
  578MOL0     H76254   4.013  -0.981   6.558  0.6658 -1.6799  1.2328
  578MOL0     H76255   4.171  -0.904   6.510  0.4041 -0.3747 -0.5000
  578MOL0     H76256   4.133  -0.986   6.790 -0.7317 -0.2651  1.0103
  578MOL0     H76257   4.282  -0.940   6.687 -1.9647  1.5183 -0.3989
  578MOL0     H76258   4.272  -1.377   6.608 -1.5001  1.8892 -0.2822
  578MOL0     H76259   4.435  -1.500   6.744 -0.9335 -0.4696  2.6346
  578MOL0     H76260   4.658  -1.747   6.987  3.0033 -1.9753  1.3065
  578MOL0     H76261   4.781  -1.857   7.188 -0.5824 -0.6681 -1.1763
  578MOL0     H76262   4.655  -2.009   7.437 -0.0248  2.1621 -3.1500
  578MOL0     H76263   4.548  -1.884   7.510  0.8778  2.3604 -1.3207
  578MOL0     H76264   4.810  -1.920   7.654  0.4674  0.1954 -1.0260
  578MOL0     H76265   4.681  -2.040   7.681  2.6060 -1.3245 -1.5051
  578MOL0     H76266   4.533  -1.908   7.762 -0.0478 -0.4960 -0.4613
  578MOL0     H76267   4.610  -1.753   7.721  0.3872  0.1060 -2.3426
  578MOL0     H76268   4.649  -1.767   7.958  0.2222 -0.5976  0.5712
  578MOL0     H76269   4.676  -1.939   7.950 -2.1836 -0.7512 -3.4287
  578MOL0     H76270   4.864  -1.728   7.840  0.4681 -0.4031  0.5597
  578MOL0     H76271   4.891  -1.902   7.851 -1.7516 -1.9769  1.5369
  578MOL0     H76272   4.922  -1.911   8.077  1.8796 -0.0810 -1.5059
  578MOL0     H76273   4.868  -1.751   8.112  0.1928 -3.2868  1.2713
  578MOL0     H76274   5.113  -1.824   7.948 -0.2818 -2.0564  2.3483
  578MOL0     H76275   5.061  -1.653   7.965  2.8624  0.5993 -1.0974
  578MOL0     H76276   5.137  -1.846   8.189 -2.1054  0.5196 -1.2110
  578MOL0     H76277   5.090  -1.670   8.214 -1.5074 -2.0139  2.0980
  578MOL0     H76278   4.573  -1.619   7.457 -1.7471 -1.0705 -0.4129
  578MOL0     H76279   4.469  -1.499   7.269  2.9300  2.1051 -2.1120
  578MOL0     H76280   4.494  -1.198   7.020  1.0333 -4.5317  2.0667
  578MOL0     H76281   4.335  -1.054   6.895  1.9150 -0.2163  0.6279
  578MOL0     H76282   3.948   0.158   6.407 -3.1053 -0.2811 -0.7450
  578MOL0     H76283   3.978   0.404   6.483 -2.9174 -2.6593  1.7234
  578MOL0     H76284   3.913   0.947   6.223  0.9763 -0.5274 -1.2785
  578MOL0     H76285   3.967   1.165   6.291  2.5672  0.6832 -4.1938
  578MOL0     H76286   4.054   1.380   6.389 -3.8490  0.9499  3.1422
  578MOL0     H76287   4.181   1.427   6.496  0.7619 -1.6530  0.3711
  578MOL0     H76288   3.999   1.433   6.602  5.6314  2.6116 -2.1358
  578MOL0     H76289   3.947   1.255   6.567  0.7169 -0.0930 -0.3920
  578MOL0     H76290   4.178   1.212   6.703  0.1216 -0.0958  0.9803
  578MOL0     H76291   4.030   1.195   6.770  0.9416 -0.5664 -0.7963
  578MOL0     H76292   4.206   1.440   6.805 -0.1167  0.3330  1.0089
  578MOL0     H76293   4.032   1.429   6.865 -1.4098 -2.6954 -0.4855
  578MOL0     H76294   4.225   1.161   7.112  2.5223 -3.2234 -4.0381
  578MOL0     H76295   4.315   0.984   6.498  0.9698 -0.7886  0.0531
  578MOL0     H76296   4.200   0.763   6.458 -0.6816  1.4168  1.1479
  579MOL0     O76297   7.910   5.440   2.480 -0.2310 -0.1096  0.0948
  579MOL0     C76298   7.816   5.384   2.541 -0.0368 -0.9851 -0.5920
  579MOL0     O76299   7.697   5.345   2.482  0.6747 -0.2424  0.0524
  579MOL0     C76300   7.642   5.394   2.363 -0.6734  0.9725 -0.6375
  579MOL0     C76301   7.661   5.519   2.296 -0.5377 -0.6619 -0.0316
  579MOL0     C76302   7.600   5.556   2.174 -0.5888 -0.5483 -0.5077
  579MOL0     C76303   7.530   5.463   2.107  0.6714 -0.6297 -0.2549
  579MOL0     O76304   7.449   5.510   2.007 -0.1728  0.4498 -0.2600
  579MOL0     C76305   7.402   5.415   1.908 -0.6133  0.1416  0.5277
  579MOL0     C76306   7.377   5.495   1.783  0.5830  0.5862  0.8111
  579MOL0     C76307   7.301   5.411   1.674  1.1085  0.5109  0.5793
  579MOL0     C76308   7.217   5.493   1.578 -0.0365 -0.2806 -0.1505
  579MOL0     C76309   7.111   5.405   1.510  0.4161 -0.0783 -0.1673
  579MOL0     C76310   7.028   5.481   1.391 -0.8413  0.2653 -0.4997
  579MOL0     C76311   6.944   5.380   1.327  0.2977  0.7759  0.5640
  579MOL0     C76312   6.815   5.361   1.398  0.0797  0.1526 -0.7997
  579MOL0     N76313   6.703   5.379   1.296 -0.6567 -0.6114 -0.0316
  579MOL0     C76314   6.643   5.500   1.270  0.0618  0.1097  0.3373
  579MOL0     C76315   6.556   5.473   1.162 -0.6589  0.6121 -1.0602
  579MOL0     C76316   6.446   5.551   1.097  0.0243 -0.8222  0.4726
  579MOL0     C76317   6.465   5.702   1.109  0.0160 -0.0552  0.0435
  579MOL0     C76318   6.587   5.751   1.028 -0.2886  0.6655  0.4999
  579MOL0     C76319   6.596   5.897   1.028  0.0903 -0.3835 -0.2950
  579MOL0     O76320   6.501   5.949   0.936 -0.4700 -0.2497  0.5585
  579MOL0     C76321   6.481   6.083   0.916  1.1077 -0.2723  0.2258
  579MOL0     C76322   6.543   6.187   0.987  0.4131  0.0584  0.1427
  579MOL0     C76323   6.539   6.323   0.941 -0.2894 -0.0998 -0.5766
  579MOL0     C76324   6.442   6.352   0.843  0.5103  0.1100 -0.2993
  579MOL0     C76325   6.433   6.493   0.791  0.1097 -0.8360 -0.5538
  579MOL0     O76326   6.309   6.537   0.755 -0.4515 -0.1455  0.5299
  579MOL0     C76327   6.293   6.654   0.678  0.3491  0.3736  0.0096
  579MOL0     C76328   6.398   6.727   0.612  0.2423  0.5186 -0.2797
  579MOL0     C76329   6.376   6.849   0.557  0.1076 -0.5662 -0.0759
  579MOL0     C76330   6.242   6.908   0.565  0.8509 -0.1750 -0.0358
  579MOL0     O76331   6.216   7.031   0.515 -0.4386  0.5186 -0.5297
  579MOL0     C76332   6.319   7.096   0.440  0.8420  0.6141  0.2876
  579MOL0     C76333   6.253   7.218   0.357 -1.5037  0.4732 -0.0621
  579MOL0     C76334   6.209   7.326   0.445  0.6753  0.7611 -0.4170
  579MOL0     C76335   6.114   7.418   0.367 -0.3548  0.6779  0.4491
  579MOL0     C76336   6.096   7.544   0.458  0.5049 -0.3591 -0.0032
  579MOL0     C76337   6.009   7.656   0.395  0.8922  0.4568  0.4129
  579MOL0     C76338   6.090   7.752   0.305 -0.6290  0.4298  1.1011
  579MOL0     C76339   6.003   7.824   0.206  0.6152  1.0595 -1.1475
  579MOL0    Cl76340   6.102   7.896   0.080  0.4478  0.5026  0.8248
  579MOL0     C76341   6.144   6.830   0.617  0.1478 -0.7348  0.5191
  579MOL0     C76342   6.163   6.707   0.676  0.3917 -0.3915 -1.0603
  579MOL0     O76343   6.539   6.551   0.791 -0.9828 -1.0211 -0.2258
  579MOL0     C76344   6.367   6.246   0.781 -0.7279  0.5116 -0.5014
  579MOL0     C76345   6.394   6.120   0.811  0.0369 -1.2532 -0.3840
  579MOL0     N76346   6.572   5.337   1.128 -0.5249 -0.3071 -0.2453
  579MOL0     N76347   6.656   5.281   1.219 -0.4045 -0.2843  1.0800
  579MOL0     C76348   7.520   5.332   2.165  0.0101 -0.0305 -0.8152
  579MOL0     C76349   7.561   5.302   2.297 -0.4714  0.6448 -0.4074
  579MOL0     C76350   7.831   5.363   2.689 -0.1665 -0.0723 -0.0359
  579MOL0     C76351   7.956   5.361   2.746  0.2646  0.3139  0.1390
  579MOL0     C76352   7.965   5.335   2.878 -0.0876 -1.5659 -1.0609
  579MOL0     C76353   7.859   5.309   2.960  0.4696 -0.5083  0.2098
  579MOL0     O76354   7.896   5.308   3.094  0.2830  0.4581  0.1188
  579MOL0     C76355   7.790   5.295   3.195 -0.1628  0.4531 -0.9935
  579MOL0     C76356   7.860   5.296   3.330 -0.6401  0.3862  0.6472
  579MOL0     C76357   7.767   5.326   3.456 -1.0931  0.9225  1.4077
  579MOL0     C76358   7.838   5.326   3.587  0.2295 -0.2855  0.2040
  579MOL0     C76359   7.877   5.192   3.621 -0.1861  0.1962  0.7901
  579MOL0     C76360   7.907   5.074   3.638  0.0566  0.3593 -0.7090
  579MOL0     C76361   7.727   5.303   2.908  0.1786 -0.0156 -0.4558
  579MOL0     C76362   7.712   5.322   2.766 -0.9630  0.5663 -0.4476
  579MOL0     H76363   7.727   5.592   2.343 -1.2198  0.3779 -0.6398
  579MOL0     H76364   7.613   5.656   2.135  1.6513 -1.0225 -1.1510
  579MOL0     H76365   7.312   5.366   1.948  0.6130 -3.3835 -0.7124
  579MOL0     H76366   7.471   5.333   1.885 -0.9381 -0.8622  2.8697
  579MOL0     H76367   7.469   5.542   1.746 -1.9318  3.7772 -2.1178
  579MOL0     H76368   7.311   5.577   1.815  0.1939 -0.1043  1.8249
  579MOL0     H76369   7.228   5.354   1.731  1.4166 -0.1781  0.2870
  579MOL0     H76370   7.369   5.356   1.609 -0.4155  0.9540 -1.4779
  579MOL0     H76371   7.156   5.553   1.646  1.2910 -0.5919  1.3730
  579MOL0     H76372   7.272   5.548   1.501  4.5358 -0.9187  2.3628
  579MOL0     H76373   7.044   5.358   1.583  2.8835  1.4484  3.3778
  579MOL0     H76374   7.164   5.328   1.453 -1.3230  1.0178 -3.5534
  579MOL0     H76375   7.106   5.505   1.318  0.0269 -1.7483 -0.3068
  579MOL0     H76376   6.976   5.568   1.431 -0.1355 -0.4048  2.1192
  579MOL0     H76377   6.930   5.429   1.230  3.5027  0.9402  0.0611
  579MOL0     H76378   6.992   5.286   1.298 -1.8150 -0.1733 -0.0483
  579MOL0     H76379   6.801   5.447   1.464 -0.1852 -0.3496 -0.1867
  579MOL0     H76380   6.801   5.268   1.454  0.9335  0.5080  0.0254
  579MOL0     H76381   6.648   5.596   1.321  1.5493 -1.8081  4.1483
  579MOL0     H76382   6.351   5.510   1.133  1.3654 -3.8339  0.8730
  579MOL0     H76383   6.441   5.520   0.992  0.2494 -1.4457  0.6401
  579MOL0     H76384   6.462   5.739   1.212 -3.3568 -1.0651  0.4583
  579MOL0     H76385   6.376   5.754   1.072  1.5455  1.7789 -1.2608
  579MOL0     H76386   6.680   5.716   1.072 -1.3145  1.1701  3.2735
  579MOL0     H76387   6.596   5.718   0.924 -1.9102  0.4480  0.4046
  579MOL0     H76388   6.691   5.939   0.992 -0.1448  2.4448  2.0107
  579MOL0     H76389   6.586   5.921   1.134  0.9547 -0.6067 -0.1537
  579MOL0     H76390   6.611   6.165   1.069 -4.1392 -3.7782  3.4417
  579MOL0     H76391   6.597   6.402   0.989 -0.8101 -0.5420  0.8294
  579MOL0     H76392   6.496   6.682   0.601  0.4803  1.2559 -1.3563
  579MOL0     H76393   6.467   6.889   0.515  1.0020 -0.3433  1.9520
  579MOL0     H76394   6.371   7.040   0.362  0.0009  0.6802 -0.3333
  579MOL0     H76395   6.398   7.130   0.508  2.0902 -1.3732 -0.1069
  579MOL0     H76396   6.160   7.180   0.313 -1.0076  0.4958 -1.1669
  579MOL0     H76397   6.317   7.252   0.276 -1.2404 -1.0528 -0.5210
  579MOL0     H76398   6.300   7.383   0.467  0.8091  0.5826 -0.5055
  579MOL0     H76399   6.160   7.288   0.535  1.1411  0.3312 -0.3422
  579MOL0     H76400   6.168   7.459   0.282  0.4548 -1.1303  0.0453
  579MOL0     H76401   6.023   7.378   0.321 -0.9592  1.3606  1.0227
  579MOL0     H76402   6.190   7.599   0.473 -0.5716  2.2952 -2.0612
  579MOL0     H76403   6.047   7.508   0.549 -2.5034 -1.0061 -1.7433
  579MOL0     H76404   5.970   7.720   0.475  0.4768 -3.3958  3.5816
  579MOL0     H76405   5.916   7.621   0.350  0.5117  2.4060 -0.4103
  579MOL0     H76406   6.150   7.819   0.368  1.6854 -1.3446  0.9404
  579MOL0     H76407   6.163   7.689   0.253 -2.3542 -1.6686  1.0851
  579MOL0     H76408   5.949   7.902   0.260 -2.3164 -1.0186 -0.7844
  579MOL0     H76409   5.926   7.755   0.170  1.4809 -0.1139 -0.8009
  579MOL0     H76410   6.046   6.876   0.609  0.4090 -0.4974 -2.7315
  579MOL0     H76411   6.081   6.657   0.726  1.9912  1.0567  3.5626
  579MOL0     H76412   6.293   6.278   0.708 -1.7231  0.3839  0.4304
  579MOL0     H76413   6.332   6.046   0.762 -0.8825 -1.4993  1.0725
  579MOL0     H76414   7.455   5.256   2.123 -1.4225  0.9440 -0.4140
  579MOL0     H76415   7.549   5.202   2.337  1.2316  0.8859  0.8536
  579MOL0     H76416   8.048   5.364   2.689  1.3317 -0.0413  1.7617
  579MOL0     H76417   8.051   5.343   2.945 -0.8343 -3.3169  0.1732
  579MOL0     H76418   7.743   5.197   3.184  2.5476 -1.5437  2.8243
  579MOL0     H76419   7.717   5.376   3.191  1.5454  2.1540 -5.9819
  579MOL0     H76420   7.909   5.201   3.353  2.5475  1.7955  0.1412
  579MOL0     H76421   7.944   5.366   3.326 -2.5275  2.8042  0.5975
  579MOL0     H76422   7.688   5.252   3.446 -0.0419 -0.4401  2.7437
  579MOL0     H76423   7.740   5.431   3.441 -0.2862  1.2738  2.3151
  579MOL0     H76424   7.922   5.397   3.587  0.8438 -0.9876 -0.2386
  579MOL0     H76425   7.770   5.345   3.670  0.7782 -2.0356  1.1249
  579MOL0     H76426   7.931   4.972   3.660  1.2673  0.9053  0.6959
  579MOL0     H76427   7.642   5.275   2.969  1.4276 -1.4454  0.7124
  579MOL0     H76428   7.615   5.308   2.720 -1.0221  1.4216 -0.6044
  580MOL0     O76429   9.512   6.307   0.498  0.3992 -0.4722 -0.6502
  580MOL0     C76430   9.439   6.292   0.599 -0.0041 -0.2405  0.7038
  580MOL0     O76431   9.314   6.353   0.620 -0.0860  0.5243  0.8359
  580MOL0     C76432   9.267   6.422   0.520  0.1079 -0.2971  0.5515
  580MOL0     C76433   9.256   6.563   0.533  0.3148  0.1360 -0.6762
  580MOL0     C76434   9.180   6.641   0.448  0.1731  0.8864  0.6939
  580MOL0     C76435   9.106   6.591   0.346  0.0652 -0.3763 -0.0245
  580MOL0     O76436   9.024   6.681   0.278  0.2576  0.3067 -0.3467
  580MOL0     C76437   8.912   6.621   0.225 -0.0019  0.4477 -0.1461
  580MOL0     C76438   8.805   6.591   0.315  0.1042  0.3460 -0.0220
  580MOL0     C76439   8.698   6.487   0.273 -0.0356  0.0639  0.2239
  580MOL0     C76440   8.576   6.559   0.207 -0.3247  0.3050  0.2279
  580MOL0     C76441   8.487   6.638   0.311  0.0530  0.1635  0.7480
  580MOL0     C76442   8.344   6.582   0.332 -0.1039  0.6104  0.2794
  580MOL0     C76443   8.342   6.454   0.421 -1.2327  0.1699  0.2851
  580MOL0     C76444   8.216   6.366   0.401 -0.8630  0.2015  0.2100
  580MOL0     N76445   8.254   6.226   0.444 -0.6516  0.1702  0.3214
  580MOL0     C76446   8.178   6.136   0.517 -0.3769 -0.1405 -0.2158
  580MOL0     C76447   8.246   6.020   0.510 -0.2579  0.6010  0.2971
  580MOL0     C76448   8.220   5.899   0.590 -0.2547 -0.3049 -0.8508
  580MOL0     C76449   8.128   5.808   0.520  0.8794  1.5266 -0.0332
  580MOL0     C76450   8.080   5.683   0.600 -0.1035  0.5873  0.3685
  580MOL0     C76451   7.974   5.703   0.706 -0.2521 -0.6126 -1.0357
  580MOL0     O76452   8.047   5.769   0.810 -0.2536  0.4871 -0.3622
  580MOL0     C76453   7.983   5.785   0.933 -0.4394  0.0579  0.7665
  580MOL0     C76454   8.055   5.758   1.056  0.6179  0.0527  0.6928
  580MOL0     C76455   8.004   5.793   1.174 -0.1087 -0.5909 -0.4464
  580MOL0     C76456   7.870   5.853   1.189 -0.5691 -0.4359  0.5443
  580MOL0     C76457   7.824   5.881   1.325  0.7692 -1.3475  0.6171
  580MOL0     O76458   7.901   5.863   1.423  0.3925 -0.7913  0.0231
  580MOL0     C76459   7.842   5.873   1.548  1.2847 -0.4215  0.3758
  580MOL0     C76460   7.750   5.784   1.587  0.1931  0.6389 -0.5836
  580MOL0     C76461   7.700   5.783   1.714 -0.4052 -0.0904 -0.6317
  580MOL0     C76462   7.741   5.870   1.815 -0.1312 -0.0341  0.5262
  580MOL0     O76463   7.693   5.854   1.940 -0.4804  0.0256  0.6562
  580MOL0     C76464   7.690   5.970   2.021  0.2122 -0.0862  0.5661
  580MOL0     C76465   7.627   5.946   2.159 -0.6903  0.5861  1.2260
  580MOL0     C76466   7.638   6.072   2.240  0.7900  0.1108  0.5604
  580MOL0     C76467   7.610   6.041   2.384 -0.7344  0.3415 -0.6591
  580MOL0     C76468   7.630   6.173   2.473  0.7959  0.2404 -0.3727
  580MOL0     C76469   7.776   6.203   2.505  0.2901 -0.0112 -0.5608
  580MOL0     C76470   7.793   6.335   2.584  0.2220  0.1067  0.6355
  580MOL0     C76471   7.731   6.324   2.726 -0.4051 -0.0895 -0.2598
  580MOL0    Cl76472   7.796   6.176   2.804 -0.2066  0.6654 -0.2925
  580MOL0     C76473   7.847   5.954   1.779  0.8720 -0.4105 -0.2358
  580MOL0     C76474   7.898   5.962   1.642  0.1640 -0.1454 -0.1373
  580MOL0     O76475   7.710   5.927   1.325  0.3090  0.6350 -1.0051
  580MOL0     C76476   7.797   5.876   1.062 -0.3670  0.1423 -0.0235
  580MOL0     C76477   7.850   5.841   0.937 -0.6237  0.4075  0.2760
  580MOL0     N76478   8.348   6.030   0.412 -0.7375 -0.8641  1.2679
  580MOL0     N76479   8.353   6.158   0.382  0.9798  0.2512 -1.0133
  580MOL0     C76480   9.101   6.453   0.340 -0.7634  0.9199  0.5493
  580MOL0     C76481   9.176   6.370   0.432  0.9265  0.5882 -0.2297
  580MOL0     C76482   9.491   6.192   0.695  0.5224  0.3150  0.8424
  580MOL0     C76483   9.598   6.103   0.656 -0.9755  0.1106 -0.2634
  580MOL0     C76484   9.653   6.011   0.749  0.9910  0.8286  0.1463
  580MOL0     C76485   9.601   6.012   0.884 -0.4356 -0.5705  0.0322
  580MOL0     O76486   9.654   5.954   0.997  0.7580 -0.2839  0.9139
  580MOL0     C76487   9.750   5.847   0.978  0.3868  0.2302 -0.0282
  580MOL0     C76488   9.827   5.851   1.115 -0.7279 -0.1993 -0.3180
  580MOL0     C76489   9.919   5.719   1.131 -0.1312 -0.7619 -0.1264
  580MOL0     C76490   9.995   5.721   1.263 -0.2432  0.5208 -0.0609
  580MOL0     C76491  10.062   5.587   1.282  0.2826  0.4521  0.7922
  580MOL0     C76492  10.120   5.476   1.303 -0.1118  0.2815  0.7561
  580MOL0     C76493   9.494   6.096   0.919 -0.3121 -0.0085 -0.2816
  580MOL0     C76494   9.447   6.185   0.822  0.2186  0.5391  0.7040
  580MOL0     H76495   9.323   6.599   0.611  0.9026 -0.4064 -0.9178
  580MOL0     H76496   9.166   6.749   0.450 -5.0306  0.4986  0.5744
  580MOL0     H76497   8.938   6.531   0.169  0.1467 -1.1974  2.3984
  580MOL0     H76498   8.879   6.697   0.153  2.1473  2.5696  0.9503
  580MOL0     H76499   8.737   6.666   0.355 -1.7057 -1.6989  0.9378
  580MOL0     H76500   8.848   6.542   0.402 -2.1952 -1.4171  0.2077
  580MOL0     H76501   8.653   6.451   0.366  0.4790  1.2748  0.9775
  580MOL0     H76502   8.738   6.410   0.207 -1.4554  0.1035 -0.7393
  580MOL0     H76503   8.622   6.640   0.151 -2.3005  0.4537 -1.2812
  580MOL0     H76504   8.526   6.500   0.130 -1.4226  3.3974 -1.5848
  580MOL0     H76505   8.460   6.725   0.249  1.7211 -1.4556 -2.5014
  580MOL0     H76506   8.543   6.662   0.401  2.7031 -1.6116 -0.3020
  580MOL0     H76507   8.303   6.563   0.232  0.9187 -3.0464  0.3747
  580MOL0     H76508   8.285   6.655   0.388 -0.2443 -0.8574  2.1366
  580MOL0     H76509   8.433   6.399   0.395 -1.6201  0.7248 -2.6336
  580MOL0     H76510   8.339   6.484   0.526 -0.1896  0.2204  0.3079
  580MOL0     H76511   8.191   6.374   0.295 -0.6912 -1.7814 -0.0220
  580MOL0     H76512   8.132   6.398   0.463  0.7759  1.3370  1.9735
  580MOL0     H76513   8.107   6.152   0.598  4.4792 -1.6487  4.9974
  580MOL0     H76514   8.171   5.934   0.681  1.9089  2.7329 -0.6593
  580MOL0     H76515   8.313   5.853   0.625 -0.7034 -0.9360 -0.4871
  580MOL0     H76516   8.180   5.771   0.431  1.2456 -2.7859  1.7136
  580MOL0     H76517   8.041   5.868   0.491 -0.3712 -0.2245 -0.0989
  580MOL0     H76518   8.048   5.618   0.518 -0.5066  1.6772 -0.3588
  580MOL0     H76519   8.167   5.627   0.637 -0.1724  0.5384  0.4568
  580MOL0     H76520   7.926   5.616   0.751 -0.2371  0.2315  0.7230
  580MOL0     H76521   7.901   5.771   0.663  0.5096 -0.5394 -2.2424
  580MOL0     H76522   8.160   5.732   1.049  0.2413 -1.5616  0.6856
  580MOL0     H76523   8.063   5.776   1.263 -2.2796 -0.2610  1.1495
  580MOL0     H76524   7.702   5.715   1.518 -1.6803  1.4965 -0.1887
  580MOL0     H76525   7.610   5.728   1.741 -1.7631  2.0017 -0.7284
  580MOL0     H76526   7.622   6.041   1.973 -1.1241 -0.4238  1.9021
  580MOL0     H76527   7.792   6.007   2.039  0.9621 -2.1833  0.8853
  580MOL0     H76528   7.668   5.867   2.223  0.4626  2.8111  3.3897
  580MOL0     H76529   7.521   5.934   2.133 -0.3657  1.9125 -0.9260
  580MOL0     H76530   7.582   6.154   2.195 -1.6218 -2.9150 -2.4978
  580MOL0     H76531   7.740   6.110   2.241  1.2599 -0.6823  4.9562
  580MOL0     H76532   7.507   6.005   2.393 -0.0027 -2.6002 -2.5745
  580MOL0     H76533   7.675   5.963   2.424  0.8768  1.0214 -1.8307
  580MOL0     H76534   7.570   6.161   2.564 -0.7058  0.8569 -1.2514
  580MOL0     H76535   7.576   6.249   2.416 -3.0902 -2.7390 -1.1160
  580MOL0     H76536   7.845   6.208   2.421  0.6169 -0.2711 -0.3133
  580MOL0     H76537   7.807   6.119   2.568  2.1907 -0.6024 -2.1699
  580MOL0     H76538   7.899   6.359   2.594  0.0083  1.4534 -0.1070
  580MOL0     H76539   7.758   6.425   2.533  1.9685 -1.5868 -4.0171
  580MOL0     H76540   7.625   6.304   2.712 -0.4107  1.6176 -3.9295
  580MOL0     H76541   7.734   6.404   2.800  0.3499  0.2855 -0.6769
  580MOL0     H76542   7.882   6.013   1.862 -1.7827 -0.2918  0.8978
  580MOL0     H76543   7.988   6.016   1.614 -0.2358  2.0413  2.4072
  580MOL0     H76544   7.701   5.924   1.074  0.7404  2.1399  1.5787
  580MOL0     H76545   7.801   5.875   0.846  1.9787 -1.2162 -1.8804
  580MOL0     H76546   9.030   6.402   0.276  0.7284 -0.8794  0.2287
  580MOL0     H76547   9.169   6.262   0.429 -0.4420  0.6615 -0.6872
  580MOL0     H76548   9.649   6.109   0.560  2.0190 -1.3665  1.0986
  580MOL0     H76549   9.736   5.946   0.722  2.4281  2.6199  0.1096
  580MOL0     H76550   9.823   5.862   0.899 -1.4059  0.6937 -1.6689
  580MOL0     H76551   9.691   5.757   0.957 -1.9018  2.0571 -2.0615
  580MOL0     H76552   9.886   5.942   1.108 -1.1870  0.0017 -1.9686
  580MOL0     H76553   9.761   5.859   1.201 -0.6543  2.4141 -0.4303
  580MOL0     H76554   9.984   5.727   1.044  4.5446  0.1873  3.0747
  580MOL0     H76555   9.854   5.632   1.122 -0.5638 -0.2303 -3.2455
  580MOL0     H76556  10.063   5.807   1.264  1.8534 -1.0168 -1.4669
  580MOL0     H76557   9.914   5.737   1.335 -0.5339  0.8929 -0.4642
  580MOL0     H76558  10.181   5.394   1.334  2.4340  1.2987 -1.1158
  580MOL0     H76559   9.451   6.102   1.018 -1.2017 -2.2856 -0.4552
  580MOL0     H76560   9.369   6.256   0.851  1.7236  2.2140  0.8254
  581MOL0     O76561   9.857   3.840   7.927 -0.0520 -0.3178  0.4977
  581MOL0     C76562   9.787   3.745   7.892  0.4727 -0.1738 -0.4052
  581MOL0     O76563   9.759   3.631   7.965  0.8123 -0.3896  0.4881
  581MOL0     C76564   9.790   3.634   8.099  0.1619  0.4543  0.0660
  581MOL0     C76565   9.766   3.747   8.181 -0.3333  0.7861  0.0692
  581MOL0     C76566   9.809   3.736   8.315  0.1048  0.2467 -0.1459
  581MOL0     C76567   9.851   3.613   8.371 -0.9114 -0.1921 -0.2884
  581MOL0     O76568   9.887   3.608   8.503 -0.4418 -0.5805  0.3070
  581MOL0     C76569  10.026   3.599   8.515 -0.5026 -0.7884 -1.0777
  581MOL0     C76570  10.063   3.634   8.652  0.5796 -0.5305  0.7644
  581MOL0     C76571  10.004   3.769   8.710  0.4109 -0.0515  1.2910
  581MOL0     C76572  10.047   3.901   8.662  0.1129  0.0925 -0.0746
  581MOL0     C76573   9.946   4.014   8.711 -0.4091 -0.3020  0.3152
  581MOL0     C76574   9.839   4.050   8.614 -0.3340  0.1667 -0.4920
  581MOL0     C76575   9.725   4.127   8.670 -0.7827  1.1717 -0.1496
  581MOL0     C76576   9.652   4.219   8.570 -0.3278 -0.2064 -0.1129
  581MOL0     N76577   9.607   4.138   8.459 -0.2240 -0.1686  0.2841
  581MOL0     C76578   9.508   4.051   8.467  0.0502 -0.0518 -0.2884
  581MOL0     C76579   9.482   4.008   8.339 -0.1408  0.3799 -0.5913
  581MOL0     C76580   9.367   3.915   8.299  0.0549  0.1469  0.4356
  581MOL0     C76581   9.262   3.925   8.407  0.7971  0.1903  0.9506
  581MOL0     C76582   9.124   3.860   8.392  0.0881  0.4464  0.2028
  581MOL0     C76583   9.127   3.710   8.354 -0.5406 -0.2896  0.1853
  581MOL0     O76584   9.166   3.647   8.481 -0.5220  0.7006  0.3977
  581MOL0     C76585   9.099   3.537   8.528  0.0225 -0.8558 -1.0355
  581MOL0     C76586   9.032   3.434   8.458  0.3512 -1.0427  0.4892
  581MOL0     C76587   8.989   3.319   8.521  0.2706 -0.2359 -0.0395
  581MOL0     C76588   8.991   3.304   8.659  0.1365 -1.0512  0.4946
  581MOL0     C76589   8.908   3.190   8.725  0.4592  0.0463  0.3629
  581MOL0     O76590   8.826   3.119   8.645 -0.4921 -0.0665 -0.1813
  581MOL0     C76591   8.763   3.005   8.689  0.1657 -0.1352 -0.3421
  581MOL0     C76592   8.838   2.893   8.730  0.4130 -0.3337 -0.5773
  581MOL0     C76593   8.783   2.783   8.785 -0.2302  0.3694 -0.3419
  581MOL0     C76594   8.646   2.772   8.800  1.2062  0.2322  0.5129
  581MOL0     O76595   8.574   2.663   8.841  0.2954  0.2244 -0.0855
  581MOL0     C76596   8.632   2.530   8.824 -0.4993  0.5344 -0.2281
  581MOL0     C76597   8.524   2.417   8.803  0.4132  0.4793  0.0508
  581MOL0     C76598   8.408   2.413   8.907 -0.3832  0.6336  0.5827
  581MOL0     C76599   8.460   2.404   9.048 -0.5719  0.2217 -0.1142
  581MOL0     C76600   8.361   2.408   9.167 -0.3415 -0.4628 -0.1982
  581MOL0     C76601   8.252   2.304   9.148 -0.1803  0.2125 -0.3191
  581MOL0     C76602   8.151   2.322   9.257  0.4439 -0.0525 -0.1947
  581MOL0     C76603   8.050   2.437   9.229  0.1975 -0.9944 -0.3268
  581MOL0    Cl76604   7.947   2.435   9.377  0.1545  0.3568 -0.7124
  581MOL0     C76605   8.561   2.881   8.755 -0.7464  0.0076  0.2258
  581MOL0     C76606   8.625   2.997   8.702 -0.3987  0.8558  0.8201
  581MOL0     O76607   8.921   3.166   8.844  0.4562 -0.7168  0.7210
  581MOL0     C76608   9.043   3.407   8.733 -0.6559 -0.1044  0.5275
  581MOL0     C76609   9.088   3.526   8.669 -0.5550  0.2519  0.4004
  581MOL0     N76610   9.565   4.074   8.248 -0.6372 -0.2463 -0.3922
  581MOL0     N76611   9.632   4.157   8.319 -0.5993 -0.7614  0.6577
  581MOL0     C76612   9.855   3.497   8.293 -0.1468  0.2489  1.1647
  581MOL0     C76613   9.839   3.516   8.153  0.4582 -0.4581 -0.3649
  581MOL0     C76614   9.722   3.761   7.756  1.2321  0.5131  0.4388
  581MOL0     C76615   9.605   3.674   7.712 -0.1539 -0.2576  0.2793
  581MOL0     C76616   9.559   3.685   7.581 -0.4189  0.5129 -0.0019
  581MOL0     C76617   9.607   3.785   7.496 -0.0508  0.3252  0.9254
  581MOL0     O76618   9.513   3.804   7.394  0.5506  0.4297  0.9120
  581MOL0     C76619   9.545   3.895   7.289  0.6467  0.2669 -0.3370
  581MOL0     C76620   9.469   4.027   7.319 -0.2697  0.4811  0.0712
  581MOL0     C76621   9.510   4.143   7.223 -0.0124 -0.7217  0.5951
  581MOL0     C76622   9.415   4.176   7.112  0.2951  1.0075  0.5524
  581MOL0     C76623   9.469   4.273   7.025  1.1547 -0.1398 -1.3473
  581MOL0     C76624   9.523   4.339   6.950 -0.2050 -0.4174 -1.3696
  581MOL0     C76625   9.710   3.872   7.541  0.5792 -0.9599 -0.5067
  581MOL0     C76626   9.754   3.862   7.674 -0.3446 -0.2477  0.5993
  581MOL0     H76627   9.746   3.844   8.137 -2.7138 -0.4681 -1.9071
  581MOL0     H76628   9.807   3.828   8.372 -0.2784  1.4294 -1.9614
  581MOL0     H76629  10.086   3.670   8.456 -1.9770  1.9369  0.4779
  581MOL0     H76630  10.066   3.499   8.495  3.0914 -0.4133  2.9120
  581MOL0     H76631  10.167   3.626   8.686  0.4850  1.9549  1.8195
  581MOL0     H76632  10.006   3.563   8.713 -2.1636 -0.3377 -1.4127
  581MOL0     H76633  10.020   3.769   8.818  3.2866  1.8780  0.9872
  581MOL0     H76634   9.896   3.770   8.693  0.3355 -3.4645  0.8784
  581MOL0     H76635  10.147   3.919   8.703 -0.6192  0.3325  1.6842
  581MOL0     H76636  10.066   3.908   8.554 -1.1030  1.5556 -0.2148
  581MOL0     H76637  10.007   4.103   8.728 -0.4872 -0.5043  1.7873
  581MOL0     H76638   9.907   3.989   8.810 -1.7550  0.4830  0.0064
  581MOL0     H76639   9.804   3.960   8.564  0.8587 -1.7716  1.9479
  581MOL0     H76640   9.881   4.121   8.542  1.3153  0.1694  0.4166
  581MOL0     H76641   9.654   4.054   8.710 -0.9358  1.3728 -0.0537
  581MOL0     H76642   9.759   4.193   8.750 -1.9452  2.3992 -0.6303
  581MOL0     H76643   9.716   4.302   8.538 -0.7894  0.0728 -0.3312
  581MOL0     H76644   9.558   4.259   8.607 -0.4956 -1.2340  0.5915
  581MOL0     H76645   9.442   4.035   8.552  0.5701  0.6171  0.2503
  581MOL0     H76646   9.408   3.814   8.291 -1.4762 -0.4538 -0.1048
  581MOL0     H76647   9.313   3.938   8.207 -0.5808 -0.3795  0.6732
  581MOL0     H76648   9.248   4.033   8.415 -1.1102 -0.1133  2.1414
  581MOL0     H76649   9.305   3.867   8.489 -0.1271 -1.9158  0.0348
  581MOL0     H76650   9.069   3.861   8.487 -2.3548 -2.1133 -1.0161
  581MOL0     H76651   9.052   3.908   8.325  0.1263  2.6521  1.6562
  581MOL0     H76652   9.186   3.691   8.264 -1.9642 -0.9389 -0.6441
  581MOL0     H76653   9.027   3.684   8.317  0.2806 -0.5105 -2.0605
  581MOL0     H76654   9.040   3.445   8.351  0.6989  2.3887  0.7748
  581MOL0     H76655   8.948   3.233   8.469  1.2811 -0.5728 -0.2878
  581MOL0     H76656   8.946   2.894   8.719  0.7456  4.2761  1.0157
  581MOL0     H76657   8.850   2.714   8.834 -0.8695  2.4201  3.8928
  581MOL0     H76658   8.684   2.519   8.919 -0.7616 -0.5317 -0.1998
  581MOL0     H76659   8.710   2.531   8.747 -0.4678 -0.9436 -0.2348
  581MOL0     H76660   8.571   2.319   8.802 -0.8413 -0.1910 -2.9514
  581MOL0     H76661   8.475   2.425   8.706  3.0248  1.7782 -1.2816
  581MOL0     H76662   8.357   2.318   8.887 -1.0052  0.4980  2.6232
  581MOL0     H76663   8.336   2.496   8.898 -1.9464 -0.8711 -3.9516
  581MOL0     H76664   8.502   2.303   9.056 -0.8099  0.0166 -1.2832
  581MOL0     H76665   8.538   2.478   9.063  3.4796 -3.3385 -1.5526
  581MOL0     H76666   8.331   2.513   9.170  2.5668  0.4466  2.6590
  581MOL0     H76667   8.412   2.388   9.261 -0.4296 -3.2133 -0.6366
  581MOL0     H76668   8.279   2.198   9.155 -2.9226 -0.4644  3.5861
  581MOL0     H76669   8.202   2.332   9.055 -1.1737  1.2241  0.4930
  581MOL0     H76670   8.096   2.229   9.277  2.4987 -0.9123  1.9770
  581MOL0     H76671   8.198   2.339   9.354 -1.5110  3.2621  0.3146
  581MOL0     H76672   7.998   2.412   9.136  1.7191 -0.7331 -1.2996
  581MOL0     H76673   8.100   2.534   9.220  2.1828 -1.8341  0.8677
  581MOL0     H76674   8.453   2.870   8.747 -0.7286  0.8986 -2.4450
  581MOL0     H76675   8.562   3.078   8.666 -2.7100 -1.5482 -0.9491
  581MOL0     H76676   9.041   3.396   8.841  1.9196  0.9699  0.7615
  581MOL0     H76677   9.141   3.598   8.731 -2.0271  0.0733  1.9416
  581MOL0     H76678   9.893   3.403   8.333 -2.4828 -0.8176  1.0762
  581MOL0     H76679   9.834   3.428   8.089 -4.1947 -0.2435 -0.6587
  581MOL0     H76680   9.558   3.618   7.792 -3.1672 -2.8337 -2.9881
  581MOL0     H76681   9.461   3.645   7.559 -1.0239  2.7913 -1.8545
  581MOL0     H76682   9.511   3.855   7.193 -0.7738  1.0282 -0.1820
  581MOL0     H76683   9.652   3.912   7.270  0.6622  0.7022  0.1247
  581MOL0     H76684   9.362   4.008   7.312 -0.4598  1.6228 -0.2870
  581MOL0     H76685   9.488   4.063   7.420  1.5948 -2.3918  0.8903
  581MOL0     H76686   9.606   4.114   7.180  0.0182 -0.1800  0.2916
  581MOL0     H76687   9.522   4.234   7.282 -0.1565  1.8459 -3.0198
  581MOL0     H76688   9.409   4.089   7.046  2.2417  1.1325  0.1532
  581MOL0     H76689   9.316   4.203   7.153 -0.5817 -1.6587  0.3678
  581MOL0     H76690   9.569   4.397   6.873 -1.4254  0.6919 -1.2988
  581MOL0     H76691   9.749   3.959   7.490 -0.0158 -0.3555  0.0545
  581MOL0     H76692   9.831   3.933   7.705  1.2581 -1.7537  0.2605
  582MOL0     O76693   2.927   0.927   6.659 -0.2132 -0.0802 -0.7373
  582MOL0     C76694   3.018   0.945   6.734 -0.2649  0.7727  1.1457
  582MOL0     O76695   3.047   0.869   6.841  0.5746 -0.3697  0.4321
  582MOL0     C76696   2.961   0.762   6.870  0.4962  0.0949 -0.3125
  582MOL0     C76697   2.926   0.666   6.771 -0.4662  0.0294 -0.2422
  582MOL0     C76698   2.854   0.552   6.806  0.1456 -0.0240  0.5918
  582MOL0     C76699   2.791   0.550   6.929  0.0383  0.5189  0.6416
  582MOL0     O76700   2.704   0.454   6.956  1.0742  0.0148 -0.0069
  582MOL0     C76701   2.620   0.397   6.854 -0.1779 -0.7437 -0.2114
  582MOL0     C76702   2.681   0.263   6.829  0.3750 -0.2064 -0.7921
  582MOL0     C76703   2.590   0.199   6.719 -0.1003  1.2106  0.0926
  582MOL0     C76704   2.492   0.102   6.788  0.1540 -0.3102  0.5108
  582MOL0     C76705   2.385   0.054   6.684  0.9707  0.4178 -0.5671
  582MOL0     C76706   2.270  -0.015   6.756  0.2204  0.4126 -0.3246
  582MOL0     C76707   2.167  -0.072   6.654 -0.1315 -0.7999  0.5351
  582MOL0     C76708   2.093  -0.184   6.712  0.6038  0.4184 -0.0761
  582MOL0     N76709   2.169  -0.313   6.742 -0.2891 -0.1547 -0.9113
  582MOL0     C76710   2.255  -0.379   6.645  0.9783  0.6538  0.7682
  582MOL0     C76711   2.267  -0.498   6.703  0.3326 -0.2373  0.3149
  582MOL0     C76712   2.371  -0.608   6.642  0.8944  0.1275 -0.9733
  582MOL0     C76713   2.500  -0.569   6.702  0.2440  0.4271 -1.3052
  582MOL0     C76714   2.524  -0.563   6.861 -0.3815  0.6281 -0.4690
  582MOL0     C76715   2.466  -0.691   6.929  0.2247 -0.2081 -0.1151
  582MOL0     O76716   2.561  -0.798   6.893  0.0455 -0.5213  0.1536
  582MOL0     C76717   2.521  -0.924   6.866  0.1324 -0.1689  0.2706
  582MOL0     C76718   2.609  -1.007   6.789  0.4025 -1.1038  0.1399
  582MOL0     C76719   2.589  -1.141   6.767 -0.6539 -0.2397 -0.5246
  582MOL0     C76720   2.478  -1.204   6.825 -0.4116  0.7046  0.6040
  582MOL0     C76721   2.457  -1.342   6.801  0.6614  0.1540 -0.4021
  582MOL0     O76722   2.371  -1.413   6.886  0.4035 -0.6913  0.2071
  582MOL0     C76723   2.323  -1.541   6.858 -0.2689 -0.4189 -0.2494
  582MOL0     C76724   2.342  -1.636   6.959  0.4433  0.3991  0.2756
  582MOL0     C76725   2.320  -1.763   6.939  0.6229  0.3957 -0.6218
  582MOL0     C76726   2.284  -1.814   6.814  0.9876 -0.3132 -0.4511
  582MOL0     O76727   2.274  -1.956   6.802 -0.3326  0.0602  0.8085
  582MOL0     C76728   2.280  -2.001   6.662  0.3674  0.1542 -0.6285
  582MOL0     C76729   2.294  -2.149   6.641 -0.3089 -0.3842 -1.0226
  582MOL0     C76730   2.165  -2.211   6.707  0.1029  0.1708 -0.9510
  582MOL0     C76731   2.139  -2.349   6.660  0.1145  0.4937 -0.2791
  582MOL0     C76732   2.009  -2.418   6.723 -0.5587 -0.4443  0.1138
  582MOL0     C76733   1.988  -2.565   6.663  0.1018 -0.7430  0.5652
  582MOL0     C76734   1.947  -2.562   6.518 -0.1560 -1.4198  0.6898
  582MOL0     C76735   1.882  -2.686   6.471 -0.2570  0.3423  1.1965
  582MOL0    Cl76736   1.713  -2.684   6.547  0.0380  0.1982 -0.0699
  582MOL0     C76737   2.236  -1.726   6.722  0.2469 -0.8657  0.6251
  582MOL0     C76738   2.262  -1.579   6.741 -0.2077  0.3101  0.4526
  582MOL0     O76739   2.500  -1.393   6.698  0.0446 -0.0710  0.1860
  582MOL0     C76740   2.389  -1.131   6.894  0.7884 -0.5475  0.4750
  582MOL0     C76741   2.415  -0.992   6.914  0.1325  0.9632 -0.0709
  582MOL0     N76742   2.205  -0.506   6.829 -0.1811  0.1174 -0.7160
  582MOL0     N76743   2.148  -0.393   6.850 -0.4924  0.6236 -0.1324
  582MOL0     C76744   2.818   0.650   7.029 -0.2928 -0.0947  0.6032
  582MOL0     C76745   2.907   0.758   6.999 -1.5043  0.6408  0.2903
  582MOL0     C76746   3.098   1.068   6.712 -0.2642  0.3676  0.8819
  582MOL0     C76747   3.148   1.140   6.820 -0.6365  1.2626  0.3453
  582MOL0     C76748   3.218   1.259   6.809 -0.5992  0.8631 -0.9853
  582MOL0     C76749   3.236   1.313   6.692  0.6247  0.3373  0.7698
  582MOL0     O76750   3.314   1.428   6.688  0.3670 -0.4224 -0.6888
  582MOL0     C76751   3.298   1.511   6.565  0.1020  0.4988 -0.3337
  582MOL0     C76752   3.161   1.576   6.534 -0.6064  0.0828 -0.0663
  582MOL0     C76753   3.165   1.685   6.421  0.2807 -0.6130 -0.6745
  582MOL0     C76754   3.033   1.753   6.389  0.8703  0.7633  0.1869
  582MOL0     C76755   3.038   1.864   6.288 -0.8167  1.0062  0.0724
  582MOL0     C76756   3.050   1.966   6.221  0.3826  0.1629  0.1205
  582MOL0     C76757   3.173   1.243   6.584  0.3595 -0.8002 -0.1132
  582MOL0     C76758   3.108   1.122   6.588 -0.5474 -0.2825  0.4235
  582MOL0     H76759   2.960   0.687   6.670 -1.3213  0.5911 -0.4225
  582MOL0     H76760   2.847   0.473   6.732  2.1294  1.1480 -0.9395
  582MOL0     H76761   2.644   0.458   6.767  3.0125  0.7804  1.5245
  582MOL0     H76762   2.515   0.399   6.885 -0.3361  0.7092 -0.7673
  582MOL0     H76763   2.706   0.209   6.921 -1.2147  0.0368 -0.1827
  582MOL0     H76764   2.778   0.266   6.779  0.7301  1.6503 -0.0522
  582MOL0     H76765   2.663   0.151   6.653 -1.9161  1.4365 -2.1969
  582MOL0     H76766   2.536   0.274   6.660 -0.3483  1.2924  0.4171
  582MOL0     H76767   2.563   0.022   6.811  1.7416  1.5636  2.7077
  582MOL0     H76768   2.445   0.136   6.881  1.2863 -1.6974  1.6340
  582MOL0     H76769   2.422  -0.012   6.606 -0.1797 -0.5832 -0.3055
  582MOL0     H76770   2.355   0.138   6.621 -1.1281  0.0313 -0.1761
  582MOL0     H76771   2.207   0.048   6.820 -1.5624 -1.2011 -0.3930
  582MOL0     H76772   2.316  -0.086   6.825 -0.1057 -0.3601 -0.8796
  582MOL0     H76773   2.099   0.011   6.632  1.3934  0.2404 -0.4155
  582MOL0     H76774   2.221  -0.090   6.561  1.1074 -0.5914  1.1906
  582MOL0     H76775   2.014  -0.219   6.645  2.4032 -5.3677  0.2647
  582MOL0     H76776   2.044  -0.152   6.805  1.1416 -0.1931  0.4239
  582MOL0     H76777   2.287  -0.338   6.550  0.2659 -0.6831 -0.0810
  582MOL0     H76778   2.366  -0.606   6.533  2.2679  0.4995 -1.0392
  582MOL0     H76779   2.339  -0.712   6.654 -1.4089  0.6669 -1.8157
  582MOL0     H76780   2.529  -0.474   6.658  2.0503  0.6820  0.2937
  582MOL0     H76781   2.569  -0.641   6.656  2.3310  0.1273  1.9676
  582MOL0     H76782   2.631  -0.555   6.880 -0.7149  3.5810  0.6992
  582MOL0     H76783   2.473  -0.471   6.892 -1.8029 -0.3669  0.2864
  582MOL0     H76784   2.366  -0.719   6.895  0.4381  0.1066 -1.0299
  582MOL0     H76785   2.454  -0.677   7.037 -3.0011 -0.3863 -0.3327
  582MOL0     H76786   2.694  -0.950   6.753 -1.2964 -0.0211 -2.4343
  582MOL0     H76787   2.665  -1.206   6.726 -0.9326 -1.2310  0.4965
  582MOL0     H76788   2.397  -1.605   7.048 -0.0377  1.6765  0.1524
  582MOL0     H76789   2.349  -1.831   7.019  1.6969  3.0640  1.3906
  582MOL0     H76790   2.356  -1.944   6.608  1.2980  0.7344  1.2247
  582MOL0     H76791   2.189  -1.978   6.606  1.7781 -1.8310 -4.0451
  582MOL0     H76792   2.380  -2.186   6.696 -1.1324 -0.6139  0.1584
  582MOL0     H76793   2.294  -2.178   6.536  0.0811 -0.2925 -1.0481
  582MOL0     H76794   2.075  -2.159   6.673 -0.1224 -0.1113 -0.7978
  582MOL0     H76795   2.172  -2.213   6.816  0.8383  2.4390 -0.9134
  582MOL0     H76796   2.113  -2.341   6.554 -2.8994 -0.2327  0.3096
  582MOL0     H76797   2.226  -2.414   6.671 -0.3299  0.1125  1.1591
  582MOL0     H76798   1.927  -2.355   6.687 -0.4061 -0.4731 -0.2896
  582MOL0     H76799   2.024  -2.422   6.832  0.0881  0.7626  0.0825
  582MOL0     H76800   1.913  -2.620   6.722 -0.3698 -1.5992 -0.7795
  582MOL0     H76801   2.081  -2.621   6.675 -0.6051 -1.6963  1.8572
  582MOL0     H76802   1.896  -2.470   6.487 -0.9082 -2.0520  0.0031
  582MOL0     H76803   2.032  -2.551   6.451  0.0481  2.8276  1.3708
  582MOL0     H76804   1.942  -2.772   6.501 -0.7080  0.2276  1.7996
  582MOL0     H76805   1.873  -2.677   6.362  1.7407 -2.4164  0.7111
  582MOL0     H76806   2.179  -1.756   6.635 -0.7722  2.0988  0.1672
  582MOL0     H76807   2.255  -1.512   6.656  0.0302 -0.2116  0.0135
  582MOL0     H76808   2.300  -1.178   6.934 -1.7794  3.3237 -0.1570
  582MOL0     H76809   2.351  -0.951   6.991  0.0370 -0.1908  0.4958
  582MOL0     H76810   2.761   0.641   7.121 -1.0892  0.1747  0.1401
  582MOL0     H76811   2.943   0.822   7.079 -0.4630 -1.7904  1.8716
  582MOL0     H76812   3.135   1.096   6.918  0.8508  0.8841  0.4014
  582MOL0     H76813   3.246   1.304   6.904 -3.5070 -2.2018  1.6149
  582MOL0     H76814   3.327   1.455   6.476  2.0046 -1.4813  1.4180
  582MOL0     H76815   3.379   1.584   6.571  1.0039 -0.6215  2.4037
  582MOL0     H76816   3.079   1.509   6.508 -1.0688 -0.6621  2.8876
  582MOL0     H76817   3.131   1.628   6.626 -0.6727 -3.6003  2.2016
  582MOL0     H76818   3.214   1.642   6.333  2.3217 -1.0048  0.5911
  582MOL0     H76819   3.232   1.768   6.447  0.4883 -0.9507 -0.1008
  582MOL0     H76820   2.977   1.670   6.345  2.7239  0.0327 -0.8802
  582MOL0     H76821   2.987   1.794   6.479  2.9599 -1.2027  2.2600
  582MOL0     H76822   3.075   2.048   6.157 -0.4631  2.5280  2.6288
  582MOL0     H76823   3.190   1.291   6.489 -1.6225  0.8548  0.2888
  582MOL0     H76824   3.065   1.072   6.502  0.1383 -0.7774  0.3709
  583MOL0     O76825   6.784   1.628   3.422  0.2335  0.1933  0.5396
  583MOL0     C76826   6.742   1.513   3.427 -0.0198  0.1563  0.1104
  583MOL0     O76827   6.733   1.418   3.333  0.6202 -0.0909  0.2035
  583MOL0     C76828   6.770   1.452   3.205  0.4984 -1.1243 -0.5220
  583MOL0     C76829   6.906   1.472   3.182  0.1783 -0.2212  0.4476
  583MOL0     C76830   6.945   1.501   3.055 -0.2412 -0.4479  0.3446
  583MOL0     C76831   6.848   1.516   2.951 -0.0720  0.2779 -0.4730
  583MOL0     O76832   6.894   1.528   2.823  0.1493  0.1062  0.5224
  583MOL0     C76833   6.792   1.556   2.718 -0.1177  0.8766 -0.4963
  583MOL0     C76834   6.869   1.601   2.596  0.7942  0.0802  1.4733
  583MOL0     C76835   6.994   1.528   2.540 -0.3745 -0.3797  0.3165
  583MOL0     C76836   7.063   1.603   2.431 -0.7327 -0.3204  0.0196
  583MOL0     C76837   7.165   1.522   2.365 -0.4845  0.6315 -0.0651
  583MOL0     C76838   7.277   1.486   2.461 -0.4741  0.1354 -0.5302
  583MOL0     C76839   7.366   1.369   2.407  0.3696  0.0829 -0.4773
  583MOL0     C76840   7.428   1.399   2.268 -0.6585 -0.0390 -0.0393
  583MOL0     N76841   7.500   1.283   2.200 -0.2445 -0.1036  0.0170
  583MOL0     C76842   7.642   1.271   2.209 -0.4881 -0.6169  0.4064
  583MOL0     C76843   7.663   1.140   2.192  0.6967  1.4341  0.2497
  583MOL0     C76844   7.798   1.075   2.209  0.3726  0.4762  0.1812
  583MOL0     C76845   7.860   1.088   2.345 -1.2555  0.6110  0.2259
  583MOL0     C76846   7.951   0.961   2.369 -0.4250 -0.6427  0.0495
  583MOL0     C76847   7.871   0.834   2.405 -0.0112  1.3044 -0.0758
  583MOL0     O76848   7.796   0.858   2.519 -0.6865  0.4366 -0.3679
  583MOL0     C76849   7.731   0.756   2.584  0.1799 -0.1526 -0.0016
  583MOL0     C76850   7.725   0.622   2.529 -1.4013 -0.4128 -0.2668
  583MOL0     C76851   7.651   0.523   2.598  0.5568 -0.4470 -0.1377
  583MOL0     C76852   7.570   0.551   2.714 -0.2092  0.4496  0.1495
  583MOL0     C76853   7.479   0.447   2.760  0.7498  0.2256 -0.4531
  583MOL0     O76854   7.494   0.328   2.691  0.1101 -0.0784 -0.5939
  583MOL0     C76855   7.431   0.207   2.725  1.3050 -1.3849  0.0613
  583MOL0     C76856   7.486   0.085   2.682  0.0169  0.2642  0.3648
  583MOL0     C76857   7.433  -0.039   2.719  1.7921  1.0476 -0.0188
  583MOL0     C76858   7.304  -0.044   2.794 -0.0253  0.4535 -0.6759
  583MOL0     O76859   7.228  -0.159   2.821  0.1207 -0.4246 -0.3424
  583MOL0     C76860   7.255  -0.279   2.754 -0.3487 -0.4797  0.5894
  583MOL0     C76861   7.144  -0.375   2.787 -0.2987  1.0089 -0.9523
  583MOL0     C76862   7.042  -0.378   2.677  0.9401  0.2438 -0.2312
  583MOL0     C76863   6.967  -0.520   2.663  0.0323 -0.4259  0.1613
  583MOL0     C76864   6.870  -0.548   2.778  0.1822 -0.0352  0.5952
  583MOL0     C76865   6.795  -0.685   2.780  0.2351 -0.4508 -0.4085
  583MOL0     C76866   6.900  -0.796   2.763 -0.5180  0.5048 -0.3672
  583MOL0     C76867   6.824  -0.932   2.776 -0.0443 -0.5183  0.1101
  583MOL0    Cl76868   6.936  -1.060   2.787  0.0078  0.4505 -0.0471
  583MOL0     C76869   7.255   0.077   2.847  1.0081 -0.4774  0.9332
  583MOL0     C76870   7.314   0.199   2.807  0.3115 -0.0034  0.8357
  583MOL0     O76871   7.417   0.471   2.865  0.7507 -0.7634  0.5614
  583MOL0     C76872   7.582   0.678   2.768 -0.3198  0.4103 -0.7403
  583MOL0     C76873   7.663   0.783   2.706 -0.9835 -0.9146 -0.2766
  583MOL0     N76874   7.538   1.076   2.171  0.2137 -0.4698  0.0457
  583MOL0     N76875   7.442   1.161   2.175  0.1582 -0.2062  0.7210
  583MOL0     C76876   6.713   1.523   2.988  0.3408 -0.0213  0.9390
  583MOL0     C76877   6.675   1.481   3.116 -1.1931  0.5478  0.3335
  583MOL0     C76878   6.726   1.454   3.563 -0.0394  0.1462 -0.2438
  583MOL0     C76879   6.692   1.319   3.590 -0.4524  0.0334 -0.1825
  583MOL0     C76880   6.669   1.275   3.719  0.2354 -0.8618 -0.3036
  583MOL0     C76881   6.672   1.373   3.830 -0.3178  0.3850  0.0871
  583MOL0     O76882   6.638   1.342   3.963  0.4550 -0.1841 -0.2506
  583MOL0     C76883   6.737   1.375   4.067 -0.1312 -0.8614 -0.2615
  583MOL0     C76884   6.849   1.279   4.057  0.1335 -0.0602 -0.6272
  583MOL0     C76885   6.800   1.138   4.124 -0.8205  0.9922  0.4560
  583MOL0     C76886   6.728   1.046   4.029 -0.1470 -0.6744  1.0076
  583MOL0     C76887   6.822   1.001   3.926 -0.1036  0.2880  0.5606
  583MOL0     C76888   6.886   0.944   3.841 -0.1093  0.7202 -0.5536
  583MOL0     C76889   6.709   1.503   3.809  0.2269 -0.8153 -0.3959
  583MOL0     C76890   6.744   1.550   3.676  0.8131  0.3301 -1.1342
  583MOL0     H76891   6.982   1.455   3.258  1.4767 -0.7257 -0.9073
  583MOL0     H76892   7.051   1.524   3.051 -0.1695 -0.1436  2.7132
  583MOL0     H76893   6.720   1.635   2.742 -3.9570 -2.5809  0.4228
  583MOL0     H76894   6.744   1.460   2.700 -0.9403  0.7986  1.7607
  583MOL0     H76895   6.900   1.703   2.619  0.4863  1.0217 -1.7451
  583MOL0     H76896   6.807   1.595   2.506  4.3753  0.4058 -1.2619
  583MOL0     H76897   6.968   1.439   2.482  3.9078 -1.7196  0.0654
  583MOL0     H76898   7.057   1.508   2.627 -0.7167  1.5710  1.0630
  583MOL0     H76899   6.991   1.635   2.354  1.2578  2.1441 -0.9629
  583MOL0     H76900   7.114   1.690   2.474 -1.0615  1.0265 -2.1337
  583MOL0     H76901   7.209   1.567   2.275 -1.1351 -4.8687 -3.5755
  583MOL0     H76902   7.116   1.437   2.318  0.3808  0.3525 -0.4769
  583MOL0     H76903   7.245   1.443   2.557  1.9672 -3.2700 -1.0355
  583MOL0     H76904   7.337   1.576   2.479  0.8079 -0.9675  1.0790
  583MOL0     H76905   7.457   1.348   2.464  1.8262  0.2484 -2.5942
  583MOL0     H76906   7.301   1.282   2.393 -1.0945  0.9550  0.6119
  583MOL0     H76907   7.497   1.482   2.286 -2.1485  1.4264 -0.7385
  583MOL0     H76908   7.350   1.430   2.198 -1.7460 -0.2603  1.0211
  583MOL0     H76909   7.725   1.340   2.222 -2.1251  1.7549 -0.9025
  583MOL0     H76910   7.873   1.115   2.140  2.7083 -0.5439  1.9780
  583MOL0     H76911   7.789   0.973   2.171 -0.1803  1.4806 -2.5814
  583MOL0     H76912   7.785   1.088   2.424  0.3211  1.0678  1.7885
  583MOL0     H76913   7.908   1.186   2.346 -2.8968  1.5175 -1.7644
  583MOL0     H76914   8.005   0.930   2.279 -1.3517 -2.1978 -0.0232
  583MOL0     H76915   8.014   0.978   2.456  3.0914  0.1457 -2.4412
  583MOL0     H76916   7.945   0.753   2.408 -2.6863 -1.3246 -0.1960
  583MOL0     H76917   7.801   0.822   2.321 -0.0363 -0.5329  0.1691
  583MOL0     H76918   7.780   0.583   2.444 -0.2603 -2.7460  1.4254
  583MOL0     H76919   7.663   0.421   2.563 -1.9535 -0.3691 -1.4339
  583MOL0     H76920   7.578   0.084   2.625 -1.1492  1.6114 -1.6842
  583MOL0     H76921   7.475  -0.128   2.674 -3.8066 -1.6174 -0.8294
  583MOL0     H76922   7.354  -0.318   2.782 -0.7645 -1.0458  1.3152
  583MOL0     H76923   7.258  -0.252   2.648 -1.4277  0.0990  0.6925
  583MOL0     H76924   7.104  -0.363   2.888 -0.3647 -0.6761 -0.7545
  583MOL0     H76925   7.197  -0.470   2.784 -0.7754  0.7654 -3.5037
  583MOL0     H76926   7.103  -0.360   2.588  2.7805 -0.0501  0.9197
  583MOL0     H76927   6.968  -0.299   2.695 -0.7722 -1.7131  1.7019
  583MOL0     H76928   6.920  -0.523   2.565 -0.3108 -4.0952  0.3314
  583MOL0     H76929   7.043  -0.597   2.649 -0.0847 -0.4083 -0.6090
  583MOL0     H76930   6.800  -0.467   2.800 -1.7757 -1.7257  0.8460
  583MOL0     H76931   6.939  -0.550   2.864 -0.8158  0.2198  1.4148
  583MOL0     H76932   6.721  -0.686   2.700  1.1990 -3.4043 -1.4110
  583MOL0     H76933   6.746  -0.696   2.877  0.5410 -3.8992 -0.5263
  583MOL0     H76934   6.938  -0.797   2.661 -1.9542 -1.9065 -0.9613
  583MOL0     H76935   6.972  -0.803   2.845  1.3838 -1.3107 -2.0761
  583MOL0     H76936   6.765  -0.940   2.685  0.2962  1.7461 -0.3614
  583MOL0     H76937   6.754  -0.934   2.861 -0.7190  0.6124 -0.3868
  583MOL0     H76938   7.169   0.082   2.912  1.2413 -2.8324  1.5011
  583MOL0     H76939   7.280   0.282   2.867  0.2655 -0.9749  2.2040
  583MOL0     H76940   7.523   0.716   2.851 -0.7868  2.6748 -2.0085
  583MOL0     H76941   7.648   0.883   2.745  0.8719 -1.9433  3.5959
  583MOL0     H76942   6.632   1.548   2.921  2.3024  1.0673 -1.1978
  583MOL0     H76943   6.571   1.478   3.148 -1.1301 -1.5429  0.4446
  583MOL0     H76944   6.689   1.244   3.512  2.7232 -2.7531  2.0950
  583MOL0     H76945   6.654   1.171   3.745  3.7974 -1.4059  0.1658
  583MOL0     H76946   6.712   1.376   4.173  0.1689  1.3932 -0.1630
  583MOL0     H76947   6.774   1.477   4.052 -0.0894 -0.9734 -0.9808
  583MOL0     H76948   6.892   1.263   3.957  0.5516  0.7299 -0.5827
  583MOL0     H76949   6.931   1.318   4.118 -1.4262 -1.0784  2.3120
  583MOL0     H76950   6.744   1.158   4.216 -1.1109  1.5074  0.1712
  583MOL0     H76951   6.884   1.073   4.148 -1.9625 -0.8708 -0.3997
  583MOL0     H76952   6.685   0.962   4.085 -0.1686 -0.9442  0.5894
  583MOL0     H76953   6.639   1.084   3.978  0.2552 -2.5446 -1.2245
  583MOL0     H76954   6.919   0.887   3.757 -1.8702 -0.3098 -0.6050
  583MOL0     H76955   6.714   1.567   3.896  0.3075 -0.2143 -0.8397
  583MOL0     H76956   6.775   1.652   3.658 -2.8131  2.2228  1.7923
  584MOL0     O76957   9.070   2.076   3.442 -0.1572 -0.2911 -0.7640
  584MOL0     C76958   8.985   2.142   3.390  0.0944 -0.6373  0.0467
  584MOL0     O76959   8.870   2.176   3.442  0.0958 -0.0031 -0.6964
  584MOL0     C76960   8.820   2.133   3.562 -0.1184  0.2308 -0.7972
  584MOL0     C76961   8.868   2.025   3.643  0.4456 -0.0342  0.2704
  584MOL0     C76962   8.806   2.005   3.771  1.6167  0.0326 -0.3743
  584MOL0     C76963   8.697   2.086   3.817 -0.1011 -0.1462 -1.2374
  584MOL0     O76964   8.631   2.072   3.934 -0.1636 -0.4172 -0.5778
  584MOL0     C76965   8.648   1.946   4.008  0.4019 -0.3273  0.6636
  584MOL0     C76966   8.586   1.955   4.156 -0.8557  0.0043 -0.0131
  584MOL0     C76967   8.593   1.820   4.230  0.0438  0.5044  0.4830
  584MOL0     C76968   8.499   1.818   4.354 -0.6431 -0.0279  0.9237
  584MOL0     C76969   8.553   1.706   4.433  0.0352  0.7145  0.3340
  584MOL0     C76970   8.459   1.662   4.541  0.2662  0.2449  0.4210
  584MOL0     C76971   8.494   1.523   4.585  0.4754  0.2389 -1.2928
  584MOL0     C76972   8.398   1.493   4.703 -0.4312  0.0476 -1.5883
  584MOL0     N76973   8.458   1.433   4.818 -0.4418 -0.5938 -0.2337
  584MOL0     C76974   8.516   1.312   4.840  0.6349  0.1559  0.1645
  584MOL0     C76975   8.563   1.307   4.969 -0.1905 -0.5053  0.1047
  584MOL0     C76976   8.621   1.193   5.062 -0.9241 -0.3795 -0.3209
  584MOL0     C76977   8.508   1.111   5.120 -0.8925  1.0017  0.6858
  584MOL0     C76978   8.446   1.171   5.255 -0.7463 -0.2747 -0.0831
  584MOL0     C76979   8.337   1.082   5.312  0.0100 -0.1518  0.3595
  584MOL0     O76980   8.384   0.954   5.350  0.6751 -1.0518  0.0399
  584MOL0     C76981   8.288   0.858   5.396 -0.5429  0.2315 -0.8131
  584MOL0     C76982   8.244   0.755   5.320 -0.5940  0.1433  0.9337
  584MOL0     C76983   8.146   0.670   5.369  0.5691 -1.3144  0.1963
  584MOL0     C76984   8.090   0.684   5.495  0.4140 -0.2298  0.8702
  584MOL0     C76985   7.988   0.587   5.540 -1.5597 -1.0696 -0.5554
  584MOL0     O76986   7.949   0.490   5.453  0.6229  1.0421  0.6213
  584MOL0     C76987   7.861   0.393   5.497  0.4927  0.2907 -0.2477
  584MOL0     C76988   7.742   0.371   5.425 -0.4400  0.7576  0.1305
  584MOL0     C76989   7.657   0.268   5.477 -0.1288  0.1893  0.1874
  584MOL0     C76990   7.692   0.188   5.579 -0.7416 -0.5076 -0.0551
  584MOL0     O76991   7.615   0.094   5.637  0.7694  0.3549  0.0969
  584MOL0     C76992   7.512   0.023   5.558  0.2943 -0.1931 -0.1277
  584MOL0     C76993   7.449  -0.057   5.672 -0.8084 -0.7320  0.8214
  584MOL0     C76994   7.316  -0.132   5.630 -1.1666 -0.3239  0.1648
  584MOL0     C76995   7.197  -0.043   5.604 -0.2662  1.3081 -0.7016
  584MOL0     C76996   7.157   0.047   5.726 -0.4059 -0.1351 -1.2140
  584MOL0     C76997   7.147  -0.024   5.863 -0.0912  0.5273  0.3177
  584MOL0     C76998   7.067   0.071   5.948 -0.1035 -0.0644 -0.6917
  584MOL0     C76999   7.046   0.016   6.097 -0.8445  0.3596  0.0522
  584MOL0    Cl77000   7.198   0.052   6.185  0.1003  0.3081  0.2916
  584MOL0     C77001   7.819   0.202   5.632 -0.2199 -0.7621 -0.3783
  584MOL0     C77002   7.899   0.312   5.604 -0.3001  0.2045  0.1482
  584MOL0     O77003   7.948   0.607   5.659  0.4490 -0.0309  0.3539
  584MOL0     C77004   8.125   0.800   5.558  0.0495 -0.5872 -0.6839
  584MOL0     C77005   8.221   0.885   5.518  0.6133 -0.7628 -0.5929
  584MOL0     N77006   8.521   1.425   5.023  0.6126 -0.5613  0.2400
  584MOL0     N77007   8.459   1.498   4.931 -0.8084 -0.5134  0.2217
  584MOL0     C77008   8.649   2.184   3.737  0.7819 -0.4633  0.5137
  584MOL0     C77009   8.706   2.202   3.613 -0.1038  0.3197 -0.7274
  584MOL0     C77010   8.993   2.185   3.250 -0.1665  0.2093  0.4605
  584MOL0     C77011   9.084   2.130   3.161 -0.5955  0.4904 -0.8225
  584MOL0     C77012   9.085   2.166   3.024  0.2169  0.1256  0.3186
  584MOL0     C77013   9.004   2.261   2.973  0.4179  0.4138 -0.3584
  584MOL0     O77014   8.999   2.297   2.843  0.5661 -1.1119  0.6511
  584MOL0     C77015   9.114   2.360   2.779  0.8778 -0.4278  0.1962
  584MOL0     C77016   9.103   2.515   2.777  0.4279 -0.2655 -0.0301
  584MOL0     C77017   9.232   2.587   2.729 -0.1781 -0.1772  0.1015
  584MOL0     C77018   9.257   2.726   2.793  0.3944  0.7393  0.5636
  584MOL0     C77019   9.182   2.825   2.706 -0.1514 -0.0299  1.0446
  584MOL0     C77020   9.116   2.900   2.636  0.6259 -0.6410  1.4268
  584MOL0     C77021   8.918   2.328   3.062 -0.6547  0.7151  0.9683
  584MOL0     C77022   8.918   2.292   3.202  0.5520  0.8986  0.3567
  584MOL0     H77023   8.942   1.953   3.611  2.0839  0.5796  2.4117
  584MOL0     H77024   8.847   1.925   3.831 -0.1517 -0.6120  0.0483
  584MOL0     H77025   8.756   1.927   4.017  0.2174 -3.8296 -2.1963
  584MOL0     H77026   8.605   1.866   3.947  1.3614  1.0646 -1.9949
  584MOL0     H77027   8.483   1.988   4.145 -0.6041  1.1910  0.9683
  584MOL0     H77028   8.646   2.027   4.213  1.9028  1.2215 -4.0345
  584MOL0     H77029   8.696   1.803   4.263 -0.3909  0.3505  1.7988
  584MOL0     H77030   8.563   1.734   4.169  0.9362  0.9566 -0.6368
  584MOL0     H77031   8.497   1.916   4.402 -2.0480 -0.4609  1.8262
  584MOL0     H77032   8.397   1.792   4.323  0.0637 -0.7719 -0.9432
  584MOL0     H77033   8.651   1.736   4.471  1.6260 -3.3791 -0.0770
  584MOL0     H77034   8.575   1.630   4.358 -1.5577  0.4911  0.0647
  584MOL0     H77035   8.363   1.656   4.489  0.8843 -3.3821 -0.5830
  584MOL0     H77036   8.449   1.733   4.624 -1.1483 -1.8814  2.1849
  584MOL0     H77037   8.466   1.454   4.505 -3.1821  0.6819 -0.5679
  584MOL0     H77038   8.596   1.517   4.623 -0.7762 -4.4621  2.2657
  584MOL0     H77039   8.325   1.416   4.676 -1.1734 -0.0029  0.4044
  584MOL0     H77040   8.352   1.586   4.737 -1.6471 -0.9108 -0.4986
  584MOL0     H77041   8.531   1.237   4.764 -3.0839 -0.6282  0.0107
  584MOL0     H77042   8.671   1.223   5.155 -2.8655 -1.3280  1.1169
  584MOL0     H77043   8.695   1.140   5.002 -1.1717  0.8151 -1.7249
  584MOL0     H77044   8.558   1.021   5.157 -1.1734  0.9572  0.9661
  584MOL0     H77045   8.439   1.083   5.040 -1.4802  1.2214  1.1055
  584MOL0     H77046   8.512   1.194   5.339 -1.6171 -4.2502  1.9331
  584MOL0     H77047   8.398   1.266   5.231  2.6573  1.6252  0.0153
  584MOL0     H77048   8.253   1.072   5.243 -1.0509 -1.2623  1.7352
  584MOL0     H77049   8.299   1.135   5.400 -0.1437 -1.3627  1.0412
  584MOL0     H77050   8.304   0.725   5.235  2.1353  3.4075  1.5169
  584MOL0     H77051   8.122   0.583   5.308  1.3139 -1.7877  0.5714
  584MOL0     H77052   7.716   0.430   5.338  1.7887  0.3212 -0.8768
  584MOL0     H77053   7.557   0.260   5.437 -0.6985  4.4390  0.3118
  584MOL0     H77054   7.556  -0.040   5.480  2.2615 -1.8788  2.1912
  584MOL0     H77055   7.440   0.093   5.513  0.8601  0.8201  0.5019
  584MOL0     H77056   7.424   0.010   5.755 -0.4859  2.5041 -1.5092
  584MOL0     H77057   7.523  -0.131   5.704  1.2055  1.5078  1.6900
  584MOL0     H77058   7.286  -0.207   5.703 -3.1932 -1.1931 -1.4787
  584MOL0     H77059   7.342  -0.191   5.541  1.9541  0.6950  0.2547
  584MOL0     H77060   7.200   0.015   5.511 -0.3379 -0.4361 -1.8241
  584MOL0     H77061   7.115  -0.115   5.593 -0.4139  0.9178  2.1627
  584MOL0     H77062   7.066   0.104   5.707 -0.7137 -0.5492 -0.9933
  584MOL0     H77063   7.230   0.128   5.739  1.0071 -1.8580  4.6418
  584MOL0     H77064   7.251  -0.037   5.894  1.2761  0.0778 -3.8002
  584MOL0     H77065   7.102  -0.124   5.850 -0.5825  0.8843 -0.8759
  584MOL0     H77066   7.105   0.174   5.951 -1.7389  0.5914  2.3866
  584MOL0     H77067   6.966   0.079   5.908 -1.6880 -1.1972  2.7157
  584MOL0     H77068   7.022  -0.091   6.100  1.3807 -0.3301 -2.5751
  584MOL0     H77069   6.960   0.067   6.140 -1.2171 -1.6921  1.9586
  584MOL0     H77070   7.856   0.133   5.708 -1.3457 -0.4405  0.4938
  584MOL0     H77071   7.990   0.317   5.662 -0.3463 -1.6754  0.4295
  584MOL0     H77072   8.069   0.826   5.647  3.3884 -2.1642  2.1226
  584MOL0     H77073   8.235   0.975   5.578 -0.0083 -2.3934  2.2048
  584MOL0     H77074   8.560   2.233   3.775  0.5390 -1.8368  1.8216
  584MOL0     H77075   8.679   2.290   3.556 -2.9602 -2.2586 -3.8079
  584MOL0     H77076   9.145   2.046   3.191 -0.2703  0.0712 -2.5270
  584MOL0     H77077   9.154   2.110   2.962  0.1708  0.0241  0.3600
  584MOL0     H77078   9.130   2.322   2.677 -0.2115 -0.8693  0.1763
  584MOL0     H77079   9.197   2.332   2.845  2.6956  1.6851 -1.0256
  584MOL0     H77080   9.012   2.550   2.728 -0.2293  1.5873  2.3018
  584MOL0     H77081   9.090   2.539   2.883  1.1594  2.9908 -0.5752
  584MOL0     H77082   9.229   2.594   2.620  1.5229 -4.2783 -0.4302
  584MOL0     H77083   9.314   2.518   2.753 -2.5214 -1.9714  3.8549
  584MOL0     H77084   9.219   2.722   2.896 -4.1563 -2.0940 -0.8895
  584MOL0     H77085   9.361   2.756   2.784  0.7082 -0.6628 -0.9039
  584MOL0     H77086   9.061   2.954   2.562  3.2244 -3.5723 -3.1014
  584MOL0     H77087   8.859   2.415   3.035  3.4202  3.3917 -0.3233
  584MOL0     H77088   8.864   2.363   3.263 -0.1409  2.0057 -1.4548
  585MOL0     O77089   7.588   9.962   0.316 -0.1703  0.2262 -0.2844
  585MOL0     C77090   7.495  10.039   0.294  0.3962 -0.2415  0.3791
  585MOL0     O77091   7.422  10.044   0.179  0.0741  0.8512 -0.7150
  585MOL0     C77092   7.455   9.963   0.074 -0.3580  0.7402 -0.0424
  585MOL0     C77093   7.474  10.023  -0.049 -0.0061 -0.1482  1.2893
  585MOL0     C77094   7.494   9.950  -0.179 -0.1735  0.6605 -0.0286
  585MOL0     C77095   7.477   9.810  -0.169  0.2909  0.3988 -0.7922
  585MOL0     O77096   7.484   9.715  -0.263  0.9472 -0.1939  0.0906
  585MOL0     C77097   7.485   9.752  -0.401  0.2412 -1.5254 -0.8090
  585MOL0     C77098   7.476   9.625  -0.486  1.1073 -0.4343  0.6302
  585MOL0     C77099   7.329   9.612  -0.549 -0.1930 -0.7961  0.7977
  585MOL0     C77100   7.224   9.603  -0.434  0.3775 -0.3473 -0.4520
  585MOL0     C77101   7.085   9.582  -0.514 -0.5642  1.3418 -0.5435
  585MOL0     C77102   6.988   9.502  -0.429 -0.4432  0.7749 -0.3788
  585MOL0     C77103   6.857   9.476  -0.510  0.8051 -0.1668 -0.2213
  585MOL0     C77104   6.764   9.380  -0.440  0.4985  0.3770 -1.6840
  585MOL0     N77105   6.663   9.334  -0.531 -0.1237  0.7070  0.7488
  585MOL0     C77106   6.582   9.425  -0.591 -0.3969  0.9520 -0.0696
  585MOL0     C77107   6.490   9.352  -0.665 -0.7339 -0.0278 -0.0998
  585MOL0     C77108   6.384   9.413  -0.753  1.8105  0.4019  0.1738
  585MOL0     C77109   6.250   9.330  -0.749  0.6487  0.2652  0.4924
  585MOL0     C77110   6.146   9.423  -0.806 -0.6473 -0.0620  1.0380
  585MOL0     C77111   6.023   9.354  -0.872 -1.2613 -0.5985  0.4172
  585MOL0     O77112   5.942   9.446  -0.932 -0.7715 -0.7717  0.5528
  585MOL0     C77113   5.817   9.409  -0.960  0.5833  0.1233 -0.0623
  585MOL0     C77114   5.760   9.279  -0.940  0.3103  0.2402 -0.7047
  585MOL0     C77115   5.628   9.253  -0.987  0.2728 -0.3788  0.7548
  585MOL0     C77116   5.549   9.342  -1.060  0.4302 -0.0387 -0.5060
  585MOL0     C77117   5.419   9.305  -1.129  0.7472 -1.1299 -0.5383
  585MOL0     O77118   5.347   9.197  -1.076  1.0128 -0.2075  0.0459
  585MOL0     C77119   5.238   9.150  -1.137  0.0241 -0.6159  1.9506
  585MOL0     C77120   5.247   9.041  -1.236  0.2306 -0.7322 -0.0512
  585MOL0     C77121   5.135   9.000  -1.310 -0.3343 -0.1842  0.1450
  585MOL0     C77122   5.019   9.070  -1.296  0.6073 -0.1666  0.3519
  585MOL0     O77123   4.908   9.030  -1.360 -0.7819 -0.2745  0.6428
  585MOL0     C77124   4.882   8.894  -1.349 -0.0018 -0.4635  0.2683
  585MOL0     C77125   4.738   8.864  -1.390 -0.0227  0.2075 -0.3895
  585MOL0     C77126   4.690   8.719  -1.395 -1.0623  0.7310 -0.4930
  585MOL0     C77127   4.584   8.702  -1.501  0.6108 -0.4619  0.3651
  585MOL0     C77128   4.462   8.797  -1.493  0.8358  1.0733 -0.3032
  585MOL0     C77129   4.385   8.789  -1.359 -0.6054 -0.8768  0.1622
  585MOL0     C77130   4.255   8.876  -1.351 -0.7126  0.7377  0.3242
  585MOL0     C77131   4.179   8.832  -1.228  0.2722  0.7903 -0.6051
  585MOL0    Cl77132   4.026   8.928  -1.228 -0.5741 -0.2857  0.2386
  585MOL0     C77133   5.006   9.192  -1.215 -0.3928  0.2054 -0.2044
  585MOL0     C77134   5.122   9.229  -1.136  0.8682 -0.2414  0.6047
  585MOL0     O77135   5.382   9.376  -1.224  0.4404  0.5196 -0.0018
  585MOL0     C77136   5.603   9.468  -1.072 -0.6323  0.5244 -0.9069
  585MOL0     C77137   5.735   9.500  -1.027  0.6117 -0.0078  0.1400
  585MOL0     N77138   6.523   9.217  -0.651  0.7434 -0.5073 -0.0122
  585MOL0     N77139   6.620   9.206  -0.562 -0.1323 -0.1534  0.1059
  585MOL0     C77140   7.448   9.751  -0.043 -0.0030 -0.1970 -0.4844
  585MOL0     C77141   7.432   9.830   0.078  0.3291  0.3901  0.3384
  585MOL0     C77142   7.440  10.108   0.407 -0.1523  0.5740  0.6403
  585MOL0     C77143   7.340  10.206   0.398 -0.1583 -0.0135  0.8135
  585MOL0     C77144   7.300  10.293   0.512 -0.0763  0.7069  0.1295
  585MOL0     C77145   7.351  10.265   0.637  0.0472 -0.1465 -0.2551
  585MOL0     O77146   7.316  10.338   0.750 -0.9867 -0.8379  0.2520
  585MOL0     C77147   7.253  10.465   0.747 -0.9375  0.3151  0.3437
  585MOL0     C77148   7.167  10.498   0.866 -0.5005 -0.3517  0.4418
  585MOL0     C77149   7.128  10.646   0.865  1.5042 -0.3260 -0.5642
  585MOL0     C77150   7.139  10.716   1.010 -0.9683  0.2428 -0.2302
  585MOL0     C77151   7.021  10.663   1.079 -0.3996 -0.4141 -1.3607
  585MOL0     C77152   6.910  10.630   1.113 -0.3405  0.7966  0.8085
  585MOL0     C77153   7.435  10.151   0.650  0.3990 -0.7857 -1.0854
  585MOL0     C77154   7.478  10.078   0.539 -0.3434 -0.4860 -0.2627
  585MOL0     H77155   7.481  10.131  -0.044 -2.4014  0.2655 -1.4359
  585MOL0     H77156   7.520   9.986  -0.277  1.3104  4.2839  1.5021
  585MOL0     H77157   7.572   9.814  -0.427  0.9753 -3.1960 -2.6402
  585MOL0     H77158   7.401   9.819  -0.421  1.0975  1.0516  3.0788
  585MOL0     H77159   7.500   9.533  -0.432 -0.4296 -0.8229  0.7225
  585MOL0     H77160   7.554   9.626  -0.562  1.3556 -5.0581  0.5521
  585MOL0     H77161   7.329   9.529  -0.621  3.2244  0.4287 -0.8079
  585MOL0     H77162   7.311   9.705  -0.603  0.4780  0.1021  2.0798
  585MOL0     H77163   7.241   9.517  -0.370 -1.3375 -0.9543 -0.7635
  585MOL0     H77164   7.226   9.696  -0.376  0.2481  0.1106 -1.1663
  585MOL0     H77165   7.107   9.525  -0.605 -3.0237 -3.8326  1.6515
  585MOL0     H77166   7.035   9.674  -0.543  2.1921  1.9976 -3.8757
  585MOL0     H77167   6.975   9.547  -0.331  1.9046 -0.0836  0.3722
  585MOL0     H77168   7.028   9.403  -0.405  0.0158  1.7913  3.7250
  585MOL0     H77169   6.795   9.565  -0.526 -2.3296 -1.6973  2.2870
  585MOL0     H77170   6.887   9.425  -0.602  1.9381  1.8404 -1.0184
  585MOL0     H77171   6.709   9.439  -0.366  0.2867  1.2373 -2.4948
  585MOL0     H77172   6.824   9.307  -0.386 -0.5220  1.3414  0.9098
  585MOL0     H77173   6.588   9.534  -0.592 -0.3353  0.9497 -0.7297
  585MOL0     H77174   6.421   9.422  -0.855  0.2233  1.1971 -0.3512
  585MOL0     H77175   6.363   9.514  -0.716  4.6725  1.9847 -2.1020
  585MOL0     H77176   6.218   9.311  -0.646  0.7515  1.7501  0.8092
  585MOL0     H77177   6.247   9.239  -0.811 -1.7829  1.6482 -1.6082
  585MOL0     H77178   6.111   9.495  -0.732 -2.9150  2.8919 -2.5939
  585MOL0     H77179   6.196   9.480  -0.884  1.6407 -1.4259  1.4084
  585MOL0     H77180   5.966   9.292  -0.803 -0.4438 -2.6575 -0.6559
  585MOL0     H77181   6.074   9.289  -0.944  1.7280  1.7000  0.2508
  585MOL0     H77182   5.802   9.205  -0.873  0.3878  0.2453 -0.7474
  585MOL0     H77183   5.594   9.151  -0.972 -0.3320 -0.3548 -0.3546
  585MOL0     H77184   5.342   8.988  -1.245  1.9432  2.2337 -0.4885
  585MOL0     H77185   5.148   8.922  -1.385 -1.5471 -3.4331  3.0485
  585MOL0     H77186   4.914   8.859  -1.250 -0.8765  2.7983  1.8557
  585MOL0     H77187   4.943   8.841  -1.423 -1.2521  0.0562 -1.1743
  585MOL0     H77188   4.724   8.908  -1.489 -2.5963 -1.2624 -0.7511
  585MOL0     H77189   4.667   8.912  -1.322  0.9793  1.8456 -0.4450
  585MOL0     H77190   4.660   8.677  -1.298 -2.1078 -2.3558 -2.0252
  585MOL0     H77191   4.779   8.656  -1.401 -1.1845  0.1527  2.2558
  585MOL0     H77192   4.622   8.704  -1.603 -1.1978  0.2809 -0.3307
  585MOL0     H77193   4.557   8.597  -1.486  1.8216 -0.7390  0.7481
  585MOL0     H77194   4.397   8.764  -1.575  0.7101  2.3082 -0.7208
  585MOL0     H77195   4.499   8.897  -1.519  2.1137  0.6592 -0.1489
  585MOL0     H77196   4.457   8.829  -1.287  5.4804 -4.4404 -3.1017
  585MOL0     H77197   4.371   8.684  -1.333  1.3678 -1.0244  0.7705
  585MOL0     H77198   4.291   8.979  -1.343  1.1751  0.1454 -0.0885
  585MOL0     H77199   4.204   8.861  -1.447 -0.0889  0.2458  0.0598
  585MOL0     H77200   4.244   8.870  -1.149  2.6957 -1.4700 -1.3942
  585MOL0     H77201   4.150   8.727  -1.216  0.4253  0.7379 -0.6923
  585MOL0     H77202   4.906   9.234  -1.214 -1.8261 -2.4622 -4.5801
  585MOL0     H77203   5.116   9.318  -1.074  0.5797 -2.6201  4.2977
  585MOL0     H77204   5.543   9.539  -1.130 -1.5130 -0.0405 -0.7125
  585MOL0     H77205   5.759   9.606  -1.035  2.0775 -0.3563 -0.3517
  585MOL0     H77206   7.447   9.643  -0.028  1.5160  0.0852  2.5992
  585MOL0     H77207   7.420   9.784   0.176 -1.6086  0.0542 -0.0229
  585MOL0     H77208   7.299  10.223   0.299  0.4584 -4.2041 -0.3799
  585MOL0     H77209   7.248  10.385   0.484 -0.1122  0.4989 -0.5001
  585MOL0     H77210   7.190  10.477   0.659 -0.7245 -1.4446 -0.0875
  585MOL0     H77211   7.331  10.541   0.736  0.4194 -1.3005 -1.8237
  585MOL0     H77212   7.077  10.441   0.841 -1.6280  0.9770  1.3150
  585MOL0     H77213   7.211  10.476   0.964  3.9320  0.8746 -1.0353
  585MOL0     H77214   7.030  10.670   0.825  1.8846 -0.6322 -1.7250
  585MOL0     H77215   7.201  10.703   0.807  1.0941  1.6728  0.7807
  585MOL0     H77216   7.232  10.681   1.057 -0.8140  0.8076 -0.1071
  585MOL0     H77217   7.160  10.822   0.992  1.5115 -0.0437  0.5805
  585MOL0     H77218   6.813  10.606   1.150 -1.8508  2.0655 -1.9678
  585MOL0     H77219   7.471  10.129   0.750 -3.4842  1.0164  0.9440
  585MOL0     H77220   7.558  10.008   0.561  0.6848  1.2333  1.9019
  586MOL0     O77221  10.916   4.144   8.480 -0.4888 -0.3635  0.9421
  586MOL0     C77222  10.932   4.032   8.435  0.2040 -0.3344  0.3838
  586MOL0     O77223  11.024   3.940   8.479 -0.6755  0.1471 -1.4946
  586MOL0     C77224  11.089   3.982   8.593 -0.0564 -0.0041  0.1020
  586MOL0     C77225  11.033   3.950   8.714  1.1120 -0.2864 -0.1929
  586MOL0     C77226  11.093   3.990   8.835 -0.1266  0.2095  0.5364
  586MOL0     C77227  11.210   4.060   8.823 -0.1201  0.0151 -0.4577
  586MOL0     O77228  11.288   4.072   8.938 -0.6804 -0.6908  0.8018
  586MOL0     C77229  11.265   4.180   9.033  0.3535 -0.0118 -0.0128
  586MOL0     C77230  11.373   4.183   9.131 -0.2341  0.8587  0.6604
  586MOL0     C77231  11.517   4.171   9.078  0.2342  1.2253  0.7634
  586MOL0     C77232  11.630   4.181   9.182  0.4229  0.5401  0.8713
  586MOL0     C77233  11.722   4.057   9.186  0.0763  0.5447  0.1023
  586MOL0     C77234  11.800   4.005   9.060  0.4769  0.0073  0.4268
  586MOL0     C77235  11.854   4.120   8.966 -0.0744 -0.7806 -0.6639
  586MOL0     C77236  11.923   4.050   8.848 -0.4462  2.5103  0.4330
  586MOL0     N77237  11.827   3.985   8.752 -0.6243 -0.0060  0.1130
  586MOL0     C77238  11.784   4.040   8.636  0.2655  0.1614  0.3177
  586MOL0     C77239  11.730   3.938   8.569  0.3658  0.5852 -0.5448
  586MOL0     C77240  11.665   3.956   8.436  0.2608  0.0244  0.1196
  586MOL0     C77241  11.751   4.017   8.324  0.3714  0.2105  0.8631
  586MOL0     C77242  11.658   4.083   8.217 -1.1026  0.0354  0.4316
  586MOL0     C77243  11.738   4.099   8.084 -0.0650  0.5938 -0.1075
  586MOL0     O77244  11.652   4.144   7.976 -0.3336 -0.0228 -0.2558
  586MOL0     C77245  11.613   4.271   8.001  0.6146  0.0582 -0.6235
  586MOL0     C77246  11.701   4.379   8.028 -1.0272 -1.1245  0.2423
  586MOL0     C77247  11.651   4.506   8.039  0.8068 -1.8224  0.1766
  586MOL0     C77248  11.512   4.536   8.051 -0.7571 -0.5142  0.1829
  586MOL0     C77249  11.459   4.667   8.070  0.5899 -0.5143 -0.8817
  586MOL0     O77250  11.327   4.673   8.055  0.4349  0.1843  0.2888
  586MOL0     C77251  11.247   4.789   8.081 -0.5355 -0.0937 -0.8211
  586MOL0     C77252  11.297   4.904   8.155 -0.0724  0.5375 -0.9773
  586MOL0     C77253  11.211   5.005   8.183 -0.3076  0.0475 -0.8270
  586MOL0     C77254  11.072   5.004   8.144 -1.3347  0.1956  0.9224
  586MOL0     O77255  10.997   5.108   8.181 -0.2828 -0.1818  0.6247
  586MOL0     C77256  10.867   5.126   8.126 -0.3381 -0.3858 -1.1115
  586MOL0     C77257  10.814   5.260   8.176 -0.2668  0.2569 -0.6853
  586MOL0     C77258  10.834   5.306   8.330  0.7289  0.0746 -0.6118
  586MOL0     C77259  10.768   5.437   8.363 -0.3374  0.3789  0.0436
  586MOL0     C77260  10.747   5.463   8.515 -0.0366  0.2749 -0.4458
  586MOL0     C77261  10.891   5.464   8.581  0.4244 -0.9803  0.2070
  586MOL0     C77262  10.886   5.502   8.731  0.2808  0.1456  0.0223
  586MOL0     C77263  11.016   5.497   8.803  0.7791 -0.2535 -0.7642
  586MOL0    Cl77264  11.112   5.359   8.772  0.3519  0.2061 -0.7055
  586MOL0     C77265  11.028   4.892   8.077  0.6295 -0.1133  0.8380
  586MOL0     C77266  11.119   4.800   8.025 -0.0910  0.3420 -0.3970
  586MOL0     O77267  11.529   4.757   8.100 -1.0762  0.2914 -0.5966
  586MOL0     C77268  11.427   4.432   8.025  0.4262  0.7425  0.6838
  586MOL0     C77269  11.473   4.304   7.996 -0.3197 -0.0677 -0.2334
  586MOL0     N77270  11.752   3.820   8.643 -0.8195  0.2057  0.3069
  586MOL0     N77271  11.796   3.853   8.758  0.0972  0.2561  0.6268
  586MOL0     C77272  11.269   4.100   8.707  1.1113  0.1854 -1.0305
  586MOL0     C77273  11.205   4.058   8.589 -0.2467  0.0493  0.0390
  586MOL0     C77274  10.856   3.993   8.315  0.0902  0.1318 -0.2920
  586MOL0     C77275  10.757   4.082   8.273  0.2195 -0.1296  0.1056
  586MOL0     C77276  10.679   4.042   8.160 -0.7054 -0.0993 -0.7221
  586MOL0     C77277  10.707   3.921   8.093 -0.3400  0.6381  0.5998
  586MOL0     O77278  10.655   3.917   7.967 -0.2885  0.0070 -0.6880
  586MOL0     C77279  10.601   3.790   7.932  0.9965 -0.2256  0.7095
  586MOL0     C77280  10.684   3.722   7.813  0.7562 -0.0287 -0.9243
  586MOL0     C77281  10.647   3.801   7.693 -0.4692  0.1057 -1.1949
  586MOL0     C77282  10.760   3.794   7.588 -0.5099 -0.2836  0.1142
  586MOL0     C77283  10.767   3.656   7.540  1.3286 -0.4706 -0.4434
  586MOL0     C77284  10.773   3.546   7.505  0.8693 -0.2082 -0.8044
  586MOL0     C77285  10.807   3.842   8.136  0.2350 -0.5286 -0.1794
  586MOL0     C77286  10.874   3.874   8.254 -0.6765  0.1055  0.7789
  586MOL0     H77287  10.943   3.891   8.730  1.2262  0.0218  1.7395
  586MOL0     H77288  11.043   3.955   8.924 -4.5109  0.4440 -1.5304
  586MOL0     H77289  11.171   4.165   9.087  0.8756 -2.3870  0.3292
  586MOL0     H77290  11.259   4.277   8.983  1.6088 -0.3099 -0.7873
  586MOL0     H77291  11.352   4.112   9.212 -0.3679  1.3627  1.0753
  586MOL0     H77292  11.370   4.280   9.181 -0.1772  0.5867  1.2067
  586MOL0     H77293  11.528   4.264   9.021 -0.6260  3.5097  4.0275
  586MOL0     H77294  11.526   4.085   9.010 -0.8967  0.1546  1.9150
  586MOL0     H77295  11.683   4.275   9.166  1.2609 -0.0899 -0.1871
  586MOL0     H77296  11.588   4.191   9.283  2.2642  0.3241  1.7162
  586MOL0     H77297  11.663   3.974   9.225  1.6791 -0.9393 -0.5345
  586MOL0     H77298  11.802   4.077   9.257  0.8794 -2.0660  0.0226
  586MOL0     H77299  11.734   3.942   9.001  4.2475 -1.1012 -3.1083
  586MOL0     H77300  11.885   3.943   9.091  0.8638 -1.9869 -3.9747
  586MOL0     H77301  11.775   4.186   8.929  0.7490  0.0954 -0.9252
  586MOL0     H77302  11.928   4.173   9.027  0.2178 -0.4967 -1.2506
  586MOL0     H77303  11.984   3.971   8.892 -0.7447  0.5843 -2.3776
  586MOL0     H77304  11.991   4.110   8.787  1.7491  0.3156  0.5974
  586MOL0     H77305  11.798   4.140   8.594 -1.3341 -0.8068 -2.9070
  586MOL0     H77306  11.576   4.018   8.453  0.7657 -0.1077  4.3023
  586MOL0     H77307  11.638   3.856   8.400  2.4348 -0.4260 -0.4305
  586MOL0     H77308  11.815   3.942   8.277 -1.5580 -2.8169  2.6744
  586MOL0     H77309  11.806   4.103   8.362  1.1571 -0.0149  0.2615
  586MOL0     H77310  11.559   4.039   8.204 -0.1290 -1.7219 -1.7741
  586MOL0     H77311  11.634   4.182   8.257  2.4705  1.0850  0.3270
  586MOL0     H77312  11.760   3.996   8.055  3.0874  1.5726 -1.5673
  586MOL0     H77313  11.833   4.151   8.088  0.0024  0.5378 -0.8023
  586MOL0     H77314  11.809   4.373   8.027 -0.4300  4.1373 -1.9348
  586MOL0     H77315  11.719   4.587   8.064  1.6378 -2.3074 -0.4726
  586MOL0     H77316  11.394   4.911   8.202  0.4403 -1.8345 -1.5917
  586MOL0     H77317  11.255   5.088   8.237  2.9819 -0.8656 -1.8750
  586MOL0     H77318  10.809   5.040   8.160  2.6834 -1.3343  2.3357
  586MOL0     H77319  10.851   5.131   8.018 -1.0114  1.4286 -0.9590
  586MOL0     H77320  10.706   5.246   8.162 -0.1493 -0.8400 -0.6051
  586MOL0     H77321  10.862   5.336   8.113 -0.4366  0.3634 -0.6862
  586MOL0     H77322  10.942   5.318   8.344  0.8832 -1.4259 -0.3194
  586MOL0     H77323  10.805   5.234   8.406  3.4359  0.4080  0.8691
  586MOL0     H77324  10.825   5.518   8.318 -0.4875 -1.1501 -3.1124
  586MOL0     H77325  10.674   5.442   8.308  0.1841  0.2848 -0.8646
  586MOL0     H77326  10.698   5.373   8.552  0.3362  0.1388 -0.2809
  586MOL0     H77327  10.697   5.556   8.542 -0.4249  0.0661 -0.4339
  586MOL0     H77328  10.955   5.539   8.535 -0.2230  0.5185  1.6443
  586MOL0     H77329  10.947   5.374   8.554  0.9140  0.0730 -2.6353
  586MOL0     H77330  10.855   5.606   8.743  1.8751  0.7883 -1.1131
  586MOL0     H77331  10.814   5.434   8.779 -1.7346  2.8517  1.0842
  586MOL0     H77332  10.993   5.514   8.908  1.2928  1.3233 -0.8842
  586MOL0     H77333  11.074   5.585   8.774 -1.3575  0.8645 -1.9572
  586MOL0     H77334  10.928   4.880   8.034  1.4293 -3.6922 -0.4051
  586MOL0     H77335  11.072   4.730   7.956 -1.2057 -3.0509  3.4147
  586MOL0     H77336  11.320   4.450   8.023  0.2112 -0.3314 -1.9134
  586MOL0     H77337  11.400   4.224   7.992 -0.8522  0.1447  2.7389
  586MOL0     H77338  11.362   4.156   8.712 -0.2161  2.5185  3.2461
  586MOL0     H77339  11.241   4.089   8.491 -0.2508 -1.9283 -0.6188
  586MOL0     H77340  10.743   4.166   8.340 -2.8043 -0.7343  0.3940
  586MOL0     H77341  10.598   4.102   8.121 -0.3532 -0.0899 -1.4443
  586MOL0     H77342  10.496   3.806   7.909  0.6991  1.5503  2.9659
  586MOL0     H77343  10.594   3.727   8.021 -0.4657 -1.1233 -0.0050
  586MOL0     H77344  10.790   3.732   7.836  0.7731 -2.1075  0.1432
  586MOL0     H77345  10.659   3.618   7.790  0.2166  0.3301 -2.0393
  586MOL0     H77346  10.619   3.906   7.710 -3.9465 -0.8910  0.3555
  586MOL0     H77347  10.549   3.758   7.668 -1.4659 -0.4046  2.7784
  586MOL0     H77348  10.731   3.861   7.508  0.9353  0.4140  0.1471
  586MOL0     H77349  10.859   3.818   7.628 -0.1837 -0.7815 -0.3848
  586MOL0     H77350  10.761   3.448   7.465  2.5759 -0.9726  0.4390
  586MOL0     H77351  10.831   3.751   8.082 -2.2940 -0.8512 -0.8767
  586MOL0     H77352  10.956   3.811   8.286 -1.9967 -1.9107  0.3505
  587MOL0     O77353   4.833  11.191   1.522 -0.3764  0.0876  0.3543
  587MOL0     C77354   4.725  11.248   1.523  1.1396  0.2239  0.0594
  587MOL0     O77355   4.676  11.340   1.614  0.1600  0.3480  0.0091
  587MOL0     C77356   4.765  11.364   1.718  0.5036 -0.0630 -0.1843
  587MOL0     C77357   4.725  11.320   1.846  0.6943 -0.6925  0.7460
  587MOL0     C77358   4.791  11.362   1.967  1.2247 -0.7392  0.3214
  587MOL0     C77359   4.882  11.463   1.955  0.1420  0.5094  0.6194
  587MOL0     O77360   4.942  11.522   2.068 -0.1975 -0.0847  0.0893
  587MOL0     C77361   4.905  11.463   2.192  0.1955  0.9992  0.0398
  587MOL0     C77362   4.978  11.539   2.307 -0.2171 -0.0754  1.4597
  587MOL0     C77363   5.135  11.550   2.290  0.3837 -0.3527 -0.2715
  587MOL0     C77364   5.212  11.609   2.407 -0.7075 -0.7978  0.1743
  587MOL0     C77365   5.157  11.757   2.446 -0.2709 -0.7079 -0.3373
  587MOL0     C77366   5.049  11.771   2.560 -0.2173  0.0677 -0.3519
  587MOL0     C77367   5.084  11.684   2.690 -0.3767  0.1600  0.3180
  587MOL0     C77368   5.000  11.730   2.810 -1.0462 -0.5972 -0.6493
  587MOL0     N77369   4.882  11.657   2.833  0.2276 -0.2026 -0.0638
  587MOL0     C77370   4.870  11.520   2.812  1.2621 -0.6760  0.3449
  587MOL0     C77371   4.740  11.491   2.787 -0.3297 -1.5165 -0.6827
  587MOL0     C77372   4.702  11.350   2.778  0.5163  0.5079  0.3855
  587MOL0     C77373   4.600  11.326   2.662 -0.0768  0.0193 -0.3599
  587MOL0     C77374   4.630  11.402   2.531  0.5219  0.2969 -0.4758
  587MOL0     C77375   4.536  11.343   2.419 -0.1069 -0.9269  0.0047
  587MOL0     O77376   4.604  11.218   2.388 -0.1003  0.2922  0.7672
  587MOL0     C77377   4.546  11.140   2.288  0.4188  0.1757  0.4552
  587MOL0     C77378   4.631  11.074   2.197  0.0432  0.0307  0.8376
  587MOL0     C77379   4.584  11.008   2.086  0.2475 -0.4919 -0.8114
  587MOL0     C77380   4.450  10.971   2.081  0.4752  1.2595  0.0260
  587MOL0     C77381   4.400  10.879   1.972 -0.0511 -0.1962 -0.3379
  587MOL0     O77382   4.482  10.846   1.874 -0.5213  0.3369 -0.4132
  587MOL0     C77383   4.442  10.763   1.777 -0.1931 -0.6805  0.2135
  587MOL0     C77384   4.486  10.635   1.768  0.5511 -0.5966  0.4126
  587MOL0     C77385   4.486  10.561   1.647  0.9522 -0.6784 -0.2373
  587MOL0     C77386   4.432  10.621   1.532 -1.3898  0.9176  0.3056
  587MOL0     O77387   4.419  10.550   1.415  0.1699 -0.6547 -0.3561
  587MOL0     C77388   4.502  10.438   1.372  0.0947  0.1854  0.4195
  587MOL0     C77389   4.547  10.459   1.228  0.2071  0.7449  0.3622
  587MOL0     C77390   4.641  10.575   1.219  0.1668 -0.5870  0.1118
  587MOL0     C77391   4.741  10.557   1.102 -0.5475  0.7112  0.3949
  587MOL0     C77392   4.831  10.678   1.095  0.0936  0.8182 -0.2489
  587MOL0     C77393   4.926  10.681   0.982 -0.3487  0.7388  0.3587
  587MOL0     C77394   4.992  10.815   0.991 -0.4181 -0.2201 -0.2945
  587MOL0     C77395   4.904  10.933   0.953  0.5305  0.3478  0.1425
  587MOL0    Cl77396   4.834  11.000   1.096  0.0155 -0.4983 -0.6651
  587MOL0     C77397   4.372  10.746   1.549  0.2291  0.8587  1.0978
  587MOL0     C77398   4.383  10.825   1.667  0.4875  0.0457 -0.8368
  587MOL0     O77399   4.288  10.821   1.996 -0.7665  0.0887 -0.0563
  587MOL0     C77400   4.359  11.030   2.178 -0.7873  0.1714 -0.2975
  587MOL0     C77401   4.410  11.113   2.283  0.6310 -0.6217  0.0953
  587MOL0     N77402   4.675  11.611   2.805  0.1719  0.3407  0.6382
  587MOL0     N77403   4.759  11.705   2.831  0.0764  0.0617 -0.1398
  587MOL0     C77404   4.920  11.518   1.831  0.0056 -0.3857 -0.4947
  587MOL0     C77405   4.855  11.470   1.712 -0.5265 -1.0617  0.1762
  587MOL0     C77406   4.629  11.198   1.413 -0.5336 -0.2202  0.2431
  587MOL0     C77407   4.527  11.283   1.369 -0.5076  0.6314  1.2355
  587MOL0     C77408   4.451  11.235   1.259 -0.0832  0.2040  0.2193
  587MOL0     C77409   4.467  11.109   1.208 -0.1773  0.2444  0.2076
  587MOL0     O77410   4.392  11.056   1.106  0.3962  0.0649  0.1062
  587MOL0     C77411   4.262  11.103   1.071 -0.0768  0.2711  0.0516
  587MOL0     C77412   4.242  11.096   0.913  0.6758  1.5646 -0.2649
  587MOL0     C77413   4.115  11.024   0.872 -1.0586  0.1741 -0.6385
  587MOL0     C77414   4.079  11.019   0.715  1.0169  0.2571  0.9497
  587MOL0     C77415   3.986  10.906   0.678  0.2091 -0.6634  0.4228
  587MOL0     C77416   3.925  10.800   0.663 -0.7325 -0.6159  0.1029
  587MOL0     C77417   4.546  11.030   1.274 -0.4177  0.3369  0.7327
  587MOL0     C77418   4.635  11.070   1.369  1.1450  0.8404 -0.6293
  587MOL0     H77419   4.647  11.245   1.857 -1.3941  1.2059 -0.4661
  587MOL0     H77420   4.751  11.317   2.057 -3.3751 -1.9873 -2.0217
  587MOL0     H77421   4.934  11.358   2.193 -0.4044  0.6266  5.3194
  587MOL0     H77422   4.797  11.472   2.209  0.3552  0.3108  1.5778
  587MOL0     H77423   4.953  11.488   2.400 -1.3695  0.3367  1.3910
  587MOL0     H77424   4.932  11.638   2.319 -0.7601 -0.5663  4.0967
  587MOL0     H77425   5.156  11.616   2.205  0.3187  1.5648  1.1459
  587MOL0     H77426   5.191  11.456   2.286  0.2003 -0.5886  1.8470
  587MOL0     H77427   5.214  11.542   2.494 -0.0233 -1.6658 -0.4922
  587MOL0     H77428   5.318  11.616   2.382 -0.4623 -2.7239  0.5181
  587MOL0     H77429   5.125  11.816   2.359 -0.7129  0.7029  0.7525
  587MOL0     H77430   5.251  11.802   2.478  0.5266 -1.4214 -1.5942
  587MOL0     H77431   4.946  11.764   2.525 -0.0812 -0.5785 -0.6399
  587MOL0     H77432   5.063  11.874   2.594  1.5620 -0.2501  0.0102
  587MOL0     H77433   5.072  11.577   2.676  1.1425 -0.1022  0.8806
  587MOL0     H77434   5.190  11.703   2.708 -0.3730  0.7278 -0.2723
  587MOL0     H77435   4.980  11.837   2.800 -2.1000 -0.4627  1.9724
  587MOL0     H77436   5.060  11.718   2.901 -1.4395  3.0341  0.2580
  587MOL0     H77437   4.947  11.444   2.800  1.8247 -0.0501 -0.0945
  587MOL0     H77438   4.658  11.315   2.872 -0.5718  2.2180  0.5645
  587MOL0     H77439   4.782  11.283   2.748 -1.8395 -1.2241 -2.5561
  587MOL0     H77440   4.501  11.355   2.697  0.8657  3.3569 -0.0882
  587MOL0     H77441   4.600  11.219   2.643 -2.2321 -0.2105  0.6555
  587MOL0     H77442   4.601  11.506   2.548  0.7970  0.2754  0.1442
  587MOL0     H77443   4.737  11.401   2.511  0.6530  4.2857 -0.7024
  587MOL0     H77444   4.525  11.411   2.333  0.7333 -0.8281 -0.0399
  587MOL0     H77445   4.435  11.320   2.455  0.4314 -0.0501  2.2284
  587MOL0     H77446   4.737  11.086   2.219  0.4128 -1.2948 -0.0985
  587MOL0     H77447   4.655  10.992   2.005  1.8497  3.6797 -0.5023
  587MOL0     H77448   4.535  10.609   1.861 -0.6729 -0.3076  1.1656
  587MOL0     H77449   4.519  10.458   1.643 -1.6246 -1.7247  2.4088
  587MOL0     H77450   4.452  10.342   1.390  0.8202 -1.0220 -3.1590
  587MOL0     H77451   4.592  10.436   1.434  0.2242 -0.1905  0.2253
  587MOL0     H77452   4.462  10.468   1.159  3.3597 -0.3611 -4.1806
  587MOL0     H77453   4.601  10.370   1.194 -1.0448  0.3176 -0.5695
  587MOL0     H77454   4.694  10.580   1.315 -2.3189 -2.6417  1.7571
  587MOL0     H77455   4.576  10.663   1.214 -2.0489 -1.9138  2.4518
  587MOL0     H77456   4.807  10.471   1.106  1.3633  2.1219  4.5333
  587MOL0     H77457   4.686  10.555   1.007  0.0859 -4.3052 -0.1341
  587MOL0     H77458   4.891  10.680   1.186 -0.3301  0.4886  0.0378
  587MOL0     H77459   4.766  10.766   1.105 -1.0350 -0.1728  1.9520
  587MOL0     H77460   4.892  10.661   0.880  0.5413  1.0614 -0.0135
  587MOL0     H77461   4.977  10.587   1.003 -1.4907 -0.3939 -1.6110
  587MOL0     H77462   5.034  10.840   1.088  1.1770  2.8010 -1.6068
  587MOL0     H77463   5.074  10.815   0.919  0.9263  0.4022  1.2100
  587MOL0     H77464   4.824  10.903   0.885  2.2443  1.1514 -2.3868
  587MOL0     H77465   4.959  11.007   0.894  0.5593 -2.5491 -3.8030
  587MOL0     H77466   4.326  10.793   1.463  0.1373 -1.8510 -0.4467
  587MOL0     H77467   4.339  10.923   1.674 -1.5323 -0.6130 -2.9932
  587MOL0     H77468   4.253  11.005   2.173 -0.9606  0.9489 -0.6613
  587MOL0     H77469   4.340  11.164   2.349 -0.8064  0.2838 -2.0261
  587MOL0     H77470   4.993  11.598   1.838 -0.5407 -0.0451  2.0545
  587MOL0     H77471   4.878  11.528   1.624  1.4568  0.2986  1.5067
  587MOL0     H77472   4.511  11.387   1.395 -0.5915  0.7889  0.5760
  587MOL0     H77473   4.384  11.305   1.209  1.7011  0.2350 -2.3388
  587MOL0     H77474   4.254  11.207   1.104 -2.4152  0.8957 -2.1106
  587MOL0     H77475   4.187  11.050   1.131  1.6200 -0.9919  1.1576
  587MOL0     H77476   4.241  11.199   0.876  1.1991  2.1549  1.3068
  587MOL0     H77477   4.315  11.037   0.855  1.1709  1.0742  0.8344
  587MOL0     H77478   4.034  11.056   0.940 -0.4463  1.4439 -0.4811
  587MOL0     H77479   4.144  10.926   0.909  2.8576  1.4653  0.1324
  587MOL0     H77480   4.026  11.112   0.692 -0.5880 -1.3904 -2.9278
  587MOL0     H77481   4.173  11.005   0.661  1.5939 -3.6516  2.6417
  587MOL0     H77482   3.885  10.701   0.658  6.0528 -3.8862 -0.6169
  587MOL0     H77483   4.555  10.929   1.233 -1.6919  0.7103 -0.5418
  587MOL0     H77484   4.709  10.995   1.397  0.7052  1.1129  1.4320
  588MOL0     O77485   9.991   6.488   4.393 -0.2035 -0.6479 -0.1278
  588MOL0     C77486   9.934   6.523   4.297 -0.4251  1.0194  0.0995
  588MOL0     O77487   9.906   6.655   4.252 -0.0301 -0.0850 -0.2584
  588MOL0     C77488   9.933   6.766   4.326 -0.2335  0.3253  0.2505
  588MOL0     C77489   9.886   6.797   4.456  0.1810  0.2637 -1.0220
  588MOL0     C77490   9.935   6.897   4.534 -0.2218  0.2220 -0.9316
  588MOL0     C77491  10.015   7.001   4.472 -0.6354 -0.0713  0.3192
  588MOL0     O77492  10.020   7.127   4.531 -0.4850 -0.2716 -0.9143
  588MOL0     C77493  10.042   7.243   4.463 -0.2650  0.2321  0.5810
  588MOL0     C77494  10.022   7.370   4.550  1.1509  0.1512  0.2742
  588MOL0     C77495  10.100   7.361   4.675 -0.1657 -0.6481 -0.5562
  588MOL0     C77496  10.091   7.484   4.767 -0.1315  0.3356  0.6478
  588MOL0     C77497  10.163   7.440   4.889 -1.1840 -0.2062 -0.0636
  588MOL0     C77498  10.320   7.449   4.888  0.1583 -0.4603  0.5038
  588MOL0     C77499  10.394   7.456   5.016  0.6942  0.5471 -0.3452
  588MOL0     C77500  10.543   7.476   4.979 -0.3318 -0.1044  0.4969
  588MOL0     N77501  10.590   7.616   4.970  0.0109 -0.7885  0.3875
  588MOL0     C77502  10.604   7.690   5.077 -0.0387  0.1263 -0.3144
  588MOL0     C77503  10.629   7.816   5.036 -0.7569 -0.3689  1.0116
  588MOL0     C77504  10.652   7.931   5.125 -0.8397 -0.0564 -0.7390
  588MOL0     C77505  10.799   7.949   5.167  1.2312  0.9736 -1.0738
  588MOL0     C77506  10.830   7.831   5.266 -0.2242  0.4990 -0.7747
  588MOL0     C77507  10.776   7.835   5.412 -0.4458  0.2155  0.7609
  588MOL0     O77508  10.641   7.782   5.421 -0.9039 -0.2361  0.3159
  588MOL0     C77509  10.579   7.786   5.545 -0.2035  0.6395 -0.1172
  588MOL0     C77510  10.644   7.809   5.661 -0.4192 -1.2133 -0.8118
  588MOL0     C77511  10.583   7.821   5.788  0.9290 -0.2165  0.4531
  588MOL0     C77512  10.443   7.799   5.790 -0.9459  1.7854  0.3090
  588MOL0     C77513  10.369   7.809   5.920 -0.1702  1.1360 -0.1660
  588MOL0     O77514  10.452   7.828   6.037  0.7082  0.8252  0.1662
  588MOL0     C77515  10.393   7.836   6.159 -0.3404 -0.8075  0.9436
  588MOL0     C77516  10.305   7.738   6.206 -0.1578  0.3526 -0.1079
  588MOL0     C77517  10.239   7.763   6.333 -0.0058 -0.8245  0.0165
  588MOL0     C77518  10.258   7.877   6.407 -0.0624 -0.1979 -0.1604
  588MOL0     O77519  10.196   7.893   6.532 -0.2702  0.0310  0.8932
  588MOL0     C77520  10.211   8.023   6.600  0.7648  0.3045  0.9264
  588MOL0     C77521  10.135   8.011   6.728 -0.1769 -0.2362  0.3057
  588MOL0     C77522   9.985   7.993   6.714  0.6920 -0.6511 -0.9690
  588MOL0     C77523   9.924   8.136   6.729 -0.4993  0.3083 -0.2936
  588MOL0     C77524   9.778   8.147   6.683  0.3261 -0.0682  0.8317
  588MOL0     C77525   9.714   8.286   6.703  0.5880  0.3447  0.1563
  588MOL0     C77526   9.568   8.298   6.647  0.0476 -0.3522 -0.9897
  588MOL0     C77527   9.501   8.429   6.690 -1.0083 -0.9085 -0.0154
  588MOL0    Cl77528   9.489   8.445   6.862  0.1461 -0.1527  0.1320
  588MOL0     C77529  10.329   7.983   6.350  0.0757  1.1859  0.6610
  588MOL0     C77530  10.404   7.962   6.231 -0.6782  0.2749  0.3559
  588MOL0     O77531  10.246   7.797   5.927  0.4330 -0.3106 -0.2495
  588MOL0     C77532  10.380   7.769   5.668  0.5820 -0.5867 -0.3354
  588MOL0     C77533  10.443   7.769   5.550 -0.4490  1.0556  0.6230
  588MOL0     N77534  10.640   7.808   4.902 -1.0425 -0.0175  0.1658
  588MOL0     N77535  10.616   7.687   4.859 -0.3173  0.3418 -0.9322
  588MOL0     C77536  10.064   6.974   4.343  0.1229 -0.0759  0.0818
  588MOL0     C77537  10.033   6.860   4.272  0.0985  0.8332  0.1636
  588MOL0     C77538   9.918   6.408   4.191  0.4880 -0.6610  0.1521
  588MOL0     C77539   9.832   6.428   4.082  0.3013 -0.4840 -0.0244
  588MOL0     C77540   9.813   6.331   3.988 -0.2861  0.6224  1.0282
  588MOL0     C77541   9.871   6.200   3.999 -0.1382 -0.8220  0.3798
  588MOL0     O77542   9.839   6.103   3.907  0.6205 -0.0584  0.5259
  588MOL0     C77543   9.852   5.963   3.937 -0.4188  1.1137 -0.2008
  588MOL0     C77544   9.741   5.883   3.879  0.0267  0.6052 -0.4194
  588MOL0     C77545   9.604   5.931   3.929  0.2982  0.3042 -0.9470
  588MOL0     C77546   9.492   5.867   3.852 -0.6369 -1.2436 -0.1375
  588MOL0     C77547   9.364   5.883   3.918  0.1319 -0.8932 -0.4875
  588MOL0     C77548   9.246   5.901   3.961 -0.1033 -0.0319  0.3575
  588MOL0     C77549   9.948   6.181   4.108 -0.6173  0.2171 -0.6263
  588MOL0     C77550   9.969   6.278   4.208  0.2024  0.0102 -0.5541
  588MOL0     H77551   9.814   6.723   4.490  2.8552 -3.0185 -1.9209
  588MOL0     H77552   9.895   6.924   4.631  1.2467 -2.7845  0.6259
  588MOL0     H77553   9.980   7.251   4.373  2.9529 -1.1923 -1.9846
  588MOL0     H77554  10.147   7.248   4.432 -0.7712  0.5098 -1.1686
  588MOL0     H77555   9.915   7.383   4.571  0.9483 -0.3164 -0.4593
  588MOL0     H77556  10.054   7.458   4.494  0.1628  0.6903  0.5274
  588MOL0     H77557  10.202   7.334   4.649 -0.3730 -0.9514 -1.0608
  588MOL0     H77558  10.053   7.273   4.719 -3.5367 -0.2887 -3.0608
  588MOL0     H77559  10.129   7.575   4.721 -3.7044  2.3729  1.3944
  588MOL0     H77560   9.988   7.507   4.795 -0.3040 -0.1800  0.4621
  588MOL0     H77561  10.119   7.351   4.936 -3.7401 -0.5336 -2.7549
  588MOL0     H77562  10.137   7.517   4.963 -5.2693 -0.0218 -1.4192
  588MOL0     H77563  10.345   7.538   4.829 -1.0930 -1.2460 -1.2786
  588MOL0     H77564  10.354   7.361   4.833  1.5035  0.0511  0.4706
  588MOL0     H77565  10.358   7.537   5.081 -0.9981 -1.7651  1.7759
  588MOL0     H77566  10.371   7.372   5.083 -1.4405 -0.1080 -1.7971
  588MOL0     H77567  10.574   7.427   4.886 -0.5135 -0.0182  0.3896
  588MOL0     H77568  10.614   7.445   5.057 -0.8375  1.5307  1.6686
  588MOL0     H77569  10.590   7.672   5.183 -0.5155  0.4989 -0.3046
  588MOL0     H77570  10.584   7.915   5.209 -1.3159 -4.2654 -1.6980
  588MOL0     H77571  10.637   8.024   5.069 -1.0978  0.9442  0.9256
  588MOL0     H77572  10.815   8.045   5.218  3.2483 -0.8210  2.0027
  588MOL0     H77573  10.870   7.942   5.084  1.8732 -2.1569 -0.3581
  588MOL0     H77574  10.806   7.733   5.224 -0.1331  0.5301 -0.8990
  588MOL0     H77575  10.938   7.826   5.286 -0.4580  2.4734  1.4500
  588MOL0     H77576  10.798   7.934   5.452 -0.9122  0.4237  0.5179
  588MOL0     H77577  10.837   7.766   5.471  0.2815  0.2039  0.0201
  588MOL0     H77578  10.747   7.840   5.670 -0.7627 -0.6187  1.8499
  588MOL0     H77579  10.642   7.854   5.873  2.9774  0.9351 -1.2987
  588MOL0     H77580  10.283   7.648   6.150 -1.5493 -0.4714  1.6747
  588MOL0     H77581  10.173   7.688   6.375  0.5067 -0.5990  1.2661
  588MOL0     H77582  10.163   8.105   6.546 -2.2184 -1.5779  0.4022
  588MOL0     H77583  10.314   8.053   6.616  0.4183  0.5323  3.0507
  588MOL0     H77584  10.151   8.095   6.796  0.2774 -0.4487  0.4649
  588MOL0     H77585  10.176   7.926   6.783  1.0542 -0.2280 -0.5798
  588MOL0     H77586   9.954   7.922   6.791  3.3649 -2.1564 -1.1232
  588MOL0     H77587   9.965   7.951   6.615  1.0918 -0.0353 -1.3207
  588MOL0     H77588   9.932   8.179   6.829 -2.2957  0.8063 -0.3370
  588MOL0     H77589   9.985   8.199   6.663  2.8777 -0.2896  1.9899
  588MOL0     H77590   9.720   8.069   6.733  2.7841 -2.9586 -0.5078
  588MOL0     H77591   9.772   8.111   6.580 -0.8758  0.7992  0.5865
  588MOL0     H77592   9.776   8.356   6.647 -3.7773  4.5354 -0.1032
  588MOL0     H77593   9.714   8.321   6.807  1.5924  2.0867 -0.3779
  588MOL0     H77594   9.566   8.287   6.539  0.5531  4.6190 -1.7625
  588MOL0     H77595   9.513   8.218   6.697  0.8971  0.7776  1.9764
  588MOL0     H77596   9.402   8.436   6.644 -0.0128 -1.6111 -2.3945
  588MOL0     H77597   9.555   8.515   6.650  0.6472 -1.3189  1.2547
  588MOL0     H77598  10.332   8.084   6.390  0.6848  1.5980 -0.3782
  588MOL0     H77599  10.463   8.042   6.187 -0.1516 -0.3359 -0.0772
  588MOL0     H77600  10.272   7.766   5.678  0.4066  0.7873 -1.3762
  588MOL0     H77601  10.396   7.748   5.455 -0.5530  2.4413  0.3472
  588MOL0     H77602  10.135   7.037   4.290  1.2432 -0.6904  0.8160
  588MOL0     H77603  10.074   6.846   4.172  1.0913  3.0259  0.2217
  588MOL0     H77604   9.768   6.515   4.066 -0.4949 -0.9434  0.5387
  588MOL0     H77605   9.753   6.345   3.899  2.0995 -1.9831 -1.2065
  588MOL0     H77606   9.836   5.938   4.043  0.1224 -0.6689 -0.5069
  588MOL0     H77607   9.953   5.930   3.911 -0.6450 -0.0327  0.3091
  588MOL0     H77608   9.749   5.880   3.770  0.3791 -1.9725 -0.3655
  588MOL0     H77609   9.775   5.783   3.907  3.4173  2.0947  1.4797
  588MOL0     H77610   9.595   6.040   3.921 -0.1316  0.2801 -0.8171
  588MOL0     H77611   9.617   5.894   4.032  0.3098  0.1464 -1.0051
  588MOL0     H77612   9.490   5.918   3.755  1.0278  1.7178  1.2413
  588MOL0     H77613   9.500   5.759   3.840  0.9102 -1.1064 -0.6004
  588MOL0     H77614   9.148   5.907   4.003  0.5793  2.3912  1.8679
  588MOL0     H77615  10.003   6.088   4.119  4.5663  2.8540 -1.3655
  588MOL0     H77616  10.028   6.248   4.293 -0.4727 -2.5425 -0.8926
  589MOL0     O77617  10.787   3.529  10.831 -0.0234 -0.4424  0.5326
  589MOL0     C77618  10.834   3.570  10.938  0.6727 -0.2821  0.0728
  589MOL0     O77619  10.964   3.578  10.978  0.2137 -0.4804 -0.6860
  589MOL0     C77620  11.077   3.535  10.918  0.3005  1.3732  0.2373
  589MOL0     C77621  11.183   3.533  11.008 -0.8799 -0.5728  0.4429
  589MOL0     C77622  11.310   3.500  10.944  0.3411 -0.7922  0.4259
  589MOL0     C77623  11.329   3.476  10.809  0.3671  0.7878 -0.2768
  589MOL0     O77624  11.454   3.438  10.780  0.6040 -0.0282  0.0318
  589MOL0     C77625  11.485   3.341  10.674  0.2573 -0.3266  0.5743
  589MOL0     C77626  11.627   3.284  10.684  0.0765 -0.4504 -0.3884
  589MOL0     C77627  11.710   3.350  10.569 -0.4205 -0.5448  0.3043
  589MOL0     C77628  11.655   3.333  10.426  0.5455 -0.2385  0.1296
  589MOL0     C77629  11.765   3.377  10.329 -0.3508  0.8066 -0.0187
  589MOL0     C77630  11.717   3.400  10.186  0.6954 -0.1346 -0.4420
  589MOL0     C77631  11.824   3.398  10.080 -0.5761 -0.3978  0.0688
  589MOL0     C77632  11.760   3.378   9.950 -0.2924  0.7636  0.6267
  589MOL0     N77633  11.859   3.364   9.847 -0.2210  0.0909  0.4008
  589MOL0     C77634  11.915   3.244   9.814  0.2527  0.0066 -0.1959
  589MOL0     C77635  12.003   3.274   9.711 -0.0563 -0.5425  0.4037
  589MOL0     C77636  12.092   3.178   9.629 -0.2507 -0.0706  0.2133
  589MOL0     C77637  12.100   3.224   9.482 -0.1095 -0.7498 -0.8108
  589MOL0     C77638  12.224   3.176   9.410 -0.8055  1.0133 -0.1389
  589MOL0     C77639  12.267   3.259   9.292  0.0701 -0.2422  0.1106
  589MOL0     O77640  12.374   3.197   9.224 -0.1470  0.4577 -0.4218
  589MOL0     C77641  12.435   3.263   9.117 -0.2461  0.5948  0.2394
  589MOL0     C77642  12.569   3.223   9.084  0.2183  0.8950  0.4389
  589MOL0     C77643  12.623   3.262   8.960 -0.3594 -0.0173  0.2158
  589MOL0     C77644  12.548   3.325   8.858  0.0131 -0.5820 -0.4925
  589MOL0     C77645  12.612   3.372   8.731 -0.1455  0.2405 -0.3625
  589MOL0     O77646  12.524   3.401   8.624 -0.8050  0.2185 -0.2244
  589MOL0     C77647  12.567   3.453   8.502 -0.2555  0.1076  0.0298
  589MOL0     C77648  12.489   3.545   8.436 -0.4150 -0.3895 -0.1561
  589MOL0     C77649  12.511   3.589   8.309  0.2221 -0.4368  0.3686
  589MOL0     C77650  12.621   3.544   8.239 -1.6110  0.6464 -1.8627
  589MOL0     O77651  12.634   3.580   8.103 -0.6659  0.5521  0.0730
  589MOL0     C77652  12.667   3.476   8.011  0.1459 -0.3428  1.6476
  589MOL0     C77653  12.571   3.502   7.893  0.1589 -0.7746 -0.9927
  589MOL0     C77654  12.599   3.394   7.777  0.9414 -0.2005  0.0914
  589MOL0     C77655  12.517   3.416   7.650 -0.0968 -0.1189  1.5789
  589MOL0     C77656  12.530   3.294   7.552  0.3938  0.2877  0.0536
  589MOL0     C77657  12.435   3.308   7.423 -0.9109  0.2234  0.1558
  589MOL0     C77658  12.477   3.218   7.316 -0.5863  0.0056 -0.6801
  589MOL0     C77659  12.366   3.188   7.226  0.1157 -0.5378  0.6805
  589MOL0    Cl77660  12.384   3.321   7.109  0.0570  0.3275  0.1574
  589MOL0     C77661  12.706   3.447   8.306 -0.0793  0.2379  0.6498
  589MOL0     C77662  12.680   3.404   8.435  0.2266 -0.1971  0.3956
  589MOL0     O77663  12.735   3.388   8.732 -0.2305 -0.2528 -0.2864
  589MOL0     C77664  12.417   3.361   8.892  0.2856  0.5091 -0.1317
  589MOL0     C77665  12.357   3.331   9.016 -0.3172  0.1548 -0.4973
  589MOL0     N77666  12.009   3.409   9.702  0.0082 -0.6342  0.3289
  589MOL0     N77667  11.922   3.465   9.776  0.1945 -0.0218  0.2726
  589MOL0     C77668  11.213   3.454  10.734  0.1177  0.4187 -0.5752
  589MOL0     C77669  11.085   3.475  10.791 -0.3130 -0.0931  0.1406
  589MOL0     C77670  10.726   3.620  11.036 -0.5372 -0.4706 -0.4730
  589MOL0     C77671  10.596   3.612  11.011 -0.1022  0.2082 -1.4208
  589MOL0     C77672  10.500   3.656  11.101 -0.3429  0.9912  0.4385
  589MOL0     C77673  10.539   3.710  11.223 -0.8650 -0.0924 -0.6660
  589MOL0     O77674  10.446   3.746  11.321  0.2695 -0.2395 -0.1720
  589MOL0     C77675  10.484   3.805  11.448 -0.0999 -0.0002 -0.1859
  589MOL0     C77676  10.519   3.959  11.448  0.8199 -0.8134  0.5869
  589MOL0     C77677  10.394   4.048  11.457 -0.2227 -0.1009  0.0313
  589MOL0     C77678  10.419   4.175  11.372  0.5069 -0.6680  0.6703
  589MOL0     C77679  10.416   4.137  11.226  0.6168  0.1169  0.1426
  589MOL0     C77680  10.418   4.106  11.108  0.6587  1.1162  0.2949
  589MOL0     C77681  10.676   3.722  11.249  0.7232 -0.1714 -0.4511
  589MOL0     C77682  10.771   3.671  11.162 -0.6424  0.0078 -0.9356
  589MOL0     H77683  11.182   3.560  11.113  4.5690 -3.1344  1.4790
  589MOL0     H77684  11.394   3.487  11.012  1.8530 -2.4891 -1.6283
  589MOL0     H77685  11.472   3.390  10.577 -1.1715  0.6573  1.2286
  589MOL0     H77686  11.407   3.266  10.690 -1.1383  0.7625 -0.8590
  589MOL0     H77687  11.624   3.175  10.675 -0.5454 -0.4826  0.1079
  589MOL0     H77688  11.662   3.311  10.784  0.2594 -1.3052 -0.2112
  589MOL0     H77689  11.811   3.309  10.568  1.3497  3.3366 -0.9683
  589MOL0     H77690  11.717   3.456  10.595  0.1778 -1.0308  2.3046
  589MOL0     H77691  11.629   3.228  10.409 -0.1191  0.3018 -2.8887
  589MOL0     H77692  11.564   3.386  10.394  1.9333  0.9593 -2.0777
  589MOL0     H77693  11.845   3.302  10.320 -0.1651  0.7531  1.8025
  589MOL0     H77694  11.809   3.470  10.366 -0.3837  0.6166  0.4998
  589MOL0     H77695  11.670   3.499  10.180 -0.1299 -0.4592  0.5276
  589MOL0     H77696  11.638   3.330  10.159  1.2605 -1.6051  1.5292
  589MOL0     H77697  11.865   3.499  10.085 -0.4375 -0.3682 -1.3493
  589MOL0     H77698  11.899   3.323  10.106 -1.1325  0.0802  3.5304
  589MOL0     H77699  11.696   3.462   9.921 -1.0677 -0.1731 -0.5290
  589MOL0     H77700  11.704   3.283   9.953 -0.1298  0.5056 -2.0734
  589MOL0     H77701  11.898   3.146   9.857  1.1558  0.3545  1.0074
  589MOL0     H77702  12.039   3.083   9.629 -2.5030  1.1239  0.7692
  589MOL0     H77703  12.194   3.173   9.669  0.0917  1.0582 -0.4743
  589MOL0     H77704  12.102   3.334   9.482  1.0959 -0.7297  0.8693
  589MOL0     H77705  12.010   3.187   9.432  1.7268 -1.9704 -3.4610
  589MOL0     H77706  12.315   3.177   9.470 -1.1175  0.4670  0.3477
  589MOL0     H77707  12.200   3.076   9.372 -1.8656  0.3997  2.0018
  589MOL0     H77708  12.288   3.361   9.327 -1.4623 -0.2447  1.1558
  589MOL0     H77709  12.186   3.264   9.218  0.3223 -0.6309 -0.1966
  589MOL0     H77710  12.615   3.157   9.157  0.6761  1.3218  0.5465
  589MOL0     H77711  12.728   3.248   8.935  0.0658  2.2316  0.5297
  589MOL0     H77712  12.417   3.594   8.500  1.9012  2.4786  0.4266
  589MOL0     H77713  12.433   3.648   8.262  0.5080  0.3695  0.8929
  589MOL0     H77714  12.648   3.380   8.060  1.1720 -1.4510 -0.0156
  589MOL0     H77715  12.771   3.488   7.979 -0.2470  1.0901  0.8260
  589MOL0     H77716  12.584   3.605   7.857 -0.9785  0.3647  1.5444
  589MOL0     H77717  12.471   3.490   7.936  0.8909 -0.9845  0.7382
  589MOL0     H77718  12.582   3.293   7.814 -2.7873  0.3524  0.2042
  589MOL0     H77719  12.706   3.395   7.755  0.8922 -0.4221 -0.1487
  589MOL0     H77720  12.411   3.423   7.677 -0.3357 -0.4033  0.7446
  589MOL0     H77721  12.554   3.503   7.595  1.7768 -1.0854  1.2370
  589MOL0     H77722  12.507   3.206   7.612 -4.0695  0.1070 -1.5458
  589MOL0     H77723  12.631   3.280   7.513  2.7203  3.9669  3.9481
  589MOL0     H77724  12.418   3.411   7.390  2.5402  0.8910  0.0937
  589MOL0     H77725  12.339   3.272   7.460 -1.9195  2.1249 -0.4514
  589MOL0     H77726  12.563   3.251   7.256  1.0286 -3.4289 -0.4925
  589MOL0     H77727  12.509   3.125   7.364 -0.5035 -0.8400 -2.2915
  589MOL0     H77728  12.277   3.185   7.290 -0.1919 -0.6862  0.2481
  589MOL0     H77729  12.367   3.092   7.174 -0.9853  0.1501 -0.6715
  589MOL0     H77730  12.793   3.395   8.266 -0.2138 -0.3056  1.0595
  589MOL0     H77731  12.739   3.330   8.489 -1.3283  0.7028  3.5736
  589MOL0     H77732  12.363   3.425   8.823  0.6422 -0.1239 -1.0251
  589MOL0     H77733  12.251   3.343   9.040 -0.1796 -0.8312  0.7351
  589MOL0     H77734  11.223   3.406  10.637  2.4928 -2.5123  0.9690
  589MOL0     H77735  10.999   3.460  10.727  0.7157  0.6092 -1.4853
  589MOL0     H77736  10.550   3.572  10.921  1.1216 -0.5090 -1.7617
  589MOL0     H77737  10.394   3.644  11.079  0.0982 -3.4720 -0.1534
  589MOL0     H77738  10.571   3.754  11.488  0.1836  0.4433 -0.2268
  589MOL0     H77739  10.411   3.771  11.522  1.3878 -2.3739  0.2781
  589MOL0     H77740  10.585   3.977  11.534  3.1003  1.8276 -1.5306
  589MOL0     H77741  10.581   3.980  11.361  2.0845  1.1942  1.8912
  589MOL0     H77742  10.373   4.089  11.556 -1.2415 -1.4895  0.4293
  589MOL0     H77743  10.308   3.985  11.430  0.3591  0.4791 -3.7189
  589MOL0     H77744  10.345   4.253  11.388  0.4145 -0.4770 -0.5835
  589MOL0     H77745  10.511   4.224  11.405  0.5624 -0.6300  0.4616
  589MOL0     H77746  10.432   4.072  11.007  0.2771 -1.2401  0.9896
  589MOL0     H77747  10.717   3.781  11.330  0.6996 -0.9176  0.1106
  589MOL0     H77748  10.873   3.674  11.199 -1.1752  4.2035  0.6608
  590MOL0     O77749   9.896   6.159  10.572 -0.9371 -0.8195  0.1312
  590MOL0     C77750   9.813   6.253  10.568  0.6053 -0.9347 -0.2345
  590MOL0     O77751   9.838   6.379  10.595  0.1862  0.0955 -0.1747
  590MOL0     C77752   9.947   6.403  10.675 -0.3259 -1.1537  0.0974
  590MOL0     C77753  10.077   6.391  10.629  0.2460 -0.4855  0.6634
  590MOL0     C77754  10.173   6.433  10.711 -0.4219  0.1804  0.3632
  590MOL0     C77755  10.148   6.494  10.839  0.8309  0.4959  0.3122
  590MOL0     O77756  10.257   6.532  10.913  0.2498 -0.3099  0.4418
  590MOL0     C77757  10.258   6.540  11.054  0.1351  0.3112  0.1900
  590MOL0     C77758  10.179   6.426  11.130  0.4525 -1.2533 -0.4550
  590MOL0     C77759  10.197   6.436  11.279 -0.2954 -0.7713 -0.8373
  590MOL0     C77760  10.131   6.323  11.360 -1.2387 -0.1859 -0.3862
  590MOL0     C77761  10.220   6.193  11.366 -0.1709 -0.4656  0.5179
  590MOL0     C77762  10.347   6.201  11.453  0.1421 -0.1258  0.0245
  590MOL0     C77763  10.449   6.085  11.437 -1.1856  0.4994  0.0944
  590MOL0     C77764  10.431   5.967  11.536 -0.5550  0.1615 -1.1367
  590MOL0     N77765  10.316   5.887  11.521  0.8752  0.1934 -1.0123
  590MOL0     C77766  10.279   5.800  11.422 -0.6905  1.1527 -1.0654
  590MOL0     C77767  10.147   5.773  11.437 -0.2372  0.1519  0.4401
  590MOL0     C77768  10.070   5.675  11.348  0.4530 -0.5224 -0.4965
  590MOL0     C77769  10.019   5.553  11.420 -0.3286  0.6110  0.2697
  590MOL0     C77770  10.128   5.444  11.449  0.1464  1.3123  1.2183
  590MOL0     C77771  10.087   5.339  11.554 -0.4217  0.1836 -0.2023
  590MOL0     O77772  10.203   5.268  11.603 -0.6400  0.1204 -0.2231
  590MOL0     C77773  10.187   5.155  11.667 -1.1126  0.6930  0.2655
  590MOL0     C77774  10.076   5.121  11.740 -0.1670  0.0708  0.1961
  590MOL0     C77775  10.068   5.011  11.818 -0.1975 -0.4189 -0.2468
  590MOL0     C77776  10.174   4.919  11.813 -0.3957  1.2091  0.4335
  590MOL0     C77777  10.160   4.785  11.883 -0.6751  0.5724 -0.1969
  590MOL0     O77778  10.243   4.691  11.851  0.2530  0.1302 -0.2723
  590MOL0     C77779  10.207   4.558  11.877  0.6186 -0.1907  1.1764
  590MOL0     C77780  10.302   4.456  11.845  0.2800 -1.0016  0.6528
  590MOL0     C77781  10.272   4.316  11.855 -0.5902  0.2397  0.2924
  590MOL0     C77782  10.149   4.278  11.899  0.7540  0.4576  0.3786
  590MOL0     O77783  10.120   4.143  11.908 -0.3491  0.1622  0.3305
  590MOL0     C77784  10.174   4.055  11.805  0.1233  0.2668 -0.2729
  590MOL0     C77785  10.080   3.931  11.796 -0.5018  0.4744 -0.4545
  590MOL0     C77786   9.970   3.936  11.692  0.5679  0.2308 -0.5771
  590MOL0     C77787   9.867   4.048  11.725  0.0357  0.0131 -0.4145
  590MOL0     C77788   9.743   4.040  11.631 -0.1147 -0.3793 -0.3193
  590MOL0     C77789   9.644   3.911  11.659 -0.0295 -1.0611 -0.1226
  590MOL0     C77790   9.605   3.891  11.806  0.9345  0.7998  0.1283
  590MOL0     C77791   9.480   3.792  11.805  0.6364 -0.3946 -0.5890
  590MOL0    Cl77792   9.408   3.764  11.972  0.4846 -0.1894  0.0914
  590MOL0     C77793  10.058   4.370  11.926  1.3502 -1.2609  0.2607
  590MOL0     C77794  10.089   4.505  11.903  1.4054  0.6013  0.3094
  590MOL0     O77795  10.073   4.789  11.974  0.3412  0.3721 -0.1266
  590MOL0     C77796  10.284   4.951  11.727 -0.8568  0.5005 -1.3418
  590MOL0     C77797  10.300   5.081  11.663  0.6014  0.4293 -0.8933
  590MOL0     N77798  10.092   5.826  11.559  0.2409 -0.5744  0.0650
  590MOL0     N77799  10.199   5.901  11.599 -0.8407  0.6666  0.8315
  590MOL0     C77800  10.020   6.507  10.881 -0.4024  0.3670 -0.5034
  590MOL0     C77801   9.919   6.461  10.806  0.1112 -0.3965  0.8924
  590MOL0     C77802   9.678   6.209  10.538 -0.9752 -0.3505 -0.4754
  590MOL0     C77803   9.660   6.095  10.456  0.2169  0.2065 -0.4632
  590MOL0     C77804   9.532   6.047  10.432 -0.5894 -0.5610  1.0346
  590MOL0     C77805   9.415   6.116  10.481 -0.3542 -0.4283 -0.0710
  590MOL0     O77806   9.287   6.081  10.462  0.1869  0.4363 -0.2362
  590MOL0     C77807   9.259   5.989  10.358 -0.1663  0.3155 -0.9338
  590MOL0     C77808   9.278   6.065  10.222  0.9760  0.7815 -0.3173
  590MOL0     C77809   9.173   6.180  10.216  0.5986  0.5346  0.3856
  590MOL0     C77810   9.211   6.274  10.099 -0.0332 -0.3443  0.1252
  590MOL0     C77811   9.132   6.402  10.096  0.0664 -0.1576 -0.4380
  590MOL0     C77812   9.081   6.509  10.096  0.4864 -0.1621 -1.1115
  590MOL0     C77813   9.438   6.236  10.549 -0.4347 -0.1826  0.3042
  590MOL0     C77814   9.568   6.287  10.575 -0.0165  0.7964  0.4154
  590MOL0     H77815  10.101   6.342  10.535 -3.1999  0.7870 -1.0712
  590MOL0     H77816  10.276   6.423  10.679  0.1408  2.0803  1.4266
  590MOL0     H77817  10.223   6.638  11.086 -0.0041  1.3895 -2.8979
  590MOL0     H77818  10.364   6.549  11.079  0.0159 -0.1506  0.8787
  590MOL0     H77819  10.225   6.329  11.107 -1.4002 -2.2725 -0.0621
  590MOL0     H77820  10.074   6.411  11.103  0.6972  0.4471 -2.7239
  590MOL0     H77821  10.164   6.534  11.316  5.0519  0.8609  0.5684
  590MOL0     H77822  10.304   6.442  11.302  0.2041 -1.2471 -2.8282
  590MOL0     H77823  10.114   6.355  11.463  1.7920  0.7129 -0.0565
  590MOL0     H77824  10.040   6.293  11.308  1.2111 -2.3842 -3.9021
  590MOL0     H77825  10.256   6.170  11.265  1.7491  0.8152  0.8578
  590MOL0     H77826  10.161   6.106  11.396 -0.2836 -0.7097 -0.4042
  590MOL0     H77827  10.324   6.202  11.560  0.1856 -3.4737  0.1600
  590MOL0     H77828  10.408   6.287  11.425 -0.3600  1.1662  2.6092
  590MOL0     H77829  10.451   6.050  11.333  1.8638  1.8165 -0.4258
  590MOL0     H77830  10.552   6.118  11.454 -0.0700 -2.4699 -0.3419
  590MOL0     H77831  10.442   6.009  11.636  3.9596 -2.6453 -0.1854
  590MOL0     H77832  10.525   5.916  11.514  0.6846  2.0444 -0.4559
  590MOL0     H77833  10.353   5.769  11.348 -0.0894 -2.1841  0.7373
  590MOL0     H77834  10.119   5.662  11.251  1.5470  1.4298 -0.2529
  590MOL0     H77835   9.979   5.732  11.328 -1.1609 -1.6926  2.8375
  590MOL0     H77836   9.931   5.510  11.370  0.2470  0.8695 -0.9981
  590MOL0     H77837   9.978   5.598  11.511 -1.3894  0.9369 -0.3455
  590MOL0     H77838  10.147   5.392  11.355 -3.3219  0.4171  0.8609
  590MOL0     H77839  10.218   5.493  11.489  0.1112  1.4840  1.0888
  590MOL0     H77840  10.003   5.274  11.525  1.4552 -3.1045  1.1390
  590MOL0     H77841  10.049   5.408  11.630 -3.5939 -0.7708 -0.7437
  590MOL0     H77842   9.994   5.189  11.757  0.3219  0.1853  2.3539
  590MOL0     H77843   9.977   4.993  11.874  0.1435  2.3349  1.3421
  590MOL0     H77844  10.393   4.492  11.798 -2.1386  0.9486 -3.0569
  590MOL0     H77845  10.343   4.242  11.822  0.7648  1.6621 -0.1115
  590MOL0     H77846  10.278   4.031  11.829 -0.8171 -1.4051  2.6454
  590MOL0     H77847  10.177   4.096  11.704  2.9280  1.2498  0.1203
  590MOL0     H77848  10.047   3.903  11.897  0.8369  3.4528  0.9384
  590MOL0     H77849  10.131   3.840  11.763 -0.0165  1.2240 -1.8134
  590MOL0     H77850   9.914   3.842  11.687 -0.6859  1.0191 -2.5956
  590MOL0     H77851  10.012   3.953  11.593 -1.5109  0.3623 -1.5025
  590MOL0     H77852   9.838   4.034  11.829 -0.0579  0.4224 -0.3849
  590MOL0     H77853   9.913   4.147  11.726 -4.7159  2.7143  4.4668
  590MOL0     H77854   9.789   4.029  11.532  3.9021 -0.7182  1.3966
  590MOL0     H77855   9.686   4.133  11.630 -0.0026 -0.2992  0.1869
  590MOL0     H77856   9.674   3.816  11.614 -2.9469 -0.4684 -3.8520
  590MOL0     H77857   9.561   3.960  11.606  0.5881  1.7297  1.2772
  590MOL0     H77858   9.684   3.852  11.871  1.8283  3.5099  0.8290
  590MOL0     H77859   9.577   3.984  11.857 -3.1543 -1.2403  2.0914
  590MOL0     H77860   9.499   3.698  11.753 -0.6125  0.2030 -2.2423
  590MOL0     H77861   9.400   3.832  11.742  0.8860 -1.7146 -1.8110
  590MOL0     H77862   9.961   4.340  11.965  1.3187  1.1734  2.3495
  590MOL0     H77863  10.010   4.576  11.924  0.3173  0.7561 -3.5879
  590MOL0     H77864  10.360   4.880  11.698 -0.9929  0.4388 -1.5481
  590MOL0     H77865  10.384   5.114  11.603  0.6642  2.0230  0.0009
  590MOL0     H77866   9.996   6.564  10.970  1.0777  0.0398  0.1490
  590MOL0     H77867   9.816   6.484  10.833 -0.0213  0.6876 -0.4385
  590MOL0     H77868   9.744   6.038  10.418 -0.1489 -0.3746 -0.4178
  590MOL0     H77869   9.528   5.955  10.374 -4.0074 -0.2463  0.5411
  590MOL0     H77870   9.151   5.972  10.361 -0.1485 -0.0601 -1.9335
  590MOL0     H77871   9.308   5.890  10.361  0.0660  0.4448 -0.4022
  590MOL0     H77872   9.374   6.116  10.211  0.4428  1.3885 -2.6412
  590MOL0     H77873   9.259   6.002  10.135  3.3949 -0.4464 -0.0494
  590MOL0     H77874   9.171   6.231  10.312 -2.5331 -3.5866  2.8929
  590MOL0     H77875   9.075   6.131  10.211  0.9899 -0.9893  4.1902
  590MOL0     H77876   9.314   6.303  10.120  0.0517 -1.4762  1.4485
  590MOL0     H77877   9.215   6.230   9.999  1.5844 -0.0023  0.0190
  590MOL0     H77878   9.048   6.611  10.104  1.7033  0.1635  0.2730
  590MOL0     H77879   9.342   6.277  10.579 -1.1667 -0.9913 -0.8480
  590MOL0     H77880   9.584   6.380  10.629 -0.4961  1.5920 -0.7657
  591MOL0     O77881   0.566  10.383   8.922 -0.5172  0.2778  0.0605
  591MOL0     C77882   0.441  10.380   8.931 -0.5886  0.8549 -0.0498
  591MOL0     O77883   0.372  10.325   9.037  0.9039 -0.3794  0.0837
  591MOL0     C77884   0.431  10.285   9.152  0.1285  0.1293 -0.4779
  591MOL0     C77885   0.345  10.209   9.231 -0.1548  0.4696 -0.4622
  591MOL0     C77886   0.396  10.145   9.353  0.0462  0.0352  1.0022
  591MOL0     C77887   0.531  10.145   9.378 -0.1558  0.0027  0.3143
  591MOL0     O77888   0.593  10.075   9.480 -0.2897  0.1306  0.3153
  591MOL0     C77889   0.539   9.951   9.521 -0.6390 -0.2400  0.7183
  591MOL0     C77890   0.598   9.842   9.430  0.4655  0.4229  0.2456
  591MOL0     C77891   0.504   9.818   9.310 -0.5047 -0.7850 -1.2588
  591MOL0     C77892   0.543   9.704   9.212 -0.6171 -0.4193 -0.4631
  591MOL0     C77893   0.428   9.611   9.186  0.2840 -0.3523 -0.3973
  591MOL0     C77894   0.391   9.517   9.304 -0.3605 -0.4094 -0.4978
  591MOL0     C77895   0.249   9.459   9.278 -0.1739  0.0042  0.2520
  591MOL0     C77896   0.221   9.352   9.378  0.4736  1.0314  0.7122
  591MOL0     N77897   0.075   9.311   9.372 -1.0269  0.4678  0.7157
  591MOL0     C77898   0.002   9.339   9.261  0.5014  0.4854 -0.5641
  591MOL0     C77899  -0.115   9.296   9.304 -0.7603  0.1819 -0.7431
  591MOL0     C77900  -0.238   9.282   9.232  1.2954 -0.3327 -0.5929
  591MOL0     C77901  -0.278   9.408   9.145 -0.9939  0.1742  0.5223
  591MOL0     C77902  -0.320   9.519   9.232  0.1893 -0.3286 -0.1413
  591MOL0     C77903  -0.328   9.664   9.155 -1.0553 -0.9181 -0.5697
  591MOL0     O77904  -0.461   9.715   9.132  0.7012  0.0697 -0.2615
  591MOL0     C77905  -0.520   9.817   9.200  0.2393  0.4055 -0.1936
  591MOL0     C77906  -0.667   9.806   9.215  0.5809 -0.0468  0.4674
  591MOL0     C77907  -0.738   9.902   9.291 -1.1239 -0.1697  0.1622
  591MOL0     C77908  -0.660  10.009   9.348 -0.8512 -0.3172 -0.3244
  591MOL0     C77909  -0.728  10.120   9.417  0.1295  1.0429  0.2447
  591MOL0     O77910  -0.869  10.123   9.406  0.5130  0.1147  0.0722
  591MOL0     C77911  -0.923  10.228   9.478  0.1820  0.9363  1.3790
  591MOL0     C77912  -0.997  10.193   9.589  0.3572 -0.6691 -0.1073
  591MOL0     C77913  -1.057  10.276   9.676 -0.6727 -0.1493  0.8184
  591MOL0     C77914  -1.047  10.419   9.652  1.4703  0.1696 -0.3962
  591MOL0     O77915  -1.095  10.508   9.746 -0.4307 -0.6950 -0.4096
  591MOL0     C77916  -1.153  10.461   9.867  0.8784  0.0393 -0.9685
  591MOL0     C77917  -1.151  10.573   9.975 -0.2775  0.3004 -0.6718
  591MOL0     C77918  -1.205  10.504  10.100  0.3462  0.1601 -0.3870
  591MOL0     C77919  -1.227  10.597  10.211 -0.7791 -0.4058  0.6833
  591MOL0     C77920  -1.269  10.513  10.330  0.4710 -0.8582  0.5103
  591MOL0     C77921  -1.286  10.612  10.445 -0.0274 -1.5168 -0.2349
  591MOL0     C77922  -1.347  10.544  10.574 -1.0987 -0.9071  0.6334
  591MOL0     C77923  -1.348  10.643  10.696 -0.4014  0.1712  0.9674
  591MOL0    Cl77924  -1.183  10.639  10.772  0.0400 -0.1303 -0.4606
  591MOL0     C77925  -0.973  10.456   9.536  0.3405  0.1645 -0.2000
  591MOL0     C77926  -0.924  10.364   9.441 -0.1022  0.4425 -0.7724
  591MOL0     O77927  -0.655  10.213   9.449  0.0132 -0.2215  0.4462
  591MOL0     C77928  -0.516  10.021   9.331 -0.3229  0.1960  0.6422
  591MOL0     C77929  -0.454   9.929   9.247 -0.2385  0.2432 -0.5938
  591MOL0     N77930  -0.111   9.247   9.436 -0.6920 -0.3879  0.2160
  591MOL0     N77931   0.012   9.269   9.487 -0.2006 -0.8313 -0.1419
  591MOL0     C77932   0.610  10.230   9.312 -1.4223  0.6996 -0.2447
  591MOL0     C77933   0.565  10.289   9.190 -0.0472 -0.5053  0.1460
  591MOL0     C77934   0.359  10.412   8.811 -0.0568  0.1086  1.0951
  591MOL0     C77935   0.239  10.371   8.776 -0.3852  0.3444  0.6284
  591MOL0     C77936   0.188  10.394   8.648  0.1021  0.1156 -0.4350
  591MOL0     C77937   0.257  10.463   8.547 -0.5900 -1.7411 -0.2984
  591MOL0     O77938   0.194  10.498   8.430  0.5088  0.1225 -0.3808
  591MOL0     C77939   0.268  10.556   8.325  0.8680 -0.2464 -0.5701
  591MOL0     C77940   0.180  10.578   8.216  0.5498  0.2508 -0.2925
  591MOL0     C77941   0.244  10.636   8.089 -0.6386 -0.8276 -0.7115
  591MOL0     C77942   0.163  10.607   7.966 -0.3264 -0.1104  1.1864
  591MOL0     C77943   0.204  10.687   7.843 -0.4855  0.1414 -0.1438
  591MOL0     C77944   0.210  10.743   7.735 -0.0068 -0.8505  0.1224
  591MOL0     C77945   0.389  10.509   8.579  0.2729 -0.3812 -1.2343
  591MOL0     C77946   0.437  10.468   8.705  0.1199  0.1841 -0.2254
  591MOL0     H77947   0.237  10.206   9.222 -0.7591  0.3005  4.2649
  591MOL0     H77948   0.323  10.096   9.416 -2.7669 -0.6987 -2.4948
  591MOL0     H77949   0.429   9.954   9.515 -0.7108 -2.9598 -2.3215
  591MOL0     H77950   0.564   9.927   9.624 -1.8596 -0.6745  0.9316
  591MOL0     H77951   0.608   9.749   9.487 -1.2667  0.4293  0.6351
  591MOL0     H77952   0.700   9.866   9.400  0.3246 -2.5472 -3.3348
  591MOL0     H77953   0.496   9.913   9.258 -3.9764  0.7985  1.7196
  591MOL0     H77954   0.402   9.807   9.349  0.1769 -1.5260  0.4375
  591MOL0     H77955   0.553   9.750   9.113 -1.2598 -2.6264 -1.6367
  591MOL0     H77956   0.635   9.653   9.243 -0.5075  1.4186  2.5482
  591MOL0     H77957   0.454   9.560   9.093  2.1229  0.2329 -0.2464
  591MOL0     H77958   0.342   9.676   9.166 -0.0546 -0.2151  1.3738
  591MOL0     H77959   0.383   9.569   9.400 -1.3633 -2.9056  0.8723
  591MOL0     H77960   0.467   9.439   9.316 -0.7874 -0.5151  1.9064
  591MOL0     H77961   0.187   9.549   9.273  3.6861  2.9547  0.1023
  591MOL0     H77962   0.254   9.420   9.176  2.5878  0.6860  0.0433
  591MOL0     H77963   0.235   9.390   9.480  1.5741  3.4340 -0.2409
  591MOL0     H77964   0.297   9.274   9.371  1.1450  1.8072 -1.6364
  591MOL0     H77965   0.032   9.377   9.163  2.4799  0.2183 -0.1008
  591MOL0     H77966  -0.311   9.255   9.309  1.7982 -1.3405 -0.4556
  591MOL0     H77967  -0.231   9.197   9.164  1.7169 -0.5938 -0.2283
  591MOL0     H77968  -0.358   9.388   9.074  1.0607  0.8441 -2.1735
  591MOL0     H77969  -0.195   9.456   9.092 -0.9418  0.8295  1.1784
  591MOL0     H77970  -0.412   9.485   9.282 -1.9924  0.5824 -3.2610
  591MOL0     H77971  -0.242   9.525   9.309 -0.3260  0.5256  0.3355
  591MOL0     H77972  -0.271   9.663   9.061  0.2798 -0.3154  0.2039
  591MOL0     H77973  -0.277   9.733   9.224 -1.0151 -0.7252 -0.7898
  591MOL0     H77974  -0.713   9.722   9.164 -0.1997 -0.4042  1.7169
  591MOL0     H77975  -0.846   9.892   9.299 -1.3783  1.4595 -0.7840
  591MOL0     H77976  -1.016  10.089   9.617 -0.6825  0.4627  4.1486
  591MOL0     H77977  -1.097  10.224   9.763  1.9857 -0.5161  1.9223
  591MOL0     H77978  -1.101  10.371   9.901  1.1258  0.5257 -0.0100
  591MOL0     H77979  -1.259  10.439   9.853 -0.2601  4.6903 -1.1208
  591MOL0     H77980  -1.211  10.657   9.942 -0.0924 -0.0054 -1.8313
  591MOL0     H77981  -1.047  10.596  10.003 -0.3801  2.7112 -2.0782
  591MOL0     H77982  -1.135  10.433  10.144  0.3613  0.1112 -0.4928
  591MOL0     H77983  -1.292  10.443  10.071  0.0863 -0.0625  0.8226
  591MOL0     H77984  -1.130  10.642  10.230  0.2150 -1.6501 -1.1039
  591MOL0     H77985  -1.298  10.677  10.188 -0.5825 -0.6624 -0.9499
  591MOL0     H77986  -1.197  10.434  10.352  0.9334 -0.6921 -0.4031
  591MOL0     H77987  -1.367  10.465  10.318 -0.5541  1.0116  0.9863
  591MOL0     H77988  -1.346  10.699  10.418 -0.6376 -2.0367 -0.5725
  591MOL0     H77989  -1.188  10.652  10.474 -0.1007 -0.9499 -0.7600
  591MOL0     H77990  -1.442  10.499  10.542 -0.1046 -1.7442 -1.3018
  591MOL0     H77991  -1.277  10.467  10.606 -1.5562 -2.0297 -0.9244
  591MOL0     H77992  -1.425  10.600  10.761 -2.8300 -1.2080 -2.4627
  591MOL0     H77993  -1.390  10.742  10.676 -1.9099 -0.3639  1.3585
  591MOL0     H77994  -0.966  10.564   9.523  2.0614 -0.0545 -1.4391
  591MOL0     H77995  -0.888  10.393   9.343  0.3814  1.2534 -0.3663
  591MOL0     H77996  -0.461  10.106   9.369  3.0417 -0.4278 -2.2994
  591MOL0     H77997  -0.347   9.947   9.237 -0.3482  2.4151  1.4458
  591MOL0     H77998   0.717  10.237   9.325 -1.1531 -0.6819 -1.5269
  591MOL0     H77999   0.639  10.329   9.122  0.3359 -0.6904  0.4532
  591MOL0     H78000   0.178  10.321   8.851 -0.1192  0.6588  1.0546
  591MOL0     H78001   0.085  10.369   8.623 -1.3765  2.0519  2.9800
  591MOL0     H78002   0.353  10.497   8.289  1.2068  0.3866 -0.8232
  591MOL0     H78003   0.297  10.658   8.353 -1.1156  0.3960 -0.7265
  591MOL0     H78004   0.139  10.478   8.198 -1.4301  1.0944 -0.7619
  591MOL0     H78005   0.095  10.644   8.236 -1.3565 -2.3449  0.6093
  591MOL0     H78006   0.346  10.604   8.067 -0.1048  1.9137 -2.7639
  591MOL0     H78007   0.236  10.744   8.103  1.0218 -0.9017  1.2446
  591MOL0     H78008   0.183  10.504   7.935  0.9444  0.5933 -0.5209
  591MOL0     H78009   0.057  10.629   7.985 -0.5432 -1.3299  1.4504
  591MOL0     H78010   0.215  10.795   7.642 -0.8090  0.6935  0.8968
  591MOL0     H78011   0.452  10.561   8.507  0.4951 -0.9944 -1.4896
  591MOL0     H78012   0.542  10.490   8.719  0.2767 -0.7809  0.2207
  592MOL0     O78013   1.111   6.807   8.703  0.8409  0.2850  0.1680
  592MOL0     C78014   1.010   6.800   8.630 -0.5370 -0.5230 -0.5526
  592MOL0     O78015   1.001   6.762   8.499 -0.6013 -0.6713 -0.9894
  592MOL0     C78016   1.115   6.737   8.427  0.0306  0.1533 -0.3559
  592MOL0     C78017   1.208   6.827   8.397 -0.1237 -0.6768 -0.2678
  592MOL0     C78018   1.327   6.787   8.317 -0.1447  0.2476 -0.3645
  592MOL0     C78019   1.341   6.662   8.263 -0.1215  0.4203 -0.3288
  592MOL0     O78020   1.452   6.642   8.186 -0.3493  0.2109 -0.6096
  592MOL0     C78021   1.469   6.504   8.148 -0.8525 -0.8081  0.3465
  592MOL0     C78022   1.603   6.496   8.074 -0.2602 -0.6042 -0.1375
  592MOL0     C78023   1.654   6.366   8.008 -0.1228 -0.2010  1.0104
  592MOL0     C78024   1.800   6.376   7.963  0.7294 -1.0382 -0.3602
  592MOL0     C78025   1.865   6.246   7.926 -0.7850 -0.4113 -0.8273
  592MOL0     C78026   1.986   6.262   7.838  0.2194  0.3397 -0.2733
  592MOL0     C78027   2.109   6.286   7.936  1.3610  0.0420 -0.0756
  592MOL0     C78028   2.252   6.299   7.873  0.3054 -0.0686  0.3470
  592MOL0     N78029   2.293   6.185   7.794 -0.1642 -0.4473  0.5530
  592MOL0     C78030   2.389   6.093   7.829 -0.4970 -0.4759 -0.0060
  592MOL0     C78031   2.404   6.022   7.718 -0.5225  0.1558  0.3013
  592MOL0     C78032   2.503   5.908   7.696  0.1966 -0.2229  0.2043
  592MOL0     C78033   2.451   5.780   7.626 -0.8895 -0.6776  0.7509
  592MOL0     C78034   2.540   5.660   7.668 -0.5926  1.1366  0.2821
  592MOL0     C78035   2.462   5.552   7.744  0.0763  0.0609  0.6844
  592MOL0     O78036   2.441   5.602   7.879  0.2674 -0.7547 -0.3854
  592MOL0     C78037   2.315   5.620   7.924  0.3738 -1.0768  0.1163
  592MOL0     C78038   2.299   5.645   8.063 -0.7081  0.3479 -0.5581
  592MOL0     C78039   2.180   5.672   8.133 -0.0913  0.9994 -0.4407
  592MOL0     C78040   2.072   5.692   8.053 -0.2156  0.6661  0.4778
  592MOL0     C78041   1.948   5.743   8.118  0.2418  0.3018  0.8121
  592MOL0     O78042   1.831   5.754   8.042  0.1142 -0.5580  0.1107
  592MOL0     C78043   1.718   5.802   8.094  0.2375 -0.5367 -0.1938
  592MOL0     C78044   1.647   5.713   8.182 -0.3370  0.5532  0.6198
  592MOL0     C78045   1.524   5.757   8.238 -1.3449  0.6036 -0.7825
  592MOL0     C78046   1.472   5.886   8.217  0.1823 -0.7254 -0.6187
  592MOL0     O78047   1.337   5.919   8.260  0.0846  0.0044  0.3902
  592MOL0     C78048   1.310   5.896   8.394 -1.1928  0.4313  1.0220
  592MOL0     C78049   1.223   5.773   8.418  1.1983 -0.4400  0.3240
  592MOL0     C78050   1.199   5.744   8.569 -0.0781 -0.1844 -0.0955
  592MOL0     C78051   1.122   5.862   8.627  0.2768  0.2547  0.0814
  592MOL0     C78052   1.007   5.814   8.720 -0.2822  0.0709 -0.3049
  592MOL0     C78053   0.908   5.929   8.766 -0.0709 -0.3031  0.5455
  592MOL0     C78054   0.803   5.881   8.877  0.2880 -0.4885 -0.1718
  592MOL0     C78055   0.709   5.993   8.925 -0.7485  0.2424  0.2835
  592MOL0    Cl78056   0.607   5.930   9.054 -0.3398 -0.1998 -0.2758
  592MOL0     C78057   1.544   5.974   8.133 -0.2071  0.9043 -0.2373
  592MOL0     C78058   1.661   5.921   8.067  0.6362 -0.5115 -0.1744
  592MOL0     O78059   1.961   5.774   8.232 -0.0536 -0.0559 -0.2679
  592MOL0     C78060   2.067   5.666   7.906  0.2826  0.5571 -1.3610
  592MOL0     C78061   2.193   5.623   7.852 -0.3604 -0.1182  0.4516
  592MOL0     N78062   2.326   6.072   7.618  0.3739  0.4144  0.1095
  592MOL0     N78063   2.261   6.172   7.663  0.2379  0.3492 -0.5576
  592MOL0     C78064   1.232   6.569   8.295  0.0984 -0.2613 -0.5166
  592MOL0     C78065   1.135   6.599   8.388  1.1559 -0.7607  1.2285
  592MOL0     C78066   0.886   6.829   8.712  0.2222  0.0308  0.3417
  592MOL0     C78067   0.894   6.846   8.846 -0.2802  0.5409 -1.1752
  592MOL0     C78068   0.775   6.854   8.921  0.3436  0.3157 -0.2963
  592MOL0     C78069   0.644   6.845   8.872 -1.3345 -0.7757  0.1874
  592MOL0     O78070   0.522   6.872   8.936 -0.4345 -0.3642 -0.3246
  592MOL0     C78071   0.524   6.866   9.083  0.5171 -0.3793  0.1651
  592MOL0     C78072   0.376   6.879   9.134  0.0409  0.3697  0.6762
  592MOL0     C78073   0.370   6.882   9.289  0.0983 -0.4412 -0.7234
  592MOL0     C78074   0.448   7.004   9.341  0.6484 -0.9890 -0.2363
  592MOL0     C78075   0.563   6.974   9.433  0.5498 -0.3287 -0.2808
  592MOL0     C78076   0.660   6.919   9.491  0.5213  0.5349 -0.2097
  592MOL0     C78077   0.641   6.826   8.733  0.7270  0.0989  0.2299
  592MOL0     C78078   0.754   6.809   8.657  0.3085 -1.0011 -0.1320
  592MOL0     H78079   1.204   6.931   8.426  3.4388 -0.3245 -0.5552
  592MOL0     H78080   1.391   6.869   8.284 -1.7559  0.7876 -2.3584
  592MOL0     H78081   1.387   6.475   8.081  0.8576  4.2972 -4.8632
  592MOL0     H78082   1.475   6.436   8.233  4.0831 -0.2126  0.7660
  592MOL0     H78083   1.684   6.527   8.140  0.0522  0.9106 -1.1816
  592MOL0     H78084   1.588   6.571   7.996  2.4781  0.5836  0.3613
  592MOL0     H78085   1.591   6.325   7.929  1.9751 -0.9112 -0.3959
  592MOL0     H78086   1.643   6.293   8.089  0.9791  0.8146  2.1308
  592MOL0     H78087   1.787   6.441   7.876 -2.6025 -2.6267 -1.2332
  592MOL0     H78088   1.863   6.420   8.041  3.3538  3.6255 -4.5477
  592MOL0     H78089   1.787   6.192   7.871 -0.0986 -1.3614 -0.8839
  592MOL0     H78090   1.892   6.192   8.017 -0.7937  1.3067  0.2498
  592MOL0     H78091   1.972   6.345   7.768 -0.1141 -0.0932 -0.7245
  592MOL0     H78092   2.004   6.176   7.773  0.1101  1.1940 -1.4702
  592MOL0     H78093   2.066   6.371   7.990 -2.8561 -0.7707 -1.7263
  592MOL0     H78094   2.116   6.201   8.004  1.1182 -0.8558 -1.1245
  592MOL0     H78095   2.321   6.326   7.954 -0.7156 -0.1284  1.2630
  592MOL0     H78096   2.241   6.389   7.812 -2.1804  0.4880  1.4553
  592MOL0     H78097   2.428   6.078   7.930  0.1142  0.4392 -0.0981
  592MOL0     H78098   2.534   5.875   7.796 -1.3745 -0.0665  0.7867
  592MOL0     H78099   2.597   5.936   7.648  1.7645 -1.3825  2.4273
  592MOL0     H78100   2.459   5.792   7.517 -1.8635  2.1570  0.9130
  592MOL0     H78101   2.346   5.751   7.640 -0.8626 -0.8646  0.5821
  592MOL0     H78102   2.571   5.603   7.580  0.0478  3.5823 -1.2074
  592MOL0     H78103   2.631   5.687   7.722  0.8309 -2.2933 -0.2156
  592MOL0     H78104   2.526   5.463   7.752  1.2471  0.0835 -4.7227
  592MOL0     H78105   2.376   5.528   7.681  0.2769  0.0750  0.4019
  592MOL0     H78106   2.383   5.626   8.129 -3.1046 -0.9563  2.3753
  592MOL0     H78107   2.170   5.669   8.241 -1.0114  0.5433 -0.5312
  592MOL0     H78108   1.682   5.612   8.199  2.4905  1.1650 -0.9680
  592MOL0     H78109   1.476   5.685   8.303  0.5619 -0.2898 -0.2861
  592MOL0     H78110   1.257   5.983   8.435  0.6725  0.5036  3.4921
  592MOL0     H78111   1.403   5.888   8.451  0.9240 -2.3770 -2.4137
  592MOL0     H78112   1.254   5.679   8.371 -1.3569 -1.9066  1.3688
  592MOL0     H78113   1.126   5.790   8.369  0.9361 -1.2258  0.5499
  592MOL0     H78114   1.295   5.738   8.622 -1.7311  0.5149  3.2219
  592MOL0     H78115   1.149   5.648   8.586  0.6806 -0.1347  2.8403
  592MOL0     H78116   1.190   5.917   8.693  0.8643 -1.2367  0.7575
  592MOL0     H78117   1.075   5.924   8.550  1.2159  0.0794 -0.6520
  592MOL0     H78118   1.042   5.764   8.811  1.1753 -1.1455 -1.4838
  592MOL0     H78119   0.951   5.743   8.658  0.0414 -0.8386  0.4189
  592MOL0     H78120   0.861   5.967   8.675  3.5922  0.2606 -1.3056
  592MOL0     H78121   0.976   6.004   8.809 -0.3361  0.5703 -0.5137
  592MOL0     H78122   0.739   5.795   8.854 -2.0056  0.4631  2.1733
  592MOL0     H78123   0.844   5.843   8.971  1.0462 -1.7644 -0.9805
  592MOL0     H78124   0.644   6.028   8.844  1.0125 -1.3158 -1.9229
  592MOL0     H78125   0.769   6.079   8.958  1.5865 -1.8855  1.9077
  592MOL0     H78126   1.504   6.074   8.117 -5.5495 -1.0232 -0.8441
  592MOL0     H78127   1.721   5.985   8.003  1.7274  0.3131  1.5930
  592MOL0     H78128   1.981   5.668   7.841  0.5239 -2.0950 -1.8474
  592MOL0     H78129   2.190   5.592   7.748 -5.3268 -0.3612  0.4181
  592MOL0     H78130   1.227   6.462   8.277 -1.9480 -0.8563  2.6537
  592MOL0     H78131   1.074   6.514   8.416  1.1598 -2.9144 -4.1276
  592MOL0     H78132   0.988   6.845   8.899 -0.6009 -1.8443 -0.5535
  592MOL0     H78133   0.780   6.861   9.029  1.8626  4.5719 -0.4816
  592MOL0     H78134   0.587   6.947   9.123 -1.1352  2.3583 -2.3962
  592MOL0     H78135   0.557   6.767   9.115  3.0267  0.8069  1.6106
  592MOL0     H78136   0.349   6.978   9.097  2.9774  0.0503 -3.0132
  592MOL0     H78137   0.309   6.802   9.092  1.2986 -1.2739  1.5466
  592MOL0     H78138   0.424   6.791   9.317 -1.2249 -0.9901  0.1527
  592MOL0     H78139   0.266   6.880   9.325 -0.1268 -0.9882 -1.3580
  592MOL0     H78140   0.494   7.058   9.258 -1.3642  0.6955 -0.3218
  592MOL0     H78141   0.381   7.075   9.390 -0.8616 -3.2859  1.2055
  592MOL0     H78142   0.738   6.867   9.542  2.4203  4.0058  0.7751
  592MOL0     H78143   0.548   6.828   8.678  0.7691 -0.4954  0.1296
  592MOL0     H78144   0.735   6.799   8.550  0.6491 -1.0730 -0.1889
  593MOL0     O78145   0.366   8.268   5.113 -0.4819  0.2628 -0.2215
  593MOL0     C78146   0.303   8.318   5.021  0.8756 -0.5553 -0.7894
  593MOL0     O78147   0.198   8.414   5.036  0.1207 -1.1773  0.1406
  593MOL0     C78148   0.196   8.491   5.153 -0.1725  0.4889  0.6721
  593MOL0     C78149   0.228   8.622   5.146  0.4805 -0.2327 -0.2351
  593MOL0     C78150   0.205   8.714   5.248 -0.8042 -0.8716 -0.5175
  593MOL0     C78151   0.175   8.659   5.383 -1.0592  0.2220 -0.9179
  593MOL0     O78152   0.181   8.733   5.508 -0.1480 -0.2011  0.6696
  593MOL0     C78153   0.118   8.857   5.499  0.0196 -0.2859  0.6702
  593MOL0     C78154  -0.013   8.848   5.565 -0.7835 -0.1606 -0.6649
  593MOL0     C78155  -0.101   8.970   5.526  0.1045 -0.3300 -0.3663
  593MOL0     C78156  -0.051   9.097   5.596  0.7403 -1.2219  0.0274
  593MOL0     C78157  -0.161   9.206   5.597 -0.4853 -0.2854 -0.4935
  593MOL0     C78158  -0.239   9.235   5.466 -0.1052 -0.7201  0.3321
  593MOL0     C78159  -0.359   9.337   5.477 -0.4549 -0.4354  1.1316
  593MOL0     C78160  -0.455   9.325   5.357 -0.3226 -0.1970 -0.2002
  593MOL0     N78161  -0.549   9.437   5.336 -0.1176  0.8493 -0.0131
  593MOL0     C78162  -0.514   9.570   5.348  0.0697  0.2475 -0.0691
  593MOL0     C78163  -0.625   9.638   5.313  0.1782 -0.0575  0.3640
  593MOL0     C78164  -0.646   9.786   5.299  1.1521 -0.4079  0.3867
  593MOL0     C78165  -0.669   9.824   5.153  0.9933 -0.1445  0.0875
  593MOL0     C78166  -0.727   9.965   5.130 -0.6560 -0.2664 -1.0246
  593MOL0     C78167  -0.708   9.968   4.984  0.7874 -0.1276  0.2365
  593MOL0     O78168  -0.763  10.088   4.925  0.0101 -0.0889 -0.2456
  593MOL0     C78169  -0.715  10.117   4.797  0.9292 -0.2965 -0.3308
  593MOL0     C78170  -0.652  10.019   4.717  0.5722 -0.7819  0.6646
  593MOL0     C78171  -0.602  10.056   4.586 -0.0602  0.4534 -0.3425
  593MOL0     C78172  -0.627  10.184   4.536  0.3876  0.7611 -0.6688
  593MOL0     C78173  -0.591  10.211   4.400  0.2908  0.0776  0.2793
  593MOL0     O78174  -0.529  10.119   4.328  0.0589 -0.0280  0.0713
  593MOL0     C78175  -0.481  10.150   4.206 -0.9198  0.0228 -1.1773
  593MOL0     C78176  -0.535  10.090   4.094  0.2502  0.4210  0.1501
  593MOL0     C78177  -0.497  10.135   3.968  0.0013 -0.2092  0.1929
  593MOL0     C78178  -0.388  10.226   3.951 -0.0245  0.3070  0.5100
  593MOL0     O78179  -0.358  10.259   3.819 -0.0552  0.5271 -0.9245
  593MOL0     C78180  -0.236  10.329   3.798  0.7996 -0.0251  0.4425
  593MOL0     C78181  -0.200  10.333   3.643  0.1476  0.2531  0.4012
  593MOL0     C78182  -0.318  10.351   3.543  0.4480  1.1665 -0.6443
  593MOL0     C78183  -0.273  10.361   3.399  0.6105 -1.1301  0.5477
  593MOL0     C78184  -0.374  10.432   3.310  0.1829  0.4324 -0.3727
  593MOL0     C78185  -0.367  10.586   3.330 -0.2442 -0.1197  0.0295
  593MOL0     C78186  -0.449  10.651   3.230  0.4976 -0.4678 -0.1776
  593MOL0     C78187  -0.506  10.776   3.280  0.6956  0.4378 -0.4421
  593MOL0    Cl78188  -0.641  10.844   3.182  0.8060 -0.3540 -0.3365
  593MOL0     C78189  -0.327  10.275   4.070 -0.0577  0.1201  0.6461
  593MOL0     C78190  -0.374  10.234   4.192  0.0275  0.3906 -0.2837
  593MOL0     O78191  -0.641  10.315   4.351 -0.3890 -0.0641 -0.3348
  593MOL0     C78192  -0.692  10.279   4.619  0.0506 -0.1392 -0.3970
  593MOL0     C78193  -0.730  10.244   4.748 -0.8969 -0.4975  0.1088
  593MOL0     N78194  -0.725   9.549   5.276 -0.5423  0.9088  0.1965
  593MOL0     N78195  -0.678   9.425   5.314 -0.0575 -1.5262 -0.1126
  593MOL0     C78196   0.153   8.512   5.385  0.0973 -0.8167 -0.2312
  593MOL0     C78197   0.164   8.434   5.272  0.4187  0.0169 -0.6870
  593MOL0     C78198   0.359   8.290   4.883 -0.5321  0.4708 -0.4083
  593MOL0     C78199   0.314   8.360   4.769  0.3957  0.2226 -0.1906
  593MOL0     C78200   0.381   8.347   4.648  0.5967 -0.0843 -0.1375
  593MOL0     C78201   0.500   8.282   4.645 -0.3732  0.2912  2.1181
  593MOL0     O78202   0.572   8.279   4.521 -0.1396 -1.1815  0.7130
  593MOL0     C78203   0.497   8.236   4.408  0.8821  0.6422 -0.4242
  593MOL0     C78204   0.463   8.094   4.419 -0.3573 -0.3243  0.4188
  593MOL0     C78205   0.586   8.005   4.423  0.6885 -0.8265  0.1601
  593MOL0     C78206   0.690   8.028   4.314 -0.5518 -0.3345  0.2171
  593MOL0     C78207   0.799   7.937   4.332  0.0023  0.0151 -0.3310
  593MOL0     C78208   0.894   7.857   4.347  0.0725 -0.4571 -0.4178
  593MOL0     C78209   0.541   8.201   4.752 -1.1760 -0.7367 -1.0985
  593MOL0     C78210   0.462   8.203   4.866 -1.4884  0.2019  0.5714
  593MOL0     H78211   0.234   8.673   5.051  1.5476 -1.7736 -1.0328
  593MOL0     H78212   0.211   8.818   5.216 -2.4406 -1.4547 -2.9903
  593MOL0     H78213   0.112   8.896   5.397  1.4863 -1.9586 -0.1063
  593MOL0     H78214   0.182   8.933   5.546 -2.1602  1.9224  0.2836
  593MOL0     H78215   0.010   8.841   5.672  1.6952  1.7436 -0.9815
  593MOL0     H78216  -0.063   8.761   5.522 -1.1433  0.6938 -2.0269
  593MOL0     H78217  -0.203   8.952   5.560 -0.3073  2.6833  0.2751
  593MOL0     H78218  -0.114   8.987   5.419 -0.2971  0.3338 -0.2178
  593MOL0     H78219  -0.025   9.083   5.702 -2.5344 -1.6721  0.8648
  593MOL0     H78220   0.040   9.130   5.545  1.3616 -0.1704  1.7239
  593MOL0     H78221  -0.126   9.289   5.659  0.9056 -1.2315  0.0413
  593MOL0     H78222  -0.245   9.175   5.660 -0.8747 -0.0768 -0.9107
  593MOL0     H78223  -0.284   9.139   5.440  2.3141 -1.5411 -1.0899
  593MOL0     H78224  -0.165   9.262   5.391  0.9824 -1.0034  1.2713
  593MOL0     H78225  -0.413   9.309   5.568  1.1659 -2.4568  1.5308
  593MOL0     H78226  -0.325   9.440   5.488 -0.7178 -0.0854 -0.8993
  593MOL0     H78227  -0.520   9.237   5.365 -3.0045  1.6450 -0.5077
  593MOL0     H78228  -0.387   9.309   5.272  1.7388  2.6532  0.7496
  593MOL0     H78229  -0.419   9.619   5.368 -0.6715  2.2962 -1.2800
  593MOL0     H78230  -0.560   9.844   5.334  1.1830 -0.7175  0.8326
  593MOL0     H78231  -0.722   9.830   5.365  0.4211  4.0672 -2.8964
  593MOL0     H78232  -0.734   9.750   5.104  1.5286 -1.3248  1.0890
  593MOL0     H78233  -0.566   9.818   5.116  0.8151 -1.0525 -0.2973
  593MOL0     H78234  -0.830   9.969   5.166  0.3927  0.0443  2.2229
  593MOL0     H78235  -0.669  10.046   5.174  1.6270 -2.0367 -0.6268
  593MOL0     H78236  -0.741   9.878   4.931 -0.7069 -0.4626  1.6515
  593MOL0     H78237  -0.599   9.961   4.976  1.2369 -0.8397  4.6393
  593MOL0     H78238  -0.638   9.913   4.739  1.0619 -1.2032 -1.4383
  593MOL0     H78239  -0.540   9.991   4.526  0.1771  2.2018 -2.0851
  593MOL0     H78240  -0.616  10.019   4.105 -1.6435  2.4928  0.3698
  593MOL0     H78241  -0.541  10.097   3.877 -0.1115 -2.1770  1.0221
  593MOL0     H78242  -0.152  10.277   3.844  1.4850 -0.9954 -1.7393
  593MOL0     H78243  -0.247  10.427   3.844  2.5923  1.4771 -2.0635
  593MOL0     H78244  -0.145  10.242   3.616 -1.0023 -0.3199 -0.1041
  593MOL0     H78245  -0.146  10.423   3.616 -1.1204 -0.1171 -4.1608
  593MOL0     H78246  -0.370  10.440   3.578  2.7439  1.9125  1.0938
  593MOL0     H78247  -0.389  10.269   3.553  1.3386  0.5931  1.5242
  593MOL0     H78248  -0.182  10.421   3.399 -0.7409  1.0419  1.2826
  593MOL0     H78249  -0.252  10.262   3.359 -2.0562 -1.2178 -0.8709
  593MOL0     H78250  -0.471  10.382   3.320  0.7126 -0.9560 -1.8212
  593MOL0     H78251  -0.357  10.419   3.203 -1.5368  2.2254 -0.9291
  593MOL0     H78252  -0.263  10.618   3.339 -0.1480  0.3176 -2.2243
  593MOL0     H78253  -0.422  10.604   3.424 -0.5113  2.9413 -0.6121
  593MOL0     H78254  -0.400  10.685   3.139 -1.8462  2.1209 -0.6112
  593MOL0     H78255  -0.541  10.593   3.213 -1.0855  1.2044  2.1303
  593MOL0     H78256  -0.430  10.853   3.300  1.6535 -1.1491  2.5844
  593MOL0     H78257  -0.547  10.753   3.378  1.0446 -1.9119 -0.8012
  593MOL0     H78258  -0.245  10.346   4.070 -0.5304  0.7094  1.7954
  593MOL0     H78259  -0.347  10.283   4.285 -1.0477  2.5535 -1.0517
  593MOL0     H78260  -0.712  10.381   4.586 -1.4362 -0.4998 -0.6523
  593MOL0     H78261  -0.770  10.316   4.819  0.4490 -2.2818  2.8210
  593MOL0     H78262   0.139   8.454   5.476 -2.3243 -0.9262 -0.6078
  593MOL0     H78263   0.162   8.326   5.281 -0.8486 -0.1784 -2.7413
  593MOL0     H78264   0.229   8.427   4.772  0.3855  0.3292 -1.8554
  593MOL0     H78265   0.348   8.395   4.557 -0.1718 -3.0962 -1.5819
  593MOL0     H78266   0.558   8.264   4.322 -1.4133  3.6138 -1.2276
  593MOL0     H78267   0.408   8.300   4.408  1.9315  2.1409 -0.5740
  593MOL0     H78268   0.401   8.083   4.509 -2.4151 -2.5634 -1.1560
  593MOL0     H78269   0.387   8.069   4.344  1.7337 -1.7670 -1.3392
  593MOL0     H78270   0.542   7.906   4.435  0.0611 -0.4080  1.6059
  593MOL0     H78271   0.630   8.039   4.517 -0.3093  1.6054 -0.1879
  593MOL0     H78272   0.642   8.019   4.216  0.6445  0.3012 -0.4424
  593MOL0     H78273   0.733   8.128   4.320 -0.2804 -0.1833 -2.8734
  593MOL0     H78274   0.977   7.790   4.354  1.1179  0.9299  1.1456
  593MOL0     H78275   0.632   8.142   4.751 -0.4607  0.2142  1.3234
  593MOL0     H78276   0.497   8.146   4.952 -3.1118 -4.3181 -1.4489
  594MOL0     O78277   1.031   7.868   9.059  0.1239 -0.2694 -0.5491
  594MOL0     C78278   0.925   7.829   9.097  0.1787  1.0893  0.3274
  594MOL0     O78279   0.816   7.898   9.109  0.3723  0.3535  0.2177
  594MOL0     C78280   0.794   8.023   9.068  0.1772 -0.4746  1.0327
  594MOL0     C78281   0.880   8.128   9.071  0.2430 -0.9465  0.1568
  594MOL0     C78282   0.837   8.259   9.032  0.6677 -0.2529 -1.0050
  594MOL0     C78283   0.705   8.279   9.001  0.5883  0.0919  0.2314
  594MOL0     O78284   0.671   8.408   8.968 -0.4585 -0.8923  0.2488
  594MOL0     C78285   0.534   8.444   8.987 -0.2741 -0.1696 -0.5245
  594MOL0     C78286   0.499   8.442   9.142  0.2077  0.5439 -0.1141
  594MOL0     C78287   0.348   8.463   9.165 -0.2907 -0.7661 -0.7935
  594MOL0     C78288   0.313   8.452   9.318  0.0328  0.6220  0.2499
  594MOL0     C78289   0.170   8.483   9.354  0.3529  0.3120  0.7157
  594MOL0     C78290   0.139   8.432   9.492 -0.0898 -0.7829  1.5079
  594MOL0     C78291   0.031   8.519   9.564  0.2648  0.3526  0.0988
  594MOL0     C78292  -0.108   8.516   9.506  0.4154  0.0349  0.4301
  594MOL0     N78293  -0.165   8.382   9.522 -0.2878 -0.8687 -0.2163
  594MOL0     C78294  -0.247   8.331   9.627  0.1044  0.6906 -0.2779
  594MOL0     C78295  -0.271   8.195   9.600  0.0814  0.3673  0.7974
  594MOL0     C78296  -0.350   8.112   9.695 -0.5958 -0.4479 -1.6090
  594MOL0     C78297  -0.281   8.051   9.813 -0.7069 -0.6230 -0.7722
  594MOL0     C78298  -0.150   7.970   9.784  0.8696 -0.5811 -0.1877
  594MOL0     C78299  -0.009   8.045   9.800  0.9975  0.3840  0.5489
  594MOL0     O78300   0.018   8.091   9.930 -0.2324 -0.5710  0.0451
  594MOL0     C78301   0.038   8.003  10.031 -0.1148  0.4765 -0.4011
  594MOL0     C78302   0.065   7.867  10.014  0.2856 -0.1455  0.3663
  594MOL0     C78303   0.083   7.786  10.131 -0.1031  0.4727  0.1364
  594MOL0     C78304   0.074   7.846  10.257  0.4397 -0.8820 -0.2271
  594MOL0     C78305   0.094   7.770  10.378  0.7097 -0.3083  1.3045
  594MOL0     O78306   0.080   7.636  10.362  0.4290 -0.3286 -0.6763
  594MOL0     C78307   0.133   7.568  10.465  0.1676 -0.9123  0.0991
  594MOL0     C78308   0.272   7.560  10.472 -0.5802  0.0508  0.5717
  594MOL0     C78309   0.335   7.529  10.597 -0.2809  0.1795  0.9141
  594MOL0     C78310   0.269   7.496  10.714 -0.2053  0.6208  0.7939
  594MOL0     O78311   0.310   7.467  10.837  0.1559 -0.7268  0.0498
  594MOL0     C78312   0.430   7.548  10.870 -0.3672  0.8829  1.4489
  594MOL0     C78313   0.451   7.557  11.014 -0.5846 -0.3034 -0.4493
  594MOL0     C78314   0.470   7.415  11.073  0.6004 -0.5284 -0.0852
  594MOL0     C78315   0.475   7.429  11.229  0.1065  0.0272  0.7981
  594MOL0     C78316   0.474   7.283  11.289  0.4590 -0.0396 -0.4255
  594MOL0     C78317   0.329   7.222  11.290  0.4811 -0.0859 -0.9285
  594MOL0     C78318   0.343   7.078  11.340 -0.2172  0.3660  0.5954
  594MOL0     C78319   0.205   7.007  11.342  0.3450  0.2952 -0.4699
  594MOL0    Cl78320   0.190   6.899  11.212  0.0267  0.2399 -0.3006
  594MOL0     C78321   0.130   7.491  10.691 -0.5120 -0.6017 -0.2093
  594MOL0     C78322   0.060   7.529  10.579 -0.8596  0.3120 -0.1022
  594MOL0     O78323   0.121   7.824  10.488  0.3117 -0.4488  0.3765
  594MOL0     C78324   0.050   7.991  10.271 -0.2054  0.2387  0.0165
  594MOL0     C78325   0.026   8.064  10.153  0.3028  0.1049  1.2267
  594MOL0     N78326  -0.187   8.169   9.495 -0.6693 -0.6394 -0.1925
  594MOL0     N78327  -0.138   8.281   9.443  0.9814  0.6761  0.6591
  594MOL0     C78328   0.618   8.166   8.990 -0.4535  1.5452 -0.3217
  594MOL0     C78329   0.669   8.042   9.021 -0.7385 -0.6474  0.7966
  594MOL0     C78330   0.946   7.689   9.152 -0.6286 -0.3164  0.4086
  594MOL0     C78331   0.837   7.597   9.155  0.2790 -0.6338 -0.0412
  594MOL0     C78332   0.861   7.466   9.195 -1.0312  0.6183 -0.4116
  594MOL0     C78333   0.997   7.425   9.232  0.0484  0.0450  0.6620
  594MOL0     O78334   1.029   7.314   9.298  0.6801 -0.2785  0.5141
  594MOL0     C78335   0.925   7.217   9.332  0.5794  0.8321  1.0290
  594MOL0     C78336   0.986   7.083   9.394  0.0314 -0.3739  0.2077
  594MOL0     C78337   1.017   6.990   9.288 -0.5993  0.5779  0.0119
  594MOL0     C78338   1.099   6.866   9.326 -0.2052  0.3450  0.4238
  594MOL0     C78339   1.128   6.801   9.198  0.4072  0.0461 -0.8012
  594MOL0     C78340   1.164   6.747   9.096  1.1616 -0.2253 -0.5788
  594MOL0     C78341   1.096   7.527   9.216 -0.0676 -0.7931 -0.8226
  594MOL0     C78342   1.072   7.651   9.187 -0.1590 -1.4353 -0.7896
  594MOL0     H78343   0.983   8.115   9.102 -0.1110 -1.0616  1.3273
  594MOL0     H78344   0.914   8.335   9.039  1.7335 -1.1237 -2.5800
  594MOL0     H78345   0.462   8.380   8.935 -1.7553  2.7014 -2.2702
  594MOL0     H78346   0.524   8.546   8.948  2.0840  0.8032  1.1946
  594MOL0     H78347   0.551   8.505   9.214 -0.7232 -2.9109  3.9734
  594MOL0     H78348   0.521   8.344   9.185  2.7458  0.5729 -1.1927
  594MOL0     H78349   0.284   8.405   9.098 -1.7428  2.2682 -2.2181
  594MOL0     H78350   0.317   8.564   9.139  1.1196  0.2686  1.2307
  594MOL0     H78351   0.327   8.351   9.359 -4.9463  0.0392  1.2231
  594MOL0     H78352   0.372   8.527   9.371  1.3617  1.5035 -2.2953
  594MOL0     H78353   0.095   8.452   9.281  0.5875 -1.4511  1.1656
  594MOL0     H78354   0.173   8.592   9.361  1.2473  0.1905  3.2006
  594MOL0     H78355   0.233   8.438   9.548  1.5805 -3.0541 -0.8106
  594MOL0     H78356   0.104   8.328   9.499  0.3595 -1.2086 -1.5389
  594MOL0     H78357   0.019   8.500   9.671 -1.1731  1.5965  0.1799
  594MOL0     H78358   0.059   8.624   9.550 -1.0486  0.7877  0.6291
  594MOL0     H78359  -0.112   8.559   9.406  0.7481 -1.0281 -0.0565
  594MOL0     H78360  -0.180   8.575   9.563  0.2010  1.4931 -1.2696
  594MOL0     H78361  -0.275   8.391   9.713 -0.7828 -2.2178  1.6248
  594MOL0     H78362  -0.393   8.030   9.636 -2.1784 -0.6947 -0.1990
  594MOL0     H78363  -0.434   8.172   9.732  1.2154  1.7048 -0.7988
  594MOL0     H78364  -0.354   7.990   9.867 -2.0175  2.0112  0.6312
  594MOL0     H78365  -0.249   8.135   9.874 -0.7299  2.1159 -4.2073
  594MOL0     H78366  -0.148   7.879   9.845  1.9629 -1.4052 -1.4166
  594MOL0     H78367  -0.156   7.951   9.677 -1.1055  0.3402 -0.2831
  594MOL0     H78368  -0.016   8.130   9.732 -0.3401 -1.9884 -2.5117
  594MOL0     H78369   0.069   7.979   9.761 -0.8118 -1.2810 -0.4164
  594MOL0     H78370   0.068   7.828   9.913  1.3172 -0.1935  0.4053
  594MOL0     H78371   0.105   7.680  10.120  1.8583  0.8152  0.3629
  594MOL0     H78372   0.334   7.593  10.389 -1.1914 -0.5298 -0.1369
  594MOL0     H78373   0.443   7.524  10.602 -0.0755 -0.3249 -2.0819
  594MOL0     H78374   0.429   7.652  10.835  2.0146  0.3756 -0.3553
  594MOL0     H78375   0.520   7.503  10.827  0.5229 -0.8663  4.8066
  594MOL0     H78376   0.363   7.610  11.052  1.5999  2.4388  1.2281
  594MOL0     H78377   0.540   7.619  11.027 -1.6919  1.4438 -0.8550
  594MOL0     H78378   0.556   7.357  11.035 -0.2170 -0.9927 -1.2880
  594MOL0     H78379   0.386   7.352  11.042 -0.8066  0.5826  1.3194
  594MOL0     H78380   0.567   7.481  11.258 -0.6818  0.9654  1.6762
  594MOL0     H78381   0.385   7.481  11.262 -3.5028 -3.0390 -3.0685
  594MOL0     H78382   0.506   7.284  11.394  0.8835  2.6349 -0.5084
  594MOL0     H78383   0.554   7.231  11.237  1.7034  0.3245  1.0192
  594MOL0     H78384   0.282   7.227  11.191  0.6080 -2.0952 -1.1162
  594MOL0     H78385   0.280   7.285  11.365  0.9196 -0.6824 -0.1298
  594MOL0     H78386   0.394   7.031  11.255 -1.0375 -0.1415  0.3710
  594MOL0     H78387   0.410   7.075  11.426  4.8675  1.8919 -2.8405
  594MOL0     H78388   0.125   7.078  11.321 -0.5143 -0.6873 -0.5948
  594MOL0     H78389   0.163   6.968  11.435 -1.9834  2.4468 -0.5053
  594MOL0     H78390   0.084   7.465  10.786  1.5040  1.9182  1.6299
  594MOL0     H78391  -0.046   7.548  10.572 -0.5532  2.0362 -0.6601
  594MOL0     H78392   0.042   8.032  10.371 -1.7238  0.2706 -0.1058
  594MOL0     H78393   0.006   8.170  10.144  5.8393  1.3496 -0.2259
  594MOL0     H78394   0.519   8.169   8.947  0.5101  0.1868 -2.8714
  594MOL0     H78395   0.595   7.963   9.023 -0.9076 -0.5349 -0.2839
  594MOL0     H78396   0.732   7.618   9.137 -0.7127 -4.9229 -0.4597
  594MOL0     H78397   0.778   7.397   9.209 -2.8933  3.0147  1.3599
  594MOL0     H78398   0.888   7.188   9.233  0.6291  1.1036  0.9301
  594MOL0     H78399   0.843   7.252   9.394 -1.9936 -0.6818 -1.2780
  594MOL0     H78400   1.073   7.102   9.459 -1.4071  1.3700  1.7274
  594MOL0     H78401   0.916   7.024   9.454 -2.3225 -0.3242 -2.2934
  594MOL0     H78402   1.062   7.050   9.209 -3.3800  2.0594 -0.5946
  594MOL0     H78403   0.923   6.954   9.243 -0.1380 -1.1442  0.3524
  594MOL0     H78404   1.179   6.915   9.383 -2.1996  4.1460  0.2775
  594MOL0     H78405   1.051   6.791   9.389  0.4451 -1.2402 -0.9065
  594MOL0     H78406   1.198   6.702   9.006  2.5809  0.6599 -0.5061
  594MOL0     H78407   1.200   7.503   9.232 -0.4783 -2.9158 -0.9359
  594MOL0     H78408   1.145   7.730   9.203 -0.9261 -1.2639  2.9272
  595MOL0     O78409   3.905   5.902  10.210 -0.4465 -0.0133  0.4183
  595MOL0     C78410   3.895   5.884  10.335 -1.5807 -0.1871  0.3517
  595MOL0     O78411   3.836   5.775  10.386  0.8861  0.0236 -0.2384
  595MOL0     C78412   3.777   5.682  10.300 -0.5415 -0.4926  0.2401
  595MOL0     C78413   3.642   5.692  10.267 -0.3751  0.5324  0.4163
  595MOL0     C78414   3.583   5.596  10.191  0.2042  0.5259 -0.0277
  595MOL0     C78415   3.654   5.487  10.148 -0.6238  0.3121  0.5398
  595MOL0     O78416   3.593   5.375  10.102 -0.1006  0.3783  0.0554
  595MOL0     C78417   3.460   5.381  10.041 -0.3232 -0.0702 -1.1057
  595MOL0     C78418   3.432   5.249   9.989  0.4090  0.0712  1.1109
  595MOL0     C78419   3.529   5.189   9.893 -0.7073  0.5108 -0.3425
  595MOL0     C78420   3.485   5.050   9.822 -0.9745 -0.6337  0.8061
  595MOL0     C78421   3.571   5.025   9.690  0.3346  0.2468 -1.1463
  595MOL0     C78422   3.537   4.898   9.617  0.3559 -0.1869  0.7040
  595MOL0     C78423   3.388   4.887   9.571  0.2549 -0.0063  0.4062
  595MOL0     C78424   3.354   4.793   9.444 -0.2027 -0.0799 -0.2091
  595MOL0     N78425   3.393   4.650   9.476  0.6845 -0.1527  1.0674
  595MOL0     C78426   3.449   4.559   9.387 -0.6977  0.2222 -0.6573
  595MOL0     C78427   3.440   4.438   9.466  0.4246 -0.4081  0.9780
  595MOL0     C78428   3.456   4.296   9.414 -0.0590 -0.0623 -0.5659
  595MOL0     C78429   3.581   4.255   9.327  0.2181  0.5510  0.5243
  595MOL0     C78430   3.693   4.213   9.421 -0.0971  0.9400 -0.0171
  595MOL0     C78431   3.815   4.180   9.334 -1.0273 -0.0910 -0.2590
  595MOL0     O78432   3.803   4.107   9.206  0.0351  0.1192  0.7811
  595MOL0     C78433   3.740   3.983   9.191  0.5363  0.1018  0.9539
  595MOL0     C78434   3.723   3.889   9.292  0.8483 -0.2465 -0.4803
  595MOL0     C78435   3.667   3.760   9.271 -0.6167 -0.6327  0.2320
  595MOL0     C78436   3.647   3.725   9.134  0.7514 -0.0470 -0.2597
  595MOL0     C78437   3.612   3.579   9.110  0.0972 -0.8720  0.2821
  595MOL0     O78438   3.599   3.486   9.206 -0.4080 -0.5740 -0.1481
  595MOL0     C78439   3.618   3.354   9.177 -0.7414 -0.4648  0.4107
  595MOL0     C78440   3.506   3.272   9.182 -0.4108  0.6538 -0.4012
  595MOL0     C78441   3.502   3.135   9.137  0.3740 -0.6487  0.1846
  595MOL0     C78442   3.614   3.088   9.068 -0.0726 -0.6860 -0.4317
  595MOL0     O78443   3.623   2.965   9.013  0.7507  0.4163  0.0505
  595MOL0     C78444   3.503   2.878   9.004 -0.2148 -0.8051  0.2938
  595MOL0     C78445   3.520   2.752   8.904 -0.7361  0.6972 -0.2149
  595MOL0     C78446   3.523   2.786   8.753 -0.6120  0.0551 -0.7486
  595MOL0     C78447   3.639   2.878   8.708  0.0973 -0.0850 -0.3980
  595MOL0     C78448   3.614   2.930   8.566  0.2369  0.5804 -0.0594
  595MOL0     C78449   3.591   2.823   8.467 -0.2361  0.2519  0.6811
  595MOL0     C78450   3.606   2.853   8.323 -0.2672  0.3289  0.7656
  595MOL0     C78451   3.655   2.740   8.230 -0.2314 -0.0724  0.1119
  595MOL0    Cl78452   3.839   2.752   8.191  0.3073 -0.0391 -0.3626
  595MOL0     C78453   3.736   3.170   9.056  0.6548 -0.1445  1.0533
  595MOL0     C78454   3.736   3.302   9.118  0.3123 -0.1250  0.4321
  595MOL0     O78455   3.595   3.549   8.992  0.0859  0.6133 -0.2178
  595MOL0     C78456   3.661   3.817   9.034 -0.4857 -0.3367  1.0775
  595MOL0     C78457   3.698   3.945   9.065 -0.4925  0.1378  0.1657
  595MOL0     N78458   3.415   4.472   9.596 -0.5663  0.2510 -0.2921
  595MOL0     N78459   3.375   4.597   9.599  0.4899 -0.1303 -0.3991
  595MOL0     C78460   3.792   5.477  10.169 -0.0346 -0.7241 -0.1366
  595MOL0     C78461   3.852   5.576  10.242 -0.2475  0.4141  0.7509
  595MOL0     C78462   3.936   5.993  10.427  0.2267  0.2371 -0.1392
  595MOL0     C78463   3.916   5.976  10.563  0.8635  0.1841 -1.3554
  595MOL0     C78464   3.953   6.074  10.657  0.2734 -0.7701 -0.4697
  595MOL0     C78465   4.024   6.182  10.615 -0.5316  0.2832  0.1632
  595MOL0     O78466   4.077   6.268  10.710  0.1943 -0.3890  0.1166
  595MOL0     C78467   4.163   6.375  10.684  0.5084  0.3415  0.4803
  595MOL0     C78468   4.238   6.436  10.810  0.6469 -0.5004  0.9123
  595MOL0     C78469   4.358   6.528  10.767 -0.7327 -0.3596  0.0986
  595MOL0     C78470   4.337   6.672  10.802  0.4884 -0.1182 -1.1217
  595MOL0     C78471   4.378   6.714  10.939  0.0437 -0.5697  0.4810
  595MOL0     C78472   4.399   6.755  11.045  0.4510  0.0588  1.0058
  595MOL0     C78473   4.040   6.199  10.477 -0.5341 -0.5269 -0.5943
  595MOL0     C78474   4.003   6.106  10.381  0.3610  0.1137 -0.5047
  595MOL0     H78475   3.587   5.775  10.310 -3.1757 -0.8333 -0.3105
  595MOL0     H78476   3.474   5.603  10.187 -0.0494  0.4369  3.4533
  595MOL0     H78477   3.469   5.460   9.966 -1.3933  1.2782  0.1312
  595MOL0     H78478   3.390   5.415  10.118  1.0847  5.5937 -1.8710
  595MOL0     H78479   3.337   5.260   9.936  1.6355  0.1523 -1.1929
  595MOL0     H78480   3.414   5.179  10.072  1.2159 -1.2378  0.2285
  595MOL0     H78481   3.622   5.172   9.948 -0.9622 -1.6832 -0.4763
  595MOL0     H78482   3.542   5.267   9.818 -0.8541  0.4823 -0.3980
  595MOL0     H78483   3.493   4.964   9.890  0.3517 -1.1075  0.0774
  595MOL0     H78484   3.378   5.050   9.799 -1.1142  0.0592  1.3867
  595MOL0     H78485   3.672   5.021   9.730 -0.1399  1.1767  0.2114
  595MOL0     H78486   3.561   5.110   9.622 -2.2620  1.1320  0.1926
  595MOL0     H78487   3.549   4.824   9.696 -1.3678  1.9992  3.2001
  595MOL0     H78488   3.607   4.878   9.535  0.9814  0.9777  0.9211
  595MOL0     H78489   3.321   4.854   9.651 -1.2263 -0.7407 -1.0656
  595MOL0     H78490   3.360   4.989   9.543  0.5476  0.4264  1.6458
  595MOL0     H78491   3.412   4.838   9.363 -1.8030  2.1766 -0.1868
  595MOL0     H78492   3.248   4.811   9.429 -0.6972  0.8361  3.3592
  595MOL0     H78493   3.454   4.566   9.278 -1.8240  0.0499 -0.7288
  595MOL0     H78494   3.373   4.295   9.342 -1.0071  1.6703  0.4296
  595MOL0     H78495   3.424   4.223   9.490  0.4076  0.4032  0.0897
  595MOL0     H78496   3.610   4.329   9.252 -1.1744  1.5498  0.9287
  595MOL0     H78497   3.551   4.159   9.283  1.8963 -0.0523  0.6509
  595MOL0     H78498   3.711   4.287   9.498 -2.4581 -0.8207  2.4302
  595MOL0     H78499   3.665   4.118   9.468  0.0107  0.5396 -0.7353
  595MOL0     H78500   3.877   4.112   9.393 -2.5259 -0.5540  0.8510
  595MOL0     H78501   3.872   4.270   9.310 -0.5085 -0.9687 -2.5410
  595MOL0     H78502   3.733   3.899   9.399 -3.9375 -1.4081  0.3459
  595MOL0     H78503   3.633   3.708   9.361 -0.1744  1.6823  1.8200
  595MOL0     H78504   3.424   3.318   9.235  1.0707  0.9134  1.7772
  595MOL0     H78505   3.408   3.083   9.147 -0.2200  0.6910  2.0038
  595MOL0     H78506   3.430   2.941   8.954  0.0067 -0.8999 -0.1563
  595MOL0     H78507   3.476   2.841   9.103 -3.6486  0.1473 -0.1732
  595MOL0     H78508   3.441   2.684   8.936 -0.0753  0.0847  0.1401
  595MOL0     H78509   3.622   2.714   8.918 -1.8420 -3.5683 -2.1598
  595MOL0     H78510   3.426   2.820   8.714  0.2010  2.2295 -0.9950
  595MOL0     H78511   3.532   2.694   8.693  0.5229 -0.1185 -0.3207
  595MOL0     H78512   3.651   2.964   8.775 -1.5325  0.1254 -0.3431
  595MOL0     H78513   3.731   2.820   8.720 -1.2466 -1.8427  2.3146
  595MOL0     H78514   3.698   2.991   8.532  2.2182 -1.6951  0.4841
  595MOL0     H78515   3.522   2.989   8.570  0.0275  0.3495 -1.0849
  595MOL0     H78516   3.497   2.769   8.483 -0.0634 -1.2713 -2.6570
  595MOL0     H78517   3.669   2.748   8.485 -0.5910 -0.8834 -2.0364
  595MOL0     H78518   3.510   2.882   8.281  0.6808  1.3496 -0.8217
  595MOL0     H78519   3.668   2.942   8.302 -0.3756  0.1679 -0.2803
  595MOL0     H78520   3.608   2.726   8.133  3.1202 -1.0291 -1.5516
  595MOL0     H78521   3.633   2.647   8.283 -0.9747  1.4629  2.6603
  595MOL0     H78522   3.823   3.132   9.003 -0.3346  0.0627 -0.7917
  595MOL0     H78523   3.821   3.370   9.123 -1.2761  1.9052  1.3500
  595MOL0     H78524   3.637   3.785   8.933 -0.2738  1.1390  0.5270
  595MOL0     H78525   3.726   4.019   8.990  3.4760 -0.4033  0.8626
  595MOL0     H78526   3.856   5.393  10.145  2.0812  0.8558 -0.3281
  595MOL0     H78527   3.960   5.567  10.255  0.7265  1.4233 -4.5976
  595MOL0     H78528   3.860   5.890  10.597  2.7716 -1.6463 -2.6228
  595MOL0     H78529   3.932   6.068  10.763  1.4984 -1.4978 -0.2411
  595MOL0     H78530   4.103   6.446  10.626 -1.7974 -0.4308  1.7954
  595MOL0     H78531   4.237   6.334  10.615  1.6579  1.1609  1.1814
  595MOL0     H78532   4.163   6.484  10.875 -0.1061 -2.0166  1.2065
  595MOL0     H78533   4.280   6.358  10.873 -2.6677 -2.3799  1.0094
  595MOL0     H78534   4.364   6.523  10.658 -0.2287  0.2568  0.0932
  595MOL0     H78535   4.457   6.491  10.797 -0.1353 -0.6648 -2.0781
  595MOL0     H78536   4.378   6.738  10.725 -0.8617  1.3826 -0.5952
  595MOL0     H78537   4.230   6.695  10.793  0.6544  0.4585 -1.6476
  595MOL0     H78538   4.381   6.798  11.141 -0.9168  0.5026  0.5827
  595MOL0     H78539   4.094   6.286  10.441  0.9692 -1.6410 -1.1719
  595MOL0     H78540   4.020   6.120  10.274 -0.1404 -0.1867 -0.6249
  596MOL0     O78541  11.284   1.504   6.563 -0.7413 -0.1107  0.2884
  596MOL0     C78542  11.397   1.457   6.579  0.2470 -0.2119  0.4281
  596MOL0     O78543  11.514   1.515   6.545 -0.4360 -0.0285 -0.5113
  596MOL0     C78544  11.507   1.651   6.513  1.0534 -0.0832  0.7039
  596MOL0     C78545  11.528   1.744   6.615  0.1776 -0.1764  0.7599
  596MOL0     C78546  11.504   1.886   6.586 -0.0355 -0.3876 -0.0160
  596MOL0     C78547  11.443   1.917   6.469 -0.6623  0.1018  1.1531
  596MOL0     O78548  11.418   2.052   6.446  0.2439  0.2258  0.7453
  596MOL0     C78549  11.293   2.098   6.490  0.2342 -0.2838 -0.4305
  596MOL0     C78550  11.270   2.101   6.642 -0.4186  0.3218 -0.6022
  596MOL0     C78551  11.314   2.241   6.695  0.0511 -0.2739 -1.1184
  596MOL0     C78552  11.287   2.257   6.851 -0.0673  0.5819  0.2423
  596MOL0     C78553  11.328   2.401   6.894  0.5709 -0.0020  0.2387
  596MOL0     C78554  11.479   2.430   6.872  0.7780  0.2182  0.3675
  596MOL0     C78555  11.536   2.570   6.921 -0.2234 -0.3688  0.1268
  596MOL0     C78556  11.545   2.596   7.078  0.3150  0.1637 -0.2046
  596MOL0     N78557  11.676   2.627   7.119  0.5605  0.8170 -0.1714
  596MOL0     C78558  11.725   2.742   7.183  0.5947  0.3840 -0.6531
  596MOL0     C78559  11.850   2.708   7.215 -0.3963  0.3585  0.4264
  596MOL0     C78560  11.961   2.790   7.281 -0.6480  0.8119  0.5589
  596MOL0     C78561  12.066   2.829   7.166 -0.2384  0.2010 -0.4497
  596MOL0     C78562  12.010   2.942   7.074 -1.2608 -0.2259 -0.2931
  596MOL0     C78563  12.108   2.996   6.968 -0.2222  0.3648 -0.2210
  596MOL0     O78564  12.105   3.137   6.981  0.3566 -0.4718 -1.1240
  596MOL0     C78565  12.036   3.211   6.884  0.6969  0.8333 -0.2531
  596MOL0     C78566  11.936   3.154   6.799 -0.0224 -1.1903  0.1588
  596MOL0     C78567  11.891   3.242   6.692 -0.3614 -0.8880 -0.2804
  596MOL0     C78568  11.943   3.379   6.684 -1.3260  0.5169 -0.0855
  596MOL0     C78569  11.901   3.466   6.570  0.0810 -0.7984 -0.7665
  596MOL0     O78570  11.907   3.601   6.606 -0.3446 -0.3594 -0.2932
  596MOL0     C78571  11.915   3.701   6.514 -0.2570  0.2356 -0.4433
  596MOL0     C78572  11.960   3.699   6.386 -0.4079  1.0645  0.2141
  596MOL0     C78573  11.932   3.807   6.301 -0.1073  0.0516  0.7303
  596MOL0     C78574  11.884   3.927   6.344 -0.0348 -1.0009 -0.1408
  596MOL0     O78575  11.861   4.035   6.259  0.4248  0.5484  0.0195
  596MOL0     C78576  11.986   4.094   6.228 -0.0249  0.1494  0.2410
  596MOL0     C78577  11.976   4.204   6.118 -0.2681 -0.4141  0.0076
  596MOL0     C78578  11.873   4.320   6.140  0.2403 -0.3845 -0.4678
  596MOL0     C78579  11.884   4.432   6.031 -0.5534  0.9287  0.9985
  596MOL0     C78580  11.832   4.558   6.082  0.8442 -0.6050 -0.2173
  596MOL0     C78581  11.811   4.666   5.972  0.8653  0.3106  0.0469
  596MOL0     C78582  11.801   4.809   6.026  0.0438  0.0430 -0.2313
  596MOL0     C78583  11.854   4.920   5.932 -0.3430 -0.2285  0.9733
  596MOL0    Cl78584  11.771   4.955   5.789  0.4316  0.0454  0.4088
  596MOL0     C78585  11.845   3.930   6.479  0.3258  0.5945 -1.2881
  596MOL0     C78586  11.862   3.818   6.562  0.9132  0.4786  0.1839
  596MOL0     O78587  11.843   3.417   6.478 -0.4742  0.0646  0.8283
  596MOL0     C78588  12.026   3.420   6.775 -0.6907 -0.4566  0.6422
  596MOL0     C78589  12.079   3.342   6.882  1.0943 -0.2337 -0.4497
  596MOL0     N78590  11.881   2.588   7.155 -0.5923 -0.3238 -0.3137
  596MOL0     N78591  11.776   2.542   7.106  1.2906  0.5737 -0.8508
  596MOL0     C78592  11.417   1.817   6.371 -0.1187  0.2513  0.5298
  596MOL0     C78593  11.441   1.687   6.393  0.5169  0.7316  0.5435
  596MOL0     C78594  11.405   1.327   6.642  0.1572 -0.1029  0.1122
  596MOL0     C78595  11.282   1.252   6.660  0.0142  0.4384  0.6531
  596MOL0     C78596  11.278   1.125   6.718  0.0738  0.3822  0.0982
  596MOL0     C78597  11.389   1.068   6.765  0.7360  0.7781 -0.2703
  596MOL0     O78598  11.383   0.951   6.831 -0.5456  0.8204 -0.5431
  596MOL0     C78599  11.494   0.868   6.853  0.4002  0.8578 -0.7169
  596MOL0     C78600  11.553   0.902   6.980 -1.0095 -0.4544  0.5573
  596MOL0     C78601  11.592   0.786   7.072 -0.4690  0.2213  0.1734
  596MOL0     C78602  11.485   0.728   7.162  0.3784 -0.2370  0.0847
  596MOL0     C78603  11.365   0.661   7.089 -0.0673 -0.9140 -0.5682
  596MOL0     C78604  11.273   0.601   7.044 -0.5598 -0.2100  0.0547
  596MOL0     C78605  11.507   1.136   6.750 -0.6798  1.0564  0.7121
  596MOL0     C78606  11.516   1.264   6.693 -0.8733  0.3531  0.2017
  596MOL0     H78607  11.571   1.707   6.708  2.9341  1.6970  0.3510
  596MOL0     H78608  11.550   1.963   6.648  0.1558  1.0832 -1.9105
  596MOL0     H78609  11.213   2.038   6.445 -0.4375  1.6997 -2.0307
  596MOL0     H78610  11.289   2.199   6.448  1.6244 -0.6363 -1.4786
  596MOL0     H78611  11.322   2.016   6.688 -2.7216 -0.5974  0.4248
  596MOL0     H78612  11.164   2.086   6.664 -0.7503 -0.7735 -2.6002
  596MOL0     H78613  11.259   2.318   6.640 -1.0048  0.5414  0.9614
  596MOL0     H78614  11.423   2.237   6.684  0.2698  3.1881 -1.2483
  596MOL0     H78615  11.180   2.237   6.864  0.0386  0.5643  1.1212
  596MOL0     H78616  11.349   2.188   6.910  1.4867  0.4121 -1.4994
  596MOL0     H78617  11.309   2.416   7.001  1.8756 -1.2152  0.6640
  596MOL0     H78618  11.259   2.474   6.851  1.0611  1.2006  1.4077
  596MOL0     H78619  11.497   2.419   6.765  2.6708 -0.3333  0.7023
  596MOL0     H78620  11.541   2.349   6.914 -1.2199 -1.7623 -0.2987
  596MOL0     H78621  11.629   2.587   6.866 -0.6870 -2.2863 -1.3576
  596MOL0     H78622  11.470   2.650   6.886  0.4125  1.2641  2.4094
  596MOL0     H78623  11.511   2.501   7.120  0.5675 -0.7064 -1.8575
  596MOL0     H78624  11.481   2.679   7.108  0.1143 -0.3893  0.9382
  596MOL0     H78625  11.667   2.834   7.192  0.0945  0.8827 -5.8331
  596MOL0     H78626  12.023   2.739   7.355  1.1320  1.2212 -0.5621
  596MOL0     H78627  11.918   2.876   7.334  0.6419  0.7196  1.8217
  596MOL0     H78628  12.081   2.751   7.090  0.5912  0.6557 -0.7647
  596MOL0     H78629  12.159   2.857   7.216  1.0786 -3.3727 -0.6057
  596MOL0     H78630  11.915   2.914   7.027 -0.5162 -0.4980 -1.6859
  596MOL0     H78631  11.984   3.030   7.133  1.1401  0.8259 -0.6920
  596MOL0     H78632  12.086   2.956   6.868  2.0668  1.7689 -1.3902
  596MOL0     H78633  12.210   2.963   6.988 -0.0502  1.8909  1.7091
  596MOL0     H78634  11.893   3.054   6.800 -0.1503 -1.1729 -1.1711
  596MOL0     H78635  11.817   3.203   6.623  0.0945 -3.8904  0.7931
  596MOL0     H78636  12.017   3.609   6.365 -1.8712  0.0155  0.5986
  596MOL0     H78637  11.951   3.800   6.195 -0.6784  2.0380  0.4654
  596MOL0     H78638  12.057   4.011   6.220 -1.4588 -1.9191  5.1394
  596MOL0     H78639  12.010   4.155   6.316 -1.2367  1.0176 -0.0073
  596MOL0     H78640  11.979   4.159   6.018  1.8162  1.3937 -0.8189
  596MOL0     H78641  12.069   4.261   6.122 -0.5866  0.4775 -2.9386
  596MOL0     H78642  11.889   4.361   6.240  3.8526 -1.9369 -0.2836
  596MOL0     H78643  11.769   4.285   6.141  0.1455 -0.1030 -0.2463
  596MOL0     H78644  11.987   4.445   5.995 -0.3327 -0.4641  1.0667
  596MOL0     H78645  11.828   4.405   5.941 -1.3978  3.0919  0.8257
  596MOL0     H78646  11.897   4.594   6.162 -0.1925 -1.0933  0.8766
  596MOL0     H78647  11.736   4.536   6.129  0.2200 -0.3411 -1.3601
  596MOL0     H78648  11.727   4.642   5.907  3.5696  0.7823 -3.9761
  596MOL0     H78649  11.901   4.654   5.911 -0.7934  1.1747 -2.7251
  596MOL0     H78650  11.693   4.815   6.046 -0.5503 -2.1821 -2.2246
  596MOL0     H78651  11.855   4.817   6.121 -1.6444  0.8535  0.7152
  596MOL0     H78652  11.962   4.908   5.917 -0.1826 -2.9274  3.2740
  596MOL0     H78653  11.856   5.018   5.980 -2.9372  1.2613 -1.6836
  596MOL0     H78654  11.805   4.025   6.513 -0.2512  0.0917 -0.5033
  596MOL0     H78655  11.811   3.815   6.658  2.0470 -0.0473  0.7828
  596MOL0     H78656  12.062   3.522   6.777  0.3075 -0.8004  0.9582
  596MOL0     H78657  12.152   3.395   6.943  0.0989  0.9953 -0.2822
  596MOL0     H78658  11.375   1.845   6.275 -1.7082  1.7605  1.6086
  596MOL0     H78659  11.416   1.613   6.317 -2.5428  3.1913 -1.1256
  596MOL0     H78660  11.187   1.294   6.627 -0.1688 -0.5615 -0.1249
  596MOL0     H78661  11.191   1.062   6.734  1.4151 -1.3293  1.0394
  596MOL0     H78662  11.565   0.872   6.770 -0.4192  1.5603 -1.4046
  596MOL0     H78663  11.446   0.770   6.860 -2.6501  2.1728 -1.4736
  596MOL0     H78664  11.646   0.950   6.948 -0.6564 -2.1525 -1.1159
  596MOL0     H78665  11.497   0.983   7.029  0.5215  1.6375 -0.9476
  596MOL0     H78666  11.677   0.810   7.136 -2.1165  2.2785  1.7176
  596MOL0     H78667  11.626   0.707   7.004 -3.2923  1.9325 -3.5835
  596MOL0     H78668  11.525   0.658   7.235  1.3517  2.8047  2.6814
  596MOL0     H78669  11.442   0.807   7.223  2.4768  1.7322 -0.8671
  596MOL0     H78670  11.174   0.566   7.023 -0.0847 -0.8763 -1.1652
  596MOL0     H78671  11.591   1.083   6.794 -0.1583  1.2765  0.0034
  596MOL0     H78672  11.612   1.314   6.693 -0.1478 -0.7923 -2.7406
  597MOL0     O78673   2.996   3.935   0.626 -0.7562 -0.2499 -0.1327
  597MOL0     C78674   3.015   4.055   0.643 -0.5015  0.6982 -0.5117
  597MOL0     O78675   3.127   4.115   0.677  0.3674 -0.2131 -0.6092
  597MOL0     C78676   3.234   4.046   0.726 -0.3381 -0.4152  1.0860
  597MOL0     C78677   3.316   3.966   0.649  0.1205 -0.1302 -0.3766
  597MOL0     C78678   3.407   3.868   0.698 -0.6179  0.2908 -0.6339
  597MOL0     C78679   3.424   3.871   0.840  0.3475 -0.0219 -0.7712
  597MOL0     O78680   3.508   3.766   0.886 -0.0173  0.5518 -0.5120
  597MOL0     C78681   3.506   3.727   1.028  0.6548  0.3259  0.0696
  597MOL0     C78682   3.639   3.655   1.040  0.8433  0.2088  0.2822
  597MOL0     C78683   3.745   3.751   1.074 -0.9154 -0.4675  0.7335
  597MOL0     C78684   3.893   3.715   1.083  0.9525 -0.7703  0.2880
  597MOL0     C78685   3.990   3.828   1.067  0.2987 -0.4368 -0.7039
  597MOL0     C78686   3.996   3.921   1.186 -0.6156  0.6378  0.5701
  597MOL0     C78687   4.073   3.859   1.312 -0.6097 -0.2771 -1.1258
  597MOL0     C78688   4.053   3.951   1.436  0.1845  0.0170  0.2259
  597MOL0     N78689   4.093   3.877   1.559  0.1123 -1.0586 -0.0529
  597MOL0     C78690   4.047   3.750   1.603  0.2769 -0.2808  0.5653
  597MOL0     C78691   4.067   3.747   1.734  0.2381 -0.3214 -0.5258
  597MOL0     C78692   4.025   3.623   1.822 -0.2217  0.4747  1.0107
  597MOL0     C78693   3.987   3.653   1.961 -0.7376 -0.1668  0.4372
  597MOL0     C78694   3.868   3.758   1.960  0.8233  0.0841 -0.2932
  597MOL0     C78695   3.778   3.752   2.087 -0.2181 -0.1761 -0.0639
  597MOL0     O78696   3.719   3.628   2.135  0.3480 -0.0128  0.2512
  597MOL0     C78697   3.682   3.538   2.046  0.0719  1.1262 -0.1326
  597MOL0     C78698   3.705   3.403   2.077 -0.0057  0.4616  0.0474
  597MOL0     C78699   3.673   3.294   1.990  0.0173  0.2257 -0.2593
  597MOL0     C78700   3.599   3.324   1.878  0.1561  0.0639  0.4039
  597MOL0     C78701   3.550   3.217   1.784  0.7726  0.2747 -0.7900
  597MOL0     O78702   3.427   3.227   1.731 -0.5343  0.3863 -0.3272
  597MOL0     C78703   3.387   3.158   1.627 -0.2490 -0.2337 -0.7749
  597MOL0     C78704   3.457   3.064   1.554 -0.0076 -0.3417 -0.6846
  597MOL0     C78705   3.390   2.992   1.458  1.0798  0.4919 -0.5442
  597MOL0     C78706   3.261   3.020   1.425  0.0544  0.1325  0.2357
  597MOL0     O78707   3.215   2.923   1.333  0.4525  0.0384 -0.0663
  597MOL0     C78708   3.093   2.928   1.259 -0.3161  0.0679  0.5034
  597MOL0     C78709   2.975   2.852   1.320 -0.2341  0.2839 -0.9954
  597MOL0     C78710   2.845   2.928   1.342  0.0066 -0.2045 -0.2846
  597MOL0     C78711   2.760   2.849   1.431 -0.9320  0.7143 -0.3257
  597MOL0     C78712   2.616   2.900   1.462  0.4021  0.9705 -0.2025
  597MOL0     C78713   2.524   2.788   1.543 -0.7474  0.5328  0.1597
  597MOL0     C78714   2.471   2.680   1.462  0.8765  0.5051 -0.2747
  597MOL0     C78715   2.344   2.719   1.386 -0.3049 -0.2101  0.4509
  597MOL0    Cl78716   2.208   2.692   1.496  0.8408 -0.7175 -0.1820
  597MOL0     C78717   3.199   3.126   1.481 -0.2484  0.9211 -0.3664
  597MOL0     C78718   3.265   3.193   1.585  0.1999 -0.3110 -0.4062
  597MOL0     O78719   3.636   3.134   1.753  0.4598  0.3663  0.0911
  597MOL0     C78720   3.566   3.466   1.853  0.1740 -0.0610  0.4298
  597MOL0     C78721   3.603   3.568   1.937  0.7537  0.3962 -0.2717
  597MOL0     N78722   4.137   3.850   1.777 -0.2746  0.0705  1.2160
  597MOL0     N78723   4.154   3.927   1.668 -0.0628 -0.1709 -0.5991
  597MOL0     C78724   3.360   3.967   0.922 -0.0565  0.6867  0.1666
  597MOL0     C78725   3.259   4.049   0.864  1.2160  0.4643  0.4921
  597MOL0     C78726   2.888   4.135   0.610  0.2524  1.3417  0.1874
  597MOL0     C78727   2.872   4.265   0.651  0.2684 -0.4730  0.5941
  597MOL0     C78728   2.752   4.336   0.636 -0.4131  0.0081  0.2557
  597MOL0     C78729   2.640   4.271   0.593  0.0264 -0.6635  0.8930
  597MOL0     O78730   2.522   4.344   0.569  0.1770 -0.4120 -0.7273
  597MOL0     C78731   2.481   4.336   0.427 -0.4705 -0.0164  0.6814
  597MOL0     C78732   2.494   4.472   0.359 -0.3357  0.0726 -1.0340
  597MOL0     C78733   2.450   4.580   0.450  0.2736  0.3529  0.4375
  597MOL0     C78734   2.468   4.723   0.392  0.6925 -0.6560 -0.8317
  597MOL0     C78735   2.605   4.772   0.374 -0.0201 -0.4444 -0.6811
  597MOL0     C78736   2.722   4.808   0.371  0.2159 -0.6485 -0.3687
  597MOL0     C78737   2.644   4.130   0.565 -0.0647 -0.2788  0.8957
  597MOL0     C78738   2.769   4.063   0.569  0.4576  0.3403  0.2813
  597MOL0     H78739   3.306   3.978   0.541 -1.2471  2.0108 -0.0645
  597MOL0     H78740   3.456   3.797   0.632  0.1107 -0.6562  0.8727
  597MOL0     H78741   3.425   3.658   1.052  0.3320  0.9984  1.0225
  597MOL0     H78742   3.503   3.811   1.099 -1.9739 -2.3330  3.4625
  597MOL0     H78743   3.650   3.598   0.947  0.1251 -2.0516  1.5077
  597MOL0     H78744   3.626   3.581   1.119  0.2128 -1.8074 -1.5959
  597MOL0     H78745   3.717   3.801   1.168  2.6329  3.5526 -0.0652
  597MOL0     H78746   3.745   3.833   1.002 -0.2277  0.6871  1.9802
  597MOL0     H78747   3.914   3.671   1.181 -2.1630  0.9196  1.8800
  597MOL0     H78748   3.922   3.642   1.007  0.5832 -0.0468 -0.5518
  597MOL0     H78749   3.967   3.876   0.972 -0.4941  1.5186  0.4158
  597MOL0     H78750   4.092   3.790   1.062  0.0235 -3.2313  5.4708
  597MOL0     H78751   3.894   3.930   1.223 -0.5562  0.3073  0.8122
  597MOL0     H78752   4.044   4.013   1.150 -0.4855  1.4031  2.6096
  597MOL0     H78753   4.054   3.752   1.329  1.0882 -0.8640 -2.5912
  597MOL0     H78754   4.179   3.877   1.294 -0.8192  1.2653 -0.9737
  597MOL0     H78755   3.949   3.983   1.443 -0.1267 -0.4527 -1.7003
  597MOL0     H78756   4.107   4.044   1.414 -0.1261  0.7349  2.2888
  597MOL0     H78757   3.993   3.676   1.545  3.2177 -1.8030 -0.4568
  597MOL0     H78758   4.106   3.551   1.835 -0.4304  0.3426  1.6218
  597MOL0     H78759   3.945   3.567   1.771  0.9987 -0.7275  0.3583
  597MOL0     H78760   4.069   3.695   2.020  0.2154  0.9393 -1.5766
  597MOL0     H78761   3.948   3.566   2.015 -2.2604  0.7250  0.8338
  597MOL0     H78762   3.912   3.855   1.936  1.5280  0.2697  1.6292
  597MOL0     H78763   3.808   3.733   1.871  3.1632  3.0905 -2.9297
  597MOL0     H78764   3.701   3.829   2.073 -1.0770 -1.4255 -3.2003
  597MOL0     H78765   3.851   3.791   2.158  2.1148 -0.5629 -2.1193
  597MOL0     H78766   3.766   3.374   2.162 -0.1179  1.0054  0.3124
  597MOL0     H78767   3.714   3.197   2.014  3.8378  1.6287 -0.3207
  597MOL0     H78768   3.553   3.017   1.575 -0.7755 -2.5614 -1.7793
  597MOL0     H78769   3.443   2.909   1.412  2.0443 -0.5572  2.2902
  597MOL0     H78770   3.103   2.885   1.159 -1.7776  2.0734 -0.5793
  597MOL0     H78771   3.076   3.033   1.235 -1.4717 -0.3625 -0.6858
  597MOL0     H78772   3.022   2.822   1.415 -1.3674  2.2958  0.2787
  597MOL0     H78773   2.963   2.761   1.260  0.6074 -0.4868 -0.0462
  597MOL0     H78774   2.794   2.913   1.246  1.0202 -1.9432 -0.5941
  597MOL0     H78775   2.848   3.032   1.375  1.6605 -0.4381  0.3868
  597MOL0     H78776   2.756   2.749   1.389 -2.1939  0.1303  1.0995
  597MOL0     H78777   2.819   2.847   1.523 -0.1876  2.0630 -0.7310
  597MOL0     H78778   2.566   2.914   1.366 -1.9484 -0.4106  0.7179
  597MOL0     H78779   2.620   2.983   1.533  0.6334  0.4967  0.3464
  597MOL0     H78780   2.443   2.842   1.593 -1.4278 -0.3498  0.0265
  597MOL0     H78781   2.590   2.747   1.619  2.4679 -1.6375 -3.4639
  597MOL0     H78782   2.544   2.625   1.402  1.7328  0.0810  1.0892
  597MOL0     H78783   2.428   2.601   1.524  0.7625  1.5987  1.0972
  597MOL0     H78784   2.326   2.664   1.293 -0.2017  0.7708 -0.1619
  597MOL0     H78785   2.353   2.826   1.370  0.2441 -0.1644  1.0396
  597MOL0     H78786   3.098   3.147   1.447 -0.4423 -1.5598 -1.5216
  597MOL0     H78787   3.216   3.280   1.628  0.7793 -2.0912  4.4586
  597MOL0     H78788   3.532   3.489   1.752  1.4319 -1.6831 -0.4248
  597MOL0     H78789   3.584   3.667   1.897  0.7223  0.1049 -0.9967
  597MOL0     H78790   3.390   3.976   1.026 -0.9965 -1.5684  0.6886
  597MOL0     H78791   3.214   4.115   0.938  1.6793  0.1418  1.0780
  597MOL0     H78792   2.960   4.320   0.683  2.8346 -0.8349 -4.7257
  597MOL0     H78793   2.743   4.436   0.677 -2.9784  0.8019 -1.9485
  597MOL0     H78794   2.374   4.316   0.420 -0.1082 -1.5311 -1.6735
  597MOL0     H78795   2.526   4.257   0.365 -1.8622 -0.5753  0.3479
  597MOL0     H78796   2.600   4.487   0.334 -0.4102  2.3543 -0.2602
  597MOL0     H78797   2.446   4.488   0.263  0.6269  2.2523 -1.2201
  597MOL0     H78798   2.502   4.570   0.545 -0.9790 -0.2589  1.0698
  597MOL0     H78799   2.343   4.576   0.472  0.6746 -2.4478  2.3177
  597MOL0     H78800   2.431   4.724   0.289 -0.4151 -0.9046 -0.4544
  597MOL0     H78801   2.404   4.793   0.447 -1.6891 -1.5574 -2.3042
  597MOL0     H78802   2.820   4.848   0.351 -0.1797  0.9727  0.7690
  597MOL0     H78803   2.557   4.068   0.548  0.1691  0.1536 -2.4638
  597MOL0     H78804   2.761   3.955   0.556 -0.5160  0.3772  0.5262
  598MOL0     O78805   1.281   5.296  10.955 -0.3302  0.7472  0.1831
  598MOL0     C78806   1.283   5.188  10.894  0.1963  0.1924 -0.0010
  598MOL0     O78807   1.180   5.098  10.894  0.2343  0.4019 -0.2539
  598MOL0     C78808   1.061   5.163  10.926 -0.1805  0.5475  0.0176
  598MOL0     C78809   0.971   5.204  10.829 -0.2447  0.7156 -0.2214
  598MOL0     C78810   0.835   5.242  10.861 -0.6797 -0.0194 -0.1594
  598MOL0     C78811   0.802   5.245  10.994 -1.1107 -0.1037  0.4057
  598MOL0     O78812   0.666   5.260  11.014  0.1681  0.1525  0.2766
  598MOL0     C78813   0.621   5.308  11.146  0.9146  0.4080 -0.3178
  598MOL0     C78814   0.567   5.195  11.234 -0.0859 -0.0264  0.5684
  598MOL0     C78815   0.424   5.207  11.278  0.2024  0.5183  0.4292
  598MOL0     C78816   0.397   5.346  11.332  0.2249  0.6676 -0.3630
  598MOL0     C78817   0.278   5.343  11.418 -0.1839  0.2381 -0.4184
  598MOL0     C78818   0.157   5.266  11.363 -0.1600 -0.0120  0.5349
  598MOL0     C78819   0.038   5.286  11.454  0.6380  0.6935  0.4725
  598MOL0     C78820   0.041   5.240  11.596  0.2665 -0.3183 -0.5624
  598MOL0     N78821   0.048   5.098  11.614 -0.8561 -0.4442  0.8177
  598MOL0     C78822   0.130   5.033  11.702  0.0875 -0.1740  0.2405
  598MOL0     C78823   0.084   4.904  11.700  0.8695  0.0673 -0.8033
  598MOL0     C78824   0.137   4.797  11.795  0.2465  0.4970  0.1683
  598MOL0     C78825   0.168   4.668  11.723 -0.1564 -0.3056  1.1502
  598MOL0     C78826   0.320   4.624  11.728 -0.0018  0.3362  0.4927
  598MOL0     C78827   0.367   4.515  11.628  0.6756 -0.2303 -0.3560
  598MOL0     O78828   0.508   4.526  11.598  0.4306  0.1582  0.7722
  598MOL0     C78829   0.567   4.444  11.505 -0.9719 -0.6850  0.1033
  598MOL0     C78830   0.516   4.368  11.406  0.8458 -0.3090  0.0201
  598MOL0     C78831   0.595   4.288  11.321  0.1003  0.5878 -0.6900
  598MOL0     C78832   0.731   4.315  11.315  0.7867  0.9768  0.2880
  598MOL0     C78833   0.825   4.253  11.215 -0.1893 -0.0576  0.1358
  598MOL0     O78834   0.955   4.261  11.228 -0.8244  0.1410 -0.5391
  598MOL0     C78835   1.026   4.230  11.116  0.6000  0.5226 -0.3741
  598MOL0     C78836   1.104   4.118  11.111 -0.9927  1.0484  0.1601
  598MOL0     C78837   1.179   4.082  11.001 -0.5564 -0.4842  0.7650
  598MOL0     C78838   1.192   4.178  10.896 -0.3642 -0.8120 -0.7875
  598MOL0     O78839   1.276   4.148  10.797 -0.6131  0.8124 -1.2816
  598MOL0     C78840   1.219   4.193  10.678 -1.5044  0.2930  0.0565
  598MOL0     C78841   1.306   4.121  10.564 -0.4858 -0.0245  0.0961
  598MOL0     C78842   1.260   3.986  10.545  0.2311  0.8036 -0.1605
  598MOL0     C78843   1.345   3.889  10.460 -0.7958 -0.1605 -0.5050
  598MOL0     C78844   1.283   3.748  10.459  0.1172 -0.0050  0.7573
  598MOL0     C78845   1.229   3.715  10.313  0.2943  0.2899 -1.3789
  598MOL0     C78846   1.183   3.569  10.317 -0.4811  0.6151 -0.3614
  598MOL0     C78847   1.146   3.515  10.174 -0.3257 -0.7653 -0.6965
  598MOL0    Cl78848   1.281   3.532  10.062 -0.2404 -0.4473 -0.4841
  598MOL0     C78849   1.124   4.301  10.915 -0.6534  0.7703  0.3160
  598MOL0     C78850   1.030   4.322  11.020  0.7991 -0.8223  0.7540
  598MOL0     O78851   0.764   4.209  11.120 -0.1433 -0.5082  0.1602
  598MOL0     C78852   0.786   4.386  11.422  0.9079 -0.9773  0.1964
  598MOL0     C78853   0.705   4.454  11.516  0.4117 -0.5346  0.1562
  598MOL0     N78854  -0.020   4.901  11.613  0.4874 -0.0993  0.4130
  598MOL0     N78855  -0.035   5.015  11.559 -0.4982 -0.4886  0.1915
  598MOL0     C78856   0.892   5.200  11.101 -0.4717  0.3503 -0.0295
  598MOL0     C78857   1.024   5.163  11.062  0.7339 -0.9657 -0.2238
  598MOL0     C78858   1.406   5.137  10.833 -0.3508  0.3727  0.2598
  598MOL0     C78859   1.422   5.006  10.787 -0.4804 -0.1115  0.2641
  598MOL0     C78860   1.543   4.965  10.721 -0.8405  0.5579 -0.7924
  598MOL0     C78861   1.650   5.059  10.712  0.0412  1.0514 -0.7162
  598MOL0     O78862   1.779   5.030  10.675  0.2274  0.6574  0.2358
  598MOL0     C78863   1.804   4.913  10.594 -0.1626 -0.2999  0.5459
  598MOL0     C78864   1.946   4.894  10.562 -0.3634 -0.6333  0.1876
  598MOL0     C78865   2.052   4.896  10.682  0.1541 -0.0665  0.0721
  598MOL0     C78866   2.029   4.790  10.784 -0.4926 -0.0567 -0.5629
  598MOL0     C78867   2.043   4.657  10.725  0.1419  0.4283  0.2321
  598MOL0     C78868   2.083   4.555  10.672 -0.5429  0.1790  0.7995
  598MOL0     C78869   1.627   5.193  10.751  0.6256  0.0138 -0.8879
  598MOL0     C78870   1.512   5.228  10.814 -0.1009 -0.0591 -0.1860
  598MOL0     H78871   0.997   5.191  10.725  0.8319 -0.8346  0.2019
  598MOL0     H78872   0.763   5.264  10.783 -0.4258  1.8895  0.0944
  598MOL0     H78873   0.545   5.381  11.117 -2.0510 -0.8643  3.3926
  598MOL0     H78874   0.689   5.379  11.194 -0.9944  0.9568  1.7385
  598MOL0     H78875   0.634   5.188  11.320  0.8138  0.2115 -0.0965
  598MOL0     H78876   0.568   5.107  11.170 -2.8048 -1.0489  1.7499
  598MOL0     H78877   0.406   5.128  11.352 -0.0113  1.0800  0.9905
  598MOL0     H78878   0.353   5.189  11.197  0.6182  0.4259  0.0879
  598MOL0     H78879   0.479   5.400  11.379 -0.8558  0.0251  2.4481
  598MOL0     H78880   0.358   5.410  11.252 -1.0375 -0.8530 -1.0207
  598MOL0     H78881   0.252   5.448  11.439  1.7854  0.5935  0.4469
  598MOL0     H78882   0.313   5.299  11.512 -0.2254  1.8323  0.3814
  598MOL0     H78883   0.182   5.160  11.356 -0.6321 -0.3758  3.3283
  598MOL0     H78884   0.135   5.301  11.261 -3.0924 -1.7344  0.4690
  598MOL0     H78885   0.022   5.394  11.462 -0.8593  0.6779 -1.5243
  598MOL0     H78886  -0.059   5.248  11.422 -0.3065  1.6313  2.0779
  598MOL0     H78887  -0.047   5.278  11.649  0.7832  1.7614 -1.0993
  598MOL0     H78888   0.117   5.299  11.648 -0.3341  0.1063 -0.1543
  598MOL0     H78889   0.214   5.068  11.760  0.3560 -0.2574 -0.0993
  598MOL0     H78890   0.071   4.776  11.879  0.7361  1.5760  0.8400
  598MOL0     H78891   0.236   4.825  11.833  0.4256 -1.7327  1.5157
  598MOL0     H78892   0.125   4.665  11.622 -5.5911 -0.4267  3.1324
  598MOL0     H78893   0.104   4.592  11.768 -1.3112 -0.1248 -0.1063
  598MOL0     H78894   0.384   4.710  11.705  1.8661 -1.2167 -0.3886
  598MOL0     H78895   0.350   4.591  11.828  1.0132  1.2484  0.5127
  598MOL0     H78896   0.302   4.524  11.541  0.8168 -0.3443 -0.4730
  598MOL0     H78897   0.356   4.419  11.680  0.7158  0.5229  1.1213
  598MOL0     H78898   0.408   4.369  11.410  0.8331 -1.5664  3.5080
  598MOL0     H78899   0.547   4.226  11.245  1.9974  0.8293 -2.1554
  598MOL0     H78900   1.102   4.061  11.203 -2.1308 -0.1625 -0.5924
  598MOL0     H78901   1.245   3.996  10.996 -1.3942 -1.3141  2.6969
  598MOL0     H78902   1.232   4.298  10.654  1.6520 -1.1404 -7.2299
  598MOL0     H78903   1.111   4.181  10.684 -1.5113  0.8709  3.4816
  598MOL0     H78904   1.410   4.136  10.593 -0.4313  2.6743 -1.2146
  598MOL0     H78905   1.296   4.180  10.473 -0.2896  0.5138  0.4177
  598MOL0     H78906   1.164   4.002  10.494 -0.2257 -1.3651 -0.0577
  598MOL0     H78907   1.238   3.936  10.639 -2.1896  0.0236 -1.0522
  598MOL0     H78908   1.346   3.947  10.367 -0.8967  0.0918 -0.3492
  598MOL0     H78909   1.448   3.879  10.495 -0.5821 -1.9341 -1.5268
  598MOL0     H78910   1.212   3.729  10.540  1.0561  3.1348  2.4663
  598MOL0     H78911   1.371   3.684  10.468  0.6660  0.2384 -2.1835
  598MOL0     H78912   1.304   3.736  10.236  1.0879 -1.2626 -1.0550
  598MOL0     H78913   1.136   3.772  10.298  0.6604  0.5315 -2.8880
  598MOL0     H78914   1.274   3.522  10.357 -0.2824  1.1541 -0.1695
  598MOL0     H78915   1.098   3.540  10.380  1.3802 -1.0847  1.5113
  598MOL0     H78916   1.057   3.567  10.137 -0.5991 -2.2690 -2.2708
  598MOL0     H78917   1.122   3.409  10.191  1.9031 -1.4447 -1.4597
  598MOL0     H78918   1.139   4.381  10.843 -3.0600  2.1560  1.2331
  598MOL0     H78919   0.955   4.401  11.016 -0.7914 -2.3201 -1.3822
  598MOL0     H78920   0.893   4.407  11.419  0.7166 -0.0314 -0.5736
  598MOL0     H78921   0.767   4.510  11.585  0.9342  0.3544 -0.9902
  598MOL0     H78922   0.861   5.201  11.205  0.6454  3.5106  0.3535
  598MOL0     H78923   1.081   5.109  11.137 -3.1717 -2.2861  2.0633
  598MOL0     H78924   1.341   4.934  10.795 -1.5655  1.2758  2.9981
  598MOL0     H78925   1.549   4.865  10.679  0.7589  1.2171 -2.2427
  598MOL0     H78926   1.768   4.940  10.495 -0.7024  0.8854  1.0460
  598MOL0     H78927   1.757   4.829  10.646  1.5842  0.6334  3.9513
  598MOL0     H78928   1.971   4.810  10.496  6.2664  2.4355 -2.0716
  598MOL0     H78929   1.979   4.976  10.498  1.0277 -0.0569  1.5930
  598MOL0     H78930   2.040   4.995  10.727 -1.1269  0.2686 -0.9228
  598MOL0     H78931   2.154   4.900  10.643  0.0544  0.7696 -0.1307
  598MOL0     H78932   2.104   4.806  10.862  0.2912  1.6073 -1.6054
  598MOL0     H78933   1.931   4.796  10.832  0.7980 -3.8806  3.2571
  598MOL0     H78934   2.115   4.466  10.621 -4.4065 -0.5022 -0.7961
  598MOL0     H78935   1.703   5.270  10.752  1.2726 -0.4315  3.5599
  598MOL0     H78936   1.516   5.335  10.832 -1.9537  0.4667 -2.5353
  599MOL0     O78937   3.382   4.981   0.983 -0.4649  0.5597  0.2639
  599MOL0     C78938   3.465   5.061   0.938  0.2285  0.1877 -0.9660
  599MOL0     O78939   3.587   5.096   1.003 -0.4275 -0.0200  0.4601
  599MOL0     C78940   3.632   5.030   1.118 -0.1015  0.3206 -0.2689
  599MOL0     C78941   3.553   4.952   1.206 -0.9579  0.3013  0.0006
  599MOL0     C78942   3.624   4.884   1.310  0.1645  0.5629  0.7882
  599MOL0     C78943   3.761   4.889   1.330 -0.1893  0.1093 -0.6247
  599MOL0     O78944   3.809   4.818   1.428 -0.5716  0.2790 -0.2104
  599MOL0     C78945   3.950   4.796   1.417  0.1993  0.9924 -1.0924
  599MOL0     C78946   3.982   4.702   1.536  0.5321  0.4776  0.7656
  599MOL0     C78947   3.911   4.729   1.673 -0.0304  0.1776  0.4173
  599MOL0     C78948   3.982   4.641   1.770 -0.6986  0.3954 -0.8623
  599MOL0     C78949   3.913   4.648   1.904 -0.1194 -0.0230  0.8160
  599MOL0     C78950   3.792   4.562   1.910 -0.0456  0.6481  0.5426
  599MOL0     C78951   3.747   4.560   2.060 -0.0508  0.1914  0.0121
  599MOL0     C78952   3.608   4.499   2.070 -0.7016  0.8369 -0.8282
  599MOL0     N78953   3.498   4.596   2.048  0.7972 -0.7920  0.0829
  599MOL0     C78954   3.470   4.645   1.923  0.3986 -0.6741  0.4497
  599MOL0     C78955   3.356   4.715   1.951  0.3255 -0.2241  1.1925
  599MOL0     C78956   3.279   4.776   1.827  0.2642  0.6484 -1.2776
  599MOL0     C78957   3.279   4.924   1.807  0.2588  0.5991 -0.0702
  599MOL0     C78958   3.410   4.959   1.737  0.1276  0.1667  0.0879
  599MOL0     C78959   3.427   5.111   1.699  0.0075  0.5591 -0.4371
  599MOL0     O78960   3.380   5.156   1.574  0.4619  0.6821  0.7000
  599MOL0     C78961   3.456   5.253   1.524  0.6787 -0.0059 -0.9443
  599MOL0     C78962   3.424   5.388   1.554 -1.1406 -0.0670  0.5547
  599MOL0     C78963   3.503   5.492   1.495 -0.3336 -0.1711 -0.3753
  599MOL0     C78964   3.600   5.468   1.392  0.4796  0.9464 -0.0185
  599MOL0     C78965   3.689   5.573   1.340  0.5263 -0.1937  0.6981
  599MOL0     O78966   3.777   5.538   1.238  0.8394  0.0320 -0.8744
  599MOL0     C78967   3.866   5.635   1.204  0.3132 -1.4851  0.2650
  599MOL0     C78968   3.838   5.711   1.089  0.0181  0.1431 -0.0070
  599MOL0     C78969   3.935   5.800   1.039  0.7845  0.2919 -0.0333
  599MOL0     C78970   4.047   5.834   1.118  0.1017 -0.0986 -0.8922
  599MOL0     O78971   4.139   5.935   1.081  0.1888 -0.1959  0.7318
  599MOL0     C78972   4.278   5.891   1.098  0.0375 -0.0910  0.0307
  599MOL0     C78973   4.360   5.998   1.031  1.0249  0.4865  0.1109
  599MOL0     C78974   4.510   5.978   1.020  0.5127  0.1151  0.1970
  599MOL0     C78975   4.581   6.070   0.928 -0.4223 -0.2639 -0.3919
  599MOL0     C78976   4.535   6.213   0.932  0.6017  0.7905  0.0025
  599MOL0     C78977   4.605   6.315   0.842  0.1614  0.0284 -0.1225
  599MOL0     C78978   4.543   6.456   0.838 -0.5939  0.5623 -0.2752
  599MOL0     C78979   4.631   6.547   0.747  0.4438 -0.1825 -0.8584
  599MOL0    Cl78980   4.538   6.703   0.716  0.3282  0.6713  0.1736
  599MOL0     C78981   4.062   5.780   1.253  0.5083 -0.7015  0.1739
  599MOL0     C78982   3.979   5.673   1.281  0.7882 -0.0741  0.1106
  599MOL0     O78983   3.692   5.676   1.412  0.1205 -0.2074 -0.1838
  599MOL0     C78984   3.603   5.329   1.352  0.2541 -0.1294  0.6392
  599MOL0     C78985   3.540   5.227   1.422  0.2347  0.2667  0.2586
  599MOL0     N78986   3.326   4.708   2.083 -0.7638  0.1347 -0.5045
  599MOL0     N78987   3.415   4.634   2.143 -0.1079  0.1253  0.4568
  599MOL0     C78988   3.834   4.966   1.236 -0.4980  0.4364 -0.1554
  599MOL0     C78989   3.771   5.030   1.124 -0.1470  0.1007  0.0119
  599MOL0     C78990   3.457   5.141   0.815 -0.5805 -0.4889 -1.1429
  599MOL0     C78991   3.532   5.264   0.786  0.4358 -0.2678 -0.4246
  599MOL0     C78992   3.509   5.326   0.664 -0.3483 -0.0055  0.4215
  599MOL0     C78993   3.419   5.272   0.575  0.2826  0.9617  0.0518
  599MOL0     O78994   3.401   5.343   0.459 -0.4480 -0.1526  0.1838
  599MOL0     C78995   3.317   5.303   0.354 -0.2856 -0.1886 -0.0861
  599MOL0     C78996   3.301   5.420   0.254 -0.5607 -0.3532  0.1473
  599MOL0     C78997   3.219   5.365   0.147  0.2073  0.6709 -0.0479
  599MOL0     C78998   3.191   5.463   0.040  0.1618 -0.1080 -0.5577
  599MOL0     C78999   3.065   5.421  -0.027 -1.0462  0.2199 -0.3079
  599MOL0     C79000   2.956   5.376  -0.063 -0.8194 -0.6861  0.3714
  599MOL0     C79001   3.359   5.150   0.594 -0.7727  0.3730 -0.1370
  599MOL0     C79002   3.381   5.087   0.714 -0.5886  0.0304  0.0996
  599MOL0     H79003   3.445   4.962   1.206 -1.1879 -0.4703  4.2773
  599MOL0     H79004   3.555   4.828   1.373 -2.8757  0.5128 -2.3292
  599MOL0     H79005   4.007   4.885   1.444  1.0429  1.2668 -3.5163
  599MOL0     H79006   3.994   4.752   1.327  1.1092 -0.7524  0.1462
  599MOL0     H79007   4.089   4.691   1.558  1.1032 -0.5812 -2.0406
  599MOL0     H79008   3.951   4.601   1.507 -0.9963  1.5953 -1.8174
  599MOL0     H79009   3.803   4.715   1.663 -0.1159  0.7131  0.5437
  599MOL0     H79010   3.941   4.832   1.693  0.2323  0.5084 -1.5477
  599MOL0     H79011   3.985   4.540   1.728 -3.5686  0.3656 -1.1850
  599MOL0     H79012   4.090   4.656   1.780 -0.7013  0.4391 -0.8984
  599MOL0     H79013   3.894   4.754   1.923  1.5458  0.7615 -1.4645
  599MOL0     H79014   3.989   4.613   1.974  3.0680 -1.3290 -2.9185
  599MOL0     H79015   3.821   4.460   1.883  2.6413  2.1304 -2.9603
  599MOL0     H79016   3.727   4.589   1.826  0.8507 -2.1475 -1.1743
  599MOL0     H79017   3.828   4.507   2.111 -1.0437 -2.4571 -0.9914
  599MOL0     H79018   3.737   4.659   2.105  2.7451  0.5210  0.0527
  599MOL0     H79019   3.605   4.460   2.172 -0.8050  2.0616 -0.3418
  599MOL0     H79020   3.604   4.420   1.994  2.9160  0.4348 -0.7614
  599MOL0     H79021   3.519   4.631   1.828  0.5376 -1.1554  0.5908
  599MOL0     H79022   3.172   4.757   1.833  0.0089  2.3650  0.6177
  599MOL0     H79023   3.302   4.714   1.740  1.8073 -0.1389 -0.3597
  599MOL0     H79024   3.263   4.979   1.899 -1.8400 -0.8350  0.4950
  599MOL0     H79025   3.197   4.939   1.736 -1.7465 -1.6198  1.5953
  599MOL0     H79026   3.500   4.921   1.785  0.8856 -1.1409 -2.2166
  599MOL0     H79027   3.411   4.904   1.643  1.2020 -0.0325  0.2050
  599MOL0     H79028   3.536   5.116   1.692  0.2304 -2.3602 -0.3510
  599MOL0     H79029   3.399   5.164   1.791 -1.4433 -1.5027  0.4042
  599MOL0     H79030   3.346   5.412   1.625 -0.0443 -0.8725  2.1247
  599MOL0     H79031   3.481   5.595   1.521 -1.0803 -0.4593  0.1688
  599MOL0     H79032   3.742   5.707   1.038  0.3715 -1.3221 -0.5973
  599MOL0     H79033   3.917   5.830   0.936  2.0407  1.7752  0.1473
  599MOL0     H79034   4.295   5.797   1.045 -0.1526  2.0283 -4.1728
  599MOL0     H79035   4.297   5.879   1.205  0.6784  0.3611 -0.0251
  599MOL0     H79036   4.344   6.090   1.088 -2.9519 -0.2925  0.5358
  599MOL0     H79037   4.312   6.012   0.933 -3.9595  0.7854  2.2763
  599MOL0     H79038   4.531   5.877   0.985 -1.5237 -1.7380  3.8145
  599MOL0     H79039   4.544   5.991   1.123 -1.8597 -2.2064  1.3686
  599MOL0     H79040   4.689   6.064   0.940 -0.7107 -0.4408  3.0611
  599MOL0     H79041   4.568   6.018   0.833  0.6296 -1.0030 -0.1473
  599MOL0     H79042   4.530   6.255   1.032  1.8340  0.5586  0.1782
  599MOL0     H79043   4.435   6.198   0.889  0.2726 -0.8062  1.2534
  599MOL0     H79044   4.602   6.261   0.747  2.9384 -3.3682  1.5086
  599MOL0     H79045   4.708   6.327   0.878  0.7038  0.7428 -1.7874
  599MOL0     H79046   4.436   6.454   0.814 -1.1011  2.3655  1.5148
  599MOL0     H79047   4.553   6.507   0.934  0.9458 -0.5137  0.1713
  599MOL0     H79048   4.649   6.497   0.651  2.2946 -3.0098  0.8253
  599MOL0     H79049   4.728   6.565   0.792  0.5755 -1.2277 -0.6943
  599MOL0     H79050   4.134   5.817   1.325  0.0702 -0.6875  0.6102
  599MOL0     H79051   4.000   5.620   1.374 -0.9302  1.5013  1.4799
  599MOL0     H79052   3.658   5.295   1.264 -0.1956  0.6401  0.0424
  599MOL0     H79053   3.551   5.127   1.382  2.8017  0.6576 -0.1927
  599MOL0     H79054   3.941   4.983   1.237 -0.3303 -0.5530  1.2174
  599MOL0     H79055   3.831   5.090   1.057 -0.2715  0.8385  0.5437
  599MOL0     H79056   3.599   5.320   0.851  1.1677 -2.4382  0.7813
  599MOL0     H79057   3.559   5.417   0.633 -0.6130 -0.3950 -1.2282
  599MOL0     H79058   3.221   5.258   0.380  0.4200 -1.4954  0.3283
  599MOL0     H79059   3.371   5.223   0.304  0.7946 -0.7179  1.8285
  599MOL0     H79060   3.250   5.503   0.304  3.1720  1.5596  1.0905
  599MOL0     H79061   3.401   5.456   0.228 -0.6336  1.0787  1.6716
  599MOL0     H79062   3.120   5.329   0.179 -0.9230  1.2949 -2.5819
  599MOL0     H79063   3.277   5.284   0.102 -1.2428 -0.4474 -0.0055
  599MOL0     H79064   3.191   5.563   0.083  2.8560 -0.0248 -0.6343
  599MOL0     H79065   3.266   5.457  -0.039  1.4940  0.8965  0.5830
  599MOL0     H79066   2.864   5.335  -0.098 -0.4620  0.2313 -1.8034
  599MOL0     H79067   3.299   5.100   0.519 -1.9943 -0.9535  1.6257
  599MOL0     H79068   3.328   4.994   0.736  0.5281 -1.0660 -1.6361
  600MOL0     O79069   5.814   2.580   7.576 -0.7298  0.1579 -0.5059
  600MOL0     C79070   5.793   2.491   7.488  0.3165 -0.1841  0.0379
  600MOL0     O79071   5.759   2.359   7.506 -0.2361  0.2998  0.1920
  600MOL0     C79072   5.717   2.315   7.628  0.5198  0.1568  0.1161
  600MOL0     C79073   5.633   2.391   7.711 -0.1481  0.7020 -0.0685
  600MOL0     C79074   5.602   2.356   7.838  0.3262 -0.5798  0.3651
  600MOL0     C79075   5.657   2.244   7.893 -0.1318  0.0721  0.2300
  600MOL0     O79076   5.637   2.222   8.027 -0.0570  0.3934  0.2972
  600MOL0     C79077   5.691   2.102   8.098  0.6252  0.7491 -0.4631
  600MOL0     C79078   5.653   2.120   8.240 -0.5672 -0.3464  0.3154
  600MOL0     C79079   5.642   1.982   8.303  0.2043  0.7413 -0.4644
  600MOL0     C79080   5.781   1.923   8.329 -0.2211  0.2182  0.6413
  600MOL0     C79081   5.901   2.004   8.376 -0.1013  0.4402 -0.4100
  600MOL0     C79082   6.023   1.909   8.390 -0.6468  0.1682 -0.5464
  600MOL0     C79083   6.146   1.996   8.420  0.2010  0.1815 -1.0459
  600MOL0     C79084   6.271   1.918   8.471 -0.1031 -0.1705  0.4387
  600MOL0     N79085   6.370   1.999   8.541 -0.4768 -0.4236  0.0216
  600MOL0     C79086   6.337   2.080   8.648  0.2992 -1.2266 -0.4075
  600MOL0     C79087   6.451   2.156   8.666 -0.6147  0.9469  1.0742
  600MOL0     C79088   6.457   2.255   8.773 -0.4712 -0.0336 -0.3605
  600MOL0     C79089   6.482   2.393   8.716 -1.0526  0.0319  0.8898
  600MOL0     C79090   6.365   2.450   8.636 -0.0715 -0.0280  0.9970
  600MOL0     C79091   6.230   2.471   8.703 -1.4213  0.2809 -0.2109
  600MOL0     O79092   6.145   2.352   8.668  0.0722  0.2251  0.0785
  600MOL0     C79093   6.017   2.372   8.706 -0.9392  0.0503 -0.4724
  600MOL0     C79094   5.928   2.289   8.643 -0.5217  0.3603 -0.1878
  600MOL0     C79095   5.787   2.295   8.679 -0.2216 -0.5851 -0.9536
  600MOL0     C79096   5.744   2.381   8.782  0.4245  0.4872  0.0086
  600MOL0     C79097   5.590   2.400   8.801  0.2071 -0.4600 -0.4499
  600MOL0     O79098   5.520   2.390   8.683  0.0605  0.1198 -0.9615
  600MOL0     C79099   5.392   2.441   8.660 -0.9968  0.3431 -0.7110
  600MOL0     C79100   5.325   2.392   8.555 -0.1139 -0.3221 -0.3054
  600MOL0     C79101   5.206   2.448   8.506 -0.4228  0.2595  0.3413
  600MOL0     C79102   5.151   2.555   8.570 -0.0701  0.0760  0.1881
  600MOL0     O79103   5.032   2.626   8.518 -0.7237 -0.8592 -0.1516
  600MOL0     C79104   4.917   2.657   8.602  0.3346 -0.8452 -0.5459
  600MOL0     C79105   4.803   2.723   8.525 -0.3276 -0.1184  0.7261
  600MOL0     C79106   4.696   2.759   8.625 -0.0874  0.8133 -0.4840
  600MOL0     C79107   4.589   2.848   8.561 -0.5306 -1.4253  0.8830
  600MOL0     C79108   4.534   2.957   8.662  0.9896 -0.9007 -0.7117
  600MOL0     C79109   4.405   3.023   8.598 -0.2477 -0.5056 -0.4946
  600MOL0     C79110   4.415   3.095   8.468 -0.2813  0.0608 -0.5459
  600MOL0     C79111   4.529   3.198   8.474  0.0987  0.0681  0.0189
  600MOL0    Cl79112   4.529   3.278   8.323 -0.0913 -0.0567  0.0521
  600MOL0     C79113   5.217   2.600   8.679  0.3936 -0.6976 -0.7777
  600MOL0     C79114   5.335   2.550   8.730  1.3808 -0.3319  0.2132
  600MOL0     O79115   5.545   2.430   8.913  0.1307 -0.0786  0.9140
  600MOL0     C79116   5.837   2.463   8.845 -0.0011 -0.3781 -0.1137
  600MOL0     C79117   5.970   2.455   8.805  0.5337 -0.1595 -0.2714
  600MOL0     N79118   6.545   2.127   8.568 -1.0606  0.8903  0.2650
  600MOL0     N79119   6.485   2.046   8.489 -0.5212  1.2231  0.3841
  600MOL0     C79120   5.739   2.156   7.814 -0.0246  0.3586  0.2910
  600MOL0     C79121   5.769   2.200   7.682  0.0433 -0.6816 -1.0170
  600MOL0     C79122   5.779   2.533   7.350 -0.8253  0.7871  0.7708
  600MOL0     C79123   5.840   2.647   7.302  0.0899 -0.3180  0.1094
  600MOL0     C79124   5.833   2.694   7.166  0.1198  0.6361 -0.3818
  600MOL0     C79125   5.754   2.618   7.075 -0.7209 -0.2186  1.0689
  600MOL0     O79126   5.740   2.648   6.936 -0.5629  0.4491 -1.1628
  600MOL0     C79127   5.782   2.777   6.896 -0.2046 -0.4350 -0.4477
  600MOL0     C79128   5.907   2.759   6.825 -0.5255  1.1281  0.7159
  600MOL0     C79129   5.948   2.892   6.766 -0.3141  0.0249  0.7820
  600MOL0     C79130   6.097   2.889   6.723 -0.2949  0.1052  0.2273
  600MOL0     C79131   6.142   2.986   6.620  0.7139 -0.2171  0.6623
  600MOL0     C79132   6.142   3.061   6.527  0.5624 -0.1348 -0.0413
  600MOL0     C79133   5.710   2.489   7.121  0.0157  0.1388 -0.2426
  600MOL0     C79134   5.716   2.447   7.247 -0.3350 -0.4707 -0.1023
  600MOL0     H79135   5.591   2.485   7.679  1.6494  1.4019 -0.4985
  600MOL0     H79136   5.541   2.434   7.881 -2.0255 -1.8631 -0.4527
  600MOL0     H79137   5.798   2.098   8.079  0.3668 -1.1853 -1.8914
  600MOL0     H79138   5.662   2.007   8.052  2.2086 -1.6047  3.0411
  600MOL0     H79139   5.557   2.172   8.243 -0.1928  0.3468  0.3302
  600MOL0     H79140   5.728   2.175   8.297  0.4857  0.8744 -2.1031
  600MOL0     H79141   5.588   1.906   8.247  0.4595 -0.2605  0.6298
  600MOL0     H79142   5.592   1.996   8.399 -0.2294  0.3914 -0.6382
  600MOL0     H79143   5.766   1.842   8.401  0.5130 -3.3642 -2.8683
  600MOL0     H79144   5.803   1.874   8.234 -0.1888 -0.7982  1.1586
  600MOL0     H79145   5.883   2.046   8.476 -3.0240  0.7590 -0.9778
  600MOL0     H79146   5.925   2.090   8.314 -0.9509  0.5818 -0.5575
  600MOL0     H79147   6.033   1.862   8.292 -1.0309  1.6668 -1.3452
  600MOL0     H79148   6.014   1.825   8.459  0.7581  0.5008  0.0924
  600MOL0     H79149   6.182   2.053   8.334  1.5826  2.0901  0.7022
  600MOL0     H79150   6.118   2.068   8.496  4.6623  1.2514 -0.1412
  600MOL0     H79151   6.323   1.879   8.384 -0.9572  1.0816 -0.6755
  600MOL0     H79152   6.225   1.845   8.539 -3.8222  0.2672 -1.3708
  600MOL0     H79153   6.247   2.096   8.706  2.2697  1.1460  2.3165
  600MOL0     H79154   6.536   2.230   8.845  1.7333  3.2433 -1.3799
  600MOL0     H79155   6.362   2.269   8.824 -0.4336  1.8998 -0.7518
  600MOL0     H79156   6.564   2.392   8.643 -1.9780  2.1296 -0.2905
  600MOL0     H79157   6.505   2.449   8.807 -0.3407  1.1218  0.0598
  600MOL0     H79158   6.386   2.554   8.612 -0.4384 -0.7124 -3.0263
  600MOL0     H79159   6.350   2.399   8.540 -0.7710  0.4946  0.8275
  600MOL0     H79160   6.196   2.569   8.671 -0.5250  0.7801  0.3343
  600MOL0     H79161   6.237   2.473   8.812 -2.9368 -2.0353  0.0224
  600MOL0     H79162   5.960   2.236   8.554 -0.4902 -1.5960  0.9108
  600MOL0     H79163   5.723   2.230   8.621 -2.7651  0.7683  0.1414
  600MOL0     H79164   5.346   2.301   8.500 -1.0882 -1.2322  0.7744
  600MOL0     H79165   5.155   2.410   8.418  2.5383 -3.6263  0.0010
  600MOL0     H79166   4.949   2.730   8.677 -0.1170  0.9485 -2.0295
  600MOL0     H79167   4.865   2.570   8.642 -1.6186  0.5659  0.1462
  600MOL0     H79168   4.772   2.651   8.449 -0.5021  0.2864  0.4127
  600MOL0     H79169   4.844   2.814   8.480  1.1354 -0.8470  0.5313
  600MOL0     H79170   4.740   2.832   8.693 -0.6862 -1.7122  2.8574
  600MOL0     H79171   4.670   2.665   8.673  0.6608  1.4500  1.2547
  600MOL0     H79172   4.646   2.901   8.484  0.3991  0.1013  2.5724
  600MOL0     H79173   4.510   2.788   8.515 -0.6723  0.6109 -1.8251
  600MOL0     H79174   4.607   3.032   8.693 -0.4288  0.3897 -0.3671
  600MOL0     H79175   4.502   2.920   8.759 -0.8925  4.2662  0.9630
  600MOL0     H79176   4.364   3.090   8.674  0.7431  1.7456 -1.8542
  600MOL0     H79177   4.332   2.944   8.577 -0.6884 -0.6790  1.4942
  600MOL0     H79178   4.436   3.024   8.387 -0.1462  0.0884 -0.5351
  600MOL0     H79179   4.316   3.130   8.437 -0.3318 -1.4167 -2.2402
  600MOL0     H79180   4.622   3.142   8.488 -1.3648 -1.8742  2.9540
  600MOL0     H79181   4.518   3.268   8.557  2.8324 -0.4449  0.9349
  600MOL0     H79182   5.173   2.689   8.724  1.0231 -0.9849  0.4374
  600MOL0     H79183   5.377   2.606   8.813 -2.6977 -0.7197  2.8125
  600MOL0     H79184   5.816   2.538   8.921  2.3438  1.8109 -1.4612
  600MOL0     H79185   6.039   2.518   8.860  1.2656 -0.4201 -0.8670
  600MOL0     H79186   5.776   2.061   7.850  0.6222  0.6678  0.4502
  600MOL0     H79187   5.826   2.142   7.611  2.4328 -0.3117  0.4812
  600MOL0     H79188   5.909   2.695   7.371 -0.4040 -1.3647  1.3665
  600MOL0     H79189   5.875   2.793   7.149 -1.2135  2.6142  5.3790
  600MOL0     H79190   5.795   2.849   6.977  2.8415  0.1995 -1.3639
  600MOL0     H79191   5.700   2.809   6.832 -1.4070 -0.3707  1.0773
  600MOL0     H79192   5.981   2.720   6.896 -1.3255 -0.3631  0.7575
  600MOL0     H79193   5.906   2.676   6.754  3.4272  0.5871  1.0635
  600MOL0     H79194   5.944   2.952   6.858  1.4950 -0.0539  0.9535
  600MOL0     H79195   5.877   2.923   6.688 -2.4127 -2.0275  1.7450
  600MOL0     H79196   6.158   2.892   6.813  1.2036  3.1460 -0.7660
  600MOL0     H79197   6.111   2.787   6.684 -1.5206 -0.5426  1.3893
  600MOL0     H79198   6.148   3.139   6.454  2.4496  0.3560  0.5745
  600MOL0     H79199   5.637   2.442   7.056  0.0715  0.8275 -0.8112
  600MOL0     H79200   5.675   2.353   7.282 -0.4867 -0.6208 -0.6756
  601MOL0     O79201   6.735  10.938   2.343 -0.2157  0.1381 -0.0793
  601MOL0     C79202   6.688  10.831   2.313  0.3442 -0.8115 -0.1079
  601MOL0     O79203   6.580  10.810   2.242  0.3061 -0.5139 -0.0301
  601MOL0     C79204   6.495  10.914   2.232  0.1990  0.1492 -0.2071
  601MOL0     C79205   6.466  10.976   2.113  0.3707  0.3463 -0.4950
  601MOL0     C79206   6.346  11.046   2.090 -0.0481 -0.0927  0.8563
  601MOL0     C79207   6.259  11.070   2.198  0.2356  0.3064  0.0607
  601MOL0     O79208   6.157  11.162   2.193  0.0920  0.1559 -0.2586
  601MOL0     C79209   6.185  11.285   2.259 -0.3616  0.1508  0.6533
  601MOL0     C79210   6.082  11.387   2.208  0.2087 -0.0547 -0.8600
  601MOL0     C79211   6.070  11.415   2.062  1.0755 -0.2058  1.0831
  601MOL0     C79212   5.957  11.510   2.032  0.8356 -0.8680  0.3755
  601MOL0     C79213   5.967  11.650   2.096  0.5730 -0.9500 -0.3005
  601MOL0     C79214   5.889  11.752   2.021  1.0327 -0.0790 -1.2590
  601MOL0     C79215   5.848  11.874   2.101 -0.1471  0.7342 -0.0619
  601MOL0     C79216   5.963  11.939   2.174 -0.9496 -0.5928 -0.3956
  601MOL0     N79217   6.064  11.975   2.083  0.0193 -0.2721 -0.1138
  601MOL0     C79218   6.058  12.063   1.976  0.5247  0.3017  0.0026
  601MOL0     C79219   6.177  12.052   1.917 -0.0448  0.3072 -0.3356
  601MOL0     C79220   6.215  12.124   1.787  0.7758 -0.2735 -0.4395
  601MOL0     C79221   6.345  12.072   1.732  0.5130  0.4562 -0.4658
  601MOL0     C79222   6.382  12.137   1.599  0.1270  0.9068  0.5081
  601MOL0     C79223   6.341  12.063   1.470 -1.5361 -0.0143 -0.7026
  601MOL0     O79224   6.212  12.003   1.491  0.0345  0.3852  0.3183
  601MOL0     C79225   6.131  11.987   1.381  1.0888 -0.7541 -0.7192
  601MOL0     C79226   6.116  12.084   1.281 -0.6645  0.0367 -0.9186
  601MOL0     C79227   6.044  12.056   1.167 -0.1717  0.4032 -0.6939
  601MOL0     C79228   5.964  11.949   1.169 -0.2347  0.3556 -0.5933
  601MOL0     C79229   5.862  11.940   1.061  0.1896  0.4622 -0.5599
  601MOL0     O79230   5.814  12.056   1.005  0.2908 -0.8993 -0.5555
  601MOL0     C79231   5.708  12.056   0.906 -0.5424  0.0377 -0.3826
  601MOL0     C79232   5.713  11.968   0.800  0.5786 -0.5325 -0.6465
  601MOL0     C79233   5.601  11.956   0.711 -1.6481 -0.1572  0.1957
  601MOL0     C79234   5.496  12.045   0.714  0.1518  0.9436  0.2416
  601MOL0     O79235   5.384  12.052   0.637 -0.7695  0.3784  0.7139
  601MOL0     C79236   5.381  11.969   0.522  0.3529 -0.1512  0.1564
  601MOL0     C79237   5.318  11.826   0.554  0.9469 -0.1580  0.1731
  601MOL0     C79238   5.314  11.736   0.427 -0.4554  1.0263  0.0075
  601MOL0     C79239   5.256  11.598   0.450 -0.7041  0.9091 -0.7144
  601MOL0     C79240   5.275  11.516   0.326  0.3829 -0.6731  0.1377
  601MOL0     C79241   5.244  11.366   0.366  0.6604  0.0632 -0.3924
  601MOL0     C79242   5.289  11.282   0.247  0.2634 -0.0237 -0.0840
  601MOL0     C79243   5.330  11.142   0.317 -0.2627  0.1674  0.1705
  601MOL0    Cl79244   5.379  11.016   0.196  0.3479 -0.6120 -0.4496
  601MOL0     C79245   5.494  12.139   0.823  0.2046 -1.2058 -0.0870
  601MOL0     C79246   5.597  12.139   0.923  0.3339  0.0643 -0.2890
  601MOL0     O79247   5.825  11.818   1.033  0.0336 -0.3685  0.6132
  601MOL0     C79248   5.971  11.849   1.270 -0.0212 -0.3788 -0.2767
  601MOL0     C79249   6.050  11.873   1.381 -0.7755  0.9011 -0.0051
  601MOL0     N79250   6.253  11.959   1.978 -0.2226 -0.6815  0.0045
  601MOL0     N79251   6.182  11.905   2.070 -1.1059  0.1136 -0.2659
  601MOL0     C79252   6.280  11.004   2.317 -0.3018 -0.1869  0.2768
  601MOL0     C79253   6.394  10.919   2.326  0.6190 -0.6245 -0.4847
  601MOL0     C79254   6.769  10.701   2.344  0.0245 -0.1198  1.0066
  601MOL0     C79255   6.911  10.708   2.346  0.1603  0.6720  0.4250
  601MOL0     C79256   6.994  10.591   2.371 -0.1371  0.9138  0.3076
  601MOL0     C79257   6.941  10.471   2.399  1.1735  0.9282  0.1485
  601MOL0     O79258   7.001  10.353   2.439 -0.1903  0.6115 -0.1207
  601MOL0     C79259   7.138  10.341   2.446 -1.4485  0.4812 -0.7779
  601MOL0     C79260   7.206  10.202   2.410  0.3983 -0.5833 -0.2625
  601MOL0     C79261   7.357  10.216   2.399  1.1506  0.3387 -0.3967
  601MOL0     C79262   7.420  10.097   2.320  1.2175  0.1701 -0.5776
  601MOL0     C79263   7.412  10.119   2.171  0.5281  0.3238  0.4298
  601MOL0     C79264   7.393  10.153   2.058  0.0206  1.2420 -0.3200
  601MOL0     C79265   6.795  10.463   2.394  0.4769  0.2028  0.4237
  601MOL0     C79266   6.714  10.569   2.355 -1.4205  0.5629  0.4865
  601MOL0     H79267   6.546  10.960   2.042  0.3991 -3.2154  0.1407
  601MOL0     H79268   6.320  11.090   1.994  3.7521  2.4782  0.8097
  601MOL0     H79269   6.283  11.325   2.232 -0.5023  0.4084  0.5220
  601MOL0     H79270   6.199  11.285   2.367  3.0401  0.5678  0.3411
  601MOL0     H79271   6.114  11.482   2.251  1.7838  0.4935 -3.0833
  601MOL0     H79272   5.986  11.364   2.256  0.2000 -1.1269 -1.3648
  601MOL0     H79273   6.052  11.324   2.005 -0.2068  0.9787 -0.4995
  601MOL0     H79274   6.158  11.456   2.011 -0.4341 -0.5115 -2.0063
  601MOL0     H79275   5.966  11.533   1.926  4.7470  1.5562  1.0132
  601MOL0     H79276   5.863  11.459   2.056  1.3601 -1.4174  1.3020
  601MOL0     H79277   6.069  11.691   2.096 -0.7131  2.6232 -0.4816
  601MOL0     H79278   5.922  11.645   2.196 -1.2092 -4.5556 -1.1461
  601MOL0     H79279   5.793  11.713   1.987 -0.6076 -0.9981  3.5417
  601MOL0     H79280   5.928  11.768   1.920 -0.4842 -2.4078 -2.3029
  601MOL0     H79281   5.791  11.939   2.034 -2.6578  1.4866  2.5999
  601MOL0     H79282   5.768  11.846   2.170 -0.5506  1.4243 -0.2389
  601MOL0     H79283   6.005  11.881   2.256  2.0913  2.2256  0.2237
  601MOL0     H79284   5.920  12.031   2.213  0.2060  0.2213 -0.9799
  601MOL0     H79285   5.982  12.132   1.940  2.4729  1.2547 -2.6546
  601MOL0     H79286   6.223  12.232   1.803 -0.6878 -0.3812  1.2736
  601MOL0     H79287   6.126  12.120   1.724  0.0715  2.4686  0.2448
  601MOL0     H79288   6.349  11.962   1.727 -2.0734  0.2902 -0.0165
  601MOL0     H79289   6.416  12.106   1.807  0.8771 -4.3502  1.7566
  601MOL0     H79290   6.355  12.242   1.588 -1.4898  0.8565  3.2032
  601MOL0     H79291   6.490  12.150   1.612  0.3761  1.3994 -1.7587
  601MOL0     H79292   6.415  11.989   1.439 -0.7404  0.6778 -0.5056
  601MOL0     H79293   6.343  12.148   1.402 -2.5027  1.8807  1.4972
  601MOL0     H79294   6.171  12.177   1.274  0.0562 -0.4909 -2.9975
  601MOL0     H79295   6.047  12.130   1.087 -2.9076  2.2326  0.7515
  601MOL0     H79296   5.798  11.903   0.780  0.6911 -0.1507 -1.4807
  601MOL0     H79297   5.613  11.881   0.633  1.6268 -1.0075  1.3719
  601MOL0     H79298   5.479  11.959   0.474  0.0001  1.7568 -1.0478
  601MOL0     H79299   5.325  12.013   0.439  2.5731 -0.6465 -1.7302
  601MOL0     H79300   5.214  11.835   0.584  0.2293 -1.6380 -1.6652
  601MOL0     H79301   5.372  11.771   0.633 -2.3370 -4.6140 -0.2650
  601MOL0     H79302   5.418  11.729   0.395 -0.6978  0.5793 -0.7176
  601MOL0     H79303   5.269  11.792   0.344 -0.0635 -1.3894 -1.9498
  601MOL0     H79304   5.317  11.553   0.529 -2.5978  2.9268  2.1125
  601MOL0     H79305   5.149  11.600   0.474 -0.1932  2.1268  1.8268
  601MOL0     H79306   5.375  11.524   0.282  0.0183  0.0123 -0.5773
  601MOL0     H79307   5.212  11.546   0.242  3.3312  0.6422 -1.7833
  601MOL0     H79308   5.136  11.353   0.370  0.4722  1.6455  0.8314
  601MOL0     H79309   5.302  11.338   0.454  2.1968 -1.5295 -1.8244
  601MOL0     H79310   5.207  11.266   0.177  1.1599  0.6944 -1.3347
  601MOL0     H79311   5.367  11.326   0.184 -0.9519  1.0738 -0.8638
  601MOL0     H79312   5.232  11.117   0.360 -1.2949 -0.5861 -2.4502
  601MOL0     H79313   5.408  11.153   0.393  1.0903  1.5606 -1.3475
  601MOL0     H79314   5.414  12.211   0.838  1.2741 -0.1953  1.0070
  601MOL0     H79315   5.591  12.207   1.007 -0.4880 -0.1601 -0.1528
  601MOL0     H79316   5.896  11.771   1.270  0.2214 -0.8797 -4.6578
  601MOL0     H79317   6.036  11.805   1.463 -3.1129  2.7339  1.2271
  601MOL0     H79318   6.217  11.024   2.402  2.2153  3.1587  1.5598
  601MOL0     H79319   6.403  10.879   2.427  0.0391 -0.4276 -0.3523
  601MOL0     H79320   6.952  10.808   2.335 -1.1747  1.3430  1.3879
  601MOL0     H79321   7.101  10.606   2.358 -0.0607  1.2604  1.2760
  601MOL0     H79322   7.183  10.374   2.539 -2.1474  0.1197 -0.3023
  601MOL0     H79323   7.186  10.404   2.371 -0.9343  0.7327 -0.2425
  601MOL0     H79324   7.183  10.129   2.487  1.3296 -1.3782 -0.7277
  601MOL0     H79325   7.161  10.163   2.318 -1.1704 -0.5972  0.4800
  601MOL0     H79326   7.394  10.213   2.502  1.0049 -1.0782 -0.3597
  601MOL0     H79327   7.384  10.311   2.353  2.3754 -0.6441 -1.7880
  601MOL0     H79328   7.526  10.094   2.346  0.8425  0.7500  1.1233
  601MOL0     H79329   7.366  10.004   2.343 -0.7670  1.0273 -1.4958
  601MOL0     H79330   7.370  10.160   1.954 -1.2335 -1.4085 -0.3154
  601MOL0     H79331   6.746  10.367   2.402 -0.6820  0.4084 -2.7198
  601MOL0     H79332   6.608  10.556   2.337 -1.3181  1.1014 -0.5536
  602MOL0     O79333   1.507   0.692   5.598  0.0702  0.2841 -0.7470
  602MOL0     C79334   1.387   0.683   5.569  0.0679 -0.5022 -0.2139
  602MOL0     O79335   1.281   0.638   5.655 -1.0919 -0.0702  0.0285
  602MOL0     C79336   1.312   0.649   5.793 -0.0531 -0.2671  1.0420
  602MOL0     C79337   1.366   0.537   5.862  0.0655  0.8277  1.1787
  602MOL0     C79338   1.405   0.545   5.989  0.3474  1.3788 -0.3694
  602MOL0     C79339   1.400   0.670   6.056  0.6195  0.7241  1.3962
  602MOL0     O79340   1.431   0.689   6.189 -0.0709  0.5017  0.2953
  602MOL0     C79341   1.480   0.574   6.264 -1.3261 -1.0982  0.2954
  602MOL0     C79342   1.546   0.615   6.402 -0.0370 -0.1198  0.1705
  602MOL0     C79343   1.638   0.735   6.398  0.6534 -0.2346  0.4311
  602MOL0     C79344   1.683   0.778   6.542 -0.8226 -0.1574  0.6470
  602MOL0     C79345   1.768   0.904   6.534 -0.9384  0.4497 -0.4055
  602MOL0     C79346   1.827   0.936   6.671  0.6080 -0.1628 -0.0835
  602MOL0     C79347   1.722   0.940   6.786  1.0828  0.5399 -0.5476
  602MOL0     C79348   1.586   1.023   6.759 -0.8260 -0.8898 -0.6017
  602MOL0     N79349   1.498   1.017   6.880 -0.4899 -0.5029  0.4861
  602MOL0     C79350   1.526   1.062   7.000 -0.3359  0.0596 -0.4319
  602MOL0     C79351   1.419   1.027   7.076 -0.6527 -0.5588 -0.0404
  602MOL0     C79352   1.378   1.070   7.215  0.1964  0.9185 -0.6487
  602MOL0     C79353   1.510   1.105   7.285  0.0136 -0.3229  0.3532
  602MOL0     C79354   1.476   1.139   7.440 -0.3811  0.4687  0.7994
  602MOL0     C79355   1.416   1.015   7.523  0.7508 -0.3350  0.3845
  602MOL0     O79356   1.366   1.063   7.650 -0.2748 -0.6656 -0.3234
  602MOL0     C79357   1.439   1.073   7.766 -0.1773  0.9720 -0.3815
  602MOL0     C79358   1.574   1.023   7.765  0.7610  0.1312 -0.0953
  602MOL0     C79359   1.645   1.017   7.889 -0.6401 -0.1213 -0.3849
  602MOL0     C79360   1.580   1.054   8.013 -0.9485 -0.5392 -0.5993
  602MOL0     C79361   1.652   1.033   8.139  0.8742  0.4676  0.8565
  602MOL0     O79362   1.792   1.026   8.124  0.4106 -0.9516  0.1246
  602MOL0     C79363   1.862   1.006   8.238  0.2489  0.5121  0.2070
  602MOL0     C79364   1.852   0.880   8.294 -0.2411 -0.0911  0.5986
  602MOL0     C79365   1.922   0.853   8.409 -0.2154  0.8262 -0.5659
  602MOL0     C79366   1.979   0.956   8.477  0.5999 -0.6059  0.2999
  602MOL0     O79367   2.044   0.926   8.591  0.2875  0.7472  0.0132
  602MOL0     C79368   1.949   0.952   8.699 -0.0963  0.3559  0.2538
  602MOL0     C79369   2.007   0.892   8.832  0.3453  0.0603 -0.0757
  602MOL0     C79370   2.128   0.973   8.900 -0.5696 -0.7229  0.0120
  602MOL0     C79371   2.193   0.891   9.008 -0.2767 -0.0953 -0.7033
  602MOL0     C79372   2.287   0.973   9.106  0.3516 -0.6062 -0.3799
  602MOL0     C79373   2.428   0.994   9.044  0.2986 -0.3437  0.0288
  602MOL0     C79374   2.436   1.120   8.958 -0.5339 -0.7774 -0.6631
  602MOL0     C79375   2.549   1.211   8.998  0.4564  0.5967  0.2093
  602MOL0    Cl79376   2.528   1.380   8.933  0.2207  0.7889  0.0321
  602MOL0     C79377   1.980   1.088   8.424  0.1270 -0.9638 -0.7829
  602MOL0     C79378   1.936   1.120   8.296 -0.0865  0.5387 -0.2608
  602MOL0     O79379   1.585   1.019   8.238 -0.2967  0.5317 -0.0968
  602MOL0     C79380   1.445   1.082   8.012  0.3265  0.1700  0.2095
  602MOL0     C79381   1.374   1.099   7.889  0.0227 -0.5592 -0.1474
  602MOL0     N79382   1.329   0.971   6.987  0.0746 -0.5783  0.2925
  602MOL0     N79383   1.378   0.965   6.872  0.8932 -0.0180  0.3276
  602MOL0     C79384   1.363   0.783   5.984 -0.3202  0.1091 -0.9036
  602MOL0     C79385   1.314   0.775   5.850 -0.3453  0.0812 -0.0085
  602MOL0     C79386   1.350   0.709   5.433 -1.1098  0.6692 -0.1611
  602MOL0     C79387   1.233   0.657   5.375 -0.4110  0.0947 -0.1787
  602MOL0     C79388   1.199   0.698   5.246  0.5802 -0.6334  0.0060
  602MOL0     C79389   1.281   0.789   5.173  0.0496  0.3804  0.1118
  602MOL0     O79390   1.247   0.848   5.048  0.0705  0.0729 -0.2997
  602MOL0     C79391   1.129   0.811   4.965  0.0172  1.1445 -0.4640
  602MOL0     C79392   1.113   0.661   4.925 -0.6100  0.0218  0.0198
  602MOL0     C79393   1.224   0.608   4.820  0.5753  0.3436 -0.6218
  602MOL0     C79394   1.330   0.517   4.881 -0.2180  0.5729  1.1236
  602MOL0     C79395   1.412   0.451   4.777  0.5912 -0.2578 -0.2683
  602MOL0     C79396   1.456   0.387   4.684 -0.9445  0.1616  0.4133
  602MOL0     C79397   1.396   0.833   5.230  0.4383 -1.1062  0.0461
  602MOL0     C79398   1.444   0.786   5.355 -0.7195  0.2380  0.4078
  602MOL0     H79399   1.374   0.448   5.802  1.4341  1.0715  0.9719
  602MOL0     H79400   1.446   0.455   6.033  1.4647  1.4291 -1.2616
  602MOL0     H79401   1.561   0.519   6.217 -0.3026 -1.0985  1.9539
  602MOL0     H79402   1.397   0.509   6.291 -0.3463 -2.2464  0.6287
  602MOL0     H79403   1.589   0.522   6.439  0.0345  0.4246  1.5030
  602MOL0     H79404   1.469   0.625   6.479 -2.7805 -0.5655 -2.3088
  602MOL0     H79405   1.590   0.827   6.362 -1.0727 -1.0250  0.6379
  602MOL0     H79406   1.708   0.712   6.317 -1.7602  1.2051 -2.2542
  602MOL0     H79407   1.597   0.808   6.603 -1.0266  2.3056 -0.7075
  602MOL0     H79408   1.751   0.707   6.590  1.9607  2.5975  1.1208
  602MOL0     H79409   1.703   0.982   6.492 -2.1197 -1.0017 -1.3781
  602MOL0     H79410   1.854   0.879   6.472 -0.0399 -3.3575  2.0393
  602MOL0     H79411   1.889   1.025   6.681  1.8093 -0.9918  0.0025
  602MOL0     H79412   1.898   0.860   6.704  2.2958  2.3973  2.6699
  602MOL0     H79413   1.700   0.840   6.824  2.9716  0.0760 -0.5694
  602MOL0     H79414   1.752   1.005   6.869 -1.9162  3.2043 -1.3657
  602MOL0     H79415   1.547   0.994   6.661  1.5699 -1.6261 -1.4203
  602MOL0     H79416   1.616   1.126   6.738  1.1295 -1.5835 -1.4327
  602MOL0     H79417   1.618   1.113   7.028 -0.8561  0.4216  0.6665
  602MOL0     H79418   1.338   0.985   7.271  4.5857 -0.1447  1.2561
  602MOL0     H79419   1.318   1.161   7.208 -0.8258  0.5671  2.1889
  602MOL0     H79420   1.557   1.194   7.242  0.8541 -0.6695  0.5252
  602MOL0     H79421   1.573   1.017   7.270 -0.1029 -0.2768 -0.4389
  602MOL0     H79422   1.569   1.176   7.485  1.2850  1.3246 -3.0197
  602MOL0     H79423   1.406   1.223   7.447  0.8403  1.4062  2.3693
  602MOL0     H79424   1.494   0.939   7.533  0.2241 -1.0857 -0.9289
  602MOL0     H79425   1.332   0.967   7.472  2.1325 -2.1985 -0.2518
  602MOL0     H79426   1.626   0.992   7.675  0.1407  1.2469 -0.8447
  602MOL0     H79427   1.747   0.982   7.899 -1.0739 -0.8518  2.4966
  602MOL0     H79428   1.795   0.814   8.229  0.2276  0.5390 -0.4884
  602MOL0     H79429   1.921   0.754   8.455 -0.3508  1.3210  0.5342
  602MOL0     H79430   1.856   0.900   8.675  0.7330 -0.0157 -2.5447
  602MOL0     H79431   1.944   1.061   8.701 -0.5653  0.3367  0.2484
  602MOL0     H79432   2.049   0.793   8.812  1.6696  1.1354 -3.2094
  602MOL0     H79433   1.923   0.881   8.901 -0.3388  3.2312 -0.2585
  602MOL0     H79434   2.097   1.070   8.941 -1.8264 -0.7374 -0.8498
  602MOL0     H79435   2.179   0.994   8.806  0.2996 -3.4986 -0.2102
  602MOL0     H79436   2.103   0.851   9.055 -0.6631 -1.0562 -2.1963
  602MOL0     H79437   2.257   0.815   8.964  2.1159  2.0133 -1.0897
  602MOL0     H79438   2.307   0.913   9.195 -0.3659  0.3476  0.4571
  602MOL0     H79439   2.232   1.059   9.148 -1.3337 -2.0005  0.4117
  602MOL0     H79440   2.464   0.903   8.995 -1.5049 -1.5965  0.8903
  602MOL0     H79441   2.501   1.001   9.125  1.0937  0.9569 -0.7510
  602MOL0     H79442   2.443   1.105   8.850 -1.4294  2.0889 -1.2041
  602MOL0     H79443   2.348   1.180   8.983  0.1230 -0.2501  0.4510
  602MOL0     H79444   2.637   1.160   8.958 -2.1475 -5.1242  0.7113
  602MOL0     H79445   2.542   1.210   9.107 -0.7329 -3.4541  0.2890
  602MOL0     H79446   2.023   1.167   8.485 -0.9869 -1.7433  1.0927
  602MOL0     H79447   1.941   1.220   8.254  1.6723  0.1390 -1.1042
  602MOL0     H79448   1.387   1.093   8.102  0.8364 -0.8905  0.6886
  602MOL0     H79449   1.271   1.133   7.887  0.8304  2.1078 -1.9080
  602MOL0     H79450   1.368   0.876   6.039  0.1156  0.1176 -0.9526
  602MOL0     H79451   1.285   0.865   5.795  3.7176  0.4953 -1.8185
  602MOL0     H79452   1.172   0.591   5.436  1.5834 -1.1482  0.5919
  602MOL0     H79453   1.097   0.672   5.221 -0.8254  0.0827  4.1303
  602MOL0     H79454   1.131   0.869   4.872 -2.5264  2.0579 -0.0333
  602MOL0     H79455   1.031   0.840   5.004  0.0232  0.7713 -0.1633
  602MOL0     H79456   1.124   0.594   5.010  1.8390 -1.8598 -1.6538
  602MOL0     H79457   1.013   0.654   4.882 -2.0484  5.3802  1.7121
  602MOL0     H79458   1.275   0.691   4.771 -2.8769  0.9583 -3.6681
  602MOL0     H79459   1.176   0.543   4.746  3.3125 -2.2777 -0.2939
  602MOL0     H79460   1.394   0.571   4.952 -0.1476  1.5063  0.3632
  602MOL0     H79461   1.278   0.442   4.942  0.6178 -1.9091 -1.0197
  602MOL0     H79462   1.498   0.337   4.599 -1.8149 -0.2861  0.2431
  602MOL0     H79463   1.446   0.915   5.179 -0.2765 -0.9273 -0.3821
  602MOL0     H79464   1.531   0.836   5.398 -0.0472  1.3147 -2.0411
  603MOL0     O79465   8.723   4.311   4.754 -0.8600 -0.9951  0.2630
  603MOL0     C79466   8.681   4.407   4.685 -0.1884  0.5169  0.4920
  603MOL0     O79467   8.649   4.395   4.555  0.9808  0.5885  1.1808
  603MOL0     C79468   8.688   4.285   4.481 -0.7799  0.7558 -1.2512
  603MOL0     C79469   8.595   4.224   4.401 -0.3470 -0.2677  1.1732
  603MOL0     C79470   8.641   4.110   4.326 -0.0779 -0.3668 -0.3413
  603MOL0     C79471   8.767   4.056   4.333 -0.4181  0.1245 -0.1688
  603MOL0     O79472   8.790   3.945   4.261 -0.0467  0.1972 -0.5104
  603MOL0     C79473   8.865   3.836   4.327  0.0443 -0.7459 -0.0343
  603MOL0     C79474   8.853   3.705   4.251 -0.5733  0.3165  0.4117
  603MOL0     C79475   8.939   3.708   4.124 -1.2378  0.1552  0.0109
  603MOL0     C79476   8.931   3.581   4.040 -0.1831  0.0699 -0.9087
  603MOL0     C79477   9.036   3.576   3.933  0.7042 -0.6364 -0.5841
  603MOL0     C79478   9.179   3.570   3.982 -0.2016  0.9063 -0.2620
  603MOL0     C79479   9.283   3.592   3.869  0.2110  0.0629 -0.6409
  603MOL0     C79480   9.421   3.539   3.926 -1.4662  0.9973 -0.1181
  603MOL0     N79481   9.469   3.620   4.047 -0.6118 -0.0577  0.0127
  603MOL0     C79482   9.478   3.762   4.049  0.3172 -0.5637 -0.2720
  603MOL0     C79483   9.508   3.792   4.176  0.7822 -0.9307  1.0371
  603MOL0     C79484   9.519   3.931   4.235 -0.6013  0.2743 -0.2381
  603MOL0     C79485   9.385   4.006   4.208  0.0019  0.4631 -0.0860
  603MOL0     C79486   9.394   4.120   4.112  0.0585  0.7290 -0.3313
  603MOL0     C79487   9.266   4.191   4.095 -0.0540  0.3501 -0.9926
  603MOL0     O79488   9.218   4.253   4.217 -1.3241  0.2518  0.1718
  603MOL0     C79489   9.109   4.335   4.196 -0.0269 -0.5419 -1.0403
  603MOL0     C79490   9.086   4.420   4.297  0.1416  0.0508 -0.0688
  603MOL0     C79491   8.985   4.517   4.298  0.4777  0.7818  0.1317
  603MOL0     C79492   8.909   4.529   4.181  0.3892 -0.0423 -1.3462
  603MOL0     C79493   8.790   4.625   4.180 -0.4771  0.5330  0.1584
  603MOL0     O79494   8.782   4.726   4.274  1.0288  0.0704 -0.7573
  603MOL0     C79495   8.651   4.781   4.310  0.0060  0.7966  0.5226
  603MOL0     C79496   8.640   4.910   4.335  0.4727  0.0140  0.8544
  603MOL0     C79497   8.516   4.963   4.379  0.7433 -0.1293 -0.7922
  603MOL0     C79498   8.404   4.877   4.393 -0.0584 -0.0174 -0.0102
  603MOL0     O79499   8.287   4.923   4.433 -0.3369  0.4754 -0.0698
  603MOL0     C79500   8.201   4.970   4.328  0.3823 -0.1637  0.0796
  603MOL0     C79501   8.057   4.907   4.350  0.2383 -0.8355 -0.7675
  603MOL0     C79502   7.985   4.963   4.477 -0.4201  0.1537  0.0152
  603MOL0     C79503   7.853   4.883   4.501  0.1227 -0.2285 -0.9431
  603MOL0     C79504   7.762   4.966   4.591  0.2892 -0.5451  0.0962
  603MOL0     C79505   7.612   4.928   4.589 -1.0692 -0.8709  0.9442
  603MOL0     C79506   7.538   5.044   4.517  0.5697 -0.3359 -0.0080
  603MOL0     C79507   7.402   5.010   4.456 -0.1532  0.8234  0.3485
  603MOL0    Cl79508   7.429   4.874   4.345 -0.1512 -0.8682  0.0908
  603MOL0     C79509   8.424   4.742   4.368  0.3451  0.2437 -0.1212
  603MOL0     C79510   8.547   4.684   4.329 -0.0727 -0.1451  0.5426
  603MOL0     O79511   8.700   4.591   4.094 -0.1078 -0.1218  0.3666
  603MOL0     C79512   8.942   4.451   4.071  0.0331  0.4815 -1.1027
  603MOL0     C79513   9.038   4.348   4.080 -0.6421  0.8001 -0.2199
  603MOL0     N79514   9.519   3.678   4.247  0.1901 -0.2315 -0.3789
  603MOL0     N79515   9.495   3.573   4.172 -0.0661  0.7637 -0.6710
  603MOL0     C79516   8.858   4.117   4.412  0.1666  0.0055  0.4037
  603MOL0     C79517   8.818   4.225   4.481 -0.2175  0.4583 -0.0091
  603MOL0     C79518   8.649   4.534   4.739 -0.6938 -0.8174 -0.1228
  603MOL0     C79519   8.596   4.641   4.664 -0.1924 -0.4329  0.7978
  603MOL0     C79520   8.595   4.772   4.716  0.8407 -0.5818 -0.5778
  603MOL0     C79521   8.634   4.797   4.848 -0.0831  0.4697 -0.2444
  603MOL0     O79522   8.637   4.921   4.908  1.0056 -0.5967  0.1863
  603MOL0     C79523   8.640   5.038   4.831  1.2376  0.4764  0.9168
  603MOL0     C79524   8.527   5.126   4.875  0.3405 -1.2252  0.4666
  603MOL0     C79525   8.389   5.072   4.869  0.4307 -0.6589 -0.6688
  603MOL0     C79526   8.327   5.031   4.734  0.2321  0.1298 -0.0274
  603MOL0     C79527   8.343   5.153   4.648  0.4511  0.1690  0.3937
  603MOL0     C79528   8.357   5.245   4.568  0.3136  0.1422  0.6788
  603MOL0     C79529   8.671   4.683   4.930  0.3838 -0.3165 -0.2156
  603MOL0     C79530   8.692   4.561   4.870 -0.1923  0.8153  0.9637
  603MOL0     H79531   8.492   4.256   4.397  0.0835  1.0602 -0.4341
  603MOL0     H79532   8.567   4.051   4.273 -2.0434 -0.1926  2.0229
  603MOL0     H79533   8.815   3.839   4.425 -0.4777  0.7200 -0.3055
  603MOL0     H79534   8.968   3.869   4.340  1.3372 -3.9542 -1.3049
  603MOL0     H79535   8.749   3.704   4.217 -0.0573 -1.1205 -1.2534
  603MOL0     H79536   8.892   3.628   4.318 -0.9202  0.8113  1.1974
  603MOL0     H79537   9.044   3.720   4.151 -0.3613 -0.2736 -2.9096
  603MOL0     H79538   8.904   3.792   4.064 -0.3421  0.3122 -0.2980
  603MOL0     H79539   8.937   3.499   4.111 -2.1774  0.4823 -0.1962
  603MOL0     H79540   8.831   3.569   3.996 -0.6220 -2.4618  0.6079
  603MOL0     H79541   9.014   3.655   3.861  3.6897 -1.5745 -2.6760
  603MOL0     H79542   9.010   3.485   3.878  1.5532 -1.1179 -0.2071
  603MOL0     H79543   9.183   3.465   4.011  0.1969  1.2951  1.1958
  603MOL0     H79544   9.220   3.628   4.065  4.3880  0.0759 -1.6157
  603MOL0     H79545   9.238   3.544   3.782 -1.1894 -0.5788  0.3858
  603MOL0     H79546   9.271   3.697   3.842 -2.6937  0.8567  2.9571
  603MOL0     H79547   9.488   3.551   3.841  0.5225 -1.5750  0.9491
  603MOL0     H79548   9.411   3.433   3.953 -2.0249 -0.4072 -4.9420
  603MOL0     H79549   9.455   3.826   3.964 -0.0702 -0.0373  0.2168
  603MOL0     H79550   9.612   3.972   4.193 -1.0799  3.8663  1.8052
  603MOL0     H79551   9.536   3.926   4.343  2.8880 -3.8279 -0.6711
  603MOL0     H79552   9.359   4.039   4.309  2.0374  1.7005  0.1093
  603MOL0     H79553   9.307   3.939   4.172  1.0042 -0.9950  0.3893
  603MOL0     H79554   9.476   4.181   4.153  2.1201 -2.9598  1.5557
  603MOL0     H79555   9.427   4.080   4.015 -3.0194 -0.6010 -0.9472
  603MOL0     H79556   9.192   4.116   4.066  0.1188  0.5082 -1.8757
  603MOL0     H79557   9.280   4.263   4.014  1.6536  2.1235  0.7516
  603MOL0     H79558   9.139   4.412   4.392 -0.6454  1.0420  0.4643
  603MOL0     H79559   8.963   4.589   4.376 -0.6204 -1.3071  1.8404
  603MOL0     H79560   8.724   4.975   4.314 -0.7112  0.7097 -2.3464
  603MOL0     H79561   8.514   5.072   4.383 -0.3537 -0.1865  0.6304
  603MOL0     H79562   8.243   4.919   4.241  0.9796 -2.2027  1.4832
  603MOL0     H79563   8.190   5.079   4.333  0.9017 -0.1136  0.1649
  603MOL0     H79564   8.060   4.799   4.332 -2.3599 -0.5645 -3.5466
  603MOL0     H79565   8.005   4.931   4.257 -2.1312 -1.6149  0.2737
  603MOL0     H79566   7.974   5.072   4.471 -2.2906  0.0889  1.5228
  603MOL0     H79567   8.042   4.954   4.570  1.7819  1.5406 -1.1064
  603MOL0     H79568   7.808   4.863   4.404  2.6269  0.1435 -2.2482
  603MOL0     H79569   7.867   4.793   4.562 -2.2257 -1.0875 -1.5462
  603MOL0     H79570   7.766   5.072   4.564 -1.6360  0.2241  2.4831
  603MOL0     H79571   7.794   4.958   4.695 -3.4828 -3.0404  1.2315
  603MOL0     H79572   7.578   4.927   4.693 -1.0132  3.3574  1.2081
  603MOL0     H79573   7.612   4.834   4.534 -0.5937 -0.9504  1.0800
  603MOL0     H79574   7.520   5.117   4.596  0.2408 -1.2088  0.7441
  603MOL0     H79575   7.597   5.079   4.432  0.4641 -3.0381 -1.2907
  603MOL0     H79576   7.358   5.098   4.407 -0.4970 -0.6656 -2.1974
  603MOL0     H79577   7.341   4.976   4.539 -0.5378 -1.9944 -0.9651
  603MOL0     H79578   8.343   4.670   4.368  0.9782 -0.5366 -2.1097
  603MOL0     H79579   8.564   4.581   4.302  1.4516  0.4824 -1.1263
  603MOL0     H79580   8.881   4.461   3.982  1.1425 -2.0771 -2.2511
  603MOL0     H79581   9.049   4.288   3.991 -1.7939  0.1916  0.0236
  603MOL0     H79582   8.955   4.069   4.422 -1.3064 -3.9020 -1.7396
  603MOL0     H79583   8.889   4.266   4.552  1.3573 -0.3652 -1.0302
  603MOL0     H79584   8.576   4.633   4.558 -0.5272  3.4483  0.4275
  603MOL0     H79585   8.562   4.847   4.645  0.3419  0.3847  0.6356
  603MOL0     H79586   8.630   5.017   4.724 -0.2268  1.5585  0.8088
  603MOL0     H79587   8.730   5.097   4.851  0.2115  1.4817  2.8562
  603MOL0     H79588   8.549   5.160   4.977 -0.2775 -0.6279  0.4036
  603MOL0     H79589   8.522   5.211   4.806  0.6053 -2.2717 -0.8781
  603MOL0     H79590   8.327   5.145   4.922  0.2978 -2.3136  1.5863
  603MOL0     H79591   8.369   4.992   4.940  0.9340  0.6354  1.0041
  603MOL0     H79592   8.369   4.939   4.695 -1.6544 -1.7810  2.1496
  603MOL0     H79593   8.220   5.012   4.752  0.5280 -1.4653  0.1533
  603MOL0     H79594   8.371   5.325   4.498  1.8003  0.2379  1.0490
  603MOL0     H79595   8.694   4.702   5.035  0.7777  0.0466 -0.3603
  603MOL0     H79596   8.728   4.477   4.928  1.4978  1.3972  0.8044
  604MOL0     O79597   1.215   8.949   3.520 -0.4120  0.6786  0.3490
  604MOL0     C79598   1.309   8.909   3.447  0.9449  0.4661 -0.4226
  604MOL0     O79599   1.437   8.869   3.490 -0.8782 -0.7611  0.4393
  604MOL0     C79600   1.457   8.827   3.615  0.2307  0.9478 -0.3276
  604MOL0     C79601   1.405   8.701   3.649 -0.3831 -1.2613  0.0651
  604MOL0     C79602   1.415   8.657   3.783 -0.1586 -0.4855 -0.9715
  604MOL0     C79603   1.482   8.730   3.890  0.1755 -0.2454  0.3800
  604MOL0     O79604   1.489   8.684   4.019 -0.1911 -0.9875 -0.0435
  604MOL0     C79605   1.532   8.782   4.121  0.7492  0.2820  0.1613
  604MOL0     C79606   1.413   8.878   4.169 -0.3713 -0.2811 -0.8057
  604MOL0     C79607   1.308   8.798   4.243  0.3400 -0.9489  0.7205
  604MOL0     C79608   1.167   8.868   4.250 -0.4418 -0.4176  0.1171
  604MOL0     C79609   1.087   8.818   4.375  0.4084 -0.1035  0.1122
  604MOL0     C79610   1.142   8.875   4.503 -0.4295 -0.0664  0.1426
  604MOL0     C79611   1.059   8.855   4.629  0.1600 -0.2071  0.6948
  604MOL0     C79612   1.125   8.919   4.747  0.2155 -0.1814  0.3440
  604MOL0     N79613   1.126   8.840   4.871  0.0715  0.0290  0.2504
  604MOL0     C79614   1.224   8.746   4.898  0.3147  0.4120 -0.3390
  604MOL0     C79615   1.163   8.655   4.977 -1.2117 -0.3483 -0.3162
  604MOL0     C79616   1.223   8.536   5.036 -0.9276  0.5640 -0.3910
  604MOL0     C79617   1.216   8.408   4.941  0.5582 -0.6091  0.8720
  604MOL0     C79618   1.261   8.277   5.004 -0.1123  0.8086 -0.5210
  604MOL0     C79619   1.403   8.258   5.033 -0.4891 -0.8686 -0.2875
  604MOL0     O79620   1.454   8.127   5.058 -0.5503 -0.7519 -0.0739
  604MOL0     C79621   1.469   8.038   4.957 -0.6773  0.6454 -0.0034
  604MOL0     C79622   1.460   8.065   4.818  0.7007 -1.0665  0.1969
  604MOL0     C79623   1.487   7.973   4.724 -0.0362  0.5395 -0.2197
  604MOL0     C79624   1.523   7.841   4.760  0.0565 -1.2340  0.3117
  604MOL0     C79625   1.544   7.749   4.645 -0.2287 -0.7267 -0.5607
  604MOL0     O79626   1.589   7.627   4.681 -0.5797 -0.5206 -0.0077
  604MOL0     C79627   1.637   7.541   4.590 -0.4630 -0.6835 -0.0349
  604MOL0     C79628   1.715   7.567   4.484  0.0382  0.2004  0.8021
  604MOL0     C79629   1.740   7.469   4.387 -0.0899 -0.0630  0.4639
  604MOL0     C79630   1.697   7.334   4.400  0.4036 -0.0287  1.0592
  604MOL0     O79631   1.733   7.229   4.314 -0.3075 -0.2693 -0.6348
  604MOL0     C79632   1.800   7.274   4.194 -0.8500  0.3258  0.0503
  604MOL0     C79633   1.860   7.151   4.119  1.0056 -0.3056 -0.0511
  604MOL0     C79634   1.929   7.194   3.993 -0.9586  1.0369  0.4197
  604MOL0     C79635   1.974   7.077   3.907  0.4250  0.3340  0.1111
  604MOL0     C79636   2.084   7.108   3.815 -0.4802 -0.5545 -0.1289
  604MOL0     C79637   2.097   6.986   3.722 -0.5084  0.2237  0.5319
  604MOL0     C79638   2.232   6.989   3.655 -0.8634 -0.2353  0.6091
  604MOL0     C79639   2.275   6.835   3.618  0.8092  0.8506 -0.5269
  604MOL0    Cl79640   2.432   6.853   3.538  0.2911 -0.4978  0.0614
  604MOL0     C79641   1.616   7.309   4.512 -0.4645 -0.1270 -0.2654
  604MOL0     C79642   1.589   7.405   4.601 -0.0125  0.2910 -0.2036
  604MOL0     O79643   1.509   7.784   4.530  0.0886 -0.0094 -0.3906
  604MOL0     C79644   1.523   7.805   4.899 -0.7807 -0.3860 -0.8175
  604MOL0     C79645   1.498   7.911   4.991 -0.0893  0.7824 -0.8441
  604MOL0     N79646   1.030   8.689   4.994 -0.3265 -0.2148  0.3849
  604MOL0     N79647   1.009   8.802   4.928  0.3057 -0.2245  0.0922
  604MOL0     C79648   1.528   8.861   3.850  1.1663  0.0787  0.1266
  604MOL0     C79649   1.516   8.907   3.720 -0.5690  0.0925  0.1021
  604MOL0     C79650   1.282   8.887   3.309 -0.3999 -0.7691  0.9912
  604MOL0     C79651   1.368   8.840   3.215 -0.1114 -0.2398 -1.0994
  604MOL0     C79652   1.329   8.828   3.079  0.8715  0.0608  0.2397
  604MOL0     C79653   1.196   8.840   3.036 -1.1957  0.4840  0.5865
  604MOL0     O79654   1.161   8.808   2.906 -0.3819 -0.5463 -0.1815
  604MOL0     C79655   1.224   8.688   2.853  0.2386  0.0904  0.2645
  604MOL0     C79656   1.132   8.640   2.750  0.1676 -0.0935  1.1930
  604MOL0     C79657   0.992   8.608   2.803 -0.1440  0.6138  0.0207
  604MOL0     C79658   0.906   8.542   2.697 -1.4580 -0.1898 -0.1318
  604MOL0     C79659   0.902   8.593   2.556 -0.2018 -0.4684 -0.4289
  604MOL0     C79660   0.906   8.652   2.457 -0.0438 -0.1731 -0.5650
  604MOL0     C79661   1.108   8.890   3.133 -0.5172  0.5635  0.3790
  604MOL0     C79662   1.152   8.916   3.264  0.1100  0.4276 -0.9649
  604MOL0     H79663   1.373   8.645   3.562 -2.4095 -0.9622  0.5715
  604MOL0     H79664   1.388   8.556   3.812 -3.3020  0.8037  1.2062
  604MOL0     H79665   1.612   8.848   4.086  0.2044  1.3019  0.7851
  604MOL0     H79666   1.563   8.726   4.210 -2.7936 -0.0025  1.3942
  604MOL0     H79667   1.373   8.919   4.076  1.7930 -0.0142 -1.6943
  604MOL0     H79668   1.450   8.955   4.237 -0.1979 -0.2457 -0.9394
  604MOL0     H79669   1.350   8.795   4.344  0.6832  1.5670  0.7289
  604MOL0     H79670   1.299   8.697   4.203  0.3498 -0.6524 -0.0384
  604MOL0     H79671   1.185   8.976   4.244 -0.3839 -0.4274  0.1092
  604MOL0     H79672   1.115   8.838   4.158 -1.6179 -0.0106  0.6264
  604MOL0     H79673   1.072   8.711   4.390  1.0469 -0.1200  0.6889
  604MOL0     H79674   0.985   8.852   4.355  0.3280 -1.1788 -1.4832
  604MOL0     H79675   1.142   8.981   4.474 -1.6407 -0.6750 -2.3132
  604MOL0     H79676   1.243   8.834   4.516 -0.2922 -0.2139 -1.1769
  604MOL0     H79677   0.958   8.897   4.628  0.1653 -0.1887  0.8038
  604MOL0     H79678   1.057   8.747   4.646  1.0359 -0.1880  0.9426
  604MOL0     H79679   1.065   9.007   4.773 -0.7260 -1.2440  1.9724
  604MOL0     H79680   1.226   8.951   4.720  0.8876 -2.3083  0.1603
  604MOL0     H79681   1.327   8.743   4.863  0.5822 -1.8021  0.4606
  604MOL0     H79682   1.176   8.525   5.134  1.4397 -0.3348  0.6922
  604MOL0     H79683   1.325   8.567   5.059  0.6954 -0.6608 -4.8657
  604MOL0     H79684   1.287   8.434   4.862  0.9465  2.2876  2.0178
  604MOL0     H79685   1.123   8.406   4.884  0.5882  3.4141  0.3647
  604MOL0     H79686   1.214   8.274   5.103 -1.1203 -0.2723 -1.0047
  604MOL0     H79687   1.221   8.195   4.943 -0.8832  0.7596  0.0211
  604MOL0     H79688   1.418   8.321   5.121  1.6878  0.4147 -1.4826
  604MOL0     H79689   1.463   8.304   4.953  0.5976  1.7898  1.8985
  604MOL0     H79690   1.420   8.156   4.774  1.2277 -0.9434 -0.0328
  604MOL0     H79691   1.471   8.020   4.628  3.5084 -1.3966 -1.9747
  604MOL0     H79692   1.739   7.670   4.456  1.7866  0.2068  2.1130
  604MOL0     H79693   1.802   7.499   4.303  1.7941 -2.8292  0.7276
  604MOL0     H79694   1.885   7.340   4.214 -0.7498  0.8066 -1.8282
  604MOL0     H79695   1.728   7.325   4.130 -0.9026 -0.1503 -0.2713
  604MOL0     H79696   1.781   7.077   4.108 -0.8088  1.4377  0.5101
  604MOL0     H79697   1.931   7.121   4.196  2.3713  4.6817  1.0246
  604MOL0     H79698   2.017   7.255   4.016 -1.2485  2.6376 -2.3532
  604MOL0     H79699   1.873   7.262   3.929 -1.5464 -0.7556 -1.0448
  604MOL0     H79700   1.995   6.985   3.962  0.7093 -0.6229 -1.5608
  604MOL0     H79701   1.895   7.041   3.841  0.2146  2.7842 -1.0955
  604MOL0     H79702   2.175   7.110   3.875 -0.7034 -1.0754  0.2388
  604MOL0     H79703   2.069   7.205   3.767 -1.2131 -0.4894  0.2176
  604MOL0     H79704   2.026   6.994   3.640  1.0426  2.1423 -0.7285
  604MOL0     H79705   2.089   6.890   3.773 -2.5565 -0.1506 -0.3972
  604MOL0     H79706   2.227   7.051   3.565 -1.9740  1.2842  1.6743
  604MOL0     H79707   2.302   7.037   3.724  1.1540 -0.7062 -0.9999
  604MOL0     H79708   2.204   6.782   3.553 -2.2105  0.0767  3.0155
  604MOL0     H79709   2.264   6.775   3.708  0.6193 -1.3786 -1.9510
  604MOL0     H79710   1.574   7.210   4.527  2.1829 -1.8417 -2.7631
  604MOL0     H79711   1.522   7.376   4.681  0.0955 -0.9176 -0.5243
  604MOL0     H79712   1.551   7.708   4.939 -2.5501  0.2141  2.1684
  604MOL0     H79713   1.505   7.895   5.098  1.4228 -2.6368 -1.3128
  604MOL0     H79714   1.578   8.935   3.911  3.0543  0.5996 -1.8956
  604MOL0     H79715   1.559   9.004   3.696 -0.1724  1.3223  4.8688
  604MOL0     H79716   1.473   8.822   3.235  0.2950  1.9922 -0.9060
  604MOL0     H79717   1.413   8.786   3.025  1.2225 -0.9640  1.5227
  604MOL0     H79718   1.239   8.607   2.926 -2.3720  0.4611  1.3360
  604MOL0     H79719   1.320   8.704   2.804 -1.0963 -0.1042 -2.5929
  604MOL0     H79720   1.114   8.725   2.684  2.3139 -1.7312 -1.7604
  604MOL0     H79721   1.171   8.555   2.693  3.3477  1.8999  0.1369
  604MOL0     H79722   0.954   8.708   2.828 -2.8093  0.2071 -1.9177
  604MOL0     H79723   0.992   8.543   2.891  1.0736 -0.4706 -0.7420
  604MOL0     H79724   0.929   8.436   2.706  2.1463  0.5756  1.4949
  604MOL0     H79725   0.799   8.530   2.718 -0.8468 -1.5550  2.5687
  604MOL0     H79726   0.912   8.696   2.359 -0.9325  0.3260 -0.4055
  604MOL0     H79727   1.008   8.890   3.091 -0.1889  0.0597 -0.4053
  604MOL0     H79728   1.071   8.945   3.330 -1.1608 -1.5963 -1.5615
  605MOL0     O79729   4.460  10.004   3.776  0.5492 -1.3184 -1.1311
  605MOL0     C79730   4.453  10.112   3.831 -0.5905 -0.0867 -0.5355
  605MOL0     O79731   4.449  10.127   3.959  0.2581  0.2461 -0.4768
  605MOL0     C79732   4.415  10.016   4.031  0.4435 -0.4227  0.2920
  605MOL0     C79733   4.509   9.910   4.052  0.8511  0.5787  0.4341
  605MOL0     C79734   4.480   9.794   4.129 -0.6966  0.1308  0.6490
  605MOL0     C79735   4.371   9.791   4.213 -0.3078  1.1447  0.7906
  605MOL0     O79736   4.351   9.692   4.302 -0.5486 -0.4911 -0.0232
  605MOL0     C79737   4.435   9.576   4.296  0.4287  0.7238 -0.0707
  605MOL0     C79738   4.382   9.474   4.406 -0.2294 -0.7972 -0.8532
  605MOL0     C79739   4.231   9.459   4.427  0.3295  0.1368 -0.0249
  605MOL0     C79740   4.164   9.401   4.297 -0.4347 -0.1373  0.7059
  605MOL0     C79741   4.008   9.420   4.283 -0.9447  1.0326 -0.1098
  605MOL0     C79742   3.965   9.566   4.261  0.4924 -0.1490  0.5408
  605MOL0     C79743   3.812   9.566   4.260 -0.5298 -0.7675 -0.1344
  605MOL0     C79744   3.747   9.503   4.129 -0.1856 -0.3946 -0.1118
  605MOL0     N79745   3.602   9.526   4.109  0.9159 -0.0797 -0.0039
  605MOL0     C79746   3.526   9.615   4.179 -0.1576  0.5353 -0.5613
  605MOL0     C79747   3.412   9.624   4.110  0.0850 -0.2952 -0.4802
  605MOL0     C79748   3.291   9.696   4.152  0.2487  0.4654 -1.3321
  605MOL0     C79749   3.187   9.733   4.034  0.3846  0.0806 -0.3310
  605MOL0     C79750   3.090   9.616   4.017  0.1263  0.1715  0.3094
  605MOL0     C79751   3.031   9.596   3.879 -0.7462 -0.8636 -0.0463
  605MOL0     O79752   2.947   9.699   3.841  0.6793 -0.2236  0.2614
  605MOL0     C79753   2.808   9.691   3.861 -0.0588  1.1265 -0.3293
  605MOL0     C79754   2.734   9.571   3.854  0.9253 -0.2517 -0.6446
  605MOL0     C79755   2.597   9.586   3.844  0.6985  0.5835 -0.0518
  605MOL0     C79756   2.525   9.703   3.856  0.0750  0.1567 -0.2965
  605MOL0     C79757   2.381   9.698   3.851 -0.4709  0.3565 -0.7654
  605MOL0     O79758   2.314   9.790   3.781  0.2333  0.4570  0.2275
  605MOL0     C79759   2.195   9.831   3.831  1.3324  0.7108  0.2913
  605MOL0     C79760   2.186   9.939   3.919  0.4729 -0.5959  0.5858
  605MOL0     C79761   2.067   9.977   3.971 -0.3677 -0.6262  0.0559
  605MOL0     C79762   1.944   9.915   3.941 -1.2670 -0.9929  0.5390
  605MOL0     O79763   1.831   9.971   3.994 -0.1208  0.9276  0.2194
  605MOL0     C79764   1.730   9.996   3.899 -0.7671 -0.0413  0.7802
  605MOL0     C79765   1.698  10.145   3.898 -1.1546 -0.0115  0.2226
  605MOL0     C79766   1.586  10.164   3.791 -0.4784 -0.3095 -0.0528
  605MOL0     C79767   1.554  10.310   3.770 -0.2938  0.1037 -0.2302
  605MOL0     C79768   1.426  10.338   3.687  0.3940  0.1330  0.7996
  605MOL0     C79769   1.300  10.317   3.763  0.3382  0.5372  0.3733
  605MOL0     C79770   1.289  10.418   3.875 -0.0041  0.8150 -1.0763
  605MOL0     C79771   1.159  10.392   3.961 -0.6665 -0.2191  1.5049
  605MOL0    Cl79772   1.138  10.536   4.057 -0.6769  0.0054 -0.2260
  605MOL0     C79773   1.949   9.808   3.852  0.4935  0.3066  0.1982
  605MOL0     C79774   2.071   9.767   3.800  0.5878 -0.3711  0.1278
  605MOL0     O79775   2.341   9.619   3.932  0.5418 -0.1337  0.4676
  605MOL0     C79776   2.604   9.819   3.869  0.2314  0.4726 -0.0449
  605MOL0     C79777   2.745   9.813   3.866  0.2972  0.5311  0.7182
  605MOL0     N79778   3.421   9.543   3.999  0.6102 -0.2013 -0.0652
  605MOL0     N79779   3.527   9.477   4.004 -0.0509 -0.5912  0.0065
  605MOL0     C79780   4.282   9.913   4.202 -0.2981 -0.0470 -0.7545
  605MOL0     C79781   4.309  10.024   4.121 -0.3468 -0.0173 -0.0132
  605MOL0     C79782   4.452  10.235   3.760  0.0271 -0.3822 -0.0099
  605MOL0     C79783   4.427  10.353   3.822  0.4965  0.3428  0.0746
  605MOL0     C79784   4.429  10.480   3.750  0.9464 -0.0695  0.2218
  605MOL0     C79785   4.456  10.478   3.615  0.8245 -0.7409  0.0002
  605MOL0     O79786   4.464  10.608   3.568 -0.0240 -0.3775  1.1114
  605MOL0     C79787   4.469  10.630   3.419 -0.7007 -0.9168 -0.1773
  605MOL0     C79788   4.460  10.782   3.407  0.3951 -0.0669 -0.5011
  605MOL0     C79789   4.319  10.832   3.380 -0.1112  0.4839 -0.2850
  605MOL0     C79790   4.256  10.906   3.507  0.2627 -0.7684 -0.8538
  605MOL0     C79791   4.112  10.916   3.486 -0.5114 -0.5238 -0.5236
  605MOL0     C79792   3.986  10.922   3.476  0.0246  1.2296 -0.2185
  605MOL0     C79793   4.479  10.353   3.542 -0.5026 -0.9615 -0.4310
  605MOL0     C79794   4.486  10.235   3.618 -0.9872 -0.0639 -0.1747
  605MOL0     H79795   4.599   9.913   3.992 -1.2172  2.2431 -2.9334
  605MOL0     H79796   4.558   9.719   4.131  0.5947  1.2175 -2.9119
  605MOL0     H79797   4.539   9.595   4.323  0.3132  0.5465  0.5079
  605MOL0     H79798   4.439   9.518   4.203 -0.6111 -1.8636  1.3927
  605MOL0     H79799   4.414   9.508   4.505 -2.2798 -0.4955 -0.2529
  605MOL0     H79800   4.423   9.373   4.395  0.8040 -0.5250  0.2288
  605MOL0     H79801   4.191   9.557   4.453  2.7737  1.0118  0.7351
  605MOL0     H79802   4.222   9.390   4.512  0.0332 -1.2363 -1.1365
  605MOL0     H79803   4.224   9.447   4.218  4.2719  2.2299  5.1090
  605MOL0     H79804   4.181   9.294   4.309 -0.9677 -0.0186  2.8540
  605MOL0     H79805   3.978   9.379   4.380  0.0966  0.9980  0.2155
  605MOL0     H79806   3.955   9.361   4.208 -0.5698  3.8194 -2.7575
  605MOL0     H79807   3.997   9.601   4.163  2.5330 -1.3468  0.7253
  605MOL0     H79808   4.007   9.630   4.340  2.5192  1.0787 -1.3923
  605MOL0     H79809   3.770   9.524   4.352 -0.4454 -1.3839 -0.3786
  605MOL0     H79810   3.787   9.673   4.268 -0.6981 -0.9117  1.8192
  605MOL0     H79811   3.756   9.394   4.132 -2.1923 -0.7316 -2.6618
  605MOL0     H79812   3.810   9.529   4.044  1.8119 -0.1835  1.3752
  605MOL0     H79813   3.553   9.663   4.272  1.3404  1.5098 -1.4636
  605MOL0     H79814   3.313   9.782   4.216  0.3805 -0.7791  0.3719
  605MOL0     H79815   3.237   9.642   4.230 -0.4045  2.8861  0.0093
  605MOL0     H79816   3.236   9.756   3.939  1.4154  0.5026  0.2842
  605MOL0     H79817   3.133   9.823   4.065  2.3393  0.5336  2.0695
  605MOL0     H79818   3.145   9.522   4.015 -0.3757 -0.1210 -0.9630
  605MOL0     H79819   3.007   9.607   4.089 -2.5194 -0.9753 -2.6185
  605MOL0     H79820   2.990   9.495   3.869 -1.3015 -0.6588  0.0798
  605MOL0     H79821   3.107   9.594   3.801 -1.2072  0.7797 -0.5856
  605MOL0     H79822   2.782   9.474   3.862 -0.2413 -0.7257  1.4453
  605MOL0     H79823   2.543   9.492   3.834  0.7352  0.7155 -2.0525
  605MOL0     H79824   2.278   9.978   3.962  0.2758 -0.1668  0.6259
  605MOL0     H79825   2.056  10.048   4.053 -1.2815 -2.0486  1.2227
  605MOL0     H79826   1.642   9.941   3.934  0.5490 -1.8694  1.4016
  605MOL0     H79827   1.756   9.967   3.797  1.9909 -0.0790  1.4125
  605MOL0     H79828   1.791  10.195   3.871 -0.9594 -0.6051 -0.2179
  605MOL0     H79829   1.683  10.181   4.001 -2.6441 -0.8068  0.3096
  605MOL0     H79830   1.512  10.095   3.830  0.2813 -1.5048 -0.6849
  605MOL0     H79831   1.628  10.112   3.704  1.4819 -1.2462  1.3746
  605MOL0     H79832   1.554  10.367   3.863 -0.7267 -2.4320  1.4321
  605MOL0     H79833   1.633  10.347   3.704 -0.3311  0.4811 -0.0661
  605MOL0     H79834   1.424  10.285   3.592 -0.2271  4.8870 -2.1957
  605MOL0     H79835   1.426  10.442   3.654 -2.1593  0.3409  1.2284
  605MOL0     H79836   1.307  10.216   3.804  0.6092  1.1821  2.0000
  605MOL0     H79837   1.210  10.318   3.701  2.2628 -0.8851 -2.6512
  605MOL0     H79838   1.370  10.420   3.949 -1.7876  1.4425  0.9818
  605MOL0     H79839   1.273  10.517   3.833  0.1471  1.4132  0.2202
  605MOL0     H79840   1.169  10.309   4.032  2.4905 -3.0223 -1.7718
  605MOL0     H79841   1.072  10.374   3.897  0.8092 -0.7073 -0.4857
  605MOL0     H79842   1.862   9.759   3.809  1.7788 -4.1144  2.0017
  605MOL0     H79843   2.054   9.699   3.718  1.7010  0.4803 -0.8460
  605MOL0     H79844   2.552   9.914   3.880 -1.5285 -0.3591 -0.7718
  605MOL0     H79845   2.810   9.899   3.874  0.3677  0.3405  3.0339
  605MOL0     H79846   4.187   9.921   4.254  2.2298  3.3187  4.1010
  605MOL0     H79847   4.251  10.116   4.123  2.4582  1.9619 -1.9570
  605MOL0     H79848   4.405  10.378   3.925 -0.3168  0.6184 -0.1532
  605MOL0     H79849   4.406  10.575   3.798 -1.4250  0.4355 -1.6805
  605MOL0     H79850   4.387  10.590   3.359 -0.8137  3.9240 -3.8441
  605MOL0     H79851   4.564  10.596   3.375  1.1962  5.0734 -1.7090
  605MOL0     H79852   4.494  10.844   3.490  0.4124 -0.5837 -0.1187
  605MOL0     H79853   4.518  10.813   3.319  0.8345  1.4531  0.2976
  605MOL0     H79854   4.258  10.753   3.335  0.8838 -1.9828  2.4242
  605MOL0     H79855   4.318  10.917   3.311 -2.7261 -0.3503 -1.4237
  605MOL0     H79856   4.271  10.847   3.598 -2.9506 -0.3733  0.0743
  605MOL0     H79857   4.302  11.005   3.508 -1.7475  0.2575  1.5118
  605MOL0     H79858   3.880  10.927   3.467  0.1825  1.9941 -2.1538
  605MOL0     H79859   4.487  10.355   3.434  0.5301  5.1391 -0.5837
  605MOL0     H79860   4.519  10.144   3.569 -2.0644 -0.8971  0.5944
  606MOL0     O79861   0.556   3.452   0.723 -0.2820 -0.3384  0.0783
  606MOL0     C79862   0.669   3.437   0.759 -0.4775 -0.2048 -0.1552
  606MOL0     O79863   0.721   3.338   0.829  0.6119  0.6378  0.1678
  606MOL0     C79864   0.635   3.247   0.884 -0.2378  0.0920  0.2215
  606MOL0     C79865   0.558   3.165   0.804 -0.1723 -0.4155 -0.1392
  606MOL0     C79866   0.478   3.067   0.857  0.6389  0.5253 -0.0950
  606MOL0     C79867   0.469   3.064   0.997  0.5493 -0.2641 -0.2712
  606MOL0     O79868   0.379   2.982   1.056  0.8830  0.4534  0.3388
  606MOL0     C79869   0.440   2.870   1.138  0.4842 -0.7384  0.1396
  606MOL0     C79870   0.404   2.737   1.085  0.3142 -0.1713 -0.3281
  606MOL0     C79871   0.448   2.697   0.953 -0.1756 -0.2878 -1.0697
  606MOL0     C79872   0.597   2.705   0.930 -0.0280  0.0330  0.0614
  606MOL0     C79873   0.604   2.698   0.771  0.6567 -0.1493 -0.4754
  606MOL0     C79874   0.757   2.690   0.726  0.8575 -0.9359 -0.5691
  606MOL0     C79875   0.791   2.628   0.590  0.4197  0.4436  0.2539
  606MOL0     C79876   0.699   2.684   0.473 -0.4560 -0.1904 -0.5282
  606MOL0     N79877   0.741   2.657   0.331 -0.4834 -0.5543 -0.1808
  606MOL0     C79878   0.872   2.661   0.288  0.7670 -0.0769 -0.7702
  606MOL0     C79879   0.865   2.609   0.166 -0.1435  0.9751 -0.4607
  606MOL0     C79880   0.991   2.584   0.089  0.5370  0.3951  0.6088
  606MOL0     C79881   0.969   2.450   0.025 -0.1659  0.3612 -0.1871
  606MOL0     C79882   1.082   2.400  -0.073 -0.1135  0.1417 -0.5165
  606MOL0     C79883   1.218   2.361  -0.002  0.1520 -0.0741 -0.3171
  606MOL0     O79884   1.212   2.291   0.118 -0.1116 -0.2014  0.4428
  606MOL0     C79885   1.250   2.153   0.113 -0.0054 -0.1713  0.6621
  606MOL0     C79886   1.368   2.115   0.187 -0.7719  0.3454 -0.3068
  606MOL0     C79887   1.397   1.975   0.194  1.6116  1.1202  0.2442
  606MOL0     C79888   1.334   1.882   0.114  0.3422  0.5842  0.2967
  606MOL0     C79889   1.375   1.743   0.120  0.5823  0.7002  0.5782
  606MOL0     O79890   1.458   1.707   0.228 -0.2907 -0.2457 -0.3925
  606MOL0     C79891   1.534   1.590   0.223 -0.4569 -0.1927 -0.3682
  606MOL0     C79892   1.677   1.612   0.231  0.1848  0.8736  0.0159
  606MOL0     C79893   1.764   1.504   0.234 -0.4210 -0.4031 -0.5960
  606MOL0     C79894   1.713   1.371   0.222  0.1548 -0.9066  0.6523
  606MOL0     O79895   1.811   1.277   0.200  1.1247 -0.3599  0.1781
  606MOL0     C79896   1.812   1.163   0.290  0.1240  0.9098  0.1723
  606MOL0     C79897   1.828   1.199   0.439 -0.3625  0.0893 -0.0896
  606MOL0     C79898   1.972   1.256   0.460  0.4332  0.1600  0.2605
  606MOL0     C79899   1.982   1.279   0.613  0.5174 -0.0926  0.4531
  606MOL0     C79900   2.117   1.328   0.641  0.2038  0.1970  0.1960
  606MOL0     C79901   2.149   1.358   0.790  0.5649  0.3024  0.0653
  606MOL0     C79902   2.062   1.458   0.857  0.5532 -0.1535  0.2391
  606MOL0     C79903   2.116   1.528   0.982  0.1574  0.1545  0.9715
  606MOL0    Cl79904   2.020   1.669   1.029  0.4824 -0.1658 -0.5054
  606MOL0     C79905   1.574   1.344   0.215  0.7138 -0.7331 -0.0023
  606MOL0     C79906   1.481   1.457   0.236 -0.4710  0.6152  1.1774
  606MOL0     O79907   1.352   1.672   0.029  0.2227  0.1540  0.5448
  606MOL0     C79908   1.232   1.923   0.041 -0.1483  0.5362 -0.5569
  606MOL0     C79909   1.189   2.056   0.037  0.4592  0.0344 -0.6065
  606MOL0     N79910   0.740   2.570   0.129  0.5139 -0.4373 -0.0262
  606MOL0     N79911   0.666   2.608   0.226  1.6336  0.4995  0.2811
  606MOL0     C79912   0.534   3.149   1.086 -0.9993  0.0771 -0.2406
  606MOL0     C79913   0.629   3.246   1.032 -0.2482  0.0287  0.8511
  606MOL0     C79914   0.767   3.543   0.730  0.6895  0.1807  0.4547
  606MOL0     C79915   0.734   3.676   0.711  0.3051 -0.2296  0.5117
  606MOL0     C79916   0.833   3.776   0.676  0.8914  0.0962  1.0560
  606MOL0     C79917   0.962   3.733   0.660  0.8582 -0.3468 -1.1454
  606MOL0     O79918   1.063   3.809   0.602  0.2201 -0.1612 -0.0345
  606MOL0     C79919   1.056   3.954   0.565 -0.1772  0.4987 -0.0134
  606MOL0     C79920   1.167   4.000   0.478 -0.7384 -1.1968  0.8734
  606MOL0     C79921   1.302   3.999   0.552  0.0070 -0.5770  0.3314
  606MOL0     C79922   1.430   4.029   0.478  0.1028 -0.0309  0.8584
  606MOL0     C79923   1.444   4.177   0.464 -0.0374  0.9981  0.1433
  606MOL0     C79924   1.461   4.290   0.419  0.3167 -0.3853 -0.2533
  606MOL0     C79925   0.994   3.600   0.691 -0.3036 -0.0091 -0.2206
  606MOL0     C79926   0.897   3.505   0.726  0.4277 -0.0965 -0.1105
  606MOL0     H79927   0.571   3.178   0.697 -3.6406  2.3892 -0.3925
  606MOL0     H79928   0.426   2.993   0.795  0.9669 -1.0343  1.4155
  606MOL0     H79929   0.402   2.881   1.240 -0.7574 -1.6132 -0.1990
  606MOL0     H79930   0.546   2.896   1.133 -0.1432  2.0365 -0.4981
  606MOL0     H79931   0.295   2.730   1.089  0.1272  1.0576 -2.0744
  606MOL0     H79932   0.440   2.666   1.161 -1.7456  2.1452  3.0732
  606MOL0     H79933   0.401   2.764   0.880  1.3174  0.0548 -1.7542
  606MOL0     H79934   0.408   2.596   0.936 -0.0801 -0.2060 -1.8425
  606MOL0     H79935   0.640   2.801   0.961  1.3896 -0.5546 -0.0167
  606MOL0     H79936   0.646   2.621   0.979 -0.7208  0.6798  1.9492
  606MOL0     H79937   0.560   2.792   0.739 -4.6448 -0.6895  3.6656
  606MOL0     H79938   0.540   2.614   0.740 -2.0603  1.6722 -0.0881
  606MOL0     H79939   0.808   2.644   0.811 -0.6227  0.8329  1.3927
  606MOL0     H79940   0.791   2.794   0.730  0.1466 -0.7136  0.0743
  606MOL0     H79941   0.896   2.653   0.574  0.2500  1.0024 -0.0617
  606MOL0     H79942   0.774   2.521   0.596  2.2823 -0.0296 -1.6201
  606MOL0     H79943   0.706   2.793   0.481  0.2152 -0.1487 -1.4759
  606MOL0     H79944   0.598   2.643   0.474 -0.0989 -1.1921 -1.8554
  606MOL0     H79945   0.960   2.694   0.343  1.0131  1.4697 -2.0211
  606MOL0     H79946   1.074   2.587   0.160  1.9999  2.9598 -1.0528
  606MOL0     H79947   0.998   2.659   0.010 -0.7118 -3.3951 -3.5294
  606MOL0     H79948   0.874   2.450  -0.029  1.0026 -0.3493 -2.3824
  606MOL0     H79949   0.959   2.386   0.113  0.8300  0.1740 -0.1944
  606MOL0     H79950   1.032   2.318  -0.125 -0.9784  1.2409 -1.4703
  606MOL0     H79951   1.100   2.461  -0.162  1.2092 -0.5851 -0.7815
  606MOL0     H79952   1.268   2.457   0.015  1.8671 -1.1836  1.3656
  606MOL0     H79953   1.291   2.315  -0.069  1.5473 -1.2656  1.9266
  606MOL0     H79954   1.423   2.179   0.255  0.7784 -2.0846  0.8519
  606MOL0     H79955   1.474   1.948   0.265  1.2078 -0.2342  0.1868
  606MOL0     H79956   1.699   1.718   0.240 -0.5052  1.0222  0.0346
  606MOL0     H79957   1.872   1.519   0.233 -0.6832  1.7456 -0.7422
  606MOL0     H79958   1.900   1.103   0.262  1.9219  4.4531 -2.5170
  606MOL0     H79959   1.728   1.095   0.270  1.8678 -1.8406  1.6027
  606MOL0     H79960   1.823   1.108   0.500 -1.7795 -0.1218 -0.4999
  606MOL0     H79961   1.744   1.264   0.464 -1.9584 -1.0065 -2.2654
  606MOL0     H79962   1.993   1.343   0.397  0.6388  0.5413  0.8462
  606MOL0     H79963   2.045   1.178   0.434 -1.2616 -2.1533  1.9480
  606MOL0     H79964   1.907   1.347   0.654 -0.8554 -2.0815  1.4114
  606MOL0     H79965   1.965   1.179   0.653 -0.8488 -0.7997 -1.7171
  606MOL0     H79966   2.132   1.427   0.597  0.1612 -0.4253 -1.2817
  606MOL0     H79967   2.194   1.275   0.584  1.5116  2.9968 -0.8451
  606MOL0     H79968   2.249   1.401   0.795  0.6072  0.0469  1.9805
  606MOL0     H79969   2.165   1.265   0.845 -0.7954  0.9247  1.6033
  606MOL0     H79970   2.012   1.532   0.792 -1.1467  0.7045  2.3900
  606MOL0     H79971   1.971   1.400   0.873  0.0974  0.4380 -0.1125
  606MOL0     H79972   2.215   1.571   0.964 -0.2051  0.4201 -0.5253
  606MOL0     H79973   2.120   1.454   1.062  0.8828 -0.8218  0.0661
  606MOL0     H79974   1.537   1.243   0.229 -2.2352  0.4279  1.5080
  606MOL0     H79975   1.373   1.445   0.229 -0.0460 -2.8326 -2.5981
  606MOL0     H79976   1.198   1.855  -0.037  0.1089 -1.2907  0.8441
  606MOL0     H79977   1.119   2.082  -0.041  1.9359 -0.1172 -2.0490
  606MOL0     H79978   0.517   3.146   1.193 -0.1644  0.9545 -0.0671
  606MOL0     H79979   0.683   3.325   1.085 -0.7952  2.1634 -1.5420
  606MOL0     H79980   0.631   3.708   0.720  0.3393 -0.8010  4.7778
  606MOL0     H79981   0.802   3.877   0.651  0.4650 -0.1065  0.7466
  606MOL0     H79982   1.054   4.013   0.658  1.4568 -1.7273  1.5308
  606MOL0     H79983   0.962   3.984   0.517 -0.8190 -1.1267  0.1548
  606MOL0     H79984   1.163   3.943   0.385 -0.8667  2.6548 -1.7358
  606MOL0     H79985   1.150   4.105   0.453 -1.0669 -0.8897  2.3127
  606MOL0     H79986   1.292   3.901   0.600  1.6760 -2.3946 -2.6760
  606MOL0     H79987   1.298   4.070   0.634  2.5815 -0.3659  0.3678
  606MOL0     H79988   1.517   3.995   0.536  1.3805  1.1703 -0.2843
  606MOL0     H79989   1.431   3.989   0.376 -1.1721 -0.5684  1.0302
  606MOL0     H79990   1.479   4.389   0.383 -0.4362 -0.0819  0.1953
  606MOL0     H79991   1.096   3.563   0.686 -0.8384 -1.4080 -2.0175
  606MOL0     H79992   0.947   3.409   0.733 -1.5000 -1.1196  0.3295
  607MOL0     O79993   2.396   9.594  10.762  0.5636  0.1767 -1.0973
  607MOL0     C79994   2.281   9.614  10.816 -0.6059 -0.9013 -0.1828
  607MOL0     O79995   2.249   9.698  10.926 -0.2455  0.7830 -0.3758
  607MOL0     C79996   2.341   9.800  10.974 -0.4817  0.1056 -0.0025
  607MOL0     C79997   2.349   9.827  11.113  0.9397 -1.1561 -0.3321
  607MOL0     C79998   2.437   9.933  11.169  0.2478 -0.7135  1.2909
  607MOL0     C79999   2.505  10.010  11.072 -0.5082 -0.2133 -0.7058
  607MOL0     O80000   2.593  10.100  11.118  0.0391  0.0026 -0.7056
  607MOL0     C80001   2.545  10.187  11.228  1.2571  0.1770  0.1436
  607MOL0     C80002   2.606  10.327  11.227  0.3386 -0.0634 -0.6603
  607MOL0     C80003   2.742  10.356  11.281 -0.3265  0.4973  0.6415
  607MOL0     C80004   2.785  10.501  11.259  0.4104  0.1449  0.5866
  607MOL0     C80005   2.930  10.505  11.287 -0.3498  0.3630  0.0030
  607MOL0     C80006   2.979  10.651  11.269 -0.1242  0.8033  0.5579
  607MOL0     C80007   3.009  10.673  11.117 -0.3315  0.1154 -0.5648
  607MOL0     C80008   3.071  10.795  11.071 -0.1055 -0.7773 -0.8723
  607MOL0     N80009   2.973  10.907  11.048 -0.4094 -0.3554  0.0664
  607MOL0     C80010   3.021  11.038  11.028 -1.3111  0.1555 -0.0995
  607MOL0     C80011   2.908  11.111  11.047 -0.3716  0.0885  0.5738
  607MOL0     C80012   2.896  11.259  11.060  1.1883 -0.6856  0.3955
  607MOL0     C80013   2.849  11.315  10.922 -0.1025 -0.4092 -0.2993
  607MOL0     C80014   2.955  11.317  10.813 -0.4575 -0.4034  0.3317
  607MOL0     C80015   2.893  11.315  10.674  0.5323 -0.3926  0.0607
  607MOL0     O80016   2.990  11.292  10.573  0.6773 -0.4253 -0.0618
  607MOL0     C80017   2.959  11.241  10.448 -0.0725  0.3242 -0.7955
  607MOL0     C80018   2.823  11.213  10.403  0.0946  0.5139 -0.3895
  607MOL0     C80019   2.804  11.161  10.271  0.5561 -0.5696 -0.7697
  607MOL0     C80020   2.914  11.152  10.182 -0.4158  0.2565  0.1141
  607MOL0     C80021   2.907  11.157  10.040 -0.6694  1.0214 -0.9278
  607MOL0     O80022   2.788  11.141   9.988  0.2065 -0.2931 -0.2177
  607MOL0     C80023   2.773  11.134   9.855  0.4840  0.6817 -0.3806
  607MOL0     C80024   2.698  11.248   9.814 -0.8690  1.0079 -0.1816
  607MOL0     C80025   2.684  11.264   9.673 -0.9229  0.0933  0.3173
  607MOL0     C80026   2.730  11.163   9.584 -0.4039 -0.4744  0.1507
  607MOL0     O80027   2.694  11.178   9.452  0.6758  0.4546 -0.0339
  607MOL0     C80028   2.799  11.172   9.356 -0.4360 -0.2005 -0.6844
  607MOL0     C80029   2.746  11.155   9.216  0.0464 -0.3461 -0.5916
  607MOL0     C80030   2.862  11.146   9.126  0.1992 -0.1904  0.5775
  607MOL0     C80031   2.909  10.996   9.125 -0.2744 -0.7374  0.2013
  607MOL0     C80032   3.049  10.991   9.061  1.0501  0.0934 -0.1122
  607MOL0     C80033   3.077  11.064   8.933  0.2900  0.0401  0.0445
  607MOL0     C80034   2.990  11.027   8.821 -0.2710  0.0546 -0.4941
  607MOL0     C80035   3.017  11.110   8.700  1.1082  0.5056  0.5105
  607MOL0    Cl80036   2.937  11.026   8.570 -0.4892 -0.3135  0.0060
  607MOL0     C80037   2.801  11.045   9.634 -0.1453 -0.0821  0.2195
  607MOL0     C80038   2.826  11.035   9.770 -0.2183 -0.3078 -0.3864
  607MOL0     O80039   3.012  11.173   9.976 -0.4245 -0.4027  0.1667
  607MOL0     C80040   3.043  11.165  10.238  0.6445  1.4079 -0.7603
  607MOL0     C80041   3.060  11.197  10.370  0.6053  0.1289  0.2053
  607MOL0     N80042   2.807  11.023  11.077  0.8806  1.0995 -0.3863
  607MOL0     N80043   2.838  10.899  11.063 -1.1001  0.6925  0.4857
  607MOL0     C80044   2.506   9.975  10.933  0.3954 -1.2711  0.4427
  607MOL0     C80045   2.419   9.882  10.887 -0.4959  0.7640  0.0081
  607MOL0     C80046   2.174   9.525  10.761 -0.7372 -0.7090  0.3645
  607MOL0     C80047   2.191   9.455  10.637  0.1482  0.3906  0.0281
  607MOL0     C80048   2.099   9.377  10.584 -0.1738 -0.0793  1.1048
  607MOL0     C80049   1.987   9.342  10.655 -0.0482  0.2702  0.1442
  607MOL0     O80050   1.912   9.252  10.591 -1.0208  0.1364  0.5116
  607MOL0     C80051   1.780   9.225  10.629 -0.5218  0.7242 -0.1109
  607MOL0     C80052   1.706   9.137  10.526 -0.3676 -0.3396  0.0349
  607MOL0     C80053   1.662   9.215  10.400 -0.4977 -1.1126 -0.0367
  607MOL0     C80054   1.603   9.123  10.303 -0.2535 -0.2898  0.2830
  607MOL0     C80055   1.469   9.079  10.335 -0.4566 -0.2714 -0.4647
  607MOL0     C80056   1.363   9.041  10.364 -0.0667  0.1291  0.1461
  607MOL0     C80057   1.969   9.410  10.775 -0.7702  0.0089  0.6563
  607MOL0     C80058   2.066   9.497  10.833 -0.2682 -0.1640 -0.1051
  607MOL0     H80059   2.288   9.769  11.182 -0.3669 -0.8402 -1.1891
  607MOL0     H80060   2.444   9.968  11.271 -0.6059  1.5948  0.6115
  607MOL0     H80061   2.582  10.151  11.325  1.2120  4.1789  1.8491
  607MOL0     H80062   2.436  10.197  11.227  1.3116  0.8012 -1.1563
  607MOL0     H80063   2.535  10.390  11.282  1.3441  2.7461 -2.3557
  607MOL0     H80064   2.600  10.376  11.130  1.1013  1.7099  0.1526
  607MOL0     H80065   2.809  10.279  11.241  1.0030 -0.1038  3.7385
  607MOL0     H80066   2.750  10.335  11.388  1.3545 -3.3151 -0.0848
  607MOL0     H80067   2.769  10.531  11.155 -0.1876  0.4540  0.7652
  607MOL0     H80068   2.725  10.568  11.321 -0.5714  0.5537 -0.7629
  607MOL0     H80069   2.987  10.435  11.227 -0.0073 -0.0379  0.7875
  607MOL0     H80070   2.945  10.476  11.391 -2.5775  2.1376  0.9193
  607MOL0     H80071   3.069  10.675  11.326  0.1244  1.0913  0.0432
  607MOL0     H80072   2.892  10.708  11.304 -0.9122 -1.2582  2.1492
  607MOL0     H80073   3.078  10.590  11.104  1.7354  1.7793 -0.7263
  607MOL0     H80074   2.928  10.638  11.052  0.0032 -2.9990  0.5615
  607MOL0     H80075   3.113  10.783  10.971  4.2007  1.6918  0.3991
  607MOL0     H80076   3.158  10.824  11.131 -1.3194  1.1186  0.0970
  607MOL0     H80077   3.123  11.071  11.017 -1.0128 -0.6590  0.1430
  607MOL0     H80078   2.983  11.302  11.110 -0.9284  2.3391  1.7505
  607MOL0     H80079   2.813  11.277  11.129  1.7827  1.3976  0.6291
  607MOL0     H80080   2.821  11.418  10.944  1.0571 -0.1469  0.0368
  607MOL0     H80081   2.761  11.259  10.891 -0.2327  0.1033 -0.8813
  607MOL0     H80082   3.029  11.395  10.832 -0.5738 -0.7307  2.2619
  607MOL0     H80083   3.000  11.218  10.826 -0.5042 -0.0562  4.0093
  607MOL0     H80084   2.836  11.407  10.657  0.0323 -0.4865  1.1148
  607MOL0     H80085   2.813  11.241  10.683  0.0056  0.3515  2.2710
  607MOL0     H80086   2.745  11.223  10.478  3.2184 -1.5107  3.4930
  607MOL0     H80087   2.708  11.162  10.220 -0.1324  1.3226  0.4520
  607MOL0     H80088   2.672  11.321   9.889 -0.1730  0.4698  0.6116
  607MOL0     H80089   2.632  11.351   9.635 -0.4593 -0.0603 -0.6809
  607MOL0     H80090   2.870  11.091   9.374 -0.1772 -0.2838 -1.9587
  607MOL0     H80091   2.850  11.268   9.360 -0.5055 -0.1387 -1.1698
  607MOL0     H80092   2.679  11.237   9.190 -0.1623 -0.8784 -1.8315
  607MOL0     H80093   2.678  11.072   9.193 -2.5090  0.9278  1.8816
  607MOL0     H80094   2.944  11.214   9.153 -0.2122  0.9837 -0.9646
  607MOL0     H80095   2.828  11.169   9.024  0.5695 -1.1785  0.2189
  607MOL0     H80096   2.915  10.958   9.227  0.5566  1.8698  1.2245
  607MOL0     H80097   2.831  10.938   9.076 -0.0546  0.2038 -1.3524
  607MOL0     H80098   3.074  10.884   9.058 -2.5363 -0.8945  0.5759
  607MOL0     H80099   3.112  11.038   9.137 -2.2458 -1.7479  4.1961
  607MOL0     H80100   3.182  11.063   8.903 -0.0724  1.7101 -1.4403
  607MOL0     H80101   3.054  11.169   8.953 -0.9774 -0.4760  1.4528
  607MOL0     H80102   3.003  10.919   8.811  0.6673  0.0269  0.7367
  607MOL0     H80103   2.886  11.042   8.849  0.4515 -0.3699  2.8509
  607MOL0     H80104   3.122  11.133   8.679  0.8387  0.3814 -1.0703
  607MOL0     H80105   2.969  11.207   8.715  2.0059  0.9964  0.2678
  607MOL0     H80106   2.837  10.971   9.564  0.2500 -1.1380  1.4942
  607MOL0     H80107   2.882  10.960   9.824  0.8341  1.7665  1.5788
  607MOL0     H80108   3.124  11.131  10.174 -0.2855 -1.8838 -0.3843
  607MOL0     H80109   3.162  11.199  10.408  1.0051 -2.2837 -0.6090
  607MOL0     H80110   2.571  10.032  10.868 -1.3775  3.5708  2.4922
  607MOL0     H80111   2.412   9.856  10.782 -0.2487  2.8960 -0.5950
  607MOL0     H80112   2.288   9.470  10.591  1.2332 -2.0699  1.3073
  607MOL0     H80113   2.117   9.337  10.484  4.4839 -1.5706  2.3223
  607MOL0     H80114   1.722   9.314  10.654  0.6023  1.1627  1.0486
  607MOL0     H80115   1.783   9.153  10.712  2.8086 -0.5669 -1.1851
  607MOL0     H80116   1.768   9.053  10.492 -1.5179 -0.9796 -0.5641
  607MOL0     H80117   1.620   9.088  10.574 -0.1835 -0.0652  0.6552
  607MOL0     H80118   1.751   9.253  10.349 -0.9673  2.4089  1.4310
  607MOL0     H80119   1.594   9.296  10.430 -0.2629 -1.9131  2.9349
  607MOL0     H80120   1.615   9.173  10.207 -1.3528  1.1981  0.8848
  607MOL0     H80121   1.657   9.028  10.290 -2.5685 -1.3157 -3.2920
  607MOL0     H80122   1.266   9.005  10.391 -0.0818  0.9218  1.2124
  607MOL0     H80123   1.877   9.387  10.828 -0.7674  0.5163  0.8826
  607MOL0     H80124   2.036   9.548  10.924 -6.0622  0.7374 -2.1046
  608MOL0     O80125   0.617   2.139   5.429 -0.5808  0.0278  0.2274
  608MOL0     C80126   0.587   2.027   5.410  0.3630  0.5010 -0.5180
  608MOL0     O80127   0.610   1.922   5.497 -0.3471 -0.4521  0.2195
  608MOL0     C80128   0.700   1.953   5.600 -0.7047  1.0936  0.6836
  608MOL0     C80129   0.814   2.036   5.601  0.4192 -0.4944  0.0339
  608MOL0     C80130   0.906   2.027   5.707 -0.5912  0.1051 -0.1158
  608MOL0     C80131   0.870   1.949   5.819 -1.2706  0.0327  0.1094
  608MOL0     O80132   0.933   1.936   5.937 -1.0789 -0.3028 -1.0897
  608MOL0     C80133   1.046   2.022   5.962 -0.2799 -0.0869  1.6705
  608MOL0     C80134   1.121   2.009   6.097 -0.2823  0.7453 -0.3967
  608MOL0     C80135   1.230   2.114   6.114  0.1756  0.0919  1.1438
  608MOL0     C80136   1.309   2.087   6.242  0.4468 -0.1820 -0.5573
  608MOL0     C80137   1.419   2.187   6.251  0.9593 -0.2211  0.6853
  608MOL0     C80138   1.537   2.141   6.342 -0.0996  0.7626 -0.6352
  608MOL0     C80139   1.494   2.058   6.464  0.1411  0.6791  0.1650
  608MOL0     C80140   1.410   2.140   6.562  0.5805  0.6441  0.2375
  608MOL0     N80141   1.484   2.259   6.602 -0.2168 -0.0154 -0.5749
  608MOL0     C80142   1.436   2.379   6.581  0.0654 -0.1221  0.1139
  608MOL0     C80143   1.508   2.472   6.658  1.2331  0.6373  0.3320
  608MOL0     C80144   1.482   2.618   6.676 -0.4031 -0.1967  0.0231
  608MOL0     C80145   1.603   2.710   6.658 -0.7224  0.2967  0.9857
  608MOL0     C80146   1.599   2.862   6.690 -0.0963  0.2555  0.3729
  608MOL0     C80147   1.752   2.911   6.689  0.2870  0.0954 -0.4291
  608MOL0     O80148   1.782   2.929   6.554 -0.5421 -0.3477 -0.2833
  608MOL0     C80149   1.909   2.968   6.525 -0.9429 -0.3847  0.1622
  608MOL0     C80150   1.980   3.055   6.608 -0.1160  0.6383 -0.0168
  608MOL0     C80151   2.108   3.101   6.580 -0.5090  0.3546  0.2606
  608MOL0     C80152   2.172   3.055   6.466 -0.0289 -1.0623 -0.3054
  608MOL0     C80153   2.315   3.091   6.430 -0.4724 -0.3609 -1.1565
  608MOL0     O80154   2.368   3.176   6.520  0.0085 -0.4618 -0.0573
  608MOL0     C80155   2.481   3.244   6.487  0.4270 -0.0387  0.3378
  608MOL0     C80156   2.514   3.330   6.593  0.2020  0.7357 -0.0126
  608MOL0     C80157   2.634   3.405   6.577 -0.4141  0.3052  0.9191
  608MOL0     C80158   2.727   3.385   6.468 -0.1698  0.9331 -1.2149
  608MOL0     O80159   2.854   3.457   6.471  0.4015 -1.2117 -0.0476
  608MOL0     C80160   2.877   3.546   6.360  0.3733  0.3316  0.7790
  608MOL0     C80161   3.000   3.633   6.382 -0.6586 -0.3580  0.3439
  608MOL0     C80162   3.000   3.749   6.282  0.1547  0.1752  0.5867
  608MOL0     C80163   2.981   3.718   6.134 -0.0756  0.4855 -0.4164
  608MOL0     C80164   2.996   3.856   6.063  0.3594 -0.0565 -0.0931
  608MOL0     C80165   2.989   3.830   5.907 -0.4185  0.6365 -0.3334
  608MOL0     C80166   3.008   3.964   5.836 -0.3000 -0.0935  0.2791
  608MOL0     C80167   3.004   3.967   5.677  0.1656  0.9206 -0.3936
  608MOL0    Cl80168   3.162   3.891   5.627  0.1448  0.0137 -0.1074
  608MOL0     C80169   2.694   3.297   6.370 -0.5607 -0.8698  0.0156
  608MOL0     C80170   2.565   3.239   6.373 -0.5431  0.4108  0.6769
  608MOL0     O80171   2.375   3.034   6.342 -0.4907 -0.0251 -0.1769
  608MOL0     C80172   2.103   2.961   6.392 -0.1588 -0.1998  1.2090
  608MOL0     C80173   1.977   2.916   6.416  0.5816 -0.2870 -1.0426
  608MOL0     N80174   1.602   2.388   6.722 -1.1458  0.0727 -0.0764
  608MOL0     N80175   1.593   2.266   6.683  0.6945  0.2604 -0.8322
  608MOL0     C80176   0.754   1.878   5.825 -0.8157 -0.5297 -0.7160
  608MOL0     C80177   0.663   1.895   5.720  0.0739 -0.3370 -0.4991
  608MOL0     C80178   0.499   2.004   5.296 -0.1623 -0.0981  0.4314
  608MOL0     C80179   0.452   1.870   5.261  0.2157  0.3691  0.2345
  608MOL0     C80180   0.393   1.844   5.141 -0.7305 -0.0323  0.1012
  608MOL0     C80181   0.368   1.941   5.041  0.3491  0.0461  0.6691
  608MOL0     O80182   0.312   1.901   4.918  0.2609  0.2369  0.6141
  608MOL0     C80183   0.241   1.991   4.827 -0.1321  0.5317  0.5179
  608MOL0     C80184   0.336   2.022   4.717 -1.1645  0.3976 -0.4015
  608MOL0     C80185   0.249   2.059   4.590 -0.6158  0.0191 -0.6143
  608MOL0     C80186   0.256   1.945   4.480 -0.2271  0.9205 -0.0354
  608MOL0     C80187   0.152   1.836   4.505 -1.9052  0.1308  0.0378
  608MOL0     C80188   0.060   1.761   4.540 -0.2936  0.0909 -0.1627
  608MOL0     C80189   0.389   2.078   5.089 -0.3475 -0.4650 -0.3755
  608MOL0     C80190   0.454   2.105   5.210  0.0104 -0.6041  0.1382
  608MOL0     H80191   0.841   2.102   5.519  0.9045  2.1839  2.1954
  608MOL0     H80192   0.993   2.092   5.708 -2.2849  2.5362  0.8911
  608MOL0     H80193   1.018   2.127   5.956 -3.5593 -0.9410 -0.8756
  608MOL0     H80194   1.126   2.000   5.891  1.3771 -1.9012  3.9230
  608MOL0     H80195   1.162   1.908   6.095  1.7811  1.5520 -1.1439
  608MOL0     H80196   1.048   2.025   6.177 -1.2253 -4.4151  0.0866
  608MOL0     H80197   1.192   2.217   6.114  0.2159  0.1644 -1.2623
  608MOL0     H80198   1.293   2.103   6.026 -2.4741 -1.4905 -0.7269
  608MOL0     H80199   1.245   2.088   6.331 -1.6386 -0.8722 -1.9799
  608MOL0     H80200   1.346   1.983   6.240 -0.6644 -0.6089  0.1473
  608MOL0     H80201   1.370   2.279   6.283 -3.1481 -0.2204 -4.2139
  608MOL0     H80202   1.454   2.222   6.153  1.0644 -2.5608 -0.2007
  608MOL0     H80203   1.593   2.234   6.358  1.1779  0.0820 -1.0975
  608MOL0     H80204   1.607   2.071   6.296 -1.6643 -1.7326  0.5738
  608MOL0     H80205   1.442   1.964   6.441  2.8867 -1.3374  1.5447
  608MOL0     H80206   1.588   2.035   6.516  1.9365  4.9926 -0.7312
  608MOL0     H80207   1.382   2.075   6.646  1.5807 -0.7835 -0.4982
  608MOL0     H80208   1.307   2.151   6.525  0.4903 -1.1644 -0.1344
  608MOL0     H80209   1.362   2.406   6.506  2.7025 -2.7492 -3.7776
  608MOL0     H80210   1.462   2.624   6.784  0.8867  0.0824  0.2691
  608MOL0     H80211   1.394   2.653   6.621  1.0142  1.2146 -1.4535
  608MOL0     H80212   1.643   2.701   6.556 -0.7352  0.5931  0.9525
  608MOL0     H80213   1.677   2.663   6.723  0.7071 -1.3954 -1.6584
  608MOL0     H80214   1.546   2.921   6.615  3.4418  2.8193 -0.3876
  608MOL0     H80215   1.554   2.881   6.788 -1.9560 -2.7359  0.1957
  608MOL0     H80216   1.818   2.835   6.732  1.1280  0.8238 -0.3963
  608MOL0     H80217   1.746   3.000   6.754 -0.2827  0.3187 -0.7758
  608MOL0     H80218   1.926   3.105   6.688  0.1408  2.3364 -0.8624
  608MOL0     H80219   2.145   3.182   6.641  2.4782  0.6361 -1.7217
  608MOL0     H80220   2.463   3.341   6.688 -0.5735 -0.2926 -0.2988
  608MOL0     H80221   2.659   3.477   6.654 -1.3577  1.0228  0.5668
  608MOL0     H80222   2.797   3.614   6.331  1.6853  1.3758 -0.5467
  608MOL0     H80223   2.905   3.481   6.276 -4.3023  0.2173 -0.9571
  608MOL0     H80224   3.095   3.583   6.357  0.3931  1.6215  0.1541
  608MOL0     H80225   3.003   3.672   6.484 -0.5794 -0.5487  0.4142
  608MOL0     H80226   3.089   3.807   6.305  0.5553  0.1930 -0.8849
  608MOL0     H80227   2.907   3.801   6.308  0.1553 -0.3981  1.8004
  608MOL0     H80228   3.063   3.651   6.106  0.6092  1.6620 -1.3097
  608MOL0     H80229   2.878   3.684   6.117 -1.4431  3.4006  1.3692
  608MOL0     H80230   3.096   3.897   6.077  1.5902 -2.7821 -0.3012
  608MOL0     H80231   2.906   3.913   6.087 -0.1710 -0.8442 -0.1787
  608MOL0     H80232   2.889   3.796   5.878 -0.5352  1.6523 -1.1781
  608MOL0     H80233   3.066   3.760   5.874 -3.5358 -5.0470  2.8909
  608MOL0     H80234   2.931   4.030   5.877  0.5700  1.1594 -0.0541
  608MOL0     H80235   3.104   4.007   5.865  0.1611 -1.0263  0.1984
  608MOL0     H80236   2.997   4.073   5.652  1.4617  1.1682  0.2044
  608MOL0     H80237   2.915   3.909   5.648 -0.5423  3.1662 -3.1410
  608MOL0     H80238   2.755   3.275   6.283 -0.2998 -1.3931  0.3308
  608MOL0     H80239   2.533   3.182   6.286 -0.4452  0.0295  0.8906
  608MOL0     H80240   2.150   2.918   6.304 -1.8851  3.0934 -1.5966
  608MOL0     H80241   1.927   2.841   6.356  2.3579 -1.8512 -0.6360
  608MOL0     H80242   0.739   1.828   5.920  1.8154  2.7510  1.6897
  608MOL0     H80243   0.565   1.864   5.755 -0.5898  2.4880  0.4543
  608MOL0     H80244   0.454   1.798   5.342 -0.7205  1.0311  0.8666
  608MOL0     H80245   0.380   1.739   5.115  2.0579  0.4614 -4.3056
  608MOL0     H80246   0.217   2.083   4.881  0.8942  1.5524 -0.6978
  608MOL0     H80247   0.148   1.946   4.790 -0.4846  2.3749 -1.0194
  608MOL0     H80248   0.391   2.106   4.759  1.9124 -0.2291 -2.8578
  608MOL0     H80249   0.394   1.932   4.694 -1.5603  0.2686 -0.9142
  608MOL0     H80250   0.288   2.151   4.546  1.0838 -0.9689 -1.2742
  608MOL0     H80251   0.146   2.081   4.619 -1.1553 -2.4724 -0.4028
  608MOL0     H80252   0.233   2.000   4.389  0.8228  0.6250 -0.4918
  608MOL0     H80253   0.355   1.900   4.472 -0.5574  0.2095 -0.2213
  608MOL0     H80254  -0.031   1.725   4.581 -2.1306  0.7857 -3.2586
  608MOL0     H80255   0.363   2.164   5.027  1.1826  0.6508  0.4783
  608MOL0     H80256   0.470   2.212   5.226  1.3861 -0.5597 -1.2091
  609MOL0     O80257  10.656   5.014   6.961 -0.6381  0.2891 -0.2099
  609MOL0     C80258  10.644   4.905   7.016  0.8255 -0.1208 -0.0820
  609MOL0     O80259  10.546   4.812   6.973  0.0445 -1.1522 -0.1460
  609MOL0     C80260  10.476   4.845   6.855 -0.9466  0.0141 -0.1307
  609MOL0     C80261  10.357   4.925   6.861 -0.1911  0.6965  0.5646
  609MOL0     C80262  10.296   4.955   6.731 -0.0005  0.6704  0.5404
  609MOL0     C80263  10.348   4.911   6.610  0.3263  0.2849 -1.2258
  609MOL0     O80264  10.276   4.951   6.498 -0.4041  0.5045  0.0646
  609MOL0     C80265  10.310   4.879   6.377  0.5286 -0.7398  0.0975
  609MOL0     C80266  10.218   4.936   6.261  0.8542 -0.6946  0.5583
  609MOL0     C80267  10.261   4.881   6.128 -0.4534 -0.0611  0.4306
  609MOL0     C80268  10.201   4.963   6.010  0.1926  0.0722 -0.4456
  609MOL0     C80269  10.271   5.092   5.977 -0.1197 -0.0007 -0.6835
  609MOL0     C80270  10.392   5.067   5.886  0.5847 -0.5702  0.2605
  609MOL0     C80271  10.353   5.065   5.733 -0.1939 -0.5880 -0.3812
  609MOL0     C80272  10.431   5.158   5.649 -0.2290  0.4282 -0.2209
  609MOL0     N80273  10.416   5.289   5.699 -0.0317 -0.6754  0.2076
  609MOL0     C80274  10.295   5.361   5.686 -0.4088 -0.2274 -0.4607
  609MOL0     C80275  10.323   5.474   5.749  0.2755 -1.0014  0.9229
  609MOL0     C80276  10.221   5.588   5.740  0.0439  1.2074  0.1051
  609MOL0     C80277  10.115   5.561   5.843 -0.2534 -0.3155  0.3663
  609MOL0     C80278  10.168   5.588   5.985 -0.5610 -0.5270  0.2167
  609MOL0     C80279  10.056   5.630   6.085 -0.8717 -0.5902 -0.2446
  609MOL0     O80280  10.052   5.776   6.082  0.0749  0.4261 -0.1788
  609MOL0     C80281   9.965   5.842   6.003  1.3090 -0.2125  0.0423
  609MOL0     C80282   9.824   5.848   6.029  0.6774 -0.1699  0.2278
  609MOL0     C80283   9.742   5.932   5.953 -0.7650 -0.3293 -0.7693
  609MOL0     C80284   9.806   6.020   5.869  0.6734 -1.1100  0.3684
  609MOL0     C80285   9.721   6.113   5.791  0.2953 -0.9247  0.6439
  609MOL0     O80286   9.777   6.201   5.698 -0.3312 -0.3476 -0.2191
  609MOL0     C80287   9.690   6.270   5.611 -0.1261 -0.4808  0.2121
  609MOL0     C80288   9.755   6.300   5.491  0.4854 -0.6705  0.6602
  609MOL0     C80289   9.698   6.370   5.388 -0.1996  0.1375  0.3506
  609MOL0     C80290   9.576   6.425   5.400  0.6948 -0.3874  0.1224
  609MOL0     O80291   9.529   6.512   5.308 -0.4088  0.1488 -0.2401
  609MOL0     C80292   9.494   6.642   5.352 -0.9715  0.5905 -1.1821
  609MOL0     C80293   9.568   6.747   5.272  0.3693  0.7105  0.3662
  609MOL0     C80294   9.704   6.721   5.225  0.7362 -0.2704  0.7986
  609MOL0     C80295   9.783   6.694   5.350 -0.3886  0.3083  0.2365
  609MOL0     C80296   9.871   6.815   5.401  0.6619  0.4494 -0.2095
  609MOL0     C80297   9.946   6.777   5.535  0.1455 -0.6453  0.6288
  609MOL0     C80298   9.988   6.897   5.626  0.5021 -0.9014 -0.2401
  609MOL0     C80299  10.034   6.847   5.766 -0.0684 -0.2239 -0.9949
  609MOL0    Cl80300  10.069   6.991   5.883  0.3518  0.1653 -0.5576
  609MOL0     C80301   9.503   6.392   5.509 -0.2375 -0.5658 -0.1248
  609MOL0     C80302   9.559   6.313   5.613 -0.5776 -1.2451 -0.8257
  609MOL0     O80303   9.602   6.109   5.803  0.5886  0.0884  0.0876
  609MOL0     C80304   9.940   6.023   5.857 -0.5231  0.4265  0.0169
  609MOL0     C80305  10.018   5.927   5.914 -0.7944  0.7079  0.2613
  609MOL0     N80306  10.454   5.475   5.799 -0.6142  0.6373  0.2776
  609MOL0     N80307  10.509   5.362   5.768  0.3786  0.6324 -0.7473
  609MOL0     C80308  10.463   4.834   6.612 -0.0191 -0.0411  0.9354
  609MOL0     C80309  10.531   4.816   6.731  0.0796  0.3142  1.0902
  609MOL0     C80310  10.721   4.862   7.132 -0.1143 -0.6744 -0.5291
  609MOL0     C80311  10.737   4.735   7.178  0.5303  0.1636  0.8447
  609MOL0     C80312  10.803   4.710   7.298 -0.1021  0.2759 -0.0314
  609MOL0     C80313  10.889   4.807   7.351  1.0825  1.2571  0.4733
  609MOL0     O80314  10.976   4.792   7.453 -0.9853  0.8392  0.1790
  609MOL0     C80315  11.009   4.656   7.515 -0.5310 -0.3245 -0.7296
  609MOL0     C80316  11.136   4.594   7.460  0.4203 -0.8085 -0.2180
  609MOL0     C80317  11.189   4.480   7.543  1.0221  0.2196 -0.6302
  609MOL0     C80318  11.317   4.412   7.500 -0.2513  0.2154 -0.2923
  609MOL0     C80319  11.299   4.347   7.373 -0.5143 -0.7218  0.3973
  609MOL0     C80320  11.330   4.278   7.280 -1.0636  0.3694 -0.2112
  609MOL0     C80321  10.902   4.931   7.289 -0.1247  1.0579  0.4110
  609MOL0     C80322  10.812   4.959   7.183 -0.2583  1.3104 -0.2606
  609MOL0     H80323  10.303   4.948   6.952 -4.0251  0.6720 -1.5052
  609MOL0     H80324  10.191   4.979   6.730 -0.4114 -1.0172 -0.0181
  609MOL0     H80325  10.299   4.771   6.386 -0.8377 -0.6584 -0.2960
  609MOL0     H80326  10.416   4.899   6.359  0.4624 -1.9602 -1.9540
  609MOL0     H80327  10.202   5.044   6.267 -0.4156 -0.9515  3.2349
  609MOL0     H80328  10.127   4.885   6.296  1.5864 -0.2260  3.4511
  609MOL0     H80329  10.232   4.777   6.115  3.2656 -1.0904 -0.8212
  609MOL0     H80330  10.370   4.883   6.116 -0.4169 -0.1011  0.7555
  609MOL0     H80331  10.209   4.899   5.922 -2.0009  3.3864 -3.3379
  609MOL0     H80332  10.097   4.988   6.031  0.2025 -1.2927  1.4571
  609MOL0     H80333  10.320   5.122   6.071  0.9525  0.1182 -1.2675
  609MOL0     H80334  10.208   5.176   5.945  4.2619  3.7387 -0.5892
  609MOL0     H80335  10.424   4.966   5.913  2.0563  0.1942  1.5345
  609MOL0     H80336  10.467   5.145   5.904 -1.3309  1.3051  0.4892
  609MOL0     H80337  10.357   4.964   5.691  2.5509 -0.9837  0.6674
  609MOL0     H80338  10.246   5.089   5.723  0.2848  1.4708 -1.0481
  609MOL0     H80339  10.397   5.149   5.546 -2.1528 -1.0142  0.4765
  609MOL0     H80340  10.532   5.118   5.656 -1.0824 -1.5648  3.4063
  609MOL0     H80341  10.204   5.355   5.629 -1.5418  0.1054  1.2424
  609MOL0     H80342  10.179   5.581   5.639 -4.0563 -1.3984  1.7239
  609MOL0     H80343  10.270   5.686   5.746 -2.0090  2.3394 -0.7016
  609MOL0     H80344  10.065   5.464   5.837  2.6114 -1.8422 -0.1579
  609MOL0     H80345  10.044   5.641   5.820  0.2676  0.7032  2.1521
  609MOL0     H80346  10.221   5.505   6.033  2.0647  1.2345  0.5889
  609MOL0     H80347  10.233   5.675   5.972 -0.6953 -0.6543 -1.4810
  609MOL0     H80348  10.098   5.604   6.183  3.7428  0.8913 -1.5477
  609MOL0     H80349   9.961   5.589   6.051  1.1128 -2.0187 -4.9110
  609MOL0     H80350   9.779   5.794   6.112 -2.9825  1.3252 -0.5677
  609MOL0     H80351   9.637   5.931   5.980 -0.1594  0.4032  2.0190
  609MOL0     H80352   9.859   6.270   5.477  1.1981  1.4401  1.0426
  609MOL0     H80353   9.760   6.396   5.302 -0.1936  3.6172  1.2539
  609MOL0     H80354   9.515   6.653   5.459 -2.4618  2.2570 -1.0197
  609MOL0     H80355   9.386   6.654   5.343 -1.0133 -0.3052 -2.0447
  609MOL0     H80356   9.570   6.841   5.328  1.9285 -0.6392  2.7740
  609MOL0     H80357   9.503   6.762   5.186  0.0547 -0.7183  0.3230
  609MOL0     H80358   9.738   6.813   5.176 -2.0723  1.2188  1.4428
  609MOL0     H80359   9.701   6.626   5.172 -1.6190 -2.4867  4.5381
  609MOL0     H80360   9.720   6.654   5.431 -0.2734  0.7467  0.5489
  609MOL0     H80361   9.854   6.611   5.340  0.0482  0.2068  3.2539
  609MOL0     H80362   9.810   6.905   5.416 -1.3351 -1.2843  3.8584
  609MOL0     H80363   9.943   6.845   5.325  1.9780  0.0667  0.8370
  609MOL0     H80364  10.030   6.711   5.515  0.1086 -1.3173  2.4851
  609MOL0     H80365   9.889   6.718   5.607  3.0496  1.1151  4.7506
  609MOL0     H80366  10.070   6.950   5.577  1.8750 -3.5735 -1.0724
  609MOL0     H80367   9.899   6.958   5.643 -0.4282 -2.5605  1.1223
  609MOL0     H80368  10.120   6.783   5.745 -1.4132 -1.4994 -3.0438
  609MOL0     H80369   9.949   6.792   5.808 -2.9962  5.9120  2.5499
  609MOL0     H80370   9.410   6.442   5.534  1.4158  4.2128 -2.2311
  609MOL0     H80371   9.483   6.290   5.687  0.7979  1.7812  1.7712
  609MOL0     H80372   9.983   6.082   5.776 -1.5751 -0.6028 -1.3263
  609MOL0     H80373  10.125   5.920   5.900 -0.5522 -0.2426  2.1712
  609MOL0     H80374  10.498   4.790   6.519  2.1406 -0.7466  2.0323
  609MOL0     H80375  10.630   4.771   6.737  0.8366  1.8727  0.7922
  609MOL0     H80376  10.681   4.652   7.136  0.3012 -0.7759  2.8917
  609MOL0     H80377  10.783   4.622   7.359 -1.2996 -0.2624 -1.1524
  609MOL0     H80378  10.929   4.585   7.492 -0.7848  0.1123 -1.2253
  609MOL0     H80379  11.009   4.661   7.624 -2.0308 -0.5955 -0.6950
  609MOL0     H80380  11.124   4.563   7.356 -1.1606 -2.1898  0.3301
  609MOL0     H80381  11.213   4.672   7.461 -1.3535  1.0208  0.6705
  609MOL0     H80382  11.101   4.417   7.557  0.0937  1.5502 -0.2429
  609MOL0     H80383  11.209   4.526   7.641  2.2103 -2.4660  0.5022
  609MOL0     H80384  11.405   4.475   7.488  2.1735 -3.1057 -1.5185
  609MOL0     H80385  11.348   4.338   7.574 -3.9073 -0.9660  0.2673
  609MOL0     H80386  11.360   4.214   7.199  2.4728  3.5233 -1.7285
  609MOL0     H80387  10.977   5.007   7.308 -0.3101  1.2666  0.3062
  609MOL0     H80388  10.814   5.064   7.157  2.6380  2.0789  2.4336
  610MOL0     O80389   0.168   3.053   9.540  0.1948  0.3044 -0.0215
  610MOL0     C80390   0.246   3.021   9.450 -0.3732  0.0585 -0.2802
  610MOL0     O80391   0.266   3.091   9.333  1.1903 -0.6252 -0.4523
  610MOL0     C80392   0.247   3.231   9.325 -0.7684  0.7624 -0.2459
  610MOL0     C80393   0.200   3.285   9.208  0.8591  0.3672 -0.2035
  610MOL0     C80394   0.171   3.427   9.205 -0.2149 -0.1439 -0.7087
  610MOL0     C80395   0.190   3.506   9.314  0.3378 -0.6306  0.3583
  610MOL0     O80396   0.161   3.635   9.298  0.3074 -0.3957  0.2852
  610MOL0     C80397   0.183   3.729   9.406 -0.5100 -0.1670  0.3105
  610MOL0     C80398   0.048   3.750   9.479  0.2307 -0.4970 -0.9094
  610MOL0     C80399  -0.073   3.800   9.393  0.2599  0.7989 -0.8188
  610MOL0     C80400  -0.194   3.849   9.469 -1.2428  0.0339 -1.0955
  610MOL0     C80401  -0.296   3.912   9.375 -0.6291  0.4727  0.2819
  610MOL0     C80402  -0.414   3.954   9.454  0.8312  0.8083 -0.3038
  610MOL0     C80403  -0.539   3.983   9.363 -0.0422  0.2831  0.1298
  610MOL0     C80404  -0.651   4.055   9.441  1.0158  0.1840 -0.4578
  610MOL0     N80405  -0.615   4.197   9.446 -0.3870  0.3474  0.2994
  610MOL0     C80406  -0.568   4.265   9.555 -0.1663 -1.0972  0.5381
  610MOL0     C80407  -0.610   4.400   9.538 -0.0808 -0.0000  0.2965
  610MOL0     C80408  -0.581   4.518   9.626  0.5477 -0.7964 -0.4924
  610MOL0     C80409  -0.574   4.489   9.770 -0.0189 -0.7727 -0.4204
  610MOL0     C80410  -0.713   4.470   9.851  0.8472  0.1465  0.7122
  610MOL0     C80411  -0.681   4.437   9.996 -0.4752  0.4226  0.6137
  610MOL0     O80412  -0.802   4.380  10.064 -0.4488 -1.1131  0.1289
  610MOL0     C80413  -0.912   4.460  10.081 -0.0018 -0.9334 -0.9040
  610MOL0     C80414  -0.913   4.596  10.071  1.1878  0.3186 -0.0988
  610MOL0     C80415  -1.023   4.668  10.104 -0.0764 -0.7047  0.1261
  610MOL0     C80416  -1.151   4.606  10.125 -0.0993 -0.3732  0.7043
  610MOL0     C80417  -1.274   4.682  10.150  0.4398  0.6736  1.5666
  610MOL0     O80418  -1.273   4.817  10.132  0.1959  0.4455  0.7314
  610MOL0     C80419  -1.392   4.876  10.118  1.0143  0.3982 -0.1715
  610MOL0     C80420  -1.477   4.855  10.008  0.1291  0.3013  0.0449
  610MOL0     C80421  -1.599   4.923   9.984 -0.3959  0.9036 -0.5032
  610MOL0     C80422  -1.639   5.011  10.081  0.4382 -0.6061 -0.3999
  610MOL0     O80423  -1.760   5.076  10.051 -1.0830  0.8467  0.0802
  610MOL0     C80424  -1.782   5.207  10.113 -0.1884 -0.3796  0.8654
  610MOL0     C80425  -1.878   5.284  10.021  0.5107  0.9732  0.1531
  610MOL0     C80426  -1.845   5.260   9.867  0.7807 -0.3618  0.5737
  610MOL0     C80427  -1.903   5.373   9.787  0.3392 -0.0345 -0.3524
  610MOL0     C80428  -1.816   5.410   9.662 -1.2831 -0.4320  0.6125
  610MOL0     C80429  -1.898   5.481   9.552  0.1923 -0.2059 -0.3637
  610MOL0     C80430  -1.992   5.589   9.599 -0.0230 -0.2791  0.0092
  610MOL0     C80431  -1.921   5.694   9.675 -0.2178  0.6147  0.0163
  610MOL0    Cl80432  -1.788   5.755   9.572  0.6923  0.0212 -0.0115
  610MOL0     C80433  -1.562   5.033  10.198  0.2307  0.0394 -0.0681
  610MOL0     C80434  -1.440   4.961  10.218 -0.2626 -0.2485 -0.3334
  610MOL0     O80435  -1.378   4.618  10.166  0.5026  0.3562  0.2169
  610MOL0     C80436  -1.150   4.469  10.141  0.1280  0.1408 -0.6103
  610MOL0     C80437  -1.031   4.396  10.109  0.1188 -0.4229 -0.6298
  610MOL0     N80438  -0.665   4.397   9.418 -0.0538 -0.9078 -0.1581
  610MOL0     N80439  -0.676   4.283   9.357  0.2461  0.1057 -0.0357
  610MOL0     C80440   0.248   3.452   9.427  0.8126  0.7649  0.6519
  610MOL0     C80441   0.288   3.319   9.430  1.0124  0.0615  0.0313
  610MOL0     C80442   0.327   2.889   9.462 -0.4127  0.0265 -0.8367
  610MOL0     C80443   0.264   2.780   9.530 -1.1998 -0.9125  0.7331
  610MOL0     C80444   0.339   2.671   9.562 -0.3548  0.6197  0.3569
  610MOL0     C80445   0.476   2.657   9.524  0.3496 -0.0495 -0.3199
  610MOL0     O80446   0.548   2.554   9.571 -0.3821 -0.3749 -0.6876
  610MOL0     C80447   0.666   2.503   9.516 -0.3030 -0.5926 -0.5959
  610MOL0     C80448   0.794   2.554   9.591  0.1696 -0.1427  0.5668
  610MOL0     C80449   0.913   2.464   9.552  0.0006 -0.5557 -0.3854
  610MOL0     C80450   1.030   2.499   9.642 -0.1412  0.2153  0.9010
  610MOL0     C80451   1.124   2.388   9.633 -0.5740  0.3941  0.1391
  610MOL0     C80452   1.206   2.304   9.606 -0.2065  1.0684  0.0773
  610MOL0     C80453   0.528   2.769   9.440  0.2895  0.2360  0.6182
  610MOL0     C80454   0.458   2.881   9.408  0.2535 -0.2828  0.6256
  610MOL0     H80455   0.181   3.222   9.121 -1.3654 -2.9045  2.3503
  610MOL0     H80456   0.143   3.476   9.113 -0.2453 -1.3182 -1.3463
  610MOL0     H80457   0.208   3.824   9.357 -2.5259  1.0257  1.4665
  610MOL0     H80458   0.267   3.702   9.471  1.1398  1.0610 -1.2184
  610MOL0     H80459   0.057   3.810   9.570  1.1752 -1.6538 -0.2054
  610MOL0     H80460   0.019   3.649   9.510  2.0196 -0.8698 -0.2978
  610MOL0     H80461  -0.109   3.724   9.323 -2.0013  2.5084 -1.6358
  610MOL0     H80462  -0.041   3.889   9.337 -0.3104  0.7246 -1.2665
  610MOL0     H80463  -0.238   3.766   9.525  0.7265 -0.1259  0.3122
  610MOL0     H80464  -0.158   3.925   9.539  0.7716  0.3525 -2.3765
  610MOL0     H80465  -0.321   3.834   9.302  2.6348  0.8985 -1.4597
  610MOL0     H80466  -0.257   4.000   9.323 -0.8199  0.3571 -0.0631
  610MOL0     H80467  -0.398   4.048   9.508  0.4989 -0.6944  2.6363
  610MOL0     H80468  -0.436   3.873   9.524  0.4429 -0.7819 -2.1618
  610MOL0     H80469  -0.501   4.047   9.282  1.6475  0.7870  1.2706
  610MOL0     H80470  -0.581   3.890   9.323 -0.3802 -0.9899  3.1719
  610MOL0     H80471  -0.654   4.011   9.541  0.3084 -2.3510 -1.5173
  610MOL0     H80472  -0.749   4.040   9.395 -0.4611  0.2437  2.4256
  610MOL0     H80473  -0.520   4.221   9.642  1.6329 -2.6418 -1.1372
  610MOL0     H80474  -0.659   4.590   9.599 -1.2490 -1.3115  2.8052
  610MOL0     H80475  -0.480   4.545   9.595  1.3322 -3.2691 -0.3413
  610MOL0     H80476  -0.517   4.570   9.818  0.9107 -1.5017 -0.2691
  610MOL0     H80477  -0.514   4.398   9.773  2.4415  0.7673 -0.1736
  610MOL0     H80478  -0.779   4.555   9.836  1.6553  0.3872 -2.1087
  610MOL0     H80479  -0.755   4.375   9.817 -0.9954  1.1810  0.0225
  610MOL0     H80480  -0.647   4.525  10.052  1.5526  0.0623  0.0479
  610MOL0     H80481  -0.602   4.362   9.996  0.2339  1.0342  3.6036
  610MOL0     H80482  -0.829   4.653  10.032  0.4729 -0.0631 -2.2957
  610MOL0     H80483  -1.018   4.775  10.089 -5.3957 -0.2018  0.0838
  610MOL0     H80484  -1.445   4.786   9.931  1.9739  1.8711 -0.6533
  610MOL0     H80485  -1.670   4.898   9.906 -1.6536  1.2938  0.4700
  610MOL0     H80486  -1.686   5.258  10.127  0.7172 -1.7718 -0.0018
  610MOL0     H80487  -1.820   5.202  10.215  0.5306  2.4686  1.3717
  610MOL0     H80488  -1.864   5.391  10.039  0.1896  1.2512 -1.1299
  610MOL0     H80489  -1.983   5.260  10.038  0.4377  0.9951 -0.2675
  610MOL0     H80490  -1.891   5.174   9.817 -0.8111  1.6997 -1.7685
  610MOL0     H80491  -1.736   5.263   9.861  0.7697  0.0659  0.5848
  610MOL0     H80492  -2.006   5.349   9.760  0.9339  0.5783 -3.6734
  610MOL0     H80493  -1.898   5.462   9.850  1.5659 -0.0789 -0.3650
  610MOL0     H80494  -1.772   5.324   9.611  0.0596  0.3966  0.3235
  610MOL0     H80495  -1.731   5.474   9.688 -2.2454  0.8981  0.5731
  610MOL0     H80496  -1.950   5.402   9.497 -2.2387  1.8949 -1.2966
  610MOL0     H80497  -1.832   5.525   9.476  1.9880 -3.3869 -0.8349
  610MOL0     H80498  -2.035   5.647   9.517 -2.6567 -1.7725  0.2298
  610MOL0     H80499  -2.072   5.553   9.665 -0.6293  1.7158  0.4212
  610MOL0     H80500  -1.885   5.672   9.777 -0.5312  3.0060  0.6932
  610MOL0     H80501  -1.986   5.781   9.686 -0.4054  0.5916 -0.8586
  610MOL0     H80502  -1.598   5.097  10.278 -2.0353 -0.4392 -0.6269
  610MOL0     H80503  -1.383   4.988  10.307 -0.4138  2.4497 -0.9826
  610MOL0     H80504  -1.237   4.408  10.165  0.2745 -0.9397 -2.6099
  610MOL0     H80505  -1.029   4.288  10.115 -5.4439 -0.7936 -0.3534
  610MOL0     H80506   0.253   3.517   9.513  1.8099  0.9766  0.4450
  610MOL0     H80507   0.334   3.286   9.522  3.9464  3.0798 -0.1552
  610MOL0     H80508   0.158   2.785   9.553 -1.4511 -1.8263 -0.1463
  610MOL0     H80509   0.299   2.592   9.625  1.6160  0.1403  1.0571
  610MOL0     H80510   0.662   2.517   9.407 -0.8086  2.4055 -0.2883
  610MOL0     H80511   0.657   2.396   9.537 -1.5855 -0.4831 -0.5096
  610MOL0     H80512   0.822   2.651   9.549  1.5430 -1.7749 -2.6897
  610MOL0     H80513   0.773   2.576   9.696 -0.9082 -0.2381  0.3850
  610MOL0     H80514   0.943   2.497   9.452 -0.6617 -0.6168 -0.6109
  610MOL0     H80515   0.889   2.358   9.560  1.6752 -0.8765  1.0163
  610MOL0     H80516   1.084   2.589   9.612  2.5950 -2.1631 -2.0406
  610MOL0     H80517   1.007   2.513   9.748 -0.4701 -1.2741  1.0523
  610MOL0     H80518   1.278   2.228   9.583 -1.9360 -1.3352  2.0951
  610MOL0     H80519   0.635   2.768   9.420  0.4623  0.0756  1.4913
  610MOL0     H80520   0.519   2.954   9.355  1.3664 -3.0310 -2.2056
  611MOL0     O80521   7.295   5.017   2.203 -0.2623  0.6892 -0.0972
  611MOL0     C80522   7.177   4.977   2.214 -0.5926 -0.6432 -0.3575
  611MOL0     O80523   7.086   5.013   2.304  0.8831 -0.4026 -0.0348
  611MOL0     C80524   7.104   5.095   2.414  0.8472  0.1635 -0.2192
  611MOL0     C80525   6.990   5.111   2.485  0.4570 -0.4247 -0.3592
  611MOL0     C80526   6.990   5.186   2.607  0.1285 -0.0032 -0.3754
  611MOL0     C80527   7.105   5.260   2.647  0.3647 -0.1573  0.2889
  611MOL0     O80528   7.117   5.327   2.775 -0.3531 -0.4249  0.9018
  611MOL0     C80529   7.216   5.436   2.802 -0.0402  1.4388  0.0522
  611MOL0     C80530   7.195   5.484   2.946  0.2164 -0.8950  0.1740
  611MOL0     C80531   7.241   5.376   3.052 -0.8404  0.1618 -0.0556
  611MOL0     C80532   7.278   5.444   3.173 -0.5361 -0.0405 -0.6035
  611MOL0     C80533   7.320   5.351   3.278  0.0206 -0.5666 -0.7341
  611MOL0     C80534   7.287   5.409   3.429 -0.7930  0.3324 -0.2812
  611MOL0     C80535   7.383   5.518   3.458  0.4838 -0.5879  0.6222
  611MOL0     C80536   7.354   5.584   3.592 -0.5920 -0.7066 -0.4492
  611MOL0     N80537   7.468   5.659   3.655  0.6310 -0.4458  0.1048
  611MOL0     C80538   7.557   5.748   3.602 -0.2302 -0.3039  0.7301
  611MOL0     C80539   7.665   5.761   3.684  0.9014 -0.0676 -0.4361
  611MOL0     C80540   7.779   5.849   3.678  0.4545 -0.3852 -0.0015
  611MOL0     C80541   7.736   5.995   3.663 -0.1020 -0.5070  0.2126
  611MOL0     C80542   7.675   6.033   3.799  0.7292 -0.4719 -0.6705
  611MOL0     C80543   7.651   6.178   3.798  0.7396 -0.4074 -0.5434
  611MOL0     O80544   7.699   6.233   3.921  0.0924 -0.0515 -0.2634
  611MOL0     C80545   7.613   6.258   4.024  0.4661 -0.6712  0.2973
  611MOL0     C80546   7.474   6.246   4.024 -0.3436  0.5302 -0.8821
  611MOL0     C80547   7.409   6.273   4.146 -0.4681  0.0608  0.6347
  611MOL0     C80548   7.471   6.331   4.259 -0.1993 -0.3974 -1.0600
  611MOL0     C80549   7.404   6.349   4.387 -0.3998  0.7952  0.3115
  611MOL0     O80550   7.269   6.341   4.391  0.5319 -0.4155  0.1935
  611MOL0     C80551   7.205   6.384   4.503 -0.0493 -0.6178  0.0123
  611MOL0     C80552   7.207   6.512   4.548 -0.9024  0.7024 -0.3569
  611MOL0     C80553   7.132   6.558   4.654 -0.1943 -0.4570 -0.1118
  611MOL0     C80554   7.061   6.461   4.735 -2.0786 -0.0077 -0.7842
  611MOL0     O80555   6.990   6.482   4.852 -0.2683 -0.4745  0.1999
  611MOL0     C80556   7.026   6.595   4.929 -0.0879 -0.1957  0.4667
  611MOL0     C80557   6.992   6.574   5.080 -0.4475  0.1476  0.6145
  611MOL0     C80558   6.835   6.580   5.102  0.4756 -0.8806  0.4833
  611MOL0     C80559   6.802   6.535   5.243 -0.0055 -0.1162 -0.1374
  611MOL0     C80560   6.655   6.541   5.274 -0.1348 -0.6578 -0.4520
  611MOL0     C80561   6.595   6.681   5.277  0.0774  0.4184  1.4464
  611MOL0     C80562   6.471   6.691   5.370  0.2895 -0.3201  0.6159
  611MOL0     C80563   6.387   6.819   5.341 -0.4358  0.8663  0.2497
  611MOL0    Cl80564   6.268   6.841   5.482  0.1524  0.2492  0.2066
  611MOL0     C80565   7.069   6.322   4.691  0.6103  0.4893 -0.7303
  611MOL0     C80566   7.143   6.294   4.577  0.7878 -0.2745  1.1647
  611MOL0     O80567   7.478   6.359   4.483 -0.0136  0.7731  0.4334
  611MOL0     C80568   7.610   6.356   4.244 -0.8870 -0.2842  0.2772
  611MOL0     C80569   7.675   6.331   4.127 -0.4132 -0.0334  0.3646
  611MOL0     N80570   7.648   5.656   3.784 -0.3373 -0.0739  0.3460
  611MOL0     N80571   7.523   5.604   3.766 -0.8302  0.9479  0.5412
  611MOL0     C80572   7.215   5.248   2.566 -0.1734 -1.4246 -0.0842
  611MOL0     C80573   7.221   5.161   2.456  0.2079 -0.2598 -0.3846
  611MOL0     C80574   7.132   4.866   2.138  0.4050 -0.6579 -0.8225
  611MOL0     C80575   7.224   4.803   2.047  0.8075 -0.0799  0.7892
  611MOL0     C80576   7.172   4.692   1.982 -0.1670  0.4627 -1.0906
  611MOL0     C80577   7.041   4.639   1.998  0.9742  0.4109 -0.1205
  611MOL0     O80578   7.010   4.529   1.916  0.8965  0.2934  0.6939
  611MOL0     C80579   6.913   4.452   1.985 -0.6609 -0.0872 -0.2309
  611MOL0     C80580   6.875   4.335   1.897  0.8397  0.0435  0.5461
  611MOL0     C80581   6.764   4.247   1.942 -0.4691 -0.0711  0.3452
  611MOL0     C80582   6.735   4.159   1.828 -0.6358 -0.0296  0.2466
  611MOL0     C80583   6.655   4.046   1.873 -0.1876  0.2693 -0.2952
  611MOL0     C80584   6.601   3.945   1.928 -0.6971  1.0633  0.7756
  611MOL0     C80585   6.952   4.704   2.083 -0.2255  0.0015  0.6190
  611MOL0     C80586   7.002   4.814   2.160  0.1603 -1.0950  0.6827
  611MOL0     H80587   6.899   5.058   2.460 -1.6133  1.4153  2.6312
  611MOL0     H80588   6.904   5.174   2.672 -1.1172  1.2912 -1.7427
  611MOL0     H80589   7.217   5.516   2.727 -2.1688 -0.5268 -2.2721
  611MOL0     H80590   7.308   5.379   2.788  0.5622  2.7071 -1.3935
  611MOL0     H80591   7.089   5.499   2.972 -0.0280 -0.3653 -1.0426
  611MOL0     H80592   7.231   5.587   2.939 -2.0949 -0.1544 -2.8524
  611MOL0     H80593   7.325   5.330   3.001 -0.1174 -0.0018  1.2448
  611MOL0     H80594   7.153   5.310   3.059 -1.4183  1.0604  1.6949
  611MOL0     H80595   7.370   5.498   3.149  0.4213 -2.0039 -1.6373
  611MOL0     H80596   7.198   5.512   3.204 -0.4810 -0.4600  0.5076
  611MOL0     H80597   7.427   5.328   3.271 -0.1052 -2.7880  2.4350
  611MOL0     H80598   7.266   5.257   3.264  0.6730 -0.8592 -1.3282
  611MOL0     H80599   7.305   5.330   3.503 -0.9962 -1.3220 -1.9258
  611MOL0     H80600   7.180   5.432   3.435 -1.5522 -2.8226 -0.0806
  611MOL0     H80601   7.476   5.464   3.476  1.6164 -0.3017 -3.5108
  611MOL0     H80602   7.412   5.590   3.381  3.8545 -0.1712  2.0713
  611MOL0     H80603   7.328   5.502   3.659 -0.9952 -2.0859 -2.2411
  611MOL0     H80604   7.270   5.652   3.574 -1.7406 -2.0003 -0.0839
  611MOL0     H80605   7.547   5.814   3.516  3.3129  0.2676  0.6092
  611MOL0     H80606   7.839   5.811   3.595  0.1384 -0.4492 -0.1978
  611MOL0     H80607   7.838   5.843   3.770 -1.6329  2.3337  1.6634
  611MOL0     H80608   7.670   6.011   3.577  3.4929  0.4204 -2.5820
  611MOL0     H80609   7.829   6.048   3.642  0.3207 -1.7996 -1.3302
  611MOL0     H80610   7.587   5.969   3.813  0.0377  0.3636 -1.1547
  611MOL0     H80611   7.740   6.009   3.884  1.6244  0.9419 -0.9294
  611MOL0     H80612   7.545   6.194   3.776  0.4780 -1.0242  0.2019
  611MOL0     H80613   7.711   6.226   3.721  0.7478 -0.8850 -0.8360
  611MOL0     H80614   7.417   6.200   3.944  0.2659 -1.1156 -0.4021
  611MOL0     H80615   7.304   6.243   4.147 -1.6340  3.5667 -1.2266
  611MOL0     H80616   7.249   6.596   4.495  3.9438  1.2623  3.6030
  611MOL0     H80617   7.145   6.661   4.684  2.7060 -0.6915 -0.2565
  611MOL0     H80618   6.971   6.680   4.889  0.2668  1.0998  2.5981
  611MOL0     H80619   7.133   6.620   4.924 -0.4595  1.3464 -1.0758
  611MOL0     H80620   7.035   6.663   5.126 -1.2342  1.1149 -0.4497
  611MOL0     H80621   7.039   6.484   5.120  3.0314  1.4196 -0.2563
  611MOL0     H80622   6.800   6.512   5.024  1.4947  0.1263 -0.9238
  611MOL0     H80623   6.801   6.684   5.091  1.4622 -0.7713 -2.3990
  611MOL0     H80624   6.838   6.432   5.257  0.1395  0.0938  1.2192
  611MOL0     H80625   6.866   6.590   5.313  1.3892 -0.1321 -1.3523
  611MOL0     H80626   6.641   6.481   5.364 -0.6601 -0.1112 -0.1608
  611MOL0     H80627   6.595   6.481   5.205 -2.7438  1.4031 -0.1219
  611MOL0     H80628   6.572   6.717   5.176  1.7114 -0.1485  0.8512
  611MOL0     H80629   6.665   6.757   5.313 -2.2440  4.0236 -0.9927
  611MOL0     H80630   6.409   6.602   5.357  1.6212 -0.8886 -3.2798
  611MOL0     H80631   6.493   6.697   5.477 -0.1026  1.0819  0.6333
  611MOL0     H80632   6.334   6.808   5.246 -1.4041 -0.8128  0.9500
  611MOL0     H80633   6.459   6.900   5.355 -1.1317  1.2107  1.9719
  611MOL0     H80634   7.005   6.250   4.743  3.8484 -2.8850 -0.9767
  611MOL0     H80635   7.136   6.200   4.523  0.2046  0.4456 -0.0469
  611MOL0     H80636   7.658   6.409   4.326 -2.3484  3.6653 -1.1641
  611MOL0     H80637   7.782   6.347   4.115 -0.7576  0.5302 -3.1235
  611MOL0     H80638   7.305   5.298   2.601 -1.7513  3.1427 -1.8606
  611MOL0     H80639   7.308   5.180   2.394 -0.3489  1.2865 -0.7349
  611MOL0     H80640   7.328   4.810   2.016  0.6007 -1.1626 -0.2301
  611MOL0     H80641   7.246   4.645   1.918 -0.1459  4.3065 -4.2534
  611MOL0     H80642   6.818   4.503   2.004 -0.9760  0.8504 -3.6442
  611MOL0     H80643   6.946   4.420   2.084 -1.1756 -2.0758 -0.6535
  611MOL0     H80644   6.836   4.386   1.808 -2.6659 -0.0602  1.8952
  611MOL0     H80645   6.964   4.271   1.888 -1.1481 -2.9448  0.7918
  611MOL0     H80646   6.669   4.296   1.966 -0.2227  1.2534 -1.1732
  611MOL0     H80647   6.799   4.192   2.029 -0.6140  0.7575  0.9402
  611MOL0     H80648   6.675   4.215   1.756  1.6212  0.5411 -1.3201
  611MOL0     H80649   6.829   4.129   1.780  1.6737  2.7127  2.6141
  611MOL0     H80650   6.538   3.867   1.966  1.5134 -1.4167 -0.3807
  611MOL0     H80651   6.848   4.680   2.101  0.3967 -4.5608 -0.6660
  611MOL0     H80652   6.931   4.863   2.226  2.0516  2.0758  0.5423
  612MOL0     O80653   1.038   4.427   8.278 -0.0756 -0.3165 -0.6717
  612MOL0     C80654   1.114   4.348   8.231  0.0378 -0.0106  0.6110
  612MOL0     O80655   1.196   4.364   8.124 -0.2055 -0.6190 -0.7288
  612MOL0     C80656   1.187   4.481   8.056  0.8512 -0.5801 -0.1872
  612MOL0     C80657   1.145   4.472   7.931  0.8544 -1.7174  0.1920
  612MOL0     C80658   1.136   4.587   7.855  0.5227 -0.9233 -0.3408
  612MOL0     C80659   1.180   4.709   7.899 -0.3519 -0.1254 -0.3216
  612MOL0     O80660   1.163   4.840   7.846 -0.1798  0.0408 -0.3345
  612MOL0     C80661   1.139   4.851   7.700  0.3311 -0.3241 -0.0524
  612MOL0     C80662   1.085   4.988   7.663  0.2696 -1.1638  1.3193
  612MOL0     C80663   1.036   4.994   7.515  1.0521  0.0741  0.6785
  612MOL0     C80664   1.015   5.134   7.463  0.6840 -0.1852 -0.0585
  612MOL0     C80665   0.976   5.117   7.313 -0.3828  0.4947  1.0103
  612MOL0     C80666   0.967   5.259   7.259 -0.6331 -0.2111 -0.4232
  612MOL0     C80667   0.959   5.266   7.103 -0.0959  0.6687 -0.4616
  612MOL0     C80668   0.919   5.413   7.062  0.1215  0.0816  0.0966
  612MOL0     N80669   0.870   5.424   6.928  0.5410 -0.1744  0.5798
  612MOL0     C80670   0.771   5.504   6.889  0.7836  0.0440  0.0552
  612MOL0     C80671   0.771   5.507   6.751 -0.5130  0.1936 -0.7174
  612MOL0     C80672   0.685   5.593   6.665  0.0812 -0.2107 -0.7786
  612MOL0     C80673   0.648   5.532   6.532  0.1636  0.3617 -0.3677
  612MOL0     C80674   0.548   5.409   6.546 -0.5114 -0.2021  0.8283
  612MOL0     C80675   0.408   5.449   6.516  0.6948  0.1662  0.7004
  612MOL0     O80676   0.366   5.545   6.621 -0.5441 -1.0404  0.0281
  612MOL0     C80677   0.265   5.640   6.598 -0.8982 -0.5175  0.4462
  612MOL0     C80678   0.222   5.707   6.721  0.1198  0.3692  0.6133
  612MOL0     C80679   0.133   5.805   6.703 -0.3550 -0.2488 -0.4293
  612MOL0     C80680   0.075   5.843   6.586  0.4562  0.6042  0.2164
  612MOL0     C80681  -0.029   5.948   6.565 -0.5345  0.3621  0.2388
  612MOL0     O80682  -0.128   5.966   6.646  0.2149  0.0634  0.4188
  612MOL0     C80683  -0.206   6.078   6.642  1.0302  0.3065  0.6275
  612MOL0     C80684  -0.241   6.148   6.759  0.1139 -0.0728 -0.3613
  612MOL0     C80685  -0.333   6.249   6.763 -0.8022 -0.4818 -0.8526
  612MOL0     C80686  -0.398   6.282   6.648  0.0627  0.3463 -0.7073
  612MOL0     O80687  -0.471   6.398   6.658  0.1886 -0.4167 -0.2214
  612MOL0     C80688  -0.563   6.435   6.554 -0.3679  0.0993 -0.3690
  612MOL0     C80689  -0.659   6.554   6.592  0.2248 -0.0783  0.4694
  612MOL0     C80690  -0.769   6.513   6.689  0.5086  0.3515 -0.7313
  612MOL0     C80691  -0.869   6.628   6.722 -0.1645  0.0930 -0.1171
  612MOL0     C80692  -0.975   6.569   6.819 -0.1992  0.6159  0.0534
  612MOL0     C80693  -1.094   6.655   6.842  0.4418 -0.0987 -0.2965
  612MOL0     C80694  -1.187   6.580   6.948  0.0977 -0.4252  0.1400
  612MOL0     C80695  -1.323   6.646   6.973  0.1929  0.3070  1.2462
  612MOL0    Cl80696  -1.407   6.577   7.111  0.1414 -0.0183 -0.1638
  612MOL0     C80697  -0.374   6.208   6.528  1.1160 -1.0211 -0.2090
  612MOL0     C80698  -0.287   6.100   6.526  0.9629  0.8873 -0.2339
  612MOL0     O80699  -0.012   6.027   6.472 -0.0618  0.1853 -0.3026
  612MOL0     C80700   0.122   5.785   6.469 -1.4245 -0.0508 -0.4077
  612MOL0     C80701   0.214   5.675   6.476  0.5093 -0.7860 -0.7738
  612MOL0     N80702   0.869   5.425   6.709  0.3206  0.4355  0.8309
  612MOL0     N80703   0.932   5.383   6.814  0.4167  0.0605  0.7716
  612MOL0     C80704   1.233   4.711   8.030  0.2298 -0.0890 -1.2380
  612MOL0     C80705   1.240   4.597   8.111 -0.6759  0.5734 -0.0656
  612MOL0     C80706   1.113   4.208   8.289 -1.3058 -0.7992  0.3814
  612MOL0     C80707   1.081   4.188   8.426 -0.1429  0.2788 -1.1195
  612MOL0     C80708   1.115   4.056   8.476  0.5736  0.3129  0.2444
  612MOL0     C80709   1.182   3.964   8.391 -0.7641  0.8521 -1.3141
  612MOL0     O80710   1.230   3.847   8.449 -0.2800  0.5335 -0.1212
  612MOL0     C80711   1.283   3.865   8.584  0.1128 -0.1766 -0.4020
  612MOL0     C80712   1.411   3.773   8.604 -0.9731  1.1770 -0.7413
  612MOL0     C80713   1.460   3.784   8.748  0.1647  0.5091 -0.1811
  612MOL0     C80714   1.568   3.674   8.762  0.0031 -0.2526 -0.3556
  612MOL0     C80715   1.625   3.676   8.899  0.2732 -0.6138  0.1963
  612MOL0     C80716   1.672   3.686   9.012 -0.9372  0.0030  0.3337
  612MOL0     C80717   1.189   3.982   8.256 -0.3638 -0.6055  0.8312
  612MOL0     C80718   1.158   4.110   8.211 -0.1298 -0.0627  0.5742
  612MOL0     H80719   1.109   4.374   7.900  1.7808 -2.2596  0.7505
  612MOL0     H80720   1.099   4.585   7.753 -2.0775 -1.7159  0.5474
  612MOL0     H80721   1.068   4.774   7.668 -0.0437  0.3726 -0.9634
  612MOL0     H80722   1.234   4.837   7.648  0.0034 -0.5512 -0.5990
  612MOL0     H80723   1.168   5.055   7.687 -0.5795  0.3506  0.1921
  612MOL0     H80724   1.001   5.031   7.718  0.0005  1.1163 -0.6919
  612MOL0     H80725   0.943   4.937   7.506  1.8022 -0.9845 -0.8288
  612MOL0     H80726   1.103   4.928   7.460 -0.4255  0.4355 -1.7104
  612MOL0     H80727   0.937   5.179   7.523  2.9139  1.3793  1.8412
  612MOL0     H80728   1.106   5.193   7.477  0.0002  0.2077  3.7100
  612MOL0     H80729   0.880   5.067   7.297 -0.0466 -0.4535  1.8109
  612MOL0     H80730   1.064   5.070   7.268 -1.9317 -1.2567 -0.3828
  612MOL0     H80731   1.058   5.317   7.279 -1.1336  1.2620 -2.1542
  612MOL0     H80732   0.878   5.303   7.307 -2.0304 -0.1095 -2.9497
  612MOL0     H80733   1.061   5.247   7.068  0.0393  3.2352 -1.6929
  612MOL0     H80734   0.895   5.194   7.052  0.9851  2.4180 -4.6983
  612MOL0     H80735   1.009   5.475   7.065  2.0122 -2.4747 -0.0645
  612MOL0     H80736   0.834   5.445   7.123 -0.9494 -2.1088 -0.1493
  612MOL0     H80737   0.720   5.563   6.964 -1.8510 -0.2716 -1.3644
  612MOL0     H80738   0.744   5.683   6.643  0.6645 -0.0283  1.3203
  612MOL0     H80739   0.597   5.628   6.721  1.7769  0.4118  1.6591
  612MOL0     H80740   0.741   5.491   6.491 -0.0339 -1.1091  0.5813
  612MOL0     H80741   0.611   5.610   6.466  1.0625 -1.8662 -3.7375
  612MOL0     H80742   0.580   5.329   6.479  0.2048  1.2112 -0.5819
  612MOL0     H80743   0.553   5.361   6.644 -0.5812 -2.7296 -0.3128
  612MOL0     H80744   0.348   5.357   6.519  1.0134 -0.0296  1.9029
  612MOL0     H80745   0.391   5.479   6.412 -0.6438 -2.7163 -0.0091
  612MOL0     H80746   0.273   5.669   6.809  1.7526  4.0423  1.4466
  612MOL0     H80747   0.110   5.871   6.786 -3.7551 -1.0802 -0.5691
  612MOL0     H80748  -0.196   6.130   6.856 -4.7876  0.8983  2.4441
  612MOL0     H80749  -0.344   6.320   6.844 -3.9183  1.7635 -2.9819
  612MOL0     H80750  -0.619   6.346   6.523  1.2766 -0.5900 -1.4887
  612MOL0     H80751  -0.503   6.467   6.469  0.8047 -1.0256  0.0006
  612MOL0     H80752  -0.711   6.602   6.508  1.4104  2.2254  0.9688
  612MOL0     H80753  -0.599   6.626   6.648  3.4254 -1.8963 -0.3990
  612MOL0     H80754  -0.726   6.477   6.782  0.8735  0.8355 -0.7077
  612MOL0     H80755  -0.820   6.428   6.642 -1.6544  0.5282  1.1514
  612MOL0     H80756  -0.824   6.723   6.752 -1.4516  1.5256 -2.3917
  612MOL0     H80757  -0.909   6.659   6.625  0.3867 -0.3722 -0.5037
  612MOL0     H80758  -0.929   6.549   6.917  1.0323  2.4162 -0.0982
  612MOL0     H80759  -1.013   6.484   6.762  0.1786  0.7457 -0.4020
  612MOL0     H80760  -1.148   6.664   6.747 -1.0040  4.3142  0.6860
  612MOL0     H80761  -1.068   6.756   6.875  1.4096 -0.3671 -0.2127
  612MOL0     H80762  -1.215   6.478   6.919 -0.6260 -0.0222 -0.6473
  612MOL0     H80763  -1.137   6.571   7.045 -1.6026 -1.8620  0.9443
  612MOL0     H80764  -1.386   6.624   6.887 -1.6026  3.9157  1.4527
  612MOL0     H80765  -1.306   6.754   6.983  4.2066  0.0419 -0.5032
  612MOL0     H80766  -0.424   6.245   6.439 -1.7125  1.1219  2.0807
  612MOL0     H80767  -0.273   6.069   6.424 -2.1875  3.9493 -1.8137
  612MOL0     H80768   0.078   5.807   6.372  0.1216 -2.0229 -1.6571
  612MOL0     H80769   0.233   5.612   6.390 -2.4576 -1.4713 -1.0295
  612MOL0     H80770   1.255   4.812   8.064  1.0514  0.2590 -2.7146
  612MOL0     H80771   1.278   4.602   8.213  0.0875  3.0530 -0.4107
  612MOL0     H80772   1.033   4.263   8.488  1.7248  0.1840  0.5399
  612MOL0     H80773   1.084   4.019   8.574  2.4908  0.6003  1.0102
  612MOL0     H80774   1.227   3.836   8.673  3.4264 -2.4853  1.1189
  612MOL0     H80775   1.312   3.970   8.597  2.3663 -0.8958  1.0289
  612MOL0     H80776   1.384   3.670   8.579 -0.8612  1.4830 -2.1954
  612MOL0     H80777   1.490   3.808   8.537  2.5883 -0.7640  2.0802
  612MOL0     H80778   1.381   3.769   8.823  1.1236 -0.9690  0.5902
  612MOL0     H80779   1.501   3.884   8.764  3.4681 -0.8250  0.5383
  612MOL0     H80780   1.511   3.581   8.749 -4.6910  2.2135  0.4954
  612MOL0     H80781   1.651   3.687   8.693  1.6178 -2.3406  1.0393
  612MOL0     H80782   1.705   3.716   9.109  3.2050  2.2615 -1.4808
  612MOL0     H80783   1.224   3.901   8.193  0.6949  1.0327 -0.7621
  612MOL0     H80784   1.169   4.129   8.104  0.8874  1.2932  0.8894
  613MOL0     O80785   5.221  11.288   7.533 -0.6004 -0.1574 -1.0386
  613MOL0     C80786   5.146  11.334   7.442  0.5413  1.0478  0.3491
  613MOL0     O80787   5.086  11.458   7.446 -0.4868  0.2463 -0.4473
  613MOL0     C80788   5.117  11.535   7.549 -0.5594 -0.1127 -0.2538
  613MOL0     C80789   5.244  11.582   7.559 -0.8983 -0.0639  1.2014
  613MOL0     C80790   5.292  11.685   7.640  0.0023  1.5426 -0.2550
  613MOL0     C80791   5.186  11.754   7.699 -0.8510 -1.0372 -0.0108
  613MOL0     O80792   5.213  11.864   7.780  0.2636  0.2822 -0.3290
  613MOL0     C80793   5.172  11.866   7.923 -0.5496 -0.1260  1.1930
  613MOL0     C80794   5.266  11.798   8.012 -0.3653  0.0011 -0.4217
  613MOL0     C80795   5.410  11.851   7.994  0.0168 -1.0090  0.0612
  613MOL0     C80796   5.431  11.991   8.065 -0.2584 -0.4744  0.6769
  613MOL0     C80797   5.419  11.995   8.217 -0.3818  0.0765 -0.7492
  613MOL0     C80798   5.554  11.962   8.285  0.0818 -0.6958  0.3934
  613MOL0     C80799   5.549  11.958   8.434 -0.7161  0.3298 -0.4385
  613MOL0     C80800   5.694  11.934   8.493  0.5744 -0.1383  0.4619
  613MOL0     N80801   5.689  11.972   8.637 -0.1242  0.2564  0.1443
  613MOL0     C80802   5.620  11.904   8.726 -0.4163  0.1919 -0.0900
  613MOL0     C80803   5.615  11.985   8.831  0.7250 -0.6024  0.1645
  613MOL0     C80804   5.550  11.945   8.964 -0.2190 -0.6775  0.0222
  613MOL0     C80805   5.401  11.935   8.970 -0.1189  0.2595  0.6441
  613MOL0     C80806   5.331  12.047   8.884  0.5289 -0.0227 -0.1279
  613MOL0     C80807   5.184  12.019   8.899 -0.1638 -0.0938 -0.1714
  613MOL0     O80808   5.151  11.889   8.843  0.1297  0.0842  0.4117
  613MOL0     C80809   5.025  11.867   8.791 -0.2096  0.4036 -0.4677
  613MOL0     C80810   5.001  11.743   8.712  0.0104 -0.1304  0.5741
  613MOL0     C80811   4.876  11.704   8.663 -0.3805 -0.5510  0.6335
  613MOL0     C80812   4.767  11.787   8.683  0.1663 -1.0857 -0.7822
  613MOL0     C80813   4.639  11.762   8.620 -0.2877  1.0851  0.5957
  613MOL0     O80814   4.641  11.663   8.520  0.9188  0.3031 -0.0481
  613MOL0     C80815   4.528  11.625   8.449  0.2451 -0.0589 -0.3520
  613MOL0     C80816   4.449  11.514   8.478  0.8191  0.0975 -0.2991
  613MOL0     C80817   4.333  11.480   8.413 -0.9759  0.6101  0.4622
  613MOL0     C80818   4.310  11.550   8.300 -0.9760 -0.5193  1.1757
  613MOL0     O80819   4.202  11.511   8.226 -0.0415 -0.1578  0.2746
  613MOL0     C80820   4.208  11.543   8.086  0.2932 -0.5281 -1.0292
  613MOL0     C80821   4.086  11.477   8.019 -1.4885  0.5972  0.5078
  613MOL0     C80822   4.085  11.326   8.046  0.2132  0.9334 -0.4941
  613MOL0     C80823   3.959  11.266   7.988 -0.0824 -0.6559  0.8031
  613MOL0     C80824   3.925  11.124   8.035  0.9603  0.0995  1.1913
  613MOL0     C80825   3.923  11.108   8.188  0.6050  0.1558 -0.0092
  613MOL0     C80826   3.867  10.964   8.228 -0.6133  0.3856  0.8678
  613MOL0     C80827   3.900  10.943   8.375 -0.0879  0.1804 -0.2242
  613MOL0    Cl80828   3.833  10.787   8.418  0.0322 -0.2226  0.1250
  613MOL0     C80829   4.392  11.655   8.249 -0.7967  0.2448  0.3860
  613MOL0     C80830   4.501  11.705   8.331 -0.1459 -0.1010 -0.9429
  613MOL0     O80831   4.534  11.816   8.658  0.6046  0.4752 -0.5818
  613MOL0     C80832   4.788  11.899   8.768  0.0259 -0.2906 -0.8344
  613MOL0     C80833   4.913  11.942   8.820 -0.2169 -0.3519 -0.1270
  613MOL0     N80834   5.682  12.094   8.806 -0.9118 -0.2885  0.4609
  613MOL0     N80835   5.735  12.084   8.688 -0.2849 -0.0391  0.1991
  613MOL0     C80836   5.062  11.702   7.704  0.2093  0.3720  0.1208
  613MOL0     C80837   5.024  11.588   7.633  0.9960 -0.0866  0.2130
  613MOL0     C80838   5.143  11.263   7.314 -0.5809  0.0684 -0.4356
  613MOL0     C80839   5.181  11.131   7.313  0.4205  0.2951 -1.0719
  613MOL0     C80840   5.185  11.063   7.190  1.1616  0.3503 -0.2108
  613MOL0     C80841   5.156  11.126   7.072  0.7541  0.2618  0.7210
  613MOL0     O80842   5.165  11.063   6.955  0.1878 -0.5145  0.6025
  613MOL0     C80843   5.149  10.914   6.955 -0.4229 -0.5270 -0.5998
  613MOL0     C80844   5.122  10.840   6.823 -0.3012 -0.1380  0.7639
  613MOL0     C80845   5.259  10.807   6.762  0.1024 -0.0540  0.8456
  613MOL0     C80846   5.226  10.745   6.629  0.3738 -1.0391 -0.4472
  613MOL0     C80847   5.344  10.732   6.546 -0.2471  0.2372 -1.1186
  613MOL0     C80848   5.465  10.719   6.515  0.3316  0.2762  0.5755
  613MOL0     C80849   5.116  11.258   7.075  0.3192 -0.3156 -0.4979
  613MOL0     C80850   5.110  11.328   7.194 -0.3439  0.5075  0.0321
  613MOL0     H80851   5.316  11.556   7.483  0.4652  0.1726  2.3772
  613MOL0     H80852   5.393  11.723   7.644 -0.0901  1.6995  2.6658
  613MOL0     H80853   5.078  11.813   7.936 -0.0173 -1.2736  0.4926
  613MOL0     H80854   5.160  11.968   7.961 -2.4309 -1.3989  4.4331
  613MOL0     H80855   5.265  11.699   7.967 -3.1755  0.4587 -1.5420
  613MOL0     H80856   5.234  11.804   8.116  2.3918  3.3648  0.4700
  613MOL0     H80857   5.437  11.859   7.888 -1.8246  1.9049 -0.3098
  613MOL0     H80858   5.470  11.774   8.044  1.8014  0.4340  0.2406
  613MOL0     H80859   5.533  12.018   8.036  0.0602 -1.7303  0.5774
  613MOL0     H80860   5.357  12.061   8.026 -0.0676 -0.3738  0.4927
  613MOL0     H80861   5.342  11.928   8.257 -0.5479  2.1603  2.8181
  613MOL0     H80862   5.387  12.095   8.249  3.0791  0.8924  0.5842
  613MOL0     H80863   5.617  12.041   8.245 -1.7409  0.6656  0.0637
  613MOL0     H80864   5.596  11.865   8.256 -0.1531 -0.4138 -0.9464
  613MOL0     H80865   5.520  12.059   8.464  1.7776  1.0834 -0.3159
  613MOL0     H80866   5.478  11.883   8.469 -0.7720  0.3825 -0.4379
  613MOL0     H80867   5.763  11.998   8.436  0.4100  1.6556  2.1741
  613MOL0     H80868   5.710  11.827   8.479  4.1305  0.0499  2.1710
  613MOL0     H80869   5.587  11.803   8.702  0.0438  0.0383 -0.1020
  613MOL0     H80870   5.557  12.032   9.030 -0.9515  0.4541 -1.3477
  613MOL0     H80871   5.597  11.863   9.019 -4.2944 -2.3055  1.4405
  613MOL0     H80872   5.358  11.935   9.070 -1.3174  2.8334  0.2092
  613MOL0     H80873   5.388  11.835   8.926  2.9023 -0.5146  1.2520
  613MOL0     H80874   5.363  12.140   8.932  0.0397  0.1316 -0.1054
  613MOL0     H80875   5.361  12.037   8.779 -0.4756 -0.5537 -0.3700
  613MOL0     H80876   5.122  12.101   8.862 -1.9053 -1.3512 -0.1626
  613MOL0     H80877   5.173  12.005   9.007  0.5972  1.2362  0.0964
  613MOL0     H80878   5.087  11.679   8.699  1.7033  2.1912 -0.3649
  613MOL0     H80879   4.868  11.615   8.601  0.2669 -2.4888  3.1579
  613MOL0     H80880   4.467  11.452   8.564 -1.6651 -0.8381 -0.3654
  613MOL0     H80881   4.271  11.397   8.444  2.6023 -2.1043  1.0619
  613MOL0     H80882   4.306  11.513   8.046  0.5511  0.0115 -0.8197
  613MOL0     H80883   4.209  11.649   8.059 -0.4159 -0.0931  0.5170
  613MOL0     H80884   4.094  11.491   7.911  3.1317 -3.7126 -0.0638
  613MOL0     H80885   3.993  11.530   8.043  0.0521  4.0138 -0.4824
  613MOL0     H80886   4.079  11.309   8.153  0.7789  1.4756 -0.3667
  613MOL0     H80887   4.177  11.272   8.021 -0.8750 -2.6638  2.3725
  613MOL0     H80888   3.877  11.320   8.035 -0.3248 -2.6701  2.9041
  613MOL0     H80889   3.956  11.275   7.879 -3.3819  2.5172  0.9929
  613MOL0     H80890   4.005  11.059   7.997 -1.3852 -4.5174  3.3075
  613MOL0     H80891   3.828  11.099   7.991  1.7425 -0.5299 -0.2812
  613MOL0     H80892   3.867  11.189   8.236 -0.3684 -2.3332  3.5184
  613MOL0     H80893   4.019  11.118   8.238 -0.3984  2.9803  1.5507
  613MOL0     H80894   3.759  10.954   8.214 -0.2774 -0.1373 -1.8762
  613MOL0     H80895   3.918  10.885   8.172 -0.5703 -2.5003  4.5381
  613MOL0     H80896   3.845  11.021   8.426  0.6321  1.7524 -1.7416
  613MOL0     H80897   4.008  10.954   8.394  0.4714 -2.4302 -1.4025
  613MOL0     H80898   4.387  11.717   8.160  1.7223 -0.1172 -0.0893
  613MOL0     H80899   4.551  11.797   8.302 -3.4874  1.3062 -2.8597
  613MOL0     H80900   4.701  11.956   8.800  0.9088 -0.4226  2.0723
  613MOL0     H80901   4.918  12.017   8.898  0.8917  1.1039 -1.5166
  613MOL0     H80902   4.985  11.752   7.762  0.6388  0.2237  0.8413
  613MOL0     H80903   4.918  11.566   7.639  0.7099  0.8496 -0.9128
  613MOL0     H80904   5.202  11.088   7.410  3.0208 -1.2948 -2.2415
  613MOL0     H80905   5.203  10.956   7.195  1.5962  0.2115 -3.1359
  613MOL0     H80906   5.069  10.894   7.027  1.5204 -2.8275  1.0585
  613MOL0     H80907   5.237  10.877   7.007 -0.2600 -0.6414 -0.9487
  613MOL0     H80908   5.073  10.743   6.840 -0.8651 -0.2137 -1.1079
  613MOL0     H80909   5.062  10.906   6.759  0.0713  0.5200  1.0857
  613MOL0     H80910   5.318  10.735   6.819 -0.6148 -2.3159 -1.1082
  613MOL0     H80911   5.326  10.893   6.752 -0.9673  0.9347  1.8725
  613MOL0     H80912   5.176  10.648   6.644 -2.8320  0.8279  2.3814
  613MOL0     H80913   5.148  10.796   6.571  0.2053 -1.1675 -0.3365
  613MOL0     H80914   5.558  10.698   6.466  0.2801 -1.0709  1.0256
  613MOL0     H80915   5.091  11.309   6.983  1.3644  2.4988  0.6628
  613MOL0     H80916   5.094  11.435   7.200 -1.8413  0.2205  2.1121
  614MOL0     O80917   4.457   1.629   8.436  0.2659  0.8520 -0.8348
  614MOL0     C80918   4.560   1.612   8.505  1.3085  0.2771 -0.6229
  614MOL0     O80919   4.591   1.492   8.551  0.0057  0.6699 -0.3177
  614MOL0     C80920   4.516   1.375   8.525  0.7812  0.3816 -0.0449
  614MOL0     C80921   4.383   1.360   8.566 -0.9005  0.5623  1.0550
  614MOL0     C80922   4.319   1.244   8.525 -0.8046 -0.2446 -0.5708
  614MOL0     C80923   4.388   1.135   8.477 -0.4228 -0.2375  0.3594
  614MOL0     O80924   4.306   1.031   8.435  0.1607 -0.1196  0.9123
  614MOL0     C80925   4.333   0.996   8.300  0.0784  0.2020  0.0430
  614MOL0     C80926   4.210   0.923   8.245  0.1635  0.0189  0.6401
  614MOL0     C80927   4.224   0.899   8.096  0.7133  0.2315  0.1810
  614MOL0     C80928   4.104   0.854   8.018 -0.0500 -1.1488  0.3812
  614MOL0     C80929   4.011   0.977   7.995  0.1072 -0.9237 -0.5783
  614MOL0     C80930   3.920   0.962   7.867  0.5830 -0.9073  0.4440
  614MOL0     C80931   3.994   0.978   7.735 -0.8670 -0.4272 -0.1304
  614MOL0     C80932   3.914   0.909   7.621  0.7214 -0.4465 -0.0352
  614MOL0     N80933   3.770   0.919   7.639 -1.1465 -1.0146  0.0789
  614MOL0     C80934   3.699   1.024   7.589  0.9543  0.7270 -0.1177
  614MOL0     C80935   3.570   0.991   7.617  0.2636  0.6981  1.2855
  614MOL0     C80936   3.450   1.051   7.558 -0.2293  0.5547 -0.9404
  614MOL0     C80937   3.384   1.145   7.667 -0.7616 -0.3543 -0.6724
  614MOL0     C80938   3.439   1.288   7.656 -0.0878 -0.8117  0.1079
  614MOL0     C80939   3.341   1.389   7.718 -0.0211 -0.2526 -0.4258
  614MOL0     O80940   3.222   1.412   7.633 -0.2047  0.3423 -0.0632
  614MOL0     C80941   3.129   1.498   7.689 -0.1409  0.9317 -0.5450
  614MOL0     C80942   3.059   1.446   7.800 -0.1844  0.4610 -0.8701
  614MOL0     C80943   2.975   1.542   7.866  0.4670 -0.4780 -0.1356
  614MOL0     C80944   2.959   1.680   7.815  0.0323  0.4433 -0.2540
  614MOL0     C80945   2.867   1.776   7.878  0.7112  0.1303  0.2614
  614MOL0     O80946   2.856   1.905   7.828 -0.1724 -0.3251  0.5889
  614MOL0     C80947   2.793   2.003   7.898  0.7728  0.0915  1.0794
  614MOL0     C80948   2.667   1.986   7.953 -0.5385  0.2751  0.5374
  614MOL0     C80949   2.608   2.084   8.035 -0.6438 -0.1517  0.6119
  614MOL0     C80950   2.688   2.199   8.065 -0.5360  0.8425 -0.0278
  614MOL0     O80951   2.630   2.300   8.142 -0.3025  0.4879  0.6331
  614MOL0     C80952   2.678   2.307   8.276  0.0186  0.0066 -0.4607
  614MOL0     C80953   2.686   2.435   8.346 -0.4920  0.3444 -0.0317
  614MOL0     C80954   2.549   2.487   8.382  0.6196 -0.2839 -0.1272
  614MOL0     C80955   2.478   2.427   8.498 -0.6222 -0.4939  0.0733
  614MOL0     C80956   2.363   2.515   8.546 -0.2940 -0.6537  0.8425
  614MOL0     C80957   2.224   2.465   8.511  0.4914 -0.1448 -0.3953
  614MOL0     C80958   2.107   2.554   8.574 -0.8231 -0.1024  0.6409
  614MOL0     C80959   2.102   2.510   8.722 -0.8363  0.3359 -0.9821
  614MOL0    Cl80960   2.054   2.338   8.732 -0.6850 -0.0215  0.4466
  614MOL0     C80961   2.816   2.218   8.008  0.3807 -0.2061 -1.3815
  614MOL0     C80962   2.867   2.119   7.925 -0.1185  0.2722  0.5242
  614MOL0     O80963   2.803   1.737   7.980 -0.0436 -0.9752  0.1541
  614MOL0     C80964   3.022   1.715   7.693  0.6019 -0.3021 -0.2174
  614MOL0     C80965   3.114   1.626   7.637 -0.5109  1.4047  0.2792
  614MOL0     N80966   3.572   0.874   7.691 -0.3100  0.2308  0.2285
  614MOL0     N80967   3.688   0.833   7.706 -0.5818 -0.7710 -0.2601
  614MOL0     C80968   4.525   1.140   8.454 -0.3027 -0.3359 -0.1756
  614MOL0     C80969   4.583   1.264   8.470  0.2314 -0.3066 -0.5971
  614MOL0     C80970   4.652   1.730   8.526  0.6933  0.6258 -0.2965
  614MOL0     C80971   4.614   1.848   8.469 -0.6291 -0.4525  0.3235
  614MOL0     C80972   4.702   1.969   8.486  0.2915  0.4968  0.7838
  614MOL0     C80973   4.811   1.964   8.581  0.2694  0.4357 -0.8763
  614MOL0     O80974   4.881   2.066   8.637 -0.0419 -1.1678  0.1455
  614MOL0     C80975   4.816   2.197   8.643 -0.0234 -0.2434 -0.8331
  614MOL0     C80976   4.902   2.290   8.736  0.4885  0.3162 -0.9949
  614MOL0     C80977   4.951   2.222   8.861  0.6420 -0.5049  0.2690
  614MOL0     C80978   5.024   2.328   8.939 -1.1718 -0.9914  0.3755
  614MOL0     C80979   4.947   2.451   8.978 -0.3610 -0.3564  0.6013
  614MOL0     C80980   4.905   2.556   9.024 -0.4568  0.6645 -0.2500
  614MOL0     C80981   4.854   1.841   8.621 -1.0151  0.7199 -0.3942
  614MOL0     C80982   4.777   1.724   8.600  0.3709  0.9837  0.8866
  614MOL0     H80983   4.324   1.434   8.618 -0.8112  1.2205  0.2355
  614MOL0     H80984   4.214   1.242   8.552 -0.1743 -0.4761  2.0836
  614MOL0     H80985   4.419   0.928   8.295 -1.0086 -1.1875 -0.3756
  614MOL0     H80986   4.357   1.082   8.237 -0.2881 -0.6276 -1.2664
  614MOL0     H80987   4.123   0.989   8.255  0.3557  1.3552 -4.1247
  614MOL0     H80988   4.189   0.830   8.299  0.8565  0.1822  1.2039
  614MOL0     H80989   4.300   0.823   8.075  2.3118  2.0681 -0.9545
  614MOL0     H80990   4.268   0.984   8.044 -0.4567  1.3766  0.9968
  614MOL0     H80991   4.156   0.821   7.928  1.3986  4.0588 -1.0431
  614MOL0     H80992   4.059   0.770   8.073 -0.5097 -1.8288 -0.9798
  614MOL0     H80993   4.070   1.069   7.995  2.7115 -2.4635 -2.1908
  614MOL0     H80994   3.950   1.007   8.081  1.0030  2.4218 -0.9757
  614MOL0     H80995   3.852   1.048   7.871 -1.0729 -2.1753  0.7219
  614MOL0     H80996   3.871   0.865   7.878  1.4601 -1.3342  0.6680
  614MOL0     H80997   3.984   1.075   7.686 -0.5706 -1.1183 -1.6120
  614MOL0     H80998   4.099   0.950   7.746 -1.1835 -2.2559 -1.3556
  614MOL0     H80999   3.935   0.802   7.609 -1.1273 -0.7821 -0.4871
  614MOL0     H81000   3.933   0.953   7.523 -0.2984 -0.9006 -0.4492
  614MOL0     H81001   3.731   1.102   7.521 -2.4076  0.7981 -1.8355
  614MOL0     H81002   3.391   0.963   7.530  0.5015 -0.1195 -0.4303
  614MOL0     H81003   3.469   1.095   7.460 -0.4321 -1.6785 -2.0514
  614MOL0     H81004   3.402   1.100   7.765 -0.1429 -0.4006 -0.7993
  614MOL0     H81005   3.275   1.142   7.661 -0.7613  1.2180 -1.9998
  614MOL0     H81006   3.540   1.296   7.697 -0.8846 -3.4570  2.9957
  614MOL0     H81007   3.434   1.323   7.552 -1.8317  0.3784  0.5396
  614MOL0     H81008   3.388   1.486   7.734 -0.6634 -0.1663  1.0550
  614MOL0     H81009   3.311   1.350   7.816  2.8438  1.3673  1.2341
  614MOL0     H81010   3.089   1.348   7.835  1.9607  1.3633  0.0209
  614MOL0     H81011   2.925   1.511   7.957 -0.4649 -1.6807 -1.0118
  614MOL0     H81012   2.598   1.904   7.934 -0.2593 -0.1257  1.2295
  614MOL0     H81013   2.504   2.082   8.064 -1.3171 -1.0860 -1.6746
  614MOL0     H81014   2.775   2.258   8.277  0.0340 -0.1213  3.3734
  614MOL0     H81015   2.616   2.239   8.335 -3.1277  1.2289 -2.0474
  614MOL0     H81016   2.736   2.515   8.290  0.4764  2.0365  3.0022
  614MOL0     H81017   2.741   2.417   8.438 -0.3473 -0.4300 -0.2659
  614MOL0     H81018   2.476   2.458   8.306 -1.3032 -1.7800  2.1147
  614MOL0     H81019   2.555   2.595   8.397 -0.4126 -0.2636  0.2374
  614MOL0     H81020   2.434   2.334   8.461  0.1650 -0.1558 -1.8369
  614MOL0     H81021   2.549   2.401   8.577  1.6281 -0.8001 -1.9319
  614MOL0     H81022   2.363   2.615   8.502 -3.3238 -2.5608 -4.5294
  614MOL0     H81023   2.369   2.514   8.655 -1.8611  0.0047  0.9664
  614MOL0     H81024   2.209   2.360   8.534 -1.7585  0.2735  0.3047
  614MOL0     H81025   2.198   2.473   8.405 -5.4713 -2.2998  0.5455
  614MOL0     H81026   2.138   2.659   8.577  0.1267 -0.3863  2.4268
  614MOL0     H81027   2.019   2.532   8.512 -0.0254  2.5770 -1.6445
  614MOL0     H81028   2.036   2.579   8.775 -1.3183  1.4946 -3.0192
  614MOL0     H81029   2.199   2.529   8.770  1.5511 -1.3187 -4.6954
  614MOL0     H81030   2.871   2.306   8.040 -2.6925  1.3711  0.0579
  614MOL0     H81031   2.972   2.125   7.897 -0.0350 -3.7174 -0.6312
  614MOL0     H81032   3.018   1.815   7.652  1.6499 -0.2888 -0.3148
  614MOL0     H81033   3.161   1.652   7.543 -0.6254 -2.7813 -1.1305
  614MOL0     H81034   4.588   1.057   8.424  1.6008  0.9698  0.0390
  614MOL0     H81035   4.689   1.285   8.460  0.1272  1.7607  1.6498
  614MOL0     H81036   4.537   1.850   8.392 -0.0704  1.6282 -0.2458
  614MOL0     H81037   4.674   2.067   8.447  1.5924  1.4783  2.2325
  614MOL0     H81038   4.719   2.194   8.694 -1.0639  2.5856 -2.4092
  614MOL0     H81039   4.797   2.238   8.544 -1.6292 -3.0785 -1.7905
  614MOL0     H81040   4.979   2.342   8.679 -0.1738  1.3246 -1.0010
  614MOL0     H81041   4.834   2.368   8.772  0.4624  0.8282 -2.1308
  614MOL0     H81042   5.015   2.137   8.836 -0.3974 -1.0546 -0.5601
  614MOL0     H81043   4.863   2.197   8.920  2.4780 -2.8655  2.2364
  614MOL0     H81044   5.083   2.284   9.021 -0.3781 -1.2279 -0.3079
  614MOL0     H81045   5.106   2.363   8.876 -2.1618  1.7860  0.4746
  614MOL0     H81046   4.850   2.641   9.057  2.6837  3.2099 -1.0393
  614MOL0     H81047   4.948   1.839   8.676 -0.2020  0.3996 -1.7258
  614MOL0     H81048   4.814   1.628   8.637  1.8412  1.6310  1.1666
  615MOL0     O81049   9.408   5.975   0.373  0.0766 -0.1078  0.2146
  615MOL0     C81050   9.310   5.903   0.389  0.1650  0.0115 -0.7050
  615MOL0     O81051   9.295   5.796   0.472 -0.3858 -0.1460  0.2778
  615MOL0     C81052   9.396   5.739   0.548 -0.7146 -0.2639 -0.2683
  615MOL0     C81053   9.357   5.649   0.654 -0.3463 -0.0382  0.1446
  615MOL0     C81054   9.460   5.581   0.734  1.0849  0.3080  0.5705
  615MOL0     C81055   9.597   5.592   0.695  0.3400 -0.5337 -0.9131
  615MOL0     O81056   9.703   5.540   0.762 -0.2015  0.6972 -0.4983
  615MOL0     C81057   9.678   5.461   0.880  0.6913 -0.5538 -0.5905
  615MOL0     C81058   9.820   5.422   0.929 -0.2537  0.2410 -0.2878
  615MOL0     C81059   9.791   5.326   1.042 -1.1510  0.0366  0.5315
  615MOL0     C81060   9.912   5.247   1.090 -0.5495 -0.2913  0.9502
  615MOL0     C81061   9.878   5.149   1.198  0.1475  0.6913 -0.1188
  615MOL0     C81062   9.746   5.077   1.190 -0.7895 -0.0947  0.4408
  615MOL0     C81063   9.754   4.955   1.282 -0.0997  0.1640  0.5778
  615MOL0     C81064   9.605   4.906   1.309 -0.2360 -1.1644 -0.1709
  615MOL0     N81065   9.534   4.867   1.187 -0.1204  0.6444 -0.2099
  615MOL0     C81066   9.556   4.761   1.099 -0.9839  0.4586  0.2367
  615MOL0     C81067   9.443   4.770   1.012  1.0624  0.2344  0.1037
  615MOL0     C81068   9.418   4.678   0.898 -0.0633  0.2562  0.8491
  615MOL0     C81069   9.280   4.603   0.934 -0.3883 -0.1760  0.2435
  615MOL0     C81070   9.219   4.542   0.808 -0.3284 -0.3166  0.1847
  615MOL0     C81071   9.114   4.441   0.849 -1.0899  0.5520  0.4749
  615MOL0     O81072   9.039   4.381   0.739  0.5920 -0.4777 -0.0930
  615MOL0     C81073   9.107   4.354   0.626  0.2647 -0.4755  0.7352
  615MOL0     C81074   9.185   4.239   0.620  0.9927  0.5110  0.8477
  615MOL0     C81075   9.257   4.209   0.501 -0.3270  0.4462  0.4240
  615MOL0     C81076   9.244   4.291   0.387  0.3483  0.8531  0.1963
  615MOL0     C81077   9.331   4.266   0.263 -0.3604  0.2266  0.0121
  615MOL0     O81078   9.297   4.315   0.135  0.2758  0.5330 -0.9554
  615MOL0     C81079   9.387   4.293   0.035 -0.3219 -0.0254  0.3022
  615MOL0     C81080   9.484   4.393   0.001 -0.1809  0.1350 -0.2068
  615MOL0     C81081   9.588   4.364  -0.080 -0.0515  1.0910  0.6667
  615MOL0     C81082   9.578   4.240  -0.155  0.3782  0.0092  0.5760
  615MOL0     O81083   9.678   4.217  -0.237 -0.1625  0.4292  1.0691
  615MOL0     C81084   9.708   4.090  -0.291  0.0399 -0.0470 -0.0373
  615MOL0     C81085   9.858   4.095  -0.336  0.4798  0.1237  1.4420
  615MOL0     C81086   9.873   4.220  -0.429  0.4855 -0.3087  0.4672
  615MOL0     C81087  10.019   4.207  -0.485  0.4480  0.5208 -0.2965
  615MOL0     C81088  10.042   4.332  -0.576 -0.7529 -0.5987 -0.3817
  615MOL0     C81089  10.192   4.364  -0.586 -0.6174 -0.0429 -0.0914
  615MOL0     C81090  10.228   4.511  -0.629  0.0094 -0.0679  0.6002
  615MOL0     C81091  10.380   4.524  -0.634 -1.0203  0.2332  1.0321
  615MOL0    Cl81092  10.448   4.695  -0.646  0.5139 -0.3628 -0.2595
  615MOL0     C81093   9.478   4.149  -0.122  0.0714  0.5146  0.4387
  615MOL0     C81094   9.385   4.172  -0.022  0.2634 -0.2915  0.2489
  615MOL0     O81095   9.435   4.209   0.291  1.4428  0.6138 -0.5054
  615MOL0     C81096   9.154   4.400   0.389 -0.4297 -0.6067 -0.4109
  615MOL0     C81097   9.084   4.426   0.506 -0.9153  0.0757  0.2441
  615MOL0     N81098   9.370   4.880   1.050  1.0830  0.6727 -0.2910
  615MOL0     N81099   9.422   4.933   1.149  0.1097 -0.4810  0.6698
  615MOL0     C81100   9.630   5.671   0.578 -0.6730  0.4229 -0.3535
  615MOL0     C81101   9.530   5.740   0.501 -0.0854  1.3949  0.4615
  615MOL0     C81102   9.183   5.959   0.330 -0.3089 -0.3336 -1.1376
  615MOL0     C81103   9.052   5.914   0.379 -1.0691 -0.1215  1.2175
  615MOL0     C81104   8.935   5.987   0.328  0.0821 -0.4258  0.4472
  615MOL0     C81105   8.944   6.071   0.217 -0.6744 -0.2636  0.4098
  615MOL0     O81106   8.833   6.133   0.162 -0.1323  0.3360  0.4745
  615MOL0     C81107   8.711   6.097   0.222 -0.1611  0.9501  1.2870
  615MOL0     C81108   8.665   5.947   0.193 -0.1006 -1.3777 -0.8463
  615MOL0     C81109   8.627   5.938   0.042  0.4981  0.2753 -0.1719
  615MOL0     C81110   8.603   5.800   0.002 -0.5481 -0.2553 -0.5358
  615MOL0     C81111   8.515   5.788  -0.110  0.5913  0.6972  0.2049
  615MOL0     C81112   8.441   5.761  -0.202  0.5070  0.6745 -0.7309
  615MOL0     C81113   9.076   6.100   0.164  0.4021  0.4876  0.0981
  615MOL0     C81114   9.185   6.061   0.232  0.3252  0.4636 -0.1864
  615MOL0     H81115   9.252   5.643   0.681  0.1240 -1.1725  1.9159
  615MOL0     H81116   9.425   5.519   0.817  1.2484  1.2247  1.3353
  615MOL0     H81117   9.612   5.378   0.855 -1.1587  0.3242  1.0820
  615MOL0     H81118   9.624   5.524   0.952 -3.4825 -1.8371 -2.3115
  615MOL0     H81119   9.874   5.511   0.960 -0.7428  1.2957 -2.2715
  615MOL0     H81120   9.870   5.366   0.849 -0.0707  0.8371 -0.5994
  615MOL0     H81121   9.723   5.252   0.999 -1.5305  0.4918  0.3392
  615MOL0     H81122   9.738   5.368   1.128 -1.7248 -2.2398  1.3609
  615MOL0     H81123   9.949   5.197   1.000 -1.4579  0.0025  0.4005
  615MOL0     H81124  10.000   5.293   1.136  0.5110 -2.4633  1.2233
  615MOL0     H81125   9.891   5.203   1.292  0.8913  1.4184 -0.6182
  615MOL0     H81126   9.954   5.070   1.198 -1.8463 -1.3531 -0.0890
  615MOL0     H81127   9.721   5.041   1.090  0.6594  2.5522 -0.9812
  615MOL0     H81128   9.670   5.153   1.207 -0.1518  0.5049  0.6562
  615MOL0     H81129   9.806   4.879   1.224  0.5940  0.5648  0.6666
  615MOL0     H81130   9.807   4.976   1.376 -2.1477  2.6730  1.2977
  615MOL0     H81131   9.559   4.990   1.362 -2.1101 -2.1028 -0.2429
  615MOL0     H81132   9.597   4.821   1.377  1.2957 -1.3376 -0.1588
  615MOL0     H81133   9.640   4.693   1.092 -1.4694 -0.0311 -1.3801
  615MOL0     H81134   9.495   4.604   0.874 -0.5207  0.6614 -2.2767
  615MOL0     H81135   9.412   4.728   0.802 -1.3818 -2.5130 -0.6376
  615MOL0     H81136   9.215   4.671   0.990  0.7136  0.3856  0.8753
  615MOL0     H81137   9.295   4.525   1.010 -1.5217  0.9303  1.6611
  615MOL0     H81138   9.177   4.630   0.759  0.0336 -0.3116 -0.1145
  615MOL0     H81139   9.302   4.497   0.753  0.1567 -0.3754  0.9478
  615MOL0     H81140   9.047   4.483   0.924 -1.1165  1.8569 -0.2567
  615MOL0     H81141   9.168   4.363   0.905 -1.9801 -0.8305 -0.5116
  615MOL0     H81142   9.191   4.182   0.712 -0.7586  0.0706  0.7250
  615MOL0     H81143   9.325   4.125   0.489 -1.1657 -0.4713  1.7689
  615MOL0     H81144   9.475   4.481   0.064  2.9940  1.3249 -1.2379
  615MOL0     H81145   9.669   4.432  -0.102  2.4753 -1.2052  2.2026
  615MOL0     H81146   9.634   4.065  -0.368  0.2432  1.8469 -0.9039
  615MOL0     H81147   9.700   4.012  -0.214  0.8913  0.8109  0.9409
  615MOL0     H81148   9.882   3.999  -0.383 -2.9536 -0.4450  0.5876
  615MOL0     H81149   9.909   4.113  -0.241 -3.8212 -1.2567  4.3285
  615MOL0     H81150   9.867   4.315  -0.374  0.0329 -1.5750  2.7289
  615MOL0     H81151   9.801   4.233  -0.510  0.3292 -2.0239  0.3081
  615MOL0     H81152  10.084   4.199  -0.397 -0.5293 -1.3533  0.3080
  615MOL0     H81153  10.039   4.116  -0.542  1.1375  0.3411  0.2226
  615MOL0     H81154   9.991   4.421  -0.538 -1.6323 -2.3044  2.7161
  615MOL0     H81155  10.002   4.318  -0.677  2.1415  0.9413 -1.8959
  615MOL0     H81156  10.224   4.287  -0.658 -0.3762  1.1787 -1.3325
  615MOL0     H81157  10.250   4.331  -0.499  0.7239 -1.4686 -1.4490
  615MOL0     H81158  10.206   4.516  -0.737  2.3379  0.2133  0.0888
  615MOL0     H81159  10.179   4.582  -0.562 -1.2107  0.3563 -0.6750
  615MOL0     H81160  10.413   4.459  -0.716  0.8054  1.9183  0.3551
  615MOL0     H81161  10.429   4.482  -0.545  2.1076 -1.1668 -1.1455
  615MOL0     H81162   9.484   4.050  -0.166  0.7565  1.0538 -0.7324
  615MOL0     H81163   9.312   4.098   0.010  2.0911 -1.5585  1.7446
  615MOL0     H81164   9.136   4.462   0.302 -0.6814  0.7122  0.5397
  615MOL0     H81165   9.009   4.504   0.508 -2.0205 -0.9110  2.9867
  615MOL0     H81166   9.734   5.691   0.554 -0.7517  2.4247  0.6824
  615MOL0     H81167   9.566   5.795   0.414  2.5070 -2.7416 -1.4181
  615MOL0     H81168   9.049   5.833   0.452 -1.2365  0.0212  1.3708
  615MOL0     H81169   8.856   5.954   0.394  2.5286 -1.7278  2.9605
  615MOL0     H81170   8.640   6.164   0.173  0.5636  0.5205 -0.4364
  615MOL0     H81171   8.705   6.123   0.328  2.6437 -1.3687  2.1515
  615MOL0     H81172   8.732   5.868   0.227  4.9834  3.1052  0.9866
  615MOL0     H81173   8.570   5.933   0.245 -0.8616 -1.1758 -2.1375
  615MOL0     H81174   8.705   5.980  -0.024 -3.0151  3.3928 -2.7793
  615MOL0     H81175   8.542   6.007   0.035  0.5039  0.2146 -0.9110
  615MOL0     H81176   8.696   5.760  -0.040 -1.0088 -1.6227 -0.2964
  615MOL0     H81177   8.570   5.742   0.089  2.2700  0.7709  1.3456
  615MOL0     H81178   8.370   5.721  -0.270  0.6418  1.1737 -1.1741
  615MOL0     H81179   9.095   6.168   0.082 -1.1501 -0.9561 -1.5501
  615MOL0     H81180   9.280   6.108   0.208  3.3395 -3.8501  1.9044
  616MOL0     O81181  11.380   9.122   8.435 -0.2003  0.0309  1.2164
  616MOL0     C81182  11.471   9.081   8.359  0.2595 -0.2774  0.2723
  616MOL0     O81183  11.451   9.017   8.249  1.1937  0.5120  0.2053
  616MOL0     C81184  11.328   9.032   8.185  0.2058  0.5820  0.4549
  616MOL0     C81185  11.313   9.125   8.085 -0.6498 -0.1347  0.5905
  616MOL0     C81186  11.201   9.134   8.001  0.6479  0.6996 -0.0964
  616MOL0     C81187  11.093   9.054   8.028  0.7015  0.4783 -0.1147
  616MOL0     O81188  10.979   9.075   7.946 -0.4907  0.6780  0.6319
  616MOL0     C81189  10.902   8.963   7.906  0.1402 -0.2312  0.3605
  616MOL0     C81190  10.805   9.000   7.801 -0.3148  0.1080 -0.8608
  616MOL0     C81191  10.852   8.988   7.661 -0.2040  0.3025 -0.1297
  616MOL0     C81192  10.753   9.054   7.573  0.2930  0.0321 -0.9501
  616MOL0     C81193  10.772   9.001   7.429  0.9944 -0.0261  0.0752
  616MOL0     C81194  10.882   9.073   7.354  0.0400  0.2983 -0.7925
  616MOL0     C81195  10.895   9.003   7.216 -0.3520  0.1775  0.1878
  616MOL0     C81196  10.982   9.082   7.131  1.0220 -0.4507  0.1016
  616MOL0     N81197  10.905   9.188   7.062 -0.0025 -1.7012  0.0927
  616MOL0     C81198  10.947   9.318   7.067  0.2111 -0.0915  0.8872
  616MOL0     C81199  10.890   9.376   6.957 -0.1493  1.0648  0.8048
  616MOL0     C81200  10.890   9.523   6.913  0.9407  0.5169 -0.2974
  616MOL0     C81201  11.027   9.586   6.936 -0.1685  0.5009 -0.3245
  616MOL0     C81202  11.018   9.730   6.961 -0.3081  0.0554  0.4608
  616MOL0     C81203  11.157   9.802   6.951 -0.4607  0.4402  0.6977
  616MOL0     O81204  11.252   9.732   7.024 -0.6147  0.5551  1.2509
  616MOL0     C81205  11.261   9.747   7.161 -0.7538  0.2796  0.1251
  616MOL0     C81206  11.185   9.853   7.229  0.4449  0.4487  0.0377
  616MOL0     C81207  11.199   9.885   7.361  1.1110 -0.1658 -0.7354
  616MOL0     C81208  11.280   9.805   7.442  1.0248 -0.8347 -0.5335
  616MOL0     C81209  11.282   9.815   7.590  0.0062  0.5525 -0.9011
  616MOL0     O81210  11.211   9.929   7.648 -0.3238  0.4295 -0.3251
  616MOL0     C81211  11.194   9.918   7.785 -0.1022  0.5991  0.0212
  616MOL0     C81212  11.306   9.946   7.861  1.5317 -0.3617  0.6045
  616MOL0     C81213  11.291   9.960   8.000 -0.2365 -0.3251 -0.3706
  616MOL0     C81214  11.174   9.934   8.066  0.1722 -0.5527 -0.7211
  616MOL0     O81215  11.172   9.951   8.209  0.1666  0.4136  0.4863
  616MOL0     C81216  11.060   9.894   8.276  1.0039  0.6024  0.3221
  616MOL0     C81217  11.064   9.901   8.429  0.5451  0.1494  0.7447
  616MOL0     C81218  11.138   9.781   8.498  0.1849 -0.0997  1.0607
  616MOL0     C81219  11.087   9.641   8.466  0.0870 -0.0083  0.1323
  616MOL0     C81220  11.166   9.535   8.542 -0.4964  0.9636  0.4530
  616MOL0     C81221  11.128   9.516   8.687  0.2964 -0.4577 -0.2259
  616MOL0     C81222  11.228   9.424   8.757 -0.3674 -0.5510 -0.4312
  616MOL0     C81223  11.273   9.297   8.690 -0.7684  0.3545 -0.3847
  616MOL0    Cl81224  11.376   9.206   8.808 -0.1994 -0.0890 -0.4311
  616MOL0     C81225  11.058   9.917   7.984 -0.5607  0.6617 -0.0857
  616MOL0     C81226  11.066   9.906   7.848  0.6682  0.0926  0.7825
  616MOL0     O81227  11.344   9.731   7.657  0.1980  0.8347 -0.5014
  616MOL0     C81228  11.354   9.701   7.378  1.3608  0.0657 -0.9452
  616MOL0     C81229  11.357   9.678   7.241 -0.3329  0.2425 -0.5867
  616MOL0     N81230  10.825   9.279   6.883 -0.8336  0.2787  0.3848
  616MOL0     N81231  10.843   9.166   6.944  0.7279  0.5219 -0.7385
  616MOL0     C81232  11.096   8.961   8.134 -0.6608 -0.8777 -0.0374
  616MOL0     C81233  11.217   8.953   8.205  0.2902 -0.7521 -0.2979
  616MOL0     C81234  11.623   9.116   8.392  1.2258 -0.7949  0.5440
  616MOL0     C81235  11.716   9.075   8.300 -0.5087  0.7206  0.6905
  616MOL0     C81236  11.857   9.095   8.334 -0.3767 -0.1684 -0.2582
  616MOL0     C81237  11.895   9.151   8.458 -0.6250 -0.9270 -0.2189
  616MOL0     O81238  12.027   9.144   8.496 -0.3002  0.4753  0.4725
  616MOL0     C81239  12.057   9.164   8.630  0.3861 -1.4628 -0.0448
  616MOL0     C81240  12.196   9.145   8.667 -0.0007  0.2697  0.1959
  616MOL0     C81241  12.285   9.267   8.644  0.7348 -0.0786 -0.3587
  616MOL0     C81242  12.422   9.236   8.700 -0.7453  0.5028 -0.3602
  616MOL0     C81243  12.425   9.256   8.851 -0.4802  0.3746 -0.0348
  616MOL0     C81244  12.425   9.259   8.971  0.0881  0.7092  0.3020
  616MOL0     C81245  11.798   9.209   8.540  0.7653  0.4311 -0.1588
  616MOL0     C81246  11.661   9.190   8.506 -1.1934 -0.3386  0.3729
  616MOL0     H81247  11.398   9.192   8.072  0.6665 -1.2177  2.8305
  616MOL0     H81248  11.185   9.202   7.919 -4.1301  0.6081  0.4688
  616MOL0     H81249  10.846   8.933   7.995 -3.0418  0.3216 -1.3388
  616MOL0     H81250  10.959   8.883   7.857  0.0844 -1.0725  1.6066
  616MOL0     H81251  10.767   9.098   7.832  2.1455  0.5838  0.9047
  616MOL0     H81252  10.719   8.935   7.823 -1.7332  3.0736  3.9046
  616MOL0     H81253  10.863   8.883   7.634 -3.4874 -0.5885  1.4358
  616MOL0     H81254  10.955   9.024   7.664  0.2016 -0.7559 -0.8613
  616MOL0     H81255  10.649   9.035   7.602  0.5550  2.0448  1.7275
  616MOL0     H81256  10.769   9.162   7.583  4.3186 -0.3745 -1.4763
  616MOL0     H81257  10.672   9.021   7.391 -0.3149 -1.3785  2.5671
  616MOL0     H81258  10.795   8.894   7.425  2.6460  0.1489  2.7172
  616MOL0     H81259  10.979   9.045   7.396 -2.0072 -2.1323  2.8892
  616MOL0     H81260  10.863   9.179   7.342  0.2959  0.2924 -1.2690
  616MOL0     H81261  10.931   8.899   7.217 -0.7320 -0.0446 -2.2568
  616MOL0     H81262  10.793   9.000   7.176 -0.7788 -2.4549  1.2405
  616MOL0     H81263  10.999   9.017   7.045 -2.6727 -0.3777 -0.8438
  616MOL0     H81264  11.069   9.121   7.186  0.8858  0.3013 -0.1992
  616MOL0     H81265  11.010   9.358   7.147 -0.6360 -0.2347  1.6426
  616MOL0     H81266  10.822   9.573   6.982  0.1732 -2.4209  1.2281
  616MOL0     H81267  10.848   9.537   6.813 -0.0611 -0.5868 -0.0430
  616MOL0     H81268  11.094   9.563   6.853  0.5230 -3.0409  1.0443
  616MOL0     H81269  11.069   9.540   7.027  1.6385  1.3378 -0.6771
  616MOL0     H81270  10.946   9.765   6.887 -1.7781  0.6373  2.0951
  616MOL0     H81271  10.976   9.746   7.061 -2.2735 -1.8443  0.0188
  616MOL0     H81272  11.143   9.909   6.969 -0.8718  0.5604 -0.3157
  616MOL0     H81273  11.188   9.802   6.846 -0.1794  0.8147  0.7781
  616MOL0     H81274  11.126   9.926   7.173  0.9226  1.3294  0.6478
  616MOL0     H81275  11.146   9.968   7.406  2.2447  0.1424  0.1065
  616MOL0     H81276  11.397   9.961   7.803  0.4557 -1.7451 -1.5624
  616MOL0     H81277  11.384   9.991   8.046 -0.9487  1.3097  0.0423
  616MOL0     H81278  11.030   9.797   8.237 -3.2647  1.5471  0.7466
  616MOL0     H81279  10.979   9.964   8.254  3.4151  3.2839 -0.8174
  616MOL0     H81280  10.960   9.883   8.461  0.8913 -0.6960  1.4564
  616MOL0     H81281  11.097  10.000   8.463 -0.1283  1.1757 -1.4097
  616MOL0     H81282  11.142   9.779   8.607 -1.2657 -1.7848  1.1264
  616MOL0     H81283  11.240   9.798   8.462 -0.4643  1.2037 -0.2936
  616MOL0     H81284  10.981   9.627   8.489  0.4991  1.0246  3.0526
  616MOL0     H81285  11.099   9.632   8.358 -0.7681  2.1807 -0.1986
  616MOL0     H81286  11.274   9.551   8.535 -0.3832 -0.1812 -0.7708
  616MOL0     H81287  11.148   9.440   8.491  2.2906  0.6520 -0.1197
  616MOL0     H81288  11.026   9.475   8.685  0.0704  0.1071 -0.5986
  616MOL0     H81289  11.116   9.614   8.735 -0.8360  0.9974 -3.1932
  616MOL0     H81290  11.315   9.490   8.764 -1.3843  0.7676  0.1691
  616MOL0     H81291  11.192   9.406   8.858  1.5557  0.3023  0.4725
  616MOL0     H81292  11.336   9.318   8.603  0.5346 -0.3759  0.3644
  616MOL0     H81293  11.188   9.232   8.666  0.4198 -2.1888  1.7347
  616MOL0     H81294  10.961   9.899   8.028 -1.2639 -0.8711 -2.0883
  616MOL0     H81295  10.996   9.873   7.772  3.1163 -1.9900 -0.7752
  616MOL0     H81296  11.418   9.636   7.437 -1.1594  0.5331  2.6631
  616MOL0     H81297  11.412   9.595   7.198 -1.3825 -0.5824 -0.3788
  616MOL0     H81298  11.012   8.895   8.151  1.2700 -3.1403  1.2673
  616MOL0     H81299  11.229   8.876   8.280  1.2528 -1.4474 -1.1441
  616MOL0     H81300  11.678   9.039   8.205 -1.3272  1.4995  0.7087
  616MOL0     H81301  11.938   9.052   8.277  1.4974  0.8174  1.5181
  616MOL0     H81302  11.997   9.094   8.689  1.5346 -2.5157 -0.0960
  616MOL0     H81303  12.030   9.262   8.670  3.2149 -0.6907  0.1842
  616MOL0     H81304  12.198   9.104   8.769  3.8632 -3.0954 -0.9488
  616MOL0     H81305  12.233   9.063   8.604 -2.6306 -0.3890 -0.6214
  616MOL0     H81306  12.226   9.349   8.684  0.5786  0.2064 -1.1554
  616MOL0     H81307  12.292   9.285   8.536  0.6410  3.4660  0.1350
  616MOL0     H81308  12.437   9.131   8.675 -2.3432  0.7508 -2.7368
  616MOL0     H81309  12.499   9.301   8.657  0.9617 -0.7742  0.6709
  616MOL0     H81310  12.417   9.254   9.077 -0.5146 -0.2390  0.2203
  616MOL0     H81311  11.823   9.273   8.624 -3.8660  2.5331 -0.0865
  616MOL0     H81312  11.575   9.229   8.559 -1.6572 -0.3392 -0.3698
  617MOL0     O81313   8.874   9.817  10.606  0.0105 -0.3185  0.9499
  617MOL0     C81314   8.961   9.905  10.616  0.5461 -0.7442 -0.6742
  617MOL0     O81315   8.935  10.034  10.626 -0.0132 -0.4676 -0.4884
  617MOL0     C81316   8.806  10.079  10.637 -0.0434 -0.1428  1.0444
  617MOL0     C81317   8.763  10.170  10.735 -0.1827 -0.4760 -0.4986
  617MOL0     C81318   8.645  10.240  10.726  0.3055  0.0402  0.6336
  617MOL0     C81319   8.556  10.229  10.613  0.2428  0.4113 -0.7255
  617MOL0     O81320   8.449  10.323  10.619 -0.4957 -0.3917 -0.6977
  617MOL0     C81321   8.330  10.275  10.561 -0.8439 -0.0168  0.0599
  617MOL0     C81322   8.225  10.382  10.561  0.2939  0.1943 -0.3991
  617MOL0     C81323   8.091  10.311  10.577 -0.5532  0.9083  0.1831
  617MOL0     C81324   8.055  10.242  10.440 -0.3079 -0.6785  0.4663
  617MOL0     C81325   7.911  10.216  10.415  0.0873  1.0351  0.8774
  617MOL0     C81326   7.825  10.341  10.384 -0.6876 -0.1764  0.0917
  617MOL0     C81327   7.678  10.308  10.362 -0.4953 -0.9379 -0.4126
  617MOL0     C81328   7.614  10.448  10.321 -0.1786  0.3943 -0.4965
  617MOL0     N81329   7.475  10.446  10.275  0.4972  0.0529  0.1757
  617MOL0     C81330   7.369  10.375  10.314  0.8887  0.2706 -1.6221
  617MOL0     C81331   7.280  10.384  10.215  0.2470  1.1720 -0.2412
  617MOL0     C81332   7.151  10.305  10.194  0.9216 -0.3381  0.5256
  617MOL0     C81333   7.027  10.343  10.288 -1.4283  0.7414 -0.3563
  617MOL0     C81334   6.959  10.476  10.276  0.6100  0.4730 -0.0155
  617MOL0     C81335   6.896  10.490  10.144  0.2910  0.1586  0.3185
  617MOL0     O81336   6.845  10.624  10.130 -0.0506 -0.5593 -1.3215
  617MOL0     C81337   6.713  10.648  10.156 -0.3213 -0.0240  0.0054
  617MOL0     C81338   6.618  10.664  10.056  0.2224  0.1725 -0.7247
  617MOL0     C81339   6.486  10.700  10.091  0.0917  0.4587 -0.0885
  617MOL0     C81340   6.448  10.697  10.223  0.1945  0.0166 -0.0130
  617MOL0     C81341   6.300  10.730  10.251 -0.3915 -0.4907 -1.3861
  617MOL0     O81342   6.265  10.816  10.353 -0.8954  0.6915 -0.7297
  617MOL0     C81343   6.149  10.802  10.425  0.2305  1.2852  0.4550
  617MOL0     C81344   6.087  10.920  10.465 -0.1881 -0.1034 -0.3234
  617MOL0     C81345   5.970  10.920  10.540 -0.1996  0.3132 -0.2126
  617MOL0     C81346   5.907  10.803  10.582  0.1739 -0.2220 -0.0199
  617MOL0     O81347   5.787  10.822  10.650 -0.1055 -0.3295 -0.2737
  617MOL0     C81348   5.718  10.710  10.691 -0.1076 -1.1050 -0.0127
  617MOL0     C81349   5.568  10.726  10.729 -0.5039  0.0565 -0.5817
  617MOL0     C81350   5.502  10.598  10.774  0.0064  0.8420 -0.2800
  617MOL0     C81351   5.513  10.554  10.917  1.0221 -0.5477  0.8714
  617MOL0     C81352   5.437  10.418  10.944 -0.5280  0.3386  0.2094
  617MOL0     C81353   5.479  10.331  11.074  0.3174 -0.1388 -0.2282
  617MOL0     C81354   5.468  10.407  11.207  0.0952  0.3425  0.5038
  617MOL0     C81355   5.480  10.304  11.326 -0.1010  0.0757 -0.0280
  617MOL0    Cl81356   5.651  10.255  11.364  0.4971  0.3414  0.1438
  617MOL0     C81357   5.977  10.686  10.547  0.0749 -0.0461  0.2118
  617MOL0     C81358   6.087  10.683  10.466 -0.0158  0.0888 -0.4085
  617MOL0     O81359   6.220  10.677  10.180  0.4960 -1.4065  0.1896
  617MOL0     C81360   6.540  10.692  10.330  0.0218  0.9084  0.6980
  617MOL0     C81361   6.674  10.668  10.292  0.2105 -0.2866  0.3780
  617MOL0     N81362   7.324  10.472  10.121 -0.4838 -0.3056  0.1752
  617MOL0     N81363   7.441  10.517  10.164  0.2382  0.0134 -0.2628
  617MOL0     C81364   8.587  10.128  10.517  0.3473  1.1782  0.2282
  617MOL0     C81365   8.708  10.055  10.538 -1.1854  0.1672  0.7157
  617MOL0     C81366   9.096   9.853  10.625 -0.3595 -0.5135  0.4902
  617MOL0     C81367   9.205   9.940  10.676  0.1458 -0.0059 -0.7212
  617MOL0     C81368   9.338   9.893  10.687 -0.8145  1.5680  0.7195
  617MOL0     C81369   9.361   9.751  10.657 -0.6273 -0.0926  0.4238
  617MOL0     O81370   9.486   9.696  10.651 -0.3137  0.4233 -0.3906
  617MOL0     C81371   9.600   9.770  10.690 -0.1268 -0.6982 -0.4921
  617MOL0     C81372   9.729   9.691  10.684 -0.2267 -0.6076 -0.1165
  617MOL0     C81373   9.828   9.736  10.791 -0.4271 -0.0668 -0.2526
  617MOL0     C81374   9.772   9.739  10.934 -0.9654  0.2938 -0.3661
  617MOL0     C81375   9.768   9.865  10.998 -0.2117 -0.2947 -0.3531
  617MOL0     C81376   9.780   9.974  11.058 -0.6889  1.1909  0.1098
  617MOL0     C81377   9.262   9.682  10.593 -0.6204 -0.6374 -0.5628
  617MOL0     C81378   9.135   9.723  10.577  0.7235  0.0848 -0.3612
  617MOL0     H81379   8.824  10.176  10.825  0.0386  1.1088 -0.7182
  617MOL0     H81380   8.622  10.297  10.815 -0.9192 -1.4854  1.3287
  617MOL0     H81381   8.303  10.181  10.610  1.5204 -1.1942 -0.7484
  617MOL0     H81382   8.358  10.257  10.457  0.6391  0.7765  0.2818
  617MOL0     H81383   8.234  10.436  10.466 -2.0907  2.5695  0.6120
  617MOL0     H81384   8.254  10.448  10.643 -0.0116 -0.8744  0.5947
  617MOL0     H81385   8.017  10.390  10.590  1.8247  3.1498  0.8740
  617MOL0     H81386   8.081  10.240  10.660 -1.4876  0.0038 -0.6744
  617MOL0     H81387   8.094  10.297  10.354 -1.5624 -0.8189 -0.2122
  617MOL0     H81388   8.099  10.143  10.450 -1.2451 -0.8531  5.3120
  617MOL0     H81389   7.878  10.165  10.506 -1.5799 -0.2783 -0.3862
  617MOL0     H81390   7.907  10.141  10.335  1.1283 -0.4675  2.1755
  617MOL0     H81391   7.876  10.396  10.305 -0.3240  0.9741  1.0843
  617MOL0     H81392   7.818  10.399  10.477 -1.1760  0.9094 -0.6134
  617MOL0     H81393   7.679  10.248  10.270  0.4658 -0.3944 -0.7739
  617MOL0     H81394   7.614  10.258  10.435 -0.8344  2.4889  1.8299
  617MOL0     H81395   7.686  10.496  10.254  0.4688  0.0685 -0.0412
  617MOL0     H81396   7.607  10.506  10.413 -0.2383 -0.6119  0.1441
  617MOL0     H81397   7.363  10.305  10.397  2.4060 -0.9206 -2.4537
  617MOL0     H81398   7.177  10.205  10.231 -1.5079 -0.6161  1.6785
  617MOL0     H81399   7.130  10.300  10.087 -1.2395 -0.9613  0.9367
  617MOL0     H81400   7.075  10.352  10.386 -1.4627  1.6263 -0.4113
  617MOL0     H81401   6.960  10.258  10.301 -2.0918  1.3312  0.0870
  617MOL0     H81402   6.877  10.483  10.348 -0.5867 -2.2099 -0.9761
  617MOL0     H81403   7.030  10.556  10.296  0.2019  0.5872  1.0531
  617MOL0     H81404   6.812  10.426  10.117  0.6397 -0.3241  0.3556
  617MOL0     H81405   6.972  10.474  10.066  1.8556  1.5095  1.4683
  617MOL0     H81406   6.643  10.657   9.951 -0.3543 -0.6445 -0.8214
  617MOL0     H81407   6.412  10.720  10.015 -0.1393 -2.3897 -0.7296
  617MOL0     H81408   6.111  11.018  10.424 -1.9823  0.0401 -1.1267
  617MOL0     H81409   5.932  11.014  10.578  1.9864  0.6058  1.4388
  617MOL0     H81410   5.767  10.659  10.774  0.3561 -1.8909 -0.7653
  617MOL0     H81411   5.715  10.642  10.606 -2.5176  0.5913 -1.4433
  617MOL0     H81412   5.525  10.763  10.636  3.0119 -0.8398 -2.7540
  617MOL0     H81413   5.555  10.803  10.805  3.1225  0.3923 -0.1067
  617MOL0     H81414   5.518  10.515  10.704 -1.6473  0.8494 -0.6989
  617MOL0     H81415   5.395  10.616  10.760 -0.2941 -2.6543 -4.8590
  617MOL0     H81416   5.618  10.534  10.937  0.5128 -2.1872  2.1849
  617MOL0     H81417   5.463  10.626  10.983 -0.2939 -0.8578  0.2488
  617MOL0     H81418   5.459  10.352  10.860  0.8648 -0.1188  0.8999
  617MOL0     H81419   5.330  10.439  10.952 -1.0833 -1.4541 -1.6618
  617MOL0     H81420   5.583  10.298  11.059  0.7516  0.7435  0.7405
  617MOL0     H81421   5.424  10.236  11.073 -0.9478  0.5836 -0.3906
  617MOL0     H81422   5.558  10.468  11.197 -0.4317  0.7271 -2.9567
  617MOL0     H81423   5.373  10.461  11.211 -0.3311 -0.3188 -0.2986
  617MOL0     H81424   5.415  10.216  11.319 -1.4215  0.4702  4.4367
  617MOL0     H81425   5.447  10.362  11.413  0.2526  0.5382 -0.1947
  617MOL0     H81426   5.940  10.590  10.583 -0.7874  0.6560  1.2662
  617MOL0     H81427   6.104  10.586  10.422 -0.5308 -1.2500  2.1602
  617MOL0     H81428   6.503  10.710  10.431  0.9400 -0.2898  1.2726
  617MOL0     H81429   6.751  10.655  10.368  1.9975 -0.5520 -1.3899
  617MOL0     H81430   8.518  10.104  10.438  0.9913  1.4689 -0.4353
  617MOL0     H81431   8.718   9.976  10.465  1.6997  2.1932 -1.3069
  617MOL0     H81432   9.184  10.043  10.703  2.4530  0.1238  0.8324
  617MOL0     H81433   9.419   9.959  10.718  0.4363  0.2514  0.3398
  617MOL0     H81434   9.576   9.791  10.794  0.1037  0.7786 -0.7276
  617MOL0     H81435   9.617   9.861  10.632  4.7953 -2.3521 -2.2359
  617MOL0     H81436   9.715   9.583  10.690  0.5572 -0.6810  0.7237
  617MOL0     H81437   9.776   9.701  10.586  2.0776 -0.1602  0.9711
  617MOL0     H81438   9.858   9.838  10.763 -3.3613  1.0345  0.2744
  617MOL0     H81439   9.922   9.683  10.774  1.2428  3.2126 -2.4205
  617MOL0     H81440   9.674   9.690  10.939 -0.1817 -1.2960  0.0262
  617MOL0     H81441   9.838   9.669  10.987 -0.0805 -2.3597 -4.5098
  617MOL0     H81442   9.794  10.061  11.119  0.2820  1.0315  0.1286
  617MOL0     H81443   9.283   9.581  10.561  2.1027  0.3504 -2.2218
  617MOL0     H81444   9.070   9.664  10.514  1.3905  0.9671 -1.9209
  618MOL0     O81445   0.845   1.210   6.712 -0.7598  0.4830  0.1450
  618MOL0     C81446   0.828   1.295   6.796 -0.1131 -0.8942  0.3928
  618MOL0     O81447   0.764   1.282   6.919  0.0965 -0.3157 -0.9451
  618MOL0     C81448   0.733   1.155   6.958 -0.4625 -0.6049  0.0684
  618MOL0     C81449   0.818   1.049   6.950  0.3517 -0.4937  0.4148
  618MOL0     C81450   0.780   0.927   6.999  1.1025  0.0720 -0.5075
  618MOL0     C81451   0.653   0.904   7.057  0.3715 -0.1398  0.0926
  618MOL0     O81452   0.616   0.788   7.099 -0.5082 -0.6784  0.0558
  618MOL0     C81453   0.711   0.721   7.189 -0.0262 -0.0936  0.0382
  618MOL0     C81454   0.635   0.646   7.299 -0.0089 -0.7836 -0.0726
  618MOL0     C81455   0.558   0.537   7.239  0.1042  0.6678 -0.4515
  618MOL0     C81456   0.543   0.422   7.334 -0.2356  0.5149  1.0482
  618MOL0     C81457   0.455   0.461   7.447 -0.9450  0.7179 -0.9849
  618MOL0     C81458   0.309   0.456   7.397 -0.6540  0.1817 -0.0689
  618MOL0     C81459   0.217   0.478   7.518  0.0355 -0.5139 -0.4908
  618MOL0     C81460   0.157   0.616   7.523 -0.1265  0.4923 -0.4729
  618MOL0     N81461   0.252   0.728   7.513  0.1481 -0.0119  0.3882
  618MOL0     C81462   0.358   0.751   7.604 -0.3578 -1.1149  0.4577
  618MOL0     C81463   0.417   0.867   7.553 -1.2082 -0.0466 -0.2612
  618MOL0     C81464   0.531   0.944   7.626 -0.6690 -0.1952  0.2485
  618MOL0     C81465   0.492   1.037   7.741 -0.1971 -0.6624  0.4123
  618MOL0     C81466   0.385   1.134   7.691  0.5718 -1.3054  0.7110
  618MOL0     C81467   0.343   1.230   7.793  0.0524  0.0263  0.0098
  618MOL0     O81468   0.231   1.302   7.739  0.2165 -0.4963  0.4391
  618MOL0     C81469   0.151   1.385   7.818  0.0514 -0.0380 -0.2934
  618MOL0     C81470   0.190   1.415   7.952  1.2246 -0.3900  0.1816
  618MOL0     C81471   0.114   1.513   8.025  0.1122  0.7394  0.3798
  618MOL0     C81472   0.000   1.573   7.960 -0.5168  0.1703 -0.0013
  618MOL0     C81473  -0.091   1.673   8.030  0.6814 -0.0915  0.3974
  618MOL0     O81474  -0.205   1.701   7.958  0.2823  0.2609 -0.6835
  618MOL0     C81475  -0.322   1.725   8.030 -0.5807  0.2722 -0.0857
  618MOL0     C81476  -0.362   1.632   8.123  0.1883 -0.2544 -0.7926
  618MOL0     C81477  -0.484   1.651   8.195 -0.4501 -0.4406  0.1724
  618MOL0     C81478  -0.571   1.757   8.163  0.0375 -0.2804 -0.2594
  618MOL0     O81479  -0.695   1.772   8.216  0.1337  0.6023  0.0716
  618MOL0     C81480  -0.722   1.739   8.349  0.5927 -0.4456 -0.2191
  618MOL0     C81481  -0.830   1.834   8.393 -0.0376 -0.1723  0.7503
  618MOL0     C81482  -0.955   1.814   8.300 -0.4536  1.1123 -0.7328
  618MOL0     C81483  -1.069   1.875   8.368 -0.5225  0.1462  0.1056
  618MOL0     C81484  -1.192   1.905   8.285 -0.0852  0.5614  0.1493
  618MOL0     C81485  -1.271   1.782   8.214  0.1790  0.2331 -0.4479
  618MOL0     C81486  -1.362   1.835   8.103  0.1236  0.8045 -0.3279
  618MOL0     C81487  -1.458   1.720   8.055  0.8415 -0.4304 -0.1598
  618MOL0    Cl81488  -1.416   1.557   8.077  0.1048 -0.2241 -0.6272
  618MOL0     C81489  -0.526   1.849   8.064  0.9648 -0.0231 -0.2224
  618MOL0     C81490  -0.398   1.836   8.005 -0.4984 -0.2964 -0.2615
  618MOL0     O81491  -0.061   1.720   8.137 -0.3869  0.8015  0.2596
  618MOL0     C81492  -0.038   1.529   7.826  0.1791  0.2266 -0.1282
  618MOL0     C81493   0.039   1.441   7.750  0.1296  1.3031 -0.8119
  618MOL0     N81494   0.360   0.888   7.423 -0.9805 -0.7226 -0.4048
  618MOL0     N81495   0.265   0.804   7.396 -0.1045 -0.2848 -0.4896
  618MOL0     C81496   0.569   1.013   7.062  1.6907  0.8903  1.3588
  618MOL0     C81497   0.602   1.139   7.008  0.4656  0.3911  0.1447
  618MOL0     C81498   0.855   1.430   6.749  0.9720  0.2316 -0.6601
  618MOL0     C81499   0.893   1.449   6.618 -0.8744 -0.1702  0.9879
  618MOL0     C81500   0.928   1.577   6.576 -0.8316  0.2558 -0.0858
  618MOL0     C81501   0.910   1.684   6.660 -0.9012 -1.0937  0.4556
  618MOL0     O81502   0.961   1.808   6.612 -0.3314  0.3544  0.2715
  618MOL0     C81503   0.974   1.913   6.708  0.2433  0.4186  0.1877
  618MOL0     C81504   1.100   1.887   6.784  0.4225 -0.1642 -1.6559
  618MOL0     C81505   1.143   1.985   6.890 -0.3049  0.8653  0.4906
  618MOL0     C81506   1.035   2.015   6.997  0.6122  0.1679 -0.1989
  618MOL0     C81507   0.960   1.904   7.052  0.0632 -0.3748 -0.4195
  618MOL0     C81508   0.897   1.809   7.094 -0.9611  0.4112  1.0728
  618MOL0     C81509   0.844   1.669   6.785 -0.4239 -0.5845  0.3464
  618MOL0     C81510   0.814   1.540   6.830  0.5734  0.9178 -0.4383
  618MOL0     H81511   0.918   1.062   6.910  0.3843 -0.1238  0.6105
  618MOL0     H81512   0.854   0.848   7.013  1.6822  0.8597  1.2051
  618MOL0     H81513   0.772   0.792   7.245 -1.9693  0.2369  1.8875
  618MOL0     H81514   0.773   0.657   7.125  0.6408  0.5207  0.0608
  618MOL0     H81515   0.560   0.715   7.338  1.3036 -0.1270  1.4239
  618MOL0     H81516   0.697   0.618   7.385  0.1992 -1.8400 -0.5467
  618MOL0     H81517   0.608   0.496   7.151 -0.1552  0.8595 -0.6898
  618MOL0     H81518   0.457   0.567   7.210 -0.7981 -1.6608  0.0401
  618MOL0     H81519   0.497   0.341   7.276  0.4330  1.3780 -0.7837
  618MOL0     H81520   0.637   0.389   7.379  1.4935  3.5852  0.0203
  618MOL0     H81521   0.473   0.557   7.497 -0.2446  0.0751  0.0369
  618MOL0     H81522   0.459   0.384   7.525 -0.3928  0.2644 -1.4537
  618MOL0     H81523   0.285   0.359   7.354 -1.4452  0.2408  0.2137
  618MOL0     H81524   0.293   0.542   7.331 -0.0933  1.6702  1.6419
  618MOL0     H81525   0.134   0.407   7.526 -0.6077  0.4172  2.4422
  618MOL0     H81526   0.270   0.447   7.608  1.4099 -1.2219 -1.5131
  618MOL0     H81527   0.103   0.624   7.618  0.4736  0.3545 -0.1211
  618MOL0     H81528   0.080   0.637   7.448 -0.8792 -2.6756 -0.7574
  618MOL0     H81529   0.373   0.713   7.704 -1.9598 -1.0674  0.7333
  618MOL0     H81530   0.584   0.994   7.544  0.3204 -1.2280  0.2252
  618MOL0     H81531   0.597   0.872   7.675 -0.0056  1.4137  1.8112
  618MOL0     H81532   0.587   1.088   7.756  0.1450 -0.3514 -2.2649
  618MOL0     H81533   0.467   0.990   7.837 -0.3138  1.6053  1.5477
  618MOL0     H81534   0.414   1.201   7.610 -0.0712 -1.5762  0.2535
  618MOL0     H81535   0.300   1.077   7.654  1.3015 -2.2783  0.4731
  618MOL0     H81536   0.426   1.302   7.796  0.4063 -0.2713 -1.6104
  618MOL0     H81537   0.317   1.187   7.889 -2.5396  0.5521 -0.3929
  618MOL0     H81538   0.285   1.381   7.991  0.9516  0.3922  1.6093
  618MOL0     H81539   0.142   1.547   8.124  0.8460  1.4646 -0.0652
  618MOL0     H81540  -0.300   1.544   8.131  2.3243  1.1721 -0.7240
  618MOL0     H81541  -0.518   1.579   8.269 -1.4034  0.2525  0.4311
  618MOL0     H81542  -0.629   1.740   8.406  1.6198 -1.6123 -1.7742
  618MOL0     H81543  -0.751   1.634   8.359  2.9206 -1.0997  0.2806
  618MOL0     H81544  -0.796   1.937   8.380 -1.2990  0.1650  0.0438
  618MOL0     H81545  -0.829   1.828   8.502 -0.4224  0.1456  0.7735
  618MOL0     H81546  -0.960   1.705   8.290  4.2279  0.7406 -0.9228
  618MOL0     H81547  -0.953   1.862   8.202  2.4151  0.6558 -0.9686
  618MOL0     H81548  -1.093   1.807   8.451 -1.4879  1.9143  1.3628
  618MOL0     H81549  -1.034   1.967   8.417  1.7821 -0.4623 -0.3180
  618MOL0     H81550  -1.152   1.980   8.217 -0.4101  0.6199  0.0203
  618MOL0     H81551  -1.257   1.957   8.356  3.0080  2.7240  1.5993
  618MOL0     H81552  -1.339   1.728   8.280  0.6928 -2.1870 -1.7747
  618MOL0     H81553  -1.195   1.711   8.181 -0.1857  0.3908 -1.6886
  618MOL0     H81554  -1.413   1.926   8.134 -3.4505 -2.0861  3.6129
  618MOL0     H81555  -1.298   1.857   8.018 -0.2031 -1.9138 -1.3959
  618MOL0     H81556  -1.479   1.730   7.948  0.4984  1.4023  0.0448
  618MOL0     H81557  -1.549   1.740   8.112  0.2909 -0.4896 -0.9930
  618MOL0     H81558  -0.595   1.926   8.031 -1.6588 -1.5360  1.3178
  618MOL0     H81559  -0.375   1.890   7.913 -3.3643 -1.3256 -1.7408
  618MOL0     H81560  -0.123   1.579   7.780 -0.4423  0.3560  1.1180
  618MOL0     H81561   0.033   1.412   7.646  1.5636  3.0155 -1.4096
  618MOL0     H81562   0.474   0.992   7.109 -1.0589  3.9956 -2.2059
  618MOL0     H81563   0.525   1.213   6.991 -1.3501 -1.2299  0.9849
  618MOL0     H81564   0.907   1.371   6.543  2.6819  1.2047  0.0102
  618MOL0     H81565   0.987   1.592   6.486  1.8609 -3.5828  0.8149
  618MOL0     H81566   0.897   1.927   6.784 -0.4571  2.2758 -0.7898
  618MOL0     H81567   0.981   2.009   6.655  0.3750  0.9074  1.0728
  618MOL0     H81568   1.093   1.785   6.824 -2.5233  0.4564 -0.3434
  618MOL0     H81569   1.183   1.882   6.712 -0.2193 -1.8570 -2.3479
  618MOL0     H81570   1.165   2.077   6.835  2.7844 -1.4209 -2.4998
  618MOL0     H81571   1.231   1.943   6.938 -3.2068 -1.2515  4.5645
  618MOL0     H81572   1.084   2.057   7.085 -2.7447  1.3848  1.2503
  618MOL0     H81573   0.966   2.086   6.949  1.8514  2.3679  1.0891
  618MOL0     H81574   0.834   1.727   7.122  0.7874 -0.6266  2.1291
  618MOL0     H81575   0.827   1.755   6.849 -1.3068  1.3016 -2.2606
  618MOL0     H81576   0.769   1.528   6.928 -1.4426  2.1851 -1.1487
  619MOL0     O81577   5.606   7.644   1.229  0.1482  0.9510  0.2546
  619MOL0     C81578   5.665   7.739   1.182  0.0421  0.0037  0.8241
  619MOL0     O81579   5.790   7.739   1.114  0.1679  0.3806  0.3087
  619MOL0     C81580   5.849   7.625   1.060 -0.8663  0.7392 -0.5703
  619MOL0     C81581   5.784   7.502   1.024  0.2791 -0.8907  1.0663
  619MOL0     C81582   5.864   7.395   0.982  0.5169 -0.0405  0.3681
  619MOL0     C81583   6.002   7.409   0.951  0.2230  1.1044  0.4478
  619MOL0     O81584   6.063   7.311   0.877  0.5730  0.4502 -0.6091
  619MOL0     C81585   6.075   7.186   0.953  0.5248 -0.1294 -0.3580
  619MOL0     C81586   6.180   7.097   0.884 -0.5725  0.3261 -0.5833
  619MOL0     C81587   6.316   7.144   0.923  0.7774 -0.3081 -0.7353
  619MOL0     C81588   6.418   7.099   0.821  0.2709  0.1080  0.0476
  619MOL0     C81589   6.561   7.134   0.854  0.8363  0.3207 -0.8460
  619MOL0     C81590   6.649   7.026   0.776 -0.3124 -0.0151 -0.2897
  619MOL0     C81591   6.664   6.893   0.844  0.2573  0.0135 -0.1812
  619MOL0     C81592   6.733   6.801   0.741 -0.4829  0.6538  0.4463
  619MOL0     N81593   6.879   6.835   0.722 -0.8497 -0.0315 -0.2045
  619MOL0     C81594   6.935   6.937   0.644  0.2165  0.2591 -0.5160
  619MOL0     C81595   7.070   6.918   0.660 -0.1528  0.4601 -0.7220
  619MOL0     C81596   7.191   7.001   0.627 -0.0052  0.9671 -0.1452
  619MOL0     C81597   7.221   6.972   0.482 -0.5377  0.1010  0.0214
  619MOL0     C81598   7.279   6.833   0.466 -0.3709 -1.1385  0.9102
  619MOL0     C81599   7.327   6.807   0.320  1.0767 -0.7155 -0.2438
  619MOL0     O81600   7.340   6.665   0.292  0.4700 -0.2406  0.8564
  619MOL0     C81601   7.224   6.590   0.253 -0.0270 -0.8573  0.8063
  619MOL0     C81602   7.254   6.457   0.215  1.2513 -0.3247  0.2853
  619MOL0     C81603   7.153   6.379   0.150 -0.8050 -0.3407 -0.2312
  619MOL0     C81604   7.020   6.425   0.132 -0.6834 -0.6036 -1.1224
  619MOL0     C81605   6.919   6.343   0.060  0.2259 -0.1026  0.9274
  619MOL0     O81606   6.966   6.229  -0.013 -0.3492 -0.1650  0.0303
  619MOL0     C81607   6.859   6.145  -0.055 -0.7225  0.6722  0.0493
  619MOL0     C81608   6.882   6.065  -0.165  0.0267 -0.4238  0.3871
  619MOL0     C81609   6.793   5.975  -0.211  1.2819 -0.2049  0.0807
  619MOL0     C81610   6.684   5.945  -0.138  0.1145 -0.1691  0.2324
  619MOL0     O81611   6.595   5.861  -0.196 -0.5241 -0.3341  0.7694
  619MOL0     C81612   6.453   5.872  -0.171  0.1289 -0.0502 -0.1310
  619MOL0     C81613   6.422   5.747  -0.093 -0.2925 -0.8110 -0.1613
  619MOL0     C81614   6.291   5.681  -0.128  0.0257  0.8690  0.3487
  619MOL0     C81615   6.258   5.565  -0.032  0.6191  0.8893  0.0315
  619MOL0     C81616   6.116   5.516  -0.039  0.6603  0.3526 -0.5366
  619MOL0     C81617   6.059   5.522  -0.177  0.6356 -1.3092 -0.2406
  619MOL0     C81618   5.932   5.452  -0.181  0.9038 -1.2373 -0.2562
  619MOL0     C81619   5.841   5.518  -0.280 -0.6337 -0.0422 -0.2732
  619MOL0    Cl81620   5.895   5.474  -0.442  0.0926  0.1501 -0.4443
  619MOL0     C81621   6.660   6.010  -0.016  0.7319  0.8700  0.5335
  619MOL0     C81622   6.749   6.113   0.025  0.1679 -0.0603 -0.3368
  619MOL0     O81623   6.799   6.384   0.051 -0.6431  0.0015 -0.5756
  619MOL0     C81624   7.003   6.563   0.164  0.3710  0.2452  0.0862
  619MOL0     C81625   7.100   6.648   0.213  0.0812 -1.1751  1.0220
  619MOL0     N81626   7.088   6.816   0.751 -0.4833  0.5344  0.6462
  619MOL0     N81627   6.972   6.780   0.805  0.1006  0.8609  0.2718
  619MOL0     C81628   6.062   7.530   0.985  0.0002 -0.2511 -0.8080
  619MOL0     C81629   5.987   7.639   1.035 -0.0432  0.8052  0.0060
  619MOL0     C81630   5.614   7.872   1.227 -0.0261 -0.9258  0.8627
  619MOL0     C81631   5.615   7.999   1.152 -0.2003  0.8873  1.2293
  619MOL0     C81632   5.558   8.119   1.191  0.2036  0.5693 -1.0180
  619MOL0     C81633   5.514   8.123   1.322  1.2782 -0.6170 -0.0008
  619MOL0     O81634   5.435   8.234   1.340 -0.3126  0.5565  0.1152
  619MOL0     C81635   5.410   8.273   1.471  0.0268  0.2837 -0.2861
  619MOL0     C81636   5.358   8.417   1.454 -0.5294 -0.6981  0.3015
  619MOL0     C81637   5.250   8.446   1.558  0.5830 -0.1438 -0.3713
  619MOL0     C81638   5.288   8.496   1.699 -0.0659  0.0391  0.7228
  619MOL0     C81639   5.358   8.623   1.681  1.1285 -0.6481  0.6044
  619MOL0     C81640   5.412   8.736   1.657  0.3321  0.1580  0.4466
  619MOL0     C81641   5.508   8.006   1.402 -0.7995  0.0139  0.4378
  619MOL0     C81642   5.553   7.879   1.355  0.2417  0.0293  0.0593
  619MOL0     H81643   5.676   7.498   1.038  0.5390 -0.4805  3.9606
  619MOL0     H81644   5.813   7.299   0.971  3.6844 -1.6595 -1.8033
  619MOL0     H81645   5.975   7.142   0.944  0.9149 -1.4860  1.3145
  619MOL0     H81646   6.100   7.195   1.060 -0.7170  1.6022 -0.1769
  619MOL0     H81647   6.173   7.103   0.775  1.5782  0.6761 -0.7361
  619MOL0     H81648   6.171   6.995   0.922  2.0182 -0.0667 -0.8671
  619MOL0     H81649   6.338   7.109   1.024  1.5352  2.1526  0.0181
  619MOL0     H81650   6.326   7.252   0.934  0.8964 -0.1920 -1.8201
  619MOL0     H81651   6.396   6.996   0.790 -2.3293  0.1581  1.4035
  619MOL0     H81652   6.396   7.157   0.731 -1.5151 -1.4679 -0.6080
  619MOL0     H81653   6.561   7.124   0.963 -0.3761  0.2329 -0.8389
  619MOL0     H81654   6.590   7.237   0.830  2.2126  0.0371 -0.5071
  619MOL0     H81655   6.751   7.064   0.769 -0.3190 -0.1732 -1.4373
  619MOL0     H81656   6.612   7.019   0.673  1.0797 -2.5232 -0.6997
  619MOL0     H81657   6.726   6.912   0.931 -2.8419 -0.7349  2.3760
  619MOL0     H81658   6.567   6.867   0.889  1.1359  0.4419  2.0880
  619MOL0     H81659   6.687   6.819   0.643  4.1802 -3.0725 -2.9232
  619MOL0     H81660   6.714   6.694   0.753 -2.3179  0.5397 -2.5023
  619MOL0     H81661   6.877   7.011   0.590 -3.0322 -1.5497  0.2301
  619MOL0     H81662   7.267   6.987   0.705 -1.2068 -0.4768  0.8273
  619MOL0     H81663   7.157   7.105   0.637 -2.7216  0.2253 -0.9427
  619MOL0     H81664   7.294   7.049   0.456  0.8666 -0.9933  0.5622
  619MOL0     H81665   7.131   6.994   0.423  0.7280  0.6504 -1.7904
  619MOL0     H81666   7.368   6.818   0.528 -0.2879 -1.1156  0.7970
  619MOL0     H81667   7.203   6.765   0.506 -1.4237  0.1376  1.1835
  619MOL0     H81668   7.425   6.851   0.296 -0.2755  1.0063 -3.1799
  619MOL0     H81669   7.264   6.860   0.247  2.0426 -0.9670 -1.2912
  619MOL0     H81670   7.353   6.416   0.233  0.2290 -1.8075  3.2218
  619MOL0     H81671   7.152   6.274   0.121 -1.2048 -0.2804 -0.4319
  619MOL0     H81672   6.977   6.079  -0.216  2.7949 -2.4037  4.4765
  619MOL0     H81673   6.802   5.931  -0.309  0.8202 -1.9611  0.7874
  619MOL0     H81674   6.406   5.868  -0.270  1.0289  1.8328 -0.6925
  619MOL0     H81675   6.417   5.960  -0.118 -0.4044  0.2206 -0.9195
  619MOL0     H81676   6.433   5.761   0.015 -2.8662  2.6820 -0.1801
  619MOL0     H81677   6.496   5.668  -0.110 -0.8753 -1.0983 -1.5053
  619MOL0     H81678   6.296   5.645  -0.232  1.0401 -0.6475  0.8867
  619MOL0     H81679   6.212   5.757  -0.133 -2.5473 -1.6754 -1.3588
  619MOL0     H81680   6.325   5.482  -0.054 -2.7073 -1.4590 -2.1742
  619MOL0     H81681   6.275   5.597   0.071 -0.5022 -0.0950  0.5508
  619MOL0     H81682   6.050   5.587   0.012  0.5395  1.1311 -1.7370
  619MOL0     H81683   6.106   5.413  -0.006  4.1023 -0.4196 -1.4928
  619MOL0     H81684   6.129   5.478  -0.248  1.6301  0.2296 -0.2769
  619MOL0     H81685   6.042   5.627  -0.204  2.3374 -0.8416  0.3775
  619MOL0     H81686   5.944   5.350  -0.219  2.1184 -0.0148 -3.5729
  619MOL0     H81687   5.878   5.465  -0.087 -1.1270  3.5800 -1.7726
  619MOL0     H81688   5.840   5.625  -0.256 -1.1213  0.1195 -1.0016
  619MOL0     H81689   5.746   5.469  -0.257  0.1775 -0.2794  3.2211
  619MOL0     H81690   6.593   5.998   0.068 -0.9987  2.4700 -0.5302
  619MOL0     H81691   6.738   6.156   0.124 -1.2752  2.3575 -1.4500
  619MOL0     H81692   6.902   6.602   0.162  0.2975  0.2024  1.5951
  619MOL0     H81693   7.066   6.749   0.233 -4.3469 -1.2815 -3.8646
  619MOL0     H81694   6.168   7.507   0.977  0.5006  1.0683  1.1450
  619MOL0     H81695   6.048   7.724   1.067  0.5172 -0.6084  3.1057
  619MOL0     H81696   5.651   8.007   1.050  1.4543  4.2005  1.9236
  619MOL0     H81697   5.562   8.202   1.121  2.0673  3.1531  1.9207
  619MOL0     H81698   5.492   8.272   1.543  0.7263 -0.0705 -1.0790
  619MOL0     H81699   5.333   8.208   1.514 -1.1250  2.8987  1.9514
  619MOL0     H81700   5.443   8.484   1.444  1.1999 -2.4799  2.1421
  619MOL0     H81701   5.322   8.425   1.351  1.2590  0.8439 -0.2594
  619MOL0     H81702   5.192   8.359   1.589  0.9725  0.5282  2.4881
  619MOL0     H81703   5.170   8.511   1.520  0.1257 -0.5070 -0.0346
  619MOL0     H81704   5.202   8.520   1.761 -0.4642 -1.9218  0.9951
  619MOL0     H81705   5.349   8.432   1.764  1.0272  0.5857  0.2626
  619MOL0     H81706   5.455   8.829   1.626 -1.4554  0.8287 -0.1864
  619MOL0     H81707   5.483   8.008   1.507  0.6298  1.3034  0.7796
  619MOL0     H81708   5.550   7.783   1.406 -0.1808 -0.0739 -0.1544
  620MOL0     O81709  10.357   5.957  11.117 -0.4088 -0.6172  0.5078
  620MOL0     C81710  10.297   6.025  11.030  0.0738 -0.2279 -0.1855
  620MOL0     O81711  10.360   6.118  10.947 -0.3456 -0.0919  0.7028
  620MOL0     C81712  10.495   6.134  10.921 -0.9939  1.4086  0.6102
  620MOL0     C81713  10.545   6.220  10.821 -0.0058  0.4004 -0.5798
  620MOL0     C81714  10.682   6.242  10.800  0.1284  0.8713 -0.4597
  620MOL0     C81715  10.781   6.177  10.860 -0.4960 -1.1317 -0.1672
  620MOL0     O81716  10.915   6.203  10.828  0.5768 -0.2227  0.0521
  620MOL0     C81717  11.011   6.199  10.924  0.6562 -0.4886 -0.1664
  620MOL0     C81718  11.145   6.244  10.862  0.1509 -0.5442  0.0602
  620MOL0     C81719  11.153   6.394  10.836 -0.9106  0.4400  0.0369
  620MOL0     C81720  11.295   6.438  10.784 -0.6054 -0.2230 -0.3288
  620MOL0     C81721  11.296   6.582  10.743  0.7259  0.6689 -1.4658
  620MOL0     C81722  11.340   6.668  10.859 -0.7498 -0.1157  0.4668
  620MOL0     C81723  11.353   6.809  10.805 -0.3135 -0.1319 -0.5127
  620MOL0     C81724  11.412   6.901  10.912 -0.1803 -0.3648 -0.6518
  620MOL0     N81725  11.347   7.033  10.932 -0.4882  0.3162 -0.3206
  620MOL0     C81726  11.368   7.095  11.046  0.1100 -0.7557 -0.0859
  620MOL0     C81727  11.282   7.197  11.028 -0.3600  0.5392 -0.5941
  620MOL0     C81728  11.258   7.297  11.136  0.2904  1.1959  0.3285
  620MOL0     C81729  11.383   7.381  11.162  0.5233  0.4944  0.1254
  620MOL0     C81730  11.446   7.436  11.041 -0.3635 -0.7379  0.6837
  620MOL0     C81731  11.371   7.564  10.984 -0.4359  0.3921  0.2740
  620MOL0     O81732  11.378   7.679  11.069  0.1253  0.0364  0.1567
  620MOL0     C81733  11.503   7.718  11.108 -0.1805 -0.3952  0.3365
  620MOL0     C81734  11.532   7.743  11.242 -0.2979 -0.0001 -0.9469
  620MOL0     C81735  11.651   7.807  11.287  0.3545 -0.8320  0.4507
  620MOL0     C81736  11.739   7.860  11.187  0.9935 -0.6890  0.6016
  620MOL0     C81737  11.859   7.923  11.231  0.0914  0.1701 -0.0387
  620MOL0     O81738  11.861   7.986  11.352 -0.1465  0.0791  0.2156
  620MOL0     C81739  11.969   8.073  11.396  0.5322  0.9847 -0.3244
  620MOL0     C81740  12.104   8.040  11.370  0.5987 -1.2157  0.6300
  620MOL0     C81741  12.197   8.129  11.417 -0.1078  0.4949  0.3002
  620MOL0     C81742  12.169   8.239  11.501  0.8810  0.5155  0.4692
  620MOL0     O81743  12.268   8.315  11.564  0.5436  0.1356 -0.4709
  620MOL0     C81744  12.396   8.264  11.577 -0.1049 -0.7657 -0.6759
  620MOL0     C81745  12.457   8.332  11.701  0.2925  0.0050  0.0789
  620MOL0     C81746  12.611   8.331  11.693 -0.2557 -0.4355 -0.1771
  620MOL0     C81747  12.669   8.420  11.803 -0.1124 -0.1528 -0.0779
  620MOL0     C81748  12.812   8.468  11.767  0.5798 -0.5796 -0.3792
  620MOL0     C81749  12.861   8.584  11.850  0.0708  0.1627 -0.0487
  620MOL0     C81750  12.864   8.564  12.001 -0.1621 -0.3300 -0.4676
  620MOL0     C81751  12.938   8.680  12.074 -0.3142  0.6198  0.2967
  620MOL0    Cl81752  13.124   8.677  12.033  0.0085 -0.1701  0.2909
  620MOL0     C81753  12.032   8.263  11.525  0.3947  0.7732 -0.2449
  620MOL0     C81754  11.937   8.181  11.481  0.0090  0.6833  0.3526
  620MOL0     O81755  11.955   7.923  11.142  0.4155  0.6589 -0.3831
  620MOL0     C81756  11.714   7.832  11.049  0.7390 -0.2018  0.5392
  620MOL0     C81757  11.592   7.770  11.008 -0.0484 -0.2997 -0.2721
  620MOL0     N81758  11.210   7.185  10.911  0.3990 -0.0511  0.8428
  620MOL0     N81759  11.258   7.091  10.846 -0.2400 -0.2464 -0.2786
  620MOL0     C81760  10.747   6.083  10.965  0.6835  0.5710  0.2134
  620MOL0     C81761  10.604   6.057  10.984 -0.8565 -0.4803 -0.0437
  620MOL0     C81762  10.152   6.023  11.017  1.2376  0.5224  0.1549
  620MOL0     C81763  10.080   5.925  11.089  0.8815 -0.0804 -0.1951
  620MOL0     C81764   9.938   5.930  11.096  0.5049 -0.3973  0.7846
  620MOL0     C81765   9.863   6.020  11.014  0.1478 -0.1286 -0.6360
  620MOL0     O81766   9.726   6.021  11.017  0.0014  0.0990 -0.0193
  620MOL0     C81767   9.657   6.101  10.922 -0.0567  0.9155  0.1053
  620MOL0     C81768   9.521   6.040  10.896  0.8764  0.5347 -0.3979
  620MOL0     C81769   9.503   5.911  10.807 -0.4294  0.5086  0.3879
  620MOL0     C81770   9.362   5.907  10.762  0.2743 -0.0066  0.5914
  620MOL0     C81771   9.339   5.796  10.661 -0.5647 -0.3660 -0.7449
  620MOL0     C81772   9.316   5.730  10.563 -0.7022  0.2800  0.7916
  620MOL0     C81773   9.946   6.095  10.923  0.2728 -0.7163  0.2201
  620MOL0     C81774  10.087   6.103  10.923  0.0592 -0.0493  0.7161
  620MOL0     H81775  10.458   6.273  10.783 -2.2228 -1.4843  1.5054
  620MOL0     H81776  10.721   6.313  10.728  4.7477 -0.0139  0.8667
  620MOL0     H81777  11.023   6.091  10.937 -0.0160 -1.1889 -4.1433
  620MOL0     H81778  10.982   6.244  11.019 -2.0450 -1.1005 -0.6217
  620MOL0     H81779  11.162   6.191  10.768  0.9081 -1.6261  0.7995
  620MOL0     H81780  11.226   6.223  10.932  0.1441  5.2301  2.3824
  620MOL0     H81781  11.113   6.448  10.923 -1.9295  1.9574 -1.3117
  620MOL0     H81782  11.090   6.418  10.750 -1.3269 -3.9135 -1.0932
  620MOL0     H81783  11.374   6.423  10.858 -1.3308 -1.8485  0.1760
  620MOL0     H81784  11.330   6.375  10.702 -3.1368  0.8619 -2.4207
  620MOL0     H81785  11.199   6.612  10.702  1.3613  1.0439 -2.7574
  620MOL0     H81786  11.367   6.601  10.662  0.2322  3.8133 -1.2874
  620MOL0     H81787  11.439   6.629  10.887  0.6337  3.2161  0.6312
  620MOL0     H81788  11.269   6.674  10.942 -1.7286  2.4982 -0.4523
  620MOL0     H81789  11.407   6.817  10.710  2.5649  0.1851  1.0612
  620MOL0     H81790  11.251   6.844  10.787 -0.2671 -0.7815 -2.1916
  620MOL0     H81791  11.509   6.923  10.867 -0.4440 -1.4307 -1.7931
  620MOL0     H81792  11.423   6.850  11.009 -1.3785  0.9970  0.2442
  620MOL0     H81793  11.425   7.071  11.135  1.7104  1.9480 -0.2914
  620MOL0     H81794  11.224   7.251  11.229  1.2327 -0.1832  0.0201
  620MOL0     H81795  11.182   7.366  11.099  0.2384 -0.1911 -2.3767
  620MOL0     H81796  11.459   7.313  11.201  1.0957 -1.0769 -3.3863
  620MOL0     H81797  11.359   7.455  11.239 -2.1855 -0.4899  0.3212
  620MOL0     H81798  11.544   7.470  11.074 -0.0119  0.0056 -0.9938
  620MOL0     H81799  11.459   7.362  10.962  0.6200  1.3225 -1.2053
  620MOL0     H81800  11.269   7.532  10.963 -0.5652  0.0478  1.3528
  620MOL0     H81801  11.419   7.606  10.895 -0.1010 -0.1874  0.1750
  620MOL0     H81802  11.483   7.682  11.317  1.6925  0.5099  0.8592
  620MOL0     H81803  11.677   7.810  11.392  0.6164 -0.9376  0.3895
  620MOL0     H81804  12.139   7.948  11.323  3.0061  0.7485 -1.7257
  620MOL0     H81805  12.298   8.094  11.398  0.3848  1.4377  1.1028
  620MOL0     H81806  12.451   8.278  11.483  1.1178 -0.8125  0.0029
  620MOL0     H81807  12.392   8.159  11.606 -2.1221 -0.1512  1.5860
  620MOL0     H81808  12.432   8.272  11.789  1.6445 -0.3345  0.2662
  620MOL0     H81809  12.406   8.427  11.714 -2.6754 -1.4170 -0.2761
  620MOL0     H81810  12.642   8.348  11.590  1.0473 -2.1820 -0.1188
  620MOL0     H81811  12.638   8.227  11.717 -4.0563 -2.0862 -2.1747
  620MOL0     H81812  12.615   8.513  11.820 -2.1715 -1.3534  0.3360
  620MOL0     H81813  12.659   8.364  11.896 -2.8288 -0.1379 -0.2801
  620MOL0     H81814  12.815   8.503  11.664  2.1240 -0.0534 -0.1764
  620MOL0     H81815  12.880   8.382  11.764  1.7742  0.2949  0.6200
  620MOL0     H81816  12.787   8.663  11.832 -0.0966  0.5973  2.2993
  620MOL0     H81817  12.961   8.621  11.825 -0.3208  1.7866  0.6055
  620MOL0     H81818  12.762   8.570  12.040  0.6069 -0.1659  1.6351
  620MOL0     H81819  12.913   8.471  12.032  0.2105 -0.3915 -1.2127
  620MOL0     H81820  12.931   8.675  12.183  5.2128  0.1186  0.9164
  620MOL0     H81821  12.912   8.780  12.038  2.5946  0.8864 -1.3125
  620MOL0     H81822  12.008   8.344  11.593  1.9172  0.9694  0.1050
  620MOL0     H81823  11.838   8.218  11.503  0.7691  2.2484  1.3298
  620MOL0     H81824  11.781   7.870  10.972  0.2766  2.4485  1.3336
  620MOL0     H81825  11.561   7.777  10.904 -0.2432  0.1679 -0.1851
  620MOL0     H81826  10.820   6.027  11.022  0.0481 -0.7991 -0.2644
  620MOL0     H81827  10.573   5.983  11.056 -1.9734  0.0811  0.0769
  620MOL0     H81828  10.127   5.851  11.153 -2.1090 -0.9849  1.1314
  620MOL0     H81829   9.889   5.851  11.153  1.3329 -0.9021  0.8137
  620MOL0     H81830   9.707   6.103  10.825  0.7740 -1.1210  0.4424
  620MOL0     H81831   9.648   6.198  10.971 -0.8026  0.5978  0.6274
  620MOL0     H81832   9.465   6.028  10.989 -2.0284  0.0838 -2.0969
  620MOL0     H81833   9.477   6.125  10.842  1.0943  4.0279  4.2488
  620MOL0     H81834   9.539   5.824  10.862  0.6695  0.3737 -0.5044
  620MOL0     H81835   9.563   5.924  10.716  3.0547 -3.3133  1.7991
  620MOL0     H81836   9.301   5.872  10.845  1.4701 -1.9290  0.7177
  620MOL0     H81837   9.330   6.002  10.718  1.9303  0.4900  0.3554
  620MOL0     H81838   9.296   5.660  10.484 -0.0296 -0.9937  1.7183
  620MOL0     H81839   9.903   6.164  10.851  3.1822  0.8840 -0.0984
  620MOL0     H81840  10.149   6.172  10.866 -1.1710 -1.6841 -2.9248
  621MOL0     O81841   8.141   6.014   6.307 -0.5218 -0.3599 -0.4655
  621MOL0     C81842   8.226   5.992   6.391  0.9233 -0.6515 -0.1797
  621MOL0     O81843   8.193   5.966   6.519  0.5648  0.4660 -0.1458
  621MOL0     C81844   8.059   5.933   6.555  0.3380  0.2850  0.0576
  621MOL0     C81845   8.008   5.969   6.686 -0.3593 -0.0705  0.2349
  621MOL0     C81846   7.868   5.946   6.718 -1.1951 -0.3197  0.7726
  621MOL0     C81847   7.779   5.881   6.624  0.6441 -0.4208  0.3104
  621MOL0     O81848   7.647   5.862   6.649  0.3511 -0.0119 -0.1626
  621MOL0     C81849   7.584   5.854   6.780  0.1227  0.0645 -0.8256
  621MOL0     C81850   7.535   5.714   6.808 -0.1978 -0.3255 -0.4105
  621MOL0     C81851   7.643   5.622   6.861 -0.3019  0.6072 -0.9997
  621MOL0     C81852   7.750   5.679   6.960  0.0397 -0.0172  0.7506
  621MOL0     C81853   7.812   5.560   7.051  0.5549 -0.2531  0.1837
  621MOL0     C81854   7.898   5.470   6.962  0.9605  0.2315 -0.2839
  621MOL0     C81855   7.986   5.374   7.041 -0.5696  0.9609 -0.9071
  621MOL0     C81856   8.069   5.278   6.956  1.1289 -0.7701 -0.3686
  621MOL0     N81857   7.991   5.219   6.840  0.1150  0.6787 -0.1454
  621MOL0     C81858   7.885   5.125   6.853 -0.2707 -0.0772 -0.0419
  621MOL0     C81859   7.873   5.073   6.730  1.2329  0.9146 -0.1464
  621MOL0     C81860   7.763   4.979   6.689 -0.2365  0.2866 -0.7741
  621MOL0     C81861   7.766   4.859   6.793  0.0622  0.4186  0.0610
  621MOL0     C81862   7.712   4.722   6.743 -0.2186  0.1993 -0.1076
  621MOL0     C81863   7.742   4.681   6.598 -0.4701 -0.3845  0.8239
  621MOL0     O81864   7.744   4.539   6.579  0.6985  0.1819  0.2702
  621MOL0     C81865   7.620   4.472   6.590  0.1523  0.8784 -0.7255
  621MOL0     C81866   7.643   4.334   6.629  0.6311 -0.9448  0.2520
  621MOL0     C81867   7.526   4.259   6.647 -0.4495  0.1789 -0.4836
  621MOL0     C81868   7.393   4.315   6.614  0.7311  0.2063 -0.5810
  621MOL0     C81869   7.271   4.236   6.623 -0.0353 -0.1317 -0.4608
  621MOL0     O81870   7.146   4.283   6.623 -0.4086  0.0239  0.0551
  621MOL0     C81871   7.034   4.212   6.661 -0.4218  0.2502  0.7293
  621MOL0     C81872   6.909   4.265   6.622 -0.5714  0.0300  0.4408
  621MOL0     C81873   6.792   4.194   6.653  0.3632  0.1969  0.0489
  621MOL0     C81874   6.794   4.074   6.718  0.0230 -0.2999 -0.2239
  621MOL0     O81875   6.682   4.003   6.753 -0.1441 -0.4768  0.3644
  621MOL0     C81876   6.612   3.957   6.635  0.3228  1.0091  0.1206
  621MOL0     C81877   6.700   3.850   6.548 -0.4294  0.2037 -0.6007
  621MOL0     C81878   6.660   3.830   6.406 -0.2120  0.0453 -0.1898
  621MOL0     C81879   6.532   3.904   6.355 -0.1614 -0.8557  0.3806
  621MOL0     C81880   6.502   3.893   6.200  0.5855  0.6600  0.5421
  621MOL0     C81881   6.433   3.761   6.159  0.6232 -0.5139  0.3698
  621MOL0     C81882   6.402   3.752   6.009 -1.4395 -0.5807  0.1603
  621MOL0     C81883   6.315   3.637   5.969 -0.2070  0.2680  0.8908
  621MOL0    Cl81884   6.349   3.478   6.049  0.1785  0.5543  0.5649
  621MOL0     C81885   6.918   4.031   6.772  0.1794 -0.0398 -0.8351
  621MOL0     C81886   7.037   4.094   6.733  0.2799  0.0824  0.6295
  621MOL0     O81887   7.292   4.118   6.606 -0.1635 -0.9381 -0.1351
  621MOL0     C81888   7.376   4.443   6.568  0.0099  0.0746  0.3664
  621MOL0     C81889   7.494   4.523   6.554 -0.1116 -0.5984 -1.8385
  621MOL0     N81890   7.978   5.120   6.649  0.1299 -0.1361 -0.3481
  621MOL0     N81891   8.051   5.189   6.722 -0.1584 -0.8227 -0.4421
  621MOL0     C81892   7.835   5.839   6.501 -0.1692  0.1910  0.7620
  621MOL0     C81893   7.964   5.870   6.469 -0.0284  0.0403 -0.1122
  621MOL0     C81894   8.368   6.020   6.370  0.4327 -0.0164  0.6320
  621MOL0     C81895   8.421   6.102   6.277  0.0102  0.0069  0.5840
  621MOL0     C81896   8.563   6.118   6.266 -0.4301 -0.0788  0.8339
  621MOL0     C81897   8.650   6.068   6.355 -0.8794  0.5686 -0.3936
  621MOL0     O81898   8.785   6.092   6.354  0.7363 -0.0710  0.8308
  621MOL0     C81899   8.851   6.142   6.235  0.5226 -0.0545  0.0441
  621MOL0     C81900   8.983   6.069   6.235 -0.4024  0.0554  0.7076
  621MOL0     C81901   9.094   6.157   6.297 -0.2621 -0.0907 -0.6438
  621MOL0     C81902   9.162   6.253   6.201  0.9863  0.1962 -0.3908
  621MOL0     C81903   9.260   6.185   6.125  0.4604  0.3254 -0.1594
  621MOL0     C81904   9.344   6.132   6.059 -1.1757 -0.1148 -0.2493
  621MOL0     C81905   8.605   5.975   6.449  0.2577  0.1681 -0.0571
  621MOL0     C81906   8.459   5.956   6.459 -0.4173  0.2502  0.3461
  621MOL0     H81907   8.074   6.030   6.747  2.8356 -3.0767  0.0947
  621MOL0     H81908   7.829   5.968   6.817 -3.5783 -1.1762  0.1089
  621MOL0     H81909   7.504   5.929   6.781  0.6848  0.6990  1.4845
  621MOL0     H81910   7.652   5.892   6.856  0.1853 -0.1891 -0.7543
  621MOL0     H81911   7.470   5.677   6.728 -2.0151 -0.5478  1.1246
  621MOL0     H81912   7.463   5.719   6.889  2.0993  0.7736  1.6869
  621MOL0     H81913   7.704   5.582   6.779  1.8840 -2.3024  1.8066
  621MOL0     H81914   7.600   5.531   6.905 -0.1231  0.7249 -0.5818
  621MOL0     H81915   7.823   5.739   6.904 -2.3734  1.2078 -1.3315
  621MOL0     H81916   7.694   5.750   7.022  0.2375  1.6299 -0.8824
  621MOL0     H81917   7.742   5.504   7.113  1.4097  1.1792  2.5744
  621MOL0     H81918   7.878   5.608   7.124  0.1814  2.7203 -1.2733
  621MOL0     H81919   7.963   5.537   6.906  0.8484  0.1439 -0.5226
  621MOL0     H81920   7.842   5.412   6.888 -0.7821  0.3095  0.9123
  621MOL0     H81921   8.050   5.431   7.109  0.1371  0.2422 -0.9585
  621MOL0     H81922   7.920   5.302   7.090  1.8073 -1.3974 -0.9472
  621MOL0     H81923   8.113   5.207   7.027  1.4065 -0.6078 -0.3734
  621MOL0     H81924   8.163   5.324   6.922  1.0859  0.7871  1.4712
  621MOL0     H81925   7.828   5.110   6.944  0.6641 -3.2470  0.1469
  621MOL0     H81926   7.787   4.948   6.587  3.8356 -1.2515  0.4573
  621MOL0     H81927   7.661   5.019   6.685 -1.8884 -3.5049 -0.5161
  621MOL0     H81928   7.711   4.880   6.886 -1.4185  4.8273 -1.5540
  621MOL0     H81929   7.872   4.846   6.817  0.2333  0.4658 -0.6482
  621MOL0     H81930   7.769   4.651   6.804 -1.2798  1.0583  1.9993
  621MOL0     H81931   7.605   4.709   6.759 -0.7196  0.6562 -2.7568
  621MOL0     H81932   7.841   4.714   6.567 -0.5935 -1.1678 -0.5219
  621MOL0     H81933   7.671   4.735   6.534 -0.5908  0.6953  1.8426
  621MOL0     H81934   7.745   4.304   6.653  0.7181  0.2755  1.4625
  621MOL0     H81935   7.534   4.161   6.692 -0.5751  0.4965  0.2324
  621MOL0     H81936   6.914   4.361   6.571 -0.0823 -0.2176  0.0091
  621MOL0     H81937   6.696   4.245   6.651 -0.0348 -0.3293  2.4473
  621MOL0     H81938   6.598   4.043   6.570  0.0179  2.5581  2.1292
  621MOL0     H81939   6.513   3.914   6.652  0.0432  0.3025 -2.7338
  621MOL0     H81940   6.677   3.756   6.599  2.6626 -0.2896  0.0841
  621MOL0     H81941   6.807   3.863   6.565 -0.4129  0.2962 -0.7657
  621MOL0     H81942   6.634   3.726   6.381  2.0468 -0.8268  0.8212
  621MOL0     H81943   6.738   3.864   6.337  0.8084 -0.4432  0.6944
  621MOL0     H81944   6.442   3.872   6.408 -2.2619  0.2444 -2.2719
  621MOL0     H81945   6.549   4.011   6.370  0.7335 -0.5961 -1.9793
  621MOL0     H81946   6.602   3.899   6.155  1.0598  1.3559  1.6443
  621MOL0     H81947   6.441   3.975   6.160 -0.2397  0.9724  2.3522
  621MOL0     H81948   6.339   3.746   6.214 -1.6954  2.4092 -2.4346
  621MOL0     H81949   6.502   3.679   6.179  0.7630 -0.5628 -0.2898
  621MOL0     H81950   6.368   3.845   5.962  4.8002  3.4645  2.3970
  621MOL0     H81951   6.494   3.733   5.953  0.2738  2.0361  1.8700
  621MOL0     H81952   6.323   3.613   5.863 -1.8469 -0.9452  1.0145
  621MOL0     H81953   6.212   3.668   5.990  0.8688  3.1781  2.5939
  621MOL0     H81954   6.936   3.937   6.824 -2.4759 -1.8120 -2.8264
  621MOL0     H81955   7.128   4.042   6.759 -0.6926 -1.1389  1.7298
  621MOL0     H81956   7.280   4.492   6.574 -0.5654 -1.1021  1.2453
  621MOL0     H81957   7.491   4.629   6.531  1.0045 -0.4975 -1.5832
  621MOL0     H81958   7.770   5.779   6.438 -2.6464  2.0678  1.3305
  621MOL0     H81959   7.993   5.833   6.371 -2.7853 -4.0093  0.3317
  621MOL0     H81960   8.353   6.141   6.202  1.0112  2.0382  0.6727
  621MOL0     H81961   8.573   6.175   6.174 -2.7093 -0.1499  0.4713
  621MOL0     H81962   8.861   6.250   6.248  3.1762 -0.4197  1.8622
  621MOL0     H81963   8.803   6.104   6.144  3.6542 -2.4810 -0.8018
  621MOL0     H81964   8.973   5.982   6.300 -1.6146 -0.2678  0.1215
  621MOL0     H81965   9.008   6.022   6.140  3.1628 -3.7219  3.1686
  621MOL0     H81966   9.160   6.076   6.329 -1.2094 -1.7168 -2.5327
  621MOL0     H81967   9.066   6.207   6.390 -1.1280 -0.5076 -0.6724
  621MOL0     H81968   9.102   6.313   6.132  1.5746 -0.6692 -1.6856
  621MOL0     H81969   9.227   6.321   6.258  4.3845 -2.1385 -1.2066
  621MOL0     H81970   9.417   6.066   6.016 -0.5352 -0.4057  1.2194
  621MOL0     H81971   8.675   5.939   6.524  3.3584  1.9414 -1.9126
  621MOL0     H81972   8.423   5.877   6.524  1.4255 -0.5489  0.4800
  622MOL0     O81973   0.187   4.340   7.051  0.3609  0.7722 -0.7456
  622MOL0     C81974   0.234   4.445   7.094  0.3738  0.5635 -0.4319
  622MOL0     O81975   0.360   4.467   7.142  0.0041 -0.2938  0.9845
  622MOL0     C81976   0.445   4.363   7.159  1.1878  0.4323  0.4460
  622MOL0     C81977   0.572   4.385   7.114  0.0601 -0.1816  0.2959
  622MOL0     C81978   0.671   4.298   7.151 -0.0071  0.8519 -0.2362
  622MOL0     C81979   0.641   4.172   7.210 -0.5423  0.0779 -0.5171
  622MOL0     O81980   0.739   4.082   7.221 -0.7948 -0.7265 -0.3017
  622MOL0     C81981   0.791   4.067   7.351 -0.6384  0.0314 -0.4694
  622MOL0     C81982   0.931   4.007   7.367 -0.0526  0.5981 -0.8665
  622MOL0     C81983   0.983   3.988   7.508 -0.3619  0.7805  0.4892
  622MOL0     C81984   1.125   3.926   7.531  0.9047 -0.9802 -0.5367
  622MOL0     C81985   1.149   3.897   7.679  0.5172 -0.1010 -0.0521
  622MOL0     C81986   1.302   3.900   7.710 -1.2879 -0.4467  0.0640
  622MOL0     C81987   1.345   3.825   7.835 -0.5510  0.3885 -0.7199
  622MOL0     C81988   1.504   3.824   7.837  0.9878 -0.0555  0.8727
  622MOL0     N81989   1.549   3.738   7.942 -1.1530 -0.0691  0.4665
  622MOL0     C81990   1.548   3.782   8.076 -0.1556  0.5282 -0.5074
  622MOL0     C81991   1.572   3.669   8.148  0.1428 -0.1680  0.1068
  622MOL0     C81992   1.597   3.668   8.291 -0.4379  0.5898 -0.4445
  622MOL0     C81993   1.743   3.652   8.335  0.4227 -0.3993  0.2371
  622MOL0     C81994   1.830   3.766   8.274  0.1845  1.1268 -0.4638
  622MOL0     C81995   1.814   3.892   8.364  0.1425 -0.0289 -0.3114
  622MOL0     O81996   1.709   3.972   8.305 -0.2071  0.1571 -1.1408
  622MOL0     C81997   1.653   4.073   8.384 -0.0582  0.2131 -0.6328
  622MOL0     C81998   1.699   4.142   8.496  0.2642 -0.7770  0.3829
  622MOL0     C81999   1.647   4.269   8.533  0.5185  0.9305 -0.0229
  622MOL0     C82000   1.528   4.311   8.486  0.1355  0.4410 -0.3450
  622MOL0     C82001   1.470   4.437   8.551 -0.0654 -0.2250  0.2476
  622MOL0     O82002   1.342   4.478   8.519 -0.2939 -0.0008 -0.4390
  622MOL0     C82003   1.293   4.594   8.574  0.1822 -0.8393 -0.2430
  622MOL0     C82004   1.155   4.595   8.611 -0.0727 -0.4553 -0.6395
  622MOL0     C82005   1.090   4.717   8.638  0.6468  0.6761  0.3814
  622MOL0     C82006   1.162   4.834   8.648  1.0096 -0.6962 -0.6079
  622MOL0     O82007   1.094   4.939   8.696  0.1643 -0.7918 -0.3306
  622MOL0     C82008   1.124   4.978   8.834 -0.5940  0.8363  0.9521
  622MOL0     C82009   0.999   5.057   8.880 -0.1154  0.6163 -0.1386
  622MOL0     C82010   0.885   4.958   8.894  0.7234 -1.1397  0.3153
  622MOL0     C82011   0.757   5.021   8.946  0.3213 -1.2180 -0.6460
  622MOL0     C82012   0.770   5.106   9.075  0.6893 -0.1772 -0.0000
  622MOL0     C82013   0.629   5.160   9.118  0.8312  0.1863  1.3791
  622MOL0     C82014   0.531   5.071   9.206 -0.3399  0.5937  0.3177
  622MOL0     C82015   0.584   5.037   9.347  0.8138 -0.7101  0.0856
  622MOL0    Cl82016   0.484   4.901   9.421 -0.0088 -0.1421  0.2486
  622MOL0     C82017   1.301   4.849   8.611  1.5623  0.2369 -0.7642
  622MOL0     C82018   1.359   4.724   8.571 -0.0027 -0.5885 -0.2921
  622MOL0     O82019   1.539   4.497   8.639 -0.3982 -0.0004 -0.6450
  622MOL0     C82020   1.467   4.222   8.396  0.0088 -0.0151 -0.2818
  622MOL0     C82021   1.521   4.110   8.342  0.2360 -0.2208  0.4821
  622MOL0     N82022   1.594   3.566   8.058 -1.0497  0.8998  0.3336
  622MOL0     N82023   1.594   3.610   7.928  0.0962 -1.3132  0.1169
  622MOL0     C82024   0.511   4.130   7.233 -0.2218  0.4956 -0.5085
  622MOL0     C82025   0.417   4.229   7.207  0.4541  0.5896 -0.4935
  622MOL0     C82026   0.160   4.577   7.089  0.6038  0.5074  0.1633
  622MOL0     C82027   0.218   4.691   7.148 -0.2039 -0.8310  1.1037
  622MOL0     C82028   0.161   4.816   7.147 -0.3259 -0.6560 -0.0673
  622MOL0     C82029   0.030   4.821   7.092 -0.3692  0.0611  0.0257
  622MOL0     O82030  -0.037   4.945   7.107 -0.4041  0.0086  0.2106
  622MOL0     C82031  -0.175   4.960   7.130  0.0100 -0.3175 -0.1145
  622MOL0     C82032  -0.175   4.974   7.284 -0.8592 -0.5832 -0.0093
  622MOL0     C82033  -0.123   5.112   7.323 -0.3659  0.0668 -0.5924
  622MOL0     C82034  -0.243   5.195   7.342 -0.1700  0.0624 -0.0041
  622MOL0     C82035  -0.276   5.279   7.222  0.0359  0.1607 -0.1013
  622MOL0     C82036  -0.314   5.341   7.125  0.1561 -0.8697  0.0830
  622MOL0     C82037  -0.028   4.715   7.021 -0.7688 -0.0713 -0.1735
  622MOL0     C82038   0.043   4.595   7.021 -0.4537  0.0367 -0.8997
  622MOL0     H82039   0.602   4.478   7.066  0.4574 -0.1546  0.5907
  622MOL0     H82040   0.770   4.332   7.123 -0.4172  0.9231 -1.6618
  622MOL0     H82041   0.713   4.009   7.401 -1.3125 -0.5265 -2.1008
  622MOL0     H82042   0.803   4.162   7.404  0.0962 -0.5658  0.4594
  622MOL0     H82043   1.011   4.058   7.313  1.5809 -0.5455  0.3428
  622MOL0     H82044   0.932   3.910   7.316  2.5671  0.8348 -1.3997
  622MOL0     H82045   0.904   3.931   7.557  0.6131  0.4209  1.7130
  622MOL0     H82046   0.991   4.086   7.555 -0.4133 -0.1377  2.5622
  622MOL0     H82047   1.147   3.834   7.475 -2.6622 -2.8494  0.7672
  622MOL0     H82048   1.189   4.005   7.491 -1.0042  0.6477 -0.5725
  622MOL0     H82049   1.108   3.799   7.706 -1.1742  0.6736  0.3263
  622MOL0     H82050   1.090   3.966   7.740 -2.0644 -0.3064 -2.1097
  622MOL0     H82051   1.337   4.001   7.734  2.5590 -2.1010  2.4003
  622MOL0     H82052   1.360   3.862   7.626 -0.2350  2.1271 -0.4597
  622MOL0     H82053   1.310   3.870   7.928 -1.0836  0.8526 -1.1393
  622MOL0     H82054   1.308   3.722   7.830 -1.4958  0.6831 -0.0295
  622MOL0     H82055   1.543   3.923   7.861 -0.3267  1.4500 -2.6046
  622MOL0     H82056   1.536   3.781   7.741  3.0192  2.2759  0.3927
  622MOL0     H82057   1.539   3.887   8.100  3.6293  1.2176 -1.3733
  622MOL0     H82058   1.550   3.575   8.326  1.3539 -0.8477 -1.6384
  622MOL0     H82059   1.546   3.757   8.329 -1.2225  1.2732 -2.9064
  622MOL0     H82060   1.796   3.561   8.307  0.8624 -0.7217  1.9898
  622MOL0     H82061   1.753   3.671   8.442 -0.1235 -1.4242  0.4778
  622MOL0     H82062   1.932   3.725   8.270 -0.5130 -0.8729  0.6213
  622MOL0     H82063   1.801   3.780   8.170  0.4361  0.3962 -0.6385
  622MOL0     H82064   1.914   3.937   8.373 -0.3784  1.0736  0.1583
  622MOL0     H82065   1.781   3.861   8.463  2.2295 -3.5255 -0.5428
  622MOL0     H82066   1.787   4.122   8.555  0.2341 -0.1185  0.6672
  622MOL0     H82067   1.709   4.328   8.601  0.1658  0.1558  0.9928
  622MOL0     H82068   1.109   4.498   8.602  0.4163 -0.6207 -1.4773
  622MOL0     H82069   0.984   4.724   8.658  0.8409 -0.1941  1.8367
  622MOL0     H82070   1.212   5.042   8.826  0.1562 -0.3730 -1.6755
  622MOL0     H82071   1.145   4.893   8.900 -0.3981  0.1627  0.0534
  622MOL0     H82072   0.972   5.126   8.800  0.5817 -2.0632 -2.8341
  622MOL0     H82073   1.014   5.108   8.976 -1.2642 -1.1293  1.0215
  622MOL0     H82074   0.919   4.884   8.967  0.4818  1.7082  3.5564
  622MOL0     H82075   0.868   4.897   8.805 -3.2799 -0.6214  0.5281
  622MOL0     H82076   0.720   5.079   8.861 -2.4518 -3.0007 -0.7803
  622MOL0     H82077   0.685   4.942   8.971 -1.0860  0.1604 -0.1898
  622MOL0     H82078   0.836   5.191   9.056  0.1665  0.5790  1.4233
  622MOL0     H82079   0.824   5.060   9.159 -0.2044  0.0948  0.7450
  622MOL0     H82080   0.558   5.182   9.038 -0.7780  1.2103  3.0021
  622MOL0     H82081   0.660   5.253   9.165  6.6762  0.4121 -1.9719
  622MOL0     H82082   0.439   5.130   9.219 -1.2730 -0.5003 -0.9474
  622MOL0     H82083   0.504   4.982   9.148 -0.6868 -1.5883  3.5954
  622MOL0     H82084   0.578   5.131   9.404  0.0278  0.3615 -1.6580
  622MOL0     H82085   0.689   5.010   9.337  0.3814 -2.0091 -1.2143
  622MOL0     H82086   1.356   4.943   8.611 -0.2347  1.3597  1.2001
  622MOL0     H82087   1.461   4.737   8.536 -0.3079 -3.4305 -2.6507
  622MOL0     H82088   1.366   4.253   8.370  0.9748  2.8597 -0.9971
  622MOL0     H82089   1.469   4.055   8.264  1.1843 -1.9556  1.0077
  622MOL0     H82090   0.497   4.028   7.268 -1.7302  1.0944  0.7227
  622MOL0     H82091   0.313   4.200   7.219  0.3307  0.8874 -0.8552
  622MOL0     H82092   0.315   4.688   7.195  1.1996  1.8012 -1.3465
  622MOL0     H82093   0.214   4.903   7.185  1.7792 -1.6945 -0.5061
  622MOL0     H82094  -0.231   4.872   7.097  1.6612 -0.6776 -2.1767
  622MOL0     H82095  -0.211   5.056   7.089  0.5273  0.9350  2.1960
  622MOL0     H82096  -0.278   4.958   7.317 -1.1882 -0.0661 -0.7698
  622MOL0     H82097  -0.113   4.890   7.318 -0.5521 -0.6423 -0.6835
  622MOL0     H82098  -0.060   5.148   7.241  1.0028 -0.7783  0.0489
  622MOL0     H82099  -0.046   5.115   7.401  0.6964 -1.4222 -1.5328
  622MOL0     H82100  -0.324   5.139   7.389  1.3196 -1.5439  0.7631
  622MOL0     H82101  -0.222   5.268   7.421 -2.1741  0.9913 -0.2708
  622MOL0     H82102  -0.367   5.388   7.045  0.4077  0.8505  0.8828
  622MOL0     H82103  -0.116   4.723   6.959 -0.6195 -1.3490 -0.5764
  622MOL0     H82104  -0.004   4.516   6.962 -3.0258 -0.5092  1.6190
  623MOL0     O82105   7.085   0.872   6.252 -0.2038 -0.9215 -0.2400
  623MOL0     C82106   6.971   0.845   6.222 -0.1280 -0.0220 -0.0850
  623MOL0     O82107   6.889   0.925   6.152 -0.7511  0.7825 -0.9947
  623MOL0     C82108   6.933   1.057   6.126 -0.0667  0.3984  0.7486
  623MOL0     C82109   6.987   1.097   6.000  0.7053  0.6923  0.2214
  623MOL0     C82110   7.030   1.225   5.982 -0.0148 -0.6042  0.0121
  623MOL0     C82111   7.011   1.316   6.086 -0.6784  0.1629 -0.1398
  623MOL0     O82112   7.056   1.445   6.059  0.8266  0.4832  0.5071
  623MOL0     C82113   7.079   1.535   6.161  0.7226 -0.3107 -0.0454
  623MOL0     C82114   7.147   1.657   6.097  0.0664  0.3923 -0.7068
  623MOL0     C82115   7.055   1.742   6.009  0.1957 -0.3755 -0.3485
  623MOL0     C82116   7.116   1.879   5.997  0.0905 -0.4019 -0.7986
  623MOL0     C82117   7.229   1.901   5.888 -0.2318  1.1272  0.6604
  623MOL0     C82118   7.190   1.888   5.733 -1.0967 -0.5402  0.1368
  623MOL0     C82119   7.315   1.856   5.641 -0.2956 -0.3770 -1.1109
  623MOL0     C82120   7.294   1.880   5.490  0.2331 -0.1153  0.5200
  623MOL0     N82121   7.222   1.767   5.436 -0.2490  0.4514  0.6727
  623MOL0     C82122   7.092   1.727   5.452 -0.1667 -0.3881  0.5924
  623MOL0     C82123   7.082   1.633   5.359  0.3984 -0.1854  0.0682
  623MOL0     C82124   6.959   1.549   5.327 -0.1407  0.0467 -0.0491
  623MOL0     C82125   6.849   1.535   5.432 -0.1252  0.2045  0.3598
  623MOL0     C82126   6.881   1.451   5.565 -0.7404  0.3617  0.8109
  623MOL0     C82127   6.793   1.500   5.680  0.2176  1.0798  0.3641
  623MOL0     O82128   6.658   1.488   5.641  0.3993  0.2549  0.6719
  623MOL0     C82129   6.580   1.384   5.685 -1.2001  1.2239 -0.3215
  623MOL0     C82130   6.453   1.392   5.629  0.0906  0.3281  0.4371
  623MOL0     C82131   6.373   1.280   5.644 -0.2544  0.2694  0.6835
  623MOL0     C82132   6.414   1.156   5.698 -0.3009 -0.0926 -0.3145
  623MOL0     C82133   6.325   1.037   5.711 -0.3483  0.1171  0.0366
  623MOL0     O82134   6.393   0.923   5.760 -0.5953 -0.7312  0.1394
  623MOL0     C82135   6.327   0.806   5.785 -0.3348  0.0920  0.1552
  623MOL0     C82136   6.380   0.741   5.895  0.7180  0.4398  0.4707
  623MOL0     C82137   6.326   0.611   5.926 -0.9615 -1.0143 -0.8110
  623MOL0     C82138   6.239   0.550   5.835 -0.3306  1.0123 -0.1961
  623MOL0     O82139   6.185   0.424   5.854 -0.4961  0.2940  0.1964
  623MOL0     C82140   6.216   0.317   5.766 -0.1867 -1.2861  0.2052
  623MOL0     C82141   6.092   0.236   5.695  0.0750 -0.8146  0.0963
  623MOL0     C82142   6.133   0.157   5.572 -0.0995  0.9119 -0.6232
  623MOL0     C82143   6.006   0.125   5.487 -0.9511 -0.5087 -0.4576
  623MOL0     C82144   6.043   0.060   5.351  0.2188  0.3120  0.3942
  623MOL0     C82145   6.095   0.165   5.243 -0.6757  0.1823  0.5796
  623MOL0     C82146   6.130   0.089   5.121 -0.4806  0.3726  0.1454
  623MOL0     C82147   6.116   0.172   4.988  0.7176  0.1686 -0.3029
  623MOL0    Cl82148   5.940   0.190   4.943 -0.0516  0.5673  0.3020
  623MOL0     C82149   6.186   0.623   5.728  0.3738  0.2710 -0.6083
  623MOL0     C82150   6.228   0.746   5.710 -0.1914 -0.8715  0.5317
  623MOL0     O82151   6.208   1.041   5.677 -0.0114  0.2469 -0.5545
  623MOL0     C82152   6.544   1.155   5.765 -0.0583  0.0268 -0.4613
  623MOL0     C82153   6.622   1.267   5.752 -0.1169  1.2770 -1.0996
  623MOL0     N82154   7.207   1.613   5.294 -1.2722  0.4997  0.0352
  623MOL0     N82155   7.293   1.689   5.342 -0.1181 -0.6168  0.2305
  623MOL0     C82156   6.967   1.285   6.217 -0.2674  0.1363  0.0289
  623MOL0     C82157   6.934   1.146   6.231  0.6585 -1.4313 -1.1983
  623MOL0     C82158   6.909   0.713   6.246  0.9137 -0.7545  0.4332
  623MOL0     C82159   6.988   0.602   6.281  0.7305 -0.1483 -0.5616
  623MOL0     C82160   6.939   0.472   6.296 -0.7468 -0.8866  0.2497
  623MOL0     C82161   6.807   0.452   6.298  0.3577 -0.0885  0.5856
  623MOL0     O82162   6.748   0.332   6.329  0.3319 -0.0889  0.4890
  623MOL0     C82163   6.732   0.322   6.471 -0.3510  0.4935  0.1033
  623MOL0     C82164   6.669   0.193   6.516  0.5710  0.6369 -0.0569
  623MOL0     C82165   6.732   0.061   6.467 -0.3038 -1.3774 -0.5532
  623MOL0     C82166   6.877   0.047   6.499  0.6881 -0.2345  0.0300
  623MOL0     C82167   6.930  -0.091   6.497  0.3820  0.1578  1.1389
  623MOL0     C82168   6.950  -0.212   6.483 -0.8642  0.1529  0.2994
  623MOL0     C82169   6.720   0.555   6.275 -0.2307 -0.3315 -0.5357
  623MOL0     C82170   6.766   0.692   6.251  0.1393  0.0945 -0.2387
  623MOL0     H82171   6.970   1.029   5.918 -2.9953  0.7348  0.7917
  623MOL0     H82172   7.070   1.254   5.886 -0.4916 -2.1109 -0.6803
  623MOL0     H82173   7.135   1.482   6.239 -0.9414 -0.1783  1.2842
  623MOL0     H82174   6.985   1.572   6.202  0.8420  0.4744 -0.4503
  623MOL0     H82175   7.221   1.614   6.029  2.7064 -2.1331  3.3601
  623MOL0     H82176   7.188   1.727   6.170 -3.0002  2.7164 -1.0004
  623MOL0     H82177   6.964   1.739   6.069 -0.3552 -4.0210 -1.1904
  623MOL0     H82178   7.031   1.693   5.914 -0.7726 -1.9294  0.6571
  623MOL0     H82179   7.041   1.951   5.962  2.7685  1.7653 -2.5637
  623MOL0     H82180   7.152   1.915   6.094  1.1079 -3.5618  0.1207
  623MOL0     H82181   7.317   1.837   5.900  0.6108  1.4794 -2.5752
  623MOL0     H82182   7.270   2.002   5.900 -3.0479  2.6937 -1.5580
  623MOL0     H82183   7.154   1.984   5.696 -1.4180 -1.5532 -2.3726
  623MOL0     H82184   7.108   1.817   5.717 -2.6410  1.7539 -3.3353
  623MOL0     H82185   7.395   1.925   5.671 -1.4503 -0.4961  2.6348
  623MOL0     H82186   7.360   1.758   5.660 -1.1425 -0.9505 -1.9618
  623MOL0     H82187   7.392   1.882   5.441 -0.3680 -2.7295 -0.9867
  623MOL0     H82188   7.240   1.971   5.462  3.2541  1.8100  0.4436
  623MOL0     H82189   7.007   1.765   5.509  1.1473 -1.0695  3.1225
  623MOL0     H82190   6.987   1.450   5.288 -2.8615 -0.5141 -0.7830
  623MOL0     H82191   6.916   1.595   5.238  2.2438  2.5187 -0.0648
  623MOL0     H82192   6.768   1.476   5.386 -0.8043  0.8044  0.7700
  623MOL0     H82193   6.805   1.634   5.446 -1.1329 -0.2387  0.4693
  623MOL0     H82194   6.866   1.344   5.548 -2.3706  0.9308 -1.9131
  623MOL0     H82195   6.986   1.464   5.591  0.0354  1.1971 -2.3215
  623MOL0     H82196   6.806   1.606   5.704  3.0753  2.3218 -5.0457
  623MOL0     H82197   6.810   1.437   5.767  3.3352  1.4503  0.1165
  623MOL0     H82198   6.407   1.488   5.605 -1.9573  0.1157  3.0493
  623MOL0     H82199   6.271   1.270   5.610  0.8274  0.6441 -3.2249
  623MOL0     H82200   6.461   0.783   5.953 -1.3712  4.4736  0.7803
  623MOL0     H82201   6.361   0.546   6.006 -0.2415 -0.4107 -0.6219
  623MOL0     H82202   6.289   0.249   5.810  0.4048 -0.9464 -0.2184
  623MOL0     H82203   6.279   0.356   5.685  1.1334  2.4039  2.7296
  623MOL0     H82204   6.006   0.299   5.670 -1.4527 -2.4629  0.9420
  623MOL0     H82205   6.055   0.168   5.772  1.0956 -1.2109  0.2490
  623MOL0     H82206   6.163   0.060   5.611 -1.1424  0.7121 -0.2789
  623MOL0     H82207   6.221   0.200   5.524  0.5005 -1.2938 -1.6259
  623MOL0     H82208   5.937   0.059   5.540 -1.4301 -0.7928 -1.4008
  623MOL0     H82209   5.953   0.220   5.473  0.3775  0.0552 -1.9931
  623MOL0     H82210   5.953   0.008   5.315  0.4107 -0.1426  0.5707
  623MOL0     H82211   6.109  -0.024   5.374 -0.2724 -0.2435 -0.1901
  623MOL0     H82212   6.191   0.208   5.272  0.5452 -3.2432  2.2455
  623MOL0     H82213   6.024   0.247   5.233 -0.3846  0.2476 -1.2503
  623MOL0     H82214   6.227   0.040   5.131  0.5946  2.8445  4.5563
  623MOL0     H82215   6.055   0.012   5.104 -0.7545  0.2064  1.9745
  623MOL0     H82216   6.152   0.130   4.894 -6.0121 -1.5247 -2.7570
  623MOL0     H82217   6.155   0.274   4.994  1.2653 -0.0999  1.1052
  623MOL0     H82218   6.117   0.579   5.656  1.6559  0.5021 -2.0255
  623MOL0     H82219   6.196   0.809   5.629  1.5512  1.3678  1.4689
  623MOL0     H82220   6.588   1.062   5.799 -1.4227 -0.1023  1.0733
  623MOL0     H82221   6.722   1.242   5.786  0.5276  1.1581 -2.9883
  623MOL0     H82222   6.963   1.360   6.295 -2.0127  1.2340 -1.0589
  623MOL0     H82223   6.903   1.103   6.326  2.0105 -3.2715 -1.5455
  623MOL0     H82224   7.096   0.602   6.289  0.6396  0.3767  0.9050
  623MOL0     H82225   7.010   0.391   6.303  2.2748  1.5844  0.1556
  623MOL0     H82226   6.673   0.405   6.510 -1.0953 -1.5987  3.9300
  623MOL0     H82227   6.827   0.330   6.526 -0.6642 -3.2754  1.5119
  623MOL0     H82228   6.665   0.183   6.625 -1.0003 -1.4931 -0.2437
  623MOL0     H82229   6.566   0.210   6.484  1.0426  2.5003 -0.7240
  623MOL0     H82230   6.720   0.059   6.358  1.1486  0.0842 -0.7749
  623MOL0     H82231   6.682  -0.023   6.516  1.3610 -1.7103  0.6521
  623MOL0     H82232   6.927   0.121   6.436 -1.4815  2.8082  1.5930
  623MOL0     H82233   6.897   0.082   6.601 -3.3882  2.5158  0.1183
  623MOL0     H82234   6.978  -0.314   6.465 -1.4403 -0.6628  3.3557
  623MOL0     H82235   6.612   0.544   6.278 -0.2868 -0.0098  3.2354
  623MOL0     H82236   6.695   0.773   6.239  1.2556  1.2873  0.8716
  624MOL0     O82237   1.569   5.110   5.644 -0.2175 -0.1627  0.1281
  624MOL0     C82238   1.468   5.112   5.580  0.7162 -0.3353  0.7306
  624MOL0     O82239   1.400   5.007   5.525 -0.0284  0.0381 -0.6321
  624MOL0     C82240   1.422   4.878   5.563  0.0781  0.3478  0.8998
  624MOL0     C82241   1.498   4.831   5.674  0.2947 -0.4515  0.2125
  624MOL0     C82242   1.510   4.698   5.712 -0.6693 -0.4905  0.5666
  624MOL0     C82243   1.453   4.599   5.634 -0.3096  0.3971 -0.5280
  624MOL0     O82244   1.481   4.477   5.693 -0.6856  0.5230 -0.4205
  624MOL0     C82245   1.521   4.376   5.606 -0.3510  0.2876  0.3184
  624MOL0     C82246   1.600   4.271   5.685 -0.2262 -0.6285  0.4369
  624MOL0     C82247   1.654   4.154   5.595  0.3270  0.5140 -0.1423
  624MOL0     C82248   1.548   4.072   5.524  0.0504  0.1492  0.4954
  624MOL0     C82249   1.599   3.963   5.428 -0.5796  0.5327 -0.0101
  624MOL0     C82250   1.607   4.006   5.276 -0.4996 -0.9522  0.2688
  624MOL0     C82251   1.669   3.883   5.210 -0.6002 -0.6608 -0.0347
  624MOL0     C82252   1.700   3.922   5.068  0.6166 -0.1821  0.2163
  624MOL0     N82253   1.761   3.797   5.004  0.2399 -0.7877 -0.3559
  624MOL0     C82254   1.868   3.712   5.037  0.1166  0.4711  0.4682
  624MOL0     C82255   1.871   3.629   4.930  0.5660  0.2741  0.1606
  624MOL0     C82256   1.959   3.514   4.905 -0.3133  0.7068 -0.1748
  624MOL0     C82257   2.092   3.529   4.976 -1.4280 -0.0315 -0.8412
  624MOL0     C82258   2.202   3.435   4.918 -0.5280  1.2038  0.1663
  624MOL0     C82259   2.188   3.294   4.959 -0.5676  0.2052  0.4168
  624MOL0     O82260   2.215   3.283   5.101 -0.1699  0.1458 -0.0195
  624MOL0     C82261   2.346   3.272   5.146 -0.2341  0.0932  0.4772
  624MOL0     C82262   2.459   3.228   5.073 -0.3941  0.3757 -0.6727
  624MOL0     C82263   2.576   3.202   5.140  0.3942 -0.0777 -0.5753
  624MOL0     C82264   2.587   3.208   5.285 -0.1961  0.8682 -0.6381
  624MOL0     C82265   2.720   3.175   5.336 -0.1544 -0.7484  0.3160
  624MOL0     O82266   2.835   3.162   5.262 -0.5561  0.6178  0.2924
  624MOL0     C82267   2.962   3.131   5.307  0.5564  0.3651 -0.6255
  624MOL0     C82268   2.996   3.033   5.402 -0.2396  0.6477 -0.5425
  624MOL0     C82269   3.122   3.000   5.434 -0.3117  0.9976 -0.4427
  624MOL0     C82270   3.230   3.056   5.373 -0.1780  0.8208 -0.1094
  624MOL0     O82271   3.362   3.030   5.406  0.2935 -0.4122  0.2331
  624MOL0     C82272   3.390   2.891   5.451  0.0440  0.5266 -0.7467
  624MOL0     C82273   3.541   2.851   5.432  0.2922 -0.8509 -0.5127
  624MOL0     C82274   3.565   2.709   5.479  0.8840 -0.2495 -0.8581
  624MOL0     C82275   3.713   2.669   5.465 -0.1742 -0.4502  0.6409
  624MOL0     C82276   3.740   2.521   5.447  0.7007 -0.6532  0.1014
  624MOL0     C82277   3.690   2.470   5.311  0.6685  0.3250 -0.2476
  624MOL0     C82278   3.710   2.322   5.301  0.9081  0.2185  0.3260
  624MOL0     C82279   3.853   2.267   5.258 -1.0608  0.1616 -0.4240
  624MOL0    Cl82280   3.954   2.252   5.409  0.2880 -0.3686  0.3441
  624MOL0     C82281   3.210   3.151   5.288 -0.2467  0.4460  0.3978
  624MOL0     C82282   3.078   3.190   5.247  0.3585  0.5202  0.9994
  624MOL0     O82283   2.721   3.158   5.455  0.8409  0.3810 -1.3987
  624MOL0     C82284   2.472   3.254   5.353  0.3418  0.8548  0.3800
  624MOL0     C82285   2.352   3.282   5.286 -0.7341  0.0375  0.0349
  624MOL0     N82286   1.767   3.654   4.850  0.5763 -0.4538  0.7967
  624MOL0     N82287   1.705   3.759   4.887 -1.2539  0.3437 -0.0991
  624MOL0     C82288   1.387   4.634   5.515  0.6229  0.0791  0.3755
  624MOL0     C82289   1.371   4.771   5.482  0.5361 -0.7097 -0.0895
  624MOL0     C82290   1.429   5.238   5.508 -0.6648 -0.2747 -0.5812
  624MOL0     C82291   1.482   5.353   5.543 -0.0166 -0.0760  0.0727
  624MOL0     C82292   1.446   5.470   5.483 -0.1818 -0.0658  0.6891
  624MOL0     C82293   1.342   5.483   5.384 -0.2432  0.6631 -0.1479
  624MOL0     O82294   1.291   5.595   5.320  0.2944 -0.1717 -0.1564
  624MOL0     C82295   1.154   5.637   5.365  0.8461 -0.2187 -0.2534
  624MOL0     C82296   1.161   5.728   5.488 -0.4659  0.4896 -0.1083
  624MOL0     C82297   1.216   5.858   5.430 -0.6003 -0.2852  0.5779
  624MOL0     C82298   1.221   5.979   5.524 -0.3009  0.5771 -0.4888
  624MOL0     C82299   1.295   5.963   5.657  0.9348  0.1359  0.7259
  624MOL0     C82300   1.346   5.935   5.759  0.3284  0.2091  0.1982
  624MOL0     C82301   1.284   5.364   5.349  0.2389 -0.9475  0.7381
  624MOL0     C82302   1.320   5.242   5.409 -1.4034 -1.4544  0.0581
  624MOL0     H82303   1.551   4.885   5.752 -1.8944  1.4775  0.4927
  624MOL0     H82304   1.569   4.667   5.798 -0.2727 -0.3299  0.3562
  624MOL0     H82305   1.580   4.419   5.525  1.1497 -5.9707 -2.4407
  624MOL0     H82306   1.443   4.324   5.549  1.8982 -0.7651 -1.9656
  624MOL0     H82307   1.526   4.232   5.755 -0.5216 -1.5303 -0.3508
  624MOL0     H82308   1.678   4.319   5.744  0.6936  1.3210 -2.1676
  624MOL0     H82309   1.717   4.093   5.661 -1.0099 -0.1789  0.5255
  624MOL0     H82310   1.725   4.190   5.520  0.8240 -2.7217 -1.4039
  624MOL0     H82311   1.493   4.024   5.606 -1.5003  2.3600  0.8456
  624MOL0     H82312   1.483   4.137   5.465 -1.1278 -1.1839  0.2770
  624MOL0     H82313   1.523   3.884   5.430 -1.7295  1.6252  0.3990
  624MOL0     H82314   1.690   3.924   5.475 -0.0695  1.0820 -0.5257
  624MOL0     H82315   1.669   4.095   5.265 -1.3836 -0.5664 -2.2437
  624MOL0     H82316   1.505   4.034   5.246 -0.2528  2.6156  2.1525
  624MOL0     H82317   1.761   3.867   5.267 -0.6372  2.0963  0.9730
  624MOL0     H82318   1.594   3.804   5.207 -4.3201  2.5376 -0.3190
  624MOL0     H82319   1.773   4.003   5.062  0.9788 -0.5989 -5.0075
  624MOL0     H82320   1.607   3.960   5.025  0.7897 -0.5778 -0.5204
  624MOL0     H82321   1.939   3.733   5.117  1.0906 -0.3592 -0.1530
  624MOL0     H82322   1.976   3.493   4.799  3.8382 -1.4671  0.7178
  624MOL0     H82323   1.902   3.431   4.947 -0.7908 -0.0579 -2.2582
  624MOL0     H82324   2.079   3.526   5.085 -0.5466 -2.3623 -0.7325
  624MOL0     H82325   2.132   3.628   4.952 -0.4490 -0.0952  0.4054
  624MOL0     H82326   2.193   3.453   4.811 -0.3657  0.2029 -0.0227
  624MOL0     H82327   2.299   3.468   4.956  0.1607 -0.5977  0.0369
  624MOL0     H82328   2.256   3.226   4.907  0.5884  2.9909 -2.0035
  624MOL0     H82329   2.085   3.268   4.935 -0.1754 -0.9406 -0.1232
  624MOL0     H82330   2.454   3.217   4.966 -0.9124  3.1155 -1.0017
  624MOL0     H82331   2.660   3.180   5.075  1.3000  3.0315 -0.6040
  624MOL0     H82332   2.925   2.975   5.461  1.2056 -0.7452 -0.1007
  624MOL0     H82333   3.135   2.921   5.508 -1.8399 -1.6725 -2.8111
  624MOL0     H82334   3.336   2.818   5.389 -1.1291 -0.8605  1.7484
  624MOL0     H82335   3.351   2.882   5.552 -1.5719 -3.8511 -1.5070
  624MOL0     H82336   3.605   2.923   5.484  0.2654 -0.0525 -1.5764
  624MOL0     H82337   3.565   2.858   5.326 -1.5717 -3.3820 -1.2053
  624MOL0     H82338   3.513   2.652   5.402 -0.0004  3.2352 -3.0575
  624MOL0     H82339   3.525   2.688   5.579 -1.0786  1.8339 -1.1170
  624MOL0     H82340   3.757   2.731   5.387  1.6581 -3.2578 -0.7538
  624MOL0     H82341   3.761   2.713   5.553  0.7435 -0.4738  0.1631
  624MOL0     H82342   3.708   2.465   5.535 -0.4922 -1.3111 -0.7239
  624MOL0     H82343   3.849   2.522   5.458  0.4679 -1.2861  3.1180
  624MOL0     H82344   3.745   2.521   5.232  0.8017 -0.1920 -0.4928
  624MOL0     H82345   3.581   2.482   5.307  0.7826  1.1925 -3.4791
  624MOL0     H82346   3.680   2.272   5.393  2.1358  0.3026  0.7964
  624MOL0     H82347   3.648   2.274   5.224  2.4793  1.6735 -1.9938
  624MOL0     H82348   3.894   2.350   5.199 -1.7099 -0.6490 -2.0638
  624MOL0     H82349   3.847   2.177   5.197  2.8299 -0.1740 -0.5333
  624MOL0     H82350   3.299   3.198   5.248 -1.0000 -0.4368 -2.5678
  624MOL0     H82351   3.063   3.272   5.177 -0.7209 -0.9561 -0.5811
  624MOL0     H82352   2.476   3.266   5.461 -0.4597  3.0528  0.2357
  624MOL0     H82353   2.266   3.312   5.345  0.3545 -0.7996  2.1578
  624MOL0     H82354   1.363   4.548   5.453 -0.2649  2.1594 -2.3762
  624MOL0     H82355   1.318   4.808   5.395 -0.5752 -1.6993  0.1417
  624MOL0     H82356   1.554   5.349   5.624  2.9207 -0.6359 -2.3935
  624MOL0     H82357   1.498   5.561   5.512 -2.9322  1.8394  0.0193
  624MOL0     H82358   1.092   5.551   5.391  1.6585 -0.8675 -0.4159
  624MOL0     H82359   1.097   5.684   5.285 -0.2703  0.1140  0.7134
  624MOL0     H82360   1.060   5.748   5.524  0.5395  3.4463  1.3476
  624MOL0     H82361   1.222   5.668   5.556 -1.3780  0.7207  0.9526
  624MOL0     H82362   1.151   5.904   5.356 -1.7347  1.2404  2.4115
  624MOL0     H82363   1.316   5.833   5.393 -0.6546  1.9522 -1.3142
  624MOL0     H82364   1.254   6.056   5.454 -2.7763  0.4022 -1.9799
  624MOL0     H82365   1.119   6.011   5.546  0.4057  0.3055  4.4496
  624MOL0     H82366   1.392   5.904   5.851 -1.7706 -2.1469  0.5654
  624MOL0     H82367   1.210   5.373   5.271  2.1394  1.0545 -0.9661
  624MOL0     H82368   1.285   5.151   5.362  0.4973 -4.1571  3.4439
  625MOL0     O82369   4.450   7.235   9.278 -0.1903 -0.6422  0.2162
  625MOL0     C82370   4.454   7.336   9.201  0.3954  0.5594 -0.6641
  625MOL0     O82371   4.338   7.400   9.149 -0.9914 -0.5212 -0.4339
  625MOL0     C82372   4.214   7.349   9.166  0.0187 -0.0781 -0.3642
  625MOL0     C82373   4.168   7.258   9.256  0.7775 -0.5130  0.6523
  625MOL0     C82374   4.022   7.221   9.253 -0.1798  0.8223  0.1857
  625MOL0     C82375   3.939   7.264   9.148  0.2294  0.4421 -0.5311
  625MOL0     O82376   3.804   7.226   9.152 -0.2720  0.2950  0.5185
  625MOL0     C82377   3.755   7.132   9.053 -0.7005  0.1098 -0.1421
  625MOL0     C82378   3.679   7.010   9.111 -0.1854  0.4211 -0.3287
  625MOL0     C82379   3.765   6.932   9.212  0.8287  0.7851 -0.5243
  625MOL0     C82380   3.697   6.803   9.241 -0.3216  0.5655 -1.5051
  625MOL0     C82381   3.796   6.713   9.329  0.6422  0.7110  0.5671
  625MOL0     C82382   3.745   6.570   9.373  0.4107  0.4637 -0.8801
  625MOL0     C82383   3.614   6.584   9.462  0.9275  0.2631  0.6866
  625MOL0     C82384   3.589   6.452   9.543  0.6393 -0.7203 -0.4659
  625MOL0     N82385   3.473   6.457   9.635 -0.4623 -0.5307  0.8100
  625MOL0     C82386   3.495   6.428   9.765 -0.2410  0.6968 -0.7383
  625MOL0     C82387   3.369   6.410   9.805 -0.5741  0.6431 -0.2229
  625MOL0     C82388   3.321   6.383   9.940 -0.9753  0.1391  0.0757
  625MOL0     C82389   3.295   6.232   9.956  1.3281  0.2004  1.1736
  625MOL0     C82390   3.255   6.191  10.098  0.0089  0.9061 -0.0374
  625MOL0     C82391   3.183   6.296  10.185 -1.8352  0.0362  0.2663
  625MOL0     O82392   3.112   6.243  10.293 -0.2147  0.8635  0.9392
  625MOL0     C82393   3.047   6.332  10.373  0.3683 -0.4458  0.4458
  625MOL0     C82394   3.048   6.294  10.506 -0.1262 -0.3926 -0.4428
  625MOL0     C82395   2.985   6.375  10.598 -1.6247 -0.1468 -0.5344
  625MOL0     C82396   2.903   6.480  10.561 -0.2276 -0.1487 -0.0071
  625MOL0     C82397   2.830   6.558  10.660 -0.2246 -0.3011 -0.6596
  625MOL0     O82398   2.751   6.656  10.620 -0.3833 -0.1755 -0.9079
  625MOL0     C82399   2.717   6.764  10.709 -0.3139 -0.2205  0.7374
  625MOL0     C82400   2.754   6.895  10.665 -0.2423  0.0465  0.3919
  625MOL0     C82401   2.741   6.999  10.755 -0.1366  0.7137  0.3105
  625MOL0     C82402   2.698   6.973  10.891  0.1083 -0.8721  0.6522
  625MOL0     O82403   2.678   7.078  10.988  0.2651 -0.3260 -0.2734
  625MOL0     C82404   2.688   7.207  10.931  0.2755 -0.6261  0.3299
  625MOL0     C82405   2.653   7.317  11.033 -0.0730  0.0907  0.5623
  625MOL0     C82406   2.743   7.306  11.154 -0.2590  1.0933  0.0070
  625MOL0     C82407   2.729   7.424  11.254 -0.5875  0.2598 -0.1832
  625MOL0     C82408   2.803   7.407  11.389  0.7660  0.2011  0.8045
  625MOL0     C82409   2.777   7.536  11.455 -0.1813  0.1202 -0.5308
  625MOL0     C82410   2.841   7.544  11.590  0.2657 -0.1578 -0.5756
  625MOL0     C82411   2.994   7.549  11.598  0.0413  0.4139 -1.2133
  625MOL0    Cl82412   3.026   7.593  11.774  0.4824 -0.0931 -0.0391
  625MOL0     C82413   2.655   6.856  10.930  0.0598 -0.3844  0.7754
  625MOL0     C82414   2.671   6.752  10.834  0.6508  0.0109  0.3635
  625MOL0     O82415   2.848   6.510  10.779  0.2220 -0.6240 -0.6300
  625MOL0     C82416   2.885   6.498  10.421  0.8886 -0.5260 -1.5085
  625MOL0     C82417   2.964   6.437  10.333 -0.0250  0.3461  0.0210
  625MOL0     N82418   3.279   6.430   9.703 -0.9839  0.4540 -0.3264
  625MOL0     N82419   3.345   6.453   9.596  0.4131 -0.3019  0.3558
  625MOL0     C82420   3.996   7.351   9.060  0.2621 -1.1575  0.9995
  625MOL0     C82421   4.125   7.388   9.063  0.4984 -0.4265 -1.0311
  625MOL0     C82422   4.592   7.396   9.176  0.2345  0.4962  0.1101
  625MOL0     C82423   4.708   7.310   9.180  0.9348 -1.1899 -0.5870
  625MOL0     C82424   4.834   7.363   9.158 -0.2971 -0.7347 -0.2113
  625MOL0     C82425   4.849   7.506   9.135  0.2844 -0.4757  0.0366
  625MOL0     O82426   4.978   7.547   9.118  0.4812  0.0543 -0.0493
  625MOL0     C82427   5.029   7.576   8.990  0.3750 -0.3892  0.4197
  625MOL0     C82428   5.095   7.713   8.989 -0.4134 -0.2329 -0.4826
  625MOL0     C82429   5.206   7.723   9.094 -0.4942 -0.1895 -0.3811
  625MOL0     C82430   5.291   7.850   9.081  0.9044  0.5174 -1.3683
  625MOL0     C82431   5.230   7.983   9.081  0.2665  1.0147  1.0827
  625MOL0     C82432   5.206   8.102   9.087 -0.1609 -0.6789 -0.3185
  625MOL0     C82433   4.731   7.590   9.124 -0.1827 -0.2682  0.2588
  625MOL0     C82434   4.608   7.533   9.142 -0.3510 -0.2967 -0.8505
  625MOL0     H82435   4.225   7.209   9.333 -0.6499  1.7548  3.3377
  625MOL0     H82436   3.972   7.170   9.335 -2.7150  1.7989 -0.6303
  625MOL0     H82437   3.849   7.101   9.007 -1.4475  0.1749 -1.7659
  625MOL0     H82438   3.694   7.185   8.979 -0.9386 -0.8151 -0.6270
  625MOL0     H82439   3.653   6.950   9.023 -0.5359  1.3830 -0.8927
  625MOL0     H82440   3.579   7.038   9.147 -1.5203 -2.2589 -1.6332
  625MOL0     H82441   3.767   6.995   9.302  0.5204  1.2134 -0.8122
  625MOL0     H82442   3.868   6.907   9.188 -0.2263 -3.7459 -1.4114
  625MOL0     H82443   3.615   6.815   9.313  0.8167 -2.2619  0.4507
  625MOL0     H82444   3.688   6.747   9.147  0.2031  1.6268 -2.2069
  625MOL0     H82445   3.834   6.772   9.413  3.2613  0.1804 -0.1814
  625MOL0     H82446   3.886   6.701   9.268  1.2669  1.0803  1.3954
  625MOL0     H82447   3.830   6.514   9.415 -0.4082 -1.6073 -1.8351
  625MOL0     H82448   3.715   6.520   9.281  0.7075 -2.3264  0.4227
  625MOL0     H82449   3.630   6.663   9.536 -2.7498  0.9422  0.9550
  625MOL0     H82450   3.532   6.610   9.395  1.4181  0.8988  0.3121
  625MOL0     H82451   3.672   6.404   9.595 -0.1071 -3.2502 -1.4709
  625MOL0     H82452   3.566   6.369   9.476  2.7768 -1.5525 -0.2466
  625MOL0     H82453   3.587   6.421   9.822  0.6840 -2.6173 -2.3915
  625MOL0     H82454   3.236   6.452   9.944 -0.7645  0.5131 -1.2080
  625MOL0     H82455   3.398   6.402  10.015 -1.4925 -2.6536  1.4224
  625MOL0     H82456   3.374   6.172   9.910 -0.9065 -0.0233 -2.7707
  625MOL0     H82457   3.207   6.204   9.898  1.1451  0.6780  1.2201
  625MOL0     H82458   3.184   6.108  10.096 -1.3479  1.9808  1.3307
  625MOL0     H82459   3.346   6.158  10.148  1.6130  2.2692 -1.8734
  625MOL0     H82460   3.115   6.349  10.117  0.8665  1.4911 -1.4824
  625MOL0     H82461   3.259   6.363  10.225 -2.4160  0.8845 -0.0184
  625MOL0     H82462   3.104   6.203  10.527 -1.3759 -0.8579  1.1254
  625MOL0     H82463   3.002   6.369  10.705 -2.0120 -3.5033 -0.5382
  625MOL0     H82464   2.781   6.913  10.562 -2.4305  4.4108  0.3732
  625MOL0     H82465   2.756   7.103  10.728  0.6803  0.4336 -0.3532
  625MOL0     H82466   2.613   7.219  10.852  0.3619  0.9322  0.4397
  625MOL0     H82467   2.791   7.214  10.894  0.0286 -3.0663 -1.0695
  625MOL0     H82468   2.548   7.311  11.065 -0.5533 -3.3846 -1.1612
  625MOL0     H82469   2.666   7.412  10.981 -1.8416 -1.2925 -2.6863
  625MOL0     H82470   2.848   7.306  11.124 -0.1893  0.6153  0.2406
  625MOL0     H82471   2.723   7.213  11.209 -1.0326  1.2244 -0.0406
  625MOL0     H82472   2.770   7.502  11.188  3.1567 -1.9890 -0.8700
  625MOL0     H82473   2.624   7.437  11.280 -0.8633 -1.5945 -0.2233
  625MOL0     H82474   2.912   7.402  11.381  0.7281  0.2675  0.2559
  625MOL0     H82475   2.743   7.330  11.439 -0.7303  1.0702  0.3871
  625MOL0     H82476   2.668   7.538  11.467 -0.5085 -1.3597 -2.6617
  625MOL0     H82477   2.808   7.613  11.384 -3.2901  0.1711 -1.9859
  625MOL0     H82478   2.799   7.634  11.637 -0.0414 -1.3868  1.6817
  625MOL0     H82479   2.805   7.472  11.664 -1.9761  2.6580  1.3247
  625MOL0     H82480   3.036   7.601  11.511 -0.9161  1.2912 -1.1757
  625MOL0     H82481   3.037   7.449  11.592  1.7782  1.1366 -1.4599
  625MOL0     H82482   2.610   6.842  11.027  1.4774 -3.6792  1.1082
  625MOL0     H82483   2.654   6.648  10.858 -0.1960  0.6632  2.9169
  625MOL0     H82484   2.827   6.578  10.375  2.1489  1.7827  0.6523
  625MOL0     H82485   2.950   6.447  10.226  1.0494  2.3734  0.0170
  625MOL0     H82486   3.948   7.389   8.970  0.5659  0.0509  1.3306
  625MOL0     H82487   4.154   7.463   8.990 -2.8095  3.8058  1.5104
  625MOL0     H82488   4.702   7.203   9.194  0.5815 -0.9149  1.6569
  625MOL0     H82489   4.923   7.302   9.145 -1.4302 -2.3852 -0.4063
  625MOL0     H82490   4.954   7.562   8.912 -0.6409 -2.2932  1.6555
  625MOL0     H82491   5.114   7.508   8.982  1.2132  0.4819  1.5205
  625MOL0     H82492   5.135   7.741   8.891  2.5843 -0.8524  0.4542
  625MOL0     H82493   5.024   7.789   9.021  1.5840  2.2195 -1.5098
  625MOL0     H82494   5.268   7.634   9.106  0.8954  0.4655 -2.2291
  625MOL0     H82495   5.159   7.733   9.193  0.2937  4.2874 -0.2310
  625MOL0     H82496   5.350   7.864   9.172  0.9299  0.1630 -1.3304
  625MOL0     H82497   5.356   7.834   8.994  1.1730 -2.7281 -0.6659
  625MOL0     H82498   5.198   8.208   9.102  0.3104 -0.6623 -0.1786
  625MOL0     H82499   4.725   7.698   9.124  0.6240 -0.1991 -1.3449
  625MOL0     H82500   4.522   7.599   9.131  0.3139  0.7088 -0.1792
  626MOL0     O82501   2.780   8.591   5.654  0.1306 -0.1923  0.0573
  626MOL0     C82502   2.871   8.540   5.590  0.0393  0.5631 -0.1616
  626MOL0     O82503   2.947   8.615   5.499  0.9891 -0.6203 -0.8966
  626MOL0     C82504   2.917   8.750   5.490  0.7843 -1.0258  0.8867
  626MOL0     C82505   2.977   8.833   5.583 -0.3457 -0.5686  0.9140
  626MOL0     C82506   2.968   8.975   5.568 -0.9236  0.1112 -0.9422
  626MOL0     C82507   2.888   9.035   5.469 -1.0066 -0.6471  1.4587
  626MOL0     O82508   2.885   9.174   5.457  1.0420 -0.8993 -0.5569
  626MOL0     C82509   2.748   9.223   5.502  0.9078 -0.0207 -0.0709
  626MOL0     C82510   2.670   9.257   5.371 -0.7678  0.1952 -0.6154
  626MOL0     C82511   2.524   9.287   5.396 -1.1004 -0.5970 -1.1751
  626MOL0     C82512   2.443   9.324   5.260  0.2507  0.1759  0.9955
  626MOL0     C82513   2.288   9.326   5.259 -0.0812  0.2799 -0.9179
  626MOL0     C82514   2.231   9.304   5.118 -0.9833  0.6357  0.1075
  626MOL0     C82515   2.086   9.258   5.156 -0.0647  0.4364 -0.2561
  626MOL0     C82516   2.005   9.281   5.030  0.3929 -0.2291 -0.3730
  626MOL0     N82517   1.862   9.252   5.056 -0.0658 -0.0147 -0.6162
  626MOL0     C82518   1.776   9.172   4.988  0.3648 -0.2879 -0.4382
  626MOL0     C82519   1.658   9.187   5.050  0.7570 -0.3921  0.6967
  626MOL0     C82520   1.535   9.106   5.000  0.9236  0.3675 -0.0745
  626MOL0     C82521   1.497   8.987   5.093 -0.8039 -0.9188  0.0876
  626MOL0     C82522   1.411   9.035   5.212  0.1820 -0.7851  0.1724
  626MOL0     C82523   1.432   8.940   5.325 -0.6421  0.2916 -0.6228
  626MOL0     O82524   1.339   8.945   5.433  0.7381 -0.1001  0.2699
  626MOL0     C82525   1.358   9.043   5.529  0.6028 -0.0545 -0.3203
  626MOL0     C82526   1.265   9.051   5.643  0.0705  0.6206 -0.5837
  626MOL0     C82527   1.276   9.161   5.739  0.4086  1.4788  0.3287
  626MOL0     C82528   1.388   9.240   5.751  0.3452 -0.7741  0.2013
  626MOL0     C82529   1.388   9.342   5.859  0.7533 -0.3749 -0.5716
  626MOL0     O82530   1.493   9.428   5.856 -0.7162  0.4326  0.6582
  626MOL0     C82531   1.493   9.539   5.941 -1.1839 -0.7707 -0.7130
  626MOL0     C82532   1.398   9.644   5.936 -0.9215 -0.1351  0.5664
  626MOL0     C82533   1.401   9.753   6.022 -0.3362  0.2205 -1.0251
  626MOL0     C82534   1.499   9.768   6.122  0.2895  0.4451 -0.4563
  626MOL0     O82535   1.487   9.875   6.206  0.6820  0.1223 -0.4227
  626MOL0     C82536   1.566   9.886   6.322  0.0860  0.7799 -0.0539
  626MOL0     C82537   1.534  10.013   6.415 -1.1784  0.7485 -0.1140
  626MOL0     C82538   1.401  10.004   6.504  0.0749 -0.2114 -0.8290
  626MOL0     C82539   1.271   9.972   6.433 -0.0298 -0.3335 -0.1964
  626MOL0     C82540   1.157   9.958   6.535 -0.0276 -0.5138 -0.9650
  626MOL0     C82541   1.016   9.941   6.479  0.2171  0.1214  0.5538
  626MOL0     C82542   0.907   9.991   6.568  0.8350  0.5413 -0.2496
  626MOL0     C82543   0.774   9.977   6.492  0.1175 -0.0443  1.3434
  626MOL0    Cl82544   0.707   9.819   6.521 -0.4230 -0.0220 -0.5040
  626MOL0     C82545   1.587   9.664   6.123 -0.1539 -0.4120  0.4687
  626MOL0     C82546   1.589   9.557   6.039  0.5506  0.0233  1.4014
  626MOL0     O82547   1.304   9.336   5.953  0.6852  0.6185 -0.5226
  626MOL0     C82548   1.479   9.234   5.641 -0.2155 -0.4386 -0.6615
  626MOL0     C82549   1.459   9.139   5.533  0.5603  1.2859  0.6338
  626MOL0     N82550   1.661   9.273   5.152  0.0465  0.6640  0.0210
  626MOL0     N82551   1.787   9.317   5.150 -0.3886  0.5602 -0.8103
  626MOL0     C82552   2.828   8.948   5.380  0.3096  0.3350  0.4816
  626MOL0     C82553   2.841   8.808   5.388  0.6585 -0.0822  0.2561
  626MOL0     C82554   2.908   8.395   5.617  1.2081 -0.1831  1.0392
  626MOL0     C82555   3.034   8.356   5.580 -0.5861 -0.0736  0.3438
  626MOL0     C82556   3.073   8.225   5.614  0.0717  0.4722 -0.1253
  626MOL0     C82557   2.990   8.134   5.673  0.4807 -0.2034 -0.6886
  626MOL0     O82558   3.019   7.997   5.682  0.0639 -0.1215 -0.3012
  626MOL0     C82559   3.161   7.954   5.662  1.1691  0.0968 -0.0184
  626MOL0     C82560   3.163   7.798   5.656  0.1547 -0.5135 -1.2563
  626MOL0     C82561   3.212   7.721   5.783  0.6223 -0.5827  0.2779
  626MOL0     C82562   3.146   7.766   5.908 -0.4754 -1.0679  0.3290
  626MOL0     C82563   3.144   7.682   6.026 -0.4396  0.2326 -0.0969
  626MOL0     C82564   3.121   7.600   6.116 -0.6019  0.2712 -0.0040
  626MOL0     C82565   2.858   8.170   5.701  0.3456  0.2953 -1.2519
  626MOL0     C82566   2.816   8.302   5.678 -0.2318 -0.1442 -0.0563
  626MOL0     H82567   3.030   8.788   5.666  0.0289 -0.5680  0.6801
  626MOL0     H82568   3.017   9.044   5.636 -2.0439  2.2605 -2.2153
  626MOL0     H82569   2.757   9.320   5.553  0.3422  0.3802 -0.7211
  626MOL0     H82570   2.681   9.156   5.557  0.5161  1.5196  1.4331
  626MOL0     H82571   2.683   9.177   5.298 -3.5791  0.4075 -1.4365
  626MOL0     H82572   2.719   9.348   5.336 -1.6422  1.3973  1.1189
  626MOL0     H82573   2.512   9.376   5.459 -2.0954 -2.8763  2.1606
  626MOL0     H82574   2.469   9.206   5.444 -0.9675 -0.4085 -0.6920
  626MOL0     H82575   2.490   9.420   5.234 -0.3300 -0.2488 -1.9106
  626MOL0     H82576   2.474   9.252   5.184  1.9329  0.0150  1.7877
  626MOL0     H82577   2.249   9.420   5.298  0.8046  0.1965  0.2534
  626MOL0     H82578   2.268   9.250   5.335  0.2967 -0.0490 -1.1390
  626MOL0     H82579   2.288   9.223   5.071 -0.5662 -0.0370  1.7035
  626MOL0     H82580   2.244   9.397   5.062  0.9074 -0.8711 -2.1264
  626MOL0     H82581   2.071   9.154   5.189  0.4835 -0.2288 -1.9669
  626MOL0     H82582   2.041   9.327   5.228 -0.2679 -0.1327  0.1742
  626MOL0     H82583   2.062   9.229   4.952 -0.9967 -0.3797 -1.3146
  626MOL0     H82584   2.018   9.388   5.013 -0.1351  0.7777  4.2343
  626MOL0     H82585   1.799   9.114   4.899 -1.5542 -0.2026 -1.0210
  626MOL0     H82586   1.565   9.069   4.901  3.0968  2.4362 -0.2765
  626MOL0     H82587   1.450   9.174   4.993 -0.3202 -0.9875  1.1701
  626MOL0     H82588   1.587   8.933   5.124  0.0617 -0.3810 -1.3498
  626MOL0     H82589   1.447   8.904   5.041  0.1697 -1.1293 -0.5443
  626MOL0     H82590   1.416   9.141   5.240  2.0539 -0.8515  0.1881
  626MOL0     H82591   1.307   9.022   5.178  0.4152 -1.3158 -0.3473
  626MOL0     H82592   1.533   8.945   5.365 -0.2644 -2.2323 -1.0713
  626MOL0     H82593   1.433   8.837   5.287 -0.6420 -0.9346  2.4309
  626MOL0     H82594   1.172   8.995   5.636  1.0135 -1.1847  0.5276
  626MOL0     H82595   1.200   9.181   5.813  1.2811  5.7927  0.2941
  626MOL0     H82596   1.324   9.628   5.858 -0.2741 -1.4090  0.1948
  626MOL0     H82597   1.319   9.823   6.017 -0.8824 -0.1596  1.3856
  626MOL0     H82598   1.673   9.880   6.298  0.5101 -0.0708  1.8701
  626MOL0     H82599   1.545   9.808   6.395 -3.8428  2.7357  1.1895
  626MOL0     H82600   1.524  10.104   6.355  3.2725 -0.6438 -3.4718
  626MOL0     H82601   1.615  10.033   6.486 -2.0529  1.4355  0.7148
  626MOL0     H82602   1.412  10.090   6.572  1.2482 -0.8923 -0.1218
  626MOL0     H82603   1.422   9.922   6.572  1.5416  1.2571  0.5787
  626MOL0     H82604   1.250  10.058   6.368 -0.4811  1.5239  2.2731
  626MOL0     H82605   1.271   9.878   6.377 -1.1988 -1.3968  1.4821
  626MOL0     H82606   1.172  10.048   6.595 -1.2003  0.3853 -1.9597
  626MOL0     H82607   1.178   9.872   6.599 -0.3132 -0.4264 -0.7566
  626MOL0     H82608   0.988   9.836   6.467  0.8116  0.0681 -0.4877
  626MOL0     H82609   1.009   9.979   6.377  1.6994  1.1539  0.8053
  626MOL0     H82610   0.912   9.943   6.666  3.3011  0.6482 -0.2662
  626MOL0     H82611   0.933  10.096   6.583  0.9687  0.6094 -0.9331
  626MOL0     H82612   0.785   9.989   6.384 -2.0219  1.2139  1.1995
  626MOL0     H82613   0.693  10.047   6.517 -0.4523  0.2438 -1.1001
  626MOL0     H82614   1.661   9.671   6.203  2.3571 -0.3794 -1.7232
  626MOL0     H82615   1.679   9.498   6.054  1.4884  0.8752 -0.5796
  626MOL0     H82616   1.550   9.315   5.630 -1.7522  0.9087 -1.1690
  626MOL0     H82617   1.520   9.156   5.444  1.2580  2.7727  1.3745
  626MOL0     H82618   2.769   9.000   5.306 -1.7872 -0.4326  1.5310
  626MOL0     H82619   2.804   8.741   5.312  1.3776 -2.3550  1.7843
  626MOL0     H82620   3.104   8.421   5.527 -2.4426  3.6511  2.0776
  626MOL0     H82621   3.178   8.207   5.595 -0.3100  0.2378 -2.2506
  626MOL0     H82622   3.234   7.990   5.735 -0.2467  1.6660  0.6812
  626MOL0     H82623   3.190   7.981   5.560  4.4474 -5.7722 -1.1025
  626MOL0     H82624   3.065   7.759   5.628 -0.4198 -1.4087  1.6256
  626MOL0     H82625   3.229   7.759   5.578 -0.7793  0.9261 -2.8253
  626MOL0     H82626   3.319   7.739   5.790  0.5736 -0.0734 -0.2400
  626MOL0     H82627   3.190   7.617   5.755  0.5475  0.1998 -2.8803
  626MOL0     H82628   3.205   7.849   5.947 -1.2361 -0.8186  0.9894
  626MOL0     H82629   3.043   7.800   5.894 -0.4584 -0.8769  0.6469
  626MOL0     H82630   3.086   7.547   6.202  0.7849  1.1259  1.1322
  626MOL0     H82631   2.785   8.093   5.724  1.2524 -0.9112 -2.3150
  626MOL0     H82632   2.716   8.332   5.706  0.6569  3.0659  0.1242
  627MOL0     O82633   2.046   5.349   5.660  0.6147  0.6828 -0.0223
  627MOL0     C82634   2.152   5.301   5.618  0.6501  0.3560  0.3687
  627MOL0     O82635   2.198   5.294   5.482  0.7301 -0.3192 -0.4740
  627MOL0     C82636   2.105   5.342   5.396 -0.2802 -0.6609 -0.2074
  627MOL0     C82637   2.058   5.478   5.396 -1.0420  0.6784  0.2572
  627MOL0     C82638   1.958   5.515   5.309  0.0813 -0.4676  0.1511
  627MOL0     C82639   1.900   5.424   5.220 -0.0912 -0.6835 -0.6778
  627MOL0     O82640   1.798   5.448   5.134  0.4509 -0.1051  0.0184
  627MOL0     C82641   1.760   5.591   5.126  0.2191 -0.1701 -1.2804
  627MOL0     C82642   1.647   5.624   5.032  0.4941  0.3462 -0.6248
  627MOL0     C82643   1.512   5.547   5.046  0.3231 -1.0617  1.1494
  627MOL0     C82644   1.398   5.608   4.967  0.1604 -0.6658 -0.3386
  627MOL0     C82645   1.413   5.593   4.811  0.2861 -0.5904  0.6839
  627MOL0     C82646   1.277   5.622   4.737  0.0498 -1.5837  0.0989
  627MOL0     C82647   1.285   5.610   4.581 -0.4654  0.1375  0.2742
  627MOL0     C82648   1.146   5.653   4.521 -0.0399  0.1905 -0.0482
  627MOL0     N82649   1.069   5.545   4.454  0.0062  0.2262 -0.4102
  627MOL0     C82650   1.047   5.419   4.504 -0.2646  1.3157 -0.2180
  627MOL0     C82651   0.974   5.359   4.404  0.7057  0.2985  0.1091
  627MOL0     C82652   0.899   5.231   4.396  0.3322  0.4053  0.0099
  627MOL0     C82653   0.996   5.110   4.410  0.0870  1.6783 -0.8024
  627MOL0     C82654   0.978   5.019   4.535  0.6520 -0.2095 -0.1576
  627MOL0     C82655   0.843   4.947   4.536  0.8760  0.0518 -0.2732
  627MOL0     O82656   0.842   4.820   4.609  0.2963  0.4673  0.4203
  627MOL0     C82657   0.920   4.818   4.725  0.3493 -0.5409 -0.1849
  627MOL0     C82658   0.990   4.697   4.753 -0.0369  0.4022 -0.7205
  627MOL0     C82659   1.079   4.688   4.865 -0.4276 -0.1288  0.0962
  627MOL0     C82660   1.086   4.794   4.959  0.8123  0.4520  0.6056
  627MOL0     C82661   1.178   4.791   5.075 -0.0784  0.1705 -0.6814
  627MOL0     O82662   1.307   4.734   5.045  0.3705  0.8721 -1.1833
  627MOL0     C82663   1.422   4.791   5.104 -0.0805 -0.2644  1.4783
  627MOL0     C82664   1.547   4.717   5.093  0.7896  0.0202  0.2508
  627MOL0     C82665   1.663   4.776   5.144  0.4205  0.0772  0.2906
  627MOL0     C82666   1.653   4.901   5.211 -0.0269 -0.2762  0.7934
  627MOL0     O82667   1.770   4.954   5.255  0.3313 -0.6407 -0.2212
  627MOL0     C82668   1.782   4.944   5.390 -0.6822  0.8816 -1.0326
  627MOL0     C82669   1.858   4.822   5.434 -0.1279 -0.6492 -0.5113
  627MOL0     C82670   1.835   4.791   5.587 -0.1425 -0.0226  0.2239
  627MOL0     C82671   1.973   4.799   5.667  0.5511 -0.4811 -1.1186
  627MOL0     C82672   1.973   4.812   5.816 -0.0229  0.3234  0.1243
  627MOL0     C82673   1.873   4.912   5.874  0.4503 -0.5082 -0.6777
  627MOL0     C82674   1.887   5.058   5.816  0.0311  1.0627 -0.6968
  627MOL0     C82675   1.799   5.157   5.896  0.1514 -0.2776  0.0075
  627MOL0    Cl82676   1.837   5.157   6.062 -0.2330  0.3868 -0.2136
  627MOL0     C82677   1.540   4.980   5.216  0.8932 -0.3092  0.0705
  627MOL0     C82678   1.429   4.931   5.148  0.7176  0.4636  0.4244
  627MOL0     O82679   1.143   4.856   5.179  0.4629  0.1159  0.1701
  627MOL0     C82680   1.003   4.904   4.937 -0.9996  0.2958 -0.6728
  627MOL0     C82681   0.923   4.917   4.825  0.1407  0.5336 -0.5042
  627MOL0     N82682   0.953   5.451   4.300  0.0981  0.2842 -0.0754
  627MOL0     N82683   1.013   5.558   4.331  0.2286  0.5159  0.4783
  627MOL0     C82684   1.947   5.295   5.226  0.0775 -0.5637 -0.0600
  627MOL0     C82685   2.050   5.252   5.300  0.2962  0.2965 -0.0269
  627MOL0     C82686   2.248   5.243   5.715  0.3467  1.0108  0.7214
  627MOL0     C82687   2.364   5.178   5.666 -1.0002 -0.7791 -0.0271
  627MOL0     C82688   2.447   5.109   5.753 -0.7946  0.0950 -0.1930
  627MOL0     C82689   2.434   5.115   5.897 -0.0138 -0.1299  0.5284
  627MOL0     O82690   2.526   5.035   5.968  0.6897 -0.1083  1.2061
  627MOL0     C82691   2.513   5.023   6.108 -0.0773 -0.0153 -1.1533
  627MOL0     C82692   2.620   4.922   6.151  0.8671 -0.9518 -0.0234
  627MOL0     C82693   2.757   4.967   6.106 -0.5241 -0.5020 -1.0534
  627MOL0     C82694   2.858   4.865   6.153 -1.1602  1.3810  0.2883
  627MOL0     C82695   2.882   4.868   6.300  0.7624 -0.1061  0.7092
  627MOL0     C82696   2.891   4.861   6.421  1.4317 -1.6185  0.0799
  627MOL0     C82697   2.321   5.187   5.945 -0.5541 -0.1307  0.0372
  627MOL0     C82698   2.232   5.245   5.857 -0.5841 -0.8039  0.4781
  627MOL0     H82699   2.082   5.552   5.473 -0.8338 -0.5868  1.4408
  627MOL0     H82700   1.938   5.621   5.322  0.0415 -0.6233  1.5458
  627MOL0     H82701   1.849   5.640   5.087  1.2760  0.9275  2.1502
  627MOL0     H82702   1.721   5.626   5.222  1.1260 -1.1909 -0.5105
  627MOL0     H82703   1.677   5.618   4.927 -2.8667  2.0332 -1.8215
  627MOL0     H82704   1.620   5.729   5.047 -1.5596 -0.2634  0.3613
  627MOL0     H82705   1.481   5.558   5.150 -1.1480  0.7485  0.5710
  627MOL0     H82706   1.520   5.446   5.006 -0.4894 -0.1208 -1.6125
  627MOL0     H82707   1.305   5.555   4.989 -0.2041 -0.1746 -0.6710
  627MOL0     H82708   1.383   5.712   4.995 -0.8178 -0.6457 -0.8972
  627MOL0     H82709   1.436   5.492   4.776 -0.7566 -0.7763  0.4880
  627MOL0     H82710   1.498   5.652   4.774 -0.8576 -1.1825 -3.4816
  627MOL0     H82711   1.233   5.719   4.762 -1.1179 -1.7102 -1.2982
  627MOL0     H82712   1.201   5.550   4.769 -0.0257 -1.7611 -0.4650
  627MOL0     H82713   1.366   5.674   4.544  2.2599 -3.7583 -1.1701
  627MOL0     H82714   1.316   5.507   4.562 -3.8899 -1.1374  0.8661
  627MOL0     H82715   1.164   5.725   4.441 -0.5679 -1.5270 -1.8157
  627MOL0     H82716   1.095   5.700   4.606 -0.6219 -2.4876  1.2005
  627MOL0     H82717   1.061   5.375   4.602 -1.0815 -0.0293 -0.6741
  627MOL0     H82718   0.839   5.236   4.304 -0.2228  2.1740  0.4343
  627MOL0     H82719   0.828   5.225   4.478  3.5374  0.7696  3.0563
  627MOL0     H82720   1.101   5.140   4.414  0.5135  0.1434  0.5083
  627MOL0     H82721   0.978   5.040   4.328 -1.8164  0.9058  0.2021
  627MOL0     H82722   1.056   4.942   4.533  0.4055 -0.4493 -0.5070
  627MOL0     H82723   0.989   5.073   4.630  1.0448 -0.5542  0.0027
  627MOL0     H82724   0.808   4.929   4.434  2.3566  2.7502 -1.3662
  627MOL0     H82725   0.769   5.018   4.573  1.5237  2.4199 -3.1994
  627MOL0     H82726   0.979   4.614   4.684 -3.7313 -0.4144  0.5930
  627MOL0     H82727   1.132   4.595   4.884 -2.3068 -0.6963  3.4999
  627MOL0     H82728   1.542   4.622   5.042  2.9304 -1.1517  2.0537
  627MOL0     H82729   1.758   4.725   5.139 -0.5312 -1.9144  1.2851
  627MOL0     H82730   1.685   4.954   5.440 -0.1826  5.5695 -0.5497
  627MOL0     H82731   1.829   5.027   5.443 -0.1513 -2.3124  4.1999
  627MOL0     H82732   1.965   4.820   5.410  0.5174 -2.7087  2.1152
  627MOL0     H82733   1.813   4.733   5.390 -0.5834 -1.2955  1.1906
  627MOL0     H82734   1.787   4.693   5.597  0.1622 -0.0692  1.3367
  627MOL0     H82735   1.769   4.869   5.625  1.6164  1.7792 -0.2604
  627MOL0     H82736   2.031   4.713   5.634 -0.0666 -1.4408  0.2356
  627MOL0     H82737   2.017   4.896   5.639  0.6107 -0.3887 -0.7185
  627MOL0     H82738   2.072   4.836   5.856 -0.6469  1.2717  1.1600
  627MOL0     H82739   1.946   4.715   5.858 -1.9686  0.8335  0.1557
  627MOL0     H82740   1.866   4.918   5.983 -3.2975 -2.4631 -0.6846
  627MOL0     H82741   1.772   4.880   5.850 -0.6231  1.6379  0.6517
  627MOL0     H82742   1.989   5.097   5.828  1.1578 -1.6072 -0.6840
  627MOL0     H82743   1.864   5.068   5.710  2.2890 -0.5978 -1.4281
  627MOL0     H82744   1.693   5.143   5.873 -0.0133 -1.3153  1.2911
  627MOL0     H82745   1.825   5.259   5.865 -2.4008  1.0877  1.9811
  627MOL0     H82746   1.541   5.081   5.257 -1.6282 -0.1786 -0.0506
  627MOL0     H82747   1.344   4.998   5.152 -1.3063 -2.0025  1.4024
  627MOL0     H82748   0.997   4.992   5.001  0.5943  1.9951 -2.7137
  627MOL0     H82749   0.875   5.012   4.804  0.0134  1.0706  1.9428
  627MOL0     H82750   1.919   5.221   5.151  2.1771 -1.2918 -0.1864
  627MOL0     H82751   2.079   5.148   5.300 -2.6557 -0.7078  2.6496
  627MOL0     H82752   2.381   5.168   5.559  4.7563 -2.9404  0.7038
  627MOL0     H82753   2.523   5.049   5.704  0.8351  1.5097  0.4718
  627MOL0     H82754   2.413   4.987   6.134 -0.6373  0.9788 -1.8595
  627MOL0     H82755   2.529   5.117   6.162  0.1208  0.4775 -2.0607
  627MOL0     H82756   2.612   4.915   6.259  1.2539 -0.1331  0.0647
  627MOL0     H82757   2.588   4.829   6.103  1.5315 -0.4895 -1.4323
  627MOL0     H82758   2.787   5.066   6.140 -1.4235 -0.5375 -0.1057
  627MOL0     H82759   2.761   4.972   5.997 -4.0384 -2.3173 -1.3970
  627MOL0     H82760   2.818   4.765   6.135 -0.3502  0.6239  2.3362
  627MOL0     H82761   2.955   4.871   6.102  0.7164 -1.7736  3.0236
  627MOL0     H82762   2.882   4.859   6.528  3.2377  0.6080  0.3492
  627MOL0     H82763   2.288   5.209   6.046  1.8558  0.6525  0.7314
  627MOL0     H82764   2.143   5.299   5.886 -1.1362 -1.1269 -0.5665
  628MOL0     O82765   0.700   6.198   4.938  0.3783  0.9944 -0.4591
  628MOL0     C82766   0.743   6.179   4.824  0.1942 -0.1991  0.2720
  628MOL0     O82767   0.833   6.262   4.761  0.2590 -0.5475 -0.0834
  628MOL0     C82768   0.872   6.375   4.832  0.3146 -0.7142 -0.0807
  628MOL0     C82769   0.980   6.393   4.919 -0.0015  0.8314 -0.3980
  628MOL0     C82770   0.998   6.520   4.966  0.3781 -0.0581 -1.1632
  628MOL0     C82771   0.916   6.635   4.935  0.9941  0.5963  0.3799
  628MOL0     O82772   0.936   6.767   4.976  0.1227 -0.2488 -1.1527
  628MOL0     C82773   1.055   6.796   5.046 -0.2534  0.1574 -0.0060
  628MOL0     C82774   1.035   6.769   5.194  0.1925 -0.2211  0.2078
  628MOL0     C82775   1.146   6.820   5.272 -0.0146 -0.0432  0.4540
  628MOL0     C82776   1.180   6.972   5.253  0.6415 -0.6860 -0.2374
  628MOL0     C82777   1.220   7.024   5.394  0.4457  0.5502 -0.9779
  628MOL0     C82778   1.249   7.175   5.405  0.2484 -0.2598  0.7502
  628MOL0     C82779   1.247   7.207   5.554 -0.0491  0.2627 -0.2271
  628MOL0     C82780   1.231   7.360   5.589  0.4621  1.5123 -0.3328
  628MOL0     N82781   1.191   7.391   5.729 -0.6187  0.9333  0.5948
  628MOL0     C82782   1.278   7.427   5.834  0.4856  0.3437 -0.3097
  628MOL0     C82783   1.194   7.440   5.945 -0.9899 -1.1360  0.1016
  628MOL0     C82784   1.238   7.470   6.086 -1.0522 -0.1115  1.5258
  628MOL0     C82785   1.131   7.536   6.173 -0.1058  0.3302 -0.2435
  628MOL0     C82786   1.177   7.554   6.323 -0.4635 -0.5815 -0.2768
  628MOL0     C82787   1.074   7.628   6.408  0.4695 -0.3528 -0.2423
  628MOL0     O82788   1.096   7.768   6.403 -0.1748  0.3213 -0.1854
  628MOL0     C82789   1.141   7.817   6.520 -0.8324 -0.3513  0.6964
  628MOL0     C82790   1.067   7.854   6.634  1.1034  0.9526 -0.2158
  628MOL0     C82791   1.133   7.912   6.744  0.3421  0.0894  0.4464
  628MOL0     C82792   1.270   7.923   6.749 -0.2695 -0.9754 -0.2047
  628MOL0     C82793   1.335   7.984   6.870 -0.0880 -0.5106 -0.1285
  628MOL0     O82794   1.255   8.020   6.977 -0.4014 -0.6692 -0.4254
  628MOL0     C82795   1.306   8.085   7.091 -0.0163 -0.7403  0.4156
  628MOL0     C82796   1.265   8.212   7.132 -0.4704 -0.1198 -0.4595
  628MOL0     C82797   1.319   8.276   7.247 -0.0634 -0.3062  0.2076
  628MOL0     C82798   1.402   8.203   7.331 -0.9585 -0.2261 -0.3491
  628MOL0     O82799   1.434   8.249   7.462 -0.4283 -0.5973  1.3538
  628MOL0     C82800   1.568   8.312   7.458 -0.7741  0.8063  1.1835
  628MOL0     C82801   1.576   8.417   7.567 -1.2808  0.4830 -0.1408
  628MOL0     C82802   1.587   8.350   7.705 -0.7117 -1.0030 -0.0292
  628MOL0     C82803   1.553   8.448   7.819 -0.1052  0.4735 -0.5878
  628MOL0     C82804   1.602   8.395   7.951  0.4916  0.0234 -0.0422
  628MOL0     C82805   1.568   8.485   8.072  0.5701  0.2016  0.2734
  628MOL0     C82806   1.665   8.609   8.063  0.9610  0.1538 -0.6000
  628MOL0     C82807   1.670   8.677   8.203 -0.7427  0.0103  0.6957
  628MOL0    Cl82808   1.726   8.843   8.174  0.0826  0.2354  0.1583
  628MOL0     C82809   1.448   8.078   7.293  0.8515 -0.4572 -0.2288
  628MOL0     C82810   1.406   8.024   7.173  0.0304  0.1765  0.3445
  628MOL0     O82811   1.460   8.002   6.865 -1.0726 -0.3658  0.1875
  628MOL0     C82812   1.349   7.879   6.639 -0.3133  0.4939 -0.1255
  628MOL0     C82813   1.277   7.836   6.529 -0.0060  1.2081 -0.8183
  628MOL0     N82814   1.063   7.411   5.912  0.1781 -0.1599  1.0131
  628MOL0     N82815   1.069   7.373   5.784 -0.4845 -0.4164 -0.6021
  628MOL0     C82816   0.816   6.623   4.838 -1.0442  0.2834  0.4834
  628MOL0     C82817   0.803   6.494   4.780 -0.1504 -0.9490 -0.5410
  628MOL0     C82818   0.714   6.056   4.753  1.7353  0.2481 -0.4691
  628MOL0     C82819   0.795   5.987   4.665  0.3466 -0.0616 -1.0944
  628MOL0     C82820   0.759   5.880   4.582  0.6332  0.3231  0.3976
  628MOL0     C82821   0.633   5.825   4.600 -0.0265 -0.8056 -0.6331
  628MOL0     O82822   0.582   5.736   4.512 -1.2935 -0.4615  0.0624
  628MOL0     C82823   0.665   5.626   4.458  0.2252  0.0281  0.0573
  628MOL0     C82824   0.594   5.485   4.480  0.6309  0.3687 -0.1098
  628MOL0     C82825   0.587   5.454   4.634 -0.9640  0.7750  0.4506
  628MOL0     C82826   0.515   5.314   4.637 -0.8933 -0.2120  1.0401
  628MOL0     C82827   0.535   5.213   4.529 -0.8378  0.0544  0.2432
  628MOL0     C82828   0.530   5.130   4.437  0.2515 -0.6031 -0.3367
  628MOL0     C82829   0.550   5.864   4.710  0.0963  0.1670  0.6391
  628MOL0     C82830   0.591   5.983   4.784 -0.5462  1.0633 -0.8365
  628MOL0     H82831   1.033   6.307   4.958 -4.4546 -1.1877  1.8835
  628MOL0     H82832   1.079   6.539   5.035 -1.9812  0.6013  1.6187
  628MOL0     H82833   1.079   6.899   5.019 -1.2749 -0.4994 -4.2944
  628MOL0     H82834   1.139   6.730   5.022  0.5406  0.4842  1.7618
  628MOL0     H82835   1.027   6.666   5.230  1.5427  0.9172  4.3259
  628MOL0     H82836   0.945   6.820   5.228  0.2307 -0.8720  1.3184
  628MOL0     H82837   1.237   6.760   5.260 -0.4671 -0.5971 -0.3095
  628MOL0     H82838   1.115   6.799   5.375 -1.3139 -2.1723 -0.2977
  628MOL0     H82839   1.253   6.996   5.175  0.0075 -0.7236 -0.8460
  628MOL0     H82840   1.083   7.018   5.232  0.1295 -0.3324  2.5574
  628MOL0     H82841   1.301   6.958   5.427 -1.6297 -2.8981 -2.1973
  628MOL0     H82842   1.144   6.996   5.467  2.0177  2.0036  1.3620
  628MOL0     H82843   1.169   7.221   5.347  1.8538  2.6842  0.6666
  628MOL0     H82844   1.347   7.197   5.361 -0.8373  1.2222 -1.0981
  628MOL0     H82845   1.158   7.162   5.600 -0.4891  1.2101 -0.1183
  628MOL0     H82846   1.330   7.163   5.611  1.7548  2.9879 -0.5602
  628MOL0     H82847   1.162   7.407   5.519 -0.8193  1.3907  0.8236
  628MOL0     H82848   1.332   7.401   5.577  0.8565  0.3061 -1.5238
  628MOL0     H82849   1.384   7.451   5.836  0.5328  0.2088 -0.8114
  628MOL0     H82850   1.326   7.535   6.080 -1.3646  0.1461 -1.9578
  628MOL0     H82851   1.279   7.374   6.120 -1.2648 -0.3912  0.9887
  628MOL0     H82852   1.042   7.475   6.192  0.0052  0.5005  0.9216
  628MOL0     H82853   1.107   7.632   6.127  0.4578  0.3925 -0.4197
  628MOL0     H82854   1.193   7.460   6.376 -0.8102 -0.7151 -0.4037
  628MOL0     H82855   1.271   7.609   6.324 -1.3032  1.0062  2.3929
  628MOL0     H82856   1.064   7.590   6.510 -1.7107 -0.2946 -0.3732
  628MOL0     H82857   0.975   7.602   6.368 -0.3571 -0.7942  1.9264
  628MOL0     H82858   0.959   7.851   6.635  1.0334 -1.2492 -2.9406
  628MOL0     H82859   1.072   7.948   6.826 -2.1081 -1.8097 -0.4058
  628MOL0     H82860   1.204   8.273   7.065 -0.7850  0.1745  0.0908
  628MOL0     H82861   1.279   8.376   7.260  1.3549  0.4418 -0.8729
  628MOL0     H82862   1.597   8.356   7.362 -0.0382  0.5715  1.2930
  628MOL0     H82863   1.646   8.238   7.479  2.4185  3.1558 -1.2934
  628MOL0     H82864   1.496   8.489   7.549  1.9938  4.4504 -0.2817
  628MOL0     H82865   1.669   8.471   7.548  0.1299 -0.9023  2.3532
  628MOL0     H82866   1.690   8.318   7.726  0.1727  0.6827 -1.5159
  628MOL0     H82867   1.516   8.267   7.710 -2.1901  0.1915 -0.3178
  628MOL0     H82868   1.600   8.545   7.797 -2.2880  1.7427  0.0388
  628MOL0     H82869   1.444   8.463   7.821 -0.1463  0.0783  0.3744
  628MOL0     H82870   1.711   8.401   7.953  0.5315 -0.3609 -0.7617
  628MOL0     H82871   1.556   8.298   7.975 -2.6456  1.6358  1.1171
  628MOL0     H82872   1.567   8.427   8.164 -2.9479  0.2656  0.4062
  628MOL0     H82873   1.472   8.535   8.055  0.4308  0.0555  0.6274
  628MOL0     H82874   1.768   8.580   8.040  0.7155 -2.5615  1.2634
  628MOL0     H82875   1.635   8.673   7.979  0.6809  0.0759 -0.5572
  628MOL0     H82876   1.733   8.617   8.270 -1.4328  0.0419  1.3768
  628MOL0     H82877   1.578   8.673   8.261 -1.0571 -1.2000  0.1522
  628MOL0     H82878   1.506   8.018   7.363 -0.0701 -0.6390  0.3902
  628MOL0     H82879   1.428   7.924   7.137 -2.7213  0.0524 -1.2478
  628MOL0     H82880   1.457   7.886   6.638 -0.1689 -1.1150 -2.5557
  628MOL0     H82881   1.330   7.787   6.448  0.2142  0.9049 -0.4917
  628MOL0     H82882   0.766   6.714   4.807 -0.0817  1.6285  2.6015
  628MOL0     H82883   0.729   6.481   4.701  0.0789 -0.6429 -0.8068
  628MOL0     H82884   0.891   6.030   4.637  0.2145 -1.4797 -4.1352
  628MOL0     H82885   0.826   5.841   4.506 -0.8153  1.1740 -1.4037
  628MOL0     H82886   0.761   5.610   4.509  1.0465 -3.3917 -2.2204
  628MOL0     H82887   0.674   5.641   4.350  1.5334  3.3905  0.5133
  628MOL0     H82888   0.492   5.487   4.440  0.5877 -0.3053 -0.0471
  628MOL0     H82889   0.657   5.411   4.431 -1.4537 -2.1776  0.8387
  628MOL0     H82890   0.528   5.525   4.691 -3.0585  2.0813 -3.0260
  628MOL0     H82891   0.689   5.446   4.673 -0.4703 -0.7684 -1.0132
  628MOL0     H82892   0.557   5.279   4.731  0.9084 -0.8615  0.0458
  628MOL0     H82893   0.407   5.332   4.637 -0.6345  1.9095 -1.0514
  628MOL0     H82894   0.526   5.052   4.364  2.4457  0.1273 -1.3534
  628MOL0     H82895   0.466   5.799   4.726  0.7990 -1.0974 -0.5540
  628MOL0     H82896   0.534   6.011   4.873  0.0267 -1.4594  0.4175
  629MOL0     O82897   1.236  10.013   0.702  0.5576  0.7219 -0.9114
  629MOL0     C82898   1.199   9.964   0.599  0.2560  0.4489 -0.4345
  629MOL0     O82899   1.233   9.844   0.546 -0.6907  0.3242  0.2267
  629MOL0     C82900   1.316   9.765   0.627  0.5925  1.0998 -0.6089
  629MOL0     C82901   1.446   9.738   0.604  0.2974  0.2034  0.0396
  629MOL0     C82902   1.516   9.643   0.683  0.2630 -0.6452 -1.4741
  629MOL0     C82903   1.455   9.562   0.784  0.3316 -1.1226  0.1963
  629MOL0     O82904   1.531   9.472   0.859 -0.2479 -0.6671 -0.1316
  629MOL0     C82905   1.494   9.435   0.989 -0.0638 -0.2521  0.1029
  629MOL0     C82906   1.383   9.332   0.992  0.2626  0.9618 -0.6838
  629MOL0     C82907   1.292   9.343   1.112 -0.4652 -0.0840 -0.3263
  629MOL0     C82908   1.213   9.218   1.138 -0.3992  0.2128 -0.3859
  629MOL0     C82909   1.090   9.230   1.235 -0.1860  0.6766  0.1147
  629MOL0     C82910   0.955   9.291   1.188  0.5870 -0.1521  0.3456
  629MOL0     C82911   0.911   9.220   1.058 -0.2675 -0.1132  0.4424
  629MOL0     C82912   0.788   9.270   0.995 -0.1228 -0.9890  0.1777
  629MOL0     N82913   0.788   9.401   0.932  0.0439  0.3008  0.2990
  629MOL0     C82914   0.720   9.508   0.996 -0.4130 -0.4637 -0.8220
  629MOL0     C82915   0.723   9.605   0.899 -0.2133 -0.6891 -0.8820
  629MOL0     C82916   0.665   9.739   0.916 -0.8474  0.0976  0.8506
  629MOL0     C82917   0.763   9.867   0.925 -0.2206  0.0908 -0.1458
  629MOL0     C82918   0.687  10.000   0.897 -0.4645  0.0433  0.8933
  629MOL0     C82919   0.767  10.122   0.941 -0.1404 -0.6839 -0.1861
  629MOL0     O82920   0.729  10.238   0.860  0.6077  0.0737 -0.2507
  629MOL0     C82921   0.768  10.361   0.910 -0.5061  1.2355  0.7324
  629MOL0     C82922   0.720  10.472   0.849 -0.3544 -0.0622  1.0164
  629MOL0     C82923   0.731  10.603   0.892 -0.5473  0.7947  0.4597
  629MOL0     C82924   0.792  10.625   1.023  0.6505 -0.2683  0.9192
  629MOL0     C82925   0.802  10.763   1.083 -0.2581 -0.1500 -0.9588
  629MOL0     O82926   0.887  10.770   1.187  0.0427 -0.1591  0.3122
  629MOL0     C82927   0.975  10.876   1.208  0.0983 -0.4368 -0.3749
  629MOL0     C82928   1.035  10.942   1.099  0.2298 -0.4941  0.8978
  629MOL0     C82929   1.121  11.055   1.118 -0.0185  0.5298  0.0515
  629MOL0     C82930   1.166  11.080   1.244 -0.1836 -1.4046  0.1859
  629MOL0     O82931   1.253  11.186   1.268 -0.5344  0.1278 -0.5582
  629MOL0     C82932   1.309  11.202   1.406  0.3967 -0.6915  0.8165
  629MOL0     C82933   1.403  11.320   1.403  0.4642  0.0691 -0.6469
  629MOL0     C82934   1.510  11.324   1.298  0.0404 -0.0321  0.8463
  629MOL0     C82935   1.597  11.442   1.315 -0.3047  0.3067  0.7854
  629MOL0     C82936   1.726  11.428   1.227  0.3146 -0.2265 -0.1364
  629MOL0     C82937   1.800  11.558   1.211  0.5995 -0.3771 -0.5558
  629MOL0     C82938   1.916  11.562   1.114 -0.3277  0.3446 -1.0921
  629MOL0     C82939   1.961  11.686   1.053 -0.7027 -0.7672  0.1901
  629MOL0    Cl82940   2.113  11.638   0.974 -0.0714  0.5830 -0.0093
  629MOL0     C82941   1.121  10.996   1.350 -0.2368 -0.5450  0.3165
  629MOL0     C82942   1.024  10.900   1.330  0.0283 -0.5562 -0.3996
  629MOL0     O82943   0.757  10.856   1.023 -0.6707  0.4109  0.4155
  629MOL0     C82944   0.848  10.513   1.087 -1.0749 -0.0119 -0.1566
  629MOL0     C82945   0.837  10.384   1.033  0.6143 -0.6079  0.1802
  629MOL0     N82946   0.808   9.559   0.796 -0.2209 -0.3232  0.6543
  629MOL0     N82947   0.842   9.435   0.816  0.1759  0.4441 -0.8881
  629MOL0     C82948   1.319   9.593   0.810 -0.3061  0.4888 -0.3349
  629MOL0     C82949   1.250   9.685   0.730  0.4922 -0.2223 -0.6171
  629MOL0     C82950   1.097  10.044   0.535 -0.3094  1.2802 -0.3314
  629MOL0     C82951   1.047  10.005   0.404 -0.2718 -0.0804 -0.3156
  629MOL0     C82952   0.948  10.073   0.340  0.0032  0.2076 -0.1893
  629MOL0     C82953   0.871  10.165   0.410 -0.4858  0.2147  0.6625
  629MOL0     O82954   0.767  10.253   0.367 -0.6036 -0.0285  0.4842
  629MOL0     C82955   0.732  10.237   0.225 -0.6935 -0.2506  0.5827
  629MOL0     C82956   0.644  10.116   0.218 -0.3978 -0.5810 -0.1737
  629MOL0     C82957   0.558  10.132   0.087  0.1392 -0.1604 -0.0951
  629MOL0     C82958   0.644  10.110  -0.038 -0.0668  0.4024  0.4983
  629MOL0     C82959   0.696   9.981  -0.054  0.0873 -0.3886 -0.0487
  629MOL0     C82960   0.746   9.871  -0.076 -0.3519  0.1132 -0.7537
  629MOL0     C82961   0.901  10.196   0.542 -0.5789  0.1619 -0.9399
  629MOL0     C82962   1.015  10.137   0.605 -0.0829  0.4501 -0.1831
  629MOL0     H82963   1.497   9.779   0.517  1.4988 -2.8908 -0.8852
  629MOL0     H82964   1.623   9.645   0.668  0.0875  0.6615 -2.7850
  629MOL0     H82965   1.453   9.525   1.036 -2.7646 -1.7252  0.7771
  629MOL0     H82966   1.585   9.404   1.043  0.1216  0.6808  0.3479
  629MOL0     H82967   1.444   9.241   0.996 -1.2948 -0.2310 -2.4280
  629MOL0     H82968   1.312   9.319   0.910  0.8618  0.1315 -1.0792
  629MOL0     H82969   1.224   9.426   1.089  0.1545  0.1630 -1.3456
  629MOL0     H82970   1.353   9.366   1.200  2.3028  2.5697 -2.6935
  629MOL0     H82971   1.182   9.171   1.044 -2.8759  0.4847  0.2502
  629MOL0     H82972   1.287   9.151   1.184 -3.1919 -1.2371  2.3078
  629MOL0     H82973   1.124   9.287   1.322  0.0890  0.0050  0.4492
  629MOL0     H82974   1.061   9.128   1.264 -4.2295  1.8182  0.7298
  629MOL0     H82975   0.986   9.395   1.175  3.2562 -0.8978  0.2380
  629MOL0     H82976   0.879   9.287   1.266  1.1589 -4.5354  0.9088
  629MOL0     H82977   0.993   9.242   0.988  0.2647  0.5978  1.2780
  629MOL0     H82978   0.912   9.111   1.069  1.0278 -0.1101  0.5525
  629MOL0     H82979   0.698   9.284   1.057  1.0267 -0.2280  1.7360
  629MOL0     H82980   0.757   9.189   0.928 -1.4271 -2.2394  2.1848
  629MOL0     H82981   0.665   9.519   1.089 -0.4596 -3.7311 -0.3483
  629MOL0     H82982   0.597   9.730   1.001 -0.0765 -0.0506  1.4638
  629MOL0     H82983   0.599   9.757   0.831  0.1249  0.9424  0.2455
  629MOL0     H82984   0.840   9.865   0.847  0.5823  0.1767  0.6243
  629MOL0     H82985   0.812   9.871   1.023 -1.2396  2.1872  0.3315
  629MOL0     H82986   0.652   9.997   0.794 -1.8600 -1.2263  1.3666
  629MOL0     H82987   0.592   9.983   0.949 -1.8113 -1.1543 -1.7919
  629MOL0     H82988   0.874  10.103   0.929  0.1134  0.9635 -0.8216
  629MOL0     H82989   0.739  10.141   1.045  5.4713  3.1213  1.0859
  629MOL0     H82990   0.665  10.457   0.756 -2.0314 -0.3060  1.9980
  629MOL0     H82991   0.693  10.679   0.825  1.1144  0.4765 -0.8871
  629MOL0     H82992   1.004  10.910   1.000 -3.3247 -2.2549  2.3934
  629MOL0     H82993   1.155  11.100   1.025 -0.6958  1.0497  0.0504
  629MOL0     H82994   1.347  11.108   1.446  1.0373  0.5991  3.4728
  629MOL0     H82995   1.217  11.224   1.460 -1.4972 -0.7458 -2.1855
  629MOL0     H82996   1.447  11.315   1.502 -1.8126 -3.2981  0.3875
  629MOL0     H82997   1.346  11.412   1.416  0.7403  0.2614 -0.7943
  629MOL0     H82998   1.481  11.327   1.193  0.5726  1.7294  0.7249
  629MOL0     H82999   1.582  11.241   1.302  2.0096  1.3167 -2.4589
  629MOL0     H83000   1.539  11.533   1.295  1.6590  0.7377 -4.5974
  629MOL0     H83001   1.630  11.441   1.419  2.5863  3.0377  0.0366
  629MOL0     H83002   1.696  11.403   1.124  1.1261  0.9310 -0.6805
  629MOL0     H83003   1.788  11.350   1.271 -0.4315 -0.2050  0.9737
  629MOL0     H83004   1.840  11.593   1.307  0.9447 -0.5305 -0.6427
  629MOL0     H83005   1.738  11.641   1.178 -1.6016 -0.6736  2.4568
  629MOL0     H83006   2.001  11.514   1.162 -0.3413  0.6757 -0.7353
  629MOL0     H83007   1.880  11.500   1.030 -1.4730 -0.1987 -0.2338
  629MOL0     H83008   1.986  11.753   1.135  1.1354 -0.9943 -0.1350
  629MOL0     H83009   1.886  11.730   0.987 -0.5697  1.8286  1.6307
  629MOL0     H83010   1.153  11.003   1.454  1.2132  0.3600 -0.1528
  629MOL0     H83011   0.999  10.834   1.413  0.3746 -0.4035 -0.1686
  629MOL0     H83012   0.895  10.529   1.183 -0.3382 -1.9775 -0.1557
  629MOL0     H83013   0.875  10.302   1.092  3.0498 -1.3315 -2.1967
  629MOL0     H83014   1.265   9.542   0.889 -3.9301 -0.7861 -3.3407
  629MOL0     H83015   1.144   9.696   0.752  0.4794 -2.3657  0.6837
  629MOL0     H83016   1.086   9.927   0.340 -2.8016  0.7766 -3.1369
  629MOL0     H83017   0.924  10.045   0.238 -1.6434 -0.4114  0.3366
  629MOL0     H83018   0.824  10.225   0.167 -1.4291 -0.4353 -0.5752
  629MOL0     H83019   0.688  10.327   0.181  2.8804 -0.7573 -4.9893
  629MOL0     H83020   0.718  10.036   0.223  1.1448  0.8639  1.8474
  629MOL0     H83021   0.578  10.099   0.303  1.4125 -1.2785  1.1646
  629MOL0     H83022   0.510  10.230   0.087 -0.8523 -0.6042 -1.5825
  629MOL0     H83023   0.483  10.052   0.093 -1.0004  0.7301 -1.7359
  629MOL0     H83024   0.588  10.124  -0.130  0.9184  1.0545 -0.0140
  629MOL0     H83025   0.729  10.179  -0.041 -0.1337  0.4667  0.0210
  629MOL0     H83026   0.794   9.776  -0.090 -1.8192 -0.9675  1.2057
  629MOL0     H83027   0.828  10.263   0.585  1.5238  2.0337 -0.0741
  629MOL0     H83028   1.054  10.169   0.701 -1.3227  0.5227  0.3090
  630MOL0     O83029   9.379   8.534   1.728  0.1291 -0.2053 -0.2885
  630MOL0     C83030   9.400   8.468   1.829 -0.0128  0.5785  0.1967
  630MOL0     O83031   9.313   8.368   1.869 -0.3984  0.1160 -0.4332
  630MOL0     C83032   9.186   8.384   1.862 -0.2506  0.6050  0.1857
  630MOL0     C83033   9.099   8.286   1.810 -0.2923  0.4824  0.0305
  630MOL0     C83034   8.963   8.290   1.819  0.6061 -0.2557  0.8330
  630MOL0     C83035   8.897   8.403   1.870 -0.5978 -0.1837 -0.6409
  630MOL0     O83036   8.755   8.416   1.883 -0.3339 -0.1953  0.6007
  630MOL0     C83037   8.690   8.393   1.761  0.0330  0.4527 -0.0693
  630MOL0     C83038   8.574   8.296   1.775  0.9163 -1.1729 -0.3152
  630MOL0     C83039   8.476   8.303   1.660 -0.2744  0.1731 -1.0774
  630MOL0     C83040   8.359   8.208   1.660  1.2781  0.6688  0.2193
  630MOL0     C83041   8.221   8.257   1.599 -0.1095 -0.7578  0.0579
  630MOL0     C83042   8.246   8.271   1.443  0.3144  0.0344 -0.5022
  630MOL0     C83043   8.116   8.287   1.351 -0.3710 -0.1366  0.3841
  630MOL0     C83044   8.128   8.195   1.230 -0.2692 -1.0516 -0.2262
  630MOL0     N83045   8.059   8.065   1.257 -0.3444  0.4390 -0.7033
  630MOL0     C83046   7.922   8.042   1.252 -0.8334 -0.4457 -0.6032
  630MOL0     C83047   7.898   7.910   1.245 -0.4468  0.0047  0.3097
  630MOL0     C83048   7.769   7.835   1.216  0.5083 -0.5209  0.2489
  630MOL0     C83049   7.709   7.785   1.353  0.0661 -0.2412 -0.1181
  630MOL0     C83050   7.558   7.736   1.354  0.0260 -0.0714 -0.1082
  630MOL0     C83051   7.523   7.662   1.485  1.2175  0.1850  1.3100
  630MOL0     O83052   7.381   7.635   1.483  0.7440 -0.8586 -0.6262
  630MOL0     C83053   7.351   7.505   1.498  0.3658  0.0722  0.1315
  630MOL0     C83054   7.340   7.423   1.388  0.7724 -1.0344 -0.5246
  630MOL0     C83055   7.298   7.291   1.397 -0.2620  0.5458 -0.1623
  630MOL0     C83056   7.278   7.239   1.530  0.0685 -0.8753  0.4174
  630MOL0     C83057   7.227   7.103   1.563  0.3488  0.1403 -0.2769
  630MOL0     O83058   7.271   7.036   1.672  0.0671 -0.2741 -0.2958
  630MOL0     C83059   7.217   6.919   1.716 -0.2554  0.7110 -0.4448
  630MOL0     C83060   7.296   6.842   1.804  0.0837  0.2311 -1.0163
  630MOL0     C83061   7.240   6.725   1.860 -0.6051 -0.0633  0.6206
  630MOL0     C83062   7.117   6.676   1.816  0.3565  0.3727 -0.2366
  630MOL0     O83063   7.070   6.549   1.852 -0.0759 -0.1241 -0.5802
  630MOL0     C83064   7.136   6.437   1.786 -0.0421 -1.0558  0.2452
  630MOL0     C83065   7.062   6.305   1.826  0.1077  0.2017 -0.1551
  630MOL0     C83066   6.915   6.308   1.766  0.1530  0.9187 -0.5037
  630MOL0     C83067   6.861   6.176   1.792  0.5018  0.0412 -1.0307
  630MOL0     C83068   6.841   6.148   1.944  0.3244  0.3274  0.1324
  630MOL0     C83069   6.766   6.019   1.961 -0.3299  0.7978 -0.0620
  630MOL0     C83070   6.778   5.975   2.106  0.0383  0.6856 -0.0707
  630MOL0     C83071   6.703   5.848   2.140 -0.2952  0.4957 -0.6699
  630MOL0    Cl83072   6.780   5.720   2.040  0.1389  0.1130  0.1219
  630MOL0     C83073   7.035   6.758   1.735  0.7796 -0.6248 -0.5158
  630MOL0     C83074   7.086   6.880   1.692 -0.3317 -0.3036 -0.2106
  630MOL0     O83075   7.148   7.058   1.476  0.3277 -0.1353 -0.2259
  630MOL0     C83076   7.288   7.328   1.639 -0.5297  0.2462 -1.2148
  630MOL0     C83077   7.332   7.457   1.626 -0.9255  0.0094 -0.1180
  630MOL0     N83078   8.025   7.849   1.246 -0.1696  0.5291 -0.3623
  630MOL0     N83079   8.120   7.939   1.263 -0.0508  0.3743 -0.3469
  630MOL0     C83080   8.976   8.505   1.927 -0.6297 -0.2667  0.7856
  630MOL0     C83081   9.120   8.497   1.921  0.0217  1.5763 -0.1055
  630MOL0     C83082   9.534   8.480   1.878  0.8030 -0.1379  0.4050
  630MOL0     C83083   9.624   8.582   1.830 -0.9589 -0.5665  0.0647
  630MOL0     C83084   9.755   8.604   1.900  0.3129 -0.9933 -0.0508
  630MOL0     C83085   9.791   8.515   1.997  0.2796 -0.2908 -0.9563
  630MOL0     O83086   9.898   8.555   2.069  0.1319  0.0332  0.1057
  630MOL0     C83087  10.022   8.581   2.007 -0.2463  0.1467  1.2026
  630MOL0     C83088  10.133   8.564   2.108 -0.5672 -0.5203 -0.1488
  630MOL0     C83089  10.142   8.420   2.163 -1.0274 -0.0615  0.4406
  630MOL0     C83090  10.156   8.308   2.054 -0.2474  0.3719 -0.2136
  630MOL0     C83091  10.176   8.176   2.114  0.2276  0.2330  0.8569
  630MOL0     C83092  10.197   8.069   2.171  0.7148 -0.2041 -0.1550
  630MOL0     C83093   9.707   8.412   2.038 -2.1073  0.4832  0.1893
  630MOL0     C83094   9.582   8.394   1.981  0.7754 -0.4685 -0.2693
  630MOL0     H83095   9.142   8.195   1.771  0.5297  0.0593  1.8312
  630MOL0     H83096   8.907   8.206   1.778 -0.1620  0.5917  0.0841
  630MOL0     H83097   8.748   8.347   1.681 -0.5966 -4.1737  1.8108
  630MOL0     H83098   8.654   8.490   1.725  1.4686  2.5850  3.6463
  630MOL0     H83099   8.524   8.330   1.867  2.2725  2.3972 -0.7592
  630MOL0     H83100   8.611   8.193   1.777  2.3503 -0.6760 -0.1364
  630MOL0     H83101   8.530   8.285   1.566  1.1230  1.6864 -0.6131
  630MOL0     H83102   8.446   8.409   1.662  2.2453  0.9441  0.1450
  630MOL0     H83103   8.389   8.123   1.599 -1.6226  0.1239 -0.5942
  630MOL0     H83104   8.331   8.175   1.761 -3.0110  0.8993 -0.7106
  630MOL0     H83105   8.199   8.355   1.643  2.5977 -1.1456  2.5587
  630MOL0     H83106   8.136   8.192   1.622 -0.4573 -1.9148 -3.7661
  630MOL0     H83107   8.312   8.190   1.411  0.7343 -0.1268  0.7353
  630MOL0     H83108   8.300   8.366   1.428 -0.4734  0.5488 -0.1100
  630MOL0     H83109   8.028   8.265   1.412 -1.1597  0.7132 -0.4195
  630MOL0     H83110   8.111   8.383   1.299 -0.7696 -0.7643 -0.8044
  630MOL0     H83111   8.235   8.179   1.214  0.2757  2.0419 -0.1936
  630MOL0     H83112   8.091   8.249   1.142 -0.4868  0.2278  0.6273
  630MOL0     H83113   7.862   8.131   1.235 -0.2440  0.1791  0.5105
  630MOL0     H83114   7.788   7.747   1.152  0.7384 -0.7269  0.5951
  630MOL0     H83115   7.711   7.912   1.164  0.2926  0.0195  1.2625
  630MOL0     H83116   7.719   7.870   1.422  1.4889  0.9179 -1.6858
  630MOL0     H83117   7.773   7.707   1.395 -1.7524 -1.7872 -0.0806
  630MOL0     H83118   7.473   7.805   1.355 -1.2542 -1.5620 -1.2505
  630MOL0     H83119   7.548   7.676   1.263 -1.5624 -1.9983  1.2512
  630MOL0     H83120   7.539   7.731   1.569  1.8341  1.0072  0.5322
  630MOL0     H83121   7.575   7.568   1.507 -1.4109 -1.7302 -0.1336
  630MOL0     H83122   7.373   7.470   1.296  0.0644 -1.1669 -0.8550
  630MOL0     H83123   7.302   7.217   1.317 -0.0159  0.5028 -0.1113
  630MOL0     H83124   7.402   6.860   1.820  1.2258 -1.0965 -5.7547
  630MOL0     H83125   7.304   6.663   1.923 -0.7133  0.0668  0.8613
  630MOL0     H83126   7.241   6.430   1.817 -0.2320  1.7114  1.7937
  630MOL0     H83127   7.125   6.459   1.679 -0.8258 -1.1792  0.2945
  630MOL0     H83128   7.060   6.300   1.935 -0.7264  0.4678 -0.1526
  630MOL0     H83129   7.112   6.214   1.792 -1.2614 -1.5307  2.1642
  630MOL0     H83130   6.911   6.328   1.659 -0.6269 -2.6389 -1.2703
  630MOL0     H83131   6.868   6.388   1.824  0.6163  0.6683  0.2327
  630MOL0     H83132   6.761   6.166   1.748  0.9864 -0.2653 -2.0989
  630MOL0     H83133   6.925   6.101   1.746 -1.0034 -2.6733  1.0482
  630MOL0     H83134   6.778   6.221   1.996 -0.5436  1.1355 -1.9535
  630MOL0     H83135   6.937   6.141   1.997 -0.8500  1.4278  2.6007
  630MOL0     H83136   6.808   5.932   1.910 -1.6561 -1.6300  2.7050
  630MOL0     H83137   6.658   6.022   1.944 -0.6746  0.5168  1.8922
  630MOL0     H83138   6.880   5.955   2.140 -1.3144  0.3290  4.2601
  630MOL0     H83139   6.744   6.057   2.170  0.0112 -0.7170  1.7930
  630MOL0     H83140   6.601   5.867   2.107 -0.7458 -1.6150 -0.6150
  630MOL0     H83141   6.714   5.821   2.246 -0.6658 -0.1659 -0.7950
  630MOL0     H83142   6.935   6.734   1.701  0.3656 -2.2630  1.6361
  630MOL0     H83143   7.016   6.941   1.635  1.1572  0.9454 -0.7671
  630MOL0     H83144   7.274   7.296   1.742  0.3424 -0.7748 -1.3899
  630MOL0     H83145   7.354   7.513   1.716  1.9902 -0.9503 -0.1358
  630MOL0     H83146   8.937   8.603   1.954  2.6420  0.9048  1.7493
  630MOL0     H83147   9.170   8.577   1.974  0.0376  1.0573  0.6731
  630MOL0     H83148   9.611   8.635   1.736 -2.3622  0.7479  0.9533
  630MOL0     H83149   9.802   8.701   1.887  2.8058 -1.8635  1.8726
  630MOL0     H83150  10.017   8.683   1.968  0.0254  0.0041  0.7835
  630MOL0     H83151  10.038   8.516   1.921 -2.3223 -0.8212  1.4982
  630MOL0     H83152  10.223   8.599   2.056  1.8294 -2.1037  2.6573
  630MOL0     H83153  10.097   8.635   2.183 -2.9729 -1.8680  0.0983
  630MOL0     H83154  10.055   8.406   2.228 -3.0491  2.6524 -1.4491
  630MOL0     H83155  10.234   8.417   2.223 -0.8151  0.3416  0.1408
  630MOL0     H83156  10.059   8.309   2.002 -0.9542 -0.8120  1.0282
  630MOL0     H83157  10.236   8.333   1.984  0.6653 -1.9660 -0.1141
  630MOL0     H83158  10.207   7.975   2.222 -1.0384 -0.3381 -0.0086
  630MOL0     H83159   9.753   8.351   2.114  2.3870  0.0456 -2.5132
  630MOL0     H83160   9.530   8.310   2.024 -1.6096  0.2070 -1.6361
  631MOL0     O83161   6.471   2.154   4.123 -0.4183 -0.6219  0.3939
  631MOL0     C83162   6.514   2.065   4.200  0.0482  0.4817  0.8958
  631MOL0     O83163   6.434   1.958   4.242  0.5186 -0.1319 -0.5271
  631MOL0     C83164   6.309   1.950   4.185  1.3856 -0.8811 -1.5270
  631MOL0     C83165   6.276   1.929   4.049  0.4087 -0.5896 -0.7441
  631MOL0     C83166   6.149   1.913   3.998  0.6353  0.4798  0.6623
  631MOL0     C83167   6.045   1.940   4.084 -0.1001  0.3013  0.8150
  631MOL0     O83168   5.917   1.912   4.031  0.7064  0.4623 -0.6717
  631MOL0     C83169   5.804   1.995   4.086 -0.0998  0.1304  0.8233
  631MOL0     C83170   5.693   1.986   3.983 -0.1290  0.1029 -0.4573
  631MOL0     C83171   5.747   2.042   3.846  0.5765 -0.0436 -0.6461
  631MOL0     C83172   5.637   2.060   3.739 -0.5980  0.3858  0.2487
  631MOL0     C83173   5.686   2.059   3.590 -0.2144 -0.3242 -0.2577
  631MOL0     C83174   5.561   2.032   3.504  1.3172 -0.5618  1.3178
  631MOL0     C83175   5.445   2.144   3.496 -0.4036 -0.5824 -0.3683
  631MOL0     C83176   5.308   2.092   3.539  0.9421 -0.0969  0.9577
  631MOL0     N83177   5.296   2.049   3.678 -0.1096  0.1396  0.0928
  631MOL0     C83178   5.260   2.128   3.786  0.0881 -0.7752  0.3049
  631MOL0     C83179   5.254   2.045   3.888 -0.1322  1.0614  0.5453
  631MOL0     C83180   5.227   2.097   4.030  0.0551  0.6739 -1.0406
  631MOL0     C83181   5.355   2.160   4.087 -0.5724 -0.2864 -0.6167
  631MOL0     C83182   5.328   2.278   4.189 -0.9422 -0.7352  0.5649
  631MOL0     C83183   5.463   2.349   4.225 -0.3169 -0.1174  0.4498
  631MOL0     O83184   5.516   2.399   4.098  0.5556  0.0726 -0.7138
  631MOL0     C83185   5.645   2.430   4.091 -0.0792  0.8075  0.1255
  631MOL0     C83186   5.716   2.494   4.191  0.0420  0.8039 -0.2976
  631MOL0     C83187   5.847   2.531   4.187  0.1774  0.0633 -0.2335
  631MOL0     C83188   5.917   2.497   4.070 -0.3002  0.3748 -0.4079
  631MOL0     C83189   6.064   2.534   4.059 -0.1583  0.6583  0.4656
  631MOL0     O83190   6.112   2.520   3.930 -0.0312 -0.2300 -0.1505
  631MOL0     C83191   6.255   2.502   3.908  1.1967 -0.6240 -0.3837
  631MOL0     C83192   6.315   2.548   3.793  0.3898 -0.4089 -0.1332
  631MOL0     C83193   6.458   2.561   3.765  0.8210 -0.8443  0.3122
  631MOL0     C83194   6.537   2.512   3.872 -0.8216 -0.8842 -0.1689
  631MOL0     O83195   6.675   2.525   3.871 -0.1656  0.0812  0.1992
  631MOL0     C83196   6.721   2.654   3.836  0.4927  0.4556  0.1199
  631MOL0     C83197   6.867   2.648   3.866  0.4091  0.1260  0.0736
  631MOL0     C83198   6.948   2.773   3.860  0.4754 -1.0410  0.4629
  631MOL0     C83199   7.083   2.757   3.935  0.0025 -0.1928 -0.0181
  631MOL0     C83200   7.169   2.660   3.839  0.0569 -0.4105 -0.1126
  631MOL0     C83201   7.310   2.634   3.889 -0.1849  0.4947  0.2599
  631MOL0     C83202   7.398   2.762   3.918 -0.6004  0.4114  0.5126
  631MOL0     C83203   7.534   2.727   3.994 -0.1355 -0.4666  0.4177
  631MOL0    Cl83204   7.492   2.688   4.162 -0.0563 -0.0714 -0.1242
  631MOL0     C83205   6.476   2.453   3.985 -0.1739  0.0657  0.5763
  631MOL0     C83206   6.335   2.445   4.007  0.0056  0.0484 -0.1399
  631MOL0     O83207   6.119   2.588   4.154 -0.2443  0.2193  0.0738
  631MOL0     C83208   5.853   2.419   3.963 -1.2526 -0.4276 -0.4654
  631MOL0     C83209   5.716   2.393   3.973 -0.0619 -0.0059  0.2584
  631MOL0     N83210   5.287   1.917   3.839 -0.5978 -0.9135  0.6513
  631MOL0     N83211   5.307   1.925   3.714  0.1142  0.0780 -0.7335
  631MOL0     C83212   6.071   1.972   4.220  0.0451  0.7866  1.0821
  631MOL0     C83213   6.198   1.965   4.276  1.1612  0.2277 -0.1458
  631MOL0     C83214   6.661   2.074   4.254 -0.9595 -0.1436  1.0735
  631MOL0     C83215   6.748   2.163   4.195  0.2141  0.0700  0.6865
  631MOL0     C83216   6.882   2.151   4.229 -0.1110  0.3027  0.0353
  631MOL0     C83217   6.927   2.069   4.331 -0.4291  0.1443 -0.0029
  631MOL0     O83218   7.063   2.070   4.354  0.1468 -0.4951 -0.5624
  631MOL0     C83219   7.107   1.989   4.470 -0.2761 -0.0560  0.6703
  631MOL0     C83220   7.257   2.017   4.482  0.0395 -0.2342  0.0536
  631MOL0     C83221   7.352   1.936   4.572  0.5748 -0.6705 -0.2042
  631MOL0     C83222   7.358   1.789   4.540  0.8848 -0.6021 -0.0131
  631MOL0     C83223   7.232   1.723   4.582  0.6111  0.8525 -0.8373
  631MOL0     C83224   7.125   1.667   4.587  0.4135 -0.0093  0.0562
  631MOL0     C83225   6.832   1.970   4.389 -0.7661 -0.1524  0.0937
  631MOL0     C83226   6.702   1.973   4.344 -0.8005  0.1204  0.4884
  631MOL0     H83227   6.360   1.906   3.984 -0.1506 -2.8665 -0.7673
  631MOL0     H83228   6.114   1.889   3.898 -1.2018 -2.2168  1.8388
  631MOL0     H83229   5.843   2.097   4.093  2.1316 -0.6573  0.8551
  631MOL0     H83230   5.765   1.960   4.181 -3.7943  1.1155 -0.1839
  631MOL0     H83231   5.609   2.034   4.034  0.4219 -1.4810  2.1421
  631MOL0     H83232   5.671   1.881   3.959 -0.8704  0.5771 -1.9991
  631MOL0     H83233   5.815   1.967   3.805 -0.0453 -1.2197  0.4136
  631MOL0     H83234   5.803   2.135   3.861 -0.1149  0.1777  0.6858
  631MOL0     H83235   5.565   1.980   3.754  1.4379 -2.1884 -2.4153
  631MOL0     H83236   5.594   2.160   3.753 -2.1820  0.1523 -2.2628
  631MOL0     H83237   5.765   1.985   3.571  2.5171  2.4216 -0.5557
  631MOL0     H83238   5.735   2.153   3.564  0.0276 -0.3299  0.1576
  631MOL0     H83239   5.516   1.933   3.517 -0.7363 -0.0023 -0.7605
  631MOL0     H83240   5.599   2.033   3.401  1.8242 -1.7920  1.4812
  631MOL0     H83241   5.468   2.212   3.578  0.6854  0.4498 -1.4817
  631MOL0     H83242   5.453   2.195   3.399  1.1951  1.1102  0.5909
  631MOL0     H83243   5.284   2.008   3.473  2.6686  0.9649 -1.1190
  631MOL0     H83244   5.234   2.170   3.519  1.5039  0.3594  0.6395
  631MOL0     H83245   5.234   2.232   3.800  0.5107 -0.9379  2.7342
  631MOL0     H83246   5.198   2.020   4.102  0.6456  0.4918 -0.9904
  631MOL0     H83247   5.152   2.176   4.026  0.9609  1.5266 -2.1888
  631MOL0     H83248   5.414   2.190   4.000 -1.4089 -0.4802 -1.2597
  631MOL0     H83249   5.409   2.085   4.146  0.7376  0.5338 -0.7185
  631MOL0     H83250   5.266   2.358   4.147  0.9507  0.7560  0.5216
  631MOL0     H83251   5.274   2.234   4.273 -1.2077 -0.5557  0.4902
  631MOL0     H83252   5.533   2.280   4.274  3.5080  1.9528 -1.6935
  631MOL0     H83253   5.446   2.437   4.287 -4.0139 -0.7615  0.5959
  631MOL0     H83254   5.656   2.524   4.277 -3.4886 -0.7489 -2.0278
  631MOL0     H83255   5.908   2.578   4.263  3.5068 -0.0845 -2.5829
  631MOL0     H83256   6.255   2.601   3.720  0.6180  0.9115  0.5970
  631MOL0     H83257   6.506   2.607   3.679  1.7311 -0.0403  1.2254
  631MOL0     H83258   6.672   2.727   3.900 -0.9069 -0.9458  0.6927
  631MOL0     H83259   6.700   2.666   3.729  1.6487 -2.9435 -0.6003
  631MOL0     H83260   6.911   2.578   3.795 -2.5336 -2.2158  0.3863
  631MOL0     H83261   6.890   2.603   3.963  1.5811 -1.1638 -0.7694
  631MOL0     H83262   6.894   2.856   3.907  3.2673 -0.2320  2.4965
  631MOL0     H83263   6.966   2.792   3.754 -1.0568 -1.2706  0.1375
  631MOL0     H83264   7.120   2.860   3.936 -0.9353  0.1566  1.0927
  631MOL0     H83265   7.060   2.719   4.036 -0.5697 -2.7391 -1.0214
  631MOL0     H83266   7.171   2.703   3.739  2.5140 -3.1347 -1.3831
  631MOL0     H83267   7.114   2.566   3.828  0.0764 -0.2311 -1.9248
  631MOL0     H83268   7.360   2.575   3.812 -0.7210  1.1114 -0.5707
  631MOL0     H83269   7.298   2.574   3.980  1.8455  2.2719  1.7856
  631MOL0     H83270   7.420   2.813   3.824 -1.7802 -1.8176 -1.0778
  631MOL0     H83271   7.338   2.824   3.984 -1.4100 -0.1789  0.3482
  631MOL0     H83272   7.601   2.811   3.977  1.9527 -2.3750 -1.5612
  631MOL0     H83273   7.584   2.643   3.944 -1.3555 -0.0949 -1.5362
  631MOL0     H83274   6.547   2.419   4.061 -0.6220 -1.7057  0.2502
  631MOL0     H83275   6.290   2.400   4.094  1.4554 -0.2532  0.4937
  631MOL0     H83276   5.904   2.404   3.869  0.2166  5.0501 -0.8855
  631MOL0     H83277   5.665   2.342   3.892 -0.3661  1.5269 -0.5621
  631MOL0     H83278   5.977   1.979   4.274 -0.4435 -1.4454  0.6292
  631MOL0     H83279   6.212   1.990   4.381 -0.1656  0.4066  0.0013
  631MOL0     H83280   6.738   2.235   4.114  2.2114 -0.9611 -0.5699
  631MOL0     H83281   6.949   2.224   4.184  0.7562 -0.5894 -0.1584
  631MOL0     H83282   7.099   1.881   4.455  1.4251 -0.5449  2.8838
  631MOL0     H83283   7.044   2.000   4.559  1.0583  2.1258  1.4255
  631MOL0     H83284   7.307   2.012   4.385  1.8945 -1.8972  1.0304
  631MOL0     H83285   7.263   2.117   4.527 -1.5480  0.9890 -2.2497
  631MOL0     H83286   7.326   1.943   4.678  2.0142 -0.3900  0.1589
  631MOL0     H83287   7.454   1.975   4.569 -0.8275  3.5030 -0.4795
  631MOL0     H83288   7.373   1.771   4.433  0.6478  1.0035 -0.3489
  631MOL0     H83289   7.444   1.744   4.591  1.1361 -1.0012 -0.7620
  631MOL0     H83290   7.026   1.627   4.589 -0.5903  2.2838  2.4822
  631MOL0     H83291   6.847   1.896   4.467 -1.3499  0.7794  1.1126
  631MOL0     H83292   6.630   1.900   4.381 -2.4603  0.2269 -2.1925
  632MOL0     O83293   8.969   8.875  11.078  0.0303  0.1156 -0.2896
  632MOL0     C83294   9.013   8.891  10.965  0.1008 -0.3509 -0.3300
  632MOL0     O83295   9.078   8.802  10.890  0.0376 -0.6059 -0.0353
  632MOL0     C83296   9.106   8.677  10.944  0.5795  0.7999 -0.5839
  632MOL0     C83297   9.012   8.583  10.993  0.0051  0.4227  0.3188
  632MOL0     C83298   9.042   8.448  11.019 -0.5121  0.3488 -1.0599
  632MOL0     C83299   9.171   8.398  10.994 -0.1019  0.1809  0.3639
  632MOL0     O83300   9.198   8.263  10.993  0.8020 -0.1180 -0.1431
  632MOL0     C83301   9.285   8.222  10.887 -0.0274 -0.2071 -0.4551
  632MOL0     C83302   9.225   8.251  10.748 -0.4524  0.0152  0.6956
  632MOL0     C83303   9.081   8.200  10.734 -0.0379  0.4682  0.4101
  632MOL0     C83304   9.019   8.209  10.593 -0.6733  0.4721  0.4696
  632MOL0     C83305   8.967   8.348  10.542 -0.6433  0.0506  0.6529
  632MOL0     C83306   8.851   8.409  10.618  0.4864 -0.0185  1.2437
  632MOL0     C83307   8.820   8.546  10.563 -0.1524 -0.3208  0.4915
  632MOL0     C83308   8.916   8.655  10.613  0.0965 -0.2988 -0.1278
  632MOL0     N83309   8.880   8.785  10.546  0.1952 -0.4054 -0.5664
  632MOL0     C83310   8.767   8.854  10.583 -0.5785 -0.1842  0.5218
  632MOL0     C83311   8.787   8.971  10.525  0.5512  0.5300  0.3679
  632MOL0     C83312   8.719   9.095  10.570 -0.7029  0.3819 -0.0512
  632MOL0     C83313   8.563   9.077  10.531  0.2092  0.0545  0.0792
  632MOL0     C83314   8.483   9.213  10.510 -0.2006 -0.2244  0.1156
  632MOL0     C83315   8.499   9.320  10.614 -0.1776 -0.0962  0.5356
  632MOL0     O83316   8.408   9.437  10.589 -0.7603  1.0624 -0.4692
  632MOL0     C83317   8.277   9.423  10.600  0.0905  0.4277  0.1665
  632MOL0     C83318   8.218   9.310  10.661 -0.8313 -0.3906 -0.2835
  632MOL0     C83319   8.085   9.294  10.674  0.2092 -0.9406  0.2126
  632MOL0     C83320   7.999   9.398  10.629  0.0844  0.0256 -0.0298
  632MOL0     C83321   7.855   9.381  10.642 -0.0706 -0.5572  0.1145
  632MOL0     O83322   7.793   9.259  10.661  0.6085  0.7968  0.6735
  632MOL0     C83323   7.659   9.243  10.680 -0.1105  0.8646 -0.0542
  632MOL0     C83324   7.581   9.207  10.571  0.3931  0.7538  0.7994
  632MOL0     C83325   7.443   9.207  10.593 -1.3780 -0.0071  0.5845
  632MOL0     C83326   7.385   9.248  10.711 -0.6152  0.5384 -0.1516
  632MOL0     O83327   7.249   9.243  10.697 -0.5896 -0.4641  0.1130
  632MOL0     C83328   7.168   9.260  10.810 -0.2459 -0.4095  0.1567
  632MOL0     C83329   7.157   9.136  10.902  0.9116 -0.3074  0.7361
  632MOL0     C83330   7.081   9.031  10.825 -0.1552  0.9201 -0.3104
  632MOL0     C83331   7.031   8.910  10.909  0.5356 -0.1148 -0.0812
  632MOL0     C83332   6.883   8.938  10.952  0.1942 -0.4192 -0.1781
  632MOL0     C83333   6.813   8.820  11.010 -0.2175 -0.2153 -0.3835
  632MOL0     C83334   6.673   8.853  11.061  0.5931  0.4340  0.5093
  632MOL0     C83335   6.626   8.740  11.144 -0.4890 -0.4083 -0.0609
  632MOL0    Cl83336   6.501   8.785  11.259  0.4494  0.9841  0.2106
  632MOL0     C83337   7.461   9.288  10.818 -0.6385  0.4592 -0.4383
  632MOL0     C83338   7.600   9.288  10.796  0.3413  0.1786 -0.5257
  632MOL0     O83339   7.792   9.492  10.651  0.2447  0.2094 -0.1080
  632MOL0     C83340   8.058   9.513  10.563 -0.6376 -0.4744 -0.2428
  632MOL0     C83341   8.193   9.525  10.553  0.0558 -0.4121  0.9412
  632MOL0     N83342   8.896   8.970  10.442  0.3133  0.2182  0.1807
  632MOL0     N83343   8.949   8.848  10.456  0.1831  0.8342 -0.5795
  632MOL0     C83344   9.270   8.493  10.955  0.3964  0.2045  0.2623
  632MOL0     C83345   9.236   8.628  10.928 -0.3856 -0.8460 -0.1873
  632MOL0     C83346   8.976   9.017  10.890  0.5380 -0.9141 -0.8285
  632MOL0     C83347   8.890   9.111  10.952 -0.1169 -0.0688 -0.0982
  632MOL0     C83348   8.850   9.234  10.898 -0.4852 -0.1315  0.4364
  632MOL0     C83349   8.904   9.285  10.774 -0.6163  0.3463 -0.1460
  632MOL0     O83350   8.852   9.397  10.713 -0.4265 -1.0778  0.0965
  632MOL0     C83351   8.817   9.505  10.804  0.2001 -0.1821 -0.4546
  632MOL0     C83352   8.959   9.562  10.856  0.7085  0.4428  0.1987
  632MOL0     C83353   8.937   9.678  10.945 -0.1945  0.2651  0.5359
  632MOL0     C83354   9.067   9.760  10.982  0.3247 -1.1621  0.5131
  632MOL0     C83355   9.142   9.715  11.105  0.7735 -0.4539  0.7932
  632MOL0     C83356   9.195   9.683  11.212  0.3899 -0.6021  0.0947
  632MOL0     C83357   9.002   9.199  10.714 -0.5647 -0.9131 -1.1673
  632MOL0     C83358   9.026   9.068  10.766  0.2751 -0.2932  1.0938
  632MOL0     H83359   8.911   8.610  11.020  0.3392  2.9670 -0.7192
  632MOL0     H83360   8.967   8.381  11.059 -3.7569  2.1615 -3.6015
  632MOL0     H83361   9.297   8.114  10.898  0.6728 -0.1762 -0.8309
  632MOL0     H83362   9.382   8.270  10.907 -0.7617  0.3367  2.2486
  632MOL0     H83363   9.284   8.228  10.659  0.4397  0.5401  1.1305
  632MOL0     H83364   9.215   8.360  10.738  0.0850 -0.0507 -0.8326
  632MOL0     H83365   9.014   8.257  10.799 -0.4374  4.3245 -3.0298
  632MOL0     H83366   9.086   8.096  10.768 -1.9859  1.5014  4.4736
  632MOL0     H83367   9.091   8.164  10.525  0.0822 -0.0262  1.5774
  632MOL0     H83368   8.937   8.136  10.591  1.4149 -2.0305  0.3762
  632MOL0     H83369   8.934   8.326  10.440  0.5293  2.5005 -0.3447
  632MOL0     H83370   9.051   8.418  10.537 -0.9502  0.4178  0.5660
  632MOL0     H83371   8.890   8.434  10.717  0.8008 -1.7160  1.5844
  632MOL0     H83372   8.770   8.336  10.615 -1.4134  1.7082 -5.0193
  632MOL0     H83373   8.823   8.541  10.454 -3.6152  1.7073  0.1614
  632MOL0     H83374   8.715   8.571  10.584 -0.7363  1.0243 -3.2684
  632MOL0     H83375   9.014   8.629  10.573  0.1712  0.4620 -0.4538
  632MOL0     H83376   8.914   8.664  10.722 -2.7708 -1.3309 -0.0057
  632MOL0     H83377   8.711   8.847  10.676 -1.0470 -1.0105  0.1919
  632MOL0     H83378   8.759   9.183  10.519  0.9259  0.2882  0.9937
  632MOL0     H83379   8.738   9.116  10.676  1.2123 -1.4490  0.0334
  632MOL0     H83380   8.510   9.014  10.604 -1.5951 -0.4304 -1.5548
  632MOL0     H83381   8.548   9.033  10.432  1.2414 -0.2430  0.0508
  632MOL0     H83382   8.514   9.254  10.414  1.5256 -2.5446 -0.3855
  632MOL0     H83383   8.376   9.192  10.498 -0.9843  2.2948  1.7245
  632MOL0     H83384   8.602   9.357  10.617 -0.9192  2.6767 -2.5575
  632MOL0     H83385   8.483   9.268  10.709  2.4229  0.4774  1.3769
  632MOL0     H83386   8.275   9.231  10.709 -1.5570 -0.1202  1.1013
  632MOL0     H83387   8.059   9.195  10.712  0.4282 -1.6111 -1.2771
  632MOL0     H83388   7.618   9.183  10.472 -1.0111 -1.0712  0.6621
  632MOL0     H83389   7.392   9.184  10.499  2.7183  1.5336 -2.3085
  632MOL0     H83390   7.071   9.288  10.768 -0.4017  0.9773  1.3810
  632MOL0     H83391   7.209   9.339  10.874  1.3807 -2.8916  2.4107
  632MOL0     H83392   7.102   9.170  10.990  1.5189  4.0696 -0.3257
  632MOL0     H83393   7.245   9.080  10.933 -0.3108 -0.4577  4.3392
  632MOL0     H83394   7.140   8.986  10.745 -0.9236  3.2471 -2.3214
  632MOL0     H83395   6.994   9.079  10.778 -2.4302 -0.8382  1.8701
  632MOL0     H83396   7.046   8.821  10.847  2.7284  1.2101 -1.5823
  632MOL0     H83397   7.092   8.897  10.999  2.3355 -3.5507 -1.6211
  632MOL0     H83398   6.815   8.980  10.877  0.1422 -2.7109 -1.5190
  632MOL0     H83399   6.884   9.015  11.030  0.1389  0.1131 -0.6897
  632MOL0     H83400   6.885   8.805  11.091 -0.5722  0.5160  0.0762
  632MOL0     H83401   6.800   8.729  10.950  0.0737 -0.3134 -0.2967
  632MOL0     H83402   6.675   8.947  11.117 -1.3648  1.7194 -1.3950
  632MOL0     H83403   6.605   8.878  10.979 -2.0354  0.8143  2.6490
  632MOL0     H83404   6.711   8.698  11.198  0.0578  0.9200  0.1383
  632MOL0     H83405   6.588   8.660  11.079 -1.6637  1.0268 -1.2063
  632MOL0     H83406   7.426   9.308  10.919  4.6288 -1.9182  2.2526
  632MOL0     H83407   7.671   9.321  10.871 -0.0696 -0.0415 -0.0419
  632MOL0     H83408   7.994   9.596  10.535  1.3385  0.9128 -0.8490
  632MOL0     H83409   8.250   9.592  10.489  2.1565 -1.1836  1.9086
  632MOL0     H83410   9.376   8.485  10.931  1.1017  1.3369  2.6576
  632MOL0     H83411   9.311   8.695  10.886 -0.1331  0.6359  2.3738
  632MOL0     H83412   8.849   9.081  11.048 -2.6122 -0.2750 -1.1718
  632MOL0     H83413   8.780   9.285  10.963 -0.3893  1.1261 -0.4116
  632MOL0     H83414   8.758   9.485  10.893  2.3041 -0.0130  1.0421
  632MOL0     H83415   8.770   9.581  10.741 -0.6581  0.2983  0.7327
  632MOL0     H83416   9.026   9.491  10.904  0.3373  0.6108  0.9853
  632MOL0     H83417   9.010   9.595  10.765  3.2100 -1.7035  0.7272
  632MOL0     H83418   8.889   9.644  11.037  0.4635  1.3270  1.2987
  632MOL0     H83419   8.868   9.742  10.889  0.4523 -2.1627 -3.4273
  632MOL0     H83420   9.139   9.781  10.902  2.4177  2.1482  3.0001
  632MOL0     H83421   9.026   9.858  11.007 -0.9921 -2.3377  3.3904
  632MOL0     H83422   9.244   9.647  11.301  1.3676 -1.4088 -0.7481
  632MOL0     H83423   9.056   9.233  10.627  1.0626  2.4201  0.9304
  632MOL0     H83424   9.101   9.023  10.701  0.5538  1.2646  0.2975
  633MOL0     O83425   1.081   9.655   8.211  0.3781  1.0559  0.4184
  633MOL0     C83426   1.095   9.544   8.255  0.8083 -0.0002  0.2353
  633MOL0     O83427   1.008   9.435   8.235 -0.0764 -0.3897 -0.4380
  633MOL0     C83428   0.894   9.437   8.159  0.3968  0.0554 -0.1643
  633MOL0     C83429   0.774   9.444   8.228 -0.5763 -0.3581  0.5068
  633MOL0     C83430   0.649   9.438   8.162  0.2822  0.6968 -0.4218
  633MOL0     C83431   0.642   9.445   8.021 -0.6715 -0.1787  0.3379
  633MOL0     O83432   0.524   9.466   7.953  0.6997 -0.3239 -0.2974
  633MOL0     C83433   0.400   9.421   8.009  0.1531  0.0151  0.2046
  633MOL0     C83434   0.286   9.469   7.914  0.2799  0.2777  0.0893
  633MOL0     C83435   0.160   9.381   7.926 -0.3983 -0.6916  0.2612
  633MOL0     C83436   0.044   9.420   7.839 -1.2675 -0.3888 -0.5655
  633MOL0     C83437   0.043   9.365   7.702 -0.0373  0.3583  0.2509
  633MOL0     C83438   0.026   9.213   7.685  0.3666 -0.1839 -0.5300
  633MOL0     C83439   0.024   9.181   7.530  0.1620 -0.3409  0.2612
  633MOL0     C83440  -0.121   9.118   7.486  0.6898 -0.0859  0.1242
  633MOL0     N83441  -0.219   9.225   7.527 -0.5137 -0.6740  0.3450
  633MOL0     C83442  -0.328   9.223   7.611  0.6060  0.2028 -0.8095
  633MOL0     C83443  -0.387   9.346   7.596  0.4866  0.2498 -0.2707
  633MOL0     C83444  -0.516   9.401   7.645  0.4870 -0.5925 -0.0449
  633MOL0     C83445  -0.501   9.499   7.755  0.5177  0.1821 -0.8143
  633MOL0     C83446  -0.449   9.441   7.883 -0.2098 -1.3493 -0.3405
  633MOL0     C83447  -0.339   9.524   7.947 -0.2870  0.0929  1.2797
  633MOL0     O83448  -0.295   9.449   8.059  0.1505 -0.1860 -0.5952
  633MOL0     C83449  -0.184   9.490   8.125 -0.5082  1.0394  0.0193
  633MOL0     C83450  -0.116   9.611   8.093 -1.0434  0.1410  0.6025
  633MOL0     C83451  -0.004   9.641   8.171  0.7835 -0.0890  1.1319
  633MOL0     C83452   0.045   9.558   8.274 -0.3287  0.3787  0.5277
  633MOL0     C83453   0.164   9.602   8.352 -0.1757 -0.7227 -0.9274
  633MOL0     O83454   0.274   9.630   8.291 -0.3068 -0.6735  0.5053
  633MOL0     C83455   0.391   9.659   8.358 -0.4058 -0.7825 -0.9728
  633MOL0     C83456   0.436   9.561   8.448 -0.2226 -0.9341  0.3971
  633MOL0     C83457   0.562   9.563   8.510  0.1230  0.7358 -0.2169
  633MOL0     C83458   0.655   9.663   8.473  0.5324 -0.7223  0.4123
  633MOL0     O83459   0.772   9.664   8.545 -0.0512 -0.0211 -0.5203
  633MOL0     C83460   0.871   9.754   8.505  0.1928  0.5971 -0.1353
  633MOL0     C83461   0.993   9.754   8.602  0.0661 -0.2991 -0.4743
  633MOL0     C83462   0.962   9.841   8.730  0.1036  0.8721  0.1124
  633MOL0     C83463   1.076   9.820   8.830 -0.3688 -0.0514 -0.2377
  633MOL0     C83464   1.070   9.907   8.957  0.4758 -0.0397 -0.3475
  633MOL0     C83465   0.937   9.880   9.024  0.1870  1.4434  0.4762
  633MOL0     C83466   0.928   9.938   9.173 -0.3513  0.3238  0.2517
  633MOL0     C83467   1.024   9.872   9.267 -0.4565 -1.0469 -0.6360
  633MOL0    Cl83468   1.005   9.684   9.283  0.3536  0.0990  0.3345
  633MOL0     C83469   0.609   9.762   8.380  0.1852  0.5146  0.7307
  633MOL0     C83470   0.479   9.757   8.314 -0.1293 -0.2349 -0.3036
  633MOL0     O83471   0.149   9.631   8.467  0.0964  0.4028 -0.3706
  633MOL0     C83472  -0.037   9.453   8.311  0.6171  0.1015  0.9297
  633MOL0     C83473  -0.141   9.410   8.233  0.5264 -0.8822  0.6536
  633MOL0     N83474  -0.333   9.403   7.488 -0.0170 -0.1988  0.6478
  633MOL0     N83475  -0.215   9.346   7.468  0.4955  0.1723 -0.4565
  633MOL0     C83476   0.761   9.447   7.958  0.4109 -0.7633  0.7490
  633MOL0     C83477   0.885   9.437   8.022  0.2917 -0.0910  0.4393
  633MOL0     C83478   1.195   9.513   8.364 -0.1607  1.1981  0.4589
  633MOL0     C83479   1.297   9.598   8.405  0.4545  0.2827  0.9974
  633MOL0     C83480   1.385   9.580   8.510  0.3088  0.8078 -0.0550
  633MOL0     C83481   1.390   9.460   8.579 -1.2680 -0.0442 -0.2491
  633MOL0     O83482   1.488   9.450   8.674 -0.6123 -0.8566  0.4883
  633MOL0     C83483   1.468   9.333   8.765  0.2302  0.3541 -0.4762
  633MOL0     C83484   1.350   9.349   8.853 -0.5874  0.5942 -0.6137
  633MOL0     C83485   1.364   9.493   8.920 -0.8043 -0.3659 -0.3858
  633MOL0     C83486   1.233   9.524   8.995  0.3104  1.1495  0.5443
  633MOL0     C83487   1.220   9.454   9.129 -0.7636  0.5120 -0.0495
  633MOL0     C83488   1.194   9.404   9.240 -0.0065 -0.5957 -0.1865
  633MOL0     C83489   1.299   9.359   8.531  0.3408 -0.5797  0.0274
  633MOL0     C83490   1.204   9.386   8.437  0.0528 -0.4091 -0.5681
  633MOL0     H83491   0.791   9.446   8.335 -1.8337  1.3058  0.7221
  633MOL0     H83492   0.559   9.441   8.222 -0.3646 -0.9206 -1.2421
  633MOL0     H83493   0.369   9.465   8.104  0.6657 -1.0589  0.8918
  633MOL0     H83494   0.392   9.313   8.017  1.9100 -0.0304  3.5273
  633MOL0     H83495   0.314   9.470   7.808  0.4141  1.8342  0.1071
  633MOL0     H83496   0.264   9.575   7.931  1.5961  0.3416  1.6047
  633MOL0     H83497   0.134   9.394   8.032 -0.2344  2.2761  0.0098
  633MOL0     H83498   0.179   9.274   7.910 -0.3513 -0.5993 -0.3074
  633MOL0     H83499  -0.046   9.386   7.890 -0.9296 -1.1856 -0.4833
  633MOL0     H83500   0.038   9.529   7.829  2.0182  0.1152  1.1976
  633MOL0     H83501   0.128   9.397   7.642  1.2695  0.8319  2.2722
  633MOL0     H83502  -0.043   9.409   7.650  0.7048 -1.2330 -2.5503
  633MOL0     H83503  -0.061   9.182   7.743  0.6890  1.0361  0.6725
  633MOL0     H83504   0.109   9.166   7.739 -2.3721 -1.4056  3.0500
  633MOL0     H83505   0.058   9.261   7.464  1.3535 -2.0010 -1.2369
  633MOL0     H83506   0.100   9.105   7.512 -2.3220 -3.3399  1.5669
  633MOL0     H83507  -0.142   9.020   7.531  0.0477 -1.1882 -2.4113
  633MOL0     H83508  -0.121   9.102   7.378 -2.0554 -1.3091  0.2154
  633MOL0     H83509  -0.346   9.152   7.691  0.6022 -1.2755 -2.0758
  633MOL0     H83510  -0.586   9.322   7.674 -1.3331  1.0598  0.2710
  633MOL0     H83511  -0.565   9.447   7.558  1.1095  0.3694  0.1045
  633MOL0     H83512  -0.598   9.550   7.765  0.5349 -0.0409  0.7018
  633MOL0     H83513  -0.439   9.585   7.728  1.3137  1.2087  3.6023
  633MOL0     H83514  -0.532   9.444   7.954  0.0716  0.5327 -0.0508
  633MOL0     H83515  -0.411   9.342   7.856  0.6657 -1.0435 -0.2556
  633MOL0     H83516  -0.370   9.626   7.973 -0.6426  0.5735 -0.8148
  633MOL0     H83517  -0.254   9.516   7.877 -0.4872 -2.5369  1.2367
  633MOL0     H83518  -0.161   9.682   8.024  1.4320  0.7642 -0.4817
  633MOL0     H83519   0.043   9.735   8.143 -0.4787 -0.1159 -1.3997
  633MOL0     H83520   0.379   9.470   8.462  1.0681 -1.5320  2.2212
  633MOL0     H83521   0.570   9.483   8.583 -1.4213 -0.3736 -1.2129
  633MOL0     H83522   0.835   9.857   8.499  0.3144  0.8283  2.1592
  633MOL0     H83523   0.913   9.717   8.411  1.1170  2.5217 -0.5264
  633MOL0     H83524   1.080   9.802   8.557 -0.1943 -0.0024 -0.6621
  633MOL0     H83525   1.026   9.651   8.621  0.3372  0.2780  2.6437
  633MOL0     H83526   0.864   9.811   8.769 -0.2410  1.8168  0.0158
  633MOL0     H83527   0.954   9.944   8.694 -2.4061 -0.1644 -2.7370
  633MOL0     H83528   1.074   9.717   8.867 -1.0906 -0.1439 -0.5143
  633MOL0     H83529   1.171   9.858   8.791 -0.4807  1.3876  0.8194
  633MOL0     H83530   1.078  10.010   8.919 -0.8071  0.5115  0.7975
  633MOL0     H83531   1.152   9.883   9.025 -0.3438 -4.0863 -0.5453
  633MOL0     H83532   0.931   9.771   9.025  0.5567  1.3899 -1.0578
  633MOL0     H83533   0.848   9.912   8.970 -0.7654 -0.6108  0.7713
  633MOL0     H83534   0.954  10.043   9.191  0.7472  0.4240 -1.6815
  633MOL0     H83535   0.825   9.925   9.207 -0.5952  2.2041  0.3709
  633MOL0     H83536   1.025   9.909   9.370  2.0619 -3.7445  0.4539
  633MOL0     H83537   1.125   9.896   9.232  0.4045 -2.4320  0.7510
  633MOL0     H83538   0.659   9.858   8.368 -3.1712  2.3979  0.2783
  633MOL0     H83539   0.438   9.827   8.243 -1.4397 -0.8374 -0.1714
  633MOL0     H83540  -0.033   9.397   8.404 -0.5600  2.5897  2.5989
  633MOL0     H83541  -0.186   9.319   8.271  1.2974 -1.5627 -0.0252
  633MOL0     H83542   0.766   9.482   7.856  4.3377  2.6697  1.8076
  633MOL0     H83543   0.975   9.453   7.964 -0.9603 -0.0109 -1.5796
  633MOL0     H83544   1.297   9.693   8.354  1.8777 -0.3790 -0.3288
  633MOL0     H83545   1.433   9.670   8.547 -1.0804  2.9144 -2.9961
  633MOL0     H83546   1.553   9.312   8.830 -0.4454  0.3716  0.4377
  633MOL0     H83547   1.446   9.238   8.716 -2.7266  0.2864  0.7814
  633MOL0     H83548   1.252   9.337   8.806 -1.3053  0.9802  0.7418
  633MOL0     H83549   1.362   9.280   8.937 -2.0652  0.4181 -0.5302
  633MOL0     H83550   1.369   9.577   8.850  1.1267 -2.5600 -3.0867
  633MOL0     H83551   1.451   9.491   8.986 -0.8212  1.4439 -0.2445
  633MOL0     H83552   1.229   9.628   9.030  0.2660  1.4696 -0.3721
  633MOL0     H83553   1.149   9.502   8.929  3.1649 -2.5329 -2.3026
  633MOL0     H83554   1.184   9.364   9.339 -2.5384 -1.4136 -0.6953
  633MOL0     H83555   1.306   9.259   8.571 -2.2985 -1.8586 -2.3964
  633MOL0     H83556   1.133   9.311   8.405 -2.6803  1.8951 -0.2736
  634MOL0     O83557   2.096   0.389  10.496 -0.6980  0.1924  0.4196
  634MOL0     C83558   2.096   0.492  10.553 -0.1509 -1.1073 -0.3564
  634MOL0     O83559   1.977   0.557  10.591 -0.5641 -0.3973 -0.9080
  634MOL0     C83560   1.852   0.498  10.580 -0.6443 -0.3568 -0.3276
  634MOL0     C83561   1.749   0.580  10.540 -0.4057  1.0692  1.6203
  634MOL0     C83562   1.612   0.534  10.545 -0.5784  0.1438 -0.5720
  634MOL0     C83563   1.579   0.409  10.587  0.8839 -0.6081  0.3529
  634MOL0     O83564   1.451   0.364  10.598 -0.3587  0.1312  0.8157
  634MOL0     C83565   1.344   0.430  10.526 -0.3289  0.7560 -0.8630
  634MOL0     C83566   1.213   0.355  10.563 -0.1959 -0.0423  0.4202
  634MOL0     C83567   1.104   0.357  10.456 -0.7700  1.9149 -0.2452
  634MOL0     C83568   0.979   0.278  10.505 -0.1653  0.7913 -0.0822
  634MOL0     C83569   0.870   0.262  10.410  1.2913 -0.6735 -0.2889
  634MOL0     C83570   0.738   0.204  10.468 -0.5196 -0.6928 -0.1088
  634MOL0     C83571   0.614   0.202  10.372  0.0669 -1.0613  0.0276
  634MOL0     C83572   0.484   0.174  10.445  0.5661 -0.6318  1.0751
  634MOL0     N83573   0.371   0.233  10.381  1.0035  0.2730 -0.1628
  634MOL0     C83574   0.271   0.299  10.459  0.1312 -0.6031 -0.4831
  634MOL0     C83575   0.165   0.312  10.373 -0.7590 -0.6357 -0.1917
  634MOL0     C83576   0.032   0.386  10.379  0.2182  0.1723  1.1035
  634MOL0     C83577  -0.005   0.464  10.510 -0.2673 -0.7070  0.0472
  634MOL0     C83578  -0.009   0.623  10.504 -0.6784 -0.2055  0.6220
  634MOL0     C83579   0.121   0.674  10.549  0.3286  0.1198 -0.1800
  634MOL0     O83580   0.226   0.610  10.471  0.6917  0.8345  0.6716
  634MOL0     C83581   0.354   0.654  10.487 -0.5173  0.0798 -0.2424
  634MOL0     C83582   0.445   0.594  10.401  0.3969  0.1619 -0.2200
  634MOL0     C83583   0.577   0.628  10.405 -0.3860 -0.7038  0.8415
  634MOL0     C83584   0.622   0.717  10.503 -0.2529 -1.0603  0.6982
  634MOL0     C83585   0.761   0.756  10.515  0.0929  0.0724  0.1337
  634MOL0     O83586   0.835   0.707  10.419  0.4048 -0.9577 -0.0241
  634MOL0     C83587   0.974   0.727  10.414  0.4427  1.0666  1.2341
  634MOL0     C83588   1.053   0.744  10.528 -0.0311 -0.2796  0.0887
  634MOL0     C83589   1.188   0.772  10.512  0.1227  0.0926  0.3773
  634MOL0     C83590   1.244   0.769  10.389 -0.2969  0.3886 -0.0031
  634MOL0     O83591   1.381   0.768  10.388 -1.1272  0.1239 -0.5719
  634MOL0     C83592   1.458   0.819  10.274 -0.2612  0.1632 -0.3853
  634MOL0     C83593   1.515   0.703  10.206 -0.4952  0.1863  0.1130
  634MOL0     C83594   1.643   0.727  10.117  0.4366  0.0746 -0.4870
  634MOL0     C83595   1.619   0.853  10.037  0.9455  0.1961 -0.0501
  634MOL0     C83596   1.507   0.837   9.933 -0.7181  0.8638  0.3574
  634MOL0     C83597   1.534   0.940   9.810  0.2828  0.4509  0.2865
  634MOL0     C83598   1.443   0.915   9.693  0.2825  0.4837 -0.5288
  634MOL0     C83599   1.301   0.916   9.729 -0.2929  0.2611 -0.7825
  634MOL0    Cl83600   1.199   0.884   9.581  0.9515 -0.0233 -0.1972
  634MOL0     C83601   1.175   0.734  10.269  0.1143  0.1905  0.4447
  634MOL0     C83602   1.039   0.722  10.284  0.7374  0.8065 -0.5288
  634MOL0     O83603   0.792   0.835  10.605 -0.2495  0.5602  0.1426
  634MOL0     C83604   0.531   0.763  10.598 -0.7159  0.2144  1.3304
  634MOL0     C83605   0.396   0.728  10.590 -0.8812  0.3326  0.5491
  634MOL0     N83606   0.201   0.254  10.250 -0.1010 -0.7624 -0.9532
  634MOL0     N83607   0.313   0.206  10.256 -0.2931 -1.0276 -0.5877
  634MOL0     C83608   1.689   0.328  10.633  0.7300 -1.0867 -0.0845
  634MOL0     C83609   1.815   0.374  10.625  0.8526 -0.8195  0.5164
  634MOL0     C83610   2.230   0.558  10.588  0.9923  0.5716 -0.3396
  634MOL0     C83611   2.228   0.658  10.689  0.7858 -0.1399  1.4013
  634MOL0     C83612   2.341   0.751  10.691  0.7064  0.0143  0.8182
  634MOL0     C83613   2.450   0.736  10.604 -0.7049  0.0624  0.5419
  634MOL0     O83614   2.565   0.818  10.615  0.3664 -0.8193 -0.1485
  634MOL0     C83615   2.672   0.780  10.712  0.0608  0.6166  0.9803
  634MOL0     C83616   2.764   0.902  10.700  0.1001 -0.7694 -0.5666
  634MOL0     C83617   2.850   0.891  10.571  0.4017  0.1692 -0.2995
  634MOL0     C83618   2.932   1.017  10.543  0.5360 -0.7617  0.2319
  634MOL0     C83619   2.847   1.121  10.476  0.0761 -0.3580 -0.9038
  634MOL0     C83620   2.768   1.196  10.421  0.2752 -0.3083 -0.3929
  634MOL0     C83621   2.453   0.628  10.513  0.9755  0.0838 -1.6230
  634MOL0     C83622   2.340   0.545  10.501  0.4831  0.1642 -0.5505
  634MOL0     H83623   1.771   0.678  10.500  1.1590 -0.6746 -2.3663
  634MOL0     H83624   1.526   0.594  10.518 -1.7791 -1.4764 -0.5142
  634MOL0     H83625   1.359   0.415  10.419 -2.2762 -2.3766 -0.7958
  634MOL0     H83626   1.336   0.537  10.547 -1.2650  0.2249  1.7779
  634MOL0     H83627   1.154   0.405  10.640 -4.2778  0.9232 -2.9661
  634MOL0     H83628   1.233   0.251  10.591  1.1789  0.3042  0.8349
  634MOL0     H83629   1.149   0.313  10.366  1.0701  1.5491  0.8286
  634MOL0     H83630   1.076   0.461  10.437  2.6791  3.1190  0.5446
  634MOL0     H83631   1.008   0.179  10.543  0.0610  2.0206  3.2592
  634MOL0     H83632   0.934   0.345  10.579 -1.4939  0.5834 -0.6761
  634MOL0     H83633   0.898   0.209  10.319  0.3622  1.2672 -1.7781
  634MOL0     H83634   0.835   0.359  10.373 -2.3208 -2.3444 -1.5931
  634MOL0     H83635   0.705   0.264  10.554  1.5393  0.1789  0.1113
  634MOL0     H83636   0.754   0.106  10.513 -0.7296 -0.0131  1.5400
  634MOL0     H83637   0.608   0.298  10.320 -3.3592 -0.4236  1.3231
  634MOL0     H83638   0.629   0.126  10.296  2.2883  2.4436 -3.4062
  634MOL0     H83639   0.477   0.217  10.546  0.4960  0.5324  0.5864
  634MOL0     H83640   0.478   0.065  10.447 -1.1021 -0.6842 -1.6124
  634MOL0     H83641   0.285   0.338  10.559  1.2976 -0.6257 -0.6247
  634MOL0     H83642  -0.043   0.311  10.349  0.8291  0.6723 -1.9860
  634MOL0     H83643   0.036   0.451  10.292  1.8653 -0.7543  0.4509
  634MOL0     H83644   0.052   0.436  10.599 -0.9775 -1.1972  0.3551
  634MOL0     H83645  -0.103   0.430  10.542 -0.7588  0.5751 -0.0404
  634MOL0     H83646  -0.040   0.658  10.405  0.2026  1.8802  1.0337
  634MOL0     H83647  -0.085   0.662  10.573 -1.0878  1.3064 -0.6322
  634MOL0     H83648   0.138   0.649  10.654 -0.2835 -0.4671 -0.2170
  634MOL0     H83649   0.120   0.782  10.530  1.2061  0.2158  0.3007
  634MOL0     H83650   0.412   0.527  10.322  2.7345  0.4631 -1.5551
  634MOL0     H83651   0.642   0.599  10.323 -1.2567 -0.7280  0.1461
  634MOL0     H83652   1.000   0.734  10.622 -0.9875  0.7351 -0.3339
  634MOL0     H83653   1.253   0.789  10.596  0.0911  0.1142  0.3969
  634MOL0     H83654   1.540   0.881  10.313 -1.5375  0.2419  2.3764
  634MOL0     H83655   1.398   0.871  10.198 -1.0543 -1.1507 -0.6858
  634MOL0     H83656   1.433   0.667  10.143 -0.6297  2.2214 -0.9669
  634MOL0     H83657   1.537   0.622  10.277  0.8219 -1.1327 -1.7067
  634MOL0     H83658   1.674   0.643  10.054  2.0362  0.9925 -0.9874
  634MOL0     H83659   1.723   0.750  10.188 -2.7040 -0.5669  3.5810
  634MOL0     H83660   1.600   0.941  10.099  1.5945  0.7362 -0.6008
  634MOL0     H83661   1.713   0.861   9.982  1.2490 -3.1484 -0.1944
  634MOL0     H83662   1.417   0.868   9.987 -0.0161  0.2602  1.9320
  634MOL0     H83663   1.491   0.733   9.903  0.6017  1.2895 -2.0652
  634MOL0     H83664   1.642   0.940   9.791  0.6750  0.0031  2.2950
  634MOL0     H83665   1.505   1.037   9.851  1.3507  0.5619  0.8464
  634MOL0     H83666   1.458   1.001   9.627 -1.9671  1.5195  0.2098
  634MOL0     H83667   1.477   0.823   9.644  0.5836 -0.3429  1.1715
  634MOL0     H83668   1.273   1.003   9.789  0.5346  0.2687 -0.3901
  634MOL0     H83669   1.291   0.828   9.793  0.0396  0.3207 -0.6461
  634MOL0     H83670   1.233   0.732  10.177  3.5131 -1.6846  2.4264
  634MOL0     H83671   0.965   0.711  10.206  0.7904  1.4988 -0.6863
  634MOL0     H83672   0.548   0.829  10.683 -1.4734 -1.1187  2.5642
  634MOL0     H83673   0.339   0.762  10.676  0.0718  1.2843  0.8223
  634MOL0     H83674   1.663   0.226  10.660 -3.4410 -0.7092 -1.9543
  634MOL0     H83675   1.884   0.304  10.670  2.5925  0.5963  0.1491
  634MOL0     H83676   2.154   0.666  10.767  1.9677 -1.7888  2.7653
  634MOL0     H83677   2.342   0.828  10.768 -1.1183  0.6384  0.2618
  634MOL0     H83678   2.714   0.688  10.671 -0.7308  0.4053  0.6273
  634MOL0     H83679   2.631   0.775  10.814 -1.0395  0.3956  0.5403
  634MOL0     H83680   2.698   0.988  10.705 -0.9292 -1.6077  1.3831
  634MOL0     H83681   2.837   0.906  10.782 -0.9297 -1.0086  0.3869
  634MOL0     H83682   2.791   0.869  10.481 -2.4462 -2.6053  1.9927
  634MOL0     H83683   2.911   0.803  10.595 -0.7194 -1.2713 -2.4164
  634MOL0     H83684   2.956   1.063  10.639  0.4255  0.8518 -0.4902
  634MOL0     H83685   3.024   0.992  10.490  1.5092  0.5797  1.2263
  634MOL0     H83686   2.700   1.255  10.363  1.8476  0.4032 -1.5713
  634MOL0     H83687   2.537   0.618  10.446  2.2185  0.8564 -0.2406
  634MOL0     H83688   2.343   0.462  10.431 -1.0621 -0.4341  0.0501
  635MOL0     O83689   5.434   3.237   0.458 -0.3756 -0.2002 -0.0880
  635MOL0     C83690   5.503   3.336   0.445  0.3715  0.5686 -0.1676
  635MOL0     O83691   5.464   3.445   0.380  0.6805 -1.3203  1.1197
  635MOL0     C83692   5.329   3.468   0.354  0.4352 -0.0683 -1.0680
  635MOL0     C83693   5.225   3.465   0.447 -0.2143  0.4518  1.2888
  635MOL0     C83694   5.093   3.483   0.406  0.4200 -0.3493  0.1016
  635MOL0     C83695   5.059   3.518   0.275 -0.4114 -0.0801 -0.8856
  635MOL0     O83696   4.927   3.542   0.238  0.8708  0.6541  0.3614
  635MOL0     C83697   4.884   3.486   0.106 -0.2018 -0.3494  0.0382
  635MOL0     C83698   4.735   3.485   0.111  0.5333  0.1838  0.0850
  635MOL0     C83699   4.672   3.380   0.209  0.0750  0.5562  0.8376
  635MOL0     C83700   4.685   3.232   0.165 -0.1162  0.5439 -0.4663
  635MOL0     C83701   4.621   3.200   0.037  0.0854  0.5010  0.4970
  635MOL0     C83702   4.627   3.052   0.010  0.4163  0.5406  0.0744
  635MOL0     C83703   4.546   2.997  -0.108  0.0240  0.2325  0.2372
  635MOL0     C83704   4.619   3.023  -0.240  0.1229 -1.1079  0.9729
  635MOL0     N83705   4.535   3.005  -0.353 -0.2063  0.1904  0.2096
  635MOL0     C83706   4.510   3.082  -0.462 -0.0464  0.7076 -0.3603
  635MOL0     C83707   4.478   3.004  -0.563  0.3789  0.0384  0.3317
  635MOL0     C83708   4.426   3.031  -0.700 -0.4694  0.0774  0.3882
  635MOL0     C83709   4.423   3.181  -0.743 -0.3671  0.3485  0.3076
  635MOL0     C83710   4.515   3.227  -0.860  0.6180  0.0297 -0.1482
  635MOL0     C83711   4.467   3.352  -0.929  0.2026 -0.7610  0.4507
  635MOL0     O83712   4.436   3.446  -0.829 -0.0863 -0.1445 -0.2962
  635MOL0     C83713   4.492   3.577  -0.840 -0.0070  0.1253 -0.4805
  635MOL0     C83714   4.483   3.645  -0.955  0.0465  0.0371  0.2040
  635MOL0     C83715   4.517   3.783  -0.970  1.0332 -1.0750  0.0622
  635MOL0     C83716   4.563   3.856  -0.863  0.1873 -0.4469 -1.7025
  635MOL0     C83717   4.586   4.003  -0.880 -0.6742  1.2913  0.0880
  635MOL0     O83718   4.611   4.042  -1.011  0.0032  0.1038 -0.5768
  635MOL0     C83719   4.644   4.178  -1.042  0.2477 -0.3942 -0.0876
  635MOL0     C83720   4.770   4.236  -1.013 -0.4321 -1.0055  0.2959
  635MOL0     C83721   4.812   4.357  -1.067 -0.1762 -1.0402  0.0170
  635MOL0     C83722   4.729   4.423  -1.156  0.0270  0.3418 -0.2712
  635MOL0     O83723   4.759   4.548  -1.213 -0.2328 -1.2732 -0.0675
  635MOL0     C83724   4.890   4.566  -1.257  0.0142 -0.1153  0.5271
  635MOL0     C83725   4.957   4.695  -1.208  0.2116  0.2357  0.6547
  635MOL0     C83726   4.882   4.812  -1.269  0.0192 -0.6245 -0.5945
  635MOL0     C83727   4.950   4.952  -1.259 -0.0993  0.4227 -0.1241
  635MOL0     C83728   4.849   5.068  -1.290 -0.2687  0.2314 -0.6347
  635MOL0     C83729   4.749   5.100  -1.180  0.8746 -0.3015 -1.8071
  635MOL0     C83730   4.791   5.114  -1.034 -0.3155 -0.2193  0.4163
  635MOL0     C83731   4.687   5.167  -0.946  0.6228 -0.1618 -0.7878
  635MOL0    Cl83732   4.569   5.047  -0.893 -0.5452 -0.2872  0.2196
  635MOL0     C83733   4.592   4.384  -1.168 -0.3154  0.4000  1.1339
  635MOL0     C83734   4.552   4.258  -1.120 -0.2428  0.5628 -0.1407
  635MOL0     O83735   4.583   4.080  -0.782  0.2313 -0.2841  0.4421
  635MOL0     C83736   4.582   3.783  -0.741 -0.4930  0.2969 -0.2516
  635MOL0     C83737   4.555   3.646  -0.743 -0.1940  0.9004 -0.5830
  635MOL0     N83738   4.473   2.875  -0.510 -0.2826 -0.6055  0.1346
  635MOL0     N83739   4.514   2.877  -0.386  0.3621  0.1918  0.1783
  635MOL0     C83740   5.166   3.523   0.177 -0.0696 -0.2334 -1.6486
  635MOL0     C83741   5.299   3.505   0.225  0.2608  0.2506  0.2611
  635MOL0     C83742   5.644   3.327   0.485  0.8268 -0.1440 -0.2563
  635MOL0     C83743   5.735   3.432   0.461  0.0376 -0.6737  0.0920
  635MOL0     C83744   5.868   3.418   0.507  0.0497 -0.1749 -1.4482
  635MOL0     C83745   5.904   3.307   0.579 -0.3335 -0.8847  0.4578
  635MOL0     O83746   6.037   3.289   0.615 -0.2413 -0.7949  0.2424
  635MOL0     C83747   6.088   3.397   0.699  0.4050  0.7737 -0.0575
  635MOL0     C83748   6.132   3.350   0.838 -0.0643 -0.0293  0.2054
  635MOL0     C83749   6.013   3.279   0.901 -0.1941 -1.1299 -0.3906
  635MOL0     C83750   6.035   3.281   1.051 -0.2805  0.8869 -0.3566
  635MOL0     C83751   5.900   3.269   1.115  0.3836 -0.2403  0.1296
  635MOL0     C83752   5.787   3.249   1.152 -0.7777 -0.3071  0.7806
  635MOL0     C83753   5.812   3.209   0.596 -0.4171  0.7002  0.8813
  635MOL0     C83754   5.681   3.214   0.551  0.5756 -1.2259 -0.0935
  635MOL0     H83755   5.231   3.443   0.553  2.5434 -0.1944  1.0503
  635MOL0     H83756   5.006   3.473   0.471 -2.2035  0.8356 -2.9718
  635MOL0     H83757   4.925   3.386   0.087  1.5277  0.7318 -2.5514
  635MOL0     H83758   4.913   3.552   0.024 -0.0011 -0.6461 -0.1309
  635MOL0     H83759   4.695   3.461   0.012  1.6173  1.2216 -0.6326
  635MOL0     H83760   4.701   3.587   0.130  1.2374  0.3366  0.5918
  635MOL0     H83761   4.566   3.405   0.220 -0.8809 -2.7992  0.4793
  635MOL0     H83762   4.711   3.389   0.311 -0.5253 -1.2244  1.2505
  635MOL0     H83763   4.785   3.191   0.180 -1.1583 -1.7517  0.8206
  635MOL0     H83764   4.624   3.175   0.236 -1.1829  0.1886 -1.6255
  635MOL0     H83765   4.668   3.250  -0.048  3.6773 -2.2133  0.6377
  635MOL0     H83766   4.514   3.224   0.037 -0.6634 -2.1062 -3.0166
  635MOL0     H83767   4.594   2.998   0.099 -3.3016  1.7241 -0.4163
  635MOL0     H83768   4.729   3.017  -0.011  0.1809 -0.0628 -0.0669
  635MOL0     H83769   4.533   2.889  -0.099  1.1140  0.0940  0.2701
  635MOL0     H83770   4.447   3.044  -0.106 -1.1075 -2.0481  1.2291
  635MOL0     H83771   4.703   2.953  -0.246  0.8558 -0.3512  1.9042
  635MOL0     H83772   4.659   3.124  -0.250 -1.1430 -0.7597 -1.2092
  635MOL0     H83773   4.538   3.187  -0.463  2.4459  0.1349  0.5258
  635MOL0     H83774   4.321   2.998  -0.704 -0.1701 -0.8030 -0.7427
  635MOL0     H83775   4.478   2.971  -0.775  0.4019 -0.2246  1.2292
  635MOL0     H83776   4.443   3.245  -0.656 -2.3681  2.8958 -0.9589
  635MOL0     H83777   4.322   3.214  -0.766 -0.5903  0.8087  1.8219
  635MOL0     H83778   4.619   3.248  -0.832  0.0384  1.6412  0.9378
  635MOL0     H83779   4.521   3.138  -0.923 -3.3646 -0.5246  0.0189
  635MOL0     H83780   4.382   3.334  -0.996 -0.6441  0.9691  1.0231
  635MOL0     H83781   4.540   3.387  -1.003 -1.5514 -0.2727 -1.1213
  635MOL0     H83782   4.442   3.582  -1.032  2.0136 -0.4213 -0.5073
  635MOL0     H83783   4.500   3.827  -1.067  2.2957 -1.0788 -0.1764
  635MOL0     H83784   4.831   4.186  -0.938  0.1624  2.4431  2.3433
  635MOL0     H83785   4.909   4.400  -1.044 -0.7305 -0.4792  1.4244
  635MOL0     H83786   4.891   4.569  -1.367 -3.3861  0.0271  0.4057
  635MOL0     H83787   4.952   4.476  -1.246 -0.4729 -0.5816 -0.3625
  635MOL0     H83788   5.052   4.689  -1.261 -1.2497 -0.9633 -2.0095
  635MOL0     H83789   4.952   4.703  -1.099  3.2209  0.8325  0.8471
  635MOL0     H83790   4.790   4.819  -1.210  1.7178  1.4555  2.0449
  635MOL0     H83791   4.853   4.778  -1.369 -2.6642 -0.3394  0.0038
  635MOL0     H83792   4.996   4.957  -1.160  0.8411  1.3081 -0.5772
  635MOL0     H83793   5.024   4.959  -1.340 -1.3664 -3.0423 -1.7974
  635MOL0     H83794   4.793   5.052  -1.383  2.0072  1.8626 -2.3739
  635MOL0     H83795   4.898   5.163  -1.310 -0.3719  0.2744 -0.6850
  635MOL0     H83796   4.672   5.023  -1.168 -3.0877  3.6143  0.6122
  635MOL0     H83797   4.690   5.185  -1.214 -1.3005 -0.0970  2.0067
  635MOL0     H83798   4.811   5.010  -1.008 -1.0578 -1.5052 -3.5231
  635MOL0     H83799   4.884   5.171  -1.028 -0.0481 -0.3815 -1.4743
  635MOL0     H83800   4.633   5.240  -1.008 -0.0951  0.5915  0.6719
  635MOL0     H83801   4.735   5.222  -0.864  1.1379 -0.9519 -0.5476
  635MOL0     H83802   4.527   4.454  -1.220  2.5336  2.5294  0.1790
  635MOL0     H83803   4.459   4.205  -1.137 -0.0623 -0.3638  1.5973
  635MOL0     H83804   4.600   3.830  -0.645  0.0672  1.9617 -1.1302
  635MOL0     H83805   4.582   3.597  -0.649  0.2952  2.6802  0.2403
  635MOL0     H83806   5.130   3.549   0.078 -3.3460 -0.2947 -0.5996
  635MOL0     H83807   5.385   3.501   0.160  0.7889 -0.1649  0.9810
  635MOL0     H83808   5.696   3.524   0.418  0.5140 -0.8860 -0.8128
  635MOL0     H83809   5.951   3.484   0.486  2.5880 -2.4470  0.6229
  635MOL0     H83810   6.012   3.473   0.721  1.0069  0.7412  2.4532
  635MOL0     H83811   6.179   3.432   0.650  0.7764  1.5519  1.1287
  635MOL0     H83812   6.217   3.283   0.823  1.6636  2.4783 -2.2469
  635MOL0     H83813   6.153   3.445   0.887 -2.5536  1.3906 -1.2805
  635MOL0     H83814   5.994   3.176   0.869 -3.8988 -0.0934 -2.0226
  635MOL0     H83815   5.927   3.342   0.878 -0.7547 -2.1529 -1.1860
  635MOL0     H83816   6.113   3.208   1.073  0.4340  1.2032 -1.7908
  635MOL0     H83817   6.071   3.381   1.076  3.3569 -0.1522 -0.9110
  635MOL0     H83818   5.694   3.225   1.198  0.9047 -0.4717  4.4444
  635MOL0     H83819   5.846   3.124   0.654 -0.1676  0.5831  0.5645
  635MOL0     H83820   5.618   3.132   0.584  1.2486 -1.4835  0.5619
  636MOL0     O83821   3.436  10.411   9.952  0.4318  0.4171  0.3934
  636MOL0     C83822   3.550  10.370   9.957 -0.2024  0.7545 -0.8863
  636MOL0     O83823   3.633  10.342   9.858  0.5020 -0.6405  0.0382
  636MOL0     C83824   3.596  10.370   9.732  0.1854 -0.3440  0.3528
  636MOL0     C83825   3.589  10.269   9.625  0.5982  0.2457 -0.8546
  636MOL0     C83826   3.577  10.313   9.495 -0.4252  0.2977  0.0121
  636MOL0     C83827   3.581  10.443   9.459 -0.4218  0.1416  0.1051
  636MOL0     O83828   3.585  10.481   9.324 -0.3771  0.5050 -0.2727
  636MOL0     C83829   3.564  10.387   9.220  0.5398  0.1698 -0.8387
  636MOL0     C83830   3.566  10.445   9.080 -0.7531 -0.5996 -0.9293
  636MOL0     C83831   3.713  10.450   9.022  1.0765  0.2840  0.3236
  636MOL0     C83832   3.738  10.566   8.931 -0.1348  0.0024  0.8607
  636MOL0     C83833   3.889  10.592   8.914 -0.0647  0.2791 -0.0340
  636MOL0     C83834   3.950  10.713   8.853  0.1083  0.1095 -0.2528
  636MOL0     C83835   3.904  10.845   8.909  0.2322  0.0559 -0.3803
  636MOL0     C83836   3.938  10.970   8.832 -0.0353  0.1405 -0.2144
  636MOL0     N83837   4.073  10.975   8.775 -0.0658  0.6389  0.2048
  636MOL0     C83838   4.189  10.967   8.843  0.8100 -0.6119  0.0166
  636MOL0     C83839   4.284  10.963   8.747 -0.2720  0.0859  0.1311
  636MOL0     C83840   4.441  10.978   8.742  0.7805  1.0399 -0.0668
  636MOL0     C83841   4.506  10.848   8.711 -0.0533 -0.5031 -0.9206
  636MOL0     C83842   4.654  10.857   8.735  0.4847  0.4811 -0.5490
  636MOL0     C83843   4.718  10.722   8.691  0.1891  0.0745  0.0509
  636MOL0     O83844   4.856  10.759   8.662 -0.3443  0.4972 -0.8508
  636MOL0     C83845   4.940  10.683   8.728  0.0761  0.9595  0.5298
  636MOL0     C83846   5.033  10.736   8.824  1.6639  0.7887 -0.2452
  636MOL0     C83847   5.105  10.652   8.906 -0.1932 -0.2043 -0.1632
  636MOL0     C83848   5.111  10.512   8.871 -0.5919  0.7336  0.4726
  636MOL0     C83849   5.219  10.431   8.930  0.8513 -0.3267 -0.4346
  636MOL0     O83850   5.231  10.304   8.871  0.0398  0.0425  0.6980
  636MOL0     C83851   5.316  10.219   8.935  0.2301  1.1196  0.0524
  636MOL0     C83852   5.402  10.143   8.859 -0.5801 -0.1421 -0.0725
  636MOL0     C83853   5.493  10.050   8.905  0.3080 -0.2199 -0.1180
  636MOL0     C83854   5.496  10.017   9.037 -0.2871 -0.1482 -0.0761
  636MOL0     O83855   5.596   9.923   9.067 -0.1414 -0.0552  0.2301
  636MOL0     C83856   5.666   9.931   9.184  0.0058 -0.5666 -0.2974
  636MOL0     C83857   5.608   9.834   9.287 -0.4646  0.5663 -0.4204
  636MOL0     C83858   5.671   9.698   9.270 -0.0685  0.2770 -0.0437
  636MOL0     C83859   5.633   9.601   9.391 -1.4242 -0.6707 -0.1405
  636MOL0     C83860   5.709   9.467   9.384  0.0258  0.6683  0.1117
  636MOL0     C83861   5.674   9.377   9.507  0.7292  0.0420 -0.4014
  636MOL0     C83862   5.743   9.245   9.502 -0.0393 -0.4467 -0.0013
  636MOL0     C83863   5.658   9.123   9.555  0.5139 -0.6542  0.4959
  636MOL0    Cl83864   5.747   8.973   9.524  0.0490 -0.4431 -0.1760
  636MOL0     C83865   5.418  10.085   9.131  0.2532 -0.2074 -0.5714
  636MOL0     C83866   5.326  10.180   9.074 -0.0941 -0.4967  0.6717
  636MOL0     O83867   5.283  10.470   9.032 -0.5892  0.3231  0.4480
  636MOL0     C83868   5.026  10.461   8.776 -0.2263  0.0308 -0.6070
  636MOL0     C83869   4.938  10.540   8.714 -0.0953  0.2601  0.2959
  636MOL0     N83870   4.216  10.969   8.621  0.5685  0.5930  0.2710
  636MOL0     N83871   4.089  10.972   8.647  0.4449 -0.9800  0.1885
  636MOL0     C83872   3.610  10.538   9.560 -0.4845 -0.2411  0.3481
  636MOL0     C83873   3.599  10.505   9.693 -0.6507 -1.5466 -0.0713
  636MOL0     C83874   3.623  10.367  10.088 -1.5390  1.1399 -0.0771
  636MOL0     C83875   3.568  10.414  10.208  0.5807 -0.2752 -1.1027
  636MOL0     C83876   3.648  10.422  10.319 -0.0083 -0.1081  0.5762
  636MOL0     C83877   3.783  10.373  10.313  0.0234  0.4660  0.5211
  636MOL0     O83878   3.864  10.369  10.420 -0.0927 -0.0038  0.4158
  636MOL0     C83879   3.905  10.493  10.493 -0.4656 -0.1411  0.6469
  636MOL0     C83880   4.019  10.462  10.585 -0.4265  0.7511  0.6460
  636MOL0     C83881   4.041  10.558  10.715  0.2290  0.6907  0.4422
  636MOL0     C83882   4.101  10.472  10.816 -0.1382 -0.9802 -0.4771
  636MOL0     C83883   4.239  10.416  10.769 -0.5046 -0.2072  0.0812
  636MOL0     C83884   4.346  10.376  10.731 -0.2970 -0.2370 -0.0678
  636MOL0     C83885   3.843  10.332  10.191 -0.4681 -0.1425  0.7099
  636MOL0     C83886   3.765  10.329  10.081  0.3925 -0.6971  0.0351
  636MOL0     H83887   3.592  10.161   9.634  0.4865  0.2584 -0.6586
  636MOL0     H83888   3.567  10.238   9.416  1.9577 -1.8146  1.5452
  636MOL0     H83889   3.463  10.347   9.236 -0.4354  2.7684 -0.0108
  636MOL0     H83890   3.634  10.303   9.227 -2.2974 -2.3745 -0.7031
  636MOL0     H83891   3.524  10.546   9.081  2.1926  0.7249 -0.1412
  636MOL0     H83892   3.517  10.385   9.002 -0.1235 -2.0662 -0.2476
  636MOL0     H83893   3.723  10.352   8.974 -2.0619 -0.2235  0.4627
  636MOL0     H83894   3.779  10.446   9.109 -1.2057 -2.8210  2.1376
  636MOL0     H83895   3.704  10.550   8.828  1.7617  1.9366 -0.1305
  636MOL0     H83896   3.693  10.654   8.978 -2.6075  0.3061 -1.7761
  636MOL0     H83897   3.930  10.503   8.867  2.1510  0.2942  1.6747
  636MOL0     H83898   3.936  10.599   9.013  2.4767 -1.4085 -1.0315
  636MOL0     H83899   3.919  10.712   8.748  0.0108 -0.0717 -0.2223
  636MOL0     H83900   4.060  10.710   8.856  0.1369  1.4720  1.5176
  636MOL0     H83901   3.797  10.848   8.930  0.1353  1.7401 -0.9674
  636MOL0     H83902   3.962  10.841   9.002 -0.0393 -0.2050 -0.2217
  636MOL0     H83903   3.919  11.056   8.898  1.9794  1.0762 -0.7771
  636MOL0     H83904   3.874  10.964   8.744  1.9991 -3.9508 -1.6648
  636MOL0     H83905   4.206  10.971   8.950  2.0223  0.2164 -0.1929
  636MOL0     H83906   4.479  11.016   8.838 -0.5072  0.0841  0.8450
  636MOL0     H83907   4.468  11.043   8.658 -4.3111  2.7548 -0.7238
  636MOL0     H83908   4.493  10.822   8.605  3.3546 -2.2417 -1.0553
  636MOL0     H83909   4.467  10.769   8.776 -0.2604 -1.5393 -2.2576
  636MOL0     H83910   4.689  10.945   8.680  0.6267  2.8252  2.9618
  636MOL0     H83911   4.684  10.872   8.839 -1.2251 -0.1408  0.0741
  636MOL0     H83912   4.677  10.704   8.592 -1.3026  2.4431  0.1338
  636MOL0     H83913   4.691  10.648   8.767  1.5142  0.6442  1.1237
  636MOL0     H83914   5.043  10.843   8.839  0.9283  0.6325  1.6011
  636MOL0     H83915   5.159  10.710   8.980  0.4482 -1.4681  0.3919
  636MOL0     H83916   5.411  10.179   8.757 -1.2254 -1.7795 -0.7418
  636MOL0     H83917   5.560  10.005   8.833  1.7980  0.6754  0.6781
  636MOL0     H83918   5.663  10.030   9.230 -2.5380 -1.0725  0.7739
  636MOL0     H83919   5.772   9.913   9.165 -0.9909 -3.6304 -4.2919
  636MOL0     H83920   5.501   9.814   9.283  0.0867 -2.6614 -1.7646
  636MOL0     H83921   5.644   9.875   9.382 -1.2375  2.7329 -1.0053
  636MOL0     H83922   5.780   9.706   9.281  0.5114 -1.9017 -2.8915
  636MOL0     H83923   5.636   9.645   9.181  1.0255  0.9730 -0.9093
  636MOL0     H83924   5.672   9.650   9.481  0.5043  2.5067 -2.4712
  636MOL0     H83925   5.526   9.583   9.379 -1.6252 -0.5772  1.3547
  636MOL0     H83926   5.817   9.481   9.394 -0.1201  0.7914  1.8950
  636MOL0     H83927   5.673   9.411   9.297 -2.8101 -1.2041  2.2928
  636MOL0     H83928   5.565   9.369   9.500  0.6831  0.7006 -0.4786
  636MOL0     H83929   5.710   9.423   9.599  1.5755 -0.8152 -0.2898
  636MOL0     H83930   5.757   9.225   9.395 -2.1923 -2.1555 -0.0341
  636MOL0     H83931   5.836   9.253   9.560 -1.2335 -0.1889  1.9848
  636MOL0     H83932   5.564   9.124   9.498  0.2860  2.0239  0.8182
  636MOL0     H83933   5.617   9.130   9.657 -2.0035  2.5235 -0.5899
  636MOL0     H83934   5.418  10.056   9.236  2.9566 -1.7842 -0.8786
  636MOL0     H83935   5.247  10.217   9.139 -0.6194 -2.0783  0.9884
  636MOL0     H83936   5.035  10.356   8.750  1.8787  0.1656 -0.5708
  636MOL0     H83937   4.869  10.501   8.639  1.8973  0.2873 -1.6472
  636MOL0     H83938   3.634  10.632   9.512  0.7006  0.2134  1.7758
  636MOL0     H83939   3.628  10.581   9.765  0.8191 -0.5229 -1.6736
  636MOL0     H83940   3.464  10.444  10.212  0.3624 -1.0338 -0.7618
  636MOL0     H83941   3.616  10.468  10.412 -0.9132  3.6760 -1.3592
  636MOL0     H83942   3.830  10.541  10.557 -2.0569  2.4022 -2.7916
  636MOL0     H83943   3.935  10.575  10.428 -0.2577  0.9195  2.0310
  636MOL0     H83944   3.986  10.362  10.615 -2.2852  0.5334 -1.7915
  636MOL0     H83945   4.113  10.450  10.532 -0.0577  3.0762  0.6820
  636MOL0     H83946   3.947  10.588  10.764 -0.7980 -3.4353  1.3580
  636MOL0     H83947   4.108  10.644  10.705  0.2895  0.5250 -0.8664
  636MOL0     H83948   4.105  10.532  10.908 -2.3705 -2.7546  0.9032
  636MOL0     H83949   4.036  10.393  10.855  2.9096 -1.2138  5.3685
  636MOL0     H83950   4.441  10.339  10.698 -0.1478 -2.0023  2.1394
  636MOL0     H83951   3.948  10.303  10.194  0.0118  1.0458 -1.9546
  636MOL0     H83952   3.825  10.307   9.993 -0.2787  1.0238 -0.8899
  637MOL0     O83953   3.505   9.314  10.728  0.0982  0.0878  0.6226
  637MOL0     C83954   3.399   9.253  10.717 -0.2048  0.2742 -0.7453
  637MOL0     O83955   3.297   9.250  10.796  0.4432 -0.3818  0.2328
  637MOL0     C83956   3.314   9.290  10.929 -0.6299 -1.0557  0.7044
  637MOL0     C83957   3.429   9.255  11.002  0.2217 -0.4893  1.1635
  637MOL0     C83958   3.464   9.303  11.135  1.3471  0.8306  0.7056
  637MOL0     C83959   3.375   9.392  11.196  0.2410  0.1872  0.2266
  637MOL0     O83960   3.412   9.433  11.324  0.2054  0.2166  0.2729
  637MOL0     C83961   3.337   9.540  11.386  0.8721 -0.2514  0.4110
  637MOL0     C83962   3.405   9.674  11.383  0.2243 -0.1859  0.4713
  637MOL0     C83963   3.459   9.706  11.252  0.9094  0.1093  0.3163
  637MOL0     C83964   3.527   9.837  11.233 -0.8708 -1.1303  0.4677
  637MOL0     C83965   3.431   9.951  11.216 -0.2596 -0.5331  0.4385
  637MOL0     C83966   3.509  10.078  11.234  0.5070  0.0383 -0.1216
  637MOL0     C83967   3.437  10.201  11.181 -0.1179  0.7043 -1.1089
  637MOL0     C83968   3.307  10.231  11.267 -0.5815 -0.3833 -1.4111
  637MOL0     N83969   3.340  10.306  11.393 -0.6327  0.0375 -0.1608
  637MOL0     C83970   3.322  10.442  11.392 -1.0655 -0.1173  0.0901
  637MOL0     C83971   3.412  10.496  11.487 -0.8394  0.2874  1.1494
  637MOL0     C83972   3.449  10.645  11.497  0.2359 -0.0770 -0.1947
  637MOL0     C83973   3.597  10.676  11.473  0.5966 -0.0195  0.9910
  637MOL0     C83974   3.656  10.598  11.358 -0.2106 -0.5455 -0.1085
  637MOL0     C83975   3.592  10.636  11.224 -0.0172  0.4333  0.1933
  637MOL0     O83976   3.614  10.768  11.196 -0.5809 -0.1548  0.7554
  637MOL0     C83977   3.739  10.814  11.155  0.4875  1.0147  0.2197
  637MOL0     C83978   3.756  10.952  11.151  0.7402  0.4563 -0.8462
  637MOL0     C83979   3.879  11.008  11.116 -0.4575 -0.2842 -0.0909
  637MOL0     C83980   3.985  10.928  11.065 -0.9923 -0.5126  0.4361
  637MOL0     C83981   4.126  10.972  11.026  0.2059 -0.1318  0.6688
  637MOL0     O83982   4.194  10.884  10.957 -0.5445  0.1523  0.2177
  637MOL0     C83983   4.321  10.900  10.912 -0.6648 -0.0331  0.3041
  637MOL0     C83984   4.380  10.783  10.860  0.0154 -1.3014  0.2423
  637MOL0     C83985   4.490  10.789  10.773  0.2803  0.2032  0.5565
  637MOL0     C83986   4.565  10.899  10.750 -0.3899  0.6055 -0.6749
  637MOL0     O83987   4.684  10.871  10.697  0.4564 -0.5188  0.6328
  637MOL0     C83988   4.746  10.980  10.617 -1.4321  0.5090 -1.2204
  637MOL0     C83989   4.676  11.022  10.490 -0.0742  0.1909  0.6631
  637MOL0     C83990   4.672  10.917  10.380  0.4413  1.1507 -0.2511
  637MOL0     C83991   4.798  10.933  10.293 -0.1705 -0.0318 -0.1736
  637MOL0     C83992   4.798  10.818  10.180 -0.8787 -0.3671 -0.8066
  637MOL0     C83993   4.710  10.849  10.056 -0.9905 -0.0561  0.6972
  637MOL0     C83994   4.753  10.798   9.916 -0.5375 -0.2235 -0.9702
  637MOL0     C83995   4.642  10.772   9.817  0.2714  0.0267  0.0111
  637MOL0    Cl83996   4.517  10.902   9.825 -0.1943 -0.3197 -0.0642
  637MOL0     C83997   4.515  11.016  10.813  0.3627 -0.0808  0.0763
  637MOL0     C83998   4.399  11.016  10.889 -0.6429  0.0097  0.0053
  637MOL0     O83999   4.166  11.074  11.065  0.2285 -0.0239 -0.4343
  637MOL0     C84000   3.961  10.790  11.059  0.7426 -0.0875  0.2862
  637MOL0     C84001   3.843  10.732  11.104 -0.0629  0.0016 -0.2591
  637MOL0     N84002   3.476  10.390  11.554 -0.1961  0.1039  0.4574
  637MOL0     N84003   3.432  10.278  11.492  0.0274 -0.1417  0.1389
  637MOL0     C84004   3.261   9.435  11.113  0.0707 -0.0771 -0.9946
  637MOL0     C84005   3.225   9.382  10.992  0.9687 -0.2939 -0.0383
  637MOL0     C84006   3.374   9.193  10.583 -0.2221  1.4345 -0.5832
  637MOL0     C84007   3.247   9.167  10.518  0.6624 -0.1926  0.1636
  637MOL0     C84008   3.238   9.083  10.410 -0.2638 -0.0568 -0.2461
  637MOL0     C84009   3.351   9.038  10.340  0.1677  1.0917 -0.1187
  637MOL0     O84010   3.333   8.978  10.217 -1.3010  0.0312  0.0696
  637MOL0     C84011   3.441   8.955  10.128 -0.9838  0.5098  0.9439
  637MOL0     C84012   3.364   8.902   9.997 -0.2278 -0.6366 -0.0269
  637MOL0     C84013   3.457   8.907   9.874 -0.4777  0.4703 -0.0589
  637MOL0     C84014   3.398   8.856   9.739  0.0100 -0.1404  0.8565
  637MOL0     C84015   3.373   8.708   9.724  1.0462  0.8866 -0.0086
  637MOL0     C84016   3.353   8.595   9.709 -0.2048 -0.1632  1.1466
  637MOL0     C84017   3.475   9.063  10.395 -0.3316  0.7030  0.1458
  637MOL0     C84018   3.483   9.138  10.514  0.8531 -0.5849  0.8511
  637MOL0     H84019   3.503   9.182  10.972  1.6180  1.1541  0.3957
  637MOL0     H84020   3.546   9.271  11.198 -0.4909 -1.3182  2.2165
  637MOL0     H84021   3.315   9.500  11.486  0.8380 -3.1329 -0.6788
  637MOL0     H84022   3.234   9.557  11.351  0.4694  0.6230  1.9104
  637MOL0     H84023   3.486   9.662  11.456  0.3816 -0.7693  0.2025
  637MOL0     H84024   3.341   9.756  11.417  2.1701  0.9746  1.5392
  637MOL0     H84025   3.376   9.709  11.182 -1.3829 -0.7266  2.8422
  637MOL0     H84026   3.532   9.626  11.238  0.0915 -1.1564  2.6903
  637MOL0     H84027   3.599   9.849  11.315  0.3527 -4.9355  0.1475
  637MOL0     H84028   3.575   9.832  11.135 -0.2531 -0.5068  0.7297
  637MOL0     H84029   3.356   9.943  11.295  2.2059  0.1237  3.0419
  637MOL0     H84030   3.380   9.951  11.119 -0.3556  0.2571  0.4836
  637MOL0     H84031   3.601  10.073  11.176 -0.7191  0.7768 -2.2049
  637MOL0     H84032   3.548  10.103  11.334  0.5140 -1.0593  0.1602
  637MOL0     H84033   3.500  10.289  11.198 -1.3275  0.8550  4.6571
  637MOL0     H84034   3.399  10.205  11.079 -1.5678 -0.0402 -0.6352
  637MOL0     H84035   3.250  10.140  11.286  0.4329 -0.4961  1.7698
  637MOL0     H84036   3.232  10.287  11.211 -5.7761 -1.4597  3.6179
  637MOL0     H84037   3.253  10.485  11.321 -0.8311 -2.3541 -1.6318
  637MOL0     H84038   3.434  10.673  11.602 -0.1318  1.5828 -0.6607
  637MOL0     H84039   3.384  10.710  11.439  0.8257  1.2501  0.5994
  637MOL0     H84040   3.654  10.665  11.566 -0.1125  1.0590  1.5850
  637MOL0     H84041   3.603  10.783  11.450  0.1245  0.0264  1.0526
  637MOL0     H84042   3.763  10.616  11.357 -0.2998  0.2628  1.3662
  637MOL0     H84043   3.642  10.492  11.382  1.5109 -0.7831 -0.0678
  637MOL0     H84044   3.486  10.612  11.235  0.7695 -2.4402  3.1421
  637MOL0     H84045   3.629  10.563  11.152 -0.4138  1.6330 -1.2689
  637MOL0     H84046   3.684  11.015  11.203  3.4347  0.8594  2.8058
  637MOL0     H84047   3.886  11.114  11.137 -1.6779 -0.9307  4.6637
  637MOL0     H84048   4.333  10.686  10.873  2.0252 -2.1766  1.2463
  637MOL0     H84049   4.519  10.694  10.727 -1.6239 -1.2555  2.2236
  637MOL0     H84050   4.848  10.947  10.597 -0.4399  2.8121 -0.1707
  637MOL0     H84051   4.767  11.071  10.673  0.2732 -1.0630  0.8419
  637MOL0     H84052   4.722  11.110  10.444 -0.5809  0.4431  0.6398
  637MOL0     H84053   4.573  11.046  10.514 -1.0946 -2.2252 -0.8765
  637MOL0     H84054   4.581  10.931  10.321  0.6016  0.8822 -0.5695
  637MOL0     H84055   4.658  10.821  10.431 -2.2694  0.5061 -2.0051
  637MOL0     H84056   4.807  11.031  10.246 -2.8512 -0.5071 -1.9161
  637MOL0     H84057   4.880  10.913  10.362 -1.0178 -1.4810  0.4821
  637MOL0     H84058   4.760  10.734  10.238 -3.5577  1.4770  0.3235
  637MOL0     H84059   4.901  10.794  10.155  0.4719  0.3221  3.3369
  637MOL0     H84060   4.691  10.956  10.055  1.9626  0.5391 -1.6139
  637MOL0     H84061   4.613  10.803  10.081 -0.9499  0.4070  1.7749
  637MOL0     H84062   4.816  10.881   9.885 -1.8812  1.6458  0.9524
  637MOL0     H84063   4.818  10.712   9.932 -3.0625 -2.0323  0.3514
  637MOL0     H84064   4.595  10.673   9.822  0.4235 -0.1013 -0.8855
  637MOL0     H84065   4.689  10.774   9.718  2.6457  1.1643  1.0944
  637MOL0     H84066   4.578  11.105  10.807  0.8225 -0.3709  0.6090
  637MOL0     H84067   4.371  11.113  10.928  1.3430  0.3875  0.6071
  637MOL0     H84068   4.031  10.712  11.032 -1.7236 -3.8245  3.6263
  637MOL0     H84069   3.814  10.628  11.093 -0.3562  0.1385 -0.7843
  637MOL0     H84070   3.191   9.511  11.148  2.3868  1.9993 -0.6511
  637MOL0     H84071   3.158   9.434  10.924 -0.0098 -1.2180  0.1786
  637MOL0     H84072   3.154   9.195  10.566 -0.0225 -1.6258 -0.2874
  637MOL0     H84073   3.137   9.074  10.369  0.6442 -1.1476 -2.4071
  637MOL0     H84074   3.508   8.879  10.169 -1.1235 -0.5510 -0.6856
  637MOL0     H84075   3.497   9.044  10.101  1.3925 -0.5430  2.1491
  637MOL0     H84076   3.332   8.800  10.021  1.5186 -1.7196 -1.9919
  637MOL0     H84077   3.273   8.956   9.968 -0.4160 -0.4096  0.9738
  637MOL0     H84078   3.540   8.841   9.902 -0.7915  0.3871  0.7033
  637MOL0     H84079   3.523   8.994   9.865  1.2385 -0.8179 -0.5091
  637MOL0     H84080   3.307   8.914   9.720  1.6242  2.6788  1.0322
  637MOL0     H84081   3.468   8.889   9.662  1.0224  0.0730  1.8480
  637MOL0     H84082   3.323   8.494   9.688 -0.8826  0.1538  0.5353
  637MOL0     H84083   3.565   9.034  10.343  0.1845 -0.3972  1.5757
  637MOL0     H84084   3.578   9.133  10.566  1.6679  0.4440 -0.4820
  638MOL0     O84085   4.556   1.901   0.340  0.0150 -0.4021 -0.5547
  638MOL0     C84086   4.543   1.818   0.429 -0.3531 -0.6001  0.7145
  638MOL0     O84087   4.611   1.706   0.440 -0.2975 -0.3849  0.0536
  638MOL0     C84088   4.714   1.680   0.350  0.3987  0.4593 -0.1364
  638MOL0     C84089   4.821   1.771   0.327 -0.6151  0.0810 -0.6692
  638MOL0     C84090   4.927   1.736   0.236  0.0253  0.5527 -0.2017
  638MOL0     C84091   4.927   1.615   0.169  0.2331  0.0168 -0.2717
  638MOL0     O84092   5.041   1.604   0.091  0.0595  0.0015 -0.4600
  638MOL0     C84093   5.087   1.473   0.067 -0.6990  0.4157  0.7223
  638MOL0     C84094   5.155   1.415   0.195 -0.4236 -0.4567  0.6950
  638MOL0     C84095   5.195   1.269   0.157  1.1777 -0.0085 -0.3230
  638MOL0     C84096   5.065   1.174   0.185  0.6130  1.0418  0.5263
  638MOL0     C84097   5.039   1.062   0.086 -0.5664  0.7929  0.7488
  638MOL0     C84098   5.003   1.106  -0.063  0.0424 -0.5495 -0.1099
  638MOL0     C84099   5.012   0.995  -0.174  0.3370 -0.4908  0.3969
  638MOL0     C84100   4.910   0.877  -0.143  0.0048  0.5209 -0.1988
  638MOL0     N84101   4.923   0.761  -0.231  0.5114  0.2540 -0.3477
  638MOL0     C84102   4.988   0.774  -0.350 -0.6958  0.6045  0.2061
  638MOL0     C84103   5.035   0.648  -0.372  0.1616  0.0661  0.1166
  638MOL0     C84104   5.137   0.616  -0.474 -0.0206  0.7918  0.1478
  638MOL0     C84105   5.091   0.644  -0.616  0.3882 -0.8087  0.1081
  638MOL0     C84106   5.201   0.602  -0.716 -0.7542  0.7255 -0.6850
  638MOL0     C84107   5.190   0.663  -0.861 -0.5319  0.5244  0.0413
  638MOL0     O84108   5.098   0.598  -0.947 -0.4516  1.1220  0.6136
  638MOL0     C84109   5.022   0.684  -1.012  0.0348 -0.4364 -0.4500
  638MOL0     C84110   4.909   0.739  -0.955  0.3813 -0.8868  0.3847
  638MOL0     C84111   4.822   0.824  -1.027  0.4903 -0.6806 -0.9693
  638MOL0     C84112   4.865   0.859  -1.149  0.5440  0.3923 -0.8259
  638MOL0     C84113   4.777   0.931  -1.237  0.2735 -1.2155  0.3366
  638MOL0     O84114   4.652   0.969  -1.183 -0.1215 -0.0268 -0.2387
  638MOL0     C84115   4.553   1.004  -1.267  0.5077 -0.1882 -0.0067
  638MOL0     C84116   4.495   0.924  -1.369  0.4915  0.3799  0.2212
  638MOL0     C84117   4.372   0.951  -1.424  0.3082 -0.1911  0.2058
  638MOL0     C84118   4.304   1.071  -1.387 -0.1889  0.9924  0.6101
  638MOL0     O84119   4.186   1.109  -1.442 -0.2951 -0.6928  0.0698
  638MOL0     C84120   4.078   1.010  -1.411 -0.7959 -0.2976 -0.0757
  638MOL0     C84121   3.937   1.051  -1.458 -0.3848  1.1932  0.6277
  638MOL0     C84122   3.904   1.188  -1.394 -0.2768 -0.0744  0.4654
  638MOL0     C84123   3.879   1.177  -1.243  0.6005 -0.0842 -0.9099
  638MOL0     C84124   3.808   1.301  -1.177 -0.9675  0.0366 -0.3904
  638MOL0     C84125   3.864   1.448  -1.216  0.3735 -0.0296 -0.2512
  638MOL0     C84126   3.768   1.549  -1.153  0.4743  0.1425 -0.1467
  638MOL0     C84127   3.646   1.576  -1.236 -0.6195  1.1132 -0.2139
  638MOL0    Cl84128   3.533   1.695  -1.156  0.0894 -0.1511 -0.5514
  638MOL0     C84129   4.366   1.153  -1.306  0.1714 -0.5097 -0.8245
  638MOL0     C84130   4.480   1.116  -1.232  0.1341  0.6116  0.1620
  638MOL0     O84131   4.812   0.963  -1.353  0.1953  0.7504  0.3364
  638MOL0     C84132   4.991   0.818  -1.201  0.2780 -0.0156  0.4648
  638MOL0     C84133   5.077   0.735  -1.130  0.4792 -0.0752 -0.1413
  638MOL0     N84134   4.990   0.565  -0.269  0.0875 -0.6292  0.9699
  638MOL0     N84135   4.943   0.640  -0.175  0.7073  0.2722  0.4783
  638MOL0     C84136   4.825   1.523   0.194  0.3766 -0.5565  0.2997
  638MOL0     C84137   4.723   1.556   0.286 -0.8154  0.0056  0.2564
  638MOL0     C84138   4.425   1.855   0.523 -0.0906 -0.2058  0.2865
  638MOL0     C84139   4.348   1.973   0.495  0.3828 -0.8638  0.0175
  638MOL0     C84140   4.245   2.008   0.583 -0.2451  0.6717  0.7021
  638MOL0     C84141   4.207   1.934   0.694 -0.5318 -0.1664  0.1430
  638MOL0     O84142   4.121   1.989   0.786 -1.0327  0.2871 -0.8588
  638MOL0     C84143   4.171   2.103   0.862 -0.3892  0.5795 -0.7768
  638MOL0     C84144   4.130   2.074   1.009 -0.5368  0.2790  0.2604
  638MOL0     C84145   3.998   2.132   1.056 -0.3442 -0.6769 -0.1094
  638MOL0     C84146   3.875   2.092   0.968 -0.7154 -0.4117  0.9778
  638MOL0     C84147   3.758   2.111   1.056  0.0436 -0.9361 -0.1501
  638MOL0     C84148   3.664   2.115   1.134 -0.5707 -0.6273  0.3565
  638MOL0     C84149   4.278   1.812   0.717 -0.1499 -0.2535  0.2680
  638MOL0     C84150   4.382   1.774   0.631 -1.5482  0.2340 -0.2042
  638MOL0     H84151   4.840   1.860   0.386  1.3487  0.4410 -1.7821
  638MOL0     H84152   5.011   1.802   0.219  0.8695 -0.5675 -0.5031
  638MOL0     H84153   5.158   1.497  -0.012 -1.0291 -2.0906 -0.4304
  638MOL0     H84154   5.007   1.410   0.026 -2.1259  2.0054  0.9554
  638MOL0     H84155   5.098   1.426   0.288 -2.3848  1.2726 -0.6214
  638MOL0     H84156   5.249   1.470   0.206 -0.2082 -0.5750 -0.4152
  638MOL0     H84157   5.280   1.231   0.215 -0.0005 -1.5102  0.5069
  638MOL0     H84158   5.228   1.258   0.054  4.2374  3.2325  0.1497
  638MOL0     H84159   5.059   1.128   0.285 -1.8192 -2.7395 -1.0862
  638MOL0     H84160   4.974   1.235   0.185 -1.7924 -2.1793  1.9175
  638MOL0     H84161   4.963   0.992   0.120 -1.9960  1.7650 -0.3302
  638MOL0     H84162   5.129   1.003   0.068 -3.6648 -4.2502 -0.1874
  638MOL0     H84163   5.077   1.180  -0.097 -1.3490  1.7694  1.6367
  638MOL0     H84164   4.906   1.154  -0.050  0.8171  1.1544 -0.3374
  638MOL0     H84165   4.993   1.047  -0.268  1.2581  0.6829  0.8210
  638MOL0     H84166   5.113   0.954  -0.168  1.3781  1.6874 -0.7477
  638MOL0     H84167   4.807   0.911  -0.161  0.3395  0.7759 -1.8132
  638MOL0     H84168   4.929   0.842  -0.042  1.2321  3.1545  0.5762
  638MOL0     H84169   5.018   0.864  -0.403  2.8665 -1.3307 -1.4166
  638MOL0     H84170   5.144   0.509  -0.454 -1.9124  0.9915  2.2776
  638MOL0     H84171   5.228   0.664  -0.438  1.4997 -2.3747  0.8268
  638MOL0     H84172   5.076   0.751  -0.633 -1.5358 -0.9692  0.5282
  638MOL0     H84173   4.992   0.600  -0.633  0.8147 -1.4110 -0.8783
  638MOL0     H84174   5.295   0.639  -0.673 -0.1749 -1.7459  0.3491
  638MOL0     H84175   5.211   0.494  -0.733 -0.3570  0.9885 -2.2635
  638MOL0     H84176   5.292   0.647  -0.898  0.8052 -1.0759  3.9294
  638MOL0     H84177   5.176   0.771  -0.855  3.9068  1.2430  1.1174
  638MOL0     H84178   4.857   0.728  -0.860  1.9898 -1.0545  1.2874
  638MOL0     H84179   4.724   0.855  -0.990  1.1798  2.0194 -1.1768
  638MOL0     H84180   4.542   0.827  -1.379  1.7451  0.6093  3.0226
  638MOL0     H84181   4.322   0.879  -1.488 -2.7149  0.1782  1.9533
  638MOL0     H84182   4.078   0.985  -1.304 -0.7406 -2.1184 -0.4668
  638MOL0     H84183   4.113   0.915  -1.453 -0.1057  0.7339 -1.9059
  638MOL0     H84184   3.855   0.983  -1.433 -0.2838  0.6054 -0.5621
  638MOL0     H84185   3.943   1.048  -1.567  0.6765 -2.8509  0.6261
  638MOL0     H84186   3.820   1.223  -1.455  0.9406  0.3718 -1.0207
  638MOL0     H84187   3.973   1.271  -1.413 -2.6656  2.0411  0.6166
  638MOL0     H84188   3.831   1.084  -1.212  0.6619 -0.6547 -2.4375
  638MOL0     H84189   3.979   1.165  -1.201  0.0908 -1.2251  0.0272
  638MOL0     H84190   3.806   1.291  -1.068 -0.4705 -0.1359 -0.3931
  638MOL0     H84191   3.701   1.296  -1.198 -0.9495  0.4518 -0.5863
  638MOL0     H84192   3.865   1.452  -1.325 -0.4312 -0.6208 -0.2860
  638MOL0     H84193   3.960   1.466  -1.167 -0.3852  0.7736  0.9931
  638MOL0     H84194   3.755   1.519  -1.048 -1.7996 -1.4552 -0.8155
  638MOL0     H84195   3.827   1.641  -1.159  1.7349 -0.6510 -0.2679
  638MOL0     H84196   3.591   1.484  -1.255  0.7397  0.0589  0.7429
  638MOL0     H84197   3.687   1.612  -1.331  0.5994 -0.7608 -0.4563
  638MOL0     H84198   4.313   1.247  -1.293 -0.2275 -0.9341  0.9081
  638MOL0     H84199   4.507   1.162  -1.137 -0.0613 -0.9303  0.9912
  638MOL0     H84200   5.036   0.857  -1.292  3.0666 -1.5317  1.0603
  638MOL0     H84201   5.180   0.727  -1.163  1.5463  1.4792  2.5153
  638MOL0     H84202   4.836   1.426   0.147  2.9687 -0.1740 -0.0355
  638MOL0     H84203   4.666   1.470   0.319  1.1410 -1.8807 -1.0312
  638MOL0     H84204   4.379   2.035   0.412 -0.7466 -2.0834 -1.3948
  638MOL0     H84205   4.195   2.104   0.575  1.3381  1.4112 -1.2105
  638MOL0     H84206   4.124   2.191   0.817 -1.3146  1.0123  0.9378
  638MOL0     H84207   4.280   2.108   0.851  0.2239  1.3933  3.7592
  638MOL0     H84208   4.118   1.965   1.016  2.0242  0.0541  2.8949
  638MOL0     H84209   4.206   2.100   1.083  0.3490 -0.4073 -0.3886
  638MOL0     H84210   4.005   2.241   1.046 -0.2478 -0.6331  0.4128
  638MOL0     H84211   3.986   2.111   1.163 -2.6353  4.2393  0.8761
  638MOL0     H84212   3.868   2.155   0.880 -2.7305 -1.4902  0.2897
  638MOL0     H84213   3.893   1.989   0.936  0.0872 -0.9035  2.8610
  638MOL0     H84214   3.581   2.129   1.200  0.4316  5.1248  0.8888
  638MOL0     H84215   4.234   1.751   0.795  0.4521 -2.4422 -1.0293
  638MOL0     H84216   4.440   1.685   0.654  0.7849  1.4457 -0.9674
  639MOL0     O84217   0.715   8.161   1.677  1.1691  0.1982  0.4472
  639MOL0     C84218   0.734   8.279   1.689 -0.2848 -0.1382 -0.4309
  639MOL0     O84219   0.652   8.372   1.736 -0.3657  0.6037  0.1667
  639MOL0     C84220   0.526   8.341   1.748  0.6277  0.0704  0.1539
  639MOL0     C84221   0.447   8.336   1.632  0.0947  0.4602  0.5143
  639MOL0     C84222   0.314   8.318   1.637 -0.5998 -0.0608  0.4486
  639MOL0     C84223   0.250   8.304   1.753  0.2969 -0.3539  0.1554
  639MOL0     O84224   0.111   8.295   1.734  0.6144 -0.5873  0.0570
  639MOL0     C84225   0.016   8.350   1.832 -0.5563  0.6668  0.9147
  639MOL0     C84226  -0.108   8.262   1.838 -0.6797 -0.2754 -0.5013
  639MOL0     C84227  -0.191   8.252   1.719  0.2456 -0.2830 -1.0467
  639MOL0     C84228  -0.312   8.164   1.754  0.1345 -1.1209  0.7170
  639MOL0     C84229  -0.395   8.170   1.620 -0.2857  0.4407  1.0839
  639MOL0     C84230  -0.507   8.071   1.610  0.5611  0.0766 -0.5805
  639MOL0     C84231  -0.578   8.094   1.477  0.4861  0.0295  0.6440
  639MOL0     C84232  -0.713   8.009   1.475 -0.6124 -0.7918  0.1782
  639MOL0     N84233  -0.673   7.867   1.481 -0.5033  0.4494  0.0467
  639MOL0     C84234  -0.622   7.789   1.580 -0.3174 -1.0671  0.3512
  639MOL0     C84235  -0.559   7.679   1.519  0.4444  0.3119  0.8882
  639MOL0     C84236  -0.511   7.564   1.594 -0.2579 -0.2622 -1.0289
  639MOL0     C84237  -0.624   7.499   1.674 -0.8865  0.5605 -0.6066
  639MOL0     C84238  -0.704   7.398   1.584 -0.1331 -0.2349  0.0055
  639MOL0     C84239  -0.800   7.316   1.667 -0.2669 -0.1469 -0.4493
  639MOL0     O84240  -0.922   7.386   1.686  0.1584 -0.7492  0.7780
  639MOL0     C84241  -0.925   7.444   1.807 -0.7161 -0.3758  0.0993
  639MOL0     C84242  -0.919   7.369   1.928 -0.0143 -0.1569  0.0384
  639MOL0     C84243  -0.909   7.437   2.050 -0.1112  0.3417 -0.0481
  639MOL0     C84244  -0.912   7.578   2.054 -0.7869  0.1141  0.4693
  639MOL0     C84245  -0.895   7.653   2.179  0.8302 -0.1069 -0.4886
  639MOL0     O84246  -0.919   7.788   2.181  0.4116 -0.2673  0.0378
  639MOL0     C84247  -0.950   7.859   2.290 -0.6163 -0.4744  0.2663
  639MOL0     C84248  -0.911   7.994   2.281 -0.7773 -0.7759  0.7606
  639MOL0     C84249  -0.933   8.076   2.385 -0.9121  0.2780 -0.0379
  639MOL0     C84250  -0.994   8.035   2.506 -0.6674  0.7906 -0.2690
  639MOL0     O84251  -1.011   8.125   2.604 -0.6897  1.2946  0.1347
  639MOL0     C84252  -1.054   8.079   2.730 -0.2008  0.9139 -0.3540
  639MOL0     C84253  -1.032   8.183   2.839  0.9499 -0.5291  1.2352
  639MOL0     C84254  -1.066   8.147   2.980 -0.1407  0.6103 -0.1445
  639MOL0     C84255  -1.217   8.152   3.001 -0.2564  0.5494 -0.1315
  639MOL0     C84256  -1.229   8.108   3.151  1.1177  0.5002  0.7274
  639MOL0     C84257  -1.338   8.200   3.215  0.1545  0.1874  0.3805
  639MOL0     C84258  -1.490   8.183   3.169 -0.0988 -0.6691  0.1236
  639MOL0     C84259  -1.571   8.277   3.259  1.1441  1.1452 -0.5088
  639MOL0    Cl84260  -1.563   8.236   3.428  0.2738 -0.3526 -0.2102
  639MOL0     C84261  -1.056   7.910   2.499 -0.3642 -0.8887  0.5759
  639MOL0     C84262  -1.026   7.814   2.396  0.5113  0.2806 -0.9035
  639MOL0     O84263  -0.847   7.590   2.274  0.0535 -0.1941  0.3169
  639MOL0     C84264  -0.928   7.656   1.927 -0.0774  0.5181 -0.5289
  639MOL0     C84265  -0.932   7.582   1.818  0.0861  0.3461  0.5061
  639MOL0     N84266  -0.592   7.689   1.386  0.6535 -0.2480  0.7030
  639MOL0     N84267  -0.661   7.796   1.363  0.1224 -0.2593 -0.0538
  639MOL0     C84268   0.322   8.306   1.874 -0.1350 -0.4608 -0.2149
  639MOL0     C84269   0.463   8.324   1.873  0.3841 -0.2569  0.3937
  639MOL0     C84270   0.869   8.315   1.663  0.7207  0.4121 -0.5604
  639MOL0     C84271   0.948   8.242   1.567  0.5366  0.2715  0.3315
  639MOL0     C84272   1.067   8.298   1.517  0.7638  0.2048 -0.0428
  639MOL0     C84273   1.121   8.411   1.575  0.0069  0.1538 -0.4600
  639MOL0     O84274   1.239   8.463   1.528  0.3477 -0.1951  0.2436
  639MOL0     C84275   1.257   8.497   1.396  0.0904  0.3735 -1.3332
  639MOL0     C84276   1.323   8.628   1.370 -0.3106  0.0408 -0.6316
  639MOL0     C84277   1.240   8.745   1.433 -0.1499 -0.3583 -1.0176
  639MOL0     C84278   1.242   8.862   1.331 -0.6010 -0.0741 -0.2372
  639MOL0     C84279   1.143   8.860   1.226  0.3114 -0.3718  0.5766
  639MOL0     C84280   1.063   8.850   1.134  0.1093 -0.9662 -0.7956
  639MOL0     C84281   1.039   8.480   1.674 -0.2863 -0.9674  0.0391
  639MOL0     C84282   0.907   8.436   1.706  0.4904 -0.2464  0.2777
  639MOL0     H84283   0.495   8.349   1.535  1.5549 -1.7465  0.8623
  639MOL0     H84284   0.254   8.330   1.548  0.0931  0.1606  0.0064
  639MOL0     H84285  -0.015   8.441   1.781  0.0251 -1.0050 -2.7502
  639MOL0     H84286   0.070   8.366   1.925  1.7496 -2.1851  0.2182
  639MOL0     H84287  -0.173   8.295   1.920 -3.5070 -0.6473 -2.4478
  639MOL0     H84288  -0.078   8.162   1.869  3.6885  1.7899  3.1464
  639MOL0     H84289  -0.120   8.198   1.655  2.1212 -1.9521  2.2101
  639MOL0     H84290  -0.209   8.353   1.681  3.0202  0.5610 -0.3236
  639MOL0     H84291  -0.261   8.070   1.778  3.8588  1.0720  2.2617
  639MOL0     H84292  -0.363   8.204   1.843  0.5284 -0.9698  0.8787
  639MOL0     H84293  -0.332   8.149   1.533  0.8675  2.5745  1.3461
  639MOL0     H84294  -0.432   8.270   1.596 -0.9038  0.4736  2.1139
  639MOL0     H84295  -0.580   8.096   1.687 -0.1785 -1.4419 -0.7537
  639MOL0     H84296  -0.470   7.969   1.627  0.1418  0.1065  0.5904
  639MOL0     H84297  -0.602   8.199   1.462  1.1673  0.0502 -0.4421
  639MOL0     H84298  -0.523   8.068   1.386  0.1051 -1.3421  0.7727
  639MOL0     H84299  -0.766   8.037   1.384  1.5793  1.1698 -0.5957
  639MOL0     H84300  -0.776   8.036   1.561  2.6913 -1.8248  3.1894
  639MOL0     H84301  -0.624   7.811   1.686  0.1772  2.2488 -0.2181
  639MOL0     H84302  -0.458   7.607   1.680 -0.9401 -5.0495  2.2007
  639MOL0     H84303  -0.440   7.501   1.540  1.8755  0.9814  0.1940
  639MOL0     H84304  -0.696   7.575   1.705  0.0687  1.5199 -0.6841
  639MOL0     H84305  -0.577   7.442   1.755  0.4737 -0.8361 -2.2783
  639MOL0     H84306  -0.744   7.458   1.502  0.4566 -0.1573 -0.2281
  639MOL0     H84307  -0.637   7.328   1.533 -0.8672  0.3236 -1.8126
  639MOL0     H84308  -0.755   7.288   1.763 -0.8557 -1.3223 -0.4954
  639MOL0     H84309  -0.817   7.215   1.628 -0.0585 -0.4032  0.1031
  639MOL0     H84310  -0.920   7.260   1.923  2.5280 -0.2540 -4.0781
  639MOL0     H84311  -0.907   7.378   2.141 -5.0792 -2.9991 -1.7040
  639MOL0     H84312  -0.847   8.028   2.199  2.1987 -0.3172  3.0819
  639MOL0     H84313  -0.892   8.176   2.399  0.5163 -0.4595  1.4011
  639MOL0     H84314  -0.986   7.996   2.755 -1.1579  0.4754  0.8588
  639MOL0     H84315  -1.157   8.043   2.734 -0.2463  1.0895  0.0897
  639MOL0     H84316  -1.069   8.280   2.803  0.6266 -1.1396 -0.1230
  639MOL0     H84317  -0.924   8.202   2.837  0.9873 -0.7347  1.3761
  639MOL0     H84318  -1.000   8.199   3.049  1.6106 -3.2832  1.4392
  639MOL0     H84319  -1.040   8.041   2.994 -0.5695 -0.3688 -4.8683
  639MOL0     H84320  -1.250   8.252   2.974 -1.3376 -0.1368 -1.4414
  639MOL0     H84321  -1.270   8.078   2.941  0.6471 -0.5056  0.3183
  639MOL0     H84322  -1.140   8.117   3.213 -0.9194 -0.0690  3.9384
  639MOL0     H84323  -1.264   8.005   3.166  0.1100  0.5649 -0.8919
  639MOL0     H84324  -1.310   8.306   3.204  1.7176 -0.2004  0.4530
  639MOL0     H84325  -1.342   8.167   3.319  1.2078  0.8871  0.6634
  639MOL0     H84326  -1.497   8.208   3.063 -0.4660 -3.8696 -0.7355
  639MOL0     H84327  -1.525   8.079   3.181 -0.0002 -0.9520 -1.7509
  639MOL0     H84328  -1.675   8.274   3.227  0.6069  2.5779  0.9942
  639MOL0     H84329  -1.543   8.382   3.263  2.5538  0.7662  1.5764
  639MOL0     H84330  -1.129   7.878   2.573 -0.4585  0.1322  0.9399
  639MOL0     H84331  -1.078   7.719   2.389  1.5203 -0.2708 -0.9828
  639MOL0     H84332  -0.916   7.763   1.940  1.1542  0.5206 -1.4903
  639MOL0     H84333  -0.953   7.640   1.729  4.0921  2.1714  0.5530
  639MOL0     H84334   0.278   8.292   1.972  1.6663  1.0931  0.8790
  639MOL0     H84335   0.524   8.338   1.961 -0.4883 -0.7388  1.0878
  639MOL0     H84336   0.922   8.145   1.525  6.6911 -1.1899 -1.0399
  639MOL0     H84337   1.111   8.241   1.436  0.8158  1.7579 -1.1516
  639MOL0     H84338   1.156   8.489   1.355  0.7676  0.5389 -3.1442
  639MOL0     H84339   1.325   8.426   1.348  1.5429  1.3810 -0.8427
  639MOL0     H84340   1.427   8.629   1.404 -0.5491  1.0785  0.1401
  639MOL0     H84341   1.335   8.625   1.261 -1.9021 -0.7801 -0.8061
  639MOL0     H84342   1.296   8.774   1.523 -1.4296  1.1698 -0.6577
  639MOL0     H84343   1.134   8.719   1.446 -1.0280  1.3566 -3.9378
  639MOL0     H84344   1.214   8.949   1.391  0.9953  0.3740 -0.0811
  639MOL0     H84345   1.342   8.876   1.288 -0.9826  1.3091 -0.7523
  639MOL0     H84346   0.997   8.840   1.050 -2.2582 -3.1508  1.1481
  639MOL0     H84347   1.086   8.562   1.729  0.3455 -1.9711  1.0487
  639MOL0     H84348   0.848   8.491   1.779 -2.0510 -2.4212  0.0101
  640MOL0     O84349   6.560   6.746   7.591 -0.1416 -1.0056 -0.4440
  640MOL0     C84350   6.682   6.774   7.569  0.3527  0.1696  0.7051
  640MOL0     O84351   6.732   6.897   7.560  0.3228 -0.1480  0.1230
  640MOL0     C84352   6.652   7.011   7.590  0.6132  0.0874 -1.2211
  640MOL0     C84353   6.623   7.117   7.499 -0.4796  0.5707 -0.0411
  640MOL0     C84354   6.548   7.232   7.534  1.3812  0.3638  0.7890
  640MOL0     C84355   6.515   7.249   7.670  0.0757  1.2372  0.0352
  640MOL0     O84356   6.479   7.367   7.718  0.1763  0.1623 -0.5266
  640MOL0     C84357   6.363   7.361   7.801 -0.3943  0.3124 -0.1804
  640MOL0     C84358   6.295   7.503   7.823  0.2894  0.3195 -1.2318
  640MOL0     C84359   6.243   7.563   7.687  0.4134  0.0933 -0.7357
  640MOL0     C84360   6.117   7.644   7.720  0.3148  0.1523 -0.3042
  640MOL0     C84361   6.052   7.703   7.599  0.3329 -0.2775  0.1577
  640MOL0     C84362   5.913   7.766   7.633  0.3798 -0.5984 -0.6532
  640MOL0     C84363   5.831   7.792   7.511 -0.8282 -0.4460  0.9690
  640MOL0     C84364   5.880   7.928   7.438  0.3774 -0.5416 -0.0103
  640MOL0     N84365   5.771   7.970   7.343  0.0004 -0.3505  0.0712
  640MOL0     C84366   5.778   8.068   7.254 -0.5695  0.6691  0.2337
  640MOL0     C84367   5.661   8.061   7.177 -0.3466 -0.4742 -0.5712
  640MOL0     C84368   5.633   8.150   7.059 -0.0620  0.0773 -1.0684
  640MOL0     C84369   5.661   8.069   6.931  0.7176 -0.2908  0.7355
  640MOL0     C84370   5.626   8.149   6.799  0.1843 -0.1474 -0.3241
  640MOL0     C84371   5.651   8.072   6.661  0.1355  0.3251 -0.1756
  640MOL0     O84372   5.780   8.005   6.664  0.4480 -0.2745 -0.3800
  640MOL0     C84373   5.821   7.932   6.547 -1.2769 -0.8521 -0.8378
  640MOL0     C84374   5.774   7.944   6.420 -0.1315 -0.3568  0.1245
  640MOL0     C84375   5.831   7.878   6.306  0.1535 -0.6408  0.3711
  640MOL0     C84376   5.936   7.788   6.322 -0.2318 -0.4850 -0.1461
  640MOL0     C84377   6.002   7.711   6.206  0.1139 -0.3861 -0.7180
  640MOL0     O84378   5.990   7.744   6.071 -0.2937 -0.0689 -0.8543
  640MOL0     C84379   6.034   7.656   5.979 -0.1124 -0.5934  0.0691
  640MOL0     C84380   6.124   7.687   5.884 -0.4243 -0.5035 -0.0440
  640MOL0     C84381   6.179   7.581   5.807  0.2630  0.5039  0.4667
  640MOL0     C84382   6.148   7.451   5.815  0.4225  0.2767 -0.2598
  640MOL0     O84383   6.221   7.370   5.726 -0.0740  0.1055  0.1156
  640MOL0     C84384   6.170   7.242   5.706  0.1951 -0.5640 -0.0859
  640MOL0     C84385   6.246   7.180   5.592 -0.0225  0.0778  0.2764
  640MOL0     C84386   6.228   7.269   5.475 -0.6229  0.2037  0.4986
  640MOL0     C84387   6.234   7.190   5.335 -1.2305 -0.3577  0.1352
  640MOL0     C84388   6.385   7.184   5.306  0.3434  0.4398 -0.0732
  640MOL0     C84389   6.414   7.113   5.171  0.3721 -0.2973 -0.4953
  640MOL0     C84390   6.564   7.098   5.153  0.6457 -0.6666  0.1146
  640MOL0     C84391   6.576   6.984   5.049  0.0417 -0.7599 -0.4081
  640MOL0    Cl84392   6.553   7.060   4.891  0.4472  0.2328 -0.0712
  640MOL0     C84393   6.050   7.422   5.919  1.5314 -0.8367  0.0299
  640MOL0     C84394   5.986   7.528   5.991 -0.8520  0.9899 -0.2822
  640MOL0     O84395   6.054   7.608   6.247  0.1289  0.1846 -0.0613
  640MOL0     C84396   5.981   7.773   6.460 -0.9939 -0.1698  0.3247
  640MOL0     C84397   5.930   7.851   6.560  0.2851  0.4806  0.7296
  640MOL0     N84398   5.580   7.967   7.229  0.1253  0.6411 -0.2819
  640MOL0     N84399   5.637   7.914   7.326 -0.8728  0.4874 -0.1635
  640MOL0     C84400   6.534   7.140   7.764 -1.1202 -0.2600  0.0944
  640MOL0     C84401   6.588   7.025   7.712  0.6808 -0.5652 -0.2828
  640MOL0     C84402   6.759   6.653   7.551  0.8859 -1.0636  1.0429
  640MOL0     C84403   6.706   6.521   7.545 -0.0596 -0.3014  0.8739
  640MOL0     C84404   6.794   6.420   7.506 -0.5618 -0.4045  0.8169
  640MOL0     C84405   6.934   6.436   7.492  0.3522 -0.4868  0.4379
  640MOL0     O84406   7.009   6.323   7.457  0.3330  0.2921  0.3451
  640MOL0     C84407   7.138   6.335   7.396 -0.4473 -0.5002 -0.3235
  640MOL0     C84408   7.130   6.408   7.262 -0.1774  0.4433  0.0370
  640MOL0     C84409   7.022   6.353   7.168  0.5348 -0.0657 -0.4376
  640MOL0     C84410   7.046   6.389   7.013 -0.7263 -0.8103 -0.0816
  640MOL0     C84411   6.952   6.314   6.929 -0.1954 -0.1774 -0.0992
  640MOL0     C84412   6.861   6.264   6.874 -0.2052 -0.0494  0.3415
  640MOL0     C84413   6.992   6.566   7.515 -0.6691 -0.1519 -0.7441
  640MOL0     C84414   6.903   6.671   7.538 -0.1779 -0.3761  0.6543
  640MOL0     H84415   6.667   7.107   7.401 -0.1059 -1.1041  0.2672
  640MOL0     H84416   6.522   7.304   7.457 -3.1922  1.2228  2.8303
  640MOL0     H84417   6.392   7.319   7.898  1.3519 -1.9681 -1.5586
  640MOL0     H84418   6.290   7.298   7.749 -1.7838  0.4861  1.4758
  640MOL0     H84419   6.366   7.570   7.873 -0.6848  0.6846 -0.3040
  640MOL0     H84420   6.212   7.490   7.892 -1.8530 -3.9907 -4.1896
  640MOL0     H84421   6.215   7.489   7.613  0.0940 -0.2412 -0.2872
  640MOL0     H84422   6.315   7.630   7.641  0.4437 -0.7734 -1.9934
  640MOL0     H84423   6.048   7.586   7.782 -0.0174 -1.2730 -1.9232
  640MOL0     H84424   6.140   7.726   7.789  1.0342  0.0533 -0.4189
  640MOL0     H84425   6.028   7.614   7.540 -3.1041  0.0671  0.8573
  640MOL0     H84426   6.118   7.764   7.537  0.6543  0.4669  1.2046
  640MOL0     H84427   5.925   7.857   7.693 -1.3046  0.3388 -1.6512
  640MOL0     H84428   5.858   7.690   7.689  0.8246  0.2721  1.0114
  640MOL0     H84429   5.859   7.711   7.443  2.7225  0.0890  1.6309
  640MOL0     H84430   5.726   7.773   7.534  0.1342 -1.8517  4.9239
  640MOL0     H84431   5.964   7.895   7.377  2.8559  2.2565  1.6033
  640MOL0     H84432   5.930   8.002   7.501  3.4570 -1.5173 -1.1051
  640MOL0     H84433   5.860   8.136   7.231  0.3070 -0.5266 -0.2858
  640MOL0     H84434   5.698   8.236   7.073 -0.2142 -0.0120  0.3830
  640MOL0     H84435   5.529   8.182   7.051 -0.4910 -1.3565 -1.5746
  640MOL0     H84436   5.604   7.975   6.931 -0.7133  0.4572 -1.9150
  640MOL0     H84437   5.767   8.049   6.942  0.5845 -0.2423  2.2437
  640MOL0     H84438   5.520   8.178   6.800 -0.1315 -1.1156  2.2603
  640MOL0     H84439   5.687   8.240   6.805 -0.0220  0.1700 -2.4887
  640MOL0     H84440   5.652   8.144   6.578  1.4121 -0.4022 -0.8187
  640MOL0     H84441   5.571   7.998   6.651  0.3488  0.2046 -1.1353
  640MOL0     H84442   5.699   8.023   6.410  0.6034  0.2509 -0.7820
  640MOL0     H84443   5.781   7.895   6.211  3.4908  2.4156 -1.1343
  640MOL0     H84444   6.163   7.786   5.863 -1.5881  0.2865  1.3916
  640MOL0     H84445   6.246   7.614   5.728  0.6054  0.5467  0.7699
  640MOL0     H84446   6.061   7.246   5.694  0.2837  0.1764 -0.6875
  640MOL0     H84447   6.195   7.193   5.801  0.4599  1.7882  1.1379
  640MOL0     H84448   6.190   7.088   5.572  2.0575 -1.6156  1.8157
  640MOL0     H84449   6.350   7.148   5.607 -0.3081  0.0031  2.3269
  640MOL0     H84450   6.301   7.350   5.483  2.9403 -2.7052 -0.1165
  640MOL0     H84451   6.125   7.307   5.473 -1.3872 -1.7155 -1.1992
  640MOL0     H84452   6.194   7.090   5.355  0.4637 -0.7718  1.7069
  640MOL0     H84453   6.179   7.240   5.255  1.7223  0.9962 -1.2034
  640MOL0     H84454   6.435   7.139   5.393  2.7832  2.6538 -0.1979
  640MOL0     H84455   6.420   7.287   5.300  0.8191  0.2216 -1.3219
  640MOL0     H84456   6.378   7.174   5.088  1.3348  3.1309  1.4242
  640MOL0     H84457   6.363   7.017   5.186  1.2466 -0.3957  2.4930
  640MOL0     H84458   6.626   7.186   5.130 -3.2704  1.4518 -3.7867
  640MOL0     H84459   6.593   7.056   5.250 -2.6832 -1.0455  1.0473
  640MOL0     H84460   6.495   6.910   5.049  0.3216 -1.2067  2.5213
  640MOL0     H84461   6.675   6.938   5.051  1.1398  1.3467 -2.1664
  640MOL0     H84462   6.015   7.321   5.937 -2.2356  0.7983  3.1653
  640MOL0     H84463   5.917   7.494   6.067 -0.3802  0.6790  0.0131
  640MOL0     H84464   6.072   7.717   6.477 -0.7292  0.0291 -0.3955
  640MOL0     H84465   5.979   7.848   6.656  2.5612 -1.2901 -0.3996
  640MOL0     H84466   6.511   7.149   7.870  0.7498 -0.6223  0.5549
  640MOL0     H84467   6.606   6.944   7.782 -1.4728 -0.3662  0.5701
  640MOL0     H84468   6.602   6.500   7.565 -0.3263  0.0621 -0.0689
  640MOL0     H84469   6.749   6.321   7.509  1.8176 -1.5781  0.3745
  640MOL0     H84470   7.176   6.234   7.378 -0.0347 -0.7831  1.9140
  640MOL0     H84471   7.197   6.389   7.471 -0.7943 -4.0550  2.7832
  640MOL0     H84472   7.109   6.514   7.277  0.0815  0.3400  1.2001
  640MOL0     H84473   7.222   6.410   7.203 -1.1334 -0.8065 -1.5759
  640MOL0     H84474   6.917   6.365   7.197  0.4317  2.7198 -1.5989
  640MOL0     H84475   7.031   6.244   7.173 -4.4139 -0.7370 -0.7431
  640MOL0     H84476   7.035   6.497   6.997 -4.6734 -1.3528 -2.1502
  640MOL0     H84477   7.149   6.365   6.983  0.1631 -2.3798  3.6560
  640MOL0     H84478   6.768   6.219   6.847 -1.5326  3.2927 -1.2921
  640MOL0     H84479   7.096   6.582   7.490 -0.0391 -3.1778 -0.5244
  640MOL0     H84480   6.955   6.766   7.554  2.2283 -1.9637  3.3120
  641MOL0     O84481   2.299   8.774   8.574  0.4026 -0.0572  0.0086
  641MOL0     C84482   2.361   8.735   8.471 -0.4890  0.1001 -0.9541
  641MOL0     O84483   2.504   8.734   8.459  0.6650 -0.8911  0.3516
  641MOL0     C84484   2.591   8.782   8.561 -0.8928  0.5281  0.3399
  641MOL0     C84485   2.708   8.702   8.599  1.3578 -0.3133  0.1215
  641MOL0     C84486   2.790   8.735   8.702  0.0512  1.0618  1.1184
  641MOL0     C84487   2.755   8.851   8.779 -0.3160 -0.2389  0.4104
  641MOL0     O84488   2.835   8.878   8.892  0.4367  0.9735 -0.3968
  641MOL0     C84489   2.859   9.009   8.932  0.4840 -0.4613 -0.0798
  641MOL0     C84490   2.979   9.015   9.021  0.2690 -0.1687  0.3438
  641MOL0     C84491   2.999   8.913   9.131 -0.4320  0.4719  0.7106
  641MOL0     C84492   3.103   8.968   9.232 -0.1141 -0.5199  0.1054
  641MOL0     C84493   3.158   8.861   9.321  0.0136  0.2682  0.3366
  641MOL0     C84494   3.053   8.774   9.388  0.4071 -0.6642  0.0726
  641MOL0     C84495   3.121   8.682   9.493 -0.2288 -0.9465 -0.3568
  641MOL0     C84496   3.024   8.578   9.543 -0.0895  0.8932  0.1897
  641MOL0     N84497   2.926   8.649   9.628  0.1515 -0.4437  0.5137
  641MOL0     C84498   2.961   8.708   9.742  0.5425 -0.4881  0.3370
  641MOL0     C84499   2.840   8.741   9.801 -0.0875  0.0008  0.5705
  641MOL0     C84500   2.815   8.814   9.929  0.5325 -0.8059  0.2749
  641MOL0     C84501   2.896   8.777  10.040 -0.4935  0.3167 -0.1971
  641MOL0     C84502   2.815   8.824  10.160  0.4591  0.7610 -0.7051
  641MOL0     C84503   2.882   8.778  10.296 -0.2917  0.3455 -0.1295
  641MOL0     O84504   2.840   8.863  10.402  0.1008 -0.0955  0.0579
  641MOL0     C84505   2.897   8.840  10.522 -0.5958 -0.4593  0.5336
  641MOL0     C84506   2.890   8.939  10.614  0.0457 -1.0008  0.3769
  641MOL0     C84507   2.966   8.940  10.742  0.0602 -0.4356  0.4835
  641MOL0     C84508   3.042   8.829  10.773  0.6674  0.7693 -0.9703
  641MOL0     C84509   3.106   8.823  10.906 -0.3018 -0.1744  0.2557
  641MOL0     O84510   3.106   8.940  10.984 -0.0213  0.9988 -0.8983
  641MOL0     C84511   3.151   8.934  11.114 -0.1030  0.3547  1.2200
  641MOL0     C84512   3.199   9.054  11.152 -0.4861  0.0712 -0.3062
  641MOL0     C84513   3.269   9.066  11.274  0.6738 -0.7236 -0.0041
  641MOL0     C84514   3.276   8.954  11.363 -0.2502 -0.9837  0.1865
  641MOL0     O84515   3.340   8.966  11.483  0.2626  0.0502 -0.2534
  641MOL0     C84516   3.485   8.979  11.489 -0.7826  0.0396 -0.5537
  641MOL0     C84517   3.549   8.974  11.628  0.7792 -0.7551 -0.1484
  641MOL0     C84518   3.495   9.076  11.723  0.0654  1.3914 -0.3115
  641MOL0     C84519   3.536   9.211  11.704 -0.6942  0.7347  0.9253
  641MOL0     C84520   3.521   9.318  11.819 -0.7219  0.3882  0.3786
  641MOL0     C84521   3.374   9.334  11.869 -0.5846  0.3587 -0.2307
  641MOL0     C84522   3.363   9.463  11.956 -0.5207  0.2691  1.5032
  641MOL0     C84523   3.428   9.437  12.102 -0.0653  1.0015  0.5211
  641MOL0    Cl84524   3.385   9.580  12.209  0.1681  0.0000 -0.2154
  641MOL0     C84525   3.200   8.840  11.334 -0.0896 -0.5079 -0.8257
  641MOL0     C84526   3.148   8.830  11.204  0.3199  0.1042  0.0007
  641MOL0     O84527   3.158   8.714  10.928  0.4688 -1.3024 -0.0812
  641MOL0     C84528   3.035   8.722  10.683  0.9273  0.3954  0.9054
  641MOL0     C84529   2.962   8.728  10.565 -0.3684 -0.9472  0.3763
  641MOL0     N84530   2.744   8.704   9.705  0.8070 -0.4302  0.4166
  641MOL0     N84531   2.795   8.651   9.601 -0.7255  0.0314  0.1082
  641MOL0     C84532   2.648   8.936   8.734  0.3475  0.6172  0.2211
  641MOL0     C84533   2.565   8.897   8.629 -0.8704  0.2553 -0.1955
  641MOL0     C84534   2.278   8.699   8.354 -0.8162  0.4049  0.6813
  641MOL0     C84535   2.349   8.677   8.232  0.1182  0.4195 -0.4767
  641MOL0     C84536   2.293   8.629   8.121  0.2348 -0.1030  0.4106
  641MOL0     C84537   2.155   8.610   8.129  0.3504  0.4752 -0.4141
  641MOL0     O84538   2.069   8.559   8.029  0.1142  0.5250 -0.1421
  641MOL0     C84539   2.117   8.536   7.889  0.7271 -0.2309  0.0451
  641MOL0     C84540   2.000   8.564   7.798  0.1750 -0.4562 -0.3729
  641MOL0     C84541   2.054   8.626   7.667 -0.0874 -0.8927  0.2390
  641MOL0     C84542   1.963   8.634   7.539  0.2973 -0.2555 -0.5714
  641MOL0     C84543   1.841   8.713   7.582  0.5883  1.1698  1.4936
  641MOL0     C84544   1.747   8.759   7.635 -0.6411  0.7111 -0.3986
  641MOL0     C84545   2.082   8.644   8.247 -0.2872 -0.3630 -0.4620
  641MOL0     C84546   2.137   8.703   8.357  0.3615  0.9575 -0.6757
  641MOL0     H84547   2.727   8.610   8.544  0.0745 -0.3547 -0.3014
  641MOL0     H84548   2.885   8.683   8.711 -0.2711  0.4925  1.2942
  641MOL0     H84549   2.768   9.025   8.990  0.2994 -1.7526  0.0214
  641MOL0     H84550   2.871   9.070   8.842  3.2665 -1.4546 -0.5057
  641MOL0     H84551   2.980   9.114   9.068  1.4056 -0.8830  1.9318
  641MOL0     H84552   3.069   8.998   8.961  0.7294 -0.9701  1.2292
  641MOL0     H84553   3.035   8.825   9.078 -0.8354  1.1239 -0.6866
  641MOL0     H84554   2.905   8.890   9.183 -0.7329  0.5202  0.1934
  641MOL0     H84555   3.192   9.013   9.187 -1.0173  0.7938 -0.4318
  641MOL0     H84556   3.038   9.040   9.283 -0.3911 -0.2884 -0.5701
  641MOL0     H84557   3.229   8.901   9.395  0.3281 -0.3402  0.3694
  641MOL0     H84558   3.215   8.785   9.267 -0.8222 -0.5662  0.6142
  641MOL0     H84559   3.004   8.713   9.312 -0.0214  1.0622 -1.0905
  641MOL0     H84560   2.980   8.844   9.430  1.1708 -0.5011  1.2035
  641MOL0     H84561   3.205   8.628   9.448 -0.1010 -0.5834 -0.5533
  641MOL0     H84562   3.162   8.755   9.564  0.4348  0.7383 -2.3949
  641MOL0     H84563   3.078   8.505   9.604 -2.3358  0.5777  1.9623
  641MOL0     H84564   2.979   8.507   9.473 -0.0539 -1.3774  2.3195
  641MOL0     H84565   3.051   8.725   9.800  0.5496  0.0011  0.1941
  641MOL0     H84566   2.709   8.795   9.951  0.5951 -1.4628  0.0053
  641MOL0     H84567   2.818   8.923   9.913 -1.9092 -0.3907  1.9722
  641MOL0     H84568   2.987   8.837  10.040  0.5378 -1.1059  2.0143
  641MOL0     H84569   2.944   8.679  10.039 -0.5322  0.2558 -2.7706
  641MOL0     H84570   2.800   8.932  10.162  0.3065  0.7757 -1.8956
  641MOL0     H84571   2.727   8.759  10.161  2.8054 -2.8020 -2.1997
  641MOL0     H84572   2.988   8.802  10.277  0.3706 -3.0095 -1.2898
  641MOL0     H84573   2.867   8.675  10.327  0.8463 -0.7610 -2.9139
  641MOL0     H84574   2.838   9.026  10.577  1.8424 -0.3051 -0.6517
  641MOL0     H84575   2.955   9.025  10.808 -2.3388 -0.8835  0.7572
  641MOL0     H84576   3.200   9.140  11.086  0.8688 -0.0986 -0.5378
  641MOL0     H84577   3.317   9.156  11.313 -2.7064  1.1283  0.2616
  641MOL0     H84578   3.506   9.072  11.436  0.0599 -0.4697 -1.1333
  641MOL0     H84579   3.521   8.896  11.427 -3.7259 -2.3570  0.6449
  641MOL0     H84580   3.656   8.986  11.609  1.2164 -1.6702  1.5602
  641MOL0     H84581   3.555   8.870  11.663  2.4425 -0.5910  0.1222
  641MOL0     H84582   3.527   9.047  11.824  0.0767 -1.0875 -0.9713
  641MOL0     H84583   3.386   9.062  11.722  0.2753 -1.8641 -4.4360
  641MOL0     H84584   3.642   9.196  11.680 -1.1106  1.8869 -2.1922
  641MOL0     H84585   3.501   9.259  11.612 -2.8544 -0.2652  1.1549
  641MOL0     H84586   3.576   9.406  11.784 -1.2769  1.0704  1.1840
  641MOL0     H84587   3.590   9.286  11.897  0.0657  1.5019  0.1594
  641MOL0     H84588   3.351   9.247  11.931 -3.5608  0.8373 -0.5145
  641MOL0     H84589   3.309   9.319  11.782 -4.6381  2.1215  2.1741
  641MOL0     H84590   3.401   9.556  11.913  0.4284 -1.8239 -2.6062
  641MOL0     H84591   3.257   9.490  11.967 -1.2724 -2.0934  0.6466
  641MOL0     H84592   3.537   9.429  12.103  0.1401  3.1276  0.2659
  641MOL0     H84593   3.387   9.351  12.156 -4.4292  0.1845 -3.5083
  641MOL0     H84594   3.197   8.761  11.409  1.7075  1.0988  1.0859
  641MOL0     H84595   3.116   8.728  11.183  2.1062 -0.8833  1.6554
  641MOL0     H84596   3.082   8.629  10.710 -2.3951 -2.3878 -1.8961
  641MOL0     H84597   2.955   8.632  10.515 -3.0765 -2.8276  3.8733
  641MOL0     H84598   2.637   9.029   8.789  3.3735  1.1698  0.0837
  641MOL0     H84599   2.470   8.948   8.615 -1.8315 -0.9756  1.4988
  641MOL0     H84600   2.456   8.691   8.239 -0.1271  2.1293  0.4833
  641MOL0     H84601   2.347   8.594   8.033 -1.9000 -2.3922 -0.0969
  641MOL0     H84602   2.155   8.435   7.871  1.5925  0.3865 -1.8686
  641MOL0     H84603   2.204   8.600   7.876  3.0738 -3.0522  0.7509
  641MOL0     H84604   1.945   8.473   7.773  0.2677 -0.1658 -1.7067
  641MOL0     H84605   1.932   8.628   7.856 -2.5343 -1.6065 -2.0749
  641MOL0     H84606   2.143   8.573   7.631  0.3573  1.9629 -3.5447
  641MOL0     H84607   2.081   8.728   7.695 -0.2023 -1.2725  1.7993
  641MOL0     H84608   2.009   8.684   7.453  3.4003 -4.9277 -2.0010
  641MOL0     H84609   1.947   8.528   7.518 -4.6198  0.2737 -0.8250
  641MOL0     H84610   1.676   8.799   7.704  1.0130  0.2691  1.6468
  641MOL0     H84611   1.978   8.613   8.256 -0.4335  0.6682  3.1517
  641MOL0     H84612   2.083   8.721   8.450 -2.6364  0.8652 -2.2958
  642MOL0     O84613   4.182   2.214   6.543  0.1263  0.1352  1.0508
  642MOL0     C84614   4.185   2.277   6.650 -0.0987  0.0237 -0.0935
  642MOL0     O84615   4.292   2.325   6.707  0.2957  0.2127  0.5042
  642MOL0     C84616   4.408   2.299   6.647 -0.1272  0.3836 -0.4583
  642MOL0     C84617   4.473   2.175   6.672 -0.1469  0.6108  0.9442
  642MOL0     C84618   4.599   2.147   6.611 -0.0175 -0.2901  0.6458
  642MOL0     C84619   4.648   2.248   6.528  0.3807  0.1659  0.0283
  642MOL0     O84620   4.765   2.244   6.457 -0.9292  0.1803 -0.6954
  642MOL0     C84621   4.825   2.123   6.429 -0.3175 -0.1672 -0.0060
  642MOL0     C84622   4.877   2.138   6.286 -0.2462  0.0153 -0.0898
  642MOL0     C84623   4.989   2.047   6.253 -0.7744 -0.1797 -0.4127
  642MOL0     C84624   5.007   2.039   6.102  0.7724  0.4585  0.1427
  642MOL0     C84625   4.914   1.923   6.038 -0.0168 -0.3300 -0.9196
  642MOL0     C84626   4.884   1.961   5.890  0.0357 -0.5710 -0.2983
  642MOL0     C84627   4.792   1.854   5.841 -0.0752 -0.4618 -0.5279
  642MOL0     C84628   4.717   1.895   5.708 -0.2301  0.4479 -0.5660
  642MOL0     N84629   4.811   1.933   5.604  0.3104 -0.2198 -0.6035
  642MOL0     C84630   4.814   2.055   5.544 -0.2852 -0.6638 -0.0898
  642MOL0     C84631   4.915   2.048   5.460 -0.9091 -0.2948  0.1552
  642MOL0     C84632   4.949   2.162   5.363  0.5830 -0.2715  0.2935
  642MOL0     C84633   4.897   2.148   5.221  0.1119 -0.0397 -0.1438
  642MOL0     C84634   4.969   2.036   5.140  0.8422  0.2851 -0.3832
  642MOL0     C84635   5.112   2.061   5.087  0.1820  0.0925  0.1928
  642MOL0     O84636   5.110   2.148   4.973  0.3629 -0.4736  0.0232
  642MOL0     C84637   5.212   2.185   4.896 -0.0141  0.1086  0.1615
  642MOL0     C84638   5.340   2.141   4.923 -0.1356 -0.6007 -0.3023
  642MOL0     C84639   5.446   2.161   4.834  0.0795  0.5704  1.5304
  642MOL0     C84640   5.424   2.238   4.711  0.3411 -0.5203  0.5839
  642MOL0     C84641   5.537   2.269   4.610 -0.3490 -0.2052 -0.2373
  642MOL0     O84642   5.644   2.181   4.597 -0.1283  0.4079  0.4496
  642MOL0     C84643   5.758   2.245   4.543  0.0017  0.8351 -0.9012
  642MOL0     C84644   5.800   2.217   4.409  0.1952 -0.4664 -0.8802
  642MOL0     C84645   5.918   2.280   4.374 -0.6414  0.3630 -0.1460
  642MOL0     C84646   6.001   2.347   4.464 -0.0721 -1.0190  0.4039
  642MOL0     O84647   6.111   2.399   4.413 -0.5217 -0.2347 -0.5339
  642MOL0     C84648   6.221   2.387   4.511  0.7483  0.0026  0.7249
  642MOL0     C84649   6.348   2.379   4.417 -0.0565 -0.4937  0.0219
  642MOL0     C84650   6.467   2.317   4.493  0.1670 -0.6581 -0.7307
  642MOL0     C84651   6.607   2.369   4.466 -0.3044 -0.1690  0.4272
  642MOL0     C84652   6.701   2.322   4.570 -0.5138 -0.8782 -0.2291
  642MOL0     C84653   6.854   2.370   4.518  0.2526 -0.4206 -0.1044
  642MOL0     C84654   6.949   2.275   4.600 -0.3766  0.4803 -0.9400
  642MOL0     C84655   6.970   2.309   4.749 -0.6181  0.0815 -0.2924
  642MOL0    Cl84656   7.056   2.461   4.762 -0.0996 -0.0663 -0.1239
  642MOL0     C84657   5.959   2.381   4.593  0.4645  1.0469 -0.0111
  642MOL0     C84658   5.835   2.334   4.631 -0.2965  0.5881 -0.3345
  642MOL0     O84659   5.534   2.378   4.552  0.7012 -0.1435  0.7965
  642MOL0     C84660   5.292   2.293   4.694 -0.4906 -0.3998 -0.4869
  642MOL0     C84661   5.196   2.269   4.791  0.6003 -0.0772 -0.5410
  642MOL0     N84662   4.992   1.940   5.482 -0.2204  0.4525 -1.1751
  642MOL0     N84663   4.925   1.866   5.567  0.7040 -0.0578 -0.3876
  642MOL0     C84664   4.589   2.368   6.511 -0.6438 -0.2601 -0.5239
  642MOL0     C84665   4.473   2.395   6.566  0.8035 -0.2420 -0.2934
  642MOL0     C84666   4.071   2.272   6.739 -0.1724  0.3411  0.1490
  642MOL0     C84667   3.947   2.222   6.684  0.2810 -0.8469 -0.5711
  642MOL0     C84668   3.839   2.203   6.761  0.1490  0.2905 -1.5442
  642MOL0     C84669   3.843   2.221   6.900 -0.7147  0.1378  0.0308
  642MOL0     O84670   3.728   2.171   6.960  0.0212 -0.1588 -0.4809
  642MOL0     C84671   3.747   2.166   7.102  0.0943 -0.2380 -0.4179
  642MOL0     C84672   3.633   2.092   7.174 -1.1864  0.5607  0.7901
  642MOL0     C84673   3.497   2.142   7.128  0.0072 -1.1706  0.0873
  642MOL0     C84674   3.475   2.291   7.158 -0.2391  0.0947 -0.5338
  642MOL0     C84675   3.345   2.320   7.205  0.1261  0.8513 -0.4581
  642MOL0     C84676   3.224   2.333   7.234 -0.0269  1.1012 -0.1761
  642MOL0     C84677   3.968   2.267   6.955  0.3660  0.8778  0.1820
  642MOL0     C84678   4.079   2.292   6.875  0.6003 -0.1752 -0.3354
  642MOL0     H84679   4.420   2.104   6.734 -1.5157  0.8553  0.0848
  642MOL0     H84680   4.653   2.057   6.637  4.6774  1.5056 -1.6889
  642MOL0     H84681   4.754   2.040   6.432  0.5347 -0.8863  1.3031
  642MOL0     H84682   4.900   2.091   6.502 -2.0581 -2.9329  0.7081
  642MOL0     H84683   4.905   2.243   6.276 -0.4721  0.2431  1.4181
  642MOL0     H84684   4.800   2.114   6.212  0.6780  0.3118 -1.1692
  642MOL0     H84685   4.969   1.942   6.274  0.8397 -1.0269 -2.7019
  642MOL0     H84686   5.085   2.070   6.300 -0.4177 -1.0497 -0.6993
  642MOL0     H84687   4.959   2.130   6.064 -3.5467 -1.6500 -0.0515
  642MOL0     H84688   5.109   2.030   6.064 -0.1175  0.7891 -2.5457
  642MOL0     H84689   4.821   1.924   6.097  1.8957 -1.1184  2.3846
  642MOL0     H84690   4.959   1.823   6.035 -1.2224 -0.8638 -1.8534
  642MOL0     H84691   4.975   1.984   5.835  0.4155 -1.6899 -0.1676
  642MOL0     H84692   4.844   2.063   5.887  3.3546  0.8048 -1.7335
  642MOL0     H84693   4.838   1.757   5.818 -0.3338 -0.3058 -1.7592
  642MOL0     H84694   4.712   1.834   5.914  0.4931  0.9401  0.5139
  642MOL0     H84695   4.638   1.970   5.722 -0.2878 -0.0358  2.2490
  642MOL0     H84696   4.668   1.808   5.664  0.4769  0.6760 -1.8529
  642MOL0     H84697   4.732   2.126   5.549 -0.7763 -1.2134 -0.2604
  642MOL0     H84698   5.057   2.184   5.362  0.3502  1.1845 -2.2337
  642MOL0     H84699   4.905   2.254   5.401 -2.2231 -1.4608  0.1678
  642MOL0     H84700   4.916   2.247   5.177 -2.3833  0.6239  0.1544
  642MOL0     H84701   4.790   2.128   5.227  0.5525 -2.5450  0.4370
  642MOL0     H84702   4.972   1.940   5.192 -3.9973 -0.7172 -1.5089
  642MOL0     H84703   4.903   2.019   5.055  2.6628 -0.3630 -1.7114
  642MOL0     H84704   5.155   1.968   5.050  0.6801  1.2526 -2.3857
  642MOL0     H84705   5.179   2.109   5.158 -2.4246  1.6112  1.7720
  642MOL0     H84706   5.359   2.088   5.016  0.5490 -0.2327 -0.2247
  642MOL0     H84707   5.547   2.129   4.857  0.1639  0.6652  1.2953
  642MOL0     H84708   5.741   2.163   4.335 -2.3285  1.3106 -0.3430
  642MOL0     H84709   5.972   2.277   4.280  2.1972 -0.7446  1.3988
  642MOL0     H84710   6.216   2.288   4.558  0.7908 -0.8700 -1.0351
  642MOL0     H84711   6.232   2.468   4.584  2.0587 -1.3940  2.1681
  642MOL0     H84712   6.370   2.485   4.398 -2.8919  0.1874 -0.0060
  642MOL0     H84713   6.315   2.332   4.324 -0.4464  1.1725 -0.7270
  642MOL0     H84714   6.449   2.210   4.477 -2.1294  0.0399 -3.3629
  642MOL0     H84715   6.460   2.340   4.600  0.6343  1.8750 -1.1856
  642MOL0     H84716   6.637   2.341   4.365  0.0985  2.1481 -0.1442
  642MOL0     H84717   6.613   2.478   4.463  3.3858 -0.2390  0.7130
  642MOL0     H84718   6.688   2.214   4.573 -1.4845 -0.8218 -1.5623
  642MOL0     H84719   6.677   2.370   4.665 -0.6725  0.2597 -0.8229
  642MOL0     H84720   6.863   2.475   4.548 -2.6851 -0.4377  1.2220
  642MOL0     H84721   6.876   2.364   4.411  3.8544  0.3083  0.4682
  642MOL0     H84722   6.907   2.174   4.593 -4.2774  1.8969 -0.2703
  642MOL0     H84723   7.051   2.286   4.563 -0.1090  0.0333 -0.3468
  642MOL0     H84724   7.024   2.228   4.798  0.9025  1.6499  0.7399
  642MOL0     H84725   6.872   2.314   4.798 -0.0443 -1.7014  1.1284
  642MOL0     H84726   6.013   2.440   4.667 -1.6196  1.1062  1.5519
  642MOL0     H84727   5.800   2.348   4.733 -0.1710  3.7052 -0.6213
  642MOL0     H84728   5.265   2.342   4.601  0.7481 -3.1377 -2.4350
  642MOL0     H84729   5.097   2.310   4.772  0.6010 -0.0649 -0.5167
  642MOL0     H84730   4.636   2.431   6.436  2.6788 -1.8110  0.1107
  642MOL0     H84731   4.431   2.493   6.546 -0.7620 -0.9060 -0.4007
  642MOL0     H84732   3.936   2.207   6.577 -0.2380 -0.0863 -0.6382
  642MOL0     H84733   3.741   2.167   6.730 -0.7904  0.9566  0.4629
  642MOL0     H84734   3.739   2.268   7.139  2.9534 -0.4254  0.9556
  642MOL0     H84735   3.841   2.122   7.137  0.4016  0.8900  0.2063
  642MOL0     H84736   3.650   1.989   7.142  2.5546  1.5300 -0.8533
  642MOL0     H84737   3.647   2.108   7.281 -0.7891  2.4524  0.4829
  642MOL0     H84738   3.420   2.082   7.177  0.9259 -0.4812  2.5105
  642MOL0     H84739   3.498   2.136   7.018  1.7463  4.1210 -0.4837
  642MOL0     H84740   3.551   2.330   7.226  0.3456 -0.9257 -0.5851
  642MOL0     H84741   3.481   2.344   7.062  0.6512 -0.3381 -0.7264
  642MOL0     H84742   3.125   2.352   7.271 -0.8942 -2.7002 -0.1861
  642MOL0     H84743   3.964   2.285   7.062 -1.9005  1.3860  0.0469
  642MOL0     H84744   4.167   2.336   6.919  0.5264 -2.0859  1.9169
  643MOL0     O84745   7.069   9.548   4.365 -1.2130  0.4280  0.5168
  643MOL0     C84746   7.178   9.587   4.338 -0.1771 -0.7539 -0.2067
  643MOL0     O84747   7.255   9.539   4.237  0.5633  0.1334 -0.5081
  643MOL0     C84748   7.196   9.465   4.133 -0.6812  0.4399 -0.6272
  643MOL0     C84749   7.270   9.351   4.087  0.4831  0.6045 -0.2500
  643MOL0     C84750   7.223   9.272   3.980 -0.0063  0.4276 -0.1447
  643MOL0     C84751   7.088   9.300   3.926 -0.8616 -0.2612 -1.4623
  643MOL0     O84752   7.059   9.210   3.818 -0.5707 -0.2288 -0.2286
  643MOL0     C84753   6.936   9.250   3.741 -0.6301 -0.0972  0.4550
  643MOL0     C84754   6.973   9.371   3.652  0.0724  0.4802  0.2755
  643MOL0     C84755   7.063   9.341   3.529 -0.5281  0.0791 -0.6739
  643MOL0     C84756   6.983   9.301   3.412  0.0808  1.0081 -0.2291
  643MOL0     C84757   7.076   9.255   3.296 -0.6818  0.8483  0.4212
  643MOL0     C84758   6.990   9.190   3.184  1.0385 -0.2633  0.1552
  643MOL0     C84759   7.060   9.122   3.071  0.8305 -0.3117 -0.6115
  643MOL0     C84760   7.149   9.223   3.004  0.1244  0.4476  0.9490
  643MOL0     N84761   7.214   9.163   2.889 -0.4389  0.2657 -0.3263
  643MOL0     C84762   7.177   9.166   2.759 -0.2890 -1.0454  0.2436
  643MOL0     C84763   7.294   9.124   2.696 -0.4960 -0.3418  0.2469
  643MOL0     C84764   7.309   9.121   2.551 -0.2598  1.0628  0.1704
  643MOL0     C84765   7.338   8.973   2.504  0.3579 -0.4438 -0.5307
  643MOL0     C84766   7.488   8.954   2.491  0.1951  0.2396 -0.3373
  643MOL0     C84767   7.543   8.811   2.487  0.0376  0.6596  0.6528
  643MOL0     O84768   7.513   8.736   2.372  0.5718 -0.2952  0.1821
  643MOL0     C84769   7.606   8.648   2.313  0.0295 -0.2549  0.2505
  643MOL0     C84770   7.555   8.529   2.266  0.4013 -1.1925  0.2342
  643MOL0     C84771   7.630   8.426   2.227  0.6236 -0.1247  0.5965
  643MOL0     C84772   7.765   8.437   2.212 -0.7890 -0.0023  0.6146
  643MOL0     C84773   7.859   8.328   2.158  0.7133  0.5753  0.8380
  643MOL0     O84774   7.995   8.333   2.203  1.2847 -0.0211  0.2478
  643MOL0     C84775   8.102   8.262   2.155  0.2194 -0.1061  1.1051
  643MOL0     C84776   8.227   8.292   2.199 -0.0596 -0.1473  1.1781
  643MOL0     C84777   8.334   8.230   2.159 -0.4195  0.9400 -0.2452
  643MOL0     C84778   8.329   8.134   2.062 -0.4931 -0.0747 -0.0349
  643MOL0     O84779   8.441   8.070   2.009 -0.3661 -0.2402  0.3317
  643MOL0     C84780   8.561   8.071   2.085 -0.0094 -0.5793  0.1400
  643MOL0     C84781   8.666   7.996   2.007 -0.3208 -0.1540 -0.6310
  643MOL0     C84782   8.802   8.018   2.087 -0.3096  0.2746 -0.1145
  643MOL0     C84783   8.932   7.968   2.004  0.6715  0.2898 -1.0812
  643MOL0     C84784   9.070   7.936   2.082 -0.1890 -0.4280 -0.9308
  643MOL0     C84785   9.190   7.933   1.988 -0.0654  0.5225 -0.1928
  643MOL0     C84786   9.190   7.811   1.884  0.0856 -0.5188  0.7755
  643MOL0     C84787   9.311   7.811   1.784  0.4772 -0.1050 -0.6064
  643MOL0    Cl84788   9.300   7.977   1.709  0.0836  0.2908  0.2752
  643MOL0     C84789   8.208   8.104   2.000  0.6797 -0.9281 -0.1674
  643MOL0     C84790   8.084   8.162   2.048 -0.1683 -0.6166 -0.7061
  643MOL0     O84791   7.803   8.233   2.091 -0.4733  0.0600  0.0952
  643MOL0     C84792   7.827   8.558   2.258  0.0936 -0.0128  0.4758
  643MOL0     C84793   7.748   8.652   2.308  0.5698  0.7097  0.9262
  643MOL0     N84794   7.377   9.070   2.792  1.0322  0.1115 -0.1218
  643MOL0     N84795   7.337   9.098   2.910 -0.0998  1.3876 -0.4395
  643MOL0     C84796   7.012   9.403   3.978  0.0908 -0.0208  0.2957
  643MOL0     C84797   7.064   9.486   4.078 -0.1507  0.3567  0.5255
  643MOL0     C84798   7.233   9.685   4.428 -0.5666  0.0989 -0.2033
  643MOL0     C84799   7.160   9.735   4.535  0.0029  0.0009  0.0707
  643MOL0     C84800   7.200   9.826   4.623 -0.0008  1.0070 -0.6352
  643MOL0     C84801   7.327   9.890   4.598 -0.0438 -0.0324 -0.6182
  643MOL0     O84802   7.343   9.997   4.679 -0.6263 -0.7420  0.3078
  643MOL0     C84803   7.473  10.065   4.681 -0.6974  0.3503 -0.6428
  643MOL0     C84804   7.488  10.175   4.786  0.2491 -0.5274 -0.6280
  643MOL0     C84805   7.386  10.304   4.788 -0.7853  0.1389 -0.8254
  643MOL0     C84806   7.383  10.396   4.658 -0.7090  1.1855  1.0777
  643MOL0     C84807   7.513  10.422   4.599  0.4285 -0.6732  0.8708
  643MOL0     C84808   7.617  10.440   4.556 -0.5932 -0.0508 -0.5654
  643MOL0     C84809   7.412   9.837   4.506  0.0869  0.0297  0.4696
  643MOL0     C84810   7.366   9.730   4.426 -0.3437  0.5419 -0.1478
  643MOL0     H84811   7.373   9.347   4.120  0.7698  3.7886 -0.4140
  643MOL0     H84812   7.289   9.197   3.937  1.1300  2.3237 -1.9014
  643MOL0     H84813   6.848   9.280   3.798 -2.5419 -6.7710  1.8950
  643MOL0     H84814   6.894   9.170   3.679 -0.6352  1.1162 -1.1758
  643MOL0     H84815   7.029   9.433   3.722  0.1411  1.3930 -0.5647
  643MOL0     H84816   6.881   9.426   3.631 -1.7461 -2.6631 -0.7404
  643MOL0     H84817   7.115   9.254   3.569 -0.8825  0.8207  1.5543
  643MOL0     H84818   7.120   9.426   3.492 -0.6074 -0.2628 -1.6007
  643MOL0     H84819   6.909   9.225   3.441 -0.9338  1.5418 -1.3072
  643MOL0     H84820   6.922   9.388   3.385  2.2812  3.2905  1.6258
  643MOL0     H84821   7.149   9.180   3.328  1.9765  2.2315 -1.9079
  643MOL0     H84822   7.143   9.338   3.269  1.6642  0.0531  3.2948
  643MOL0     H84823   6.914   9.256   3.140 -0.6330 -2.3816 -0.3089
  643MOL0     H84824   6.931   9.117   3.239 -0.0062  2.6630  3.2830
  643MOL0     H84825   7.114   9.034   3.105  2.9549  0.4228 -1.9067
  643MOL0     H84826   6.979   9.096   3.002 -0.6615  1.7632  0.2269
  643MOL0     H84827   7.222   9.253   3.080  2.7959 -0.7460 -0.9767
  643MOL0     H84828   7.086   9.308   2.977  1.0550  0.8275 -0.0963
  643MOL0     H84829   7.092   9.217   2.714  1.5404  1.6563 -0.4227
  643MOL0     H84830   7.384   9.188   2.507  1.5485 -0.0742  1.3951
  643MOL0     H84831   7.224   9.161   2.496  0.7984 -1.1897 -3.4525
  643MOL0     H84832   7.280   8.962   2.412 -2.2343  1.0547  0.8165
  643MOL0     H84833   7.297   8.899   2.574 -1.2706 -0.0722 -1.0529
  643MOL0     H84834   7.530   9.019   2.414  0.2839  2.8786  1.7500
  643MOL0     H84835   7.533   9.008   2.575 -1.2733  2.0931 -0.6886
  643MOL0     H84836   7.513   8.752   2.574  1.5638 -1.3912 -0.1440
  643MOL0     H84837   7.651   8.826   2.482  0.5226 -2.4890 -0.3265
  643MOL0     H84838   7.448   8.512   2.265  0.5431 -2.2279  0.6159
  643MOL0     H84839   7.575   8.335   2.207 -1.4993  1.3764 -0.8210
  643MOL0     H84840   8.246   8.359   2.282  1.1848 -2.0791  2.5496
  643MOL0     H84841   8.422   8.242   2.221 -1.1158  1.1433  0.7273
  643MOL0     H84842   8.553   8.029   2.185  2.0708 -0.8476  0.2429
  643MOL0     H84843   8.607   8.169   2.104  0.4209 -0.6120 -0.6923
  643MOL0     H84844   8.673   8.048   1.911 -1.0046  3.3196  1.0531
  643MOL0     H84845   8.639   7.890   2.014  2.1468 -0.7746  5.2505
  643MOL0     H84846   8.790   7.959   2.178  4.5990 -4.2839 -1.9402
  643MOL0     H84847   8.820   8.121   2.120  0.6919  1.6054 -4.1419
  643MOL0     H84848   8.912   7.870   1.959 -2.5017  0.6201 -0.5762
  643MOL0     H84849   8.964   8.045   1.933  2.3848 -0.4051 -1.1156
  643MOL0     H84850   9.043   7.847   2.139  1.8753  0.4013  1.5345
  643MOL0     H84851   9.084   8.017   2.154  0.1413 -1.7647  0.5648
  643MOL0     H84852   9.282   7.931   2.048 -0.5949 -3.9939  0.8763
  643MOL0     H84853   9.183   8.026   1.932  1.9448  0.1903 -1.1037
  643MOL0     H84854   9.193   7.712   1.929  2.2201  0.3402  2.7310
  643MOL0     H84855   9.097   7.827   1.828  0.7550  0.0834 -0.1900
  643MOL0     H84856   9.302   7.737   1.704 -3.6437  2.6735 -3.1125
  643MOL0     H84857   9.405   7.798   1.839 -1.2786 -3.3721  2.0191
  643MOL0     H84858   8.197   8.024   1.927 -1.8685 -0.6721 -0.1523
  643MOL0     H84859   7.987   8.136   2.008 -0.5404  0.5841 -0.6082
  643MOL0     H84860   7.935   8.564   2.264  0.3030 -0.4937 -1.8638
  643MOL0     H84861   7.804   8.734   2.350  0.2729  1.1806  0.4235
  643MOL0     H84862   6.910   9.420   3.944 -0.3100 -1.4596  0.7300
  643MOL0     H84863   7.006   9.569   4.114 -1.0406  0.0642 -0.1950
  643MOL0     H84864   7.058   9.700   4.540  0.1820 -0.4079  1.4314
  643MOL0     H84865   7.141   9.862   4.707  2.4068 -1.6969  2.4996
  643MOL0     H84866   7.487  10.106   4.580  2.1774 -0.9501 -0.8762
  643MOL0     H84867   7.556   9.994   4.684  0.5525  1.7268 -1.2922
  643MOL0     H84868   7.468  10.134   4.885  0.3448 -0.4916 -0.5937
  643MOL0     H84869   7.587  10.221   4.783 -0.5701  1.3353 -1.0120
  643MOL0     H84870   7.422  10.359   4.875 -0.7273  0.6124 -1.1420
  643MOL0     H84871   7.285  10.267   4.804 -0.4687 -0.3843  0.0473
  643MOL0     H84872   7.313  10.345   4.592  0.1579  0.6587  0.5422
  643MOL0     H84873   7.338  10.490   4.692 -3.0917  0.4166  0.2392
  643MOL0     H84874   7.708  10.465   4.506 -2.7673  3.2759 -3.3363
  643MOL0     H84875   7.509   9.885   4.497 -0.2269  1.3457  3.1283
  643MOL0     H84876   7.427   9.687   4.348 -2.2377 -2.8905  0.0403
  644MOL0     O84877   7.717   3.204   1.975 -0.0467 -0.5347  0.1653
  644MOL0     C84878   7.838   3.173   1.983  0.4664  0.0839 -0.0871
  644MOL0     O84879   7.883   3.061   2.034  0.0125  0.5584 -0.2393
  644MOL0     C84880   7.832   2.948   1.977  0.1963 -0.2459 -0.0826
  644MOL0     C84881   7.699   2.921   2.001  0.5815 -0.1124  0.3402
  644MOL0     C84882   7.657   2.795   1.969  0.1778  0.8029  0.0614
  644MOL0     C84883   7.736   2.702   1.895  0.4929  0.0995 -0.2196
  644MOL0     O84884   7.700   2.578   1.848  0.2073  0.8056 -0.6475
  644MOL0     C84885   7.567   2.537   1.874  0.3330 -0.0968  0.5400
  644MOL0     C84886   7.564   2.462   2.003 -0.0321 -0.3557 -0.6879
  644MOL0     C84887   7.447   2.363   2.028  0.7083 -0.3153  0.5583
  644MOL0     C84888   7.315   2.442   2.046 -0.2380 -0.1533  0.4701
  644MOL0     C84889   7.297   2.479   2.190 -0.2182 -0.1717 -0.4015
  644MOL0     C84890   7.156   2.520   2.237 -0.2813 -0.8394  0.7377
  644MOL0     C84891   7.061   2.406   2.219  0.1151  0.1879 -0.2870
  644MOL0     C84892   6.920   2.475   2.227  0.1459 -0.4445 -0.4864
  644MOL0     N84893   6.886   2.496   2.367  0.7321  0.2674 -1.1761
  644MOL0     C84894   6.754   2.530   2.418 -0.2518  0.2952 -0.4036
  644MOL0     C84895   6.770   2.556   2.552 -0.1631  0.1747  0.4735
  644MOL0     C84896   6.661   2.570   2.653  0.0631 -0.4935  0.6609
  644MOL0     C84897   6.595   2.441   2.684  1.2870 -0.4378  0.2363
  644MOL0     C84898   6.678   2.354   2.784 -0.0482  0.8213  0.3046
  644MOL0     C84899   6.603   2.241   2.861 -0.4256 -0.2712 -1.3189
  644MOL0     O84900   6.701   2.133   2.894  0.7162 -0.1199  0.0387
  644MOL0     C84901   6.645   2.023   2.953  0.2707 -0.5356 -0.3239
  644MOL0     C84902   6.563   1.936   2.890  0.0399  0.7822  0.5073
  644MOL0     C84903   6.494   1.837   2.960  0.1563  0.6325  0.1255
  644MOL0     C84904   6.488   1.825   3.094 -0.0942  0.6808 -0.6830
  644MOL0     C84905   6.411   1.714   3.163  0.2699 -0.9796  0.3572
  644MOL0     O84906   6.434   1.699   3.294 -0.9194 -0.7653 -0.7487
  644MOL0     C84907   6.362   1.622   3.385 -0.1307  0.1359 -0.9017
  644MOL0     C84908   6.236   1.563   3.368  0.2919 -0.2933  1.0864
  644MOL0     C84909   6.163   1.519   3.484 -0.7150 -0.4259  0.2971
  644MOL0     C84910   6.224   1.503   3.608  0.2659  0.4918  0.5863
  644MOL0     O84911   6.146   1.444   3.709  0.7967  0.3447 -0.8762
  644MOL0     C84912   6.176   1.466   3.852 -0.3556 -0.4010  0.5521
  644MOL0     C84913   6.062   1.437   3.951  0.5483 -0.5921 -0.7544
  644MOL0     C84914   6.112   1.488   4.084  0.3881 -0.1585 -1.1583
  644MOL0     C84915   5.999   1.512   4.188 -1.0609 -0.1297 -0.3546
  644MOL0     C84916   6.062   1.605   4.299  0.6061 -0.5118 -0.0904
  644MOL0     C84917   5.940   1.651   4.393 -0.0067  0.0004  0.6684
  644MOL0     C84918   5.987   1.723   4.521 -0.3846 -0.2651  0.2387
  644MOL0     C84919   5.895   1.845   4.547 -0.5798  1.5889  1.0585
  644MOL0    Cl84920   5.903   1.896   4.714  0.2894  0.0099 -0.3692
  644MOL0     C84921   6.356   1.546   3.623 -0.2332  0.1216  0.2141
  644MOL0     C84922   6.423   1.607   3.512  0.0219 -1.0422 -1.4991
  644MOL0     O84923   6.326   1.650   3.101  0.7084  0.5059  0.1693
  644MOL0     C84924   6.584   1.913   3.159  0.6526  0.8925  0.0472
  644MOL0     C84925   6.650   2.018   3.093  0.0410  0.3168 -0.4652
  644MOL0     N84926   6.905   2.560   2.582  0.2454 -0.5048 -0.1729
  644MOL0     N84927   6.969   2.515   2.473 -0.2236  0.0057  0.4497
  644MOL0     C84928   7.865   2.743   1.850  0.2711  0.2344 -0.3530
  644MOL0     C84929   7.916   2.860   1.906  0.0608 -0.0984 -0.8302
  644MOL0     C84930   7.944   3.271   1.956 -0.2204 -0.8545  0.0878
  644MOL0     C84931   8.080   3.271   2.004 -0.4959  0.1294  0.8049
  644MOL0     C84932   8.183   3.365   1.994  0.4306  0.4216  0.0161
  644MOL0     C84933   8.138   3.489   1.944 -0.0268 -0.3294  0.0952
  644MOL0     O84934   8.221   3.594   1.920  0.8845 -0.1146 -0.5216
  644MOL0     C84935   8.351   3.598   1.972 -0.8490  0.0618  0.0942
  644MOL0     C84936   8.432   3.711   1.911 -0.6707  0.4683  0.2218
  644MOL0     C84937   8.584   3.725   1.957  1.1758  0.2314 -0.7814
  644MOL0     C84938   8.633   3.867   1.934  0.7544  0.2831 -0.7305
  644MOL0     C84939   8.686   3.891   1.802  0.1828  0.3002 -0.4379
  644MOL0     C84940   8.711   3.897   1.681 -0.5114 -0.2208  0.1460
  644MOL0     C84941   8.010   3.499   1.878 -0.6932  0.4613 -0.1188
  644MOL0     C84942   7.917   3.392   1.891  0.8354 -0.0277  0.5184
  644MOL0     H84943   7.653   2.990   2.071  0.2945  2.3581 -2.1137
  644MOL0     H84944   7.567   2.751   2.009  1.2490 -1.6511 -0.0765
  644MOL0     H84945   7.537   2.468   1.795  0.4735  0.0061  0.3976
  644MOL0     H84946   7.485   2.610   1.867 -0.9082 -1.5716 -1.3104
  644MOL0     H84947   7.584   2.535   2.083  4.1425 -0.8392 -1.0340
  644MOL0     H84948   7.651   2.397   2.014 -0.0075  0.0826  4.3530
  644MOL0     H84949   7.463   2.298   2.115 -2.5175 -1.4663  0.4306
  644MOL0     H84950   7.442   2.289   1.947  0.6758  0.6784 -0.3850
  644MOL0     H84951   7.321   2.527   1.976  3.0224 -1.0069 -0.4582
  644MOL0     H84952   7.240   2.367   2.021  3.1044 -4.1601  1.3116
  644MOL0     H84953   7.369   2.559   2.212 -0.0014 -0.3807 -0.3384
  644MOL0     H84954   7.325   2.390   2.246  1.7185  2.9859  4.3201
  644MOL0     H84955   7.123   2.611   2.185  0.0337 -0.5954  0.9581
  644MOL0     H84956   7.186   2.545   2.340  0.8912 -0.9495  0.4399
  644MOL0     H84957   7.070   2.359   2.121 -0.6872  0.8099 -0.6725
  644MOL0     H84958   7.073   2.323   2.290 -0.0690  0.8472  0.5323
  644MOL0     H84959   6.848   2.400   2.192  0.6505 -0.1439 -2.2475
  644MOL0     H84960   6.919   2.562   2.161 -1.2092  1.2666  1.6682
  644MOL0     H84961   6.668   2.517   2.353  2.2650 -0.7496 -3.8282
  644MOL0     H84962   6.583   2.634   2.609  3.0545  2.6602 -0.5555
  644MOL0     H84963   6.707   2.619   2.740 -0.9325  1.2375  0.2721
  644MOL0     H84964   6.582   2.386   2.591 -0.5642  0.7243 -0.2402
  644MOL0     H84965   6.495   2.461   2.725  0.2998 -2.8945 -0.8057
  644MOL0     H84966   6.757   2.304   2.727 -0.6394 -1.1021  1.1043
  644MOL0     H84967   6.732   2.420   2.853 -0.4815  3.9388 -2.0976
  644MOL0     H84968   6.528   2.204   2.791 -0.5832 -0.7964 -0.8840
  644MOL0     H84969   6.548   2.285   2.945  0.7075  2.1636 -1.7761
  644MOL0     H84970   6.546   1.937   2.783  2.0627  0.0446  0.1478
  644MOL0     H84971   6.433   1.772   2.898  0.7553  1.6507 -1.6214
  644MOL0     H84972   6.176   1.578   3.278  1.2303 -3.7576 -0.2700
  644MOL0     H84973   6.057   1.500   3.478 -0.7765 -0.3093  0.9282
  644MOL0     H84974   6.225   1.564   3.852  0.4026 -0.6972 -2.3741
  644MOL0     H84975   6.263   1.403   3.871  0.5438  0.5714 -0.2593
  644MOL0     H84976   6.029   1.333   3.963  0.3041 -0.3697  0.7385
  644MOL0     H84977   5.971   1.489   3.921  1.5075  2.3301  1.0184
  644MOL0     H84978   6.166   1.583   4.074  0.3558 -0.0522 -0.4382
  644MOL0     H84979   6.178   1.421   4.141  0.2925  0.3311 -0.4499
  644MOL0     H84980   5.917   1.560   4.135 -1.0846 -2.4064 -2.5492
  644MOL0     H84981   5.967   1.420   4.237  0.3241 -0.9980 -1.0057
  644MOL0     H84982   6.106   1.697   4.258 -3.0543  1.3527 -0.2181
  644MOL0     H84983   6.132   1.542   4.354 -0.2412 -3.5833 -2.2594
  644MOL0     H84984   5.891   1.562   4.433 -2.1076  1.4900  1.6051
  644MOL0     H84985   5.864   1.706   4.337 -0.1089  1.6758  2.3555
  644MOL0     H84986   6.002   1.656   4.606  0.3808 -0.5826 -0.1403
  644MOL0     H84987   6.088   1.766   4.521  0.2637 -1.2725  4.7477
  644MOL0     H84988   5.794   1.813   4.516  0.2942 -0.0807 -0.2473
  644MOL0     H84989   5.923   1.920   4.473 -0.6681 -1.0973 -1.9446
  644MOL0     H84990   6.420   1.538   3.709  0.9779 -0.0279 -0.6752
  644MOL0     H84991   6.517   1.655   3.536 -0.1687 -1.0923 -0.6155
  644MOL0     H84992   6.606   1.911   3.265  0.3712  0.1505  0.1036
  644MOL0     H84993   6.704   2.091   3.152 -2.8679  1.8996  0.3814
  644MOL0     H84994   7.925   2.690   1.778 -0.6818 -0.9193 -0.3403
  644MOL0     H84995   8.020   2.891   1.908  0.4070 -1.1763  2.3491
  644MOL0     H84996   8.123   3.182   2.049 -2.0968 -2.0171 -1.6028
  644MOL0     H84997   8.284   3.342   2.028 -0.6605 -4.9740  0.5013
  644MOL0     H84998   8.400   3.502   1.952  2.4425  1.5478  0.3963
  644MOL0     H84999   8.343   3.612   2.080  4.8263 -1.8100  1.0736
  644MOL0     H85000   8.444   3.698   1.803  2.7765 -1.3126  0.6623
  644MOL0     H85001   8.394   3.812   1.923  2.1370  1.9225 -1.9008
  644MOL0     H85002   8.641   3.650   1.903 -0.1586 -1.0064 -0.5469
  644MOL0     H85003   8.591   3.693   2.062 -0.7437  0.4346 -0.5539
  644MOL0     H85004   8.548   3.926   1.970 -0.1521 -1.7084  0.5864
  644MOL0     H85005   8.716   3.894   2.000  1.9511  1.3563 -2.5815
  644MOL0     H85006   8.736   3.886   1.577 -2.1116  2.1926 -0.5768
  644MOL0     H85007   7.994   3.593   1.826  0.8352  1.9762  1.9765
  644MOL0     H85008   7.817   3.392   1.849  2.0211 -0.7198 -2.6115
  645MOL0     O85009   6.789  10.230   5.597 -0.0340 -0.9970  0.7185
  645MOL0     C85010   6.755  10.139   5.672  0.1254 -0.4214  0.7637
  645MOL0     O85011   6.777  10.008   5.647 -0.0286 -0.0304 -0.5993
  645MOL0     C85012   6.814   9.976   5.518  1.5132  1.0096 -0.0818
  645MOL0     C85013   6.733   9.998   5.408 -0.0086 -0.5690  0.2513
  645MOL0     C85014   6.764   9.963   5.279 -0.6982 -0.2265  1.4844
  645MOL0     C85015   6.873   9.882   5.258  0.0736 -0.3716  0.0577
  645MOL0     O85016   6.895   9.829   5.130 -0.3436 -1.2920 -0.8814
  645MOL0     C85017   6.788   9.750   5.072  0.2840  0.1032 -0.3616
  645MOL0     C85018   6.850   9.680   4.956 -0.2772 -0.0435  0.2876
  645MOL0     C85019   6.766   9.577   4.876 -0.5491  0.7088  1.0243
  645MOL0     C85020   6.828   9.518   4.749 -0.1443  0.2062  0.2924
  645MOL0     C85021   6.729   9.415   4.689 -0.3975  0.3668 -1.4528
  645MOL0     C85022   6.732   9.281   4.766 -0.2492 -0.8695  0.4724
  645MOL0     C85023   6.674   9.159   4.698  0.6343 -0.2559 -0.1196
  645MOL0     C85024   6.531   9.182   4.653  0.6389  0.5957  0.8245
  645MOL0     N85025   6.442   9.215   4.765  0.1928 -0.9254  0.5039
  645MOL0     C85026   6.389   9.129   4.858 -0.1082  0.2372  0.6172
  645MOL0     C85027   6.337   9.214   4.949  0.5367  0.0254 -0.7386
  645MOL0     C85028   6.279   9.159   5.075 -0.5288 -1.0102 -0.5197
  645MOL0     C85029   6.371   9.184   5.199 -0.1403  0.6909 -1.2364
  645MOL0     C85030   6.354   9.324   5.265 -0.3942  0.0492 -0.0334
  645MOL0     C85031   6.465   9.367   5.353 -0.0757 -0.1471 -0.1957
  645MOL0     O85032   6.451   9.502   5.408  0.0267  0.3994  0.8204
  645MOL0     C85033   6.535   9.543   5.508  0.2779  0.1274  0.6184
  645MOL0     C85034   6.506   9.666   5.581 -0.2094  0.8304 -0.1424
  645MOL0     C85035   6.581   9.699   5.696 -0.3096 -0.7474  0.1020
  645MOL0     C85036   6.695   9.638   5.726 -0.5540  0.1998 -1.4577
  645MOL0     C85037   6.779   9.680   5.844 -0.8740  0.6493  1.3399
  645MOL0     O85038   6.902   9.618   5.847  0.2302 -0.5134 -0.3504
  645MOL0     C85039   6.999   9.650   5.948  0.3257 -0.9038  1.4971
  645MOL0     C85040   7.108   9.561   5.960 -0.7321 -0.3493  0.5828
  645MOL0     C85041   7.217   9.587   6.044 -0.2635  0.5769 -0.9325
  645MOL0     C85042   7.218   9.706   6.116  0.0151  0.5011  0.7592
  645MOL0     O85043   7.322   9.730   6.211 -0.1108 -0.0850  0.5591
  645MOL0     C85044   7.345   9.634   6.308  0.0264  0.4013  0.1804
  645MOL0     C85045   7.469   9.666   6.391  0.0231 -0.3429  0.6291
  645MOL0     C85046   7.500   9.552   6.474 -1.1128 -0.7833 -0.8197
  645MOL0     C85047   7.626   9.577   6.561  0.3471  0.1261 -0.4818
  645MOL0     C85048   7.658   9.451   6.643  0.8792 -0.5850  1.1436
  645MOL0     C85049   7.779   9.489   6.732 -0.1518 -0.5090 -0.1235
  645MOL0     C85050   7.829   9.375   6.827  0.4451  0.7685  0.6370
  645MOL0     C85051   7.910   9.426   6.944  0.2216  0.5358 -0.3277
  645MOL0    Cl85052   7.915   9.299   7.062  0.1634  0.4530  0.2594
  645MOL0     C85053   7.105   9.790   6.109  0.4755  1.2027 -0.0503
  645MOL0     C85054   6.997   9.767   6.018  0.7672  0.0037  0.3864
  645MOL0     O85055   6.725   9.739   5.936  0.4628  0.6032  0.4902
  645MOL0     C85056   6.741   9.536   5.645 -0.3671  0.2728  0.0465
  645MOL0     C85057   6.665   9.482   5.542  0.7155  0.5517  0.3774
  645MOL0     N85058   6.343   9.343   4.906  0.0566 -0.1354 -0.0214
  645MOL0     N85059   6.403   9.341   4.791  0.2276 -0.0926 -0.5053
  645MOL0     C85060   6.958   9.850   5.363  0.5268  0.5419  0.8925
  645MOL0     C85061   6.923   9.892   5.499  0.4685 -0.3954  0.7988
  645MOL0     C85062   6.713  10.178   5.807 -0.0915  0.0933 -0.4548
  645MOL0     C85063   6.713  10.317   5.835  0.9184 -0.5947 -0.1750
  645MOL0     C85064   6.683  10.357   5.966  0.1515 -0.6649  0.5338
  645MOL0     C85065   6.629  10.265   6.061 -0.5869  0.9688 -0.0431
  645MOL0     O85066   6.576  10.304   6.173 -0.1304 -0.4449 -0.4888
  645MOL0     C85067   6.639  10.257   6.297  0.2717  0.0246 -0.1177
  645MOL0     C85068   6.794  10.269   6.298 -0.4998 -0.5014  1.1298
  645MOL0     C85069   6.850  10.418   6.307  0.3050  0.3149 -0.0226
  645MOL0     C85070   7.006  10.418   6.300 -0.2550  1.0703  0.1242
  645MOL0     C85071   7.064  10.536   6.356  0.7602 -0.4595 -1.5098
  645MOL0     C85072   7.122  10.630   6.405  0.1717  0.3546  1.0552
  645MOL0     C85073   6.625  10.129   6.030 -0.0929 -0.1770  0.2792
  645MOL0     C85074   6.657  10.085   5.899 -0.8645 -0.2607  0.2421
  645MOL0     H85075   6.652  10.071   5.416  2.5394  2.7269 -1.3383
  645MOL0     H85076   6.694   9.984   5.198 -0.4748 -0.5606  1.2007
  645MOL0     H85077   6.700   9.803   5.036 -0.8620 -2.4257 -1.4944
  645MOL0     H85078   6.756   9.679   5.149  0.5403  1.7617  1.3740
  645MOL0     H85079   6.941   9.623   4.974  0.0410 -0.7774 -3.0682
  645MOL0     H85080   6.887   9.760   4.893  3.2846 -0.4203  1.6683
  645MOL0     H85081   6.669   9.621   4.853 -1.3194 -1.6852 -0.6875
  645MOL0     H85082   6.741   9.498   4.947 -1.5980  1.3641  1.3914
  645MOL0     H85083   6.840   9.602   4.680 -1.9121 -1.4361 -2.1535
  645MOL0     H85084   6.929   9.477   4.749  0.2814  1.1880 -1.1537
  645MOL0     H85085   6.748   9.402   4.582  2.2397  1.0862 -1.1310
  645MOL0     H85086   6.627   9.454   4.689 -0.3183  0.6037 -2.7470
  645MOL0     H85087   6.675   9.293   4.859  0.3145 -2.0054  0.9758
  645MOL0     H85088   6.839   9.264   4.780  0.6425  1.9128 -1.9935
  645MOL0     H85089   6.739   9.123   4.619  1.2227  1.8915 -0.6717
  645MOL0     H85090   6.664   9.078   4.771 -3.9430 -1.7762 -2.0243
  645MOL0     H85091   6.489   9.098   4.598  0.5855  1.0831  0.1068
  645MOL0     H85092   6.530   9.250   4.568 -1.5904  1.4080  1.4221
  645MOL0     H85093   6.409   9.022   4.859 -1.6049 -0.1270 -1.1286
  645MOL0     H85094   6.248   9.055   5.057  0.0887 -1.0790 -1.2707
  645MOL0     H85095   6.187   9.218   5.082  0.1189 -0.0028 -0.2552
  645MOL0     H85096   6.476   9.171   5.169  0.4453 -4.7332  1.8843
  645MOL0     H85097   6.344   9.108   5.272 -1.2828 -0.1144 -2.4632
  645MOL0     H85098   6.369   9.392   5.181  2.4883  1.0693  1.1680
  645MOL0     H85099   6.255   9.332   5.312 -2.1859 -1.6480 -3.1891
  645MOL0     H85100   6.542   9.361   5.276 -0.2610 -1.0652 -0.3216
  645MOL0     H85101   6.490   9.296   5.432  1.7080  0.3282 -0.2957
  645MOL0     H85102   6.411   9.712   5.558 -0.2731  1.0551  0.5707
  645MOL0     H85103   6.558   9.786   5.755  0.0666 -0.8804  0.4470
  645MOL0     H85104   7.119   9.474   5.896  0.2006  0.5158 -0.4676
  645MOL0     H85105   7.295   9.519   6.075  0.1451  2.2068  1.9460
  645MOL0     H85106   7.350   9.533   6.268 -3.2909  0.0343  0.4146
  645MOL0     H85107   7.261   9.646   6.376  0.9761  0.6427  1.3550
  645MOL0     H85108   7.443   9.754   6.451  0.9909  2.0891 -2.2627
  645MOL0     H85109   7.555   9.682   6.325  0.8905 -1.1197  1.5501
  645MOL0     H85110   7.515   9.463   6.412 -1.1262 -1.0218 -0.4813
  645MOL0     H85111   7.417   9.542   6.543 -1.0484 -2.7279 -0.9826
  645MOL0     H85112   7.710   9.601   6.495  1.1811 -0.4775  0.3373
  645MOL0     H85113   7.611   9.658   6.633 -0.4167  0.9330 -1.5159
  645MOL0     H85114   7.655   9.359   6.584 -5.4969 -0.0104 -0.2385
  645MOL0     H85115   7.573   9.441   6.711 -0.4197 -2.2329 -0.6134
  645MOL0     H85116   7.739   9.573   6.789 -0.1036 -1.6405  1.6555
  645MOL0     H85117   7.865   9.513   6.668 -2.4287  0.7074 -2.9336
  645MOL0     H85118   7.739   9.330   6.869  1.4921 -0.2763  1.8517
  645MOL0     H85119   7.877   9.300   6.763 -3.6057 -1.5784  0.0306
  645MOL0     H85120   7.843   9.507   6.973 -2.0537  0.2023 -3.9955
  645MOL0     H85121   8.013   9.457   6.923  0.8539 -0.5642  1.0274
  645MOL0     H85122   7.094   9.876   6.174 -2.2190 -1.3625  3.2411
  645MOL0     H85123   6.919   9.841   6.008  0.7548 -0.0122  0.3647
  645MOL0     H85124   6.837   9.492   5.670  1.7155  2.9348 -2.5535
  645MOL0     H85125   6.704   9.398   5.484 -1.2833  0.3809 -0.7951
  645MOL0     H85126   7.047   9.801   5.325 -0.5589 -0.8677  0.0393
  645MOL0     H85127   6.984   9.868   5.585  2.7019 -1.9759 -1.1011
  645MOL0     H85128   6.748  10.393   5.766  3.3082 -0.0838  1.4905
  645MOL0     H85129   6.689  10.462   5.995 -1.0203 -0.1883 -0.8196
  645MOL0     H85130   6.609  10.155   6.320 -1.3089  1.0921  3.0622
  645MOL0     H85131   6.596  10.308   6.383  1.2782 -3.2831  2.5389
  645MOL0     H85132   6.830  10.214   6.385 -0.3498  0.7837  1.8957
  645MOL0     H85133   6.837  10.219   6.210 -2.9416 -1.5515  0.4428
  645MOL0     H85134   6.818  10.466   6.400 -4.2412  2.1119 -2.2304
  645MOL0     H85135   6.815  10.495   6.239 -0.2438  0.2185  0.1479
  645MOL0     H85136   7.041  10.336   6.364  0.1956  2.5777  1.9016
  645MOL0     H85137   7.032  10.409   6.194 -0.7385  0.0491  0.0749
  645MOL0     H85138   7.170  10.708   6.460 -0.6554  0.7333  1.2390
  645MOL0     H85139   6.588  10.069   6.112 -0.0246 -0.4402  0.1192
  645MOL0     H85140   6.664   9.978   5.888  2.5367 -0.3772  2.1826
  646MOL0     O85141   7.027   6.264   9.623 -0.4687 -0.0091  0.5527
  646MOL0     C85142   6.956   6.352   9.629 -0.3382 -0.4467 -0.1611
  646MOL0     O85143   6.992   6.482   9.616  0.1418 -0.1153 -0.1656
  646MOL0     C85144   7.117   6.511   9.600 -0.3454 -0.5309 -0.2509
  646MOL0     C85145   7.157   6.562   9.475 -0.6700 -0.7288 -0.2754
  646MOL0     C85146   7.280   6.616   9.459 -0.9125  0.0692  0.2293
  646MOL0     C85147   7.370   6.609   9.568  0.4222 -0.6877 -0.3355
  646MOL0     O85148   7.495   6.644   9.530 -0.5604  0.0561  0.3874
  646MOL0     C85149   7.607   6.628   9.611 -0.4252 -0.6911  0.3501
  646MOL0     C85150   7.741   6.625   9.538  1.0001  0.1522 -0.0623
  646MOL0     C85151   7.779   6.740   9.436 -0.4547 -0.0222 -0.3343
  646MOL0     C85152   7.939   6.734   9.408  0.1724  0.4279 -1.0160
  646MOL0     C85153   7.977   6.809   9.279  0.1791 -1.1077 -0.3971
  646MOL0     C85154   7.936   6.955   9.276  0.1346  0.7213  0.2832
  646MOL0     C85155   8.032   7.034   9.178 -0.1485 -0.1390  0.4734
  646MOL0     C85156   8.008   7.191   9.194  0.4105 -0.5618 -0.1567
  646MOL0     N85157   8.053   7.267   9.076  1.0812  0.2901  0.4349
  646MOL0     C85158   8.169   7.342   9.065 -0.6929  0.0965  0.9826
  646MOL0     C85159   8.156   7.406   8.943 -1.3821 -0.4921 -0.0435
  646MOL0     C85160   8.255   7.505   8.886  0.1001 -0.7621  0.1930
  646MOL0     C85161   8.184   7.635   8.848  0.2131  0.0493  0.2742
  646MOL0     C85162   8.270   7.762   8.871  0.6658 -0.4560 -0.5765
  646MOL0     C85163   8.399   7.763   8.781  0.3682 -0.6585 -0.2772
  646MOL0     O85164   8.495   7.844   8.848  1.4379 -0.0098  1.0625
  646MOL0     C85165   8.617   7.857   8.799 -0.0226 -0.0287  0.5250
  646MOL0     C85166   8.677   7.794   8.686  1.1525 -0.7190  0.6161
  646MOL0     C85167   8.804   7.820   8.645 -0.0852 -0.4469 -0.2750
  646MOL0     C85168   8.895   7.886   8.727 -0.3138 -0.3837 -0.3829
  646MOL0     C85169   9.038   7.902   8.709  0.3294 -0.9261 -0.4364
  646MOL0     O85170   9.103   7.965   8.808  0.9107 -0.9456 -0.2769
  646MOL0     C85171   9.242   7.983   8.797  0.6185  0.0890 -0.1560
  646MOL0     C85172   9.337   7.886   8.758  0.5022  0.3802 -1.0418
  646MOL0     C85173   9.475   7.907   8.769 -0.0244 -0.2416 -0.3075
  646MOL0     C85174   9.520   8.035   8.815  0.2417  0.7166 -0.1496
  646MOL0     O85175   9.654   8.062   8.813  0.2406  0.3704 -0.0809
  646MOL0     C85176   9.715   8.023   8.923  0.3360  0.5249 -0.2342
  646MOL0     C85177   9.765   8.137   9.010 -0.4276 -0.3066  0.2168
  646MOL0     C85178   9.867   8.225   8.936 -0.1368  0.0146 -0.8106
  646MOL0     C85179   9.937   8.346   9.017  0.1276 -0.2724  0.1504
  646MOL0     C85180  10.008   8.449   8.922 -0.0276  0.6635  0.7873
  646MOL0     C85181  10.080   8.561   8.995 -0.2899  0.5637 -0.1328
  646MOL0     C85182  10.203   8.511   9.064 -0.1090  0.6867 -0.9344
  646MOL0     C85183  10.275   8.614   9.147  0.3506  0.1829  0.6735
  646MOL0    Cl85184  10.243   8.778   9.098 -0.2266  0.4571 -0.1957
  646MOL0     C85185   9.428   8.135   8.840  0.4237  0.3255 -0.2609
  646MOL0     C85186   9.295   8.108   8.838 -0.4014 -0.5184  1.6839
  646MOL0     O85187   9.085   7.850   8.612 -0.9518 -0.3273  0.3819
  646MOL0     C85188   8.841   7.929   8.851 -0.8534  0.1886 -0.3208
  646MOL0     C85189   8.706   7.921   8.880  0.6914  0.4140 -0.6615
  646MOL0     N85190   8.028   7.383   8.888 -0.2439 -1.0805 -0.3945
  646MOL0     N85191   7.972   7.295   8.970  0.5018 -0.1279  0.4820
  646MOL0     C85192   7.331   6.542   9.691  0.1814 -0.4428 -0.2476
  646MOL0     C85193   7.206   6.496   9.709  0.1948  0.2222  0.5495
  646MOL0     C85194   6.812   6.339   9.619 -0.1056  0.3830 -0.1426
  646MOL0     C85195   6.723   6.451   9.585 -0.4337  0.5402 -0.2599
  646MOL0     C85196   6.581   6.437   9.585  0.8785 -0.1461 -0.5497
  646MOL0     C85197   6.527   6.309   9.613  0.4798  0.1327  0.2087
  646MOL0     O85198   6.394   6.282   9.613  0.1113 -0.0326 -0.7804
  646MOL0     C85199   6.296   6.347   9.531 -0.5535  0.6382 -0.1609
  646MOL0     C85200   6.208   6.435   9.617  1.0944 -0.3556 -0.2852
  646MOL0     C85201   6.129   6.360   9.726  0.6823  0.1165  0.6908
  646MOL0     C85202   6.024   6.457   9.778  0.3897 -0.0218  0.2411
  646MOL0     C85203   5.910   6.386   9.840  0.2682 -0.6770  1.0314
  646MOL0     C85204   5.817   6.339   9.907 -0.4824  0.0596 -0.1437
  646MOL0     C85205   6.604   6.199   9.642  0.2229  0.2249 -0.5205
  646MOL0     C85206   6.749   6.216   9.637  0.5725  0.3420 -0.7367
  646MOL0     H85207   7.081   6.582   9.400  1.5223 -0.8924 -2.6451
  646MOL0     H85208   7.302   6.674   9.370  0.1896 -0.7530 -0.0546
  646MOL0     H85209   7.600   6.526   9.651 -2.3479  0.0033  1.9425
  646MOL0     H85210   7.597   6.704   9.689  0.3125 -1.4896  1.2516
  646MOL0     H85211   7.750   6.535   9.477  1.0262 -0.2295  0.5012
  646MOL0     H85212   7.818   6.614   9.614  0.9311 -0.4980 -0.0790
  646MOL0     H85213   7.754   6.836   9.483 -2.6049 -2.3090  3.8446
  646MOL0     H85214   7.709   6.744   9.352 -0.2709  4.0239 -0.4664
  646MOL0     H85215   7.999   6.766   9.494 -0.3106 -2.9792  0.7512
  646MOL0     H85216   7.963   6.628   9.398 -0.5612  0.3574 -2.2814
  646MOL0     H85217   7.933   6.766   9.189  1.8463 -0.3758 -1.5951
  646MOL0     H85218   8.084   6.794   9.265 -0.5391 -3.5166 -5.0149
  646MOL0     H85219   7.947   6.996   9.377  0.2230  1.4421 -0.0081
  646MOL0     H85220   7.836   6.964   9.232  0.2394  0.3726 -0.0314
  646MOL0     H85221   8.136   7.014   9.204  0.0527  3.2151  2.9277
  646MOL0     H85222   8.013   7.013   9.073  0.7943  2.0542 -0.1903
  646MOL0     H85223   8.054   7.236   9.282  1.3323  2.2859 -1.9585
  646MOL0     H85224   7.901   7.209   9.211  0.2656 -1.1052 -0.4684
  646MOL0     H85225   8.254   7.346   9.133 -0.5006  0.6396  0.7146
  646MOL0     H85226   8.303   7.467   8.795  2.5478  0.8970  0.7088
  646MOL0     H85227   8.337   7.524   8.955  1.7423 -3.6412 -0.7636
  646MOL0     H85228   8.086   7.649   8.894 -0.5809  1.7717 -1.7670
  646MOL0     H85229   8.154   7.629   8.743 -1.3354  1.2962  0.6075
  646MOL0     H85230   8.204   7.849   8.860 -1.5235 -1.7082  1.5419
  646MOL0     H85231   8.304   7.776   8.974 -0.8211  1.9689 -0.3332
  646MOL0     H85232   8.364   7.798   8.683 -2.5633 -0.0941  0.8744
  646MOL0     H85233   8.442   7.665   8.756  0.4061 -0.3754 -1.4090
  646MOL0     H85234   8.616   7.742   8.612  1.9304  0.6677 -1.0678
  646MOL0     H85235   8.849   7.798   8.548 -2.2890  1.2331 -1.7646
  646MOL0     H85236   9.311   7.790   8.714  0.5069 -0.5037  0.7912
  646MOL0     H85237   9.538   7.828   8.729  0.2742  0.3264 -0.9789
  646MOL0     H85238   9.809   7.977   8.889  0.5210  2.1466 -2.0974
  646MOL0     H85239   9.673   7.939   8.979 -0.6419 -0.2997 -2.1016
  646MOL0     H85240   9.806   8.082   9.095 -2.0918 -0.2298  1.1194
  646MOL0     H85241   9.684   8.203   9.045  1.8483  2.4656  0.6724
  646MOL0     H85242   9.805   8.268   8.856 -1.6543 -2.7443 -1.2539
  646MOL0     H85243   9.946   8.157   8.903  0.7060 -1.0996  3.0438
  646MOL0     H85244   9.850   8.396   9.060 -0.7282 -0.1102 -1.6459
  646MOL0     H85245  10.011   8.306   9.087 -1.1067 -0.3232  1.4671
  646MOL0     H85246   9.939   8.495   8.851  2.1208  0.8785 -1.2717
  646MOL0     H85247  10.085   8.399   8.863  0.0368  0.8992  0.6726
  646MOL0     H85248  10.020   8.604   9.076  1.1810  0.9704  0.7659
  646MOL0     H85249  10.097   8.639   8.920  1.1880  1.5206  1.1574
  646MOL0     H85250  10.184   8.416   9.116  1.3382  0.4683 -0.7453
  646MOL0     H85251  10.267   8.488   8.978 -1.7861  2.6239 -2.8099
  646MOL0     H85252  10.381   8.590   9.144 -0.1843 -2.3811 -0.9657
  646MOL0     H85253  10.254   8.621   9.255  1.4243  0.4183  0.8711
  646MOL0     H85254   9.459   8.234   8.872  0.6076 -0.0720  0.8452
  646MOL0     H85255   9.232   8.196   8.844  2.4942  1.7274  1.5309
  646MOL0     H85256   8.904   7.979   8.924  2.7769  0.0804 -3.1235
  646MOL0     H85257   8.665   7.971   8.967  0.9176  1.2308 -1.0136
  646MOL0     H85258   7.400   6.535   9.775  4.2545 -2.4132 -3.3819
  646MOL0     H85259   7.165   6.442   9.794 -1.2309 -1.1162 -0.9048
  646MOL0     H85260   6.760   6.551   9.566 -0.8964  0.8698  0.5256
  646MOL0     H85261   6.528   6.522   9.544  1.3754  0.6782  0.4702
  646MOL0     H85262   6.238   6.266   9.486  1.1126 -0.7567  0.0890
  646MOL0     H85263   6.347   6.413   9.461  2.1528  2.3812  3.1254
  646MOL0     H85264   6.265   6.518   9.659  0.6364  1.2478 -2.6580
  646MOL0     H85265   6.135   6.484   9.551  0.0113 -1.0837  0.3308
  646MOL0     H85266   6.196   6.321   9.804 -2.4226 -1.3627  2.7989
  646MOL0     H85267   6.072   6.278   9.681 -0.6005  0.2549  2.0221
  646MOL0     H85268   6.059   6.520   9.860 -0.2285  0.1421  0.3877
  646MOL0     H85269   5.988   6.518   9.695 -0.6589 -0.6337  0.2150
  646MOL0     H85270   5.735   6.291   9.958  0.1884 -1.7080 -0.6503
  646MOL0     H85271   6.542   6.110   9.653  0.3026  0.5352  4.1836
  646MOL0     H85272   6.809   6.129   9.661 -4.2953 -2.3179  4.2138
  647MOL0     O85273   0.679  10.702   9.867  0.2234  0.3248  0.0658
  647MOL0     C85274   0.735  10.664   9.760 -0.0826  0.8230  0.0576
  647MOL0     O85275   0.861  10.609   9.752  0.9622 -0.2772  0.0019
  647MOL0     C85276   0.953  10.593   9.851 -0.6631 -0.1038  0.2478
  647MOL0     C85277   0.930  10.563   9.986 -0.8631 -0.0712 -0.2363
  647MOL0     C85278   1.032  10.543  10.082 -0.6255 -0.1295 -0.0135
  647MOL0     C85279   1.160  10.535  10.040 -0.3983  0.5946  0.8689
  647MOL0     O85280   1.260  10.497  10.119 -0.1463 -0.4897 -0.7943
  647MOL0     C85281   1.238  10.416  10.239 -0.3869 -0.6851  1.2196
  647MOL0     C85282   1.360  10.325  10.259 -0.0322  0.0601  0.2102
  647MOL0     C85283   1.487  10.390  10.327 -0.8744  0.4825  0.6257
  647MOL0     C85284   1.593  10.281  10.342  0.9217  0.1413  0.2734
  647MOL0     C85285   1.719  10.324  10.426 -0.1614 -0.1719 -0.2977
  647MOL0     C85286   1.690  10.338  10.577  0.3392  0.2257  1.0211
  647MOL0     C85287   1.805  10.409  10.652  0.2291  0.9075  0.6585
  647MOL0     C85288   1.837  10.394  10.805 -0.3671  0.2722 -0.3376
  647MOL0     N85289   1.808  10.523  10.873 -0.6166 -0.1714  0.3214
  647MOL0     C85290   1.889  10.630  10.901 -0.2618 -0.8726 -0.1593
  647MOL0     C85291   1.807  10.718  10.965  0.0873  1.1617  0.5680
  647MOL0     C85292   1.841  10.866  10.997 -1.5691 -0.0041 -0.4466
  647MOL0     C85293   1.894  10.940  10.876 -0.3619 -0.4937  0.6334
  647MOL0     C85294   1.801  10.941  10.756 -0.1689 -0.1311 -0.1423
  647MOL0     C85295   1.847  11.022  10.640 -0.5639  0.9342  0.1138
  647MOL0     O85296   1.956  10.951  10.584 -0.0888 -0.2564  0.2121
  647MOL0     C85297   1.940  10.855  10.494  0.7081  0.4174  0.3669
  647MOL0     C85298   1.853  10.887  10.390  0.2359 -0.6245 -0.3828
  647MOL0     C85299   1.831  10.799  10.285  0.9526  0.6237 -0.6986
  647MOL0     C85300   1.885  10.662  10.291  1.0043  0.0628 -0.6050
  647MOL0     C85301   1.849  10.572  10.180 -0.4806  0.7893  0.6332
  647MOL0     O85302   1.755  10.604  10.089 -0.2755 -0.6066 -0.3751
  647MOL0     C85303   1.715  10.510  10.002 -1.3234 -0.0312  0.8433
  647MOL0     C85304   1.582  10.487   9.980  1.3631  0.3611 -0.0843
  647MOL0     C85305   1.541  10.408   9.876 -0.8768 -0.4082  1.0221
  647MOL0     C85306   1.627  10.345   9.783  0.2415 -0.1956  0.3965
  647MOL0     O85307   1.590  10.245   9.695 -0.1322  0.1118  0.2087
  647MOL0     C85308   1.453  10.199   9.681 -0.7221  0.4280  0.2132
  647MOL0     C85309   1.364  10.290   9.592 -0.2103  0.1484  0.6183
  647MOL0     C85310   1.230  10.233   9.548 -0.0579 -0.4823 -0.5952
  647MOL0     C85311   1.118  10.343   9.566 -0.1403 -0.2387 -0.1020
  647MOL0     C85312   0.992  10.305   9.489  0.1772  0.3621  0.2663
  647MOL0     C85313   0.926  10.192   9.575 -0.3671  0.4081 -0.2018
  647MOL0     C85314   0.856  10.250   9.700 -0.3599 -0.5798 -0.0661
  647MOL0     C85315   0.901  10.166   9.827  0.0682  0.2222  0.2643
  647MOL0    Cl85316   0.906   9.990   9.790  0.5635 -0.4472  0.3088
  647MOL0     C85317   1.758  10.383   9.791 -1.2261  0.1559  0.0728
  647MOL0     C85318   1.800  10.480   9.893  0.3209 -0.1091  0.6091
  647MOL0     O85319   1.914  10.467  10.182 -0.7841  0.1541 -0.6812
  647MOL0     C85320   1.978  10.640  10.398 -0.3605  0.0732 -0.3818
  647MOL0     C85321   2.002  10.733  10.500 -0.4617 -0.8441  0.6713
  647MOL0     N85322   1.678  10.666  10.962  0.3865 -0.9551  0.3367
  647MOL0     N85323   1.684  10.556  10.900  0.5144 -0.0651 -0.1440
  647MOL0     C85324   1.182  10.570   9.910  0.1323 -0.6179  0.5977
  647MOL0     C85325   1.083  10.598   9.812 -0.3477  0.6170 -0.8206
  647MOL0     C85326   0.658  10.680   9.628 -0.7440 -0.8796  1.1574
  647MOL0     C85327   0.727  10.673   9.505 -0.5304 -0.8692 -0.1005
  647MOL0     C85328   0.664  10.701   9.387  0.6359  0.2831 -0.0235
  647MOL0     C85329   0.531  10.736   9.383  0.5901 -0.9956 -0.6383
  647MOL0     O85330   0.480  10.746   9.257  0.1294  0.5833 -0.1163
  647MOL0     C85331   0.347  10.686   9.229  0.0076 -0.6572  0.3425
  647MOL0     C85332   0.255  10.799   9.161  0.6533 -0.0411 -0.4743
  647MOL0     C85333   0.318  10.897   9.058  0.5398 -0.0894 -2.2513
  647MOL0     C85334   0.233  11.012   9.015  0.4830  0.0705 -0.3353
  647MOL0     C85335   0.188  11.095   9.133 -1.0578  0.5384  0.0999
  647MOL0     C85336   0.169  11.138   9.243 -0.0007 -0.5227  0.2222
  647MOL0     C85337   0.453  10.727   9.501 -0.4741 -0.2506 -1.3697
  647MOL0     C85338   0.521  10.714   9.619  0.2769 -0.1130 -0.3906
  647MOL0     H85339   0.822  10.560  10.002 -1.0571 -0.3124 -1.4627
  647MOL0     H85340   1.002  10.538  10.186  0.9627 -1.0154  0.4323
  647MOL0     H85341   1.153  10.362  10.198  0.5374  1.9007 -5.2529
  647MOL0     H85342   1.208  10.477  10.325 -1.0862  0.7510  0.0042
  647MOL0     H85343   1.390  10.298  10.157 -0.9094 -1.4880  0.3270
  647MOL0     H85344   1.332  10.234  10.313  2.1646 -2.2809 -2.2487
  647MOL0     H85345   1.473  10.433  10.427  2.7839  0.8720  1.0892
  647MOL0     H85346   1.540  10.465  10.268  1.4750 -1.4374  0.1750
  647MOL0     H85347   1.555  10.187  10.384  3.8404 -1.6141 -0.6659
  647MOL0     H85348   1.622  10.249  10.241  0.8650  0.4218  0.1694
  647MOL0     H85349   1.753  10.423  10.396 -4.7407  1.0899 -2.2248
  647MOL0     H85350   1.801  10.252  10.415 -1.2602 -1.6664  0.7617
  647MOL0     H85351   1.685  10.234  10.608  1.1951 -0.1113  0.0722
  647MOL0     H85352   1.601  10.402  10.589  0.7614  1.5156 -1.7903
  647MOL0     H85353   1.895  10.367  10.607 -1.6193  0.3826 -2.8972
  647MOL0     H85354   1.811  10.513  10.619  1.2095 -0.2047 -3.1587
  647MOL0     H85355   1.942  10.365  10.813 -0.4066 -0.1419 -1.1703
  647MOL0     H85356   1.777  10.324  10.864  1.0196  1.8522  3.2438
  647MOL0     H85357   1.996  10.643  10.891 -0.2304  1.1041  1.8997
  647MOL0     H85358   1.918  10.871  11.075  0.0503 -1.7330 -1.8359
  647MOL0     H85359   1.758  10.919  11.045  0.8178  2.1336  1.6370
  647MOL0     H85360   1.986  10.900  10.831 -0.0167  2.8441 -2.0054
  647MOL0     H85361   1.914  11.041  10.913 -0.4354  0.7747 -2.4720
  647MOL0     H85362   1.799  10.835  10.728  0.5665 -0.9979  2.7880
  647MOL0     H85363   1.700  10.971  10.787 -1.5842 -1.6461 -2.8253
  647MOL0     H85364   1.877  11.116  10.687 -2.2346  0.7954  1.5719
  647MOL0     H85365   1.761  11.041  10.575  0.4273 -2.5220 -2.4934
  647MOL0     H85366   1.811  10.986  10.376 -1.9397 -1.7157 -2.2144
  647MOL0     H85367   1.756  10.822  10.210  0.9412  1.9170 -0.3093
  647MOL0     H85368   1.508  10.512  10.056  0.8331  0.5765 -0.6575
  647MOL0     H85369   1.434  10.388   9.878 -1.2275  0.8933 -1.1031
  647MOL0     H85370   1.417  10.176   9.781  0.9559  2.2999  1.3199
  647MOL0     H85371   1.454  10.105   9.625  0.1378  0.3783  0.3101
  647MOL0     H85372   1.418  10.308   9.498  0.4520 -1.2634  0.6924
  647MOL0     H85373   1.344  10.383   9.646 -2.5715 -0.6219  1.1570
  647MOL0     H85374   1.206  10.150   9.615 -1.9611  1.4784  1.2928
  647MOL0     H85375   1.241  10.217   9.440 -2.1748  2.4658 -1.3592
  647MOL0     H85376   1.094  10.351   9.672  3.3977 -0.1383  0.8254
  647MOL0     H85377   1.151  10.439   9.524  2.3464 -1.5204 -1.3091
  647MOL0     H85378   1.015  10.283   9.384 -1.0541  1.6186 -0.2962
  647MOL0     H85379   0.922  10.390   9.490 -3.6052 -2.5143  0.6034
  647MOL0     H85380   1.004  10.122   9.606 -0.6143 -0.7970 -2.1923
  647MOL0     H85381   0.868  10.135   9.503 -0.9283 -0.8042  1.1595
  647MOL0     H85382   0.875  10.355   9.724 -1.0641 -0.9442  2.3917
  647MOL0     H85383   0.749  10.251   9.678 -0.3606  1.8053 -0.2010
  647MOL0     H85384   0.843  10.205   9.911 -0.7232  4.0836 -1.8252
  647MOL0     H85385   1.002  10.203   9.847 -0.9223  1.4533  3.7338
  647MOL0     H85386   1.835  10.353   9.722 -0.2516 -0.0662  1.2210
  647MOL0     H85387   1.901  10.514   9.877  1.6076 -2.9713  1.9318
  647MOL0     H85388   2.027  10.543  10.397  0.3777  0.3904 -3.3069
  647MOL0     H85389   2.046  10.689  10.588 -0.0376  0.2929  1.0466
  647MOL0     H85390   1.288  10.578   9.888 -0.4290 -0.1329 -2.2388
  647MOL0     H85391   1.098  10.626   9.709 -1.0966  0.9959 -0.8334
  647MOL0     H85392   0.832  10.648   9.514 -0.0450  1.0771  0.0602
  647MOL0     H85393   0.699  10.715   9.285 -2.6588 -2.0922 -1.6777
  647MOL0     H85394   0.292  10.635   9.309 -1.0913 -2.9348 -1.7276
  647MOL0     H85395   0.373  10.607   9.158 -0.0421 -0.4560  0.0973
  647MOL0     H85396   0.172  10.738   9.125  2.2005 -2.4804 -0.2182
  647MOL0     H85397   0.215  10.860   9.242 -0.4471  0.3613 -1.2970
  647MOL0     H85398   0.354  10.837   8.974  2.0035 -1.4048 -0.7409
  647MOL0     H85399   0.396  10.950   9.114 -2.3854  0.9721  1.2322
  647MOL0     H85400   0.298  11.066   8.945 -3.5238  2.4135 -2.6363
  647MOL0     H85401   0.145  10.978   8.959  1.1980  0.3125 -1.6629
  647MOL0     H85402   0.148  11.184   9.337 -1.7213  1.3991 -0.9924
  647MOL0     H85403   0.346  10.738   9.511 -0.6382 -2.9593  1.5945
  647MOL0     H85404   0.460  10.715   9.709 -0.2239 -3.0380 -0.5731
  648MOL0     O85405   4.617   7.746   5.616 -0.0606 -0.7813 -0.8730
  648MOL0     C85406   4.690   7.651   5.623  0.5435 -0.1473 -0.1979
  648MOL0     O85407   4.809   7.639   5.548  0.4680 -0.1005  0.5836
  648MOL0     C85408   4.827   7.700   5.427  0.3658  0.0180 -0.6095
  648MOL0     C85409   4.723   7.727   5.331  0.1676 -0.9281 -0.6783
  648MOL0     C85410   4.753   7.787   5.211 -0.3919  0.4590 -0.0543
  648MOL0     C85411   4.880   7.808   5.157 -0.0490  0.1897  0.1149
  648MOL0     O85412   4.900   7.838   5.027  0.5658 -0.4188 -0.8322
  648MOL0     C85413   5.005   7.931   5.003  1.4031 -0.0863  0.0237
  648MOL0     C85414   5.118   7.856   4.935 -0.7298 -0.0211  0.6217
  648MOL0     C85415   5.212   7.941   4.841  0.1090 -0.5898 -0.1412
  648MOL0     C85416   5.300   8.040   4.927  0.6507 -0.6875 -0.4242
  648MOL0     C85417   5.376   8.151   4.845  0.0948 -0.3963  0.1064
  648MOL0     C85418   5.521   8.101   4.804  0.9417 -0.2507  0.0550
  648MOL0     C85419   5.616   8.203   4.739 -0.2499  0.6339  0.5453
  648MOL0     C85420   5.679   8.298   4.841 -0.8948 -0.2988 -0.0143
  648MOL0     N85421   5.759   8.409   4.772 -0.4708 -0.4397  0.1346
  648MOL0     C85422   5.783   8.540   4.820  0.3013  0.2306 -0.3944
  648MOL0     C85423   5.856   8.603   4.734 -0.1548 -0.1600  0.1066
  648MOL0     C85424   5.905   8.741   4.760 -0.3058 -0.3785 -0.0253
  648MOL0     C85425   6.041   8.730   4.825  0.0304  0.5052 -0.8513
  648MOL0     C85426   6.101   8.873   4.828 -0.1326  0.3247 -0.3751
  648MOL0     C85427   6.153   8.908   4.690 -0.2157  0.6065 -1.4345
  648MOL0     O85428   6.061   8.939   4.586  0.3049 -0.2063 -0.0316
  648MOL0     C85429   6.049   9.073   4.555 -1.8590  0.8442 -0.2419
  648MOL0     C85430   6.105   9.175   4.632  0.6322  1.1016 -0.6185
  648MOL0     C85431   6.058   9.307   4.614 -0.6837 -0.6600  0.8868
  648MOL0     C85432   5.965   9.335   4.506  0.5194  0.0747  0.1227
  648MOL0     C85433   5.912   9.462   4.474 -0.3476  0.1806  0.5567
  648MOL0     O85434   5.845   9.485   4.357 -1.0214  0.7038  0.4519
  648MOL0     C85435   5.788   9.605   4.322  0.0072  0.7548  0.6886
  648MOL0     C85436   5.775   9.631   4.187 -0.2018 -0.0631 -0.2290
  648MOL0     C85437   5.694   9.737   4.143  0.3981  0.6619 -0.3242
  648MOL0     C85438   5.641   9.828   4.235 -0.3337 -0.4990 -0.0352
  648MOL0     O85439   5.572   9.934   4.203  0.0456  0.3134 -0.2901
  648MOL0     C85440   5.493   9.920   4.091 -0.8713  0.0321 -0.4946
  648MOL0     C85441   5.424  10.051   4.050  0.1590 -0.8545  0.9594
  648MOL0     C85442   5.514  10.170   4.019 -0.4447 -0.0139  0.4422
  648MOL0     C85443   5.449  10.278   3.932 -0.5847 -0.1429 -0.3388
  648MOL0     C85444   5.512  10.410   3.959 -0.5182  0.0824  1.1746
  648MOL0     C85445   5.466  10.528   3.851 -0.3289  0.6823 -0.6934
  648MOL0     C85446   5.318  10.548   3.818  0.0716  0.8101  0.3040
  648MOL0     C85447   5.253  10.450   3.711  0.5473 -0.5562 -1.2545
  648MOL0    Cl85448   5.317  10.503   3.553 -0.1043  0.0713 -0.4365
  648MOL0     C85449   5.668   9.816   4.375  0.1600  0.4581 -0.2587
  648MOL0     C85450   5.735   9.703   4.418 -0.3098 -0.0685  0.2584
  648MOL0     O85451   5.941   9.544   4.559  0.1429  0.2065  0.6264
  648MOL0     C85452   5.917   9.234   4.431  0.9729  0.8200 -0.3397
  648MOL0     C85453   5.965   9.104   4.457  0.5456  0.0381 -0.9697
  648MOL0     N85454   5.884   8.527   4.622 -0.6453  0.8272 -0.1504
  648MOL0     N85455   5.830   8.409   4.650 -0.0718 -0.4529 -0.0436
  648MOL0     C85456   4.981   7.784   5.258 -0.3058 -0.5214 -0.5864
  648MOL0     C85457   4.953   7.734   5.385  0.1585 -0.0775 -0.6306
  648MOL0     C85458   4.660   7.541   5.710 -0.6166  0.7488 -1.2226
  648MOL0     C85459   4.723   7.412   5.704  0.6938  0.3482  0.8729
  648MOL0     C85460   4.685   7.312   5.796  0.2380  0.7153  0.2323
  648MOL0     C85461   4.570   7.322   5.878  0.4629 -0.2986 -0.4400
  648MOL0     O85462   4.525   7.225   5.968 -0.5229 -0.0147  0.0378
  648MOL0     C85463   4.616   7.143   6.041  0.4327 -1.1361  0.1728
  648MOL0     C85464   4.554   7.068   6.166  0.4073  0.2081  0.0806
  648MOL0     C85465   4.462   7.150   6.267  0.7168  0.2790  0.2652
  648MOL0     C85466   4.509   7.286   6.303 -0.1705  0.3765  1.2696
  648MOL0     C85467   4.407   7.366   6.374 -0.1089 -0.1539 -1.1040
  648MOL0     C85468   4.311   7.428   6.417  0.7858 -0.5211  0.1493
  648MOL0     C85469   4.505   7.436   5.867  1.3981  0.9059 -0.1425
  648MOL0     C85470   4.545   7.546   5.790  0.7842  1.0900 -0.2839
  648MOL0     H85471   4.622   7.715   5.368  0.9357 -0.8506  1.6342
  648MOL0     H85472   4.670   7.786   5.140  0.5100 -2.2682 -1.2050
  648MOL0     H85473   5.042   7.992   5.086  1.5703  1.6819 -1.3186
  648MOL0     H85474   4.956   8.001   4.935  2.7366  0.9870  0.1368
  648MOL0     H85475   5.078   7.777   4.870 -2.6350  0.0424  1.6207
  648MOL0     H85476   5.183   7.819   5.016  0.0161  0.2639  0.1580
  648MOL0     H85477   5.171   8.006   4.763  0.7712  0.4392  0.3446
  648MOL0     H85478   5.279   7.876   4.785 -0.3933  0.1326 -1.6376
  648MOL0     H85479   5.258   8.083   5.019  1.5979 -0.3626 -0.1369
  648MOL0     H85480   5.372   7.976   4.978  1.9466  1.2325  0.2396
  648MOL0     H85481   5.404   8.239   4.904  2.4178 -1.4290  0.6656
  648MOL0     H85482   5.312   8.175   4.760 -2.1659  0.0622  1.8607
  648MOL0     H85483   5.506   8.031   4.722 -1.6758 -1.3683  1.3647
  648MOL0     H85484   5.577   8.058   4.886  1.4882 -0.9594 -0.6766
  648MOL0     H85485   5.696   8.149   4.688  0.7437  1.4265  1.2181
  648MOL0     H85486   5.566   8.266   4.665  0.9633  0.5247 -0.4014
  648MOL0     H85487   5.734   8.246   4.920 -3.4632 -0.9058  1.4934
  648MOL0     H85488   5.596   8.346   4.894 -1.1354  1.1598 -1.6068
  648MOL0     H85489   5.762   8.576   4.920  2.7546 -1.3679  0.7751
  648MOL0     H85490   5.832   8.788   4.827 -1.1929 -0.6030 -0.8002
  648MOL0     H85491   5.913   8.782   4.659  4.1480  0.2146  0.3776
  648MOL0     H85492   6.102   8.669   4.758  0.6411 -1.8377  1.6780
  648MOL0     H85493   6.033   8.685   4.924 -1.4286 -1.8496 -1.9280
  648MOL0     H85494   6.036   8.951   4.869  0.8856  1.7718 -1.3859
  648MOL0     H85495   6.194   8.863   4.885 -1.6513 -4.6647  1.7101
  648MOL0     H85496   6.201   8.814   4.660 -1.0125 -0.2809 -0.0722
  648MOL0     H85497   6.238   8.976   4.689  0.7636 -0.5340 -0.2088
  648MOL0     H85498   6.176   9.178   4.714 -0.6912  1.6265  0.5396
  648MOL0     H85499   6.100   9.388   4.673  1.2607 -0.6389 -0.4671
  648MOL0     H85500   5.830   9.567   4.118 -0.0028  0.2860 -0.3957
  648MOL0     H85501   5.673   9.727   4.037 -1.7504  0.8112  0.0533
  648MOL0     H85502   5.419   9.839   4.097 -0.7683 -0.4856 -4.0820
  648MOL0     H85503   5.557   9.904   4.004  0.6500  1.3244  0.3520
  648MOL0     H85504   5.361  10.086   4.133  1.0260  4.7791 -0.3298
  648MOL0     H85505   5.364  10.037   3.960 -2.4391  2.0179  2.0463
  648MOL0     H85506   5.607  10.145   3.969 -0.8628 -0.3470 -0.1803
  648MOL0     H85507   5.545  10.216   4.114  0.4495  0.3396 -0.0098
  648MOL0     H85508   5.461  10.263   3.824  5.8016  2.8637 -0.4552
  648MOL0     H85509   5.343  10.285   3.959 -0.1009  1.2012  1.3884
  648MOL0     H85510   5.619  10.402   3.975  0.0056  1.3333 -1.2689
  648MOL0     H85511   5.480  10.456   4.053 -2.1546  1.0924  0.1598
  648MOL0     H85512   5.521  10.497   3.761  1.0380  0.7138  0.0992
  648MOL0     H85513   5.519  10.620   3.879 -1.3576  1.7971 -2.2333
  648MOL0     H85514   5.268  10.557   3.915 -0.4590  3.0377 -0.1409
  648MOL0     H85515   5.312  10.649   3.779 -2.1637  0.2405 -1.0277
  648MOL0     H85516   5.144  10.457   3.718  0.6954  0.5399  3.6225
  648MOL0     H85517   5.272  10.346   3.737  1.5923  0.0253  0.4903
  648MOL0     H85518   5.636   9.888   4.450 -0.0184 -0.5935  0.7046
  648MOL0     H85519   5.745   9.699   4.526 -5.0775  0.5430  0.9641
  648MOL0     H85520   5.850   9.234   4.346 -0.3963 -0.5113  0.6786
  648MOL0     H85521   5.923   9.026   4.395  2.3537 -0.5720 -1.4785
  648MOL0     H85522   5.083   7.813   5.235  0.3333 -0.0703  2.3365
  648MOL0     H85523   5.037   7.721   5.452  0.2259 -2.7828 -1.1294
  648MOL0     H85524   4.805   7.387   5.638  1.3785 -0.6724  2.0761
  648MOL0     H85525   4.734   7.216   5.787 -0.8445 -0.0258  1.7839
  648MOL0     H85526   4.678   7.220   6.086 -2.8808  0.3926  2.5868
  648MOL0     H85527   4.669   7.074   5.975  0.5557  1.4428 -2.5997
  648MOL0     H85528   4.491   6.986   6.131  1.5750 -0.4857 -0.4438
  648MOL0     H85529   4.633   7.011   6.216 -2.5141 -2.6042  1.9560
  648MOL0     H85530   4.433   7.074   6.340 -2.8187 -0.8227 -1.9785
  648MOL0     H85531   4.364   7.167   6.221  0.9019 -0.3922 -0.4086
  648MOL0     H85532   4.604   7.281   6.358  1.2077 -0.0343 -1.0360
  648MOL0     H85533   4.548   7.340   6.217  3.4460 -0.8321  1.9805
  648MOL0     H85534   4.225   7.474   6.461  0.2666 -0.1853 -1.1698
  648MOL0     H85535   4.424   7.439   5.940 -0.8770 -2.0618 -2.2375
  648MOL0     H85536   4.484   7.636   5.789 -0.0374  0.5392 -0.2693
  649MOL0     O85537   4.427   4.069   5.922  0.1241 -0.0939  0.4009
  649MOL0     C85538   4.392   4.155   6.010  0.2258 -0.2192 -0.7228
  649MOL0     O85539   4.351   4.131   6.145 -0.4644  0.1665  0.5145
  649MOL0     C85540   4.349   4.010   6.209  0.3116 -0.2405 -1.0329
  649MOL0     C85541   4.415   3.894   6.169 -0.0716  0.3096  0.7452
  649MOL0     C85542   4.404   3.779   6.252  0.7655  0.2902 -0.2067
  649MOL0     C85543   4.341   3.787   6.376 -0.5898  0.1658 -1.6325
  649MOL0     O85544   4.350   3.680   6.462 -0.5787 -0.6000 -0.3036
  649MOL0     C85545   4.480   3.629   6.497 -0.9366  1.6907  0.0117
  649MOL0     C85546   4.477   3.560   6.636 -0.1722 -0.4203  0.9950
  649MOL0     C85547   4.614   3.491   6.664 -0.3082  0.0497 -0.1970
  649MOL0     C85548   4.613   3.438   6.813 -0.4931 -0.0458 -0.3422
  649MOL0     C85549   4.715   3.320   6.828  0.1118 -0.1213  0.0020
  649MOL0     C85550   4.865   3.339   6.818 -0.4517  0.4041 -0.0206
  649MOL0     C85551   4.929   3.213   6.880  0.4150 -0.8594 -0.0353
  649MOL0     C85552   4.920   3.222   7.032  0.1711  0.7145 -0.9191
  649MOL0     N85553   4.960   3.092   7.076  0.3314 -0.4073  0.1660
  649MOL0     C85554   4.873   2.981   7.092 -0.2263 -0.1933 -0.8842
  649MOL0     C85555   4.966   2.891   7.137 -0.4293 -0.3491 -0.1177
  649MOL0     C85556   4.921   2.746   7.169  0.1576 -0.5733  0.4940
  649MOL0     C85557   4.996   2.674   7.279 -0.2427  0.1104  0.5910
  649MOL0     C85558   4.991   2.745   7.418 -0.4762  0.3236 -0.2480
  649MOL0     C85559   4.852   2.770   7.483  0.2677  0.6855 -0.1238
  649MOL0     O85560   4.875   2.857   7.595 -0.3596 -0.2482 -0.1158
  649MOL0     C85561   4.771   2.926   7.632  0.2837 -1.1270 -0.0590
  649MOL0     C85562   4.650   2.867   7.676 -0.4820  0.8583  1.5421
  649MOL0     C85563   4.551   2.951   7.718  1.4689 -0.6831  0.1375
  649MOL0     C85564   4.561   3.087   7.719  0.0886  0.6865  1.5176
  649MOL0     C85565   4.462   3.155   7.784 -0.4387  0.0294 -0.0113
  649MOL0     O85566   4.488   3.283   7.808 -0.3684 -0.0105  0.1312
  649MOL0     C85567   4.406   3.357   7.882  0.0204 -0.1484 -0.3513
  649MOL0     C85568   4.421   3.374   8.015 -0.5677  0.4237 -0.3138
  649MOL0     C85569   4.330   3.440   8.102  0.2237 -0.1533 -0.0151
  649MOL0     C85570   4.205   3.486   8.040 -0.0440  0.3587  0.6096
  649MOL0     O85571   4.102   3.537   8.117 -0.4092 -0.9029  0.3555
  649MOL0     C85572   4.062   3.675   8.096 -0.7535 -0.7935  0.2634
  649MOL0     C85573   3.986   3.712   8.223  0.1799 -0.3308  0.4137
  649MOL0     C85574   4.055   3.678   8.360 -0.4909  0.1062 -0.0466
  649MOL0     C85575   4.202   3.726   8.363 -0.2507 -0.7722  0.2562
  649MOL0     C85576   4.264   3.713   8.500 -0.3675 -0.0189  0.0971
  649MOL0     C85577   4.418   3.741   8.496  1.0195  0.3724 -0.8034
  649MOL0     C85578   4.481   3.714   8.636  0.9696  0.4115 -0.4586
  649MOL0     C85579   4.627   3.751   8.638 -0.2907 -0.5175  0.3704
  649MOL0    Cl85580   4.724   3.611   8.727  0.3384 -0.0871  0.0008
  649MOL0     C85581   4.186   3.467   7.903 -0.0427 -0.0255  0.9463
  649MOL0     C85582   4.285   3.410   7.823 -0.3748 -0.2635 -0.3932
  649MOL0     O85583   4.366   3.096   7.832 -0.6393  0.1571  1.0983
  649MOL0     C85584   4.673   3.153   7.670 -0.8739  0.0886  0.5378
  649MOL0     C85585   4.778   3.072   7.626  1.4535 -0.5629  0.2675
  649MOL0     N85586   5.099   2.930   7.131 -0.2380  0.4855 -0.7190
  649MOL0     N85587   5.094   3.051   7.089  0.4248  0.8379 -0.8545
  649MOL0     C85588   4.284   3.900   6.416 -0.1621  0.3423  0.8687
  649MOL0     C85589   4.280   4.014   6.338 -0.6141 -0.0653 -0.1948
  649MOL0     C85590   4.383   4.289   5.953 -0.5252  1.0206 -0.0826
  649MOL0     C85591   4.346   4.401   6.037 -0.2427  0.7113 -0.4256
  649MOL0     C85592   4.328   4.528   5.980  0.6380 -0.0565 -0.4751
  649MOL0     C85593   4.345   4.546   5.839  0.2076  1.0794  0.0382
  649MOL0     O85594   4.333   4.679   5.800  0.5835  0.4925 -0.4096
  649MOL0     C85595   4.355   4.703   5.665  0.4070 -0.0698  0.7709
  649MOL0     C85596   4.316   4.846   5.624  0.9069 -0.2709  0.6048
  649MOL0     C85597   4.169   4.875   5.648 -0.2061 -0.2976 -0.1790
  649MOL0     C85598   4.126   5.020   5.613  0.4805 -0.3595 -0.0340
  649MOL0     C85599   4.121   5.043   5.462 -0.1641 -0.5841 -0.2811
  649MOL0     C85600   4.087   5.040   5.347 -0.3082  0.1040 -0.8618
  649MOL0     C85601   4.386   4.434   5.759 -0.9957  0.1732  0.7963
  649MOL0     C85602   4.411   4.313   5.822 -0.8852  0.3828  0.4385
  649MOL0     H85603   4.469   3.886   6.075 -0.4563 -1.0949  0.6101
  649MOL0     H85604   4.440   3.691   6.200 -1.6972  0.4792 -2.4691
  649MOL0     H85605   4.552   3.711   6.497 -1.0063  1.7637 -1.0041
  649MOL0     H85606   4.495   3.556   6.417 -1.6524 -1.4392  2.5427
  649MOL0     H85607   4.392   3.491   6.641 -0.9096  0.3143 -0.5417
  649MOL0     H85608   4.458   3.641   6.706  1.5371  0.7903  0.1272
  649MOL0     H85609   4.697   3.562   6.657 -0.6908  0.3772 -1.8665
  649MOL0     H85610   4.640   3.412   6.594  0.5746 -1.3615  1.6261
  649MOL0     H85611   4.652   3.509   6.886 -2.5771  0.3588  0.4239
  649MOL0     H85612   4.514   3.394   6.827 -1.0559  1.7064  1.7233
  649MOL0     H85613   4.680   3.250   6.752  2.9326 -1.0821 -0.5376
  649MOL0     H85614   4.697   3.284   6.929 -1.2199 -0.0335 -0.1912
  649MOL0     H85615   4.903   3.424   6.876  2.9605  0.5094 -2.1291
  649MOL0     H85616   4.887   3.344   6.711 -3.6147 -0.2953 -0.8130
  649MOL0     H85617   4.863   3.130   6.851 -0.9938 -0.2329  1.2148
  649MOL0     H85618   5.033   3.199   6.850  0.3991 -4.2321  1.0319
  649MOL0     H85619   4.819   3.250   7.064  0.1289 -1.6510  1.4208
  649MOL0     H85620   4.996   3.292   7.066  1.6905 -1.9315  1.6292
  649MOL0     H85621   4.766   2.973   7.076 -0.9645 -0.2380  3.1150
  649MOL0     H85622   4.927   2.682   7.080  1.4219 -1.3301  1.0907
  649MOL0     H85623   4.816   2.764   7.191  0.2198  1.9359 -0.8333
  649MOL0     H85624   5.101   2.680   7.248 -0.1888 -1.1983  0.4701
  649MOL0     H85625   4.966   2.570   7.290  0.7666 -0.6036 -2.3804
  649MOL0     H85626   5.057   2.679   7.476  0.9910  0.2516 -1.8771
  649MOL0     H85627   5.040   2.842   7.407  0.8879 -0.3060  0.0287
  649MOL0     H85628   4.827   2.671   7.521 -1.1483  0.6021 -1.2067
  649MOL0     H85629   4.773   2.794   7.411 -0.5944  2.9866  1.4728
  649MOL0     H85630   4.646   2.759   7.687 -1.5049  1.0914  4.6472
  649MOL0     H85631   4.470   2.895   7.762 -1.7563  0.9923 -3.1372
  649MOL0     H85632   4.516   3.335   8.050 -0.8231 -2.1051 -2.1854
  649MOL0     H85633   4.361   3.464   8.203 -0.0225 -0.2693  0.0897
  649MOL0     H85634   4.007   3.683   8.002  0.6850 -1.4411 -0.6648
  649MOL0     H85635   4.154   3.733   8.085 -0.6316 -0.8158  1.1007
  649MOL0     H85636   3.900   3.645   8.219  0.2365 -0.3610 -0.6065
  649MOL0     H85637   3.948   3.815   8.223  2.5488  0.6477 -1.4255
  649MOL0     H85638   4.053   3.570   8.374  2.0140 -0.2383 -1.8214
  649MOL0     H85639   4.001   3.718   8.448  1.2456  2.5109  0.0391
  649MOL0     H85640   4.256   3.651   8.304  1.2936  1.5175 -1.4324
  649MOL0     H85641   4.219   3.821   8.312  1.9208 -2.1969 -1.9424
  649MOL0     H85642   4.252   3.614   8.547  2.2480 -0.4540 -0.0005
  649MOL0     H85643   4.206   3.777   8.568  0.2502 -0.9127  1.5205
  649MOL0     H85644   4.425   3.848   8.474  0.4409 -0.0782 -3.4869
  649MOL0     H85645   4.476   3.682   8.426 -0.4212 -2.1888  0.0338
  649MOL0     H85646   4.420   3.756   8.716  0.2614  0.1485 -0.8599
  649MOL0     H85647   4.467   3.608   8.656  0.8168  0.2361 -1.4603
  649MOL0     H85648   4.647   3.844   8.691 -1.2242  0.2034 -0.5064
  649MOL0     H85649   4.670   3.772   8.540  3.1022  3.7065  2.4446
  649MOL0     H85650   4.092   3.494   7.857  0.8713 -0.6842 -1.4975
  649MOL0     H85651   4.261   3.405   7.717 -2.9612  0.0356  0.1000
  649MOL0     H85652   4.697   3.257   7.691 -0.8312 -0.3715  3.0490
  649MOL0     H85653   4.867   3.128   7.597  1.0437  0.6246  1.2372
  649MOL0     H85654   4.240   3.900   6.515 -3.9671 -0.6654 -0.6572
  649MOL0     H85655   4.246   4.111   6.371  2.2033  0.8670  0.2396
  649MOL0     H85656   4.337   4.393   6.145  3.7953  0.3552  0.0157
  649MOL0     H85657   4.283   4.612   6.032 -0.1531 -0.2551 -0.8265
  649MOL0     H85658   4.301   4.633   5.601  0.5337  1.0847 -0.6657
  649MOL0     H85659   4.461   4.680   5.652 -0.3872 -2.6773 -2.3060
  649MOL0     H85660   4.382   4.898   5.693  2.2369  0.2356 -1.0029
  649MOL0     H85661   4.332   4.870   5.519 -2.8593  2.0311  0.3610
  649MOL0     H85662   4.151   4.864   5.756 -1.5919 -1.1048 -0.4743
  649MOL0     H85663   4.116   4.803   5.585  0.9852  0.6284 -2.3361
  649MOL0     H85664   4.023   5.032   5.645  0.6074 -1.0608  0.6848
  649MOL0     H85665   4.195   5.093   5.657 -0.2628 -0.7414  1.8863
  649MOL0     H85666   4.061   5.032   5.243 -1.3860  1.0986 -0.6900
  649MOL0     H85667   4.413   4.447   5.655  0.6968  2.1905  1.4212
  649MOL0     H85668   4.450   4.224   5.773  0.1710 -0.2934  2.3872
  650MOL0     O85669   2.655   3.052  11.227  0.3760  0.9875  0.6737
  650MOL0     C85670   2.599   3.106  11.138 -0.2852 -0.3941 -0.0956
  650MOL0     O85671   2.571   3.242  11.130  0.1471  0.2049 -0.1797
  650MOL0     C85672   2.605   3.330  11.232 -0.6608  0.2562 -0.0297
  650MOL0     C85673   2.519   3.440  11.251  0.2056  0.1259 -1.1357
  650MOL0     C85674   2.548   3.540  11.350  0.5699  0.0102 -0.1503
  650MOL0     C85675   2.657   3.518  11.435  0.1067  0.2911  0.6762
  650MOL0     O85676   2.679   3.606  11.542 -0.3044  0.1379 -0.1132
  650MOL0     C85677   2.772   3.559  11.648  0.1146 -0.1186  0.3467
  650MOL0     C85678   2.762   3.642  11.778  0.5011  0.4117 -0.0842
  650MOL0     C85679   2.771   3.801  11.741 -0.0365  0.7678  0.6322
  650MOL0     C85680   2.899   3.835  11.664  0.2674  0.1377 -0.3834
  650MOL0     C85681   2.955   3.964  11.696 -0.3798  0.5436 -0.3049
  650MOL0     C85682   2.884   4.080  11.652  0.1849 -0.1165  0.0024
  650MOL0     C85683   2.955   4.220  11.660  0.2256  0.0305  0.3268
  650MOL0     C85684   2.979   4.262  11.809 -0.6231 -0.1808 -0.0537
  650MOL0     N85685   3.007   4.405  11.820  0.8300  0.2419  0.5851
  650MOL0     C85686   3.110   4.469  11.887 -0.1149 -0.2160  0.1825
  650MOL0     C85687   3.113   4.599  11.859 -0.4950 -0.5733  0.0485
  650MOL0     C85688   3.221   4.702  11.899 -0.6084  0.9140 -0.4247
  650MOL0     C85689   3.341   4.711  11.811 -0.1791  0.7706 -0.4579
  650MOL0     C85690   3.320   4.803  11.693 -0.0660  0.0407  0.1605
  650MOL0     C85691   3.322   4.955  11.709  1.5336  1.3189  0.1331
  650MOL0     O85692   3.179   5.002  11.727 -0.5022 -0.2360  0.8368
  650MOL0     C85693   3.089   5.019  11.621 -0.1898 -0.2091  0.1551
  650MOL0     C85694   3.109   4.998  11.482 -0.1260  0.3236  0.3431
  650MOL0     C85695   3.001   5.007  11.390  0.3568 -0.6994  0.4212
  650MOL0     C85696   2.875   5.033  11.432  0.6353  0.6462 -1.9921
  650MOL0     C85697   2.760   5.026  11.334  0.1949  0.1474 -0.1837
  650MOL0     O85698   2.636   5.045  11.385  1.0695  0.1107  0.2565
  650MOL0     C85699   2.518   5.042  11.310  0.4802  0.5079  0.0179
  650MOL0     C85700   2.412   5.108  11.367  0.0301  0.3799 -0.0908
  650MOL0     C85701   2.282   5.115  11.311  0.4722 -0.2463  1.0952
  650MOL0     C85702   2.255   5.047  11.191 -0.1842  0.7765  0.1709
  650MOL0     O85703   2.137   5.072  11.149 -0.2443 -0.4452  0.6610
  650MOL0     C85704   2.148   5.158  11.031  0.2558  0.2241 -0.0896
  650MOL0     C85705   2.014   5.230  10.998 -0.1833  0.3620  0.6428
  650MOL0     C85706   1.976   5.336  11.105 -0.6272  0.3264 -0.1806
  650MOL0     C85707   1.840   5.403  11.077 -0.3112 -0.9098  0.0465
  650MOL0     C85708   1.779   5.496  11.171 -0.1392  0.6075 -0.0189
  650MOL0     C85709   1.639   5.554  11.107 -0.8106 -0.0543  0.1659
  650MOL0     C85710   1.517   5.471  11.163 -0.0223 -0.9842 -0.2662
  650MOL0     C85711   1.505   5.504  11.314 -0.0692 -0.3322 -0.3493
  650MOL0    Cl85712   1.347   5.440  11.393 -0.1981  0.4495  0.0533
  650MOL0     C85713   2.358   4.965  11.142 -0.6831 -0.3837  0.2843
  650MOL0     C85714   2.489   4.974  11.195  0.0122  0.4810  0.0139
  650MOL0     O85715   2.781   5.010  11.214 -0.7232  0.4413  0.5205
  650MOL0     C85716   2.851   5.050  11.567 -0.5144 -0.6058 -0.0211
  650MOL0     C85717   2.957   5.042  11.658  0.0553 -0.0661 -0.6152
  650MOL0     N85718   2.995   4.623  11.783  0.0614 -0.3604  0.1542
  650MOL0     N85719   2.936   4.509  11.767 -0.1501  1.4235 -0.8507
  650MOL0     C85720   2.742   3.405  11.413 -0.2011  0.1153  0.2572
  650MOL0     C85721   2.713   3.313  11.316 -0.4734  0.3523 -0.7364
  650MOL0     C85722   2.527   3.019  11.047 -0.8257  0.3781  0.9977
  650MOL0     C85723   2.595   2.924  10.971  0.3810 -0.1017  0.1890
  650MOL0     C85724   2.525   2.866  10.868 -0.6812 -0.0139 -0.0673
  650MOL0     C85725   2.396   2.887  10.835 -0.0246  0.2982 -0.2622
  650MOL0     O85726   2.358   2.809  10.731  0.4061  0.0905 -0.2193
  650MOL0     C85727   2.213   2.825  10.704 -0.2152  0.1587 -0.4597
  650MOL0     C85728   2.177   2.741  10.581  1.7084 -0.6039  0.2499
  650MOL0     C85729   2.231   2.604  10.585  0.3615 -0.5070 -0.7497
  650MOL0     C85730   2.162   2.518  10.491  0.6821 -0.7357  0.4040
  650MOL0     C85731   2.176   2.557  10.350 -0.0205 -0.6330 -0.5876
  650MOL0     C85732   2.195   2.597  10.238 -1.4382 -0.2396 -0.3824
  650MOL0     C85733   2.330   2.978  10.921  1.1195 -0.3088 -0.0835
  650MOL0     C85734   2.391   3.045  11.025 -1.3171  0.5373  0.4908
  650MOL0     H85735   2.424   3.453  11.201 -0.5402  0.1712  0.2487
  650MOL0     H85736   2.494   3.634  11.347  0.0757 -0.2811 -3.2512
  650MOL0     H85737   2.869   3.562  11.596 -0.8883  1.3515 -1.5161
  650MOL0     H85738   2.754   3.455  11.679  0.5452 -0.0897  0.7141
  650MOL0     H85739   2.835   3.617  11.856  1.4770  1.2637 -0.6940
  650MOL0     H85740   2.662   3.621  11.817  0.9421 -0.8170  0.4345
  650MOL0     H85741   2.784   3.854  11.836  2.0529  1.4598  0.0007
  650MOL0     H85742   2.682   3.850  11.700 -0.4197  0.6541  1.3095
  650MOL0     H85743   2.977   3.769  11.702 -0.3362 -1.2555 -1.4788
  650MOL0     H85744   2.881   3.808  11.560 -1.2239  0.7070 -0.2947
  650MOL0     H85745   3.053   3.976  11.649 -1.3765 -0.6796 -2.9218
  650MOL0     H85746   2.964   3.971  11.804 -0.8995  3.1929 -0.3581
  650MOL0     H85747   2.787   4.084  11.704 -1.0319 -0.5970 -2.0972
  650MOL0     H85748   2.851   4.060  11.550 -0.5264  2.8245 -0.4187
  650MOL0     H85749   3.053   4.222  11.611  0.2650 -0.1114  0.4005
  650MOL0     H85750   2.888   4.297  11.620  2.0274  0.5466 -1.9496
  650MOL0     H85751   3.051   4.200  11.863 -0.5497 -3.2163 -3.2282
  650MOL0     H85752   2.884   4.248  11.861  1.0907 -4.1856  2.5012
  650MOL0     H85753   3.179   4.400  11.935  1.3931 -0.1747 -1.8170
  650MOL0     H85754   3.227   4.681  12.006  0.0696 -1.2860 -0.8439
  650MOL0     H85755   3.167   4.797  11.890 -3.9625 -0.7727  0.3875
  650MOL0     H85756   3.377   4.611  11.786 -4.0756 -1.3018  1.5028
  650MOL0     H85757   3.414   4.763  11.875 -0.8364 -1.6781  2.4953
  650MOL0     H85758   3.403   4.784  11.625  0.0412  1.9065 -0.2875
  650MOL0     H85759   3.232   4.771  11.636  1.2576 -2.5035 -0.5982
  650MOL0     H85760   3.376   4.993  11.621  2.2083  1.5436  0.6334
  650MOL0     H85761   3.381   4.977  11.798 -1.0436 -1.9078  2.9163
  650MOL0     H85762   3.210   4.966  11.458 -0.9736 -1.9503 -0.4226
  650MOL0     H85763   3.037   4.991  11.288 -0.8152 -1.1044  0.0442
  650MOL0     H85764   2.422   5.170  11.455  0.2712 -0.9325  0.8446
  650MOL0     H85765   2.202   5.181  11.345 -0.4697  0.1521 -1.6592
  650MOL0     H85766   2.194   5.103  10.948  2.3504 -1.0403  1.7929
  650MOL0     H85767   2.213   5.241  11.060  1.3755 -1.5473  2.8659
  650MOL0     H85768   1.932   5.158  11.004 -2.1279  2.5990  3.4201
  650MOL0     H85769   2.028   5.275  10.899 -0.2259 -1.7127 -0.3639
  650MOL0     H85770   2.059   5.405  11.124  0.4017 -1.3117  1.6192
  650MOL0     H85771   1.974   5.282  11.201 -3.0977 -0.9178 -0.8445
  650MOL0     H85772   1.853   5.455  10.982  0.7899 -2.0608 -0.4661
  650MOL0     H85773   1.767   5.322  11.065  0.5893 -1.6394 -0.5613
  650MOL0     H85774   1.847   5.581  11.182 -0.9832  1.0971  1.8293
  650MOL0     H85775   1.769   5.443  11.266 -1.4523 -0.3369 -0.6514
  650MOL0     H85776   1.640   5.548  10.998  3.1082 -2.9004  0.1075
  650MOL0     H85777   1.627   5.659  11.135  0.8766  1.0882 -2.9297
  650MOL0     H85778   1.428   5.498  11.105  1.1996 -1.3134 -2.3690
  650MOL0     H85779   1.544   5.365  11.163 -0.3401 -1.0749 -1.0554
  650MOL0     H85780   1.492   5.612  11.325 -3.1561 -0.3617 -2.4131
  650MOL0     H85781   1.594   5.456  11.355  2.9100  3.0325 -2.3648
  650MOL0     H85782   2.352   4.925  11.042 -1.0745  4.1903 -1.7946
  650MOL0     H85783   2.559   4.914  11.138 -1.0137 -1.6436  0.8591
  650MOL0     H85784   2.751   5.063  11.605 -1.3753  2.0023 -2.8647
  650MOL0     H85785   2.933   5.041  11.764  2.7436  0.2203  0.0752
  650MOL0     H85786   2.822   3.380  11.482 -0.1527  0.7803  0.4469
  650MOL0     H85787   2.778   3.225  11.309 -2.5817 -1.5951  1.9273
  650MOL0     H85788   2.701   2.904  10.981  0.2799 -0.5290  0.4233
  650MOL0     H85789   2.567   2.797  10.795  1.1893  0.4568  0.4928
  650MOL0     H85790   2.177   2.928  10.698  0.0385  0.3007  0.4144
  650MOL0     H85791   2.164   2.774  10.787 -0.2533  1.0484  0.0719
  650MOL0     H85792   2.068   2.743  10.567  1.8639  0.9046 -0.9971
  650MOL0     H85793   2.213   2.792  10.491  0.5798 -0.9361 -0.4113
  650MOL0     H85794   2.209   2.557  10.681 -1.8957  1.3568 -0.2680
  650MOL0     H85795   2.337   2.593  10.560 -0.1973 -3.5006 -2.3329
  650MOL0     H85796   2.200   2.416  10.501  0.2825 -0.7026  2.8429
  650MOL0     H85797   2.055   2.514  10.516  0.5295  1.8166  0.4689
  650MOL0     H85798   2.229   2.638  10.145  2.7826  0.7019  1.3313
  650MOL0     H85799   2.221   2.975  10.918  1.0116  1.8708  0.0625
  650MOL0     H85800   2.342   3.117  11.090  0.0398  2.7457 -0.8136
  651MOL0     O85801   8.237   1.721   4.089  0.1502 -0.4927  0.2611
  651MOL0     C85802   8.133   1.688   4.034 -1.7138  0.7262 -0.4671
  651MOL0     O85803   8.080   1.741   3.929 -0.1489  0.2791 -0.2789
  651MOL0     C85804   8.115   1.870   3.922 -0.3425 -1.0399  0.0707
  651MOL0     C85805   8.237   1.917   3.865  1.0374  0.7535 -0.3741
  651MOL0     C85806   8.263   2.054   3.859  0.2079  0.4556  0.3883
  651MOL0     C85807   8.170   2.149   3.904  0.2067 -0.6289 -0.4639
  651MOL0     O85808   8.190   2.285   3.905 -0.5131  0.3355  0.4028
  651MOL0     C85809   8.326   2.343   3.916 -0.0737 -0.1094  0.4031
  651MOL0     C85810   8.321   2.483   3.986  1.5830  0.4426 -0.6441
  651MOL0     C85811   8.462   2.538   4.025 -0.2956  0.1015  0.4378
  651MOL0     C85812   8.438   2.645   4.125 -0.7081 -1.1963  0.4227
  651MOL0     C85813   8.360   2.752   4.053 -0.0351 -0.7570  0.2134
  651MOL0     C85814   8.385   2.884   4.126 -0.2027  0.8449 -1.0260
  651MOL0     C85815   8.293   2.992   4.057 -0.0654  0.5055  0.0989
  651MOL0     C85816   8.352   3.034   3.916 -0.4342  0.3732  0.2122
  651MOL0     N85817   8.243   3.048   3.826 -0.1192 -0.7113 -0.5511
  651MOL0     C85818   8.151   3.154   3.835 -0.1274  0.5511 -1.1177
  651MOL0     C85819   8.075   3.125   3.725  0.5735 -0.0202 -0.1655
  651MOL0     C85820   7.956   3.193   3.671  0.7969 -0.2868  0.1269
  651MOL0     C85821   7.968   3.303   3.560  0.1236 -0.9761 -0.4392
  651MOL0     C85822   7.997   3.273   3.408 -0.2092 -0.4664  0.6603
  651MOL0     C85823   7.911   3.371   3.316 -0.3327 -0.3972 -0.1416
  651MOL0     O85824   7.961   3.503   3.343  0.5414  0.6722  0.6206
  651MOL0     C85825   8.086   3.538   3.300  0.2449  0.8141  0.1183
  651MOL0     C85826   8.166   3.459   3.215  0.6214  0.2954 -0.9512
  651MOL0     C85827   8.288   3.503   3.167 -0.8130  0.6640  0.2968
  651MOL0     C85828   8.346   3.625   3.214 -0.2547  0.1402  0.3715
  651MOL0     C85829   8.487   3.664   3.176 -0.2242  0.3519  0.6736
  651MOL0     O85830   8.547   3.569   3.092  0.1793  0.0285  0.5287
  651MOL0     C85831   8.685   3.573   3.083  0.6125 -1.3489  0.1598
  651MOL0     C85832   8.743   3.454   3.080  0.1472 -0.0589  0.6255
  651MOL0     C85833   8.882   3.433   3.055 -0.7004 -0.2631 -0.3667
  651MOL0     C85834   8.967   3.540   3.039  0.5983 -0.1397 -0.3228
  651MOL0     O85835   9.100   3.530   3.009  0.1058  0.0191  0.1674
  651MOL0     C85836   9.150   3.407   2.954 -0.1403 -0.0477  0.0598
  651MOL0     C85837   9.286   3.427   2.883 -0.7447 -0.1022 -0.0295
  651MOL0     C85838   9.321   3.303   2.800  0.4252 -1.1343 -0.6457
  651MOL0     C85839   9.468   3.306   2.748 -0.1263 -0.3590 -0.3114
  651MOL0     C85840   9.497   3.230   2.631  0.6708  0.8088 -0.6329
  651MOL0     C85841   9.652   3.243   2.618  0.5005 -0.1175 -0.0191
  651MOL0     C85842   9.682   3.133   2.515  0.3724  0.8225  0.0745
  651MOL0     C85843   9.823   3.139   2.475  0.3177  0.9970 -1.1914
  651MOL0    Cl85844   9.931   3.099   2.614  0.0344 -0.6114 -0.2195
  651MOL0     C85845   8.917   3.671   3.035 -1.4303  0.4213  0.0088
  651MOL0     C85846   8.770   3.685   3.062 -0.6301  0.1158  0.8615
  651MOL0     O85847   8.521   3.783   3.188  0.1649  0.3893 -0.8803
  651MOL0     C85848   8.265   3.693   3.310 -1.1587 -0.2370 -0.8530
  651MOL0     C85849   8.141   3.656   3.348  1.3925 -0.6126  0.8121
  651MOL0     N85850   8.126   3.006   3.658 -0.5446  0.2454  0.2377
  651MOL0     N85851   8.214   2.949   3.738 -0.6331  0.1336  0.6889
  651MOL0     C85852   8.050   2.100   3.963 -0.5081  0.3281 -0.3362
  651MOL0     C85853   8.025   1.963   3.973  0.0782  0.2422 -0.1384
  651MOL0     C85854   8.074   1.559   4.076  0.6454 -0.6440 -0.0617
  651MOL0     C85855   8.102   1.510   4.200 -1.1287 -0.1490  0.6496
  651MOL0     C85856   8.043   1.390   4.235 -0.9056 -0.6094  0.5498
  651MOL0     C85857   7.972   1.307   4.151 -0.0366  0.4090  0.1217
  651MOL0     O85858   7.907   1.194   4.202  0.2249 -0.4466 -0.0607
  651MOL0     C85859   7.937   1.072   4.129  0.5905  0.6189 -1.2296
  651MOL0     C85860   7.930   0.957   4.228 -0.1933  0.3613  0.0614
  651MOL0     C85861   8.041   0.967   4.334  0.3464  0.0960 -0.4602
  651MOL0     C85862   8.044   0.834   4.422  0.0653  0.5074 -0.1867
  651MOL0     C85863   7.948   0.838   4.534  0.9621 -0.1028  0.7551
  651MOL0     C85864   7.863   0.862   4.616 -0.1498  1.9418 -0.2038
  651MOL0     C85865   7.928   1.368   4.037 -0.2992 -0.4565 -0.0803
  651MOL0     C85866   7.995   1.479   3.992  1.3164  0.6095  0.0512
  651MOL0     H85867   8.311   1.840   3.847 -1.0399 -1.5949  0.6560
  651MOL0     H85868   8.356   2.090   3.815  1.0820 -1.5696  0.4651
  651MOL0     H85869   8.370   2.346   3.816 -3.2585  0.9956 -1.1295
  651MOL0     H85870   8.388   2.282   3.982  0.6605  2.2842  2.0870
  651MOL0     H85871   8.251   2.475   4.070 -2.4321  3.2199 -3.3585
  651MOL0     H85872   8.270   2.548   3.915 -0.1179  2.1507  1.9486
  651MOL0     H85873   8.503   2.569   3.928 -1.3474  2.2464  0.6152
  651MOL0     H85874   8.523   2.456   4.063  1.0189  1.3748  1.1308
  651MOL0     H85875   8.397   2.588   4.209 -2.7603 -0.2930  0.0913
  651MOL0     H85876   8.534   2.684   4.158 -0.8566 -0.5983  0.1700
  651MOL0     H85877   8.256   2.719   4.066  0.6120 -1.9240  3.7168
  651MOL0     H85878   8.384   2.764   3.947  0.8257 -0.3446  0.4432
  651MOL0     H85879   8.493   2.903   4.124  0.3152 -1.8458 -1.5830
  651MOL0     H85880   8.357   2.876   4.231 -1.2928  1.5410 -1.2429
  651MOL0     H85881   8.191   2.954   4.047 -0.3300  1.1367  0.3500
  651MOL0     H85882   8.291   3.083   4.117  2.5522  0.2555  0.7112
  651MOL0     H85883   8.421   2.961   3.874  1.6894  0.5311  3.0951
  651MOL0     H85884   8.391   3.136   3.923 -1.6769  0.8444  0.5665
  651MOL0     H85885   8.160   3.240   3.901  2.3056 -1.4509  1.3939
  651MOL0     H85886   7.907   3.245   3.753 -0.9632 -0.3607 -0.8276
  651MOL0     H85887   7.899   3.110   3.629 -0.1935  0.0952  0.6938
  651MOL0     H85888   8.046   3.364   3.605 -2.0110  0.7104  1.2200
  651MOL0     H85889   7.877   3.364   3.558  1.3453  0.9799  0.9273
  651MOL0     H85890   8.103   3.270   3.383 -0.6242  0.3266 -1.4106
  651MOL0     H85891   7.969   3.171   3.382  0.6803 -0.7315  0.7111
  651MOL0     H85892   7.806   3.373   3.344 -0.9223  2.3094 -2.1244
  651MOL0     H85893   7.909   3.352   3.209 -1.2678  0.2213 -0.2467
  651MOL0     H85894   8.125   3.372   3.164  0.4369 -1.2809  1.7042
  651MOL0     H85895   8.345   3.440   3.100 -0.8478 -0.1951  1.0562
  651MOL0     H85896   8.685   3.362   3.082  3.1751 -2.0943  0.9649
  651MOL0     H85897   8.925   3.334   3.062  1.7153  0.8244  1.9349
  651MOL0     H85898   9.086   3.362   2.878  0.8861  0.3441 -1.0670
  651MOL0     H85899   9.162   3.327   3.027 -2.9122 -2.4130 -1.8618
  651MOL0     H85900   9.356   3.436   2.967 -2.4963  2.1953  1.3157
  651MOL0     H85901   9.285   3.522   2.830  3.1544 -0.5125 -1.1653
  651MOL0     H85902   9.260   3.309   2.710  0.8066  1.1922 -0.8223
  651MOL0     H85903   9.294   3.215   2.859  0.2931  0.0373  1.1300
  651MOL0     H85904   9.496   3.410   2.731 -0.8415 -0.4999 -2.6993
  651MOL0     H85905   9.524   3.272   2.836  0.1790  1.6102  0.2961
  651MOL0     H85906   9.449   3.259   2.537  2.4403  0.6147 -1.6500
  651MOL0     H85907   9.460   3.127   2.634 -1.6976  1.5014 -2.7927
  651MOL0     H85908   9.704   3.227   2.713 -0.3156  0.9584  0.6248
  651MOL0     H85909   9.683   3.344   2.591  0.6565 -0.4990 -1.3914
  651MOL0     H85910   9.663   3.033   2.555  0.9976 -0.1744 -1.9812
  651MOL0     H85911   9.613   3.159   2.434 -1.1107  1.3439  1.4607
  651MOL0     H85912   9.853   3.238   2.440  0.9072  1.6997  1.1447
  651MOL0     H85913   9.849   3.067   2.396  0.5738 -0.6927  0.3572
  651MOL0     H85914   8.982   3.757   3.021  0.1738 -0.8397 -0.7100
  651MOL0     H85915   8.724   3.783   3.053 -0.4122  0.2527  1.2137
  651MOL0     H85916   8.310   3.782   3.353 -1.7087  0.4647 -1.6833
  651MOL0     H85917   8.080   3.702   3.425  0.9653 -2.1149  1.4164
  651MOL0     H85918   7.983   2.172   4.008 -0.8456 -0.5923  0.6872
  651MOL0     H85919   7.937   1.920   4.020  0.7546  0.1699  1.0994
  651MOL0     H85920   8.175   1.557   4.265 -3.6787  3.1861  1.3824
  651MOL0     H85921   8.060   1.350   4.335 -0.4251  0.3164  0.8494
  651MOL0     H85922   8.037   1.086   4.088  0.6444  0.9929 -0.9725
  651MOL0     H85923   7.867   1.050   4.048  1.8425 -0.2757 -2.1136
  651MOL0     H85924   7.830   0.944   4.270 -0.7818  4.0497  0.1384
  651MOL0     H85925   7.951   0.868   4.167 -1.9746 -0.4609  0.5776
  651MOL0     H85926   8.032   1.054   4.399  1.9625  0.8033 -1.1542
  651MOL0     H85927   8.144   0.973   4.300  1.9802 -2.4699  3.2842
  651MOL0     H85928   8.012   0.751   4.360  2.1854 -1.5213  1.2714
  651MOL0     H85929   8.140   0.813   4.468  0.4421  0.6153 -0.9117
  651MOL0     H85930   7.789   0.876   4.693  0.9618  0.2563  1.2574
  651MOL0     H85931   7.853   1.330   3.969  1.7997 -1.3921 -2.0191
  651MOL0     H85932   7.975   1.501   3.887 -1.1830 -2.5280 -0.2768
  652MOL0     O85933   3.365   2.627   1.187  0.5484  0.4186 -0.6286
  652MOL0     C85934   3.439   2.730   1.184  0.6778  0.0530 -0.3115
  652MOL0     O85935   3.561   2.746   1.242  0.4856  1.0331  0.2203
  652MOL0     C85936   3.628   2.645   1.318 -0.0447  0.2708 -0.2472
  652MOL0     C85937   3.619   2.511   1.306 -1.3018 -0.4898 -0.8217
  652MOL0     C85938   3.696   2.411   1.377  0.0693 -0.7345  0.2823
  652MOL0     C85939   3.774   2.461   1.470 -0.5259  0.0368 -0.4949
  652MOL0     O85940   3.857   2.374   1.543 -0.2009 -0.7917 -0.4660
  652MOL0     C85941   3.909   2.251   1.493  1.6442 -0.4729 -0.2506
  652MOL0     C85942   4.008   2.280   1.389  1.1104  0.6501 -0.2455
  652MOL0     C85943   4.122   2.379   1.429  0.6116  0.0614  0.0754
  652MOL0     C85944   4.247   2.352   1.342 -0.6688 -0.2617  1.0729
  652MOL0     C85945   4.342   2.471   1.366  0.8112  0.3389  0.1046
  652MOL0     C85946   4.347   2.545   1.504  0.8928  0.3209  0.0660
  652MOL0     C85947   4.475   2.627   1.523  0.4012  0.1455  0.0278
  652MOL0     C85948   4.485   2.737   1.410  0.2929 -0.0816 -1.1304
  652MOL0     N85949   4.529   2.865   1.465 -0.0849 -0.0037 -0.6077
  652MOL0     C85950   4.452   2.943   1.547  0.6645  0.4565 -0.7181
  652MOL0     C85951   4.525   3.053   1.569 -0.1320  0.2724 -0.4611
  652MOL0     C85952   4.488   3.164   1.685 -0.4813  0.4108 -0.1450
  652MOL0     C85953   4.457   3.098   1.824 -0.9768  0.0644 -0.5995
  652MOL0     C85954   4.576   3.017   1.867  1.1485 -0.2063 -0.2069
  652MOL0     C85955   4.574   2.957   2.010 -0.2295  0.1938  0.5321
  652MOL0     O85956   4.579   3.067   2.104  0.1495  0.2300  0.3554
  652MOL0     C85957   4.550   3.021   2.232 -0.4205  0.4964 -0.0464
  652MOL0     C85958   4.452   3.096   2.300 -0.5709  0.7791 -0.0586
  652MOL0     C85959   4.408   3.059   2.424  0.5014 -0.4300  1.1376
  652MOL0     C85960   4.470   2.939   2.483  0.7356  1.0818  0.2270
  652MOL0     C85961   4.398   2.889   2.609  0.8738 -0.1465 -0.2120
  652MOL0     O85962   4.289   2.961   2.662 -0.2111  1.0001  1.3356
  652MOL0     C85963   4.229   2.920   2.781 -0.3482  0.0985  0.9767
  652MOL0     C85964   4.287   2.841   2.881  0.7069 -0.1411  0.0302
  652MOL0     C85965   4.222   2.820   3.003 -0.6480  0.9927 -0.1137
  652MOL0     C85966   4.092   2.863   3.034 -0.0188 -0.8860  0.4645
  652MOL0     O85967   4.036   2.860   3.162  0.3494  0.6939 -0.1636
  652MOL0     C85968   4.099   2.785   3.270  0.4064 -0.6973  0.0629
  652MOL0     C85969   4.001   2.777   3.397 -0.9610  0.1689 -0.3770
  652MOL0     C85970   4.054   2.708   3.521  0.1810  0.3102 -0.7906
  652MOL0     C85971   4.016   2.796   3.640  0.5802 -0.5300 -0.5582
  652MOL0     C85972   4.088   2.743   3.772  0.0332  0.6981  0.5430
  652MOL0     C85973   4.078   2.858   3.876  0.3528  1.0980  0.9474
  652MOL0     C85974   3.949   2.866   3.951 -0.0365  0.0740 -0.1460
  652MOL0     C85975   3.963   2.952   4.078 -0.9124  0.0718 -0.4352
  652MOL0    Cl85976   3.796   2.961   4.157  0.5512 -0.0631 -0.4167
  652MOL0     C85977   4.027   2.922   2.931  0.4418  0.0825  0.5204
  652MOL0     C85978   4.097   2.951   2.807 -0.0762 -0.2000  0.3189
  652MOL0     O85979   4.431   2.779   2.647 -0.1261  0.0445 -0.4105
  652MOL0     C85980   4.575   2.868   2.419  0.6824 -0.3646  0.2491
  652MOL0     C85981   4.611   2.907   2.292 -0.7836  0.4496  0.0864
  652MOL0     N85982   4.647   3.035   1.502 -1.0522 -0.6764 -0.7903
  652MOL0     N85983   4.653   2.925   1.437 -0.0694  0.5073 -0.5484
  652MOL0     C85984   3.787   2.602   1.490 -0.4267  0.3532 -0.4431
  652MOL0     C85985   3.719   2.691   1.414  0.4145  0.3127  0.4249
  652MOL0     C85986   3.397   2.826   1.079  0.9311  0.0352  0.5086
  652MOL0     C85987   3.284   2.790   1.001 -0.7611  0.4731  1.4863
  652MOL0     C85988   3.233   2.879   0.906  0.3117  0.6464 -0.1756
  652MOL0     C85989   3.280   3.011   0.899 -0.8772  0.4479 -0.3405
  652MOL0     O85990   3.210   3.117   0.848 -0.5826  0.1759  1.1167
  652MOL0     C85991   3.092   3.092   0.777  0.9835  0.5951 -0.0512
  652MOL0     C85992   2.991   3.200   0.823 -0.2070  0.1732 -0.5376
  652MOL0     C85993   2.960   3.179   0.966  0.2275  0.1985  0.0980
  652MOL0     C85994   2.864   3.281   1.010  0.2257  0.2596 -0.4163
  652MOL0     C85995   2.792   3.261   1.137  0.6777  0.1764 -0.4225
  652MOL0     C85996   2.722   3.253   1.234 -0.6727  0.4592  0.5423
  652MOL0     C85997   3.390   3.045   0.980 -0.0369 -0.4563  0.0312
  652MOL0     C85998   3.458   2.955   1.060 -0.0050 -0.5114 -0.0317
  652MOL0     H85999   3.539   2.475   1.242  0.8137 -4.2694 -1.5962
  652MOL0     H86000   3.680   2.305   1.358 -0.4175 -1.1552  2.7836
  652MOL0     H86001   3.825   2.183   1.474  0.9383  0.5413 -0.8726
  652MOL0     H86002   3.966   2.203   1.573  0.5192 -1.2438  0.1304
  652MOL0     H86003   3.947   2.318   1.307 -1.7398  2.0308  2.3021
  652MOL0     H86004   4.053   2.185   1.358  1.4437 -0.1273  2.3993
  652MOL0     H86005   4.154   2.376   1.533  1.0478  1.8592  0.0146
  652MOL0     H86006   4.089   2.483   1.424  2.6459  0.8518  1.7202
  652MOL0     H86007   4.294   2.254   1.358  1.1596  0.3785 -0.0762
  652MOL0     H86008   4.226   2.352   1.234  2.7076 -1.7784  0.2833
  652MOL0     H86009   4.326   2.543   1.286  2.8184  0.2296 -0.4409
  652MOL0     H86010   4.438   2.422   1.349  2.0957  1.9247  2.3064
  652MOL0     H86011   4.356   2.473   1.586  2.6393 -0.3415 -0.6752
  652MOL0     H86012   4.263   2.613   1.522  0.9275  0.2910  0.3431
  652MOL0     H86013   4.477   2.661   1.627 -1.7275 -1.8434  0.8177
  652MOL0     H86014   4.560   2.560   1.537 -0.3419 -0.3365  3.0457
  652MOL0     H86015   4.384   2.739   1.367 -0.1543 -1.2953 -0.2192
  652MOL0     H86016   4.552   2.700   1.332 -0.1695  1.7200 -2.4356
  652MOL0     H86017   4.357   2.909   1.589  2.2655 -1.2079  1.8716
  652MOL0     H86018   4.418   3.240   1.650 -0.1622  1.8911  2.2176
  652MOL0     H86019   4.584   3.214   1.699 -1.0435  1.6537 -0.5615
  652MOL0     H86020   4.362   3.044   1.818 -0.7606 -0.7656  2.1513
  652MOL0     H86021   4.443   3.177   1.899 -1.5331  0.5399 -1.1954
  652MOL0     H86022   4.570   2.925   1.807 -2.9120 -1.3428  1.5710
  652MOL0     H86023   4.669   3.071   1.849  0.9530  2.2417  4.5351
  652MOL0     H86024   4.656   2.886   2.027 -2.9790 -2.9438  1.5852
  652MOL0     H86025   4.482   2.903   2.033  1.1526 -0.8597  4.5017
  652MOL0     H86026   4.417   3.190   2.260  0.0021  1.0850  0.1561
  652MOL0     H86027   4.336   3.116   2.481 -1.1230 -2.8294  1.6110
  652MOL0     H86028   4.392   2.811   2.878  0.9636  0.8057 -0.9772
  652MOL0     H86029   4.282   2.762   3.072 -0.0396 -0.3578 -1.7020
  652MOL0     H86030   4.181   2.852   3.298  2.4480 -2.2081 -1.9512
  652MOL0     H86031   4.134   2.687   3.237 -0.8042 -1.1004 -0.0945
  652MOL0     H86032   3.916   2.716   3.365 -1.7843  2.5747 -3.2264
  652MOL0     H86033   3.954   2.869   3.433 -3.1216 -1.3299  0.8230
  652MOL0     H86034   4.163   2.706   3.514  0.3653 -1.3756  1.3705
  652MOL0     H86035   4.023   2.605   3.542 -2.9609  1.1731 -0.8001
  652MOL0     H86036   4.054   2.897   3.623 -3.0995  0.9649 -0.8357
  652MOL0     H86037   3.909   2.814   3.652  1.1430  2.4796  0.8213
  652MOL0     H86038   4.194   2.725   3.755 -0.2777  1.1476 -2.2271
  652MOL0     H86039   4.055   2.645   3.806  2.5312 -0.8679 -1.2669
  652MOL0     H86040   4.107   2.952   3.828  0.3893 -0.4836 -2.4088
  652MOL0     H86041   4.159   2.836   3.945  1.9944 -1.5408 -1.5912
  652MOL0     H86042   3.866   2.901   3.888  0.5236 -0.0446 -0.9697
  652MOL0     H86043   3.921   2.767   3.989 -0.4231 -0.1731 -1.0377
  652MOL0     H86044   3.997   3.056   4.068 -0.0593  0.0061  1.3934
  652MOL0     H86045   4.028   2.893   4.143 -0.3768  0.4552 -0.6184
  652MOL0     H86046   3.921   2.944   2.938 -0.0631 -0.8082 -2.7162
  652MOL0     H86047   4.055   3.015   2.730  1.6514  0.1550 -0.3883
  652MOL0     H86048   4.613   2.780   2.471 -0.6392  0.0487  1.9853
  652MOL0     H86049   4.691   2.861   2.235  0.0060  0.3347  1.2501
  652MOL0     H86050   3.858   2.636   1.565 -1.4962  0.5076  0.5228
  652MOL0     H86051   3.740   2.797   1.417 -0.4882  0.5140  0.1390
  652MOL0     H86052   3.249   2.687   1.006 -0.9386  0.4492  0.0641
  652MOL0     H86053   3.149   2.831   0.855  1.0586 -2.9849  1.6344
  652MOL0     H86054   3.045   2.993   0.785 -0.9752  1.5806  1.3524
  652MOL0     H86055   3.106   3.078   0.670 -1.9052  1.9609 -0.7200
  652MOL0     H86056   3.046   3.295   0.818  2.3122 -0.9846  2.1201
  652MOL0     H86057   2.907   3.209   0.754 -0.8736  1.0915  0.3733
  652MOL0     H86058   3.053   3.194   1.020  0.5447  3.1880 -1.0887
  652MOL0     H86059   2.919   3.077   0.964 -0.3807  0.3969 -2.9518
  652MOL0     H86060   2.903   3.382   1.026 -0.8936  0.4959  1.1374
  652MOL0     H86061   2.789   3.276   0.931  2.2342 -4.9928 -2.3632
  652MOL0     H86062   2.658   3.233   1.317  1.6073 -4.2136  1.4941
  652MOL0     H86063   3.418   3.149   0.976 -3.9623  0.7366 -3.4420
  652MOL0     H86064   3.547   3.004   1.097  0.5796  0.0137 -1.9958
  653MOL0     O86065   3.219  10.969   9.348 -0.2806 -0.8011 -0.0275
  653MOL0     C86066   3.271  10.864   9.389 -1.4420 -0.4048 -0.1633
  653MOL0     O86067   3.337  10.774   9.311 -0.2638 -1.3181 -0.1488
  653MOL0     C86068   3.376  10.811   9.189  0.4883  0.6292  0.8402
  653MOL0     C86069   3.478  10.898   9.163 -0.2567  1.2734  0.8325
  653MOL0     C86070   3.531  10.921   9.035 -0.2901 -0.2904  0.0521
  653MOL0     C86071   3.457  10.886   8.922 -1.0782  0.5462  0.5942
  653MOL0     O86072   3.490  10.926   8.795 -0.3073 -0.3110  0.0293
  653MOL0     C86073   3.518  10.814   8.707 -0.5436 -0.3572  0.2615
  653MOL0     C86074   3.558  10.853   8.564 -0.7450  0.0612  0.0736
  653MOL0     C86075   3.441  10.934   8.510 -0.9632 -0.0888 -0.4321
  653MOL0     C86076   3.422  10.954   8.368  1.0307 -0.2261 -0.6699
  653MOL0     C86077   3.264  10.979   8.336  0.1026 -0.9765  0.4459
  653MOL0     C86078   3.238  10.963   8.184 -1.3216  1.6972 -0.1019
  653MOL0     C86079   3.126  11.053   8.129  0.1316 -0.1054  0.8642
  653MOL0     C86080   2.985  11.017   8.195 -0.3319  0.0111  0.1483
  653MOL0     N86081   2.866  11.099   8.156  0.5318  0.2665 -0.4157
  653MOL0     C86082   2.857  11.233   8.144 -0.9848  0.1253  0.5028
  653MOL0     C86083   2.729  11.263   8.122  0.4385  0.7519 -0.2742
  653MOL0     C86084   2.680  11.401   8.142 -0.0103 -0.7345 -0.2659
  653MOL0     C86085   2.691  11.474   8.278 -0.2129 -1.0750 -0.9193
  653MOL0     C86086   2.653  11.388   8.408  0.8727  0.5399  0.6107
  653MOL0     C86087   2.679  11.472   8.536  0.0804  0.4493  0.0152
  653MOL0     O86088   2.589  11.585   8.524 -0.1551 -0.9795  0.4964
  653MOL0     C86089   2.557  11.651   8.647 -0.5301  0.0065 -0.0033
  653MOL0     C86090   2.450  11.740   8.653 -0.3980  0.8680  0.0233
  653MOL0     C86091   2.429  11.818   8.772  0.4254  1.2841  0.3737
  653MOL0     C86092   2.514  11.803   8.880  0.3966  0.1551  0.7913
  653MOL0     C86093   2.498  11.879   9.007  0.5853  0.6656  0.6884
  653MOL0     O86094   2.376  11.936   9.013  0.0181  0.2814  0.0776
  653MOL0     C86095   2.337  11.982   9.136  0.1315 -0.6364 -0.1483
  653MOL0     C86096   2.403  12.101   9.199  0.0185  1.2619  0.0634
  653MOL0     C86097   2.362  12.124   9.328 -0.3597 -0.7678 -0.2673
  653MOL0     C86098   2.266  12.062   9.401  1.1645 -0.2717  0.1922
  653MOL0     O86099   2.245  12.105   9.535  0.5863  0.1028 -0.3630
  653MOL0     C86100   2.220  12.013   9.638  0.2624  0.7980  0.5265
  653MOL0     C86101   2.094  12.060   9.720 -0.1379  0.0424 -0.7529
  653MOL0     C86102   1.962  12.049   9.643 -0.8175  0.1072  0.3494
  653MOL0     C86103   1.840  12.086   9.736  1.4888  0.6096  1.0173
  653MOL0     C86104   1.716  12.103   9.650  0.0966 -0.1623 -0.5009
  653MOL0     C86105   1.651  11.967   9.609  0.0124 -0.0493 -0.0266
  653MOL0     C86106   1.509  11.990   9.544 -0.3925  0.4458  0.4079
  653MOL0     C86107   1.452  11.848   9.526 -1.0550 -0.7123  0.9876
  653MOL0    Cl86108   1.287  11.857   9.484 -0.0217 -0.3279 -0.4020
  653MOL0     C86109   2.194  11.965   9.328 -0.2386  0.4786 -0.2741
  653MOL0     C86110   2.237  11.921   9.204 -0.2588  0.6940 -0.0230
  653MOL0     O86111   2.590  11.881   9.083  0.9004  0.0519  0.0647
  653MOL0     C86112   2.628  11.721   8.866  0.1314  0.6136  0.1266
  653MOL0     C86113   2.650  11.648   8.755 -0.1125  1.1784  0.2073
  653MOL0     N86114   2.650  11.147   8.138 -0.2865  0.3994 -0.0739
  653MOL0     N86115   2.739  11.050   8.145  0.7357 -0.1555  0.1099
  653MOL0     C86116   3.338  10.810   8.949  0.1320 -0.8111 -0.0905
  653MOL0     C86117   3.295  10.773   9.080 -0.0757  0.3116 -0.1653
  653MOL0     C86118   3.278  10.846   9.543  0.3551  1.0439  1.0262
  653MOL0     C86119   3.248  10.959   9.629  0.1599  0.6508 -0.1664
  653MOL0     C86120   3.235  10.942   9.766 -1.2686 -0.8054  0.9462
  653MOL0     C86121   3.252  10.816   9.823 -0.1306  0.7415  0.9708
  653MOL0     O86122   3.248  10.802   9.958 -0.2813  0.6096  0.0514
  653MOL0     C86123   3.116  10.835  10.009 -0.4859 -0.2363 -0.7600
  653MOL0     C86124   3.123  10.814  10.161  0.5347 -0.8936  0.0692
  653MOL0     C86125   3.155  10.663  10.203 -0.6297  0.6823  0.1326
  653MOL0     C86126   3.194  10.676  10.351 -0.2484 -0.2496 -0.1570
  653MOL0     C86127   3.182  10.536  10.413 -0.5854 -1.0309  0.4053
  653MOL0     C86128   3.189  10.435  10.483  0.2853 -0.7469  0.0911
  653MOL0     C86129   3.287  10.709   9.742  0.0454 -0.5553  0.1895
  653MOL0     C86130   3.303  10.726   9.604 -0.1933  0.4637  0.6208
  653MOL0     H86131   3.531  10.924   9.253 -2.7670  0.3581  2.6972
  653MOL0     H86132   3.614  10.991   9.025  1.4598 -1.9652  1.7912
  653MOL0     H86133   3.434  10.744   8.703  1.4675 -2.9175 -2.9639
  653MOL0     H86134   3.594  10.755   8.758  0.5717  1.4138  0.7373
  653MOL0     H86135   3.569  10.764   8.501  1.6089 -1.2121  2.0968
  653MOL0     H86136   3.642  10.922   8.553 -2.4672  2.3245  0.3633
  653MOL0     H86137   3.454  11.038   8.542  1.3589  0.3492 -2.4945
  653MOL0     H86138   3.346  10.892   8.544 -2.5612  1.6656 -2.4827
  653MOL0     H86139   3.490  11.032   8.331  2.0607 -1.3416 -1.1818
  653MOL0     H86140   3.440  10.854   8.328 -0.0722  0.1714 -2.2523
  653MOL0     H86141   3.249  11.081   8.371  4.2585  0.8173 -2.2431
  653MOL0     H86142   3.210  10.901   8.390  1.8039 -1.6616  1.2303
  653MOL0     H86143   3.206  10.860   8.163  0.9300  1.2479 -1.7369
  653MOL0     H86144   3.337  10.979   8.142  1.6660 -1.7572  4.5427
  653MOL0     H86145   3.159  11.153   8.156  2.5364 -1.3594  2.9499
  653MOL0     H86146   3.123  11.039   8.020 -0.4566 -1.2347  1.0058
  653MOL0     H86147   3.007  11.006   8.301  3.5850 -1.7300 -0.6625
  653MOL0     H86148   2.973  10.914   8.159  1.8479 -0.2704  0.1085
  653MOL0     H86149   2.931  11.309   8.165 -0.2901 -0.9863  2.3912
  653MOL0     H86150   2.573  11.403   8.121  0.4522  1.6233 -2.8321
  653MOL0     H86151   2.733  11.469   8.076  0.4336 -0.0920  0.7223
  653MOL0     H86152   2.628  11.563   8.273  0.2438 -0.5243  1.8279
  653MOL0     H86153   2.794  11.499   8.305 -0.6959 -0.9496  0.9376
  653MOL0     H86154   2.547  11.362   8.401  1.3130 -3.1273  3.9343
  653MOL0     H86155   2.706  11.293   8.409 -0.5839 -0.3249 -0.1899
  653MOL0     H86156   2.783  11.503   8.543 -0.2632  1.4882  0.6340
  653MOL0     H86157   2.666  11.406   8.622  0.9312  2.1014  1.4488
  653MOL0     H86158   2.390  11.761   8.565  2.8146  0.7612 -2.3328
  653MOL0     H86159   2.347  11.888   8.784 -2.5613 -2.0703  1.3714
  653MOL0     H86160   2.495  12.144   9.161 -0.6770  3.3676  0.6391
  653MOL0     H86161   2.414  12.210   9.369  1.4396 -1.1295 -1.6160
  653MOL0     H86162   2.310  11.997   9.697 -0.8662 -3.6517  1.4267
  653MOL0     H86163   2.209  11.914   9.593  3.4591  0.0605  1.1735
  653MOL0     H86164   2.111  12.166   9.738  0.7263  0.1230 -1.9618
  653MOL0     H86165   2.094  11.990   9.804 -1.0822 -1.5349 -1.9929
  653MOL0     H86166   1.964  11.944   9.613 -3.3289  0.0982  0.0229
  653MOL0     H86167   1.957  12.110   9.552 -1.4461 -0.9198 -0.3256
  653MOL0     H86168   1.829  12.026   9.827 -3.0714  0.8298  0.8153
  653MOL0     H86169   1.869  12.190   9.757  1.4501  1.8020 -3.6963
  653MOL0     H86170   1.739  12.166   9.564  0.6040 -2.0800 -1.8483
  653MOL0     H86171   1.642  12.160   9.707  0.3910 -1.1813  0.9439
  653MOL0     H86172   1.641  11.900   9.695 -1.1920 -2.4717 -1.9479
  653MOL0     H86173   1.706  11.911   9.533  3.4966  0.2482  2.0667
  653MOL0     H86174   1.434  12.041   9.606  0.0796 -1.7575  2.9315
  653MOL0     H86175   1.510  12.040   9.447 -0.3070 -0.1564  0.0995
  653MOL0     H86176   1.460  11.787   9.617  0.2744  1.3321  2.3324
  653MOL0     H86177   1.523  11.814   9.450  0.7662  3.3373  0.6172
  653MOL0     H86178   2.113  11.911   9.374  2.3869 -2.2625  1.5444
  653MOL0     H86179   2.179  11.839   9.163 -0.6212 -0.7507  3.0741
  653MOL0     H86180   2.692  11.712   8.953 -1.6916  0.1605  1.4833
  653MOL0     H86181   2.738  11.585   8.744 -1.1495 -0.1880 -0.4799
  653MOL0     H86182   3.279  10.778   8.864  0.0216  0.1407 -0.3809
  653MOL0     H86183   3.212  10.706   9.102  0.0189  1.1300  3.2647
  653MOL0     H86184   3.238  11.061   9.594 -1.8258  1.0258  1.2725
  653MOL0     H86185   3.214  11.028   9.828  0.5838 -0.5116  1.2006
  653MOL0     H86186   3.038  10.779   9.958 -2.5118  2.6621 -1.0829
  653MOL0     H86187   3.100  10.941   9.989 -2.3664  0.3964  3.1469
  653MOL0     H86188   3.197  10.881  10.206  1.5538 -1.8479 -0.1271
  653MOL0     H86189   3.032  10.852  10.207  1.6598  1.1595  0.6985
  653MOL0     H86190   3.238  10.622  10.146 -2.2507  0.2318 -2.0270
  653MOL0     H86191   3.064  10.603  10.198 -1.2243  1.6822 -1.8268
  653MOL0     H86192   3.294  10.720  10.359 -0.8320  0.8144  1.7712
  653MOL0     H86193   3.129  10.751  10.397  0.2257  1.2421 -1.7707
  653MOL0     H86194   3.200  10.355  10.553  0.4193  2.9905  4.8733
  653MOL0     H86195   3.317  10.619   9.795 -0.0951  0.1082  1.4297
  653MOL0     H86196   3.334  10.650   9.533 -2.8723 -0.2052  0.0849
  654MOL0     O86197   2.240   4.840  10.044  0.1608 -0.5055 -0.0874
  654MOL0     C86198   2.215   4.793  10.155 -0.9105 -0.2687  0.0047
  654MOL0     O86199   2.147   4.854  10.253  0.4310 -0.5058  0.5563
  654MOL0     C86200   2.061   4.963  10.215  0.3612  0.8982 -0.9077
  654MOL0     C86201   2.087   5.085  10.286  1.0707  0.8152  0.7480
  654MOL0     C86202   2.017   5.199  10.246 -0.3471  0.4106 -0.7970
  654MOL0     C86203   1.916   5.198  10.149  0.4785 -0.1492  0.2636
  654MOL0     O86204   1.852   5.309  10.112  0.4147  0.6164 -0.6004
  654MOL0     C86205   1.765   5.381  10.202 -0.2952  1.3186 -1.3024
  654MOL0     C86206   1.723   5.499  10.132 -0.1004  0.3728 -0.8537
  654MOL0     C86207   1.839   5.590  10.133  0.0544  0.3639  0.5947
  654MOL0     C86208   1.855   5.670  10.262  0.6405 -0.3211 -0.4314
  654MOL0     C86209   1.963   5.781  10.243  0.5668 -0.0835  0.1893
  654MOL0     C86210   2.003   5.859  10.368  0.2829 -0.1899  0.4433
  654MOL0     C86211   1.890   5.916  10.452  0.1120 -1.2159  0.1837
  654MOL0     C86212   1.796   6.016  10.376 -0.8188  0.3641 -1.5920
  654MOL0     N86213   1.722   6.094  10.483  0.0432 -0.1864  0.1085
  654MOL0     C86214   1.590   6.063  10.525 -0.6909 -0.0216  0.4011
  654MOL0     C86215   1.569   6.153  10.628 -0.0900 -0.1195  0.4402
  654MOL0     C86216   1.442   6.173  10.716 -0.3819  1.0595  0.3899
  654MOL0     C86217   1.318   6.175  10.635 -0.0318 -0.0141 -0.5838
  654MOL0     C86218   1.188   6.238  10.693 -0.6470  0.7610 -0.1996
  654MOL0     C86219   1.154   6.182  10.833 -0.2795 -0.5584 -0.9443
  654MOL0     O86220   1.020   6.226  10.860 -0.5230  0.6895  0.4079
  654MOL0     C86221   0.977   6.184  10.981 -0.1649 -0.1069  0.0181
  654MOL0     C86222   0.851   6.212  10.999 -1.2140 -0.5085 -0.3890
  654MOL0     C86223   0.792   6.210  11.121  0.2128  0.0421 -0.1131
  654MOL0     C86224   0.854   6.156  11.223 -0.3010 -0.2663 -0.2880
  654MOL0     C86225   0.789   6.121  11.345  0.1737 -0.5084  0.5799
  654MOL0     O86226   0.656   6.138  11.350  0.4376 -1.0429 -0.4810
  654MOL0     C86227   0.567   6.081  11.440 -0.1727 -0.1095 -0.4899
  654MOL0     C86228   0.595   5.966  11.515  0.4171 -0.2547  0.1526
  654MOL0     C86229   0.508   5.904  11.613 -0.1538 -0.6573 -1.1033
  654MOL0     C86230   0.379   5.964  11.630 -1.0117  0.1778  0.2727
  654MOL0     O86231   0.278   5.923  11.718 -0.1971 -0.4378 -0.0769
  654MOL0     C86232   0.293   5.795  11.776  0.0658  0.3899 -0.1011
  654MOL0     C86233   0.226   5.695  11.683  0.8062  0.5714 -0.1312
  654MOL0     C86234   0.080   5.717  11.653 -0.1645 -0.1516  0.3909
  654MOL0     C86235  -0.012   5.693  11.768  0.5089  0.6244 -0.5598
  654MOL0     C86236  -0.156   5.675  11.731 -0.5079  0.2650  0.5415
  654MOL0     C86237  -0.202   5.535  11.675  0.6981  0.0976 -0.3880
  654MOL0     C86238  -0.357   5.536  11.699 -0.4151  0.4936  0.2270
  654MOL0     C86239  -0.411   5.396  11.665  0.3987  0.3679 -0.0711
  654MOL0    Cl86240  -0.379   5.348  11.503  0.0983 -0.3873  0.1269
  654MOL0     C86241   0.357   6.081  11.546 -0.3512 -0.1807 -0.4981
  654MOL0     C86242   0.444   6.143  11.462 -0.3422 -0.0764  1.2223
  654MOL0     O86243   0.856   6.077  11.437 -0.2438  0.1949  0.0110
  654MOL0     C86244   0.996   6.122  11.206 -0.5699 -0.0177  0.7457
  654MOL0     C86245   1.063   6.129  11.085 -0.0933  1.1615  0.9574
  654MOL0     N86246   1.689   6.220  10.649 -0.5653 -0.7279 -0.1569
  654MOL0     N86247   1.785   6.186  10.572 -0.3480 -0.2042  0.2423
  654MOL0     C86248   1.902   5.085  10.072 -0.3016 -0.0385 -0.1815
  654MOL0     C86249   1.977   4.964  10.107  0.2550 -0.7964  0.5497
  654MOL0     C86250   2.292   4.676  10.194 -1.2697  0.0681 -0.1057
  654MOL0     C86251   2.275   4.621  10.325 -0.8570  0.0213  0.1931
  654MOL0     C86252   2.341   4.498  10.359  0.1845  0.4796 -0.7940
  654MOL0     C86253   2.401   4.421  10.258 -1.3602  0.2444 -0.0450
  654MOL0     O86254   2.449   4.295  10.284 -1.0639  0.5317  0.4811
  654MOL0     C86255   2.465   4.204  10.170  0.3031  0.2971  1.1880
  654MOL0     C86256   2.328   4.168  10.115 -0.6197  0.0975 -0.5151
  654MOL0     C86257   2.236   4.110  10.215 -0.0821 -0.2610 -1.1826
  654MOL0     C86258   2.091   4.118  10.167  0.0195  0.4717  0.1697
  654MOL0     C86259   2.065   4.009  10.076 -0.3655 -1.2518 -0.6035
  654MOL0     C86260   2.049   3.926   9.992  0.2152  0.1479  1.0338
  654MOL0     C86261   2.428   4.493  10.141  0.9037  0.1027  0.4474
  654MOL0     C86262   2.391   4.623  10.115  1.0050  0.1786  0.1385
  654MOL0     H86263   2.150   5.091  10.374  0.4062 -1.3714  1.4363
  654MOL0     H86264   2.060   5.280  10.304 -0.3903  0.7751 -1.2648
  654MOL0     H86265   1.816   5.409  10.295 -2.2271  1.4679 -0.2207
  654MOL0     H86266   1.678   5.320  10.227  0.6306 -0.1251 -1.5172
  654MOL0     H86267   1.635   5.549  10.173  0.0717  1.0898 -1.3452
  654MOL0     H86268   1.702   5.472  10.028 -0.8394 -0.4732 -0.4999
  654MOL0     H86269   1.821   5.663  10.054  0.4737  0.9928  1.0709
  654MOL0     H86270   1.930   5.546  10.091 -0.8590  0.5172 -1.6925
  654MOL0     H86271   1.759   5.707  10.298  1.0463 -0.3611  0.7440
  654MOL0     H86272   1.892   5.601  10.338 -0.1896 -0.6120 -0.2809
  654MOL0     H86273   1.927   5.855  10.171  1.7280  2.0478  1.7111
  654MOL0     H86274   2.051   5.731  10.201  2.1754  0.6865  2.4601
  654MOL0     H86275   2.064   5.943  10.333  0.3772 -1.3447 -2.3897
  654MOL0     H86276   2.057   5.798  10.441  1.9895  3.2206  2.2744
  654MOL0     H86277   1.829   5.838  10.497  0.9031 -1.8629  0.1722
  654MOL0     H86278   1.934   5.966  10.539  0.4207  1.1402 -1.2331
  654MOL0     H86279   1.744   5.962  10.297  0.0302 -1.0841 -1.1901
  654MOL0     H86280   1.871   6.084  10.332 -0.8601  1.0749 -0.5988
  654MOL0     H86281   1.517   6.004  10.471  0.6693 -0.2672 -1.2153
  654MOL0     H86282   1.438   6.270  10.766 -1.9705  0.2773  1.8831
  654MOL0     H86283   1.438   6.094  10.791 -2.0593 -0.3406 -1.0879
  654MOL0     H86284   1.294   6.080  10.587  0.6779 -0.8521  0.6515
  654MOL0     H86285   1.343   6.238  10.550 -0.2135  1.4197  0.3789
  654MOL0     H86286   1.192   6.346  10.703  1.4999  0.5765  1.9339
  654MOL0     H86287   1.101   6.213  10.631 -3.2566  0.8501  3.1795
  654MOL0     H86288   1.228   6.219  10.904  1.7936 -0.6571 -2.9369
  654MOL0     H86289   1.157   6.073  10.837  0.6815 -0.5097  0.4124
  654MOL0     H86290   0.802   6.255  10.912  0.8458  0.1088 -1.3165
  654MOL0     H86291   0.689   6.244  11.128 -0.4445 -1.5739 -1.1850
  654MOL0     H86292   0.685   5.912  11.485  0.5589 -0.5767  1.1398
  654MOL0     H86293   0.535   5.811  11.662 -1.3893  0.0552  1.0545
  654MOL0     H86294   0.239   5.796  11.871  1.6638 -1.3760  0.8940
  654MOL0     H86295   0.400   5.776  11.792 -0.6746 -2.4479  2.3448
  654MOL0     H86296   0.222   5.593  11.723 -3.2842  0.2545 -0.8660
  654MOL0     H86297   0.279   5.694  11.588  2.5278  1.0283  0.7909
  654MOL0     H86298   0.050   5.659  11.566 -2.0522 -0.9283  1.4975
  654MOL0     H86299   0.075   5.819  11.614 -0.4270 -1.0576 -2.1328
  654MOL0     H86300   0.024   5.616  11.836 -2.1394 -0.8892 -0.7457
  654MOL0     H86301  -0.011   5.786  11.824 -2.8706  0.1651  0.4558
  654MOL0     H86302  -0.174   5.745  11.650  0.2131 -1.4084 -1.1345
  654MOL0     H86303  -0.209   5.706  11.822  1.0626  3.4638  0.5107
  654MOL0     H86304  -0.158   5.464  11.746  2.2645  3.8258  2.7378
  654MOL0     H86305  -0.169   5.512  11.573 -0.7695 -2.0876 -0.4383
  654MOL0     H86306  -0.389   5.565  11.799 -0.5966  3.0984 -0.5032
  654MOL0     H86307  -0.400   5.611  11.631  2.3339  1.9849 -0.0097
  654MOL0     H86308  -0.515   5.395  11.697  1.4908 -0.2438  4.1042
  654MOL0     H86309  -0.355   5.328  11.731  1.8303 -1.4276 -2.8832
  654MOL0     H86310   0.255   6.115  11.562  0.7183  1.6191  4.0016
  654MOL0     H86311   0.412   6.232  11.409  2.6535 -1.2419 -3.0248
  654MOL0     H86312   1.055   6.080  11.287 -0.7518 -1.7373  0.0272
  654MOL0     H86313   1.168   6.102  11.075 -0.1487  0.7067  1.5401
  654MOL0     H86314   1.846   5.104   9.981 -2.9343 -2.3847  0.7976
  654MOL0     H86315   1.977   4.882  10.035  1.0036  1.4638 -2.2244
  654MOL0     H86316   2.204   4.661  10.397 -0.3780  3.3231 -1.0080
  654MOL0     H86317   2.327   4.445  10.453 -0.1624  1.8446 -0.0563
  654MOL0     H86318   2.515   4.110  10.195 -0.2352 -1.0741 -2.3552
  654MOL0     H86319   2.515   4.254  10.087 -2.2053  0.1309 -0.5290
  654MOL0     H86320   2.277   4.253  10.069 -3.2301 -1.2243 -0.2436
  654MOL0     H86321   2.347   4.091  10.039 -3.4415 -3.0473  1.6884
  654MOL0     H86322   2.227   4.158  10.312 -1.5947  1.4937 -2.1168
  654MOL0     H86323   2.249   4.002  10.226 -3.4896 -1.0812 -3.3188
  654MOL0     H86324   2.025   4.107  10.253 -1.2748 -4.3613 -1.1035
  654MOL0     H86325   2.069   4.207  10.107  1.3495 -0.8735 -2.4893
  654MOL0     H86326   2.030   3.854   9.915 -0.8212 -1.1544  2.4511
  654MOL0     H86327   2.510   4.453  10.082  0.9725 -0.0373  0.6337
  654MOL0     H86328   2.434   4.671  10.028  0.9606  2.1913  1.1587
  655MOL0     O86329   6.222   6.236   1.696 -0.7302  0.1406 -0.0222
  655MOL0     C86330   6.320   6.162   1.719 -0.6176  0.6317 -0.7416
  655MOL0     O86331   6.448   6.197   1.700  0.0870  0.2775 -0.0662
  655MOL0     C86332   6.478   6.334   1.695  0.4129  0.1073  0.6431
  655MOL0     C86333   6.430   6.422   1.593  0.4776  0.4223  0.3951
  655MOL0     C86334   6.460   6.561   1.597  0.0389  0.3541  0.4867
  655MOL0     C86335   6.541   6.617   1.700  0.4824  0.8938 -0.9582
  655MOL0     O86336   6.574   6.745   1.688  0.1071  0.6186  0.3562
  655MOL0     C86337   6.560   6.817   1.809  0.4590  0.5717 -0.3163
  655MOL0     C86338   6.566   6.959   1.746 -0.1109 -0.1230  0.2435
  655MOL0     C86339   6.705   7.002   1.702  0.5924 -0.4572  0.0522
  655MOL0     C86340   6.706   7.147   1.636  0.1872 -0.6349 -0.1484
  655MOL0     C86341   6.837   7.224   1.648  0.3555 -0.3356  0.3172
  655MOL0     C86342   6.831   7.361   1.581  0.6827  0.0042 -0.6571
  655MOL0     C86343   6.963   7.398   1.512 -0.1131 -0.9707 -0.1795
  655MOL0     C86344   6.952   7.498   1.400  0.2711  0.3544  0.3475
  655MOL0     N86345   6.968   7.632   1.454 -0.0650 -0.8301  0.3455
  655MOL0     C86346   7.060   7.721   1.403  0.4338 -0.5323  0.0024
  655MOL0     C86347   7.036   7.837   1.473 -0.5814 -0.5921 -0.2294
  655MOL0     C86348   7.103   7.968   1.445 -0.7598  0.3713  0.0448
  655MOL0     C86349   7.260   7.971   1.484 -0.3423  0.0747 -0.9655
  655MOL0     C86350   7.295   7.906   1.621  0.6139  0.6539 -0.7503
  655MOL0     C86351   7.243   7.975   1.756  0.3553  0.1938 -0.0768
  655MOL0     O86352   7.302   7.900   1.862  0.3487 -0.5143 -0.5366
  655MOL0     C86353   7.237   7.784   1.906  0.3037 -0.6681  0.7055
  655MOL0     C86354   7.307   7.709   2.007  0.2622  0.5106 -0.0230
  655MOL0     C86355   7.254   7.591   2.057 -0.2680  0.0578  0.1320
  655MOL0     C86356   7.136   7.534   2.005  0.6132 -0.7951 -0.5729
  655MOL0     C86357   7.080   7.410   2.042  0.3872  0.1493 -0.1062
  655MOL0     O86358   7.003   7.340   1.949  0.3042 -0.4192 -0.7977
  655MOL0     C86359   6.956   7.219   1.998  0.5655 -0.1237  0.4905
  655MOL0     C86360   6.832   7.214   2.062 -0.3010  0.0510 -0.8302
  655MOL0     C86361   6.780   7.093   2.104 -0.3763 -0.3726  0.0694
  655MOL0     C86362   6.845   6.971   2.066 -0.1517 -0.5999  0.8304
  655MOL0     O86363   6.775   6.855   2.104 -0.2628  0.2497 -0.6223
  655MOL0     C86364   6.856   6.736   2.102  0.3799 -0.2117  0.4007
  655MOL0     C86365   6.809   6.636   2.209 -0.8140 -0.7866  0.9461
  655MOL0     C86366   6.813   6.686   2.350  0.0391 -0.5510  0.1829
  655MOL0     C86367   6.919   6.632   2.451 -0.1052 -0.0754 -0.5283
  655MOL0     C86368   6.942   6.723   2.574 -0.3309 -0.6043 -0.5331
  655MOL0     C86369   7.074   6.680   2.643  0.6058 -0.0312 -0.1525
  655MOL0     C86370   7.080   6.726   2.792  0.2907 -0.0846 -0.0924
  655MOL0     C86371   7.198   6.686   2.866  0.1800  0.4096 -0.6008
  655MOL0    Cl86372   7.220   6.508   2.855 -0.6508 -0.1466  0.5519
  655MOL0     C86373   6.974   6.983   2.006  0.4692  0.2535 -0.1642
  655MOL0     C86374   7.024   7.106   1.957 -0.0407  0.9620  0.0146
  655MOL0     O86375   7.106   7.372   2.152 -0.7441  0.1065 -0.3929
  655MOL0     C86376   7.063   7.608   1.912 -0.3079  0.5681  0.0972
  655MOL0     C86377   7.117   7.730   1.854  0.5965  0.2018  0.3149
  655MOL0     N86378   6.930   7.823   1.564  0.1055  0.8087 -0.1707
  655MOL0     N86379   6.890   7.692   1.556 -1.1752  0.5917 -0.7928
  655MOL0     C86380   6.585   6.526   1.798  0.2394  0.3968  0.1260
  655MOL0     C86381   6.563   6.389   1.790 -0.1473 -0.0170 -0.4443
  655MOL0     C86382   6.303   6.018   1.760  0.7284 -0.6253  0.0400
  655MOL0     C86383   6.411   5.936   1.788 -0.1035  0.1578  0.9619
  655MOL0     C86384   6.398   5.805   1.833 -0.7919 -0.4985 -1.0021
  655MOL0     C86385   6.270   5.763   1.872 -0.7439  0.5031 -0.3404
  655MOL0     O86386   6.259   5.645   1.949 -0.0494 -0.0000  0.4456
  655MOL0     C86387   6.352   5.531   1.950 -0.1926  0.0837 -1.8847
  655MOL0     C86388   6.304   5.428   2.049 -0.8687  0.5595 -0.8635
  655MOL0     C86389   6.406   5.316   2.077 -0.6048 -0.3518  1.3930
  655MOL0     C86390   6.470   5.309   2.214  0.5415  0.1519  0.7101
  655MOL0     C86391   6.386   5.265   2.326 -0.4339  0.4882  0.4894
  655MOL0     C86392   6.310   5.237   2.419 -0.3018  0.2404 -0.0214
  655MOL0     C86393   6.158   5.835   1.838  0.4788 -0.5772  0.9835
  655MOL0     C86394   6.176   5.971   1.786  0.6322 -0.1329  0.5146
  655MOL0     H86395   6.369   6.387   1.509  3.3253 -1.8657 -0.9087
  655MOL0     H86396   6.417   6.621   1.518  1.4408  1.6823  0.6754
  655MOL0     H86397   6.647   6.799   1.872  1.1379 -0.6540 -1.5698
  655MOL0     H86398   6.475   6.794   1.875 -0.8054  3.3668 -0.8178
  655MOL0     H86399   6.526   7.038   1.810  4.4644  2.2363  0.6577
  655MOL0     H86400   6.492   6.965   1.666  0.1825  1.7273  0.0457
  655MOL0     H86401   6.763   6.924   1.652  2.0689  0.6148  0.0422
  655MOL0     H86402   6.769   7.017   1.789 -0.0005 -1.1464  0.6149
  655MOL0     H86403   6.679   7.133   1.531 -0.4201 -1.3569  0.0946
  655MOL0     H86404   6.631   7.199   1.696  0.1185 -1.5066  0.5376
  655MOL0     H86405   6.908   7.161   1.594  0.1130 -1.1597  0.9392
  655MOL0     H86406   6.863   7.243   1.753 -1.4861  0.0955  0.7339
  655MOL0     H86407   6.803   7.438   1.654 -2.4080  1.4427 -3.1194
  655MOL0     H86408   6.754   7.361   1.504  0.5047  0.2011 -0.4807
  655MOL0     H86409   7.034   7.437   1.586  0.5285  0.0784 -1.3157
  655MOL0     H86410   7.002   7.307   1.466  2.1475  0.8211 -2.0414
  655MOL0     H86411   6.848   7.494   1.366 -0.5840  1.5655  2.5741
  655MOL0     H86412   7.018   7.473   1.317 -2.5188 -1.2633 -1.5259
  655MOL0     H86413   7.125   7.716   1.316  0.6909  2.3049 -0.0800
  655MOL0     H86414   7.060   8.041   1.515  0.8531  2.9255 -1.4623
  655MOL0     H86415   7.088   8.006   1.344  2.2060  2.2365  0.1734
  655MOL0     H86416   7.295   8.074   1.491  2.8566 -0.8984 -1.2461
  655MOL0     H86417   7.317   7.939   1.396  1.6539  0.8081  0.0018
  655MOL0     H86418   7.250   7.806   1.624  0.7587  0.6128  0.8567
  655MOL0     H86419   7.402   7.894   1.639 -0.1596 -1.0286  4.3601
  655MOL0     H86420   7.134   7.969   1.756  0.3908 -1.6590 -2.2829
  655MOL0     H86421   7.273   8.080   1.754 -2.2722  1.0053 -1.4861
  655MOL0     H86422   7.400   7.754   2.041  0.3420 -0.7326  1.5515
  655MOL0     H86423   7.309   7.541   2.136  0.3011  0.3153 -0.0904
  655MOL0     H86424   6.780   7.304   2.095 -3.5219 -1.8412 -0.3055
  655MOL0     H86425   6.686   7.082   2.157 -0.6272  0.9542 -0.0744
  655MOL0     H86426   6.958   6.761   2.132  1.4753 -2.8506 -0.7934
  655MOL0     H86427   6.855   6.694   2.001 -1.4115 -0.4510  0.4975
  655MOL0     H86428   6.870   6.545   2.206  0.6182  0.1238  1.4293
  655MOL0     H86429   6.707   6.606   2.184 -0.8240  0.9891 -1.5153
  655MOL0     H86430   6.724   6.672   2.412  0.9557  2.0893  2.2391
  655MOL0     H86431   6.814   6.795   2.347  2.1291 -0.4036  2.5835
  655MOL0     H86432   6.890   6.532   2.485 -0.1788  0.5090  1.2105
  655MOL0     H86433   7.009   6.627   2.389  0.3360  1.2886 -0.0192
  655MOL0     H86434   6.868   6.709   2.654  0.4080  0.1248  0.3158
  655MOL0     H86435   6.945   6.830   2.549  0.4888 -0.2688  0.8703
  655MOL0     H86436   7.161   6.717   2.587 -0.3503 -2.7105 -3.8165
  655MOL0     H86437   7.090   6.572   2.633 -1.1427 -0.3974  0.6344
  655MOL0     H86438   7.073   6.835   2.788 -1.2363 -0.1919 -1.7092
  655MOL0     H86439   6.990   6.697   2.848  0.7952  1.6386  1.7251
  655MOL0     H86440   7.192   6.728   2.966 -0.0480  3.6576 -1.8710
  655MOL0     H86441   7.286   6.731   2.818 -0.1194 -1.7309 -3.4763
  655MOL0     H86442   7.039   6.899   1.983  2.9478  2.0825 -0.3262
  655MOL0     H86443   7.110   7.118   1.892 -2.7940 -0.9023 -4.3872
  655MOL0     H86444   6.975   7.569   1.862  0.1397  1.4557 -1.4498
  655MOL0     H86445   7.063   7.785   1.777  0.7069 -2.4784 -1.8212
  655MOL0     H86446   6.640   6.563   1.884  4.5053 -0.6467 -1.8898
  655MOL0     H86447   6.605   6.317   1.859  0.8281  0.0351 -0.9605
  655MOL0     H86448   6.508   5.983   1.774 -0.9802  1.3825 -1.8760
  655MOL0     H86449   6.486   5.749   1.863 -1.1723 -1.4057 -1.5495
  655MOL0     H86450   6.452   5.564   1.976 -0.2358 -2.4845  2.3910
  655MOL0     H86451   6.349   5.489   1.849 -1.1618  0.4074 -2.0021
  655MOL0     H86452   6.281   5.463   2.150  3.4968  0.7740  0.2636
  655MOL0     H86453   6.211   5.387   2.008  0.5936 -4.0183 -0.1363
  655MOL0     H86454   6.484   5.317   2.000  0.9030  3.9177  2.7135
  655MOL0     H86455   6.354   5.221   2.060  1.2023 -1.0742 -0.4541
  655MOL0     H86456   6.548   5.236   2.191  0.2872  0.5964 -1.8793
  655MOL0     H86457   6.526   5.398   2.244 -0.1765  2.1088 -3.0923
  655MOL0     H86458   6.245   5.203   2.497  0.6109  1.8127  1.4798
  655MOL0     H86459   6.052   5.809   1.841  0.1835  0.6081  1.4905
  655MOL0     H86460   6.089   6.023   1.748  1.0911  0.0040 -0.3757
  656MOL0     O86461   6.937  10.933  10.112  0.8830 -0.2043  0.0782
  656MOL0     C86462   6.910  11.040  10.055 -0.6508  0.2565 -0.7069
  656MOL0     O86463   7.008  11.113   9.984  0.2231  0.3436 -0.0348
  656MOL0     C86464   7.141  11.094   9.975  0.0835  0.2386 -0.0200
  656MOL0     C86465   7.206  10.987  10.041 -0.2515 -0.2216 -0.5188
  656MOL0     C86466   7.346  10.966  10.040  1.3467 -0.1090 -1.0400
  656MOL0     C86467   7.422  11.055   9.964  0.3484  0.4346 -0.8114
  656MOL0     O86468   7.556  11.046   9.964  0.7510  0.1281  0.5731
  656MOL0     C86469   7.603  11.001   9.837  0.8821 -0.7081 -0.1513
  656MOL0     C86470   7.756  10.976   9.860 -0.3161  0.3571  0.0734
  656MOL0     C86471   7.814  10.947   9.726  0.8763 -0.6807 -1.1927
  656MOL0     C86472   7.964  10.919   9.731  0.0657 -0.8090 -0.6240
  656MOL0     C86473   8.024  10.884   9.592  1.6261  0.1448  0.8632
  656MOL0     C86474   7.995  10.991   9.489 -0.2760 -0.4763  0.4714
  656MOL0     C86475   8.021  10.931   9.352 -0.0720  0.2288  0.5074
  656MOL0     C86476   8.036  11.047   9.248 -0.2019  0.8497 -0.9912
  656MOL0     N86477   8.110  11.009   9.124  0.5907 -0.1403  0.1054
  656MOL0     C86478   8.061  10.920   9.030 -0.0247  0.1924  0.9915
  656MOL0     C86479   8.168  10.875   8.961 -0.4923  0.0933 -0.8837
  656MOL0     C86480   8.164  10.783   8.844  0.1651 -0.0405 -0.1703
  656MOL0     C86481   8.092  10.653   8.895 -0.1180  0.1533  1.2420
  656MOL0     C86482   8.077  10.549   8.778 -0.0234  1.3020  0.0869
  656MOL0     C86483   7.985  10.587   8.664 -0.3255  0.7735 -0.3867
  656MOL0     O86484   7.872  10.653   8.728 -0.0997 -0.6236  0.3799
  656MOL0     C86485   7.780  10.683   8.630  0.0231 -0.3048 -0.2403
  656MOL0     C86486   7.646  10.619   8.636 -0.0392  0.0378 -0.0850
  656MOL0     C86487   7.551  10.659   8.543  0.3472  0.2917 -0.0488
  656MOL0     C86488   7.580  10.746   8.437 -0.4548 -0.3142 -0.2537
  656MOL0     C86489   7.496  10.760   8.320  0.1529  0.0370  0.1878
  656MOL0     O86490   7.362  10.745   8.340 -0.6215 -0.4862 -0.6631
  656MOL0     C86491   7.277  10.733   8.238 -0.3506 -0.4178 -0.0300
  656MOL0     C86492   7.260  10.846   8.149  0.2836 -0.1123 -0.2588
  656MOL0     C86493   7.164  10.837   8.047  0.5480 -0.4812  0.0123
  656MOL0     C86494   7.105  10.714   8.016 -0.1565  0.2939 -0.9432
  656MOL0     O86495   7.022  10.682   7.916 -0.2948  0.2076  0.7105
  656MOL0     C86496   6.951  10.782   7.847  0.5301 -0.6913 -0.1675
  656MOL0     C86497   6.913  10.738   7.708  0.2535  0.3450 -0.8503
  656MOL0     C86498   6.845  10.846   7.625  0.7505 -0.0582 -0.0234
  656MOL0     C86499   6.714  10.898   7.685 -0.2469 -0.1744  0.5704
  656MOL0     C86500   6.607  10.798   7.693 -0.3771  0.1187  0.0889
  656MOL0     C86501   6.550  10.760   7.551  0.0634  0.2892  0.1581
  656MOL0     C86502   6.422  10.682   7.545 -0.1934 -0.0309 -0.5185
  656MOL0     C86503   6.429  10.528   7.568 -1.0199 -0.0875 -0.2477
  656MOL0    Cl86504   6.266  10.453   7.564 -0.4217  0.0353 -0.5771
  656MOL0     C86505   7.142  10.598   8.097 -1.1037 -0.9275  0.1468
  656MOL0     C86506   7.225  10.607   8.208  0.2529 -0.6176 -0.8400
  656MOL0     O86507   7.554  10.755   8.217  0.3940 -0.2764 -0.1944
  656MOL0     C86508   7.704  10.815   8.443  0.2136 -0.4180 -0.6689
  656MOL0     C86509   7.794  10.794   8.544 -0.3798  0.2450 -0.1360
  656MOL0     N86510   8.282  10.930   9.022 -0.1965  0.2133  0.4488
  656MOL0     N86511   8.249  10.999   9.125  0.3983 -0.3347 -0.0912
  656MOL0     C86512   7.356  11.164   9.902 -0.8273 -0.2778  0.6594
  656MOL0     C86513   7.222  11.185   9.912  0.0818  0.4941  0.4431
  656MOL0     C86514   6.776  11.082  10.035  0.1093 -0.1289  0.6776
  656MOL0     C86515   6.669  11.006  10.091 -0.8199  1.0984  0.5061
  656MOL0     C86516   6.536  11.052  10.079  0.1904  0.1282 -0.4503
  656MOL0     C86517   6.499  11.170  10.013  0.1299  0.3854  0.3391
  656MOL0     O86518   6.366  11.206  10.005 -0.5651 -0.2873  0.5170
  656MOL0     C86519   6.256  11.124  10.060  0.5589 -0.6170  1.1277
  656MOL0     C86520   6.126  11.174   9.996  0.0975  0.0355  0.6187
  656MOL0     C86521   6.010  11.093  10.062  0.8430  0.2978 -0.0745
  656MOL0     C86522   5.870  11.160  10.053  0.0651  0.4806 -0.9578
  656MOL0     C86523   5.774  11.068  10.116 -0.2251 -0.8536 -0.6498
  656MOL0     C86524   5.692  11.012  10.177 -0.7141  0.0286 -1.3194
  656MOL0     C86525   6.604  11.238   9.956 -0.1972 -0.2060  0.0759
  656MOL0     C86526   6.734  11.198   9.964  0.1672 -0.4816  0.9060
  656MOL0     H86527   7.144  10.915  10.094 -0.4391  0.8890  0.8407
  656MOL0     H86528   7.387  10.884  10.097  1.6734  0.6504 -0.1552
  656MOL0     H86529   7.598  11.095   9.781  0.3263  0.3534  1.6102
  656MOL0     H86530   7.548  10.911   9.808 -3.4905  0.2536  3.9287
  656MOL0     H86531   7.771  10.888   9.924  0.8280  1.1205  0.8949
  656MOL0     H86532   7.809  11.052   9.917  1.5208 -0.4041 -0.5321
  656MOL0     H86533   7.782  11.037   9.672 -0.1671 -0.7696 -0.7573
  656MOL0     H86534   7.767  10.855   9.690 -3.8953 -0.3596  2.9982
  656MOL0     H86535   8.016  11.010   9.763  3.3542 -1.4658 -3.4851
  656MOL0     H86536   7.982  10.831   9.792 -0.6063 -2.6649 -2.9453
  656MOL0     H86537   7.983  10.787   9.560 -1.4960  1.7319 -0.4258
  656MOL0     H86538   8.129  10.858   9.605  1.4006 -0.1125  2.3764
  656MOL0     H86539   8.062  11.076   9.506 -2.4118  1.8555 -1.9820
  656MOL0     H86540   7.891  11.024   9.487 -0.0026  0.4894  1.3521
  656MOL0     H86541   8.117  10.880   9.343 -0.5975 -0.7373  0.2880
  656MOL0     H86542   7.936  10.869   9.321  0.0470  1.1006 -1.7491
  656MOL0     H86543   8.101  11.120   9.296 -0.6221  0.1726  0.6518
  656MOL0     H86544   7.940  11.092   9.222 -0.7175 -0.0889 -0.7608
  656MOL0     H86545   7.957  10.891   9.017 -0.0372  1.3493 -3.1249
  656MOL0     H86546   8.267  10.766   8.811  0.8082  1.3374  1.0305
  656MOL0     H86547   8.101  10.822   8.763  0.5590 -3.6870 -2.4784
  656MOL0     H86548   7.990  10.664   8.933 -1.6264 -0.0290 -2.4067
  656MOL0     H86549   8.167  10.612   8.964  1.7215 -0.6697 -1.1091
  656MOL0     H86550   8.175  10.521   8.739 -0.2724  0.2575  0.1885
  656MOL0     H86551   8.040  10.453   8.816 -2.7035  0.8147 -3.2989
  656MOL0     H86552   7.970  10.493   8.611  2.7425  0.6872 -1.2789
  656MOL0     H86553   8.028  10.652   8.587 -2.1936  0.9534 -1.3278
  656MOL0     H86554   7.617  10.548   8.713  3.0330  1.5612  2.6957
  656MOL0     H86555   7.456  10.608   8.537  0.8593 -0.5428 -2.8602
  656MOL0     H86556   7.304  10.942   8.172  2.3370 -0.8378 -0.9603
  656MOL0     H86557   7.145  10.923   7.983 -0.6166 -1.1288 -0.5448
  656MOL0     H86558   7.003  10.877   7.835 -0.1830 -0.3109 -0.2309
  656MOL0     H86559   6.863  10.796   7.910  2.1738 -0.7561  2.2865
  656MOL0     H86560   6.856  10.644   7.707 -0.7040  0.9053 -0.6437
  656MOL0     H86561   7.008  10.729   7.654  1.2078  2.0626  0.4581
  656MOL0     H86562   6.828  10.801   7.527 -1.8152 -1.6630  1.0465
  656MOL0     H86563   6.920  10.925   7.617  2.3876 -1.6244 -1.1874
  656MOL0     H86564   6.721  10.939   7.786 -0.1645  0.6749  0.2313
  656MOL0     H86565   6.672  10.984   7.631  0.0701 -0.1378  0.3769
  656MOL0     H86566   6.526  10.837   7.756 -1.3150 -1.0897 -0.3329
  656MOL0     H86567   6.643  10.703   7.733 -1.0508  0.2271  0.9915
  656MOL0     H86568   6.637  10.724   7.496  1.8560 -3.1898  4.6347
  656MOL0     H86569   6.532  10.854   7.498  1.8210  0.2809 -0.5282
  656MOL0     H86570   6.356  10.717   7.624 -0.1742 -0.1047 -0.4701
  656MOL0     H86571   6.368  10.707   7.453 -0.7109  0.3894 -0.1057
  656MOL0     H86572   6.493  10.511   7.655  1.2259  0.6903 -1.6703
  656MOL0     H86573   6.487  10.485   7.485 -0.0462  2.7264 -1.1421
  656MOL0     H86574   7.117  10.505   8.047 -0.3834 -0.7512 -0.5750
  656MOL0     H86575   7.257  10.521   8.265 -0.8736 -0.9411 -0.6666
  656MOL0     H86576   7.717  10.886   8.363  0.0122  2.3296  1.5850
  656MOL0     H86577   7.890  10.844   8.543 -0.5441  0.5694 -1.8443
  656MOL0     H86578   7.419  11.240   9.856 -0.4914 -0.2842  1.1035
  656MOL0     H86579   7.181  11.276   9.870  0.1249  0.4907  0.3939
  656MOL0     H86580   6.698  10.912  10.136 -2.3459 -1.5760 -3.5582
  656MOL0     H86581   6.461  10.999  10.137 -2.1909  2.7192 -0.9553
  656MOL0     H86582   6.257  11.124  10.170  1.0460  0.2827  1.1320
  656MOL0     H86583   6.268  11.023  10.020 -3.7186 -1.7104  2.1577
  656MOL0     H86584   6.106  11.280  10.013  2.0383  0.3230  1.3788
  656MOL0     H86585   6.130  11.167   9.886  0.7039 -0.1027  0.6474
  656MOL0     H86586   6.032  11.111  10.168 -2.2663 -0.4803  0.7938
  656MOL0     H86587   6.017  10.987  10.034 -0.0816  0.4458 -0.8850
  656MOL0     H86588   5.854  11.256  10.103 -1.3994  0.3808 -1.1794
  656MOL0     H86589   5.830  11.180   9.953 -0.0526  3.6187 -0.3849
  656MOL0     H86590   5.631  10.960  10.247  0.4274 -2.1441 -1.8746
  656MOL0     H86591   6.587  11.332   9.903 -0.5490 -1.2676 -1.7853
  656MOL0     H86592   6.805  11.256   9.906 -1.3932  1.7700  1.0951
  657MOL0     O86593   6.893  11.450   0.744  0.2666  0.0437  0.0434
  657MOL0     C86594   6.902  11.333   0.775 -0.8123  0.4963 -0.0450
  657MOL0     O86595   6.806  11.249   0.804  0.7492  0.0082 -0.1167
  657MOL0     C86596   6.682  11.300   0.819  0.0119 -0.1564 -0.1802
  657MOL0     C86597   6.578  11.223   0.760 -0.2186  0.7805  0.2092
  657MOL0     C86598   6.445  11.253   0.770 -0.1581 -0.4018  0.5204
  657MOL0     C86599   6.401  11.371   0.822  0.1617  0.6554  0.4016
  657MOL0     O86600   6.270  11.410   0.828 -0.6097  0.1398 -0.0786
  657MOL0     C86601   6.248  11.537   0.770 -0.2211  0.0885 -1.2536
  657MOL0     C86602   6.123  11.602   0.808  0.7927 -0.0698 -0.0665
  657MOL0     C86603   6.089  11.741   0.726 -0.5480  0.0193 -0.8448
  657MOL0     C86604   6.208  11.841   0.735 -0.7022 -0.5634  0.1409
  657MOL0     C86605   6.154  11.971   0.697  0.1852 -0.2307  0.1991
  657MOL0     C86606   6.089  12.056   0.800 -0.5462  0.4738  0.5423
  657MOL0     C86607   6.074  12.198   0.754 -0.2619  0.1997  0.2089
  657MOL0     C86608   6.183  12.299   0.792  0.2496 -0.5326  0.3843
  657MOL0     N86609   6.167  12.368   0.915  0.1473 -0.6072  0.6167
  657MOL0     C86610   6.100  12.485   0.946  0.1204  0.8351  0.1613
  657MOL0     C86611   6.124  12.507   1.075  0.4206  0.1033  0.2261
  657MOL0     C86612   6.082  12.619   1.162  0.8425 -0.2440  0.4582
  657MOL0     C86613   6.187  12.726   1.138 -0.6539 -0.2728 -1.2167
  657MOL0     C86614   6.183  12.833   1.254  0.3094  0.3102  0.5763
  657MOL0     C86615   6.324  12.871   1.293 -0.8845  0.3110 -0.5936
  657MOL0     O86616   6.307  12.958   1.411 -0.5325  0.2888  0.1381
  657MOL0     C86617   6.268  13.091   1.390 -0.3390  0.9143 -0.6573
  657MOL0     C86618   6.187  13.136   1.490  1.2779  0.0902 -0.8522
  657MOL0     C86619   6.156  13.275   1.495  0.6964  1.4013  0.2797
  657MOL0     C86620   6.189  13.364   1.393 -0.4011  0.1354  0.1694
  657MOL0     C86621   6.161  13.505   1.400 -0.1962  0.9156  0.4053
  657MOL0     O86622   6.099  13.556   1.511  0.4718 -0.0611 -0.2292
  657MOL0     C86623   6.106  13.693   1.537  0.9934 -0.1197  0.1029
  657MOL0     C86624   5.999  13.756   1.605 -0.1722  0.5954 -0.3331
  657MOL0     C86625   6.002  13.887   1.646 -0.8847 -0.0241  0.0880
  657MOL0     C86626   6.118  13.969   1.616  0.1880  0.1050  0.6317
  657MOL0     O86627   6.122  14.095   1.671 -0.1965  0.4905 -0.4141
  657MOL0     C86628   6.211  14.190   1.595  0.2695  0.2596  0.6510
  657MOL0     C86629   6.223  14.320   1.665  0.1209 -0.4433  0.4351
  657MOL0     C86630   6.113  14.419   1.644  0.3096  0.5465  0.0075
  657MOL0     C86631   6.138  14.566   1.686 -0.1318  0.8935  0.2103
  657MOL0     C86632   6.047  14.672   1.633 -0.1441 -0.1799  0.1975
  657MOL0     C86633   5.897  14.634   1.637 -0.8839 -0.2031  0.7303
  657MOL0     C86634   5.808  14.739   1.567  0.4252  0.3115  0.8521
  657MOL0     C86635   5.664  14.685   1.570 -1.1643  0.5789 -0.1115
  657MOL0    Cl86636   5.604  14.654   1.734  0.2183 -0.0530  0.2146
  657MOL0     C86637   6.224  13.901   1.548 -0.1097  0.5414 -0.1608
  657MOL0     C86638   6.219  13.773   1.508 -0.3743 -0.4957 -0.2572
  657MOL0     O86639   6.188  13.572   1.300 -0.3294  0.0911 -0.0052
  657MOL0     C86640   6.261  13.305   1.284 -0.8226 -0.5062 -0.1808
  657MOL0     C86641   6.296  13.175   1.276  0.2760  0.4032  0.3601
  657MOL0     N86642   6.187  12.404   1.130 -0.9818  0.3870 -1.0691
  657MOL0     N86643   6.219  12.319   1.035  0.7422  0.3090  0.1258
  657MOL0     C86644   6.510  11.454   0.876  0.1677  0.6713 -0.2428
  657MOL0     C86645   6.645  11.415   0.885 -0.1665  0.1649 -0.1827
  657MOL0     C86646   7.044  11.276   0.771  0.8126  0.5659 -1.0544
  657MOL0     C86647   7.074  11.171   0.855 -0.2979  0.5534 -0.3780
  657MOL0     C86648   7.206  11.117   0.842  0.4164  0.3392  0.8369
  657MOL0     C86649   7.307  11.171   0.756  0.8814  0.2950  0.4541
  657MOL0     O86650   7.433  11.114   0.746  1.2663  0.9404 -0.3919
  657MOL0     C86651   7.506  11.146   0.621 -0.1166  0.7076  0.1379
  657MOL0     C86652   7.641  11.071   0.630 -0.8552  0.3584 -1.1828
  657MOL0     C86653   7.751  11.138   0.717 -1.2635 -0.1962 -0.4640
  657MOL0     C86654   7.899  11.119   0.651 -0.0598  0.5071  0.0404
  657MOL0     C86655   7.937  10.979   0.657 -0.4040  0.2193  0.1102
  657MOL0     C86656   7.985  10.868   0.660 -0.5761  0.5208 -1.0710
  657MOL0     C86657   7.270  11.282   0.682 -0.1932  0.3999  0.3744
  657MOL0     C86658   7.141  11.335   0.692 -0.3576  0.3648 -0.2425
  657MOL0     H86659   6.605  11.121   0.734 -1.3165  0.1856  1.3545
  657MOL0     H86660   6.363  11.185   0.748  1.0829 -1.9304  0.5149
  657MOL0     H86661   6.256  11.528   0.661 -0.6299  3.6770 -1.7163
  657MOL0     H86662   6.326  11.612   0.788 -2.1022  1.3607  3.0634
  657MOL0     H86663   6.115  11.626   0.914  0.0552 -3.5770  0.7885
  657MOL0     H86664   6.052  11.521   0.788 -1.4848  1.1223  2.5737
  657MOL0     H86665   6.001  11.785   0.773  0.6039  0.6886  0.7428
  657MOL0     H86666   6.054  11.721   0.624 -1.5432 -0.3156 -0.4544
  657MOL0     H86667   6.252  11.842   0.835 -0.6542 -1.3962  0.1316
  657MOL0     H86668   6.285  11.803   0.668 -1.7643 -0.0376 -1.4199
  657MOL0     H86669   6.093  11.962   0.606  1.3124  0.2396 -0.6252
  657MOL0     H86670   6.230  12.038   0.656 -1.6929  1.0585 -1.3745
  657MOL0     H86671   6.136  12.047   0.898 -1.1626  0.6328  0.8585
  657MOL0     H86672   5.994  12.005   0.819  0.2315 -0.4319  2.2212
  657MOL0     H86673   6.063  12.208   0.645 -0.8487  5.4086  0.4519
  657MOL0     H86674   5.975  12.242   0.773 -0.6759  0.0537 -1.3772
  657MOL0     H86675   6.198  12.370   0.710  3.5672  2.0554  2.9585
  657MOL0     H86676   6.275  12.241   0.805  0.1631 -0.4042  1.6169
  657MOL0     H86677   6.055  12.548   0.870 -0.6923 -0.0731 -0.1357
  657MOL0     H86678   6.078  12.580   1.264  1.5613 -1.2648  0.1116
  657MOL0     H86679   5.979  12.655   1.154  0.5510 -1.2040 -0.3376
  657MOL0     H86680   6.170  12.774   1.041  2.1017  1.2097 -1.0771
  657MOL0     H86681   6.288  12.684   1.130  0.0334  1.4908 -2.8429
  657MOL0     H86682   6.124  12.915   1.212 -1.1311 -1.1299 -0.3002
  657MOL0     H86683   6.127  12.796   1.340 -0.3743 -0.5850 -0.2425
  657MOL0     H86684   6.395  12.915   1.223 -1.0919 -0.0079 -1.0088
  657MOL0     H86685   6.373  12.773   1.305 -3.2411 -1.3405 -3.1232
  657MOL0     H86686   6.158  13.087   1.582 -2.2985  1.0255 -1.3215
  657MOL0     H86687   6.094  13.302   1.580  0.4486 -0.9103  0.8911
  657MOL0     H86688   5.908  13.708   1.640 -1.7018  3.1542 -0.5320
  657MOL0     H86689   5.928  13.919   1.719 -2.5228  1.4561 -2.1051
  657MOL0     H86690   6.180  14.219   1.494 -1.4643  2.8398  1.8009
  657MOL0     H86691   6.314  14.158   1.579 -0.1872 -1.8982  1.6088
  657MOL0     H86692   6.315  14.363   1.625 -0.2648 -1.8539 -2.2008
  657MOL0     H86693   6.229  14.313   1.774  2.7005  2.3131  0.5984
  657MOL0     H86694   6.036  14.379   1.711 -0.1793  0.3233 -0.6682
  657MOL0     H86695   6.070  14.414   1.544  0.5241 -2.1187 -0.0186
  657MOL0     H86696   6.129  14.567   1.795 -2.5665 -0.4525  0.1120
  657MOL0     H86697   6.238  14.588   1.649  1.8293 -4.0694  1.7739
  657MOL0     H86698   6.080  14.689   1.530 -0.7051 -0.0416  0.0376
  657MOL0     H86699   6.055  14.757   1.701  0.5841 -0.3244  0.2978
  657MOL0     H86700   5.872  14.628   1.744  1.2751  0.2746  1.3099
  657MOL0     H86701   5.886  14.544   1.577 -0.9259  1.4933 -1.9682
  657MOL0     H86702   5.818  14.840   1.607 -1.3081  1.2482 -0.9255
  657MOL0     H86703   5.840  14.755   1.464 -0.8137  3.8487  0.8798
  657MOL0     H86704   5.663  14.587   1.521 -1.8834  0.5357 -0.0190
  657MOL0     H86705   5.588  14.749   1.524 -1.9874  0.1490  0.6269
  657MOL0     H86706   6.317  13.951   1.523 -1.7323  2.8740 -2.0927
  657MOL0     H86707   6.300  13.721   1.458 -1.1990 -0.8351 -1.2874
  657MOL0     H86708   6.309  13.369   1.210 -1.1350  0.6742  0.6000
  657MOL0     H86709   6.363  13.136   1.200 -0.6837  0.6171 -0.6124
  657MOL0     H86710   6.488  11.552   0.917  0.8491  1.3253 -1.3925
  657MOL0     H86711   6.723  11.466   0.939 -2.0192  0.6069  2.2717
  657MOL0     H86712   7.014  11.119   0.929 -0.2405  0.8688 -0.1069
  657MOL0     H86713   7.237  11.020   0.879  2.4020  0.5148 -0.1971
  657MOL0     H86714   7.527  11.250   0.593 -1.9761  0.5382 -2.3141
  657MOL0     H86715   7.457  11.098   0.536  0.3036 -4.3452  2.4167
  657MOL0     H86716   7.626  10.974   0.678 -0.4848  1.2263  0.7681
  657MOL0     H86717   7.692  11.062   0.533  0.3909  1.8772 -0.7112
  657MOL0     H86718   7.750  11.121   0.825  0.4762 -1.4698 -0.6136
  657MOL0     H86719   7.739  11.245   0.695  2.3721 -0.3407 -4.4430
  657MOL0     H86720   7.898  11.157   0.548 -3.0254 -1.3801 -0.7495
  657MOL0     H86721   7.970  11.172   0.716 -2.4920  1.1728  2.3110
  657MOL0     H86722   8.021  10.770   0.637  3.8040  2.4586 -3.7144
  657MOL0     H86723   7.333  11.332   0.608 -1.5025  0.2916 -0.8620
  657MOL0     H86724   7.109  11.423   0.637  2.2147  2.7138  1.7460
  658MOL0     O86725   9.935  10.745   8.435 -0.9440 -1.3052 -0.2792
  658MOL0     C86726   9.985  10.840   8.503  0.0827 -0.0387 -0.5949
  658MOL0     O86727   9.920  10.943   8.575  0.5016 -0.7519  1.1197
  658MOL0     C86728   9.783  10.949   8.581 -0.3338  0.2064 -0.1721
  658MOL0     C86729   9.697  10.946   8.472  0.2385  0.4573 -0.0287
  658MOL0     C86730   9.562  10.915   8.491 -0.0251 -0.3275 -0.2114
  658MOL0     C86731   9.511  10.906   8.620  0.4930  0.2215  0.2992
  658MOL0     O86732   9.376  10.887   8.629  0.0023  0.4675  0.8305
  658MOL0     C86733   9.289  10.961   8.720  0.0436 -0.5238  0.5648
  658MOL0     C86734   9.279  10.853   8.836  0.6191  0.1150 -0.1614
  658MOL0     C86735   9.161  10.863   8.929  0.2959  0.7533 -0.4920
  658MOL0     C86736   9.157  10.762   9.047 -0.4381 -0.0948  0.0625
  658MOL0     C86737   9.101  10.622   9.018 -1.0669 -0.1257  0.3062
  658MOL0     C86738   9.096  10.535   9.141  0.2543 -0.3281  0.2614
  658MOL0     C86739   9.009  10.406   9.108 -0.8736  0.0353  0.8633
  658MOL0     C86740   9.051  10.282   9.200  0.4414  0.2688  0.7708
  658MOL0     N86741   8.942  10.185   9.190 -0.3270  0.1905  0.5069
  658MOL0     C86742   8.926  10.091   9.082 -0.5206 -0.4467  0.1018
  658MOL0     C86743   8.815  10.027   9.112 -0.3337 -0.5345  0.3932
  658MOL0     C86744   8.753   9.908   9.028  0.0905  0.3737  0.8030
  658MOL0     C86745   8.833   9.771   9.032 -0.2057  0.0412  0.6001
  658MOL0     C86746   8.885   9.717   9.162 -0.1180  0.9374  0.0499
  658MOL0     C86747   8.786   9.705   9.277  0.0858 -0.0290  0.0676
  658MOL0     O86748   8.720   9.576   9.281 -0.6187 -0.5659  0.2188
  658MOL0     C86749   8.603   9.587   9.219  0.4406  0.0242  0.0791
  658MOL0     C86750   8.575   9.473   9.141  0.0667  0.1037  0.1375
  658MOL0     C86751   8.443   9.446   9.095 -0.0107 -0.0669 -0.3592
  658MOL0     C86752   8.340   9.539   9.107  0.6889  0.1612  0.3318
  658MOL0     C86753   8.212   9.514   9.039 -0.1858 -0.3501  0.2442
  658MOL0     O86754   8.129   9.625   9.053  0.5996 -0.1861 -0.2738
  658MOL0     C86755   7.996   9.602   9.053 -0.5593  0.0458  0.2710
  658MOL0     C86756   7.935   9.521   9.150  0.4288 -0.3630  0.2389
  658MOL0     C86757   7.803   9.490   9.143 -0.0263  0.1494  0.4838
  658MOL0     C86758   7.724   9.543   9.041  0.2735 -0.4650  0.3263
  658MOL0     O86759   7.589   9.523   9.030  0.1028  0.3260 -1.1569
  658MOL0     C86760   7.524   9.427   9.112  0.2829  0.3310  0.2355
  658MOL0     C86761   7.566   9.287   9.058 -0.0676 -0.3571 -0.6524
  658MOL0     C86762   7.467   9.234   8.960  0.6319 -1.1479 -0.2265
  658MOL0     C86763   7.445   9.300   8.828 -0.1310  0.4975 -0.2181
  658MOL0     C86764   7.330   9.227   8.760  0.6614  0.5370  0.2881
  658MOL0     C86765   7.276   9.292   8.634 -1.0661 -0.3722  0.2598
  658MOL0     C86766   7.390   9.315   8.528  0.5550 -0.2430 -0.8575
  658MOL0     C86767   7.432   9.198   8.452 -0.0273 -0.4232 -0.0796
  658MOL0    Cl86768   7.528   9.084   8.542  0.1977 -0.2390 -0.6120
  658MOL0     C86769   7.783   9.626   8.944 -0.1807  0.4156  0.5576
  658MOL0     C86770   7.924   9.650   8.949  0.7227 -0.6137  0.2777
  658MOL0     O86771   8.187   9.422   8.963 -0.4298  0.5634  0.1142
  658MOL0     C86772   8.374   9.652   9.185 -0.6441 -0.2333 -0.2090
  658MOL0     C86773   8.496   9.673   9.239  0.6449 -0.0281 -0.9915
  658MOL0     N86774   8.757  10.075   9.230 -0.3968  0.3502  0.9266
  658MOL0     N86775   8.843  10.161   9.277  0.1128  0.4609  0.9967
  658MOL0     C86776   9.599  10.922   8.733 -0.0170 -0.3527 -0.7228
  658MOL0     C86777   9.740  10.936   8.714  0.1622  0.7574  0.6193
  658MOL0     C86778  10.138  10.846   8.506  0.0235 -0.5273 -0.1117
  658MOL0     C86779  10.217  10.737   8.464 -0.2974  0.2046  0.2182
  658MOL0     C86780  10.355  10.749   8.472 -0.3242 -0.1333 -0.2876
  658MOL0     C86781  10.421  10.858   8.540  0.5422 -0.3027 -0.0218
  658MOL0     O86782  10.560  10.852   8.557  0.1311 -0.1999 -0.0171
  658MOL0     C86783  10.640  10.954   8.619 -0.7002 -0.1964 -0.4260
  658MOL0     C86784  10.782  10.886   8.609  0.1902 -1.9151 -0.7661
  658MOL0     C86785  10.890  10.961   8.707  0.2639 -0.2911  0.1776
  658MOL0     C86786  11.006  10.870   8.730 -0.3354  0.2233  0.6148
  658MOL0     C86787  10.983  10.774   8.840  0.1772  0.9351  0.8379
  658MOL0     C86788  10.962  10.686   8.921  0.3182  0.1133  0.3715
  658MOL0     C86789  10.342  10.957   8.580 -0.0138  0.0426  0.2720
  658MOL0     C86790  10.208  10.958   8.562 -0.0395 -0.1962 -0.1015
  658MOL0     H86791   9.731  10.954   8.369 -0.9694  3.1304 -0.3144
  658MOL0     H86792   9.484  10.907   8.416  0.1687  0.3989 -0.5017
  658MOL0     H86793   9.195  10.987   8.671  0.0833 -2.9101 -0.9479
  658MOL0     H86794   9.331  11.058   8.750  0.1532 -0.5720  0.5648
  658MOL0     H86795   9.357  10.887   8.905  1.8179 -2.0183 -0.3636
  658MOL0     H86796   9.295  10.750   8.804 -0.4661  0.3921 -1.6927
  658MOL0     H86797   9.067  10.850   8.875  0.9590 -0.8360 -1.3331
  658MOL0     H86798   9.161  10.965   8.969 -0.0861  0.1608  1.0811
  658MOL0     H86799   9.248  10.750   9.106 -0.0686 -1.0177 -0.6724
  658MOL0     H86800   9.086  10.804   9.119 -1.7544 -0.0254 -1.2391
  658MOL0     H86801   9.167  10.569   8.947 -2.0530 -0.6358 -0.2551
  658MOL0     H86802   9.004  10.643   8.973  0.6646  0.0909 -3.7660
  658MOL0     H86803   9.045  10.589   9.221  0.7493  2.2485 -1.0694
  658MOL0     H86804   9.196  10.515   9.180  0.6680  1.0246 -0.0555
  658MOL0     H86805   8.903  10.424   9.131 -1.2493 -1.3874  0.3905
  658MOL0     H86806   9.011  10.365   9.007 -0.4924 -0.6858  1.1578
  658MOL0     H86807   9.069  10.313   9.303 -0.1413  0.4138  0.8352
  658MOL0     H86808   9.139  10.236   9.155  0.6698  1.5753 -0.1829
  658MOL0     H86809   8.980  10.055   8.996  0.8693 -0.7692  1.0801
  658MOL0     H86810   8.741   9.947   8.927  0.2109  3.0134  1.7236
  658MOL0     H86811   8.654   9.894   9.074 -0.2247  0.4377  0.1456
  658MOL0     H86812   8.912   9.787   8.959  1.0544  2.3263  2.2994
  658MOL0     H86813   8.773   9.696   8.981  1.2839  0.1124 -1.3447
  658MOL0     H86814   8.933   9.620   9.146 -0.4702  0.1999  2.8717
  658MOL0     H86815   8.967   9.783   9.193 -1.1472  2.0666  0.4810
  658MOL0     H86816   8.716   9.786   9.299 -0.6440 -1.0728  1.7934
  658MOL0     H86817   8.851   9.707   9.365  1.8502 -2.8962 -1.0251
  658MOL0     H86818   8.649   9.396   9.122  2.9782  2.2031  2.1245
  658MOL0     H86819   8.439   9.350   9.046 -0.0833 -0.3853  0.2691
  658MOL0     H86820   7.993   9.487   9.235  1.9193  2.2994  0.3714
  658MOL0     H86821   7.762   9.435   9.227 -0.8995  2.0612  1.3849
  658MOL0     H86822   7.416   9.440   9.106  0.3326  0.4754 -0.4433
  658MOL0     H86823   7.544   9.439   9.219  1.6259  3.5084 -0.2731
  658MOL0     H86824   7.554   9.224   9.147  0.5344  1.3676  0.7078
  658MOL0     H86825   7.662   9.294   9.004 -1.7359  2.6513 -3.5793
  658MOL0     H86826   7.378   9.223   9.023  0.4493  1.0416 -0.0352
  658MOL0     H86827   7.498   9.130   8.949  0.5369 -1.2153  0.1126
  658MOL0     H86828   7.411   9.404   8.825  1.1705  0.9253 -1.0823
  658MOL0     H86829   7.531   9.281   8.762 -1.6266 -1.1286 -1.8225
  658MOL0     H86830   7.253   9.233   8.837 -0.5104  1.5839 -0.9188
  658MOL0     H86831   7.350   9.119   8.752  0.7772  0.4686  1.4294
  658MOL0     H86832   7.233   9.392   8.651 -0.8661  0.0269 -1.3829
  658MOL0     H86833   7.196   9.230   8.592 -1.7109  2.0737 -2.4774
  658MOL0     H86834   7.338   9.388   8.464 -0.7248  0.5139  0.9475
  658MOL0     H86835   7.474   9.368   8.573  0.5232 -1.0072  0.1229
  658MOL0     H86836   7.503   9.221   8.372  0.3866 -0.7494  0.1885
  658MOL0     H86837   7.346   9.147   8.405 -0.4070  0.8332 -0.7901
  658MOL0     H86838   7.715   9.671   8.872 -0.9709  0.1506  1.1372
  658MOL0     H86839   7.976   9.710   8.875 -1.8169  0.1546 -1.0284
  658MOL0     H86840   8.300   9.728   9.208 -0.4466  0.0088 -0.3792
  658MOL0     H86841   8.508   9.756   9.308  1.1578 -0.3997 -0.6293
  658MOL0     H86842   9.559  10.904   8.833 -1.8405 -0.4707 -1.4368
  658MOL0     H86843   9.808  10.919   8.797 -1.8626 -1.8484  1.8914
  658MOL0     H86844  10.174  10.654   8.408 -2.0015  0.3305  1.2856
  658MOL0     H86845  10.421  10.667   8.446 -1.1648 -2.5840  4.3036
  658MOL0     H86846  10.613  10.959   8.725 -1.1373 -4.4438 -0.1872
  658MOL0     H86847  10.648  11.056   8.580  2.0107 -0.2137 -0.1011
  658MOL0     H86848  10.767  10.782   8.639 -0.1048 -1.1484  2.0643
  658MOL0     H86849  10.806  10.885   8.503 -0.1192  0.1845 -0.8998
  658MOL0     H86850  10.831  10.984   8.796  1.7368 -1.5056  1.5147
  658MOL0     H86851  10.926  11.059   8.673 -0.4881 -0.0245  0.1484
  658MOL0     H86852  11.023  10.810   8.640  2.9931 -1.4603  2.1980
  658MOL0     H86853  11.094  10.932   8.750  0.1720 -0.1072 -0.4929
  658MOL0     H86854  10.944  10.603   8.987  0.8213 -2.2355 -2.2601
  658MOL0     H86855  10.387  11.049   8.617 -0.1408 -0.4318  1.6847
  658MOL0     H86856  10.150  11.039   8.604 -0.1809 -0.5928  0.4874
  659MOL0     O86857   5.434   7.865   6.428 -0.0058 -0.0821 -0.2265
  659MOL0     C86858   5.314   7.844   6.408  0.5876  0.6253 -0.6832
  659MOL0     O86859   5.268   7.754   6.312 -0.1166 -0.1253  0.3099
  659MOL0     C86860   5.360   7.666   6.261  0.2581 -0.0978 -0.1116
  659MOL0     C86861   5.430   7.702   6.146  0.5894 -0.2445  0.3354
  659MOL0     C86862   5.529   7.624   6.086 -0.1251 -0.2543 -0.0387
  659MOL0     C86863   5.569   7.500   6.157  0.2766  0.9021  0.5186
  659MOL0     O86864   5.669   7.427   6.113  0.0662 -0.3879  0.6650
  659MOL0     C86865   5.637   7.369   5.983 -0.5580 -0.7357  0.2253
  659MOL0     C86866   5.560   7.238   6.012 -0.1386 -0.5797 -1.1826
  659MOL0     C86867   5.549   7.162   5.887  0.4878 -0.5115  0.2506
  659MOL0     C86868   5.478   7.027   5.898 -0.2704  0.2590  0.6043
  659MOL0     C86869   5.458   6.962   5.762  0.0245  0.2723  0.0461
  659MOL0     C86870   5.407   6.815   5.756 -0.3121  0.5781  0.5644
  659MOL0     C86871   5.421   6.753   5.612 -0.2086  0.0864  0.3564
  659MOL0     C86872   5.566   6.686   5.581  0.1084  0.5615  0.1733
  659MOL0     N86873   5.559   6.610   5.454  0.4476 -0.2768  0.2226
  659MOL0     C86874   5.669   6.585   5.376  1.0805  0.2779 -0.8987
  659MOL0     C86875   5.622   6.531   5.267 -0.8840  0.1586  0.6407
  659MOL0     C86876   5.707   6.496   5.142  0.1273  0.9765  0.2071
  659MOL0     C86877   5.618   6.480   5.017 -0.0634 -0.3475 -0.6716
  659MOL0     C86878   5.684   6.424   4.896  0.1899  0.4904 -0.9858
  659MOL0     C86879   5.764   6.530   4.824 -0.7315 -0.4044 -0.0819
  659MOL0     O86880   5.871   6.473   4.756  0.4816  0.4044  0.4287
  659MOL0     C86881   5.952   6.551   4.678  0.4840  0.1435  0.3501
  659MOL0     C86882   5.911   6.655   4.591  0.2956  0.2702  0.3694
  659MOL0     C86883   6.005   6.732   4.527  1.5573 -0.0157 -0.4627
  659MOL0     C86884   6.144   6.715   4.548 -0.0054  0.3864  0.3423
  659MOL0     C86885   6.243   6.811   4.492  0.5578  0.3784  0.0302
  659MOL0     O86886   6.368   6.785   4.525  0.0457 -0.4828 -0.0801
  659MOL0     C86887   6.470   6.862   4.467 -0.4206 -0.2843  0.6370
  659MOL0     C86888   6.512   6.983   4.526 -1.0550  1.0640 -0.2867
  659MOL0     C86889   6.598   7.071   4.457 -0.9588 -1.5022 -0.0976
  659MOL0     C86890   6.653   7.040   4.327 -0.0119 -0.3462 -0.8493
  659MOL0     O86891   6.742   7.125   4.270 -0.3167 -0.0696  0.5520
  659MOL0     C86892   6.790   7.107   4.133  0.1637  1.3868 -0.3491
  659MOL0     C86893   6.818   7.254   4.090  0.1212 -0.1064  0.0428
  659MOL0     C86894   6.920   7.326   4.191  0.2543 -0.2631 -0.3451
  659MOL0     C86895   6.908   7.471   4.191 -0.4796 -0.7755 -0.0067
  659MOL0     C86896   7.032   7.539   4.119 -0.6471  0.3247 -0.3944
  659MOL0     C86897   7.015   7.692   4.093 -1.1321  0.9436 -0.2425
  659MOL0     C86898   7.020   7.772   4.225  0.0251 -0.5558  0.8266
  659MOL0     C86899   7.008   7.925   4.204  0.5106 -0.3268 -0.9141
  659MOL0    Cl86900   6.902   7.980   4.075  0.2840  0.7427  0.1910
  659MOL0     C86901   6.615   6.919   4.271 -0.1367  0.6841 -0.1611
  659MOL0     C86902   6.511   6.845   4.335  1.1894  0.3550  0.0824
  659MOL0     O86903   6.199   6.885   4.412  0.0175 -0.0341  0.2639
  659MOL0     C86904   6.183   6.598   4.611  0.4621  1.3617 -0.1412
  659MOL0     C86905   6.085   6.510   4.671 -0.4021 -0.3724  0.2813
  659MOL0     N86906   5.487   6.513   5.270 -0.4543  0.2217 -0.0024
  659MOL0     N86907   5.448   6.562   5.389 -0.2560 -0.4171 -0.0964
  659MOL0     C86908   5.497   7.462   6.276 -0.4330 -0.6319  0.4073
  659MOL0     C86909   5.398   7.550   6.330 -0.6370  0.1702 -0.3229
  659MOL0     C86910   5.211   7.918   6.477  0.1222 -0.2858 -0.3942
  659MOL0     C86911   5.072   7.907   6.449  0.5272 -0.4028  0.4088
  659MOL0     C86912   4.979   7.976   6.522  0.3483 -0.1181 -0.0227
  659MOL0     C86913   5.018   8.062   6.629  0.0128 -1.1591 -0.1702
  659MOL0     O86914   4.932   8.146   6.697  0.1739  0.3128  0.5589
  659MOL0     C86915   4.788   8.125   6.684 -0.8023 -0.0026  1.0359
  659MOL0     C86916   4.738   8.008   6.769 -0.9772  0.0352 -1.0387
  659MOL0     C86917   4.586   7.981   6.776 -0.1804 -0.3322 -0.2084
  659MOL0     C86918   4.529   7.944   6.632 -0.2313 -0.2049  0.1331
  659MOL0     C86919   4.568   7.808   6.587  0.4328  0.5946  0.0128
  659MOL0     C86920   4.589   7.694   6.547 -0.7136 -0.2104 -0.6183
  659MOL0     C86921   5.157   8.082   6.650 -1.1172  0.2278 -0.0938
  659MOL0     C86922   5.251   8.005   6.584 -0.0196  0.2483  0.2293
  659MOL0     H86923   5.404   7.795   6.095  3.7538  2.3864  3.0280
  659MOL0     H86924   5.564   7.651   5.987 -2.8042  0.8494 -0.7853
  659MOL0     H86925   5.723   7.374   5.915  2.1946  2.2605  3.4754
  659MOL0     H86926   5.566   7.434   5.932  3.0035  3.8739  0.3822
  659MOL0     H86927   5.462   7.250   6.060 -0.5307 -1.4676 -1.7313
  659MOL0     H86928   5.611   7.175   6.086 -2.0852  0.3649  1.1202
  659MOL0     H86929   5.645   7.138   5.840 -0.3802 -0.8286 -1.4323
  659MOL0     H86930   5.490   7.230   5.825  1.3437 -0.6068 -0.7001
  659MOL0     H86931   5.550   6.959   5.944  1.8631  0.0253 -2.7384
  659MOL0     H86932   5.385   7.029   5.955 -0.3270  0.0002  0.5196
  659MOL0     H86933   5.561   6.967   5.724 -0.2770  2.3934 -0.6108
  659MOL0     H86934   5.382   7.011   5.701 -0.3585 -1.9066 -1.3333
  659MOL0     H86935   5.299   6.833   5.765 -0.8190 -1.1223 -1.5078
  659MOL0     H86936   5.460   6.753   5.828 -1.2912 -0.0834  0.7264
  659MOL0     H86937   5.347   6.672   5.611  2.8553 -2.9767  0.1876
  659MOL0     H86938   5.390   6.823   5.534 -0.7796 -0.4666  0.0711
  659MOL0     H86939   5.594   6.620   5.664 -1.5738  1.2153  1.3249
  659MOL0     H86940   5.653   6.752   5.569  0.5342 -0.0519 -0.1735
  659MOL0     H86941   5.772   6.599   5.405  0.0778  4.4144  1.4296
  659MOL0     H86942   5.781   6.418   5.162 -0.1481  0.9501  1.1832
  659MOL0     H86943   5.775   6.579   5.121  1.0153  0.0526 -0.6713
  659MOL0     H86944   5.558   6.571   5.010  0.7425  0.5632  2.6144
  659MOL0     H86945   5.548   6.398   5.039 -3.6517  2.6901  0.2607
  659MOL0     H86946   5.750   6.342   4.929  4.3849  1.9202 -4.7491
  659MOL0     H86947   5.615   6.368   4.832  3.1981  1.5266 -5.5951
  659MOL0     H86948   5.797   6.605   4.897  0.2733  0.1538 -1.0884
  659MOL0     H86949   5.700   6.586   4.754 -1.0559  1.0699  1.3267
  659MOL0     H86950   5.804   6.669   4.576 -0.2827 -0.2630  3.4729
  659MOL0     H86951   5.960   6.813   4.471 -2.0291 -2.3119 -1.2102
  659MOL0     H86952   6.497   7.000   4.632 -0.1821 -1.2779  0.2640
  659MOL0     H86953   6.630   7.155   4.518 -1.5763 -1.9855  0.9266
  659MOL0     H86954   6.714   7.058   4.071  1.6688 -2.8017  0.7628
  659MOL0     H86955   6.883   7.050   4.126  1.3970  3.3086 -6.6286
  659MOL0     H86956   6.725   7.313   4.089  0.9314  1.2795 -2.5268
  659MOL0     H86957   6.852   7.252   3.986  2.1419 -1.2210  0.6872
  659MOL0     H86958   7.018   7.300   4.150 -1.1888 -0.7554 -3.8185
  659MOL0     H86959   6.916   7.289   4.294 -0.1377  0.0779 -0.2323
  659MOL0     H86960   6.816   7.510   4.146  0.0124  1.8084  1.0384
  659MOL0     H86961   6.896   7.503   4.295  0.3007 -4.2389  1.2703
  659MOL0     H86962   7.044   7.496   4.019  1.5555  1.1715 -0.5575
  659MOL0     H86963   7.122   7.533   4.181 -1.9258  0.3870  1.5828
  659MOL0     H86964   6.927   7.706   4.030 -2.0134 -1.9692  0.1627
  659MOL0     H86965   7.108   7.703   4.036  1.4124 -1.2198  3.1172
  659MOL0     H86966   6.937   7.743   4.290 -1.6628  1.6429 -0.2227
  659MOL0     H86967   7.109   7.764   4.288  0.6991 -0.3639 -0.0742
  659MOL0     H86968   7.103   7.965   4.168  1.2118 -1.1153  0.0061
  659MOL0     H86969   6.982   7.976   4.298  1.8570  1.0261 -1.2434
  659MOL0     H86970   6.667   6.877   4.185  1.3068 -1.0916  1.4984
  659MOL0     H86971   6.452   6.772   4.280  3.6064 -2.1674  0.6073
  659MOL0     H86972   6.287   6.571   4.599 -0.2607 -1.6074 -0.6989
  659MOL0     H86973   6.106   6.420   4.727 -1.0997 -0.3553  0.5873
  659MOL0     H86974   5.532   7.377   6.334  2.1179 -0.9694 -1.4548
  659MOL0     H86975   5.382   7.526   6.435 -1.0041  1.7695  0.0239
  659MOL0     H86976   5.035   7.845   6.368  2.9710 -0.8139 -0.4613
  659MOL0     H86977   4.879   7.964   6.483  0.3895  4.0231 -1.9330
  659MOL0     H86978   4.757   8.122   6.579  0.3318  1.3762  0.6282
  659MOL0     H86979   4.752   8.218   6.729  0.2846  0.7764  0.3197
  659MOL0     H86980   4.781   7.909   6.752  2.4052  1.5262 -2.0439
  659MOL0     H86981   4.762   8.034   6.873 -3.7732  3.1023 -0.9740
  659MOL0     H86982   4.549   8.077   6.812 -1.0531 -1.7415  3.0862
  659MOL0     H86983   4.563   7.907   6.853 -0.1989  1.4418  1.5834
  659MOL0     H86984   4.421   7.941   6.647  0.0324  0.7249  2.7358
  659MOL0     H86985   4.546   8.027   6.563  1.1356 -0.2135  0.4317
  659MOL0     H86986   4.610   7.598   6.505 -2.4822 -1.2653  0.7878
  659MOL0     H86987   5.194   8.158   6.718 -1.0456 -0.9894  1.2690
  659MOL0     H86988   5.356   8.022   6.604  0.4365 -0.5102 -1.4013
  660MOL0     O86989   4.171   4.004   7.134  0.8449  0.6365  0.0874
  660MOL0     C86990   4.085   4.010   7.047  0.4228 -0.4755 -0.1670
  660MOL0     O86991   4.095   4.100   6.932 -0.2143  0.1140 -0.4681
  660MOL0     C86992   4.211   4.170   6.908 -0.5361 -0.1080 -0.9902
  660MOL0     C86993   4.240   4.282   6.983  0.2120  0.0604 -0.6334
  660MOL0     C86994   4.353   4.361   6.964  0.2416 -0.9322  0.2097
  660MOL0     C86995   4.451   4.323   6.870 -1.0448  0.1134 -0.1439
  660MOL0     O86996   4.565   4.402   6.872  0.1932  1.0330 -0.3496
  660MOL0     C86997   4.675   4.350   6.795  0.7599 -0.5155  0.8893
  660MOL0     C86998   4.801   4.434   6.806  2.1699  0.2160  0.7765
  660MOL0     C86999   4.908   4.379   6.720 -0.2596 -0.4576 -0.2687
  660MOL0     C87000   5.043   4.449   6.746 -0.3281 -0.6472  0.7178
  660MOL0     C87001   5.160   4.374   6.669  0.6592 -0.7962  0.5620
  660MOL0     C87002   5.182   4.230   6.716 -0.9971 -0.4815 -0.2320
  660MOL0     C87003   5.230   4.229   6.861 -0.1296 -0.0505  0.3303
  660MOL0     C87004   5.287   4.097   6.892  0.5806  0.3963  0.3851
  660MOL0     N87005   5.294   4.048   7.034  0.3910 -1.0169 -0.0815
  660MOL0     C87006   5.398   4.070   7.119 -0.0367 -0.9972 -0.4529
  660MOL0     C87007   5.368   4.012   7.234  0.0257  0.1278  0.2406
  660MOL0     C87008   5.446   4.024   7.360 -0.5226 -0.1977 -0.7440
  660MOL0     C87009   5.588   4.074   7.342  0.0455 -0.0399 -0.2203
  660MOL0     C87010   5.681   3.976   7.277 -0.9612  0.2688  0.5434
  660MOL0     C87011   5.815   4.047   7.240 -0.9946 -0.1488  0.5188
  660MOL0     O87012   5.897   4.078   7.357  0.5628  0.0523  0.6825
  660MOL0     C87013   6.030   4.112   7.336 -0.2868  0.3642 -0.5340
  660MOL0     C87014   6.107   4.138   7.453 -0.2094  0.3387  1.2818
  660MOL0     C87015   6.245   4.174   7.456 -0.4766 -0.2707 -0.1547
  660MOL0     C87016   6.304   4.198   7.329  1.1559  0.2861 -0.2343
  660MOL0     C87017   6.442   4.253   7.317  0.0336  0.0822  0.2933
  660MOL0     O87018   6.483   4.285   7.192  0.0345  0.1414 -0.5805
  660MOL0     C87019   6.608   4.324   7.162 -0.0854  1.1538  0.0125
  660MOL0     C87020   6.685   4.243   7.083  0.0209  0.2871 -0.4971
  660MOL0     C87021   6.814   4.274   7.045 -0.4258 -0.8555  0.0415
  660MOL0     C87022   6.874   4.389   7.096 -0.4933  0.4076  0.0179
  660MOL0     O87023   7.006   4.433   7.077  0.9728  0.2713  1.2205
  660MOL0     C87024   7.047   4.471   6.943  0.6892  0.0917  0.2965
  660MOL0     C87025   7.120   4.604   6.951 -0.5458  0.0334 -0.1865
  660MOL0     C87026   7.191   4.631   6.817 -0.2263 -1.0211 -0.0988
  660MOL0     C87027   7.225   4.775   6.794  0.7791 -0.6096  0.3461
  660MOL0     C87028   7.330   4.850   6.886  0.2148  1.1143 -0.8086
  660MOL0     C87029   7.335   5.000   6.848 -0.1624 -0.4786 -0.6058
  660MOL0     C87030   7.422   5.077   6.952  0.2984  0.3437  0.1637
  660MOL0     C87031   7.482   5.207   6.891  0.2375  0.3463 -0.6908
  660MOL0    Cl87032   7.596   5.280   6.994 -0.2296 -0.5568  0.0087
  660MOL0     C87033   6.801   4.474   7.170 -0.8749  0.2930  1.0056
  660MOL0     C87034   6.669   4.441   7.200  0.2303 -0.3012 -1.0462
  660MOL0     O87035   6.511   4.279   7.414  0.3302 -0.8228 -0.5157
  660MOL0     C87036   6.223   4.180   7.210 -0.4602 -0.6886  0.3534
  660MOL0     C87037   6.091   4.134   7.212  0.7801 -0.1854  0.3986
  660MOL0     N87038   5.251   3.946   7.224 -0.6579  0.5901  0.2796
  660MOL0     N87039   5.207   3.964   7.096  0.3721  0.4694 -0.3195
  660MOL0     C87040   4.432   4.209   6.799 -0.1138 -0.1738  0.5959
  660MOL0     C87041   4.308   4.130   6.813 -0.1550  0.2132  0.7858
  660MOL0     C87042   3.963   3.933   7.060  0.1579  0.6398 -0.1363
  660MOL0     C87043   3.929   3.883   7.191 -0.1559  0.2260 -0.1807
  660MOL0     C87044   3.811   3.810   7.206 -0.0017 -0.2509  0.4709
  660MOL0     C87045   3.718   3.790   7.098 -0.0301 -1.5271  0.9342
  660MOL0     O87046   3.591   3.728   7.094 -0.7554 -0.0040  0.5149
  660MOL0     C87047   3.532   3.684   7.213 -0.7863 -0.2965 -0.4439
  660MOL0     C87048   3.412   3.590   7.187  0.4790 -0.0797 -0.2931
  660MOL0     C87049   3.285   3.658   7.141 -0.0934 -0.3462 -0.6594
  660MOL0     C87050   3.167   3.614   7.233 -1.0910  0.2752 -1.0965
  660MOL0     C87051   3.198   3.658   7.372  0.0629 -0.4962 -0.0253
  660MOL0     C87052   3.214   3.690   7.493 -0.3589 -0.0798 -0.0389
  660MOL0     C87053   3.761   3.840   6.970  0.5007 -0.4674  0.4802
  660MOL0     C87054   3.886   3.895   6.946 -0.4061 -0.0583 -0.4260
  660MOL0     H87055   4.170   4.309   7.062 -0.0239 -1.4328 -0.3016
  660MOL0     H87056   4.368   4.447   7.029  1.6635  0.8168 -2.2600
  660MOL0     H87057   4.640   4.359   6.692  0.6585 -0.8650  0.8931
  660MOL0     H87058   4.705   4.251   6.828 -1.6144 -0.6445  2.9954
  660MOL0     H87059   4.822   4.430   6.914 -2.6606 -1.7497  1.9071
  660MOL0     H87060   4.768   4.535   6.778 -2.8264 -1.4259 -0.2479
  660MOL0     H87061   4.882   4.389   6.615  2.2890 -1.9198 -1.1427
  660MOL0     H87062   4.920   4.271   6.737  4.5209  0.0264  1.0391
  660MOL0     H87063   5.036   4.552   6.710 -1.0162 -0.9012  0.0879
  660MOL0     H87064   5.068   4.455   6.852  2.7339 -0.8391  0.1116
  660MOL0     H87065   5.242   4.441   6.697 -3.5246  3.3466  4.7575
  660MOL0     H87066   5.159   4.377   6.559  2.6794 -3.1443  0.3876
  660MOL0     H87067   5.265   4.187   6.660 -0.2444  0.8612 -0.1941
  660MOL0     H87068   5.098   4.166   6.687 -1.0764 -0.8661  0.7791
  660MOL0     H87069   5.301   4.311   6.862  2.5013 -2.1976 -0.0931
  660MOL0     H87070   5.144   4.254   6.924 -1.5338 -0.1393 -1.4395
  660MOL0     H87071   5.386   4.093   6.845  1.1289  1.0202  1.4502
  660MOL0     H87072   5.223   4.020   6.848  0.3733  1.3572 -1.0605
  660MOL0     H87073   5.483   4.135   7.101 -0.3071 -0.8302 -1.1278
  660MOL0     H87074   5.453   3.933   7.420  0.6976  1.8860  2.5276
  660MOL0     H87075   5.391   4.094   7.423  0.8388  2.1291 -2.0028
  660MOL0     H87076   5.632   4.095   7.440 -2.0828 -1.6509  1.1617
  660MOL0     H87077   5.592   4.165   7.281  1.2293  0.4451  0.5247
  660MOL0     H87078   5.706   3.908   7.359  2.6590  3.6969  2.6583
  660MOL0     H87079   5.642   3.927   7.188  0.0457 -2.8434  1.6652
  660MOL0     H87080   5.797   4.137   7.181  0.6306 -0.9390 -1.3095
  660MOL0     H87081   5.869   3.969   7.185 -0.3550  0.9132 -0.4123
  660MOL0     H87082   6.054   4.128   7.547  0.7304 -1.5979  1.6535
  660MOL0     H87083   6.286   4.205   7.551  3.9585  3.6610 -2.8905
  660MOL0     H87084   6.647   4.149   7.046  1.8360  1.6252 -7.0625
  660MOL0     H87085   6.870   4.217   6.972 -0.5760  2.6683 -3.1310
  660MOL0     H87086   6.973   4.475   6.862  0.3810  0.4009  0.5866
  660MOL0     H87087   7.124   4.399   6.916  5.2393  2.7144  4.5851
  660MOL0     H87088   7.194   4.602   7.032 -1.0895 -0.5147  0.3158
  660MOL0     H87089   7.050   4.684   6.979 -0.0920  0.3115  0.1790
  660MOL0     H87090   7.127   4.608   6.732  0.6067  0.6474 -1.2410
  660MOL0     H87091   7.286   4.579   6.804  0.5752 -0.1054  1.6230
  660MOL0     H87092   7.275   4.789   6.698 -1.2319  0.7902 -0.5836
  660MOL0     H87093   7.132   4.831   6.800 -0.3595 -2.4538  0.7944
  660MOL0     H87094   7.431   4.808   6.881  0.8776  2.7699 -4.3674
  660MOL0     H87095   7.290   4.848   6.988 -0.0323  2.0693 -0.8807
  660MOL0     H87096   7.235   5.045   6.847 -0.1635 -0.4509 -0.0600
  660MOL0     H87097   7.382   4.998   6.750  1.8822 -2.5091  0.3045
  660MOL0     H87098   7.371   5.097   7.047 -1.1652 -6.8753  1.5317
  660MOL0     H87099   7.497   5.002   6.981 -0.8348 -1.0019 -0.2527
  660MOL0     H87100   7.404   5.272   6.852 -1.0364 -1.8263 -1.9731
  660MOL0     H87101   7.536   5.174   6.802 -2.8641  0.5961 -2.8338
  660MOL0     H87102   6.836   4.572   7.202 -2.0337  1.7907 -1.9374
  660MOL0     H87103   6.607   4.508   7.258  0.7425 -0.8900  0.1994
  660MOL0     H87104   6.279   4.192   7.118  2.8056  1.5263  2.4298
  660MOL0     H87105   6.033   4.137   7.120 -1.4563  1.1234  1.7566
  660MOL0     H87106   4.502   4.160   6.733 -1.4956 -1.9758  0.3851
  660MOL0     H87107   4.286   4.038   6.761  0.4327 -0.2899  1.4121
  660MOL0     H87108   3.991   3.896   7.279 -0.5835  0.0138  0.1566
  660MOL0     H87109   3.784   3.762   7.300  1.4298 -1.5741  0.2523
  660MOL0     H87110   3.499   3.773   7.268  2.0806  1.5864 -1.5061
  660MOL0     H87111   3.608   3.640   7.278 -1.1835 -4.0746 -2.2834
  660MOL0     H87112   3.430   3.524   7.101 -0.4915  2.7607 -2.8576
  660MOL0     H87113   3.405   3.516   7.267 -0.7428 -0.5214 -0.7947
  660MOL0     H87114   3.263   3.624   7.040  1.8628 -0.4323 -1.1041
  660MOL0     H87115   3.294   3.766   7.155  1.8834 -0.4796 -0.5791
  660MOL0     H87116   3.075   3.661   7.196 -0.9268  0.4012 -1.3497
  660MOL0     H87117   3.150   3.510   7.262  0.0122  0.6188  0.9315
  660MOL0     H87118   3.254   3.718   7.588  2.8474 -1.0924 -0.9390
  660MOL0     H87119   3.688   3.813   6.894 -1.1391 -0.3730  1.9382
  660MOL0     H87120   3.918   3.938   6.851  1.3047  0.2766  0.2727
  661MOL0     O87121   4.069   7.778  10.795 -0.0566  0.2944 -0.4785
  661MOL0     C87122   4.037   7.701  10.701  0.2625 -0.6311 -0.1679
  661MOL0     O87123   3.971   7.583  10.714  0.5277 -0.4868 -0.2386
  661MOL0     C87124   3.940   7.530  10.834  0.6583  0.8843 -1.3332
  661MOL0     C87125   3.870   7.414  10.832 -0.6972  0.4002 -0.4934
  661MOL0     C87126   3.840   7.336  10.940 -0.4717 -0.8724 -0.5227
  661MOL0     C87127   3.862   7.393  11.068 -0.7467  0.5424  0.0131
  661MOL0     O87128   3.810   7.341  11.185  0.0224  0.8503 -0.7448
  661MOL0     C87129   3.700   7.252  11.182 -0.1459 -0.6964 -0.0389
  661MOL0     C87130   3.655   7.217  11.325  0.5633  0.0790  0.1135
  661MOL0     C87131   3.580   7.339  11.383  0.1250 -0.0705 -0.0863
  661MOL0     C87132   3.532   7.317  11.524 -0.0110  0.1041  0.1833
  661MOL0     C87133   3.430   7.423  11.565 -0.3052  0.3378 -1.2143
  661MOL0     C87134   3.391   7.425  11.716 -1.1824  1.0710 -1.0871
  661MOL0     C87135   3.332   7.287  11.766 -0.7931 -0.2755 -0.3611
  661MOL0     C87136   3.277   7.283  11.913  0.1745  0.6576 -0.2250
  661MOL0     N87137   3.174   7.183  11.949 -0.1788  0.0492 -1.1610
  661MOL0     C87138   3.180   7.098  12.060  0.2435 -0.8189  0.1823
  661MOL0     C87139   3.065   7.022  12.046  0.5137 -1.3197  0.0140
  661MOL0     C87140   3.013   6.930  12.152  0.7078 -0.9867  0.4541
  661MOL0     C87141   3.031   6.788  12.129 -0.6301 -0.1643 -0.2498
  661MOL0     C87142   3.003   6.710  12.258  0.1923  0.3421  0.8294
  661MOL0     C87143   3.032   6.559  12.246 -0.5123  0.0665 -0.3631
  661MOL0     O87144   3.000   6.482  12.364  0.0415  1.1223 -0.0676
  661MOL0     C87145   2.866   6.432  12.371 -0.2994 -0.0400  0.1236
  661MOL0     C87146   2.782   6.483  12.470  0.1258  0.0180 -0.2111
  661MOL0     C87147   2.647   6.443  12.463  0.1647 -0.8337  0.0815
  661MOL0     C87148   2.606   6.335  12.377  0.2264  0.4404 -0.5605
  661MOL0     C87149   2.473   6.275  12.373  0.6859  0.2652 -0.5004
  661MOL0     O87150   2.463   6.165  12.308  0.4804  1.1018 -0.2587
  661MOL0     C87151   2.351   6.085  12.327 -0.4063  0.8512  0.2028
  661MOL0     C87152   2.290   6.049  12.447  0.7883 -0.6121  0.0330
  661MOL0     C87153   2.165   5.989  12.449  0.4711  0.4451 -0.0715
  661MOL0     C87154   2.117   5.926  12.334 -0.2330  0.9643  0.6758
  661MOL0     O87155   2.011   5.844  12.320 -0.5202 -0.5434 -0.1030
  661MOL0     C87156   1.908   5.839  12.419  0.5744  0.3539  0.4534
  661MOL0     C87157   1.816   5.715  12.394  0.4702 -0.9115 -0.5555
  661MOL0     C87158   1.759   5.681  12.528  1.3148  0.3589  0.5519
  661MOL0     C87159   1.657   5.565  12.511  0.2738 -0.5022  0.8551
  661MOL0     C87160   1.546   5.570  12.624  1.1354  0.7762  1.4221
  661MOL0     C87161   1.610   5.591  12.763  0.0817 -0.7177  0.3065
  661MOL0     C87162   1.523   5.550  12.877  0.5736  1.2872 -1.3493
  661MOL0     C87163   1.519   5.643  13.004  0.2312 -0.1645 -0.9631
  661MOL0    Cl87164   1.452   5.558  13.150  0.1280  0.1005  0.0281
  661MOL0     C87165   2.197   5.940  12.217 -0.0440 -0.1032  0.1723
  661MOL0     C87166   2.309   6.021  12.211 -0.6704 -0.2589 -0.3486
  661MOL0     O87167   2.387   6.332  12.437  0.0079 -0.2096 -0.1857
  661MOL0     C87168   2.694   6.283  12.288 -0.0443  0.3829  0.0208
  661MOL0     C87169   2.824   6.324  12.290  0.3391  0.6036  0.4599
  661MOL0     N87170   2.989   7.076  11.939 -0.8496 -0.5024 -0.6320
  661MOL0     N87171   3.053   7.169  11.886 -0.3125  0.0119  0.7975
  661MOL0     C87172   3.923   7.515  11.082  0.2766 -0.1953  0.0115
  661MOL0     C87173   3.965   7.577  10.965 -0.0364  0.0133 -0.9306
  661MOL0     C87174   4.076   7.753  10.573  0.2958  0.1869  0.3094
  661MOL0     C87175   4.073   7.666  10.460 -0.6841  1.0706  0.4683
  661MOL0     C87176   4.084   7.710  10.329 -0.8126  0.4781  0.0199
  661MOL0     C87177   4.115   7.853  10.298  0.5777 -0.0665 -0.2413
  661MOL0     O87178   4.133   7.896  10.166  0.0495  0.3908  0.2836
  661MOL0     C87179   4.075   7.825  10.056 -0.4925  0.5190 -0.1989
  661MOL0     C87180   4.030   7.910   9.942 -0.1563 -0.3373  1.0416
  661MOL0     C87181   3.905   7.997   9.976 -0.4719  0.6428  0.4296
  661MOL0     C87182   3.858   8.084   9.856 -0.1563 -0.0187 -0.5795
  661MOL0     C87183   3.813   8.014   9.733  0.3277  0.3850  0.7417
  661MOL0     C87184   3.799   7.946   9.633  0.7872  0.2614 -0.0504
  661MOL0     C87185   4.134   7.930  10.409 -0.4301  0.3320 -0.4538
  661MOL0     C87186   4.116   7.879  10.540 -0.1297 -0.0868 -0.1304
  661MOL0     H87187   3.840   7.378  10.734 -2.2795  1.4189 -0.4107
  661MOL0     H87188   3.786   7.243  10.939 -0.6553 -0.7630 -1.1147
  661MOL0     H87189   3.730   7.157  11.136  1.7389  0.0442 -0.4385
  661MOL0     H87190   3.619   7.306  11.132 -0.7546 -0.6399  0.9833
  661MOL0     H87191   3.741   7.192  11.389 -1.6128 -0.9475  2.8684
  661MOL0     H87192   3.590   7.130  11.322 -0.8729  1.1328 -0.5169
  661MOL0     H87193   3.484   7.344  11.332 -1.3359 -0.6846  2.4395
  661MOL0     H87194   3.644   7.428  11.385  2.2702 -1.5368  0.4799
  661MOL0     H87195   3.487   7.217  11.529  1.4882 -0.7976 -2.2741
  661MOL0     H87196   3.621   7.322  11.586  0.1079  0.5089 -0.0183
  661MOL0     H87197   3.337   7.400  11.513 -1.1933  0.3768  0.3038
  661MOL0     H87198   3.466   7.525  11.544 -0.3831  0.5436 -0.4065
  661MOL0     H87199   3.309   7.497  11.731 -0.9299  1.0431  0.5302
  661MOL0     H87200   3.475   7.462  11.775 -0.3123  0.1532 -1.7254
  661MOL0     H87201   3.245   7.258  11.706 -0.9958 -2.8678  1.0341
  661MOL0     H87202   3.418   7.219  11.757 -0.7440  0.0004 -2.4251
  661MOL0     H87203   3.222   7.377  11.930 -1.2326 -0.3317  0.9248
  661MOL0     H87204   3.355   7.261  11.986 -0.3525 -0.8515 -0.0908
  661MOL0     H87205   3.261   7.085  12.131  2.3272 -1.6619 -2.2188
  661MOL0     H87206   2.905   6.943  12.166  0.5684 -2.4433  0.9101
  661MOL0     H87207   3.069   6.959  12.241  0.9445  3.3970 -0.8717
  661MOL0     H87208   3.136   6.770  12.103 -0.4523 -0.0457  0.3590
  661MOL0     H87209   2.964   6.745  12.055  0.6861 -3.4579  0.2781
  661MOL0     H87210   3.064   6.749  12.340  0.4215  0.1675  0.7447
  661MOL0     H87211   2.897   6.722  12.281  0.4234  2.7168  0.9056
  661MOL0     H87212   3.137   6.544  12.217 -0.3138  1.1982 -0.2656
  661MOL0     H87213   2.970   6.525  12.163 -0.9965 -1.8561  0.7137
  661MOL0     H87214   2.825   6.567  12.523  0.4333  0.2132 -0.7703
  661MOL0     H87215   2.583   6.491  12.535  1.8697  1.6469  0.0578
  661MOL0     H87216   2.332   6.099  12.534  0.8889  0.3353 -0.5475
  661MOL0     H87217   2.103   5.983  12.538  2.6527  2.8408  1.7662
  661MOL0     H87218   1.852   5.933  12.418  0.4496  0.2720 -0.5192
  661MOL0     H87219   1.949   5.833  12.521 -0.0616 -0.0768  0.6983
  661MOL0     H87220   1.877   5.630  12.364  5.1271  2.3711 -1.5111
  661MOL0     H87221   1.731   5.744  12.331  0.0753 -2.0790 -0.5870
  661MOL0     H87222   1.699   5.770  12.551  1.0261  1.7170 -4.4192
  661MOL0     H87223   1.835   5.672  12.607  1.3759  0.6993  0.5323
  661MOL0     H87224   1.607   5.559  12.414 -0.8345  3.6090  0.9775
  661MOL0     H87225   1.721   5.476  12.510  0.7519 -0.4614 -4.6446
  661MOL0     H87226   1.489   5.477  12.633  2.0679  0.3033  2.9339
  661MOL0     H87227   1.466   5.639  12.598 -1.1200 -1.7170  1.2913
  661MOL0     H87228   1.630   5.696  12.786  0.3382 -1.1950  2.5767
  661MOL0     H87229   1.704   5.535  12.765 -0.1033 -1.1533 -1.5508
  661MOL0     H87230   1.419   5.535  12.845  0.0950 -1.2950  1.0392
  661MOL0     H87231   1.555   5.450  12.908 -2.8542  0.6331  0.6612
  661MOL0     H87232   1.465   5.736  12.986 -1.0019 -0.1381  2.2625
  661MOL0     H87233   1.624   5.661  13.032 -0.2204 -0.9237  1.4949
  661MOL0     H87234   2.165   5.892  12.124  4.1350  1.6221 -2.4360
  661MOL0     H87235   2.370   6.024  12.121 -0.9361  0.7548 -0.5024
  661MOL0     H87236   2.672   6.201  12.220  1.8385 -2.4217  2.5404
  661MOL0     H87237   2.888   6.269  12.222  1.3478  1.1237  0.9619
  661MOL0     H87238   3.954   7.540  11.183  1.3238 -3.9941  0.7950
  661MOL0     H87239   4.032   7.661  10.977 -0.6355  0.3997 -0.1927
  661MOL0     H87240   4.062   7.559  10.476  0.7559  0.7704 -0.3850
  661MOL0     H87241   4.057   7.638  10.252 -0.2347 -0.9581  1.1236
  661MOL0     H87242   3.995   7.760  10.092 -0.2077  0.6642  0.7164
  661MOL0     H87243   4.158   7.761  10.025  0.8126  0.9521  2.1922
  661MOL0     H87244   4.115   7.968   9.902 -0.9470  1.3389  1.6770
  661MOL0     H87245   3.998   7.843   9.862  0.5628  1.1950 -0.6248
  661MOL0     H87246   3.935   8.059  10.061 -1.4972  1.0234  0.5290
  661MOL0     H87247   3.824   7.928  10.005  0.3011 -1.7205 -2.4916
  661MOL0     H87248   3.772   8.142   9.892  0.6889  0.3663  0.8930
  661MOL0     H87249   3.932   8.158   9.824 -0.1007 -0.5201 -1.6610
  661MOL0     H87250   3.799   7.888   9.543  1.1399  0.7974 -0.3950
  661MOL0     H87251   4.161   8.032  10.383 -0.8539  0.1572 -1.6301
  661MOL0     H87252   4.109   7.956  10.616 -0.2084 -0.1586 -0.0642
  662MOL0     O87253   1.095   7.174  10.874  0.3164  0.8706  0.3179
  662MOL0     C87254   1.021   7.121  10.791  0.7933  0.3743  1.0393
  662MOL0     O87255   0.912   7.195  10.724 -0.5448  0.6764 -0.3276
  662MOL0     C87256   0.892   7.330  10.764 -0.3145 -0.4822  0.1724
  662MOL0     C87257   0.872   7.371  10.900 -0.2430 -0.3988  0.0671
  662MOL0     C87258   0.818   7.498  10.932  0.6745  1.0947 -0.5911
  662MOL0     C87259   0.804   7.592  10.836 -0.4208 -0.3486 -0.0713
  662MOL0     O87260   0.772   7.724  10.865  0.8206  0.0735  0.0264
  662MOL0     C87261   0.879   7.793  10.919  0.4564  0.4328 -0.6166
  662MOL0     C87262   0.832   7.930  10.918 -0.0514 -0.7734  0.3751
  662MOL0     C87263   0.922   8.025  11.011 -0.1915 -0.1818  0.8036
  662MOL0     C87264   0.863   8.174  11.026 -1.2450  1.7392 -0.1904
  662MOL0     C87265   0.968   8.251  11.104 -1.2518 -0.4583 -0.1818
  662MOL0     C87266   0.931   8.399  11.147 -0.7829 -0.0865  0.3678
  662MOL0     C87267   1.047   8.464  11.209 -0.3502 -0.1974 -0.1661
  662MOL0     C87268   1.001   8.569  11.294  0.4900 -0.3597 -0.1448
  662MOL0     N87269   1.112   8.632  11.359 -0.0340 -0.2974  0.7993
  662MOL0     C87270   1.209   8.716  11.297 -1.4782  0.5046  0.0620
  662MOL0     C87271   1.251   8.791  11.404 -0.1212  0.1473 -0.4984
  662MOL0     C87272   1.342   8.909  11.384  0.1133 -0.3663  0.2986
  662MOL0     C87273   1.472   8.910  11.470 -0.3657  0.1460  0.1146
  662MOL0     C87274   1.454   8.946  11.614 -0.0088 -0.4036  0.1627
  662MOL0     C87275   1.579   8.933  11.690 -0.0493 -0.1087  0.3736
  662MOL0     O87276   1.679   9.030  11.654  0.4440 -0.0984 -0.8905
  662MOL0     C87277   1.790   9.026  11.722  0.1188  0.3674 -0.2326
  662MOL0     C87278   1.835   8.929  11.816 -0.0169 -0.9707 -0.1793
  662MOL0     C87279   1.954   8.934  11.892 -0.1549 -0.3726  0.9585
  662MOL0     C87280   2.038   9.044  11.866  0.5127 -0.9215 -0.8886
  662MOL0     C87281   2.164   9.068  11.951  0.5028  0.2041  0.0182
  662MOL0     O87282   2.261   9.151  11.902 -0.1599  1.1783 -0.7053
  662MOL0     C87283   2.368   9.201  11.979 -0.0860  0.6695  0.1651
  662MOL0     C87284   2.350   9.329  12.035  0.1596  1.0495 -0.1318
  662MOL0     C87285   2.445   9.390  12.108 -1.1395 -0.4972  0.9079
  662MOL0     C87286   2.564   9.316  12.130  0.4842  0.1419  0.0517
  662MOL0     O87287   2.656   9.390  12.200 -0.7030  0.0843  0.6929
  662MOL0     C87288   2.744   9.322  12.288  0.0121 -0.1296 -0.0684
  662MOL0     C87289   2.861   9.420  12.320  0.0598  0.2468 -0.1144
  662MOL0     C87290   2.944   9.470  12.205 -0.0699 -0.0515 -0.9301
  662MOL0     C87291   2.927   9.617  12.171 -0.7299 -0.1230  0.2950
  662MOL0     C87292   2.800   9.643  12.097  0.0332  0.4235  0.3684
  662MOL0     C87293   2.754   9.785  12.067 -0.1590 -0.8006 -0.2659
  662MOL0     C87294   2.616   9.799  12.004  0.1516  0.3689 -0.9393
  662MOL0     C87295   2.605   9.923  11.908 -0.0328  0.5226  0.1314
  662MOL0    Cl87296   2.431   9.970  11.896 -0.4326 -0.2892 -0.2817
  662MOL0     C87297   2.590   9.189  12.073 -1.0312  0.3602  0.6650
  662MOL0     C87298   2.489   9.129  11.996 -0.5429  0.7579 -0.3604
  662MOL0     O87299   2.172   9.006  12.061 -0.0133  0.4740  0.3652
  662MOL0     C87300   2.014   9.141  11.768 -0.7717 -0.6715 -0.2095
  662MOL0     C87301   1.889   9.129  11.702 -0.1681 -0.5949 -0.2558
  662MOL0     N87302   1.186   8.757  11.521 -0.0690 -0.6816 -1.2646
  662MOL0     N87303   1.103   8.663  11.491 -0.5731 -0.8504 -0.2465
  662MOL0     C87304   0.828   7.554  10.696 -0.0092 -0.1036 -0.7220
  662MOL0     C87305   0.852   7.421  10.663 -0.0775  0.4029  0.6408
  662MOL0     C87306   1.031   6.980  10.746  0.0576  0.8156 -1.0595
  662MOL0     C87307   1.087   6.872  10.826  0.0074 -0.0499 -0.2525
  662MOL0     C87308   1.100   6.735  10.783  0.3078 -1.0346  0.3102
  662MOL0     C87309   1.036   6.702  10.664  1.0945 -0.3133 -0.4565
  662MOL0     O87310   0.999   6.583  10.617  0.2961  0.3440 -0.0286
  662MOL0     C87311   0.916   6.500  10.711 -0.1681  0.2004  0.4501
  662MOL0     C87312   0.779   6.557  10.717  0.3011 -0.0383  0.5363
  662MOL0     C87313   0.719   6.570  10.578  0.2747  1.0088  0.6606
  662MOL0     C87314   0.589   6.649  10.578  0.0553  1.6374  0.1035
  662MOL0     C87315   0.630   6.789  10.605  0.0354  0.7820  0.3969
  662MOL0     C87316   0.652   6.899  10.637  0.2044  0.4071 -0.1523
  662MOL0     C87317   0.988   6.803  10.576 -0.5832  0.0909 -0.8314
  662MOL0     C87318   0.986   6.939  10.619  0.8083  0.3318 -0.3987
  662MOL0     H87319   0.902   7.302  10.978 -3.6577 -0.1009  1.8690
  662MOL0     H87320   0.795   7.521  11.035 -0.4199 -0.6602 -0.4105
  662MOL0     H87321   0.977   7.782  10.872  1.2224  0.6540  0.8601
  662MOL0     H87322   0.895   7.764  11.023 -1.7718  0.0083 -0.3329
  662MOL0     H87323   0.732   7.929  10.963 -1.8568 -1.2900 -3.2535
  662MOL0     H87324   0.819   7.962  10.814 -2.1193  3.5359  1.7371
  662MOL0     H87325   1.028   8.024  10.982 -0.8791 -0.0546 -1.9320
  662MOL0     H87326   0.930   7.982  11.111 -1.8610  2.1483  2.0304
  662MOL0     H87327   0.855   8.216  10.925  0.2704 -0.2678 -1.2228
  662MOL0     H87328   0.763   8.169  11.070 -1.8850 -1.4761 -1.7693
  662MOL0     H87329   1.068   8.243  11.060 -0.9473  0.4870  0.3151
  662MOL0     H87330   0.983   8.194  11.195  2.3374  0.0201 -0.3364
  662MOL0     H87331   0.852   8.397  11.223 -0.9873  4.3318  0.5409
  662MOL0     H87332   0.905   8.447  11.052  2.1557  1.1951  0.1121
  662MOL0     H87333   1.107   8.392  11.265 -0.1128  1.1346  1.3503
  662MOL0     H87334   1.116   8.502  11.133  2.0104 -0.0333  1.9368
  662MOL0     H87335   0.934   8.537  11.374 -1.7878  0.6902 -1.5454
  662MOL0     H87336   0.942   8.637  11.233  1.4289  1.9971  1.4272
  662MOL0     H87337   1.246   8.741  11.199  0.8617  0.9322  0.9776
  662MOL0     H87338   1.277   8.997  11.393  3.8142  2.7956 -1.1209
  662MOL0     H87339   1.374   8.915  11.280 -1.0706  1.3928 -0.0163
  662MOL0     H87340   1.540   8.983  11.424 -1.0505  1.1261  0.6486
  662MOL0     H87341   1.518   8.814  11.442 -0.3218  1.0307 -3.3960
  662MOL0     H87342   1.437   9.054  11.613  2.3497  0.1126  2.5354
  662MOL0     H87343   1.374   8.890  11.662 -0.4106 -0.0709 -0.1181
  662MOL0     H87344   1.618   8.831  11.685  0.0199 -0.2115  2.2974
  662MOL0     H87345   1.540   8.949  11.791 -0.3492  2.1850 -0.0605
  662MOL0     H87346   1.771   8.844  11.838  1.0565 -1.7915 -0.1097
  662MOL0     H87347   1.972   8.844  11.951 -1.5575 -1.0495  0.4082
  662MOL0     H87348   2.253   9.377  12.029 -0.8914 -0.0945  4.0488
  662MOL0     H87349   2.420   9.491  12.138 -2.1500 -0.4794  0.0631
  662MOL0     H87350   2.794   9.240  12.236  1.0934  0.5335 -0.1149
  662MOL0     H87351   2.702   9.276  12.378  3.2280 -3.5769 -0.0823
  662MOL0     H87352   2.903   9.362  12.403 -3.2189 -1.1786  0.7154
  662MOL0     H87353   2.825   9.505  12.377 -0.2419 -0.7203  1.1743
  662MOL0     H87354   2.921   9.408  12.119  0.1960 -0.4378 -0.7268
  662MOL0     H87355   3.050   9.446  12.221  0.1284  2.3778  2.9042
  662MOL0     H87356   2.933   9.675  12.264 -0.5226 -0.5269  0.5357
  662MOL0     H87357   3.009   9.644  12.103 -1.7313 -0.9176 -1.2887
  662MOL0     H87358   2.717   9.608  12.159  0.4112  2.7999  2.3827
  662MOL0     H87359   2.811   9.590  12.002 -1.4671  1.6804 -0.5492
  662MOL0     H87360   2.828   9.831  12.001 -1.1945  1.4856  0.0514
  662MOL0     H87361   2.770   9.839  12.161  0.4905 -1.8492  0.2493
  662MOL0     H87362   2.596   9.704  11.953 -2.3603  0.2841  0.0476
  662MOL0     H87363   2.533   9.811  12.075 -2.5550 -1.9722 -3.3991
  662MOL0     H87364   2.640   9.886  11.811  3.4686 -0.1059  1.4885
  662MOL0     H87365   2.663  10.009  11.944  0.5739 -0.4583  1.6249
  662MOL0     H87366   2.685   9.135  12.071  2.7433  5.8087 -4.6444
  662MOL0     H87367   2.509   9.034  11.949 -1.9846 -1.5877  3.3119
  662MOL0     H87368   2.089   9.218  11.752  0.2069 -1.5297  0.1823
  662MOL0     H87369   1.856   9.202  11.629 -3.2941 -1.0449  0.5303
  662MOL0     H87370   0.804   7.631  10.623  1.4755  2.8313  1.6383
  662MOL0     H87371   0.841   7.393  10.559  0.5084 -1.2493  0.9957
  662MOL0     H87372   1.132   6.905  10.919  0.1043  0.4836 -0.4890
  662MOL0     H87373   1.151   6.667  10.850  1.6550  0.2399  0.6391
  662MOL0     H87374   0.964   6.495  10.809 -1.0346 -2.7263  0.8075
  662MOL0     H87375   0.896   6.400  10.672 -5.1384  0.4072  1.7770
  662MOL0     H87376   0.718   6.495  10.783 -0.0020 -0.8040 -0.4413
  662MOL0     H87377   0.795   6.660  10.750 -2.7783  1.9030 -3.0479
  662MOL0     H87378   0.708   6.464  10.551  1.5489  0.3674  2.5039
  662MOL0     H87379   0.783   6.615  10.503  0.8499  1.8123  1.6154
  662MOL0     H87380   0.537   6.649  10.482 -1.8922  1.7273  1.1121
  662MOL0     H87381   0.513   6.604  10.643 -0.0836 -1.3535 -1.9653
  662MOL0     H87382   0.672   6.998  10.671 -3.6107  0.4815  2.5476
  662MOL0     H87383   0.956   6.790  10.473 -0.8618 -0.5831 -0.6653
  662MOL0     H87384   0.938   7.001  10.544 -0.8457 -0.0849  0.2783
  663MOL0     O87385  10.064   8.530   4.326 -0.3771 -0.4457  0.0324
  663MOL0     C87386  10.003   8.460   4.409  0.6104 -0.3668 -0.1247
  663MOL0     O87387  10.036   8.335   4.450 -0.4337 -0.1104 -0.2812
  663MOL0     C87388  10.159   8.282   4.420 -0.3721 -0.1193  0.2106
  663MOL0     C87389  10.209   8.267   4.294  1.0241  0.0925 -0.3124
  663MOL0     C87390  10.328   8.206   4.269  0.2902 -0.6851  0.7093
  663MOL0     C87391  10.409   8.155   4.376 -0.1118  0.3742 -0.0336
  663MOL0     O87392  10.535   8.102   4.356 -0.0006 -0.5274  0.1768
  663MOL0     C87393  10.541   7.971   4.304  0.0284  0.1914  0.3746
  663MOL0     C87394  10.685   7.959   4.261 -0.2097 -0.5235 -0.4223
  663MOL0     C87395  10.722   7.832   4.185  0.1953  0.0383 -0.1884
  663MOL0     C87396  10.870   7.849   4.134  0.0877 -0.4548  0.6981
  663MOL0     C87397  10.897   7.759   4.013 -0.8749  0.2762 -1.7233
  663MOL0     C87398  10.894   7.618   4.055  0.3580 -0.4416  0.3741
  663MOL0     C87399  10.967   7.520   3.968 -0.1066 -0.1670  0.3182
  663MOL0     C87400  10.947   7.374   3.999  1.2765  0.4693 -1.4658
  663MOL0     N87401  11.032   7.303   3.899  0.6635 -0.1820 -0.0460
  663MOL0     C87402  10.992   7.289   3.764  0.0686  0.7857  0.0136
  663MOL0     C87403  11.100   7.230   3.702 -0.6871 -0.7469  0.2296
  663MOL0     C87404  11.103   7.198   3.558 -0.4780  1.1279  0.6532
  663MOL0     C87405  11.154   7.058   3.523 -0.5037 -0.6502  0.2772
  663MOL0     C87406  11.053   6.942   3.506  1.3275  0.0185 -0.9209
  663MOL0     C87407  10.949   6.964   3.392  0.7877 -0.1226 -0.5897
  663MOL0     O87408  11.029   7.026   3.290  0.1771  0.3614  0.0758
  663MOL0     C87409  11.042   6.955   3.171  0.4891  0.1141  0.0722
  663MOL0     C87410  11.163   6.922   3.123 -0.8782 -0.1278  0.0315
  663MOL0     C87411  11.177   6.848   3.001 -0.1873 -0.6947  0.3801
  663MOL0     C87412  11.063   6.810   2.923  0.8970 -1.0443  0.1373
  663MOL0     C87413  11.057   6.749   2.793 -0.7828 -0.3519  0.3385
  663MOL0     O87414  10.959   6.665   2.754 -0.3065 -0.5789 -0.0773
  663MOL0     C87415  10.973   6.597   2.635  0.2058 -0.0693 -0.2263
  663MOL0     C87416  10.944   6.464   2.631  0.3957 -0.4366  0.3029
  663MOL0     C87417  10.946   6.395   2.507 -0.6373 -0.1945  0.3142
  663MOL0     C87418  10.979   6.457   2.392  0.0708 -0.4393  0.1792
  663MOL0     O87419  11.006   6.376   2.284  0.1555  0.9176  0.1662
  663MOL0     C87420  10.960   6.422   2.147  0.0688 -0.5331  0.1294
  663MOL0     C87421  11.038   6.342   2.040 -0.0299 -0.4114 -0.2393
  663MOL0     C87422  11.024   6.428   1.907 -0.3860  0.0674  0.2509
  663MOL0     C87423  11.060   6.342   1.782 -0.4060 -0.3919 -0.9096
  663MOL0     C87424  11.063   6.418   1.650 -1.0689  0.4363 -0.5864
  663MOL0     C87425  11.052   6.335   1.530  0.1208  0.0597 -0.1549
  663MOL0     C87426  11.072   6.435   1.408 -0.4779 -0.5956  0.4722
  663MOL0     C87427  11.092   6.368   1.270 -0.4457 -0.3904 -0.0170
  663MOL0    Cl87428  10.927   6.304   1.221 -0.0063  0.0077  0.7398
  663MOL0     C87429  11.007   6.601   2.392 -0.0156  1.4543 -0.1696
  663MOL0     C87430  10.993   6.665   2.510  0.1669 -0.6187 -0.2872
  663MOL0     O87431  11.158   6.771   2.721 -0.1195  0.7092 -0.6820
  663MOL0     C87432  10.937   6.848   2.973  0.4443 -0.8375  1.5608
  663MOL0     C87433  10.922   6.922   3.095 -0.3186  1.3550  0.0185
  663MOL0     N87434  11.201   7.224   3.795 -0.1277  0.0635  0.3497
  663MOL0     N87435  11.153   7.252   3.908 -0.1327  0.3469 -0.7738
  663MOL0     C87436  10.358   8.166   4.505 -0.4343  0.2022 -0.0553
  663MOL0     C87437  10.232   8.232   4.528  0.0189 -0.2218  0.2523
  663MOL0     C87438   9.880   8.514   4.470 -0.2480  0.4996 -0.6769
  663MOL0     C87439   9.773   8.437   4.534  0.3537  0.0374  0.0006
  663MOL0     C87440   9.668   8.516   4.598 -0.3817  0.8406  0.4239
  663MOL0     C87441   9.664   8.654   4.599 -0.2243  0.0920 -0.0424
  663MOL0     O87442   9.575   8.738   4.654  0.4910 -0.5950  0.0408
  663MOL0     C87443   9.463   8.683   4.726 -0.0604 -0.1393  1.1395
  663MOL0     C87444   9.412   8.808   4.791  0.0448 -0.0453 -1.2523
  663MOL0     C87445   9.270   8.809   4.851 -0.7051  0.1987  0.8101
  663MOL0     C87446   9.267   8.712   4.973  0.2900  0.0970 -0.8239
  663MOL0     C87447   9.124   8.697   5.015 -0.5762  0.2558 -0.8079
  663MOL0     C87448   9.017   8.685   5.052  0.5787 -0.1574 -0.0659
  663MOL0     C87449   9.770   8.720   4.537  0.0022  0.0663  0.0675
  663MOL0     C87450   9.863   8.655   4.464 -0.1128 -0.6592  0.3718
  663MOL0     H87451  10.141   8.287   4.212 -0.1398  1.6678  0.9842
  663MOL0     H87452  10.379   8.193   4.174  2.2448  0.4383  1.5497
  663MOL0     H87453  10.469   7.955   4.223  1.8487  0.5949 -1.4011
  663MOL0     H87454  10.511   7.906   4.388 -4.5894 -0.8903 -1.7681
  663MOL0     H87455  10.754   7.970   4.346  2.0048 -3.2774 -1.7083
  663MOL0     H87456  10.676   8.038   4.186 -4.1569 -0.8103 -0.4698
  663MOL0     H87457  10.657   7.820   4.098 -0.0019 -6.4171  0.3977
  663MOL0     H87458  10.716   7.749   4.255  0.2229 -1.3298 -1.7406
  663MOL0     H87459  10.894   7.950   4.099 -2.1979 -0.0329  0.2043
  663MOL0     H87460  10.940   7.827   4.215  1.1139 -1.7895 -0.4963
  663MOL0     H87461  10.997   7.777   3.972 -0.0069  1.5865  0.7267
  663MOL0     H87462  10.836   7.802   3.933 -2.1738 -1.6139 -1.8083
  663MOL0     H87463  10.792   7.579   4.045 -1.4089  3.6287  0.8937
  663MOL0     H87464  10.938   7.605   4.154 -0.5347 -2.6828  0.5607
  663MOL0     H87465  10.918   7.546   3.874 -1.2599  0.2572  1.0216
  663MOL0     H87466  11.074   7.541   3.961  0.1415 -1.2917  0.4979
  663MOL0     H87467  10.842   7.346   4.006  1.2442  0.9978  1.1780
  663MOL0     H87468  10.979   7.350   4.100 -3.7007 -0.7629  0.0816
  663MOL0     H87469  10.892   7.299   3.723 -0.2044  1.3211  0.7939
  663MOL0     H87470  11.163   7.282   3.521 -0.3109  0.0050 -1.7875
  663MOL0     H87471  11.010   7.203   3.502  0.1240  0.6913 -0.4217
  663MOL0     H87472  11.219   7.032   3.607  3.5988  5.4887 -0.4265
  663MOL0     H87473  11.216   7.066   3.434 -1.9932  3.3412 -0.5918
  663MOL0     H87474  11.094   6.844   3.479  1.8018  0.5499 -2.1888
  663MOL0     H87475  11.002   6.930   3.602 -0.9421  1.7316 -1.8370
  663MOL0     H87476  10.867   7.028   3.426  0.3583 -0.5670 -0.7824
  663MOL0     H87477  10.901   6.868   3.367  0.8102 -0.0957 -0.7363
  663MOL0     H87478  11.246   6.959   3.184  0.5519  2.0229 -2.9869
  663MOL0     H87479  11.270   6.813   2.958 -0.5095  0.3928 -1.2925
  663MOL0     H87480  10.939   6.408   2.724 -1.7452  0.1950  0.6224
  663MOL0     H87481  10.934   6.288   2.500 -0.7735 -0.0434 -3.9123
  663MOL0     H87482  10.989   6.527   2.134 -1.8804  0.1592  0.9117
  663MOL0     H87483  10.853   6.417   2.124  0.2174 -2.0941 -0.3537
  663MOL0     H87484  11.002   6.240   2.025  1.1235 -1.0864  1.3891
  663MOL0     H87485  11.145   6.337   2.059  0.4855 -1.8603 -2.9723
  663MOL0     H87486  11.101   6.504   1.921  0.8141 -0.3894 -2.8995
  663MOL0     H87487  10.923   6.468   1.906 -0.2244  0.7450  3.1469
  663MOL0     H87488  11.159   6.311   1.816 -0.7148 -0.0083  0.3979
  663MOL0     H87489  11.007   6.246   1.780 -1.1869  0.0261 -0.7068
  663MOL0     H87490  11.157   6.473   1.651 -1.5871  1.3743 -1.9195
  663MOL0     H87491  10.975   6.482   1.641 -0.6748  1.2404  0.8697
  663MOL0     H87492  10.948   6.301   1.523 -1.4429  3.3684  3.3272
  663MOL0     H87493  11.124   6.253   1.529  0.3714  0.2289  1.5490
  663MOL0     H87494  10.992   6.509   1.414  0.6478  0.5666  1.9905
  663MOL0     H87495  11.163   6.495   1.423 -0.2463 -0.1913 -2.0317
  663MOL0     H87496  11.177   6.299   1.280 -0.6542 -0.8472 -1.2071
  663MOL0     H87497  11.123   6.449   1.204  3.3265 -2.3558 -0.9645
  663MOL0     H87498  11.026   6.651   2.297  0.7228 -1.5681 -1.7447
  663MOL0     H87499  11.024   6.768   2.520 -1.7310  0.1004 -1.4039
  663MOL0     H87500  10.855   6.818   2.909  0.8799 -1.6986  1.3879
  663MOL0     H87501  10.831   6.954   3.146  1.2139  3.0289  1.8977
  663MOL0     H87502  10.416   8.124   4.587  1.5952 -2.0649 -2.4896
  663MOL0     H87503  10.189   8.230   4.628  0.2329  1.6018  0.4233
  663MOL0     H87504   9.769   8.329   4.530  0.0721  0.0531 -0.1385
  663MOL0     H87505   9.609   8.456   4.667  0.1103  0.6169  0.6558
  663MOL0     H87506   9.505   8.608   4.794  0.8568 -1.1321 -0.4743
  663MOL0     H87507   9.398   8.630   4.655  2.3286  0.7726 -1.9205
  663MOL0     H87508   9.471   8.838   4.878 -1.5459  0.0785 -0.1900
  663MOL0     H87509   9.428   8.890   4.720  3.5683 -0.5579 -1.2432
  663MOL0     H87510   9.184   8.777   4.792 -1.7819 -1.1700  3.0001
  663MOL0     H87511   9.244   8.911   4.881  0.3973 -0.1665  3.2577
  663MOL0     H87512   9.307   8.613   4.948 -0.6444 -1.3626  2.8938
  663MOL0     H87513   9.319   8.750   5.061  1.5609 -2.6473 -0.2811
  663MOL0     H87514   8.915   8.663   5.077 -0.6218  3.5837 -0.9506
  663MOL0     H87515   9.777   8.828   4.540  3.1333 -0.0538  2.0720
  663MOL0     H87516   9.942   8.715   4.420 -1.5578  1.2343  0.2422
  664MOL0     O87517   2.420  10.980   1.882  0.0566 -0.2687  0.1264
  664MOL0     C87518   2.366  10.932   1.782  0.0673  0.4206 -0.9794
  664MOL0     O87519   2.231  10.885   1.786  0.5899  0.2893 -0.8311
  664MOL0     C87520   2.162  10.881   1.902  0.6869  1.2144 -0.4800
  664MOL0     C87521   2.201  10.837   2.034  0.6143 -0.5155  0.4412
  664MOL0     C87522   2.102  10.842   2.134 -0.4617 -0.6520  0.0946
  664MOL0     C87523   1.969  10.874   2.107  0.8265  0.8472 -0.2923
  664MOL0     O87524   1.877  10.851   2.211 -0.1698  0.7287  0.4029
  664MOL0     C87525   1.758  10.773   2.183  0.4220  0.0567 -0.2456
  664MOL0     C87526   1.724  10.685   2.311  0.3814  0.1723  0.1517
  664MOL0     C87527   1.836  10.577   2.334 -0.5912 -0.1184 -1.1232
  664MOL0     C87528   1.812  10.496   2.464  0.1540 -1.3463  0.1206
  664MOL0     C87529   1.910  10.377   2.477 -0.1022 -0.6137 -0.1862
  664MOL0     C87530   1.845  10.272   2.568 -0.6467 -0.4987  0.1202
  664MOL0     C87531   1.940  10.157   2.598  0.4184  0.5779 -0.0946
  664MOL0     C87532   1.982  10.064   2.482  0.5222  0.4975 -1.0770
  664MOL0     N87533   1.854  10.009   2.429  0.2951  0.8472 -0.6168
  664MOL0     C87534   1.840   9.956   2.306 -0.5866 -0.4957 -0.3593
  664MOL0     C87535   1.712   9.898   2.300 -0.8582 -0.6181  0.0081
  664MOL0     C87536   1.669   9.857   2.162 -0.9643  0.2561  0.1275
  664MOL0     C87537   1.524   9.823   2.157  0.5706 -0.2401  0.1359
  664MOL0     C87538   1.486   9.811   2.007 -0.1029 -0.5098 -0.1385
  664MOL0     C87539   1.333   9.781   1.982  0.1514  0.2743 -0.6911
  664MOL0     O87540   1.313   9.644   1.948 -1.3246 -0.6648  0.0733
  664MOL0     C87541   1.358   9.602   1.819 -0.9025 -0.7550 -0.6227
  664MOL0     C87542   1.420   9.694   1.724 -0.1058 -1.2255 -0.0592
  664MOL0     C87543   1.485   9.644   1.616 -0.3768 -0.2218 -0.2630
  664MOL0     C87544   1.497   9.506   1.596  0.5370 -0.0389  1.0460
  664MOL0     C87545   1.556   9.452   1.470 -0.4899 -0.0814  0.5435
  664MOL0     O87546   1.586   9.313   1.453  0.0426 -0.7524 -0.6696
  664MOL0     C87547   1.666   9.276   1.348  0.2466 -0.0829 -0.5005
  664MOL0     C87548   1.616   9.161   1.287 -0.1787  0.5350 -0.5602
  664MOL0     C87549   1.688   9.107   1.188  0.1331  0.5153  0.3119
  664MOL0     C87550   1.806   9.170   1.144  0.8820  0.3177  0.5510
  664MOL0     O87551   1.850   9.106   1.034 -0.0649 -0.2120  0.4314
  664MOL0     C87552   1.987   9.094   1.004  0.5714  0.2743  0.3366
  664MOL0     C87553   2.031   8.952   1.001  0.3982 -0.3430  0.2799
  664MOL0     C87554   1.969   8.873   0.884  0.8345 -0.0426  0.1998
  664MOL0     C87555   2.033   8.734   0.874 -0.4209 -0.7813  0.3384
  664MOL0     C87556   1.976   8.647   0.762  1.2709 -0.4142  0.5635
  664MOL0     C87557   2.044   8.515   0.754 -0.2812  0.3965  0.4735
  664MOL0     C87558   2.013   8.403   0.855  0.0037  0.7588 -1.1404
  664MOL0     C87559   1.964   8.265   0.799 -0.2757 -0.2610  0.8134
  664MOL0    Cl87560   2.096   8.192   0.696  0.2403  0.4088  0.6227
  664MOL0     C87561   1.854   9.285   1.214  0.1521  0.5115  0.4977
  664MOL0     C87562   1.791   9.337   1.316  0.1223 -0.4538  0.5461
  664MOL0     O87563   1.598   9.541   1.395  0.0071 -0.2222  0.2041
  664MOL0     C87564   1.424   9.421   1.676  0.7077 -0.1614 -0.7265
  664MOL0     C87565   1.355   9.468   1.787 -0.2115 -1.0376 -1.2204
  664MOL0     N87566   1.654   9.913   2.425 -0.7628  0.2734  0.3518
  664MOL0     N87567   1.744   9.960   2.500  0.2860  0.9888 -0.1449
  664MOL0     C87568   1.935  10.911   1.978 -0.1122 -0.1581 -0.1434
  664MOL0     C87569   2.038  10.914   1.878 -0.3106  0.2835 -1.0908
  664MOL0     C87570   2.454  10.901   1.671 -0.0394  0.2666  0.7936
  664MOL0     C87571   2.400  10.872   1.550 -0.9870 -0.4181 -0.2526
  664MOL0     C87572   2.474  10.850   1.439 -0.2277 -0.5157  0.0273
  664MOL0     C87573   2.614  10.837   1.442 -0.0777  0.2868  0.1215
  664MOL0     O87574   2.677  10.811   1.324 -0.4419  0.1159 -0.5026
  664MOL0     C87575   2.817  10.811   1.311  0.5049 -0.4848  0.3042
  664MOL0     C87576   2.876  10.728   1.193  0.8238  0.0927  0.5535
  664MOL0     C87577   2.800  10.762   1.069  0.0903 -0.2045  0.2510
  664MOL0     C87578   2.867  10.713   0.942  1.1726  0.7030 -0.3962
  664MOL0     C87579   2.991  10.783   0.917 -0.1188 -0.5652 -0.2101
  664MOL0     C87580   3.098  10.834   0.896  0.4961 -0.2979 -0.2558
  664MOL0     C87581   2.673  10.870   1.564 -0.7266  0.1321 -0.0534
  664MOL0     C87582   2.597  10.895   1.676 -0.1169  0.8595  0.3730
  664MOL0     H87583   2.304  10.802   2.041 -0.0523 -2.6518  0.4000
  664MOL0     H87584   2.143  10.821   2.232  2.7719  0.8798 -0.7612
  664MOL0     H87585   1.781  10.699   2.106  3.3783  0.1001  0.4614
  664MOL0     H87586   1.681  10.845   2.155 -3.3142 -1.3566  4.8461
  664MOL0     H87587   1.643  10.619   2.278  2.0390 -1.1742 -1.4402
  664MOL0     H87588   1.703  10.739   2.403 -0.1994 -1.2427  0.8779
  664MOL0     H87589   1.927  10.635   2.352 -1.0590  0.7881 -1.5903
  664MOL0     H87590   1.860  10.518   2.246  3.3778  2.7985 -2.3046
  664MOL0     H87591   1.823  10.554   2.557  4.2536  2.6266 -2.4688
  664MOL0     H87592   1.707  10.471   2.443 -0.8611  3.0883 -1.0894
  664MOL0     H87593   2.005  10.405   2.524  0.4181 -0.9036 -1.0334
  664MOL0     H87594   1.923  10.337   2.376  0.0903 -0.1593 -0.3430
  664MOL0     H87595   1.746  10.246   2.529 -0.9020 -2.1470  1.7535
  664MOL0     H87596   1.836  10.312   2.669  0.8805  0.0519  0.0645
  664MOL0     H87597   2.031  10.190   2.649  0.8420 -0.2707 -0.2971
  664MOL0     H87598   1.890  10.095   2.674  2.1569  0.9378  1.4294
  664MOL0     H87599   2.042   9.986   2.530  2.0551  2.0201 -0.4284
  664MOL0     H87600   2.036  10.111   2.400  0.1812  1.2984 -0.8518
  664MOL0     H87601   1.908   9.955   2.221  1.7406 -2.9291  1.3447
  664MOL0     H87602   1.730   9.776   2.119 -2.6423 -1.3450  0.6340
  664MOL0     H87603   1.694   9.940   2.095  1.7885 -0.2533  0.4160
  664MOL0     H87604   1.472   9.911   2.198  1.3716  1.4066 -2.1596
  664MOL0     H87605   1.505   9.729   2.210  2.0540  0.6014  2.3010
  664MOL0     H87606   1.514   9.897   1.945  1.7075 -2.2172 -1.8434
  664MOL0     H87607   1.553   9.737   1.962  0.7900  0.3677 -0.3039
  664MOL0     H87608   1.278   9.853   1.921 -0.8738 -0.5440 -0.7583
  664MOL0     H87609   1.272   9.785   2.073 -0.5948 -2.8911 -0.9076
  664MOL0     H87610   1.431   9.800   1.742 -3.0012 -1.0315  1.1121
  664MOL0     H87611   1.531   9.713   1.546  4.6218 -1.4418  1.3959
  664MOL0     H87612   1.528   9.106   1.319  0.1767  0.4778  0.3691
  664MOL0     H87613   1.649   9.011   1.158 -0.6991  0.9120  0.1040
  664MOL0     H87614   2.040   9.146   1.085  0.5896  0.8648 -0.0451
  664MOL0     H87615   2.026   9.137   0.911 -0.8939  3.2936  0.9829
  664MOL0     H87616   2.005   8.896   1.091  2.7670  0.7365  1.7231
  664MOL0     H87617   2.138   8.945   0.978 -0.2874 -0.1506 -3.6977
  664MOL0     H87618   1.996   8.935   0.798  1.2553  3.1887  2.4949
  664MOL0     H87619   1.860   8.864   0.887  0.9835 -1.8233  0.8580
  664MOL0     H87620   2.139   8.747   0.851 -1.0429  3.9124 -0.9942
  664MOL0     H87621   2.008   8.686   0.969 -2.5868  0.5046  0.4965
  664MOL0     H87622   1.995   8.700   0.669 -2.2161 -0.6826 -0.4325
  664MOL0     H87623   1.868   8.632   0.764  1.4506 -1.8731  0.2645
  664MOL0     H87624   2.151   8.535   0.766 -0.3950  0.6139  1.1871
  664MOL0     H87625   2.029   8.482   0.651  0.1968  3.1655 -0.5738
  664MOL0     H87626   2.100   8.377   0.915  0.3828  2.7919 -0.7240
  664MOL0     H87627   1.936   8.438   0.924  1.3036  0.1377  0.6825
  664MOL0     H87628   1.874   8.279   0.739  1.2071  4.1093 -0.7709
  664MOL0     H87629   1.936   8.195   0.878 -2.4659  2.9912  3.1706
  664MOL0     H87630   1.952   9.323   1.188 -1.3079  2.0829 -3.4554
  664MOL0     H87631   1.832   9.423   1.369  1.9634 -0.1966 -1.1709
  664MOL0     H87632   1.429   9.315   1.653  0.3428 -0.3955  0.2304
  664MOL0     H87633   1.310   9.412   1.869  0.4693  1.3524  0.8996
  664MOL0     H87634   1.830  10.934   1.961  0.3631  1.1695 -1.4987
  664MOL0     H87635   2.016  10.943   1.775  1.4224 -1.3765 -1.9919
  664MOL0     H87636   2.292  10.871   1.548 -0.9754 -1.0893 -1.4134
  664MOL0     H87637   2.434  10.810   1.347  0.7535 -0.2350 -0.5410
  664MOL0     H87638   2.857  10.763   1.401  2.2265 -0.8153 -0.5891
  664MOL0     H87639   2.849  10.915   1.308 -3.0186  0.7509  1.3302
  664MOL0     H87640   2.981  10.755   1.178  0.2743  1.6920 -0.7368
  664MOL0     H87641   2.872  10.622   1.219 -1.0668  0.4079  1.7501
  664MOL0     H87642   2.786  10.870   1.062 -1.1584 -0.2048  1.8695
  664MOL0     H87643   2.705  10.708   1.079  0.0770  0.0406  1.6195
  664MOL0     H87644   2.886  10.606   0.948  0.1192  0.4532 -1.2701
  664MOL0     H87645   2.803  10.746   0.859  0.6474 -1.7206 -1.0268
  664MOL0     H87646   3.177  10.902   0.872 -0.4792  1.0135  0.1344
  664MOL0     H87647   2.780  10.873   1.580 -0.7678  0.9467  0.0830
  664MOL0     H87648   2.639  10.912   1.775  2.1654 -2.6320  0.2113
  665MOL0     O87649   6.861   7.352   2.970 -0.0280 -0.2821 -0.1104
  665MOL0     C87650   6.781   7.448   2.950 -1.0196  0.6581  0.1919
  665MOL0     O87651   6.814   7.579   2.960  0.2328  0.8670  0.3657
  665MOL0     C87652   6.945   7.611   2.959 -0.4324 -0.0651  0.6529
  665MOL0     C87653   7.040   7.558   3.045  0.2588 -0.7959  0.1093
  665MOL0     C87654   7.175   7.610   3.042  0.6332  0.5773  0.2833
  665MOL0     C87655   7.214   7.697   2.943  0.5122  0.0925 -0.1787
  665MOL0     O87656   7.343   7.709   2.933 -0.2509 -0.0318  0.2383
  665MOL0     C87657   7.395   7.822   2.853 -0.2382  0.1594  0.8277
  665MOL0     C87658   7.352   7.963   2.896 -0.0781  0.2364 -0.5803
  665MOL0     C87659   7.457   8.071   2.857 -0.6085 -0.1167  1.2644
  665MOL0     C87660   7.445   8.114   2.711  0.0602 -0.5908 -0.9198
  665MOL0     C87661   7.489   8.024   2.604 -0.2104 -0.4226 -0.3787
  665MOL0     C87662   7.519   8.111   2.468 -0.3771  0.2263 -1.3053
  665MOL0     C87663   7.547   8.019   2.364 -0.7543 -0.0155  1.1058
  665MOL0     C87664   7.677   7.926   2.370  0.6946 -0.5872  0.2237
  665MOL0     N87665   7.701   7.844   2.248 -0.5202 -1.2259  0.4782
  665MOL0     C87666   7.727   7.903   2.129 -0.8570 -0.5854  0.1104
  665MOL0     C87667   7.732   7.802   2.041  0.0674 -0.3025  0.1860
  665MOL0     C87668   7.772   7.810   1.891  0.3768  0.3507  0.4556
  665MOL0     C87669   7.895   7.878   1.851 -1.0690 -0.3088  0.3301
  665MOL0     C87670   7.927   7.837   1.705  0.0137  0.7327 -0.6624
  665MOL0     C87671   8.063   7.896   1.679 -0.0910  0.6860  1.1575
  665MOL0     O87672   8.181   7.822   1.733  0.0271 -0.0838  0.1625
  665MOL0     C87673   8.305   7.839   1.676  0.3231 -0.3368 -0.0482
  665MOL0     C87674   8.325   7.865   1.545 -0.5836 -0.7296  0.2705
  665MOL0     C87675   8.450   7.866   1.479 -0.6425  0.8548 -0.6485
  665MOL0     C87676   8.557   7.852   1.557  0.2333 -0.4006 -0.6039
  665MOL0     C87677   8.684   7.843   1.491 -0.5786 -0.4886 -0.4173
  665MOL0     O87678   8.790   7.895   1.569  0.1408  0.3373  0.6690
  665MOL0     C87679   8.908   7.929   1.516 -0.1204  0.4186  0.2136
  665MOL0     C87680   8.923   8.058   1.453 -0.2818  0.4426  0.6176
  665MOL0     C87681   9.050   8.083   1.390  0.4241  0.3836 -0.4334
  665MOL0     C87682   9.156   7.994   1.391  0.9124  0.0469 -0.2009
  665MOL0     O87683   9.273   8.017   1.313 -0.0026 -0.4971  0.2184
  665MOL0     C87684   9.395   7.994   1.382  0.1326  0.4559  0.5586
  665MOL0     C87685   9.510   8.059   1.310  0.4677 -0.4460 -0.0430
  665MOL0     C87686   9.523   8.213   1.326 -0.9093  0.0516  0.1947
  665MOL0     C87687   9.527   8.249   1.481 -0.2673  0.0806 -0.0889
  665MOL0     C87688   9.631   8.353   1.522 -0.4599  0.1108 -0.1587
  665MOL0     C87689   9.768   8.286   1.552 -0.0999 -0.7536  0.2997
  665MOL0     C87690   9.778   8.227   1.693  0.6650  0.8158 -0.0008
  665MOL0     C87691   9.900   8.258   1.779 -0.0272 -0.5723 -0.8660
  665MOL0    Cl87692  10.036   8.158   1.726 -0.0686 -0.2269  0.2663
  665MOL0     C87693   9.129   7.866   1.444  0.3624  0.2645  0.2377
  665MOL0     C87694   9.003   7.833   1.509 -0.5555 -0.3158  0.5031
  665MOL0     O87695   8.693   7.818   1.373 -0.0497 -0.3593  0.2404
  665MOL0     C87696   8.547   7.840   1.698  0.5750 -0.8084  0.2672
  665MOL0     C87697   8.420   7.829   1.756  0.3477  0.4527 -0.0735
  665MOL0     N87698   7.711   7.685   2.115 -0.2906 -0.3372  0.3289
  665MOL0     N87699   7.681   7.719   2.235 -0.8079 -0.4305  0.6384
  665MOL0     C87700   7.114   7.767   2.876  0.4333 -1.5791 -0.1120
  665MOL0     C87701   6.978   7.717   2.873 -0.3863 -0.3414  0.2347
  665MOL0     C87702   6.636   7.413   2.934  0.2626  0.1894  0.4446
  665MOL0     C87703   6.539   7.515   2.958  0.4255 -0.2027  0.7987
  665MOL0     C87704   6.405   7.489   2.923  0.2593  0.3712  0.0691
  665MOL0     C87705   6.366   7.355   2.897  0.2987 -0.6069 -0.6745
  665MOL0     O87706   6.232   7.347   2.878  0.5871  0.2525  0.3341
  665MOL0     C87707   6.162   7.211   2.891 -1.4582 -0.8355 -0.2596
  665MOL0     C87708   6.006   7.226   2.908 -0.9698 -0.8752  0.2396
  665MOL0     C87709   5.904   7.116   2.874 -0.7520 -0.7498 -0.3002
  665MOL0     C87710   5.788   7.124   2.968 -0.7112  0.1323  0.4841
  665MOL0     C87711   5.704   7.242   2.944 -0.1060  0.3605 -0.2371
  665MOL0     C87712   5.628   7.324   2.932 -0.3195 -0.2420  0.6836
  665MOL0     C87713   6.454   7.248   2.903 -0.1038 -0.0105  1.1110
  665MOL0     C87714   6.595   7.274   2.907 -0.3416 -1.2594  0.2688
  665MOL0     H87715   7.014   7.474   3.109 -2.7986 -0.8767 -1.0740
  665MOL0     H87716   7.261   7.568   3.095  1.3866  0.2626 -1.1360
  665MOL0     H87717   7.366   7.811   2.748 -0.2554 -1.9360  1.0047
  665MOL0     H87718   7.504   7.819   2.851 -0.2166  0.7492  0.9943
  665MOL0     H87719   7.358   7.965   3.005  3.1285 -1.4345 -0.6116
  665MOL0     H87720   7.250   7.991   2.868 -0.1574  0.3768 -0.1560
  665MOL0     H87721   7.561   8.043   2.878 -0.1661 -0.0561 -0.6833
  665MOL0     H87722   7.434   8.154   2.924 -3.1350  0.1894  0.1398
  665MOL0     H87723   7.337   8.123   2.692 -0.4181 -1.8890  0.8815
  665MOL0     H87724   7.496   8.211   2.706 -2.0632  0.5223 -2.8704
  665MOL0     H87725   7.412   7.949   2.583  0.2168 -0.6174 -1.2782
  665MOL0     H87726   7.579   7.969   2.633  0.9995  1.7004  0.0764
  665MOL0     H87727   7.604   8.179   2.485 -1.7388  1.5575  0.6291
  665MOL0     H87728   7.437   8.180   2.445  0.5360  2.5539  1.7481
  665MOL0     H87729   7.459   7.953   2.358 -1.5577  1.0880  0.3666
  665MOL0     H87730   7.550   8.067   2.266 -0.0955  0.4173  1.3342
  665MOL0     H87731   7.675   7.866   2.462 -3.4674 -0.0856  0.6734
  665MOL0     H87732   7.764   7.991   2.377  1.1457 -1.0697 -0.7239
  665MOL0     H87733   7.755   8.007   2.118  6.2619 -2.1630 -1.8148
  665MOL0     H87734   7.693   7.858   1.833 -2.2639 -1.8376  1.9503
  665MOL0     H87735   7.762   7.705   1.860  0.8347 -1.3341  5.0871
  665MOL0     H87736   7.976   7.854   1.920  0.8809 -1.4414 -2.1605
  665MOL0     H87737   7.875   7.985   1.846 -1.3583 -0.4270 -2.4256
  665MOL0     H87738   7.941   7.730   1.688  2.0014  1.2434 -2.7852
  665MOL0     H87739   7.852   7.879   1.638 -0.2213  1.2218 -0.1031
  665MOL0     H87740   8.067   7.999   1.717 -3.7536  1.1756  0.6034
  665MOL0     H87741   8.064   7.905   1.570  1.1842  1.1361  1.1825
  665MOL0     H87742   8.241   7.872   1.476  1.0417  0.7851 -1.6695
  665MOL0     H87743   8.444   7.886   1.372 -4.2235  2.2105 -0.3408
  665MOL0     H87744   8.841   8.129   1.444 -1.0077 -0.5436 -0.7669
  665MOL0     H87745   9.075   8.177   1.342 -0.1204  0.6513 -0.2144
  665MOL0     H87746   9.406   7.885   1.377 -1.0352  0.3650 -2.1108
  665MOL0     H87747   9.400   8.010   1.490  1.1530 -2.3383  1.0141
  665MOL0     H87748   9.523   8.037   1.204  2.4808 -0.5640  0.1920
  665MOL0     H87749   9.603   8.021   1.354  0.5732  1.0845  1.1238
  665MOL0     H87750   9.452   8.278   1.275  1.9881  3.8256  0.4565
  665MOL0     H87751   9.621   8.239   1.286 -1.2007  1.4426  0.3416
  665MOL0     H87752   9.437   8.305   1.511 -2.4071 -1.4163 -3.2112
  665MOL0     H87753   9.531   8.168   1.555 -1.0945 -0.9777 -1.1691
  665MOL0     H87754   9.598   8.403   1.613  1.4706  0.9557  0.1277
  665MOL0     H87755   9.632   8.429   1.443 -0.0254 -0.4088 -0.6634
  665MOL0     H87756   9.839   8.369   1.557  1.4798 -1.4774 -4.6196
  665MOL0     H87757   9.806   8.234   1.464  1.2370  1.7913 -0.7324
  665MOL0     H87758   9.700   8.265   1.759  3.0272  2.4564  2.0266
  665MOL0     H87759   9.762   8.119   1.687 -1.8156  1.1923 -3.2411
  665MOL0     H87760   9.868   8.249   1.884 -0.7701  4.5725 -0.4145
  665MOL0     H87761   9.923   8.364   1.792  1.6859 -1.1491  1.5744
  665MOL0     H87762   9.213   7.799   1.427  2.7483  3.7358 -3.5413
  665MOL0     H87763   8.990   7.733   1.548  0.7781 -0.8583 -0.3712
  665MOL0     H87764   8.642   7.831   1.751  0.8922  3.2825  0.6666
  665MOL0     H87765   8.404   7.819   1.863 -0.1811 -1.0421 -0.2600
  665MOL0     H87766   7.128   7.850   2.808  1.0580 -1.8298 -0.2942
  665MOL0     H87767   6.909   7.753   2.798 -1.7057 -1.3301  0.9370
  665MOL0     H87768   6.560   7.620   2.976  1.0413 -0.5881  2.5277
  665MOL0     H87769   6.321   7.557   2.912 -0.3897 -0.5540 -0.8996
  665MOL0     H87770   6.192   7.144   2.972 -3.5846 -1.3706  0.1329
  665MOL0     H87771   6.180   7.171   2.792 -1.0142  0.4546 -0.7227
  665MOL0     H87772   5.983   7.266   3.006 -1.3445 -0.9091  0.1657
  665MOL0     H87773   5.987   7.304   2.834  1.9141  1.9275  2.1999
  665MOL0     H87774   5.948   7.016   2.885 -1.0921 -0.6752  2.4591
  665MOL0     H87775   5.856   7.137   2.778 -4.0603  4.0734  2.0309
  665MOL0     H87776   5.729   7.033   2.954  0.4153 -0.9706  2.5117
  665MOL0     H87777   5.825   7.115   3.070  1.3847  1.7386 -0.0564
  665MOL0     H87778   5.550   7.394   2.909  1.1050  1.6596  1.3841
  665MOL0     H87779   6.416   7.148   2.883  1.7878 -0.4521 -0.6135
  665MOL0     H87780   6.665   7.195   2.886  3.1205  1.4555  0.6491
  666MOL0     O87781   1.171   0.166   2.277  0.0894 -0.0246 -0.2125
  666MOL0     C87782   1.116   0.134   2.178 -0.1470  0.3238 -0.2381
  666MOL0     O87783   1.176   0.123   2.054  0.1168 -0.6782 -0.0274
  666MOL0     C87784   1.297   0.206   2.035 -0.3529  0.5045  0.1388
  666MOL0     C87785   1.425   0.139   2.025  0.9647 -0.6164 -0.6115
  666MOL0     C87786   1.533   0.216   2.010  0.9716  0.4250 -0.0851
  666MOL0     C87787   1.530   0.354   1.998 -1.4082 -0.9260  0.5011
  666MOL0     O87788   1.647   0.433   1.967  0.0587  0.8330  0.1507
  666MOL0     C87789   1.765   0.411   2.039  0.1971  0.3922 -0.1834
  666MOL0     C87790   1.839   0.534   2.067  0.2071 -0.6896  0.2448
  666MOL0     C87791   1.766   0.640   2.151 -0.0486 -0.0392  0.5260
  666MOL0     C87792   1.832   0.772   2.154 -0.1038 -0.5541 -0.4363
  666MOL0     C87793   1.744   0.890   2.194 -0.7229 -0.0152  1.0996
  666MOL0     C87794   1.833   1.018   2.185 -1.0155 -0.7262 -0.3356
  666MOL0     C87795   1.756   1.154   2.179  0.7930  0.1056 -0.8627
  666MOL0     C87796   1.693   1.192   2.314  0.3024  1.1393 -0.4253
  666MOL0     N87797   1.803   1.206   2.412  0.0932 -0.2482 -0.5540
  666MOL0     C87798   1.903   1.298   2.400 -0.0232  0.6447  0.7263
  666MOL0     C87799   1.951   1.328   2.524 -1.0224  0.4375  0.0006
  666MOL0     C87800   2.064   1.413   2.575 -0.1721 -0.2844  0.1366
  666MOL0     C87801   2.020   1.553   2.624 -0.3731  0.1203 -0.1379
  666MOL0     C87802   2.016   1.663   2.515 -0.5626  0.1498  0.8003
  666MOL0     C87803   1.923   1.785   2.550 -0.0090 -0.0315 -0.3556
  666MOL0     O87804   1.945   1.841   2.686  0.6494  1.0068  0.1023
  666MOL0     C87805   2.026   1.953   2.696  0.1686  0.0710  0.6301
  666MOL0     C87806   2.146   1.960   2.623  1.0308 -0.1009  0.1288
  666MOL0     C87807   2.241   2.063   2.651  0.0448 -0.6867 -0.9209
  666MOL0     C87808   2.211   2.167   2.747  0.1303  0.0234  0.5663
  666MOL0     C87809   2.307   2.264   2.801  0.6538 -0.0889 -0.2697
  666MOL0     O87810   2.294   2.292   2.935 -0.9870 -0.3762 -0.6368
  666MOL0     C87811   2.403   2.362   2.998  1.7245 -0.1391  0.7020
  666MOL0     C87812   2.372   2.436   3.108 -0.0756  0.3953  1.0160
  666MOL0     C87813   2.472   2.491   3.184  0.2813 -0.0968  0.3789
  666MOL0     C87814   2.604   2.472   3.148 -0.3088  0.1623 -0.1025
  666MOL0     O87815   2.698   2.537   3.219 -0.5211 -0.8958 -0.7496
  666MOL0     C87816   2.663   2.681   3.231  0.9159  0.3995 -0.5718
  666MOL0     C87817   2.783   2.772   3.269 -0.3859  0.6586 -0.4416
  666MOL0     C87818   2.750   2.918   3.287  0.5340 -0.8773 -0.9177
  666MOL0     C87819   2.768   3.012   3.166 -1.5406  0.1163  1.1731
  666MOL0     C87820   2.748   3.150   3.213  0.6226 -0.4204 -0.2438
  666MOL0     C87821   2.700   3.241   3.100  0.2403 -0.2828 -1.1801
  666MOL0     C87822   2.679   3.396   3.121 -0.4727  0.1817  0.6168
  666MOL0     C87823   2.645   3.460   2.991  0.8243 -0.1306 -0.5718
  666MOL0    Cl87824   2.660   3.638   2.992 -0.1137 -0.0183 -0.0158
  666MOL0     C87825   2.641   2.387   3.049  0.3067 -1.0071  0.3470
  666MOL0     C87826   2.540   2.333   2.971 -0.3301  0.5132 -0.2845
  666MOL0     O87827   2.384   2.321   2.725  0.1235 -0.1115  0.2611
  666MOL0     C87828   2.079   2.154   2.806 -0.2325  0.1750  0.3099
  666MOL0     C87829   1.988   2.052   2.776 -0.2021  0.6133 -0.9348
  666MOL0     N87830   1.871   1.259   2.612 -0.2557 -0.5622 -0.6596
  666MOL0     N87831   1.789   1.182   2.546  0.9800  0.2102 -0.2820
  666MOL0     C87832   1.401   0.412   1.985 -0.4875  0.2419 -0.3053
  666MOL0     C87833   1.283   0.344   2.006  0.1224 -0.0770  0.7128
  666MOL0     C87834   0.974   0.093   2.186  0.6181  0.0376 -0.4789
  666MOL0     C87835   0.893   0.129   2.296 -0.0282 -0.3753  0.2969
  666MOL0     C87836   0.753   0.105   2.296 -0.0443  0.1024  0.0080
  666MOL0     C87837   0.700   0.026   2.192  0.6372 -0.4345  0.4479
  666MOL0     O87838   0.569  -0.017   2.220  0.5677 -0.3151 -0.2017
  666MOL0     C87839   0.500  -0.071   2.106  0.4932  0.1198 -0.8801
  666MOL0     C87840   0.348  -0.076   2.140 -0.6292  0.2678  0.9130
  666MOL0     C87841   0.275   0.055   2.131  0.5849  0.1892 -0.4629
  666MOL0     C87842   0.155   0.071   2.228 -0.4197  0.2012 -0.2158
  666MOL0     C87843   0.193   0.108   2.364  0.4213 -0.4073 -0.2274
  666MOL0     C87844   0.204   0.148   2.479 -0.4011 -0.2142  0.0975
  666MOL0     C87845   0.787  -0.004   2.082 -0.3882  1.0166  0.6180
  666MOL0     C87846   0.916   0.033   2.076 -0.2051  0.4810  0.2275
  666MOL0     H87847   1.434   0.032   2.038  0.4527 -0.4714  1.3332
  666MOL0     H87848   1.633   0.174   1.998  0.1203 -1.0258 -3.4546
  666MOL0     H87849   1.827   0.341   1.983  2.9469  1.8096  0.9115
  666MOL0     H87850   1.737   0.350   2.125  2.5836  0.4116  0.6521
  666MOL0     H87851   1.852   0.569   1.964  1.3403 -0.8152  0.3245
  666MOL0     H87852   1.933   0.501   2.113 -0.4971 -1.2280  1.3212
  666MOL0     H87853   1.755   0.614   2.257 -1.1350 -1.3657  0.1353
  666MOL0     H87854   1.661   0.645   2.119  0.7253 -0.0401 -2.2460
  666MOL0     H87855   1.921   0.776   2.218 -0.4893 -0.6638  0.1148
  666MOL0     H87856   1.864   0.773   2.049 -1.8803 -1.8779 -1.0401
  666MOL0     H87857   1.696   0.878   2.291  0.3544 -2.6593  1.3721
  666MOL0     H87858   1.665   0.884   2.119  0.4960  0.1888 -0.2524
  666MOL0     H87859   1.881   1.013   2.086 -1.9298  0.9657 -0.8991
  666MOL0     H87860   1.912   1.017   2.260 -0.6938 -2.5981 -0.6469
  666MOL0     H87861   1.822   1.234   2.142  1.9686 -0.6958 -0.5274
  666MOL0     H87862   1.668   1.137   2.116  0.3124  0.1095 -0.2035
  666MOL0     H87863   1.619   1.117   2.344 -0.4012  2.0004  0.0504
  666MOL0     H87864   1.632   1.283   2.304 -1.9846 -0.1166  1.1767
  666MOL0     H87865   1.944   1.347   2.313  0.2524  2.6805  1.9476
  666MOL0     H87866   2.156   1.424   2.516  0.6581  0.4493  1.5162
  666MOL0     H87867   2.106   1.358   2.659  2.7654 -0.7881 -1.5162
  666MOL0     H87868   2.087   1.587   2.704 -1.9641 -1.3731  1.9324
  666MOL0     H87869   1.927   1.533   2.677 -1.5392 -0.7313 -2.3706
  666MOL0     H87870   2.119   1.691   2.490 -0.4529 -3.4033 -4.2492
  666MOL0     H87871   1.986   1.625   2.417 -1.4398 -0.1978  1.1943
  666MOL0     H87872   1.827   1.734   2.540  1.1847 -1.8815 -5.4933
  666MOL0     H87873   1.932   1.861   2.472 -0.8759  0.6331  0.1708
  666MOL0     H87874   2.177   1.878   2.560  0.9542 -1.5981  1.9660
  666MOL0     H87875   2.339   2.055   2.604 -1.5442 -3.4895 -4.2050
  666MOL0     H87876   2.269   2.444   3.139 -0.4440  1.5328 -0.3824
  666MOL0     H87877   2.454   2.557   3.268  4.3293  2.3110 -0.3873
  666MOL0     H87878   2.587   2.683   3.311  3.6945  1.1824  2.2479
  666MOL0     H87879   2.616   2.715   3.138  0.6721  1.4222 -0.0909
  666MOL0     H87880   2.871   2.763   3.204  0.3028 -2.9910  0.7756
  666MOL0     H87881   2.834   2.737   3.360  5.0496 -0.6357 -3.5143
  666MOL0     H87882   2.825   2.957   3.356 -1.8537  0.6904  0.9540
  666MOL0     H87883   2.652   2.930   3.333  0.5437 -1.2568 -0.7913
  666MOL0     H87884   2.869   3.011   3.124 -1.5904 -2.5823  0.9453
  666MOL0     H87885   2.695   2.985   3.089  0.0140 -0.1094 -0.2658
  666MOL0     H87886   2.836   3.189   3.265  0.0014  1.9031 -0.7975
  666MOL0     H87887   2.667   3.144   3.286 -2.3141 -2.0313 -3.3283
  666MOL0     H87888   2.608   3.195   3.064  0.2875 -0.4704 -1.0642
  666MOL0     H87889   2.779   3.230   3.024  1.1494  2.8751 -0.8525
  666MOL0     H87890   2.599   3.408   3.195 -1.9919 -2.8197 -0.3729
  666MOL0     H87891   2.770   3.440   3.162 -1.4467 -0.6935  4.0050
  666MOL0     H87892   2.543   3.434   2.963  1.4700 -1.8405 -1.5215
  666MOL0     H87893   2.712   3.417   2.916  2.9527  0.3216  0.9757
  666MOL0     H87894   2.747   2.368   3.037  0.6921  1.8597 -2.2683
  666MOL0     H87895   2.563   2.262   2.892 -1.0417  2.3454 -2.2405
  666MOL0     H87896   2.051   2.227   2.881 -0.0984  1.4043 -0.7952
  666MOL0     H87897   1.898   2.035   2.833  0.8397  0.6315  0.8170
  666MOL0     H87898   1.393   0.518   1.963 -1.3079  0.4449  0.9061
  666MOL0     H87899   1.184   0.387   1.995  0.2503 -0.0321 -0.3666
  666MOL0     H87900   0.940   0.175   2.382  1.9046 -1.4380 -0.1372
  666MOL0     H87901   0.688   0.145   2.373  2.0204  2.3487  0.6910
  666MOL0     H87902   0.534  -0.171   2.075 -2.6943 -1.2122 -0.3883
  666MOL0     H87903   0.513  -0.011   2.015 -2.0611 -0.4206 -1.6722
  666MOL0     H87904   0.299  -0.145   2.072  0.0400  0.5022  0.1852
  666MOL0     H87905   0.349  -0.102   2.247  4.0999 -1.4458  0.7184
  666MOL0     H87906   0.235   0.064   2.030 -3.4023  0.4954  0.9708
  666MOL0     H87907   0.342   0.140   2.146 -2.0343  1.7787  4.1262
  666MOL0     H87908   0.091   0.147   2.182 -0.2847 -0.2628 -1.1934
  666MOL0     H87909   0.094  -0.020   2.227  0.3034 -0.2885 -0.9761
  666MOL0     H87910   0.198   0.191   2.577 -0.8535 -1.3111  0.5619
  666MOL0     H87911   0.762  -0.068   1.998 -0.6073  1.1142  0.6079
  666MOL0     H87912   0.975   0.012   1.987  0.0972 -0.1278  0.5607
  667MOL0     O87913   7.660   3.681   4.717 -0.6089 -0.4425  0.4439
  667MOL0     C87914   7.612   3.790   4.703  0.6892 -1.0896 -0.0378
  667MOL0     O87915   7.578   3.871   4.801 -0.4894  0.5185 -0.0659
  667MOL0     C87916   7.535   3.813   4.914  0.0856 -0.0923 -0.5104
  667MOL0     C87917   7.624   3.762   5.007 -0.2818 -0.7945  0.3325
  667MOL0     C87918   7.582   3.713   5.135 -0.1614 -0.2122 -0.4394
  667MOL0     C87919   7.444   3.715   5.169 -0.1013  0.8171 -0.4876
  667MOL0     O87920   7.414   3.650   5.293  0.2092  0.4820  0.0989
  667MOL0     C87921   7.281   3.664   5.361  0.0304  0.3162  0.3973
  667MOL0     C87922   7.260   3.568   5.485 -0.9090  0.5707 -1.2308
  667MOL0     C87923   7.219   3.437   5.428 -0.2816  0.0240 -0.0641
  667MOL0     C87924   7.196   3.328   5.522 -0.1013  0.1618  0.6881
  667MOL0     C87925   7.288   3.328   5.647  0.1615 -0.6160  0.8747
  667MOL0     C87926   7.233   3.218   5.735  0.6994 -0.3650  0.2879
  667MOL0     C87927   7.349   3.180   5.832  0.0267 -0.3532  1.2248
  667MOL0     C87928   7.319   3.041   5.908 -0.1932 -0.5383  0.6203
  667MOL0     N87929   7.407   3.029   6.020  0.6358  0.1227 -0.9951
  667MOL0     C87930   7.544   3.026   6.012  0.0663  1.1831  0.4898
  667MOL0     C87931   7.576   3.044   6.144 -0.7762  0.5451  0.2159
  667MOL0     C87932   7.716   3.060   6.203 -1.1259 -0.8348  0.7199
  667MOL0     C87933   7.741   3.217   6.225  0.1632 -0.4550  0.1212
  667MOL0     C87934   7.879   3.223   6.288 -1.0551  0.5240 -0.1723
  667MOL0     C87935   7.957   3.349   6.278 -0.5539 -0.4315  0.5323
  667MOL0     O87936   7.983   3.378   6.138  0.0082  0.0287  0.2052
  667MOL0     C87937   8.070   3.477   6.116  0.3060  0.3395 -1.1342
  667MOL0     C87938   8.111   3.570   6.205 -0.6983  0.0968 -0.1489
  667MOL0     C87939   8.194   3.679   6.166 -0.6187 -0.3241  0.3596
  667MOL0     C87940   8.234   3.701   6.037 -0.3300 -0.6824  0.0165
  667MOL0     C87941   8.313   3.816   5.997 -0.2206 -0.6080  0.0495
  667MOL0     O87942   8.320   3.916   6.093  0.3248 -0.6689 -0.3028
  667MOL0     C87943   8.400   4.020   6.066  0.0452  0.6341  0.1414
  667MOL0     C87944   8.524   4.049   6.126  0.2604 -0.3863 -0.3481
  667MOL0     C87945   8.623   4.141   6.088  0.0778 -0.0267 -0.2023
  667MOL0     C87946   8.587   4.226   5.982 -0.1861  1.1291  0.5908
  667MOL0     O87947   8.691   4.300   5.941 -0.4737  0.3603  0.0246
  667MOL0     C87948   8.731   4.279   5.807 -0.4373  0.1764  0.6993
  667MOL0     C87949   8.883   4.287   5.804 -0.5861  0.4627  0.4524
  667MOL0     C87950   8.945   4.429   5.818  0.0696 -0.1659  0.1269
  667MOL0     C87951   9.097   4.436   5.796  0.1353 -0.8847  0.8859
  667MOL0     C87952   9.188   4.316   5.842  0.0576  0.5260 -0.3601
  667MOL0     C87953   9.340   4.350   5.823  1.2658  0.1976 -0.3131
  667MOL0     C87954   9.438   4.237   5.843 -0.9944 -0.4522 -0.4650
  667MOL0     C87955   9.455   4.201   5.992 -0.1867 -1.1651  0.1620
  667MOL0    Cl87956   9.514   4.335   6.100  0.6906 -0.8507 -0.2992
  667MOL0     C87957   8.465   4.211   5.921  0.2073 -0.6910 -0.7859
  667MOL0     C87958   8.371   4.116   5.966  0.5291  0.9618  0.2004
  667MOL0     O87959   8.356   3.824   5.883 -0.2895 -0.1348 -1.0766
  667MOL0     C87960   8.196   3.604   5.952  0.3175 -0.3236  0.3615
  667MOL0     C87961   8.118   3.493   5.988  0.4671 -0.5565 -0.0083
  667MOL0     N87962   7.463   3.058   6.225 -0.7586  0.3426 -0.1728
  667MOL0     N87963   7.366   3.038   6.149  0.6660  0.2178  0.6070
  667MOL0     C87964   7.355   3.783   5.090  1.2706 -0.2391 -0.2306
  667MOL0     C87965   7.399   3.825   4.961  0.1572  0.0165  0.0366
  667MOL0     C87966   7.613   3.860   4.569  0.1741  0.6576 -0.5590
  667MOL0     C87967   7.571   3.992   4.547  1.4401  0.5382  0.3871
  667MOL0     C87968   7.583   4.051   4.420  0.0789 -0.3588 -0.4508
  667MOL0     C87969   7.623   3.976   4.308  0.2534 -0.2231  0.3359
  667MOL0     O87970   7.640   4.026   4.178 -0.6748 -0.2323 -0.4078
  667MOL0     C87971   7.568   4.145   4.146 -0.0638  1.0685  0.7515
  667MOL0     C87972   7.557   4.168   4.000  0.3103 -0.2621 -0.0432
  667MOL0     C87973   7.496   4.312   3.978 -0.1486  0.0001  0.5248
  667MOL0     C87974   7.455   4.332   3.828 -0.1661 -0.1176  0.6347
  667MOL0     C87975   7.338   4.256   3.792 -0.4503 -0.4397 -0.2800
  667MOL0     C87976   7.229   4.203   3.799 -0.5009 -0.4606 -0.3895
  667MOL0     C87977   7.659   3.846   4.324  0.4274 -1.3801 -0.9074
  667MOL0     C87978   7.652   3.795   4.455 -0.4035 -0.5437 -0.2422
  667MOL0     H87979   7.732   3.748   4.997 -0.2648 -0.3760 -0.0752
  667MOL0     H87980   7.630   3.657   5.215 -2.4428 -1.7772 -0.0618
  667MOL0     H87981   7.197   3.651   5.292 -0.3209  0.4023  0.8033
  667MOL0     H87982   7.280   3.764   5.404 -0.4624  0.5933 -0.2374
  667MOL0     H87983   7.189   3.609   5.558  2.6763  1.1023  2.3425
  667MOL0     H87984   7.356   3.568   5.538 -1.7395  0.3928  0.3269
  667MOL0     H87985   7.303   3.410   5.363 -0.8527 -1.8127 -0.0859
  667MOL0     H87986   7.134   3.447   5.360 -0.8490 -0.9602  0.4896
  667MOL0     H87987   7.095   3.360   5.549 -1.2594 -0.8091 -2.1027
  667MOL0     H87988   7.194   3.235   5.464 -1.6453  1.9449 -2.3500
  667MOL0     H87989   7.283   3.419   5.706 -1.4029  0.8648 -1.3817
  667MOL0     H87990   7.387   3.321   5.601 -0.7164  2.5004 -1.9184
  667MOL0     H87991   7.206   3.142   5.662 -1.8387  0.6392  0.0716
  667MOL0     H87992   7.142   3.246   5.789  0.0854 -1.8089  0.0379
  667MOL0     H87993   7.446   3.166   5.783  0.3932 -1.3688  2.1767
  667MOL0     H87994   7.372   3.260   5.903 -0.8460  2.5886 -1.5993
  667MOL0     H87995   7.329   2.965   5.829  0.8953  1.9164 -1.7401
  667MOL0     H87996   7.215   3.033   5.941 -0.7445  0.4665 -0.7781
  667MOL0     H87997   7.595   3.012   5.917 -2.0100 -0.0694 -0.5006
  667MOL0     H87998   7.789   3.017   6.133 -3.0086  1.0624 -2.6845
  667MOL0     H87999   7.730   3.004   6.295  1.5622  0.1738  1.0346
  667MOL0     H88000   7.668   3.256   6.297  1.2494  0.4216  0.7811
  667MOL0     H88001   7.738   3.276   6.133  1.6559 -1.0518 -0.3416
  667MOL0     H88002   7.863   3.199   6.394 -1.1400 -1.4819 -0.5911
  667MOL0     H88003   7.939   3.140   6.250 -0.3757  0.3129  1.3128
  667MOL0     H88004   8.053   3.339   6.329 -0.5076  0.5994  0.6710
  667MOL0     H88005   7.907   3.433   6.328 -1.3509 -0.3966 -0.2924
  667MOL0     H88006   8.065   3.576   6.303 -1.9682 -2.5144 -0.4791
  667MOL0     H88007   8.220   3.740   6.252  0.4559 -1.2108  0.6938
  667MOL0     H88008   8.563   3.988   6.207  0.0258 -0.1919 -0.0887
  667MOL0     H88009   8.727   4.150   6.116  0.2640 -1.6930 -0.2404
  667MOL0     H88010   8.687   4.361   5.750  0.2370  1.4398  1.9345
  667MOL0     H88011   8.700   4.180   5.771  0.3159  0.6220 -1.2660
  667MOL0     H88012   8.913   4.250   5.705  4.0556  1.1362  1.4225
  667MOL0     H88013   8.915   4.212   5.877  0.1640 -0.1131 -0.4431
  667MOL0     H88014   8.934   4.451   5.925  2.5835 -1.6724  0.7686
  667MOL0     H88015   8.885   4.507   5.771  0.6431  0.6734  0.7370
  667MOL0     H88016   9.125   4.472   5.697  2.3241  3.2763  2.8017
  667MOL0     H88017   9.117   4.517   5.867  1.7469 -1.8433  1.5605
  667MOL0     H88018   9.164   4.230   5.779  2.8984 -1.2626  0.8239
  667MOL0     H88019   9.163   4.288   5.945  0.3781 -1.1987 -0.7328
  667MOL0     H88020   9.370   4.428   5.893 -4.7091  1.0291  1.9441
  667MOL0     H88021   9.355   4.386   5.720  0.6206  0.5024 -0.3083
  667MOL0     H88022   9.400   4.150   5.790 -0.7434 -0.0443 -1.3301
  667MOL0     H88023   9.536   4.261   5.800 -0.2365 -0.3461  1.2424
  667MOL0     H88024   9.532   4.123   5.990  1.4944  0.4076  0.8726
  667MOL0     H88025   9.361   4.162   6.033  0.9533 -3.1668  1.0208
  667MOL0     H88026   8.431   4.273   5.838  0.1939 -0.4490 -0.6011
  667MOL0     H88027   8.277   4.116   5.912  0.2380  3.1130  0.5954
  667MOL0     H88028   8.236   3.610   5.852  3.1969  0.3978  1.4735
  667MOL0     H88029   8.099   3.411   5.919  0.9631 -0.3891 -0.3479
  667MOL0     H88030   7.255   3.796   5.129  0.5783  0.0903 -2.0520
  667MOL0     H88031   7.338   3.887   4.896  1.5586  2.1876  0.7151
  667MOL0     H88032   7.535   4.057   4.626  1.2975  4.2644 -2.5099
  667MOL0     H88033   7.563   4.157   4.433  0.0562 -0.2064 -1.6887
  667MOL0     H88034   7.603   4.235   4.196 -1.7419  1.9812  0.3740
  667MOL0     H88035   7.467   4.126   4.184 -0.2663 -1.1836 -0.6604
  667MOL0     H88036   7.656   4.158   3.955  0.3764 -1.3564  0.3149
  667MOL0     H88037   7.492   4.087   3.965 -1.3078  0.6967  0.6137
  667MOL0     H88038   7.580   4.378   4.006  2.4319 -1.3953 -3.1273
  667MOL0     H88039   7.406   4.334   4.036 -0.7502  2.2684 -1.1335
  667MOL0     H88040   7.444   4.438   3.802  2.6362  0.2853  0.7700
  667MOL0     H88041   7.532   4.294   3.761  0.2586 -1.0562  1.6221
  667MOL0     H88042   7.130   4.163   3.799  0.1124 -2.6041 -4.8448
  667MOL0     H88043   7.710   3.784   4.251  3.6054 -0.1915  0.1086
  667MOL0     H88044   7.686   3.693   4.471 -0.4564 -0.2280  2.4782
  668MOL0     O88045   1.123   3.161   9.612 -0.1361  0.1859  0.0580
  668MOL0     C88046   1.205   3.071   9.571 -0.6513 -0.3559  0.3005
  668MOL0     O88047   1.210   2.938   9.613 -0.0730  0.8727 -0.3063
  668MOL0     C88048   1.124   2.916   9.717  0.1431  0.0460  0.6626
  668MOL0     C88049   0.986   2.942   9.712  0.7622  0.8821 -0.8229
  668MOL0     C88050   0.909   2.913   9.820 -0.7551  0.0750  0.0380
  668MOL0     C88051   0.968   2.854   9.942 -0.1017 -0.0766  0.0227
  668MOL0     O88052   0.899   2.803  10.051 -0.2156  0.0914 -0.5000
  668MOL0     C88053   0.801   2.701  10.006 -0.9150  0.5899 -0.0101
  668MOL0     C88054   0.797   2.593  10.122 -0.4444  0.0018  1.0599
  668MOL0     C88055   0.814   2.642  10.267 -0.3342  0.4982 -0.2353
  668MOL0     C88056   0.815   2.524  10.359  0.1044  0.5730  0.2879
  668MOL0     C88057   0.826   2.571  10.504 -0.3028  0.0536 -0.7143
  668MOL0     C88058   0.845   2.452  10.592 -0.6487  0.6698  0.0105
  668MOL0     C88059   0.842   2.489  10.744 -0.3455 -0.3136  0.7252
  668MOL0     C88060   0.832   2.381  10.846 -0.1955  0.4245 -0.5809
  668MOL0     N88061   0.766   2.428  10.975 -0.6191  0.1013  0.1199
  668MOL0     C88062   0.665   2.369  11.045  0.9419 -0.3874  0.5018
  668MOL0     C88063   0.649   2.433  11.163  0.1623 -0.8530 -0.0587
  668MOL0     C88064   0.557   2.421  11.281 -0.2284  0.2149 -0.9819
  668MOL0     C88065   0.546   2.275  11.328  0.2347  1.1453 -0.1496
  668MOL0     C88066   0.631   2.247  11.456  0.1905 -0.1615  0.3077
  668MOL0     C88067   0.574   2.275  11.595 -0.6289  0.9591 -0.3100
  668MOL0     O88068   0.479   2.172  11.638  0.5648  0.3034 -0.2384
  668MOL0     C88069   0.414   2.186  11.756 -0.1671  0.3271  0.5830
  668MOL0     C88070   0.422   2.298  11.840 -0.0175 -0.8850 -0.2725
  668MOL0     C88071   0.360   2.306  11.962 -0.7491 -0.1735  0.2263
  668MOL0     C88072   0.281   2.195  12.002 -1.3191  0.8646  0.6015
  668MOL0     C88073   0.207   2.191  12.137 -0.6210 -1.0827  1.1720
  668MOL0     O88074   0.216   2.289  12.221  0.7868 -0.9275  0.6757
  668MOL0     C88075   0.167   2.286  12.351 -0.5906 -0.4466 -0.6885
  668MOL0     C88076   0.189   2.181  12.442  0.2735  0.4351  0.2281
  668MOL0     C88077   0.142   2.186  12.571  1.0006  0.8721  0.0797
  668MOL0     C88078   0.072   2.303  12.609 -0.2842  0.2961 -1.3144
  668MOL0     O88079   0.022   2.322  12.741 -0.1865 -0.2681  0.4676
  668MOL0     C88080   0.087   2.267  12.857 -0.8299 -0.8755  0.9783
  668MOL0     C88081   0.075   2.364  12.971 -0.4195  1.1041  0.0663
  668MOL0     C88082   0.140   2.297  13.097 -0.0486  0.7002  0.8996
  668MOL0     C88083   0.146   2.381  13.220  0.7812  0.4484  0.6829
  668MOL0     C88084   0.015   2.418  13.289  0.1874 -0.7642 -0.2409
  668MOL0     C88085   0.043   2.536  13.383 -0.1665 -0.4748  1.1996
  668MOL0     C88086  -0.067   2.534  13.498 -0.2752 -0.0887  0.3761
  668MOL0     C88087  -0.205   2.559  13.450  0.6167  0.2852 -0.0032
  668MOL0    Cl88088  -0.228   2.707  13.344  0.4206 -0.2186  0.5506
  668MOL0     C88089   0.045   2.403  12.521  0.3450  0.4017  0.4021
  668MOL0     C88090   0.096   2.400  12.393  0.4134  0.3976 -0.3266
  668MOL0     O88091   0.151   2.085  12.158  0.6701 -0.3784 -0.5543
  668MOL0     C88092   0.275   2.073  11.924 -0.6025  0.1515 -0.2040
  668MOL0     C88093   0.340   2.075  11.802 -0.1765  0.1975  0.5330
  668MOL0     N88094   0.744   2.538  11.160 -0.0516 -0.6727 -0.2999
  668MOL0     N88095   0.809   2.534  11.053  0.3018 -0.0511  0.4095
  668MOL0     C88096   1.103   2.841   9.949 -0.0324 -1.1977 -0.4518
  668MOL0     C88097   1.184   2.875   9.834  0.1226  0.9322 -0.3767
  668MOL0     C88098   1.281   3.097   9.455 -0.5981 -0.4218  0.1193
  668MOL0     C88099   1.264   3.225   9.389 -0.2297  0.0441 -0.1926
  668MOL0     C88100   1.353   3.259   9.283  0.4705 -1.3341 -0.3284
  668MOL0     C88101   1.433   3.161   9.212  0.4956 -0.8248  0.2945
  668MOL0     O88102   1.484   3.190   9.087  0.5953  0.6738  0.2147
  668MOL0     C88103   1.564   3.089   9.021  0.4816  0.2264 -0.6942
  668MOL0     C88104   1.599   3.139   8.881 -0.2218  0.3888  0.2852
  668MOL0     C88105   1.669   3.276   8.891 -0.8924 -0.3028  0.3898
  668MOL0     C88106   1.773   3.308   8.775 -0.0979 -0.3175 -0.2521
  668MOL0     C88107   1.703   3.303   8.649  0.2263  0.3628  0.5195
  668MOL0     C88108   1.647   3.300   8.535 -1.3587 -0.0359 -0.5235
  668MOL0     C88109   1.449   3.044   9.289 -0.2750  0.4655 -0.8770
  668MOL0     C88110   1.383   3.013   9.411 -1.2850 -0.1423  0.0208
  668MOL0     H88111   0.941   2.966   9.616 -2.1119 -0.9288 -0.0548
  668MOL0     H88112   0.806   2.943   9.805 -0.6547  0.6582  0.4962
  668MOL0     H88113   0.827   2.659   9.909 -1.0866  1.6838 -0.5547
  668MOL0     H88114   0.696   2.733  10.010 -1.4893 -1.2361  3.5553
  668MOL0     H88115   0.887   2.533  10.108 -0.4894  0.1545  0.0962
  668MOL0     H88116   0.714   2.522  10.120  0.2375 -0.8424  1.7340
  668MOL0     H88117   0.727   2.700  10.300 -1.5346 -0.8710 -0.8870
  668MOL0     H88118   0.902   2.705  10.284 -0.8852  1.7242 -1.7656
  668MOL0     H88119   0.725   2.466  10.341  2.2920 -2.5927 -1.4000
  668MOL0     H88120   0.902   2.467  10.326  1.8321  2.8791  0.5738
  668MOL0     H88121   0.735   2.619  10.539 -0.1077  2.6843 -3.4134
  668MOL0     H88122   0.911   2.637  10.524  2.1658 -3.0331 -0.2320
  668MOL0     H88123   0.929   2.396  10.552  0.2108  0.6657  1.7362
  668MOL0     H88124   0.755   2.392  10.575 -2.2500  1.9966  2.9950
  668MOL0     H88125   0.933   2.548  10.765 -0.3988  0.4742 -1.0549
  668MOL0     H88126   0.757   2.555  10.761 -0.2753 -0.5272  2.0205
  668MOL0     H88127   0.924   2.329  10.871 -1.7877 -1.6043  1.5887
  668MOL0     H88128   0.757   2.319  10.796 -2.9355  2.8156  0.2257
  668MOL0     H88129   0.606   2.282  11.016 -0.9248  1.7138 -2.5813
  668MOL0     H88130   0.458   2.464  11.260  0.3161  1.2643 -1.4733
  668MOL0     H88131   0.601   2.484  11.359  0.9345 -0.3609 -1.1580
  668MOL0     H88132   0.577   2.211  11.245  0.7805  0.3562  0.6412
  668MOL0     H88133   0.440   2.252  11.347  0.8521 -2.3092 -0.1906
  668MOL0     H88134   0.659   2.141  11.453 -1.3446 -0.5816 -0.3633
  668MOL0     H88135   0.725   2.302  11.447  1.9411 -2.5682  2.5677
  668MOL0     H88136   0.507   2.361  11.590 -0.6534  0.8895 -2.3973
  668MOL0     H88137   0.652   2.301  11.667  0.5192 -3.1525  0.1728
  668MOL0     H88138   0.461   2.389  11.797 -1.6928 -0.6701 -1.4213
  668MOL0     H88139   0.373   2.388  12.031  2.8131 -1.2338  1.0165
  668MOL0     H88140   0.234   2.090  12.406 -2.1946 -1.6110  1.9718
  668MOL0     H88141   0.165   2.100  12.632  0.8533 -0.5517 -1.8049
  668MOL0     H88142   0.193   2.251  12.834 -0.9518 -2.0587  1.1964
  668MOL0     H88143   0.038   2.176  12.892 -0.7218 -0.1165  3.2749
  668MOL0     H88144  -0.031   2.380  12.994 -0.5188  0.1665  0.2966
  668MOL0     H88145   0.127   2.458  12.953  0.3301  0.5512 -0.7315
  668MOL0     H88146   0.245   2.277  13.075  1.3299  5.2425  2.3045
  668MOL0     H88147   0.088   2.203  13.121 -3.9042  1.9301 -1.6690
  668MOL0     H88148   0.201   2.322  13.294 -0.0452 -1.8726 -0.4775
  668MOL0     H88149   0.199   2.473  13.195 -3.2671  2.8211 -0.1523
  668MOL0     H88150  -0.017   2.337  13.355  0.9886  1.0515  2.6116
  668MOL0     H88151  -0.063   2.450  13.220  1.2196  0.3239 -0.9486
  668MOL0     H88152   0.027   2.629  13.328 -1.4406 -0.7877  1.0015
  668MOL0     H88153   0.149   2.537  13.409  0.0786 -0.1678  0.2308
  668MOL0     H88154  -0.055   2.438  13.550  3.0626  1.6425  3.2564
  668MOL0     H88155  -0.042   2.622  13.558 -1.1843  0.6032 -0.2356
  668MOL0     H88156  -0.271   2.570  13.537  0.0043 -1.3600 -0.2171
  668MOL0     H88157  -0.245   2.469  13.401 -0.3188  0.3663  0.5925
  668MOL0     H88158  -0.007   2.493  12.553  1.7467  0.6635  2.0758
  668MOL0     H88159   0.084   2.475  12.316  0.6942  0.6492 -0.1307
  668MOL0     H88160   0.212   1.991  11.957 -0.2728  0.3914  1.0921
  668MOL0     H88161   0.335   1.988  11.737  1.9095 -0.0961  0.7049
  668MOL0     H88162   1.147   2.809  10.042  0.5803  0.2257 -0.2212
  668MOL0     H88163   1.289   2.849   9.832 -0.2390 -0.8804  1.3702
  668MOL0     H88164   1.187   3.293   9.424 -0.1416 -0.6473  1.3989
  668MOL0     H88165   1.344   3.355   9.232  0.8594 -0.5270  1.0830
  668MOL0     H88166   1.507   2.996   9.016 -1.4270  1.3548 -0.8827
  668MOL0     H88167   1.657   3.072   9.076  0.1775 -0.6174 -0.4245
  668MOL0     H88168   1.655   3.066   8.821  2.1778  0.4627  2.2432
  668MOL0     H88169   1.503   3.150   8.830 -0.9324 -1.0469  1.2641
  668MOL0     H88170   1.732   3.297   8.977 -0.3548  3.4724 -0.7324
  668MOL0     H88171   1.581   3.342   8.885  0.1222  1.1093  0.4697
  668MOL0     H88172   1.813   3.407   8.799 -1.2583 -0.7715  4.6130
  668MOL0     H88173   1.862   3.244   8.784 -0.8889 -1.1690  4.6566
  668MOL0     H88174   1.594   3.310   8.443 -0.6668 -1.8450 -1.1679
  668MOL0     H88175   1.520   2.968   9.260  2.0882  2.1698  0.1534
  668MOL0     H88176   1.406   2.916   9.455 -0.5251 -0.1243 -0.3276
  669MOL0     O88177   1.292  11.136   6.957  1.2062  0.8528  0.2675
  669MOL0     C88178   1.319  11.227   7.040 -0.4529  0.2900 -1.0222
  669MOL0     O88179   1.411  11.212   7.145  0.3477  0.2732  0.5617
  669MOL0     C88180   1.495  11.101   7.168  0.6300  0.0679 -0.5436
  669MOL0     C88181   1.498  10.989   7.083 -0.8067  0.6034 -0.2737
  669MOL0     C88182   1.591  10.883   7.111 -0.4184  0.2876 -0.5713
  669MOL0     C88183   1.660  10.890   7.236 -0.1665 -0.7081  0.8203
  669MOL0     O88184   1.738  10.777   7.252 -0.6572 -0.7778  0.5748
  669MOL0     C88185   1.800  10.760   7.375  0.7371  0.8718  0.0999
  669MOL0     C88186   1.868  10.625   7.367  0.2350 -1.2368  0.1336
  669MOL0     C88187   1.775  10.502   7.361 -0.8160  0.3270  0.2339
  669MOL0     C88188   1.696  10.485   7.233 -0.0309  0.9551  0.2783
  669MOL0     C88189   1.669  10.332   7.236  0.5006  0.1322 -0.7989
  669MOL0     C88190   1.557  10.316   7.132  0.3681  0.8324 -0.4904
  669MOL0     C88191   1.540  10.163   7.106  0.8776 -0.2486  1.2248
  669MOL0     C88192   1.459  10.145   6.981  0.2627 -0.4304 -0.4881
  669MOL0     N88193   1.390  10.018   6.967  0.4406  0.3397  0.1345
  669MOL0     C88194   1.449   9.895   6.963  0.4651  0.5315 -0.0762
  669MOL0     C88195   1.357   9.806   6.989  0.0075 -0.2478  0.7571
  669MOL0     C88196   1.364   9.659   6.994  0.7233  0.5819  0.7856
  669MOL0     C88197   1.391   9.613   7.136  0.4597  0.4201 -0.8838
  669MOL0     C88198   1.348   9.470   7.165 -0.8535 -0.2346 -0.0533
  669MOL0     C88199   1.403   9.374   7.058  0.4558 -0.1557  0.4789
  669MOL0     O88200   1.404   9.232   7.100 -0.1833  0.2755 -0.3969
  669MOL0     C88201   1.275   9.193   7.104  0.4568  0.5082 -0.2518
  669MOL0     C88202   1.198   9.162   6.987 -0.5878 -0.2131  0.0105
  669MOL0     C88203   1.064   9.133   7.009  0.7041  0.1287  0.6991
  669MOL0     C88204   1.001   9.116   7.133 -0.6240  0.0466  0.3146
  669MOL0     C88205   0.858   9.084   7.150 -0.7121 -0.2273 -0.8093
  669MOL0     O88206   0.812   9.107   7.280  0.0223 -0.3322 -0.3696
  669MOL0     C88207   0.689   9.155   7.313  0.0093  0.0453 -0.1430
  669MOL0     C88208   0.615   9.235   7.223  0.5247  0.4234 -0.1907
  669MOL0     C88209   0.501   9.308   7.265  0.4848  0.0781  0.0857
  669MOL0     C88210   0.467   9.303   7.400  0.0098  0.4738  0.7148
  669MOL0     O88211   0.355   9.359   7.457  0.8440 -0.0114  0.3047
  669MOL0     C88212   0.387   9.467   7.543  0.3404  0.6342 -0.1730
  669MOL0     C88213   0.471   9.581   7.468  0.8268 -0.2677 -0.6218
  669MOL0     C88214   0.377   9.624   7.339 -0.2695  0.2886 -0.0955
  669MOL0     C88215   0.461   9.720   7.240  0.2032 -0.1937 -1.3402
  669MOL0     C88216   0.391   9.732   7.106 -0.2500  0.6167  0.2122
  669MOL0     C88217   0.482   9.796   6.997  0.1147  0.0940 -0.4049
  669MOL0     C88218   0.492   9.947   6.998  0.2839  0.1731 -0.4438
  669MOL0     C88219   0.368  10.022   6.969 -0.0381 -0.6271 -0.0211
  669MOL0    Cl88220   0.388  10.194   6.931 -0.3002  0.1806 -0.2802
  669MOL0     C88221   0.542   9.222   7.496 -0.2011  0.6847  0.3537
  669MOL0     C88222   0.646   9.157   7.449 -0.3275 -0.1188 -0.1128
  669MOL0     O88223   0.791   9.067   7.054  0.0842  0.3031  0.2679
  669MOL0     C88224   1.080   9.138   7.248  0.1476 -0.5388 -0.0955
  669MOL0     C88225   1.219   9.169   7.233 -0.9930 -0.6765  1.5835
  669MOL0     N88226   1.237   9.874   7.005  0.2661 -0.1487  0.7138
  669MOL0     N88227   1.258  10.002   6.980 -0.0775 -0.1514 -0.5180
  669MOL0     C88228   1.649  10.999   7.320  1.5065 -0.1405 -0.1709
  669MOL0     C88229   1.572  11.110   7.285  0.2640 -0.3570 -0.0954
  669MOL0     C88230   1.258  11.356   7.018  0.2600  0.1192  1.0766
  669MOL0     C88231   1.278  11.418   6.890  0.6739  0.2677  0.0021
  669MOL0     C88232   1.219  11.543   6.864 -0.1958 -0.4774 -0.2742
  669MOL0     C88233   1.130  11.602   6.962  0.0643  0.4002 -0.0320
  669MOL0     O88234   1.073  11.715   6.930  0.5493  0.0082  0.9380
  669MOL0     C88235   0.936  11.705   6.889  0.2133 -0.1979  0.4323
  669MOL0     C88236   0.910  11.628   6.763 -0.4628 -0.5609  1.1764
  669MOL0     C88237   0.779  11.678   6.692 -0.1491 -0.2708 -0.4692
  669MOL0     C88238   0.722  11.568   6.618 -1.1325  0.3839 -0.4571
  669MOL0     C88239   0.646  11.637   6.510 -0.2738 -0.6013 -0.3152
  669MOL0     C88240   0.574  11.683   6.421 -0.7260  0.5153  0.3715
  669MOL0     C88241   1.124  11.533   7.089  0.3649  0.3222  0.1309
  669MOL0     C88242   1.179  11.407   7.111  0.7274  0.6493  0.0632
  669MOL0     H88243   1.471  11.001   6.979  1.9195  0.5250 -1.0675
  669MOL0     H88244   1.610  10.802   7.042  2.1508 -0.2627  0.6353
  669MOL0     H88245   1.731  10.758   7.460  0.9701 -0.4495  0.2802
  669MOL0     H88246   1.882  10.833   7.369  1.2911  0.1624 -1.3899
  669MOL0     H88247   1.927  10.622   7.459 -1.6558  2.7204  1.7412
  669MOL0     H88248   1.941  10.619   7.286  0.8552 -2.2365  0.7600
  669MOL0     H88249   1.705  10.506   7.445 -0.1067 -1.2880  0.9495
  669MOL0     H88250   1.833  10.419   7.402  1.3796  0.9580 -1.4142
  669MOL0     H88251   1.611  10.553   7.219  0.3735  1.3875 -0.1331
  669MOL0     H88252   1.760  10.499   7.145 -2.2626 -2.2639 -2.0888
  669MOL0     H88253   1.626  10.299   7.331  1.8461 -0.2967 -0.3164
  669MOL0     H88254   1.750  10.264   7.205 -0.6743 -0.5006 -2.6759
  669MOL0     H88255   1.594  10.372   7.045  1.0467  2.1828  0.6313
  669MOL0     H88256   1.459  10.348   7.169 -0.9466 -1.5774 -1.6484
  669MOL0     H88257   1.639  10.121   7.081  1.0746  0.4725  0.7687
  669MOL0     H88258   1.490  10.117   7.192  1.8266 -1.6383  1.0742
  669MOL0     H88259   1.524  10.167   6.897  0.5879 -0.1386 -0.1649
  669MOL0     H88260   1.379  10.220   6.981  2.4049  2.1257  2.4204
  669MOL0     H88261   1.547   9.860   6.930  0.5092  0.5673  0.0165
  669MOL0     H88262   1.454   9.635   6.936  0.7364  2.5913 -0.1239
  669MOL0     H88263   1.274   9.619   6.947  1.9615 -2.4146  0.7082
  669MOL0     H88264   1.331   9.676   7.202  2.2096  1.7992 -0.5340
  669MOL0     H88265   1.496   9.626   7.163  1.5793 -3.9117 -2.3010
  669MOL0     H88266   1.409   9.444   7.252  0.8410  2.5207 -0.2980
  669MOL0     H88267   1.240   9.466   7.186 -0.6707 -0.7935  0.8305
  669MOL0     H88268   1.505   9.401   7.028  0.7842 -1.5197  0.2672
  669MOL0     H88269   1.345   9.385   6.966  2.5213 -5.1792 -1.7913
  669MOL0     H88270   1.227   9.169   6.883  0.1233 -2.9890 -0.0544
  669MOL0     H88271   1.006   9.122   6.917 -0.1275  0.4634  1.1716
  669MOL0     H88272   0.647   9.267   7.124  1.2867  2.8606  0.7674
  669MOL0     H88273   0.446   9.374   7.199 -1.3926 -0.3575  1.1169
  669MOL0     H88274   0.457   9.431   7.619  1.4096  1.4795 -0.7236
  669MOL0     H88275   0.297   9.500   7.596  1.7040  0.2306  2.5866
  669MOL0     H88276   0.571   9.543   7.445  2.2073  1.1031  2.4799
  669MOL0     H88277   0.492   9.662   7.538 -1.5839 -1.3443  1.4979
  669MOL0     H88278   0.281   9.667   7.368 -1.1505 -2.4635  1.4075
  669MOL0     H88279   0.346   9.531   7.291  0.2305 -0.2200  0.5573
  669MOL0     H88280   0.469   9.818   7.287  0.3523 -0.6864 -0.3151
  669MOL0     H88281   0.564   9.684   7.239  1.8235  2.8261  5.0834
  669MOL0     H88282   0.302   9.794   7.122 -0.7269  0.2110 -0.8149
  669MOL0     H88283   0.363   9.635   7.065 -0.0037  1.6501 -2.5830
  669MOL0     H88284   0.441   9.772   6.899 -1.4011  1.3868 -0.1378
  669MOL0     H88285   0.586   9.765   7.007  0.1197  0.4109  0.6536
  669MOL0     H88286   0.547   9.970   7.089  2.1511 -3.8735 -0.3500
  669MOL0     H88287   0.546   9.993   6.914 -3.7778  1.2380 -2.7784
  669MOL0     H88288   0.292  10.010   7.047  0.4485 -4.0860  0.0969
  669MOL0     H88289   0.324   9.967   6.885  0.4622 -1.0436 -0.0205
  669MOL0     H88290   0.542   9.221   7.605  1.4160 -0.6124  0.3885
  669MOL0     H88291   0.694   9.085   7.514  1.3703  2.2132  1.3511
  669MOL0     H88292   1.031   9.123   7.344  0.0349 -1.3752 -0.2731
  669MOL0     H88293   1.293   9.177   7.312  1.2433  0.2435 -0.4693
  669MOL0     H88294   1.699  10.996   7.416  1.9556 -0.2766 -0.4107
  669MOL0     H88295   1.577  11.189   7.359  3.3661 -0.0862 -0.4439
  669MOL0     H88296   1.342  11.365   6.820 -0.5398 -1.6589  0.2971
  669MOL0     H88297   1.234  11.592   6.768 -0.3181 -1.9058 -1.0559
  669MOL0     H88298   0.897  11.807   6.877 -0.9253 -0.8493 -1.9923
  669MOL0     H88299   0.880  11.667   6.974  0.2778 -0.8393  0.1909
  669MOL0     H88300   0.993  11.658   6.698 -1.8987  0.9677 -0.0424
  669MOL0     H88301   0.909  11.521   6.789 -1.7170 -0.5140  1.3709
  669MOL0     H88302   0.795  11.772   6.638  2.7646 -0.2677  0.2000
  669MOL0     H88303   0.709  11.705   6.771 -1.4766 -0.0967 -1.6721
  669MOL0     H88304   0.803  11.504   6.581 -1.9277 -2.6548  2.5402
  669MOL0     H88305   0.657  11.510   6.684 -0.9525 -1.7098 -1.9841
  669MOL0     H88306   0.527  11.728   6.335 -1.7320  1.6478  1.4859
  669MOL0     H88307   1.080  11.598   7.164 -2.6808 -0.6912 -0.6217
  669MOL0     H88308   1.170  11.361   7.209 -4.0192  2.4192  0.7099
  670MOL0     O88309   6.345   4.883   8.684  0.3110  0.0447 -0.6514
  670MOL0     C88310   6.432   4.956   8.725 -0.6681 -0.6413  1.2074
  670MOL0     O88311   6.512   4.944   8.828 -0.0347 -0.6027  0.2944
  670MOL0     C88312   6.548   4.824   8.877  0.0490  0.0454 -0.3304
  670MOL0     C88313   6.610   4.813   9.009  0.8675  0.0718 -0.2140
  670MOL0     C88314   6.636   4.691   9.064 -0.7465 -0.2035 -0.6077
  670MOL0     C88315   6.618   4.575   8.999 -0.3494  1.2203  0.4302
  670MOL0     O88316   6.667   4.450   9.049  0.3248 -0.0689 -0.1667
  670MOL0     C88317   6.627   4.329   8.976 -1.1909 -0.5841  0.3907
  670MOL0     C88318   6.723   4.298   8.854  0.5820 -0.5919  0.5874
  670MOL0     C88319   6.815   4.181   8.891  0.9108  0.1070  0.4887
  670MOL0     C88320   6.900   4.217   9.016  0.0880 -0.3640  1.0020
  670MOL0     C88321   7.020   4.113   9.024 -0.1244 -0.6870 -0.1945
  670MOL0     C88322   6.974   3.966   9.048 -0.1056  0.5356 -0.1615
  670MOL0     C88323   7.105   3.877   9.059  0.3848  0.5750 -0.5285
  670MOL0     C88324   7.077   3.731   9.069  0.4313  0.4199  0.1920
  670MOL0     N88325   6.945   3.701   9.133 -0.9830  0.2938 -0.2885
  670MOL0     C88326   6.933   3.747   9.269  0.6170 -0.5728  0.5617
  670MOL0     C88327   6.809   3.709   9.297  0.3974  0.4427 -0.0528
  670MOL0     C88328   6.734   3.723   9.428 -0.6922 -0.3103 -0.3810
  670MOL0     C88329   6.700   3.868   9.464 -0.2198 -0.1651 -0.3176
  670MOL0     C88330   6.559   3.897   9.419 -0.7492  0.2104  0.2012
  670MOL0     C88331   6.568   3.968   9.276 -0.1176  0.1776  0.1956
  670MOL0     O88332   6.616   4.101   9.308 -0.2511  0.5964 -0.3404
  670MOL0     C88333   6.534   4.206   9.321 -0.1940  0.1179 -0.5547
  670MOL0     C88334   6.587   4.330   9.327  0.1925  0.4207 -0.2748
  670MOL0     C88335   6.513   4.445   9.338 -0.5456 -0.0006  0.7117
  670MOL0     C88336   6.369   4.441   9.329  0.4222 -0.5868 -0.2882
  670MOL0     C88337   6.286   4.558   9.315  0.1782  0.7974 -0.8568
  670MOL0     O88338   6.353   4.671   9.295  1.0068 -0.1250 -0.1032
  670MOL0     C88339   6.283   4.776   9.250  0.4938 -0.4773 -0.0689
  670MOL0     C88340   6.226   4.866   9.343  0.5508 -0.6443  0.5692
  670MOL0     C88341   6.181   4.986   9.293  0.1053  0.0404 -0.2092
  670MOL0     C88342   6.166   5.012   9.154 -0.8777  0.0845  0.3043
  670MOL0     O88343   6.103   5.130   9.131 -0.6251 -0.2892  0.4633
  670MOL0     C88344   6.077   5.180   8.995  0.0521  0.8301 -0.7107
  670MOL0     C88345   5.963   5.089   8.935  0.4223 -0.3282  0.3118
  670MOL0     C88346   5.867   5.171   8.844  0.4025  0.3311  0.7805
  670MOL0     C88347   5.736   5.102   8.816 -0.0534  0.5234  0.1956
  670MOL0     C88348   5.759   4.967   8.738  0.0805  0.8035 -0.6344
  670MOL0     C88349   5.809   4.979   8.592 -0.4446  0.9878 -0.5093
  670MOL0     C88350   5.844   4.847   8.535  0.4366  0.6490 -1.5057
  670MOL0     C88351   5.894   4.853   8.399  0.2201  0.7748  0.4728
  670MOL0    Cl88352   6.038   4.962   8.387  0.1006 -0.2846  0.5333
  670MOL0     C88353   6.221   4.925   9.059  0.1950 -0.0460 -0.6715
  670MOL0     C88354   6.278   4.802   9.109  0.8605 -0.4578 -0.2754
  670MOL0     O88355   6.158   4.544   9.313 -0.3606 -0.3531 -0.4221
  670MOL0     C88356   6.318   4.311   9.319  0.1439  0.0225 -0.6078
  670MOL0     C88357   6.393   4.201   9.333 -0.5516  0.0025 -0.7660
  670MOL0     N88358   6.745   3.653   9.183  0.0389  0.0356  0.1223
  670MOL0     N88359   6.828   3.658   9.083 -0.9339  0.4319  0.1626
  670MOL0     C88360   6.568   4.580   8.865  0.7032 -0.9259 -0.6180
  670MOL0     C88361   6.548   4.703   8.810 -0.4420 -0.0275  0.5276
  670MOL0     C88362   6.438   5.095   8.654 -0.8833  0.5280 -0.1036
  670MOL0     C88363   6.360   5.121   8.536  0.5372 -0.1745 -0.1589
  670MOL0     C88364   6.358   5.244   8.476  0.2790  0.4427 -0.1495
  670MOL0     C88365   6.442   5.345   8.518 -0.3119  0.5173 -0.0477
  670MOL0     O88366   6.436   5.459   8.440  0.5712  0.1167 -0.6391
  670MOL0     C88367   6.502   5.586   8.481 -0.4550 -0.5325 -0.0728
  670MOL0     C88368   6.416   5.698   8.425 -0.5510 -1.0801 -0.6954
  670MOL0     C88369   6.275   5.693   8.481 -0.2264 -0.1692  0.3708
  670MOL0     C88370   6.190   5.818   8.456  1.0493  0.3668  0.7475
  670MOL0     C88371   6.151   5.814   8.316 -1.0824 -0.1531  0.6997
  670MOL0     C88372   6.140   5.793   8.195 -0.8378  0.9466 -0.7302
  670MOL0     C88373   6.534   5.317   8.628 -0.2007 -0.9357  0.3286
  670MOL0     C88374   6.528   5.196   8.697 -0.3932 -0.6296 -0.3867
  670MOL0     H88375   6.647   4.905   9.053  3.1873  0.1101 -2.0354
  670MOL0     H88376   6.688   4.711   9.157  1.5189  0.3696 -1.9189
  670MOL0     H88377   6.524   4.341   8.940  0.1474 -1.5953 -4.4871
  670MOL0     H88378   6.636   4.241   9.039  2.2669 -0.8943 -0.3513
  670MOL0     H88379   6.774   4.389   8.822 -1.7919  0.1114 -1.5775
  670MOL0     H88380   6.652   4.266   8.776 -1.1707  0.6166  1.6278
  670MOL0     H88381   6.874   4.161   8.801  0.8258  0.3176  0.3866
  670MOL0     H88382   6.755   4.092   8.912  1.8592 -1.4011 -2.5970
  670MOL0     H88383   6.928   4.322   9.005 -0.2878 -0.2000  1.5784
  670MOL0     H88384   6.837   4.209   9.105 -1.3050  1.8031  0.2816
  670MOL0     H88385   7.073   4.140   9.116 -0.8992  1.0709 -0.2084
  670MOL0     H88386   7.074   4.135   8.932 -0.9442  1.1357 -0.2912
  670MOL0     H88387   6.917   3.929   8.961  1.0977  0.7602 -1.0653
  670MOL0     H88388   6.923   3.946   9.143  2.2604 -0.2530  1.0226
  670MOL0     H88389   7.182   3.910   8.988 -0.0729 -1.2726 -1.9786
  670MOL0     H88390   7.135   3.912   9.158 -3.2637 -0.2008  1.0202
  670MOL0     H88391   7.159   3.684   9.123  1.6306  0.4267 -1.5199
  670MOL0     H88392   7.078   3.688   8.968  1.0517  0.9697 -0.0449
  670MOL0     H88393   7.006   3.798   9.331  0.4104 -1.3836  1.4936
  670MOL0     H88394   6.800   3.694   9.511 -1.3488  1.0955  0.6631
  670MOL0     H88395   6.651   3.652   9.436 -2.0277  1.0204 -1.7659
  670MOL0     H88396   6.776   3.941   9.436 -0.9527  1.0117  0.6998
  670MOL0     H88397   6.695   3.875   9.573 -0.2544 -1.6173 -0.1992
  670MOL0     H88398   6.494   3.811   9.403  0.8818 -1.6075  2.6886
  670MOL0     H88399   6.501   3.961   9.487 -1.5779 -1.4843  1.1404
  670MOL0     H88400   6.471   3.970   9.226 -0.3059 -0.1652  0.5404
  670MOL0     H88401   6.647   3.926   9.214  2.2358  0.9882  2.4516
  670MOL0     H88402   6.695   4.334   9.332  0.3032 -2.3726  1.5947
  670MOL0     H88403   6.576   4.533   9.343  1.5570 -1.4961  1.9346
  670MOL0     H88404   6.221   4.844   9.449  1.2325 -1.6056  0.4174
  670MOL0     H88405   6.141   5.062   9.359 -1.5207  1.1500 -2.3454
  670MOL0     H88406   6.159   5.185   8.923 -2.2389  2.6672 -3.4089
  670MOL0     H88407   6.041   5.282   9.009  2.1215  1.5253 -0.1343
  670MOL0     H88408   5.904   5.053   9.020 -1.7738  2.0752 -0.0711
  670MOL0     H88409   6.012   5.009   8.879 -0.3431 -0.9350  0.4879
  670MOL0     H88410   5.915   5.181   8.746  0.0523 -3.6144  0.0677
  670MOL0     H88411   5.849   5.267   8.895  2.4340 -1.1307  4.6176
  670MOL0     H88412   5.676   5.095   8.908 -1.7386  3.1851 -0.5528
  670MOL0     H88413   5.681   5.172   8.752 -1.0941  0.3208  0.8437
  670MOL0     H88414   5.663   4.916   8.745  2.1108 -3.1119  3.2274
  670MOL0     H88415   5.832   4.901   8.787 -2.7864  0.4225  3.6829
  670MOL0     H88416   5.891   5.051   8.595 -1.5160  2.3671 -2.4980
  670MOL0     H88417   5.716   5.021   8.553 -0.9465 -0.3423 -0.7762
  670MOL0     H88418   5.922   4.795   8.592  1.3364  1.2968 -2.1099
  670MOL0     H88419   5.755   4.784   8.536  1.6848 -1.2160  0.3380
  670MOL0     H88420   5.823   4.913   8.342 -0.2287  1.4011  1.6687
  670MOL0     H88421   5.912   4.747   8.376  2.9599  0.0066  4.9338
  670MOL0     H88422   6.223   4.954   8.954  3.4960 -0.6227 -0.8711
  670MOL0     H88423   6.317   4.722   9.047 -1.6599 -0.1863 -2.4214
  670MOL0     H88424   6.210   4.304   9.318  0.1572 -0.5632  0.4839
  670MOL0     H88425   6.364   4.099   9.355  2.8230 -0.2602  4.2885
  670MOL0     H88426   6.558   4.494   8.798 -1.2683 -1.8675  0.8004
  670MOL0     H88427   6.520   4.697   8.705 -0.2488  0.2722  0.4570
  670MOL0     H88428   6.291   5.051   8.489 -0.5102  1.0903 -0.5603
  670MOL0     H88429   6.293   5.250   8.389 -0.6508 -1.3067  0.3884
  670MOL0     H88430   6.594   5.593   8.424 -1.6399 -0.3821 -2.0518
  670MOL0     H88431   6.520   5.597   8.588 -3.1657  1.3184  0.3166
  670MOL0     H88432   6.470   5.790   8.449 -0.1811 -2.0419  2.8095
  670MOL0     H88433   6.398   5.695   8.318 -1.5728 -1.7423 -0.5156
  670MOL0     H88434   6.295   5.687   8.588 -1.6264  0.5781  0.7122
  670MOL0     H88435   6.224   5.599   8.456  0.4940 -0.6442  0.6674
  670MOL0     H88436   6.092   5.813   8.505 -0.7571 -0.1680 -2.6213
  670MOL0     H88437   6.241   5.910   8.487  3.1348 -0.7974  0.9264
  670MOL0     H88438   6.137   5.776   8.089 -1.6949 -0.7191 -0.4786
  670MOL0     H88439   6.611   5.385   8.662 -0.7730 -1.3979  2.7528
  670MOL0     H88440   6.603   5.182   8.773 -0.5325 -1.5083 -0.3903
  671MOL0     O88441   8.084   9.871   0.756  0.4065 -0.6265 -0.1914
  671MOL0     C88442   8.082   9.955   0.664 -0.0428 -0.0267 -0.2442
  671MOL0     O88443   8.018  10.079   0.673  0.8369  0.2353  0.4763
  671MOL0     C88444   7.929  10.086   0.783  0.9927 -0.5140  0.6042
  671MOL0     C88445   7.944  10.195   0.867 -0.0492 -0.4734 -0.4156
  671MOL0     C88446   7.853  10.210   0.968  0.9133  0.4054 -0.8966
  671MOL0     C88447   7.751  10.113   0.998  0.2811 -0.8372  0.7767
  671MOL0     O88448   7.661  10.143   1.103 -0.3070 -0.1399 -0.2486
  671MOL0     C88449   7.577  10.034   1.138  0.5251 -0.5878  0.2976
  671MOL0     C88450   7.498  10.087   1.261  0.3282  0.4687 -0.4086
  671MOL0     C88451   7.381  10.171   1.222  1.1228  0.6270  0.4924
  671MOL0     C88452   7.317  10.248   1.336  0.3281  0.3594 -0.1469
  671MOL0     C88453   7.177  10.304   1.291 -0.1371 -0.0235  0.2259
  671MOL0     C88454   7.065  10.203   1.261  0.3864  0.0925 -0.9227
  671MOL0     C88455   6.940  10.287   1.233  0.1069  1.2342  1.1765
  671MOL0     C88456   6.815  10.222   1.169  0.1108  0.8292  0.3457
  671MOL0     N88457   6.764  10.117   1.266  0.6763  0.1230  0.1776
  671MOL0     C88458   6.727  10.138   1.401  0.1864  0.1455 -0.4277
  671MOL0     C88459   6.696  10.017   1.446 -0.3953 -0.1674  0.5001
  671MOL0     C88460   6.633   9.992   1.582  0.1908  0.2821  0.2361
  671MOL0     C88461   6.727   9.960   1.688 -0.1197 -0.5160  0.6885
  671MOL0     C88462   6.799   9.823   1.702  0.9197 -0.6074  0.3756
  671MOL0     C88463   6.706   9.705   1.684  1.5051  0.5192  0.2867
  671MOL0     O88464   6.745   9.581   1.738  0.9126  0.0184 -1.1504
  671MOL0     C88465   6.731   9.580   1.880 -0.4233 -0.3364  0.5229
  671MOL0     C88466   6.603   9.572   1.940  0.5681 -0.3394 -0.0432
  671MOL0     C88467   6.595   9.567   2.075  0.0589 -0.3317  0.1664
  671MOL0     C88468   6.700   9.562   2.151  0.5303 -0.1811 -0.3400
  671MOL0     C88469   6.683   9.544   2.298  0.1281  0.6437 -0.4432
  671MOL0     O88470   6.803   9.502   2.358  0.8556 -0.5795  0.5323
  671MOL0     C88471   6.845   9.514   2.490  1.1380 -0.0696 -0.4907
  671MOL0     C88472   6.978   9.481   2.522 -0.7127 -0.4573 -0.4167
  671MOL0     C88473   7.038   9.493   2.642 -0.0740  0.0672 -0.7556
  671MOL0     C88474   6.951   9.530   2.749  0.9358  0.2739 -0.8637
  671MOL0     O88475   7.004   9.538   2.877 -0.0005 -0.4051  0.5957
  671MOL0     C88476   6.935   9.632   2.967 -0.0878  0.9081  0.0160
  671MOL0     C88477   6.989   9.631   3.102 -0.8881 -0.3979 -0.3113
  671MOL0     C88478   6.938   9.747   3.187 -0.3451 -0.5598 -1.1174
  671MOL0     C88479   6.972   9.723   3.333  0.0564  0.2786 -0.5874
  671MOL0     C88480   6.925   9.838   3.430 -0.0650  0.9488 -0.6235
  671MOL0     C88481   6.971   9.797   3.569  0.6703  0.9658 -0.0764
  671MOL0     C88482   6.926   9.896   3.676  0.8459 -0.5004  0.6294
  671MOL0     C88483   6.787   9.941   3.669 -0.4906 -0.8368  0.0392
  671MOL0    Cl88484   6.750  10.055   3.809  0.0702 -0.1778 -0.3000
  671MOL0     C88485   6.817   9.569   2.719  0.1870 -0.2633 -0.0121
  671MOL0     C88486   6.767   9.560   2.589  0.4890  0.0821 -0.3531
  671MOL0     O88487   6.576   9.569   2.357  0.4816 -0.0206 -0.3105
  671MOL0     C88488   6.831   9.571   2.095  0.6753 -0.1558  0.1961
  671MOL0     C88489   6.843   9.594   1.958 -0.3380  0.0052 -0.2703
  671MOL0     N88490   6.711   9.931   1.331  0.1093  0.1577  0.2989
  671MOL0     N88491   6.746   9.994   1.224 -0.1919 -0.2575 -0.1446
  671MOL0     C88492   7.741   9.998   0.916 -0.3405 -1.2734  0.5984
  671MOL0     C88493   7.823   9.990   0.806 -0.6820  0.3879 -0.4441
  671MOL0     C88494   8.176   9.920   0.547  0.2331 -0.2889  0.4132
  671MOL0     C88495   8.284   9.824   0.559  0.1018  0.4130  0.6735
  671MOL0     C88496   8.356   9.777   0.455 -0.1061  0.4982  0.1309
  671MOL0     C88497   8.325   9.831   0.323  0.3943 -0.7669  0.6402
  671MOL0     O88498   8.398   9.783   0.219 -0.1024  0.2139 -0.0620
  671MOL0     C88499   8.357   9.810   0.076  0.3649 -0.3519 -0.1784
  671MOL0     C88500   8.478   9.804  -0.012 -0.3139  0.4438  0.4377
  671MOL0     C88501   8.575   9.684   0.011  0.0035  0.0348  0.0574
  671MOL0     C88502   8.671   9.664  -0.105  0.2395  1.0960 -0.3952
  671MOL0     C88503   8.803   9.741  -0.095  0.5510  0.7212 -0.3249
  671MOL0     C88504   8.911   9.801  -0.102 -0.1784 -0.7143  0.6531
  671MOL0     C88505   8.225   9.934   0.308 -0.9916 -0.7466 -0.5450
  671MOL0     C88506   8.153   9.978   0.419  0.3234  1.0194 -0.6226
  671MOL0     H88507   8.015  10.274   0.845 -1.5358  1.3229  0.8805
  671MOL0     H88508   7.861  10.297   1.032  4.0205 -1.2167  1.2044
  671MOL0     H88509   7.641   9.950   1.167 -1.5360 -2.4043 -0.0766
  671MOL0     H88510   7.505   9.996   1.064 -0.9018 -0.1795  1.4326
  671MOL0     H88511   7.558  10.156   1.322  0.6761 -1.7300  1.9392
  671MOL0     H88512   7.458  10.000   1.314  1.1787 -0.4612 -1.2406
  671MOL0     H88513   7.316  10.096   1.176  2.0030 -0.2760  0.6950
  671MOL0     H88514   7.417  10.236   1.141 -1.3014 -0.5227 -1.6492
  671MOL0     H88515   7.292  10.169   1.408 -0.4774  0.8029  0.0726
  671MOL0     H88516   7.387  10.318   1.382  2.9829 -0.3331 -2.8335
  671MOL0     H88517   7.196  10.356   1.197  2.8080  0.2862  0.8730
  671MOL0     H88518   7.135  10.369   1.369 -0.2243 -3.0938  2.9321
  671MOL0     H88519   7.032  10.154   1.353  1.7182 -0.2088 -0.5880
  671MOL0     H88520   7.082  10.133   1.179 -0.1289  1.6405 -2.4322
  671MOL0     H88521   6.901  10.338   1.322 -1.7095 -2.1939  2.5101
  671MOL0     H88522   6.957  10.359   1.152 -1.2922  2.3632  1.8438
  671MOL0     H88523   6.845  10.185   1.071  0.3472  1.1636  0.2915
  671MOL0     H88524   6.745  10.304   1.151 -3.5121 -2.3948 -2.0826
  671MOL0     H88525   6.704  10.231   1.452 -2.3990  0.6411 -2.2751
  671MOL0     H88526   6.560   9.911   1.568 -0.6009  0.3740  3.1459
  671MOL0     H88527   6.568  10.074   1.614 -2.1021 -1.2962 -0.0548
  671MOL0     H88528   6.681   9.979   1.785 -0.3424 -2.3503  0.9746
  671MOL0     H88529   6.806  10.034   1.668 -1.9369  1.7966  1.6702
  671MOL0     H88530   6.874   9.812   1.623 -1.3632 -1.2688 -1.8152
  671MOL0     H88531   6.855   9.817   1.796  1.2206 -0.7509  0.1875
  671MOL0     H88532   6.705   9.682   1.577 -3.2746  0.1057  0.2314
  671MOL0     H88533   6.603   9.729   1.712  0.9647 -0.9289 -0.3368
  671MOL0     H88534   6.518   9.575   1.873  0.1976 -1.9013  0.3309
  671MOL0     H88535   6.494   9.561   2.115  0.2864  0.5553  0.9119
  671MOL0     H88536   7.047   9.456   2.442  0.5160 -0.7466  0.6986
  671MOL0     H88537   7.134   9.449   2.666  0.8282  2.4407  0.3744
  671MOL0     H88538   6.835   9.593   2.986  1.4439 -1.6670  4.1071
  671MOL0     H88539   6.938   9.733   2.924 -0.7872  0.9495  0.0573
  671MOL0     H88540   7.098   9.636   3.107 -0.9543 -0.4042  2.0535
  671MOL0     H88541   6.961   9.538   3.151 -0.0327  1.8803  5.1841
  671MOL0     H88542   6.829   9.748   3.182 -0.3931  0.3479 -0.2009
  671MOL0     H88543   6.982   9.842   3.157 -2.3849  0.3628 -1.3062
  671MOL0     H88544   6.932   9.626   3.363  1.1881  0.6056  2.2806
  671MOL0     H88545   7.078   9.702   3.346 -0.3970 -1.5337  0.5383
  671MOL0     H88546   6.816   9.833   3.426 -0.1266 -0.2471  1.1084
  671MOL0     H88547   6.967   9.936   3.407  4.0171 -0.5181 -0.2721
  671MOL0     H88548   7.080   9.795   3.576  0.6386 -0.4197  0.3707
  671MOL0     H88549   6.925   9.699   3.585  1.1021  0.6562 -0.7001
  671MOL0     H88550   6.928   9.844   3.772  1.5215 -2.3109 -0.3048
  671MOL0     H88551   6.987   9.986   3.684 -1.0648  0.6649  3.9395
  671MOL0     H88552   6.718   9.857   3.669 -1.8347  0.2177  0.5887
  671MOL0     H88553   6.761  10.009   3.587 -1.8472  3.0292  3.3006
  671MOL0     H88554   6.750   9.601   2.798  1.1856  1.0241  0.3461
  671MOL0     H88555   6.679   9.620   2.567  1.1322  0.2947 -2.5970
  671MOL0     H88556   6.920   9.581   2.156  0.6246 -0.2200  0.2813
  671MOL0     H88557   6.946   9.604   1.926  0.2803  0.7223  1.7646
  671MOL0     H88558   7.686   9.906   0.935  3.6897 -3.6478  2.0139
  671MOL0     H88559   7.825   9.902   0.743 -0.4633 -2.8080  3.6263
  671MOL0     H88560   8.301   9.777   0.655  0.0845  1.5114  1.2289
  671MOL0     H88561   8.426   9.696   0.477 -4.4373 -3.3857  1.1169
  671MOL0     H88562   8.319   9.912   0.072 -0.7723 -0.7964 -1.8150
  671MOL0     H88563   8.293   9.726   0.049  0.0694 -0.4628  0.8267
  671MOL0     H88564   8.437   9.790  -0.112 -0.6384 -2.6903  0.9105
  671MOL0     H88565   8.535   9.898  -0.007  1.3549 -0.4031 -1.4241
  671MOL0     H88566   8.513   9.593   0.013  1.0375 -0.6965 -0.1129
  671MOL0     H88567   8.631   9.691   0.105 -1.3057 -0.7919  0.9293
  671MOL0     H88568   8.687   9.555  -0.112 -3.5330  0.1596  2.4432
  671MOL0     H88569   8.620   9.688  -0.198  0.9376 -1.1766 -1.4532
  671MOL0     H88570   9.001   9.860  -0.109  0.2362 -1.5151 -1.6241
  671MOL0     H88571   8.196   9.996   0.224 -2.3712 -0.4394  0.1347
  671MOL0     H88572   8.075  10.052   0.411 -1.6560 -0.8584  0.3120
  672MOL0     O88573   5.619   8.521   5.210  0.7021 -0.8510 -0.2585
  672MOL0     C88574   5.649   8.494   5.324 -0.3871 -0.1047 -0.4287
  672MOL0     O88575   5.763   8.433   5.361  0.6820  0.3557  0.7656
  672MOL0     C88576   5.850   8.380   5.263 -0.2887 -0.1808 -0.3427
  672MOL0     C88577   5.900   8.463   5.155  1.3332  1.5845 -1.1656
  672MOL0     C88578   5.986   8.391   5.066  0.3833 -0.2352 -0.5646
  672MOL0     C88579   6.016   8.253   5.067 -0.2874 -0.8444  0.8406
  672MOL0     O88580   6.099   8.189   4.978 -0.5660 -0.4951  0.2743
  672MOL0     C88581   6.201   8.261   4.908  0.2716 -0.3899  0.2807
  672MOL0     C88582   6.147   8.295   4.768 -0.0219  1.0039  0.5757
  672MOL0     C88583   6.270   8.317   4.665  0.8367 -0.0775 -0.1212
  672MOL0     C88584   6.213   8.388   4.538  0.4176 -0.3044 -0.1360
  672MOL0     C88585   6.319   8.478   4.472  0.3021 -0.4873 -0.0706
  672MOL0     C88586   6.284   8.516   4.327  0.9464  0.1172  0.6785
  672MOL0     C88587   6.144   8.572   4.308 -0.2818  0.1299  0.2547
  672MOL0     C88588   6.128   8.711   4.376 -1.1633  0.4037  1.0863
  672MOL0     N88589   6.235   8.807   4.320  0.3388 -0.0011 -0.4810
  672MOL0     C88590   6.199   8.896   4.224  0.1335  0.4607  0.3747
  672MOL0     C88591   6.296   8.991   4.241 -0.4498  0.4172  0.0964
  672MOL0     C88592   6.318   9.113   4.160 -0.2956  0.4221  0.2284
  672MOL0     C88593   6.247   9.235   4.224 -0.8675  0.0646  0.6514
  672MOL0     C88594   6.263   9.361   4.141 -0.1597 -0.1755  0.9767
  672MOL0     C88595   6.198   9.485   4.199  0.5660 -0.2889 -0.1597
  672MOL0     O88596   6.232   9.594   4.110 -0.5190 -0.0167 -0.1627
  672MOL0     C88597   6.182   9.722   4.131 -0.7172  0.6460 -0.0414
  672MOL0     C88598   6.082   9.749   4.222  0.0057  0.8713 -0.7754
  672MOL0     C88599   6.033   9.878   4.239 -0.3999 -0.3901 -0.4394
  672MOL0     C88600   6.078   9.981   4.164 -1.0088 -0.1647 -0.7165
  672MOL0     C88601   6.023  10.116   4.185 -0.1053  0.6199 -0.8886
  672MOL0     O88602   5.933  10.146   4.289  0.0769 -0.1551  0.6389
  672MOL0     C88603   5.886  10.275   4.305  0.7000 -0.1598 -0.1151
  672MOL0     C88604   5.853  10.316   4.434  0.6193 -0.5524 -0.2593
  672MOL0     C88605   5.791  10.444   4.458  1.0207 -1.0896 -0.2086
  672MOL0     C88606   5.746  10.518   4.342 -1.1437 -0.1977 -0.9189
  672MOL0     O88607   5.664  10.630   4.344  0.1838 -0.0594  0.1229
  672MOL0     C88608   5.669  10.703   4.470  0.6900 -0.8084 -0.3908
  672MOL0     C88609   5.608  10.840   4.462 -0.3912  0.3420  0.4307
  672MOL0     C88610   5.582  10.886   4.603  0.6521  0.0713 -0.2174
  672MOL0     C88611   5.565  11.036   4.626 -0.3948 -0.2187  0.7609
  672MOL0     C88612   5.541  11.076   4.773 -0.3599 -1.4687  0.4075
  672MOL0     C88613   5.434  11.002   4.854  0.1297 -0.4083 -0.1808
  672MOL0     C88614   5.300  10.986   4.777  0.8799  0.3142 -0.2270
  672MOL0     C88615   5.194  10.896   4.843 -1.3904  0.0083 -0.1730
  672MOL0    Cl88616   5.034  10.941   4.770  0.2047  0.5521 -0.3932
  672MOL0     C88617   5.762  10.469   4.213 -0.4703  0.1077  1.0889
  672MOL0     C88618   5.831  10.345   4.199  0.5091 -0.3966  0.9180
  672MOL0     O88619   6.046  10.189   4.091  1.2903 -0.0568  0.8358
  672MOL0     C88620   6.180   9.961   4.075 -0.6850  1.0224  0.8469
  672MOL0     C88621   6.234   9.827   4.050 -0.3273 -0.6660 -0.6661
  672MOL0     N88622   6.379   8.959   4.345 -0.0636 -0.1530  0.1093
  672MOL0     N88623   6.348   8.848   4.392  0.3985 -0.4479 -0.0695
  672MOL0     C88624   5.954   8.185   5.169 -0.6742  0.1387 -0.3845
  672MOL0     C88625   5.863   8.243   5.262 -0.4101  0.3551  0.1369
  672MOL0     C88626   5.560   8.511   5.436  0.8947 -0.4757  0.1939
  672MOL0     C88627   5.426   8.551   5.399  0.0681  0.1913 -0.1869
  672MOL0     C88628   5.335   8.580   5.499  0.0368  0.2888 -0.4483
  672MOL0     C88629   5.368   8.578   5.632 -0.0695  0.8039  0.2006
  672MOL0     O88630   5.270   8.636   5.722  0.6600  0.8846  0.0027
  672MOL0     C88631   5.306   8.652   5.861 -0.1001 -0.2969 -0.2926
  672MOL0     C88632   5.385   8.787   5.852  0.0606 -0.9751  0.2915
  672MOL0     C88633   5.318   8.899   5.927  0.0011  0.3275  0.2323
  672MOL0     C88634   5.417   9.022   5.941  0.1674 -0.6515  0.4583
  672MOL0     C88635   5.406   9.087   5.814 -0.6007 -0.2811 -0.4856
  672MOL0     C88636   5.409   9.164   5.717  0.4238 -0.1925  0.1005
  672MOL0     C88637   5.504   8.536   5.669  1.4174 -0.0523  0.2986
  672MOL0     C88638   5.600   8.510   5.573 -0.0845  0.5813 -0.3962
  672MOL0     H88639   5.880   8.569   5.140  3.5698  2.0788 -1.0302
  672MOL0     H88640   6.005   8.450   4.977 -0.4989  0.0964 -0.5434
  672MOL0     H88641   6.282   8.187   4.906  1.1799  0.5714 -1.8984
  672MOL0     H88642   6.228   8.351   4.964 -1.5892 -1.2433  2.7789
  672MOL0     H88643   6.093   8.390   4.778 -0.8981  0.5790 -0.0420
  672MOL0     H88644   6.074   8.223   4.731  0.7440  1.3426 -1.7471
  672MOL0     H88645   6.320   8.225   4.632  2.5460  0.8067 -0.1136
  672MOL0     H88646   6.354   8.373   4.708  0.2098  0.5636  0.2798
  672MOL0     H88647   6.175   8.323   4.459 -1.1155 -1.2312  1.2877
  672MOL0     H88648   6.124   8.444   4.567 -0.9855 -0.0566 -4.3184
  672MOL0     H88649   6.412   8.421   4.467  1.3007  1.2334 -2.7036
  672MOL0     H88650   6.334   8.564   4.538  4.8878  0.2644 -1.7945
  672MOL0     H88651   6.298   8.420   4.278 -3.2307 -1.1079  1.5198
  672MOL0     H88652   6.353   8.596   4.296  0.0626  0.1051 -1.4231
  672MOL0     H88653   6.126   8.595   4.202  0.3565  2.3127  0.5601
  672MOL0     H88654   6.063   8.507   4.341 -2.1747  2.9743  1.6221
  672MOL0     H88655   6.133   8.702   4.485 -1.6125 -0.2055  1.0573
  672MOL0     H88656   6.028   8.750   4.354  0.0018  3.1956  0.1963
  672MOL0     H88657   6.120   8.896   4.150  0.5570  0.0123 -0.0788
  672MOL0     H88658   6.272   9.088   4.064 -0.6694 -1.3889  0.8341
  672MOL0     H88659   6.423   9.129   4.137  0.3527 -4.8794 -2.0488
  672MOL0     H88660   6.290   9.246   4.324  0.3658 -1.0521  0.2762
  672MOL0     H88661   6.144   9.204   4.241 -1.2057  0.8816  0.1133
  672MOL0     H88662   6.371   9.375   4.129 -0.4420  1.1551 -0.3892
  672MOL0     H88663   6.234   9.348   4.036 -4.2811 -0.4534  1.9883
  672MOL0     H88664   6.229   9.505   4.302 -0.9156 -2.4982  0.8040
  672MOL0     H88665   6.089   9.473   4.197  0.5927 -0.4598 -0.9346
  672MOL0     H88666   6.043   9.675   4.292  0.4606 -0.4353 -1.8676
  672MOL0     H88667   5.960   9.887   4.319  1.0793 -0.9922  1.0327
  672MOL0     H88668   5.875  10.246   4.514  2.6717 -0.4813 -0.7006
  672MOL0     H88669   5.776  10.482   4.559  0.0182 -1.4623 -0.1979
  672MOL0     H88670   5.774  10.732   4.484  0.3823  2.3605 -3.3079
  672MOL0     H88671   5.633  10.654   4.561  1.6909 -0.3852  0.2514
  672MOL0     H88672   5.514  10.830   4.407  0.1524  1.7906 -0.8307
  672MOL0     H88673   5.675  10.907   4.407 -2.7286  1.7550 -0.8536
  672MOL0     H88674   5.655  10.843   4.672 -1.5790  0.2228  2.3978
  672MOL0     H88675   5.500  10.827   4.644  1.8804 -0.2175  2.0151
  672MOL0     H88676   5.652  11.092   4.591  0.5492 -0.3741  2.7600
  672MOL0     H88677   5.479  11.069   4.567 -1.5845 -1.1806  1.8974
  672MOL0     H88678   5.520  11.183   4.762  2.7525 -1.0000 -3.1607
  672MOL0     H88679   5.638  11.073   4.822 -0.0639  1.7415  0.2761
  672MOL0     H88680   5.419  11.067   4.941 -0.6826  0.5671 -1.0216
  672MOL0     H88681   5.472  10.908   4.895 -0.3027 -0.8856 -0.8612
  672MOL0     H88682   5.253  11.085   4.767  0.6683  0.2887  0.4926
  672MOL0     H88683   5.302  10.960   4.670 -0.8639 -0.4721 -0.0978
  672MOL0     H88684   5.174  10.916   4.948 -0.3183 -0.7019  0.1760
  672MOL0     H88685   5.205  10.789   4.825  2.0470  0.1576  0.3761
  672MOL0     H88686   5.726  10.515   4.121  1.6465 -1.3858 -0.5774
  672MOL0     H88687   5.836  10.313   4.095 -2.9838  4.4103 -1.1449
  672MOL0     H88688   6.219  10.036   4.006  0.8039 -3.1634 -3.4095
  672MOL0     H88689   6.316   9.807   3.981 -0.2348 -0.7217 -0.5400
  672MOL0     H88690   5.985   8.080   5.172  2.6864  1.0084 -0.4979
  672MOL0     H88691   5.827   8.178   5.340  0.1562  0.1923  0.2648
  672MOL0     H88692   5.405   8.556   5.292  0.6460  2.5925 -0.2359
  672MOL0     H88693   5.236   8.599   5.460  0.1402  0.4442 -0.6420
  672MOL0     H88694   5.362   8.572   5.910  2.0938  0.9211 -0.6822
  672MOL0     H88695   5.211   8.665   5.913  1.4711 -0.7497  2.8922
  672MOL0     H88696   5.483   8.768   5.896  0.3756  0.8286  0.4211
  672MOL0     H88697   5.394   8.830   5.752 -0.5588 -1.9845 -0.2196
  672MOL0     H88698   5.304   8.871   6.032  3.3864  0.6962  0.9079
  672MOL0     H88699   5.225   8.934   5.882  2.3347  4.3117 -2.0540
  672MOL0     H88700   5.377   9.090   6.017  1.8144  1.6527 -0.5865
  672MOL0     H88701   5.520   8.993   5.965  0.3176 -0.5625 -0.0648
  672MOL0     H88702   5.405   9.233   5.635  0.2886  3.7399  3.1298
  672MOL0     H88703   5.510   8.528   5.777 -1.2226 -1.1356  0.4269
  672MOL0     H88704   5.699   8.476   5.601 -0.8895 -0.6230  1.1785
  673MOL0     O88705   8.971   2.796   6.078 -0.1694  0.7245 -0.3997
  673MOL0     C88706   8.942   2.842   6.190 -0.7690  0.7395 -0.3722
  673MOL0     O88707   8.824   2.908   6.228 -0.4899 -0.5175 -0.2567
  673MOL0     C88708   8.713   2.859   6.163 -0.8476 -0.3841 -0.4933
  673MOL0     C88709   8.645   2.761   6.230 -0.9774  0.5025  0.5808
  673MOL0     C88710   8.530   2.709   6.182  0.5059  0.6461  0.1079
  673MOL0     C88711   8.472   2.764   6.058  0.0631  2.0915 -0.6391
  673MOL0     O88712   8.351   2.713   6.015 -0.1844  0.0114 -0.3452
  673MOL0     C88713   8.251   2.749   6.107  0.0032 -0.5309  0.0541
  673MOL0     C88714   8.167   2.623   6.127 -0.7203  0.2277 -0.3859
  673MOL0     C88715   8.022   2.653   6.159  0.8637 -0.2180  0.0603
  673MOL0     C88716   7.946   2.708   6.041  1.0240  0.4364  0.9445
  673MOL0     C88717   7.800   2.738   6.082  1.3025  0.8643  0.3463
  673MOL0     C88718   7.699   2.619   6.089 -0.2140 -0.0037 -0.4918
  673MOL0     C88719   7.557   2.687   6.074  0.7779  0.7653  0.5308
  673MOL0     C88720   7.441   2.576   6.050 -0.3546  0.9772  0.6233
  673MOL0     N88721   7.321   2.651   6.011 -0.0516 -0.5694  0.6241
  673MOL0     C88722   7.203   2.665   6.084 -1.1367 -0.6458  1.6252
  673MOL0     C88723   7.114   2.708   6.000 -0.3078 -0.5567 -0.7989
  673MOL0     C88724   6.966   2.723   6.052 -0.4469 -0.3997  0.0561
  673MOL0     C88725   6.953   2.826   6.160  0.2281  0.2964  0.1487
  673MOL0     C88726   6.934   2.972   6.114 -0.2059 -0.4137  0.4184
  673MOL0     C88727   6.911   3.068   6.236  0.4170 -0.0180  0.8238
  673MOL0     O88728   6.892   3.207   6.204 -0.1349  0.5206  0.5434
  673MOL0     C88729   7.004   3.277   6.153 -1.0887 -0.1668 -0.2974
  673MOL0     C88730   7.135   3.279   6.221 -0.1937 -0.5596 -0.1498
  673MOL0     C88731   7.242   3.355   6.175  0.5761  0.8139  0.8673
  673MOL0     C88732   7.225   3.441   6.058 -0.5090  0.5461 -1.2346
  673MOL0     C88733   7.327   3.538   6.021 -0.3747 -0.4962 -0.1084
  673MOL0     O88734   7.425   3.550   6.104 -0.3275 -0.4908 -0.0274
  673MOL0     C88735   7.521   3.639   6.073 -0.5822  0.5565  0.7812
  673MOL0     C88736   7.504   3.775   6.028 -0.1068 -0.5592  0.0672
  673MOL0     C88737   7.609   3.853   5.994 -0.7341 -0.5352  0.0380
  673MOL0     C88738   7.744   3.813   6.012  0.8694 -0.6096 -0.1480
  673MOL0     O88739   7.848   3.897   5.988  0.6927  0.2758  0.1287
  673MOL0     C88740   7.844   3.974   5.866  0.1374 -0.6194  0.0742
  673MOL0     C88741   7.818   4.124   5.906 -0.0278  0.8586 -0.4272
  673MOL0     C88742   7.749   4.212   5.799 -0.0833  0.1868 -0.2138
  673MOL0     C88743   7.855   4.227   5.688  0.6765  0.2820  1.4851
  673MOL0     C88744   7.821   4.343   5.589  0.4101  0.1407  0.2072
  673MOL0     C88745   7.940   4.362   5.492 -0.4244 -0.8203  0.5137
  673MOL0     C88746   7.914   4.500   5.443  0.2798 -0.0671 -0.3649
  673MOL0     C88747   8.000   4.559   5.337 -0.4645 -0.2953 -0.1494
  673MOL0    Cl88748   7.988   4.440   5.205 -0.0130  0.0097 -0.1741
  673MOL0     C88749   7.761   3.685   6.056  0.5339 -0.7621  0.5467
  673MOL0     C88750   7.655   3.603   6.091 -0.0214 -0.6323 -0.7385
  673MOL0     O88751   7.310   3.597   5.919 -0.0446  0.4866 -0.1471
  673MOL0     C88752   7.097   3.437   6.000 -0.4155 -0.0848 -0.3590
  673MOL0     C88753   6.995   3.355   6.041  0.3972  0.9812  0.0018
  673MOL0     N88754   7.175   2.745   5.877  0.5864  0.6829  0.0748
  673MOL0     N88755   7.298   2.705   5.886 -0.3831 -0.3084  0.4195
  673MOL0     C88756   8.536   2.874   6.010 -0.4510 -0.4919  0.6263
  673MOL0     C88757   8.656   2.921   6.065  0.1052  0.3157  0.9080
  673MOL0     C88758   9.055   2.840   6.286  0.7152  1.1205  0.3064
  673MOL0     C88759   9.169   2.773   6.258 -0.9446 -0.0089  0.4445
  673MOL0     C88760   9.282   2.780   6.348 -0.0523  0.7206 -0.5301
  673MOL0     C88761   9.278   2.851   6.471 -0.9963  0.3201 -0.1664
  673MOL0     O88762   9.390   2.843   6.550  0.0431 -0.3749  0.1840
  673MOL0     C88763   9.389   2.929   6.662 -0.0088 -0.7084 -1.0020
  673MOL0     C88764   9.524   2.944   6.733  0.6338 -0.1008 -0.0965
  673MOL0     C88765   9.560   2.838   6.837 -0.1603  0.1275 -0.2807
  673MOL0     C88766   9.578   2.699   6.772  0.8350  0.8065 -0.6158
  673MOL0     C88767   9.705   2.697   6.702 -0.2616 -1.5051 -0.4626
  673MOL0     C88768   9.809   2.708   6.633 -0.1601  0.1899  0.1819
  673MOL0     C88769   9.155   2.915   6.502 -0.0167  0.0459 -0.2494
  673MOL0     C88770   9.048   2.908   6.406 -1.0270 -0.3128  0.2613
  673MOL0     H88771   8.681   2.743   6.331  0.7853  1.2113  0.1243
  673MOL0     H88772   8.474   2.633   6.237 -0.2049 -0.4601 -2.0236
  673MOL0     H88773   8.194   2.834   6.070 -1.1387 -1.7489 -1.0673
  673MOL0     H88774   8.292   2.776   6.205 -1.3073 -0.8985  0.7291
  673MOL0     H88775   8.206   2.564   6.212  2.4348  2.5682 -0.0091
  673MOL0     H88776   8.175   2.570   6.032  3.7480  1.8858 -1.2134
  673MOL0     H88777   8.014   2.729   6.237 -3.4052 -1.1569  0.7900
  673MOL0     H88778   7.975   2.561   6.195  3.2171 -2.3607 -1.9478
  673MOL0     H88779   7.979   2.806   6.007 -1.9488  0.7362 -1.5465
  673MOL0     H88780   7.966   2.627   5.970  2.8889  2.4202 -0.9527
  673MOL0     H88781   7.766   2.809   6.006  0.3560 -1.6512 -1.7215
  673MOL0     H88782   7.794   2.785   6.181  3.2207 -2.5353  2.2617
  673MOL0     H88783   7.699   2.565   6.185  3.2190 -1.0170 -0.9383
  673MOL0     H88784   7.713   2.556   6.001  1.2745  0.5848 -0.7055
  673MOL0     H88785   7.536   2.747   6.163  2.6528 -2.7603  3.5901
  673MOL0     H88786   7.563   2.761   5.993  0.3816 -0.4099 -0.5941
  673MOL0     H88787   7.411   2.517   6.137 -0.8353  0.3070  0.0249
  673MOL0     H88788   7.476   2.508   5.972 -2.4939 -1.1321  1.3691
  673MOL0     H88789   7.192   2.646   6.190  1.1813  1.8325  2.4332
  673MOL0     H88790   6.943   2.623   6.090 -0.0538 -0.0471  1.2631
  673MOL0     H88791   6.898   2.736   5.967 -0.2960 -1.3169 -0.2136
  673MOL0     H88792   7.042   2.821   6.223 -0.7201 -0.1336  1.5083
  673MOL0     H88793   6.877   2.786   6.228  0.3650 -0.6344 -0.2322
  673MOL0     H88794   7.016   3.013   6.055 -1.7067  2.1920 -0.0085
  673MOL0     H88795   6.849   2.969   6.044 -0.6440  2.3867  0.7337
  673MOL0     H88796   6.986   3.059   6.315 -0.0999 -2.2225  1.1493
  673MOL0     H88797   6.820   3.020   6.273 -1.1299  0.9260 -1.5154
  673MOL0     H88798   7.166   3.199   6.288 -1.0044 -0.1614  0.7237
  673MOL0     H88799   7.333   3.340   6.231  1.6871 -0.8836 -1.2715
  673MOL0     H88800   7.405   3.815   6.008 -0.4611 -2.1867 -1.7225
  673MOL0     H88801   7.579   3.952   5.959  1.4250  2.0565  4.5443
  673MOL0     H88802   7.768   3.940   5.795 -0.5083 -2.5156  1.5465
  673MOL0     H88803   7.945   3.965   5.824  0.8955  3.3468  0.6876
  673MOL0     H88804   7.918   4.161   5.933  1.0507 -1.4316 -1.0193
  673MOL0     H88805   7.762   4.120   6.000  2.3291 -0.2116  1.0364
  673MOL0     H88806   7.723   4.309   5.843  2.8295  0.4093  1.3108
  673MOL0     H88807   7.658   4.168   5.758 -0.3193  1.7002 -1.4145
  673MOL0     H88808   7.951   4.254   5.733  3.4011 -1.2382 -2.8053
  673MOL0     H88809   7.849   4.127   5.646 -1.0621  0.6695  0.6891
  673MOL0     H88810   7.785   4.435   5.636  0.2831 -0.2787  0.9511
  673MOL0     H88811   7.731   4.304   5.539  0.7428 -1.7798  1.0209
  673MOL0     H88812   7.932   4.289   5.410 -0.4472 -0.4989  0.2259
  673MOL0     H88813   8.040   4.358   5.536 -0.4888 -1.3670  0.6226
  673MOL0     H88814   7.814   4.502   5.400 -0.6072  0.2846  1.6037
  673MOL0     H88815   7.921   4.575   5.522  1.5238 -0.4875 -0.0417
  673MOL0     H88816   8.104   4.562   5.372 -0.6150 -2.3792  0.5974
  673MOL0     H88817   7.966   4.659   5.310 -1.8697  0.0912  2.7023
  673MOL0     H88818   7.859   3.642   6.073 -0.3768 -1.9246  3.3163
  673MOL0     H88819   7.668   3.503   6.130 -2.5572 -1.3149 -1.4379
  673MOL0     H88820   7.083   3.524   5.937 -0.8085 -0.0327 -0.2026
  673MOL0     H88821   6.900   3.339   5.990 -0.5943  0.0153  2.0458
  673MOL0     H88822   8.502   2.928   5.922  0.5046  0.7040  0.9590
  673MOL0     H88823   8.703   3.010   6.024 -0.2701 -1.1133 -3.0428
  673MOL0     H88824   9.190   2.716   6.168  3.2088  0.5180  0.8699
  673MOL0     H88825   9.362   2.707   6.346 -0.9039 -0.2256 -1.4073
  673MOL0     H88826   9.329   2.887   6.744  0.3666  0.2178 -0.2373
  673MOL0     H88827   9.346   3.028   6.650 -0.7608 -1.2003 -2.6706
  673MOL0     H88828   9.607   2.965   6.665  1.4589 -2.3585  0.1410
  673MOL0     H88829   9.517   3.039   6.787 -3.4503 -1.3270  1.9731
  673MOL0     H88830   9.473   2.830   6.903 -0.3647  0.5640 -0.4956
  673MOL0     H88831   9.651   2.867   6.890 -1.4886  0.7340  1.7983
  673MOL0     H88832   9.575   2.624   6.851  1.6150  0.2859 -1.0716
  673MOL0     H88833   9.487   2.678   6.716 -1.6338  1.5912  2.7866
  673MOL0     H88834   9.898   2.723   6.576 -0.9554  0.6096 -0.9917
  673MOL0     H88835   9.149   2.978   6.590 -1.0350  0.8774 -0.8805
  673MOL0     H88836   8.965   2.975   6.426 -1.8493 -0.7509 -1.4554
  674MOL0     O88837   4.306  10.899  10.100 -1.0191 -0.1167  0.1675
  674MOL0     C88838   4.191  10.868  10.127  0.0323 -0.4812  0.5834
  674MOL0     O88839   4.109  10.929  10.217 -0.4787  0.0317  0.4009
  674MOL0     C88840   4.170  11.009  10.313 -0.1663  0.0438 -0.3974
  674MOL0     C88841   4.224  10.957  10.429 -0.4349 -0.0289  0.2979
  674MOL0     C88842   4.274  11.032  10.532  0.0932  0.3292 -0.8011
  674MOL0     C88843   4.268  11.174  10.522  0.8082  0.4952 -0.0645
  674MOL0     O88844   4.336  11.244  10.626 -0.2424 -0.3362  0.1791
  674MOL0     C88845   4.365  11.387  10.602 -0.5546  0.3492 -0.1987
  674MOL0     C88846   4.428  11.452  10.727 -0.0301  0.5681 -0.4467
  674MOL0     C88847   4.324  11.499  10.832 -1.2273 -0.7411  0.3295
  674MOL0     C88848   4.375  11.578  10.950 -0.6375 -0.2252 -0.7221
  674MOL0     C88849   4.272  11.585  11.068  0.9422  0.2964 -0.6152
  674MOL0     C88850   4.285  11.723  11.140 -0.1354  0.4391 -1.3136
  674MOL0     C88851   4.175  11.754  11.250  0.0484  0.3622  0.0502
  674MOL0     C88852   4.152  11.654  11.354  0.6277  0.8701 -0.4232
  674MOL0     N88853   4.033  11.692  11.441 -0.2120  0.3024 -0.4757
  674MOL0     C88854   4.040  11.742  11.570  0.4322 -0.3871  0.8894
  674MOL0     C88855   3.904  11.777  11.592 -0.8972 -0.6574 -0.2456
  674MOL0     C88856   3.844  11.819  11.727 -0.0692  0.2602  0.4791
  674MOL0     C88857   3.856  11.699  11.814 -0.1193  0.1629 -0.0052
  674MOL0     C88858   3.789  11.731  11.951  0.3592  0.2694 -0.6011
  674MOL0     C88859   3.737  11.611  12.029 -0.1730 -0.4988 -1.1468
  674MOL0     O88860   3.812  11.561  12.142 -0.7982  0.7084  0.9379
  674MOL0     C88861   3.917  11.485  12.101  0.0133  0.5275  0.4220
  674MOL0     C88862   3.902  11.368  12.029  0.5162  0.5133 -1.4578
  674MOL0     C88863   4.008  11.299  11.967 -0.0177 -0.0661 -0.1951
  674MOL0     C88864   4.141  11.340  11.998  0.2873  0.5701 -0.2516
  674MOL0     C88865   4.261  11.263  11.951  0.9043  0.4757 -0.3071
  674MOL0     O88866   4.230  11.142  11.879 -0.7290 -0.1069 -0.1647
  674MOL0     C88867   4.330  11.066  11.827  0.0749  0.2937 -0.7547
  674MOL0     C88868   4.297  10.930  11.813 -0.1653 -0.6706  0.5891
  674MOL0     C88869   4.386  10.838  11.763 -1.3594  0.6812  0.6596
  674MOL0     C88870   4.504  10.883  11.703  0.5113  0.1759 -0.1341
  674MOL0     O88871   4.581  10.803  11.625  0.7003 -0.1321 -0.2629
  674MOL0     C88872   4.562  10.658  11.610  0.0997 -0.0846  0.3605
  674MOL0     C88873   4.699  10.604  11.567 -0.3406 -0.1832  0.3044
  674MOL0     C88874   4.687  10.450  11.542 -0.0682  0.1604  0.3480
  674MOL0     C88875   4.629  10.422  11.403 -0.8653 -0.0976  1.7690
  674MOL0     C88876   4.643  10.272  11.368  1.1315  0.0755 -0.1063
  674MOL0     C88877   4.599  10.216  11.236  0.4909  0.2629  0.9812
  674MOL0     C88878   4.612  10.309  11.112  0.3208 -0.1903 -0.0139
  674MOL0     C88879   4.604  10.222  10.987  1.3026  0.2153  1.4071
  674MOL0    Cl88880   4.749  10.135  10.976 -0.0800 -0.0561 -0.6664
  674MOL0     C88881   4.536  11.026  11.706 -0.3966  1.1692 -0.1289
  674MOL0     C88882   4.453  11.110  11.779  0.1939 -0.7126  0.6437
  674MOL0     O88883   4.371  11.308  11.977 -0.0609  0.5834 -0.0159
  674MOL0     C88884   4.160  11.443  12.096  0.5987  1.2060 -0.9096
  674MOL0     C88885   4.053  11.521  12.136  0.3766  0.3513  0.4166
  674MOL0     N88886   3.829  11.736  11.488  0.1548  0.0453 -0.0567
  674MOL0     N88887   3.909  11.687  11.401  0.6364 -0.6748 -0.2513
  674MOL0     C88888   4.202  11.226  10.406 -1.0596 -0.6111 -0.3097
  674MOL0     C88889   4.160  11.143  10.303 -0.5987 -0.6704 -0.1084
  674MOL0     C88890   4.139  10.756  10.050 -0.0012  0.1710  0.6742
  674MOL0     C88891   4.001  10.724  10.058  1.0520  0.3784 -0.3285
  674MOL0     C88892   3.933  10.632   9.971 -0.0529  0.3966 -0.0630
  674MOL0     C88893   4.000  10.591   9.857  0.4409  0.8710 -0.6948
  674MOL0     O88894   3.932  10.507   9.770  0.6083 -0.1482 -1.0495
  674MOL0     C88895   4.013  10.403   9.714 -0.6365  0.8603 -1.1927
  674MOL0     C88896   4.001  10.424   9.564 -0.5087 -1.0902 -0.8312
  674MOL0     C88897   4.063  10.306   9.496  0.4132  0.0511  0.5979
  674MOL0     C88898   3.966  10.193   9.482  0.1325  0.1055  0.7223
  674MOL0     C88899   4.010  10.085   9.394  0.3625 -0.0889 -0.2348
  674MOL0     C88900   4.028   9.993   9.317 -0.3770 -0.6049  0.2270
  674MOL0     C88901   4.140  10.625   9.850 -0.2819  0.7421  0.0443
  674MOL0     C88902   4.211  10.707   9.937  0.0335 -0.2645  0.3722
  674MOL0     H88903   4.220  10.849  10.441 -1.6875 -0.3856 -2.5256
  674MOL0     H88904   4.317  10.990  10.622 -2.7696  2.5108  1.7758
  674MOL0     H88905   4.277  11.446  10.574 -0.6392  0.2309 -0.1850
  674MOL0     H88906   4.436  11.392  10.519  0.7560  0.4219  0.8857
  674MOL0     H88907   4.483  11.537  10.685  1.4379  0.1011  0.4593
  674MOL0     H88908   4.492  11.377  10.774 -2.0055  1.0294  3.4214
  674MOL0     H88909   4.281  11.412  10.883 -0.5576 -0.3151  1.6535
  674MOL0     H88910   4.251  11.564  10.782  1.1098  0.9815 -1.0495
  674MOL0     H88911   4.464  11.528  10.989  0.1890  2.5809  1.2522
  674MOL0     H88912   4.398  11.673  10.902 -3.8678  0.6825 -0.7482
  674MOL0     H88913   4.292  11.508  11.143  1.8692  0.1441 -1.0152
  674MOL0     H88914   4.171  11.575  11.028  1.0764 -1.6503 -0.5590
  674MOL0     H88915   4.273  11.802  11.065 -0.8329  2.3353  0.6749
  674MOL0     H88916   4.387  11.716  11.180 -0.5178 -1.6584 -0.5853
  674MOL0     H88917   4.194  11.853  11.294 -1.9005  1.7404 -1.9927
  674MOL0     H88918   4.083  11.772  11.194 -0.0145 -1.9373 -0.6733
  674MOL0     H88919   4.225  11.638  11.434 -2.5899  2.5949  3.2123
  674MOL0     H88920   4.134  11.560  11.302  1.4534  0.0503  0.7254
  674MOL0     H88921   4.124  11.771  11.632  0.6203  2.1726 -0.4306
  674MOL0     H88922   3.747  11.867  11.710  0.6290  0.8788 -2.1042
  674MOL0     H88923   3.912  11.896  11.768  0.9088 -0.7972  0.9106
  674MOL0     H88924   3.960  11.665  11.823  0.0955 -0.3081 -3.0711
  674MOL0     H88925   3.806  11.619  11.759  2.9231 -0.9285 -1.4359
  674MOL0     H88926   3.856  11.791  12.014 -0.5488 -0.4001  1.0763
  674MOL0     H88927   3.698  11.790  11.939 -1.9023 -3.0661 -1.1680
  674MOL0     H88928   3.703  11.540  11.954  0.1729 -0.1014 -1.6885
  674MOL0     H88929   3.650  11.651  12.084  0.5985  0.5804 -0.6670
  674MOL0     H88930   3.803  11.328  12.010  0.5823 -0.9710  0.8972
  674MOL0     H88931   3.988  11.214  11.902 -1.1855  0.3063 -0.3480
  674MOL0     H88932   4.202  10.896  11.852 -0.5198 -1.8037 -1.1506
  674MOL0     H88933   4.347  10.736  11.766 -1.4389  0.7327  3.4693
  674MOL0     H88934   4.487  10.621  11.540 -0.3759 -1.1961  1.4148
  674MOL0     H88935   4.532  10.611  11.704  0.4871  2.6232  1.9767
  674MOL0     H88936   4.770  10.625  11.647 -0.4483  2.0939 -0.1187
  674MOL0     H88937   4.725  10.655  11.473 -2.6726  1.1874  0.3417
  674MOL0     H88938   4.618  10.411  11.617 -0.8418 -0.4771 -0.6568
  674MOL0     H88939   4.786  10.404  11.543 -0.6465 -1.2011  3.1647
  674MOL0     H88940   4.530  10.465  11.387  0.0200  1.1584 -0.8993
  674MOL0     H88941   4.691  10.476  11.331 -0.1488 -0.6534  1.9507
  674MOL0     H88942   4.577  10.229  11.444 -0.3457  0.7186 -0.9799
  674MOL0     H88943   4.744  10.236  11.392  1.5192  0.1786 -1.4787
  674MOL0     H88944   4.492  10.194  11.243  0.5383 -0.2068  0.3929
  674MOL0     H88945   4.659  10.126  11.217  1.3150  1.2822 -1.7731
  674MOL0     H88946   4.539  10.390  11.112 -0.1741 -0.6219  0.5864
  674MOL0     H88947   4.708  10.361  11.104  0.5409 -0.7195 -0.9593
  674MOL0     H88948   4.592  10.294  10.905  1.1485 -1.4188 -0.0547
  674MOL0     H88949   4.518  10.155  10.979  0.0541  1.8859 -0.3612
  674MOL0     H88950   4.626  11.069  11.663  1.3392  0.4662  2.5183
  674MOL0     H88951   4.474  11.216  11.782  0.1075 -0.6554 -0.4068
  674MOL0     H88952   4.261  11.458  12.132  2.0195 -3.7544 -2.0993
  674MOL0     H88953   4.056  11.607  12.203  0.8657  1.0119 -0.4224
  674MOL0     H88954   4.202  11.334  10.396 -0.7604 -0.6933 -1.2466
  674MOL0     H88955   4.122  11.203  10.221 -0.0171  2.1132  1.5183
  674MOL0     H88956   3.934  10.769  10.131  0.8846  1.6758 -1.2568
  674MOL0     H88957   3.832  10.594   9.974 -0.1849  0.7969  1.5991
  674MOL0     H88958   3.983  10.301   9.739 -1.0422  1.4830  1.0434
  674MOL0     H88959   4.117  10.419   9.742 -0.9187  2.0861 -0.7612
  674MOL0     H88960   3.903  10.455   9.526 -0.3016 -1.5241 -1.7366
  674MOL0     H88961   4.066  10.507   9.535  1.5965 -2.4084 -0.1468
  674MOL0     H88962   4.152  10.271   9.549  0.9766 -2.1303 -1.5881
  674MOL0     H88963   4.090  10.334   9.394 -1.5548 -2.4627 -0.7204
  674MOL0     H88964   3.943  10.152   9.581 -3.2343  1.7397  0.7591
  674MOL0     H88965   3.871  10.232   9.444 -1.3758 -1.2512  2.8895
  674MOL0     H88966   4.044   9.922   9.239  1.8220  0.0130  0.0452
  674MOL0     H88967   4.198  10.599   9.762 -1.8621  0.3694 -0.9462
  674MOL0     H88968   4.313  10.732   9.908  1.8326 -3.2215  3.3815
  675MOL0     O88969   4.974   6.801   2.809  0.6378  0.4993  0.0397
  675MOL0     C88970   4.913   6.863   2.722 -0.5783 -0.1260 -0.2815
  675MOL0     O88971   4.905   6.826   2.591 -0.1597  0.9776  1.3302
  675MOL0     C88972   4.991   6.726   2.551 -0.1021  0.3729 -0.4306
  675MOL0     C88973   5.126   6.758   2.515  0.5995 -0.4733 -0.4405
  675MOL0     C88974   5.217   6.656   2.487 -0.5279 -1.1075 -0.4576
  675MOL0     C88975   5.186   6.521   2.490 -0.5338  0.5624  0.9417
  675MOL0     O88976   5.284   6.432   2.457  0.3536  0.7412 -0.6729
  675MOL0     C88977   5.252   6.297   2.420  0.2663 -0.2129  0.2110
  675MOL0     C88978   5.362   6.226   2.338 -0.2484 -0.3276  0.4488
  675MOL0     C88979   5.507   6.242   2.400 -0.0097  0.2237 -0.7909
  675MOL0     C88980   5.607   6.163   2.320  0.7732 -0.2288 -0.6350
  675MOL0     C88981   5.631   6.230   2.191 -1.0016 -0.9163  0.9485
  675MOL0     C88982   5.771   6.204   2.126  0.0401  0.4013 -0.2227
  675MOL0     C88983   5.794   6.056   2.076 -0.1438  1.0270 -0.4055
  675MOL0     C88984   5.947   6.048   2.051  0.0143  0.5043  0.6057
  675MOL0     N88985   6.024   5.992   2.160 -0.2949  0.0832  0.3659
  675MOL0     C88986   6.156   5.960   2.152 -0.5024  0.3034 -0.2452
  675MOL0     C88987   6.186   5.905   2.273 -0.3408  0.9407  1.3599
  675MOL0     C88988   6.315   5.859   2.324 -0.4113 -0.5801  0.2296
  675MOL0     C88989   6.320   5.706   2.360  0.2540 -0.6973  0.2296
  675MOL0     C88990   6.455   5.639   2.381  0.1165 -0.1186 -0.3956
  675MOL0     C88991   6.542   5.708   2.483 -0.4182 -0.1495 -0.1245
  675MOL0     O88992   6.663   5.642   2.515  0.4878 -0.7381  0.1145
  675MOL0     C88993   6.726   5.690   2.628 -0.0855  0.5737  0.2347
  675MOL0     C88994   6.683   5.793   2.709 -0.1497 -0.9545  0.0654
  675MOL0     C88995   6.742   5.833   2.826 -0.2502  0.0191  1.2656
  675MOL0     C88996   6.859   5.771   2.865  1.6827 -0.4291  0.9042
  675MOL0     C88997   6.926   5.816   2.984 -0.1987 -0.7673  0.1526
  675MOL0     O88998   6.848   5.873   3.077 -0.6204 -0.5299 -0.1511
  675MOL0     C88999   6.906   5.864   3.203  0.5500  0.9017  0.7311
  675MOL0     C89000   6.948   5.746   3.260 -0.2340 -0.0145 -0.2370
  675MOL0     C89001   7.005   5.754   3.389  0.4370  0.0095  0.1355
  675MOL0     C89002   7.023   5.874   3.460 -0.9321 -0.4318 -0.3266
  675MOL0     O89003   7.083   5.860   3.582 -0.1218 -0.3505  0.2292
  675MOL0     C89004   7.093   5.968   3.670 -0.5405  0.0371  0.7315
  675MOL0     C89005   7.150   5.926   3.807 -0.5849  0.0784 -0.3502
  675MOL0     C89006   7.099   5.811   3.893  0.2498 -0.0358 -0.2767
  675MOL0     C89007   7.113   5.670   3.828 -0.3738  0.1303 -0.2064
  675MOL0     C89008   7.092   5.557   3.921  0.5410 -0.3577  0.1450
  675MOL0     C89009   6.951   5.531   3.979  1.2509  0.6582 -0.1205
  675MOL0     C89010   6.843   5.563   3.881 -0.5377  0.0389  0.8657
  675MOL0     C89011   6.839   5.477   3.751 -0.2590  0.2300  0.3983
  675MOL0    Cl89012   6.737   5.540   3.620 -0.0369 -0.3730  0.8230
  675MOL0     C89013   6.971   5.995   3.408  0.3076  0.3913 -0.1186
  675MOL0     C89014   6.912   5.980   3.285  0.2923  1.0383 -0.0848
  675MOL0     O89015   7.051   5.818   2.976  0.5255  0.0582  0.8429
  675MOL0     C89016   6.914   5.675   2.780 -0.8106 -0.3677 -0.7920
  675MOL0     C89017   6.845   5.634   2.664  0.6201 -0.6221 -0.3338
  675MOL0     N89018   6.074   5.913   2.355  0.1485 -0.1093  1.5890
  675MOL0     N89019   5.983   5.973   2.291  0.7079 -0.8660 -0.0043
  675MOL0     C89020   5.052   6.495   2.519  0.1989 -0.3344 -1.0253
  675MOL0     C89021   4.958   6.587   2.560  0.6063  0.8998 -0.2294
  675MOL0     C89022   4.841   6.980   2.758  0.2112  0.0172 -0.3967
  675MOL0     C89023   4.770   7.048   2.659 -0.0148 -1.1512 -0.2159
  675MOL0     C89024   4.683   7.143   2.699 -0.3529  0.0072  2.1556
  675MOL0     C89025   4.669   7.178   2.828 -0.9770 -0.6162  0.8536
  675MOL0     O89026   4.574   7.279   2.837  0.4382  0.2867  0.0281
  675MOL0     C89027   4.591   7.364   2.947 -0.0248 -0.1069  0.8422
  675MOL0     C89028   4.476   7.473   2.941 -0.1395  0.3806  0.2421
  675MOL0     C89029   4.342   7.414   2.981 -0.9182 -0.0738 -0.3311
  675MOL0     C89030   4.298   7.460   3.122 -1.2149 -1.0570 -0.1252
  675MOL0     C89031   4.383   7.434   3.232 -0.0987 -0.6834  0.1355
  675MOL0     C89032   4.460   7.450   3.326  0.8658  0.9196 -0.0606
  675MOL0     C89033   4.753   7.119   2.927 -0.0371 -0.3681  0.5756
  675MOL0     C89034   4.842   7.027   2.887  0.0381  1.2117  0.0009
  675MOL0     H89035   5.147   6.864   2.502 -0.6372 -0.2540 -0.8407
  675MOL0     H89036   5.317   6.685   2.457 -0.3989 -1.9822 -0.8887
  675MOL0     H89037   5.155   6.282   2.373  0.4297  0.0679 -0.2277
  675MOL0     H89038   5.247   6.239   2.512  4.6423 -2.1283 -0.5199
  675MOL0     H89039   5.367   6.273   2.239  2.0013  0.5088  0.9017
  675MOL0     H89040   5.338   6.120   2.339 -2.5795  0.1215  1.9597
  675MOL0     H89041   5.524   6.221   2.506  0.6453  1.2557 -0.6833
  675MOL0     H89042   5.532   6.347   2.389 -1.0129  0.3727 -1.8439
  675MOL0     H89043   5.705   6.158   2.369  1.8518  1.3606 -2.5014
  675MOL0     H89044   5.577   6.061   2.297 -1.8115  0.2179  0.3630
  675MOL0     H89045   5.647   6.332   2.227  1.4656 -0.6811 -0.5392
  675MOL0     H89046   5.554   6.220   2.113 -0.1655 -3.0504  0.3230
  675MOL0     H89047   5.842   6.222   2.208  0.2077 -4.0580  0.9064
  675MOL0     H89048   5.786   6.278   2.048  2.2817  0.9826  0.6916
  675MOL0     H89049   5.757   5.983   2.149 -3.5709  3.7490  0.9213
  675MOL0     H89050   5.723   6.047   1.993 -1.2854  0.9097  0.5499
  675MOL0     H89051   5.987   6.147   2.024  2.6410 -0.1774  1.6778
  675MOL0     H89052   5.960   5.994   1.957 -0.2650  2.9190 -0.9304
  675MOL0     H89053   6.219   5.961   2.064 -1.8010 -2.9939 -1.3689
  675MOL0     H89054   6.342   5.912   2.416  2.5650 -1.0229 -0.2778
  675MOL0     H89055   6.398   5.884   2.257 -0.9628  0.5066 -0.0632
  675MOL0     H89056   6.258   5.643   2.296 -3.2019 -1.1507  3.6698
  675MOL0     H89057   6.276   5.694   2.459  1.4456  1.9999  1.1792
  675MOL0     H89058   6.437   5.533   2.401  4.0891 -0.8368  0.1228
  675MOL0     H89059   6.508   5.643   2.285  0.4065 -1.9249 -0.3449
  675MOL0     H89060   6.497   5.716   2.583  2.7115  2.1250  1.2906
  675MOL0     H89061   6.573   5.807   2.448  1.9680 -0.3107  1.3148
  675MOL0     H89062   6.591   5.847   2.686  2.0570  1.4478 -4.6521
  675MOL0     H89063   6.698   5.919   2.876 -3.4017 -1.3563  1.1178
  675MOL0     H89064   6.948   5.656   3.200  0.4613  0.6105 -1.1904
  675MOL0     H89065   7.062   5.668   3.424  0.7202 -0.7586 -2.0364
  675MOL0     H89066   6.997   6.013   3.696  0.3857  1.8914  1.1046
  675MOL0     H89067   7.157   6.041   3.619 -0.5847 -0.3471  0.1195
  675MOL0     H89068   7.148   6.019   3.865 -2.1677  0.7658 -1.4509
  675MOL0     H89069   7.256   5.907   3.789 -0.4812 -1.0885  1.2920
  675MOL0     H89070   6.994   5.829   3.920 -0.3328 -1.4138 -1.4812
  675MOL0     H89071   7.158   5.801   3.985  2.4284  1.5979 -1.4162
  675MOL0     H89072   7.043   5.664   3.744 -2.8040  0.4411  1.6891
  675MOL0     H89073   7.214   5.672   3.785  0.9595  4.5437  2.4586
  675MOL0     H89074   7.167   5.570   4.000  2.4792 -0.2665 -1.6191
  675MOL0     H89075   7.124   5.465   3.871 -0.7500  0.1401 -1.6927
  675MOL0     H89076   6.933   5.584   4.073 -3.1526 -0.0754 -0.3375
  675MOL0     H89077   6.936   5.427   4.009 -1.4668  0.3859 -2.0699
  675MOL0     H89078   6.746   5.547   3.927 -0.9090 -0.4818 -0.0670
  675MOL0     H89079   6.865   5.666   3.850  1.5061 -0.5820  0.0265
  675MOL0     H89080   6.810   5.374   3.772  0.9079  0.0285  1.0959
  675MOL0     H89081   6.939   5.480   3.707  0.8363  2.4103  2.7797
  675MOL0     H89082   6.983   6.092   3.455 -1.8038  1.0648 -0.8946
  675MOL0     H89083   6.898   6.080   3.246  0.7921  1.4264  0.6941
  675MOL0     H89084   7.013   5.636   2.802  0.0933  1.5605 -1.2463
  675MOL0     H89085   6.888   5.558   2.599  3.3056  0.1194  0.4235
  675MOL0     H89086   5.004   6.397   2.522 -2.1854  0.6602  3.5484
  675MOL0     H89087   4.859   6.546   2.580  0.4504 -0.2394 -2.9032
  675MOL0     H89088   4.768   7.020   2.554  1.3671 -4.1315  0.4225
  675MOL0     H89089   4.625   7.176   2.613  2.9029  1.7162  0.4429
  675MOL0     H89090   4.688   7.414   2.939 -0.2279  0.1126 -0.2980
  675MOL0     H89091   4.595   7.311   3.043  0.8963  1.5469  1.7682
  675MOL0     H89092   4.507   7.560   3.000  2.7203 -0.8651  0.7772
  675MOL0     H89093   4.467   7.517   2.841  0.0618  0.9627  0.4788
  675MOL0     H89094   4.326   7.306   2.968 -2.6315  0.0605  0.3573
  675MOL0     H89095   4.274   7.463   2.910  2.9357  2.0343 -2.9132
  675MOL0     H89096   4.296   7.570   3.118  3.9759 -0.7249 -0.5225
  675MOL0     H89097   4.205   7.410   3.150 -1.9937 -0.7136 -1.9874
  675MOL0     H89098   4.528   7.450   3.408 -1.2988  0.6440  1.8173
  675MOL0     H89099   4.752   7.149   3.031  1.3647 -1.0612  0.8164
  675MOL0     H89100   4.888   6.971   2.967  3.5862  0.0033 -2.6165
  676MOL0     O89101   9.547   4.397   9.647  0.2228  0.8349  0.1547
  676MOL0     C89102   9.562   4.286   9.695  1.1603  0.3447  1.0076
  676MOL0     O89103   9.527   4.176   9.634 -0.3301 -0.0279 -0.2356
  676MOL0     C89104   9.444   4.186   9.525  0.2677  0.4964 -0.0418
  676MOL0     C89105   9.509   4.138   9.412  0.5978  0.1127  0.7367
  676MOL0     C89106   9.436   4.142   9.293 -0.8058 -0.5489 -0.2409
  676MOL0     C89107   9.297   4.170   9.292  0.1597 -0.1096 -0.2312
  676MOL0     O89108   9.216   4.140   9.190  0.0190 -0.5260  0.3438
  676MOL0     C89109   9.258   4.045   9.092 -0.9460 -0.0188  0.2157
  676MOL0     C89110   9.132   3.959   9.065 -0.6408 -0.3411 -0.0910
  676MOL0     C89111   9.143   3.885   8.932 -0.0993  0.3274  0.1660
  676MOL0     C89112   9.014   3.799   8.924 -0.6808  0.4021 -0.4427
  676MOL0     C89113   8.892   3.860   8.877  0.0381 -0.2785 -0.2275
  676MOL0     C89114   8.884   3.842   8.724  0.1614 -0.7509  0.4141
  676MOL0     C89115   8.766   3.912   8.663 -0.6772  0.2958 -0.6010
  676MOL0     C89116   8.780   3.918   8.516 -0.4305 -1.0652  0.0128
  676MOL0     N89117   8.653   3.960   8.459 -0.4751 -0.3790  0.8286
  676MOL0     C89118   8.589   4.083   8.473  0.1351  0.2515 -0.4441
  676MOL0     C89119   8.469   4.071   8.415  0.7469  0.1214 -0.3553
  676MOL0     C89120   8.364   4.187   8.393 -1.1657 -0.5027  1.1968
  676MOL0     C89121   8.292   4.225   8.523  0.6396 -0.6952 -0.2160
  676MOL0     C89122   8.328   4.370   8.570 -0.1279  0.7544  0.0400
  676MOL0     C89123   8.256   4.414   8.694  0.5875 -0.2190 -0.1903
  676MOL0     O89124   8.334   4.353   8.793 -0.0090  0.4005 -0.6328
  676MOL0     C89125   8.398   4.445   8.875 -0.1726  1.0921 -0.0502
  676MOL0     C89126   8.351   4.565   8.920 -0.7190 -0.0608 -0.5061
  676MOL0     C89127   8.428   4.643   9.006  0.0546  0.3560  0.3029
  676MOL0     C89128   8.552   4.599   9.055  0.7234 -0.1814  1.1593
  676MOL0     C89129   8.628   4.681   9.142  0.1768 -1.2508 -0.1295
  676MOL0     O89130   8.721   4.629   9.229 -0.7897 -0.2064 -0.5544
  676MOL0     C89131   8.809   4.714   9.284  0.4255 -0.1150  0.1288
  676MOL0     C89132   8.849   4.692   9.418 -0.5098 -0.8213  0.5304
  676MOL0     C89133   8.965   4.765   9.466 -0.6898  0.5212 -0.8972
  676MOL0     C89134   9.015   4.860   9.389  0.4192 -0.6993  0.0672
  676MOL0     O89135   9.121   4.929   9.439 -0.0865  0.0908 -0.5353
  676MOL0     C89136   9.128   5.064   9.394  0.1518  0.2219  0.8249
  676MOL0     C89137   9.216   5.140   9.499  0.5992 -0.1143  0.3996
  676MOL0     C89138   9.143   5.223   9.603 -0.2519 -0.9663 -0.1836
  676MOL0     C89139   9.026   5.155   9.679 -0.5287 -0.1640 -0.1141
  676MOL0     C89140   8.954   5.238   9.781 -0.4072  0.3115  1.0155
  676MOL0     C89141   8.817   5.286   9.744  0.1992 -0.2265 -0.2314
  676MOL0     C89142   8.818   5.373   9.619  0.0982  0.8921 -0.0988
  676MOL0     C89143   8.721   5.487   9.632  1.1859  0.0030  0.3053
  676MOL0    Cl89144   8.550   5.443   9.683 -0.1611  0.4109 -0.3305
  676MOL0     C89145   8.978   4.884   9.250  0.4157  0.0436 -0.2916
  676MOL0     C89146   8.869   4.808   9.201  0.0148 -0.0524  0.4842
  676MOL0     O89147   8.596   4.807   9.134  0.1079  0.7198  1.0328
  676MOL0     C89148   8.589   4.473   9.019 -0.5976  0.5261  0.1585
  676MOL0     C89149   8.510   4.392   8.935  0.2587  0.2299  0.0640
  676MOL0     N89150   8.443   3.936   8.389 -0.3558  0.1518  0.8984
  676MOL0     N89151   8.558   3.873   8.410 -0.3585  0.4871  0.7397
  676MOL0     C89152   9.233   4.210   9.410  0.5312  0.8699 -0.1856
  676MOL0     C89153   9.306   4.231   9.525 -0.5242 -0.2007  0.2607
  676MOL0     C89154   9.647   4.277   9.802  0.8981  0.8330 -0.1390
  676MOL0     C89155   9.640   4.156   9.873  0.4243 -0.0793 -0.6955
  676MOL0     C89156   9.711   4.139   9.992 -0.0589 -0.4153 -0.7389
  676MOL0     C89157   9.802   4.233  10.033 -0.7232  0.2521  0.3828
  676MOL0     O89158   9.868   4.195  10.148 -0.1858  0.0409  0.5820
  676MOL0     C89159   9.925   4.303  10.220  0.2755  0.5840 -0.5904
  676MOL0     C89160   9.935   4.254  10.364 -0.3885 -0.7364  0.4703
  676MOL0     C89161  10.001   4.350  10.454 -0.3971 -0.0440  0.0928
  676MOL0     C89162   9.932   4.495  10.473 -0.2012  0.4371 -0.8829
  676MOL0     C89163   9.842   4.484  10.576  0.4019  0.4315 -0.0172
  676MOL0     C89164   9.771   4.465  10.674 -1.3963  0.2026 -0.4801
  676MOL0     C89165   9.810   4.358   9.961 -0.6141 -0.3855  0.4178
  676MOL0     C89166   9.735   4.378   9.847  0.6112 -0.4546 -0.3687
  676MOL0     H89167   9.608   4.094   9.416  0.8130  0.5589  0.4248
  676MOL0     H89168   9.496   4.126   9.204 -1.0369  1.1986 -0.7440
  676MOL0     H89169   9.327   3.973   9.138 -4.9056 -4.5846 -0.1757
  676MOL0     H89170   9.296   4.086   8.998 -2.0007  0.0671 -0.1922
  676MOL0     H89171   9.058   4.038   9.053  1.0006  1.5651  1.5218
  676MOL0     H89172   9.106   3.900   9.153  5.0695 -0.9529  1.6214
  676MOL0     H89173   9.231   3.820   8.932 -0.0104  0.2432 -3.4281
  676MOL0     H89174   9.159   3.939   8.839  2.9413 -2.6084 -1.2254
  676MOL0     H89175   9.043   3.714   8.862  2.9622  1.2329 -0.0987
  676MOL0     H89176   8.986   3.757   9.021 -1.0021  0.5717 -0.4607
  676MOL0     H89177   8.896   3.966   8.904  1.6924 -0.7245  1.4389
  676MOL0     H89178   8.800   3.815   8.915  1.1939 -2.3308  0.2932
  676MOL0     H89179   8.883   3.733   8.708  1.3585 -0.9922  1.7161
  676MOL0     H89180   8.981   3.880   8.690  0.5651 -0.7566  1.4978
  676MOL0     H89181   8.678   3.858   8.698  1.1530 -2.6443 -0.2558
  676MOL0     H89182   8.768   4.015   8.700 -1.1082 -0.2762  1.1009
  676MOL0     H89183   8.818   3.823   8.479 -0.7953 -1.6055  1.0022
  676MOL0     H89184   8.855   3.995   8.492 -3.9635  1.9826 -2.4161
  676MOL0     H89185   8.650   4.164   8.514  3.4181 -2.1339 -0.1920
  676MOL0     H89186   8.299   4.175   8.305  2.5834  0.4885 -1.9713
  676MOL0     H89187   8.417   4.279   8.369 -2.6763 -0.4553 -2.7222
  676MOL0     H89188   8.341   4.157   8.593  0.1565 -1.3246 -0.4779
  676MOL0     H89189   8.185   4.201   8.516  0.6471 -0.2477 -2.9472
  676MOL0     H89190   8.437   4.374   8.587 -0.3293 -1.3383  2.3575
  676MOL0     H89191   8.307   4.441   8.489 -5.0386  0.8273  1.1188
  676MOL0     H89192   8.148   4.394   8.696  0.1847  1.5351 -1.3179
  676MOL0     H89193   8.261   4.524   8.695  0.6771 -0.1807 -1.8907
  676MOL0     H89194   8.250   4.599   8.898 -0.5291 -0.8040 -2.8755
  676MOL0     H89195   8.399   4.745   9.029  1.2448  0.4984  1.2064
  676MOL0     H89196   8.804   4.613   9.479  0.1293 -0.8880  0.9287
  676MOL0     H89197   9.016   4.752   9.561  1.0629  1.5740 -1.6500
  676MOL0     H89198   9.027   5.106   9.401  0.3457  0.5356  1.9429
  676MOL0     H89199   9.178   5.072   9.297  0.7491  0.6971  1.1668
  676MOL0     H89200   9.278   5.217   9.452 -3.9129  4.2250  0.6362
  676MOL0     H89201   9.276   5.070   9.557 -0.6242 -0.6067  1.1116
  676MOL0     H89202   9.107   5.319   9.564 -2.5320 -2.3773 -1.8017
  676MOL0     H89203   9.206   5.260   9.685 -0.0667  2.5043 -1.7041
  676MOL0     H89204   8.943   5.123   9.614 -1.0510 -0.8780  0.8687
  676MOL0     H89205   9.073   5.067   9.724 -2.1099 -0.5174  0.9263
  676MOL0     H89206   9.020   5.325   9.794  1.3204 -0.8697  0.5004
  676MOL0     H89207   8.946   5.174   9.869  1.6462 -1.4971 -0.0192
  676MOL0     H89208   8.785   5.355   9.822  1.3108  0.0114  0.0413
  676MOL0     H89209   8.744   5.207   9.725  1.8286 -1.4918 -1.6257
  676MOL0     H89210   8.914   5.421   9.599  1.4725 -1.1814  1.1178
  676MOL0     H89211   8.801   5.318   9.525 -1.4612 -0.7531  1.0602
  676MOL0     H89212   8.699   5.527   9.532 -1.7491 -1.7410  0.1305
  676MOL0     H89213   8.762   5.561   9.700  2.2548  0.4315 -0.7590
  676MOL0     H89214   9.019   4.959   9.184 -1.0857  3.1670  2.0412
  676MOL0     H89215   8.848   4.811   9.095 -0.4149  0.7946  0.5884
  676MOL0     H89216   8.678   4.426   9.059  0.4102 -0.2456 -2.7566
  676MOL0     H89217   8.541   4.293   8.905  0.3507  0.2850 -0.0268
  676MOL0     H89218   9.128   4.238   9.408  0.2636 -0.1101 -0.7895
  676MOL0     H89219   9.269   4.271   9.619  2.6578  0.9638  1.1583
  676MOL0     H89220   9.569   4.080   9.839 -0.4686  0.1746  0.4998
  676MOL0     H89221   9.699   4.043  10.041  0.9767 -0.6911 -0.9901
  676MOL0     H89222   9.853   4.384  10.209  0.5487  1.5651  3.2954
  676MOL0     H89223  10.015   4.344  10.173 -0.3333  0.5591 -1.8210
  676MOL0     H89224   9.840   4.226  10.411  1.3262 -3.2286  2.7640
  676MOL0     H89225   9.996   4.164  10.379 -2.0865 -1.8610  0.9635
  676MOL0     H89226  10.100   4.378  10.417 -0.2118 -0.8412 -0.0207
  676MOL0     H89227  10.023   4.303  10.551  0.0378  1.7665  0.9203
  676MOL0     H89228  10.012   4.565  10.497  1.4389 -1.0718 -1.7388
  676MOL0     H89229   9.910   4.539  10.375  0.4019 -0.0222 -1.2362
  676MOL0     H89230   9.723   4.418  10.757  2.6676 -2.0690  0.8861
  676MOL0     H89231   9.878   4.440   9.985 -2.4710  0.4324  3.3103
  676MOL0     H89232   9.742   4.475   9.799 -1.9921  0.5372  1.0502
  677MOL0     O89233   8.455   2.478   1.435 -0.0093 -0.3170  0.6079
  677MOL0     C89234   8.424   2.533   1.544 -1.0033  0.1090  0.3365
  677MOL0     O89235   8.484   2.652   1.587  0.0994 -0.3781 -0.4136
  677MOL0     C89236   8.609   2.699   1.562 -0.5879  0.0071  0.8005
  677MOL0     C89237   8.626   2.844   1.564 -0.7106  0.1246 -0.0596
  677MOL0     C89238   8.753   2.895   1.519  0.5080  0.9213 -0.6405
  677MOL0     C89239   8.867   2.806   1.502 -0.0663 -1.0266  0.1738
  677MOL0     O89240   8.989   2.860   1.475  0.5002  0.3535 -0.2926
  677MOL0     C89241   9.073   2.803   1.368 -0.0099  0.4710 -0.2417
  677MOL0     C89242   9.168   2.911   1.331  0.1151 -0.0894  0.3614
  677MOL0     C89243   9.283   2.932   1.431  0.4885  0.3000  0.8621
  677MOL0     C89244   9.367   3.056   1.391 -0.1910 -0.1879  0.1505
  677MOL0     C89245   9.483   3.065   1.482 -0.0333 -0.1029 -0.7389
  677MOL0     C89246   9.608   3.115   1.410 -0.6543  0.6899 -0.0412
  677MOL0     C89247   9.734   3.117   1.500  0.5182  0.1508 -0.0383
  677MOL0     C89248   9.721   3.211   1.616 -0.8007 -0.5144  0.1628
  677MOL0     N89249   9.856   3.227   1.669  0.2379 -0.1406 -0.2974
  677MOL0     C89250   9.942   3.131   1.721 -0.0793 -0.0941 -1.1082
  677MOL0     C89251  10.070   3.187   1.742  0.3831  0.0875  0.1168
  677MOL0     C89252  10.197   3.129   1.812 -0.9636  0.4768  0.8352
  677MOL0     C89253  10.250   3.210   1.925 -0.7549  0.6798  0.0561
  677MOL0     C89254  10.150   3.206   2.041 -0.1860  0.1222  0.2820
  677MOL0     C89255  10.045   3.315   2.036  0.3306  0.2446  0.3222
  677MOL0     O89256   9.925   3.268   2.103 -0.0696 -0.2987  0.3681
  677MOL0     C89257   9.797   3.294   2.058 -1.0851  0.3855  1.0053
  677MOL0     C89258   9.762   3.389   1.965  0.7994  0.4681  0.8993
  677MOL0     C89259   9.636   3.402   1.908  0.6300 -0.2120  0.1428
  677MOL0     C89260   9.535   3.319   1.960 -0.3752 -0.3029  0.2140
  677MOL0     C89261   9.390   3.317   1.900  0.6933  0.4612  0.1750
  677MOL0     O89262   9.365   3.389   1.793  0.8183  0.1003  0.4798
  677MOL0     C89263   9.230   3.401   1.762 -0.0557 -0.6790  0.4739
  677MOL0     C89264   9.145   3.503   1.798  0.5123  0.5462 -0.2875
  677MOL0     C89265   9.010   3.503   1.760 -0.2903  0.3124 -0.0751
  677MOL0     C89266   8.964   3.414   1.667  0.4283  0.0631 -1.0728
  677MOL0     O89267   8.825   3.399   1.662 -0.0559  0.3275 -0.1557
  677MOL0     C89268   8.775   3.402   1.527  0.0452  1.1444  0.0807
  677MOL0     C89269   8.647   3.483   1.523  1.0325 -0.6011  0.6432
  677MOL0     C89270   8.591   3.507   1.386  0.3197 -0.1962  0.5466
  677MOL0     C89271   8.450   3.542   1.397  1.0844 -0.2829  0.2086
  677MOL0     C89272   8.377   3.522   1.262  0.6885 -0.1906  0.3959
  677MOL0     C89273   8.412   3.604   1.140 -0.0740  0.1510  0.1950
  677MOL0     C89274   8.355   3.552   1.005  0.4372 -0.2058 -0.0179
  677MOL0     C89275   8.371   3.644   0.885 -0.1008  0.3199  0.0438
  677MOL0    Cl89276   8.537   3.706   0.892  0.1266 -0.6728 -0.1496
  677MOL0     C89277   9.052   3.310   1.622 -1.0245 -0.7091  0.5325
  677MOL0     C89278   9.184   3.310   1.655  0.2365  0.5780 -0.5118
  677MOL0     O89279   9.312   3.241   1.960 -0.3190 -0.3701  0.6508
  677MOL0     C89280   9.563   3.226   2.062 -0.4910 -0.1247 -0.0395
  677MOL0     C89281   9.696   3.212   2.098 -0.8032  0.8378 -0.1884
  677MOL0     N89282  10.057   3.313   1.681  0.0121  0.0757 -0.7315
  677MOL0     N89283   9.932   3.334   1.641  0.1152 -0.7256  1.1879
  677MOL0     C89284   8.843   2.665   1.511  0.5165  0.0001  0.1081
  677MOL0     C89285   8.715   2.615   1.538  0.1082 -0.0479 -0.7005
  677MOL0     C89286   8.316   2.483   1.626 -1.2308 -0.2488 -0.5247
  677MOL0     C89287   8.205   2.412   1.578 -0.7447  0.5817  1.2687
  677MOL0     C89288   8.114   2.351   1.662 -0.0903 -0.3333  0.5303
  677MOL0     C89289   8.132   2.355   1.801 -0.9076 -1.2809 -0.5114
  677MOL0     O89290   8.060   2.287   1.901  0.4354 -0.4242  0.2850
  677MOL0     C89291   7.980   2.169   1.886 -0.4610 -0.6307 -0.1195
  677MOL0     C89292   7.972   2.087   2.017 -0.3346 -0.0672  0.0748
  677MOL0     C89293   7.894   2.158   2.127 -0.2422 -0.3552  0.1268
  677MOL0     C89294   7.908   2.070   2.245 -0.4338 -0.3660  0.4151
  677MOL0     C89295   7.846   2.121   2.372  0.0240 -1.4084 -0.6335
  677MOL0     C89296   7.802   2.157   2.478 -0.4149 -0.0031  0.1589
  677MOL0     C89297   8.243   2.418   1.850 -0.8255 -0.5129 -0.5002
  677MOL0     C89298   8.333   2.482   1.765  0.3618  0.0768  0.5007
  677MOL0     H89299   8.540   2.904   1.593 -2.3325 -1.6522 -0.9060
  677MOL0     H89300   8.757   3.003   1.519 -1.3640  1.0317 -1.7929
  677MOL0     H89301   9.008   2.777   1.284 -1.7847  1.0041  0.9087
  677MOL0     H89302   9.123   2.713   1.406 -1.5931 -0.5549 -0.5161
  677MOL0     H89303   9.123   3.009   1.313  0.0367 -0.1360  0.2981
  677MOL0     H89304   9.213   2.867   1.241 -2.2899 -2.9134  0.3890
  677MOL0     H89305   9.355   2.849   1.430 -0.8367 -0.8967 -0.4614
  677MOL0     H89306   9.250   2.944   1.534  0.8400  0.5388  0.9492
  677MOL0     H89307   9.399   3.050   1.287 -0.1667 -2.0521  0.2332
  677MOL0     H89308   9.312   3.148   1.409 -0.0166 -0.4589  2.3473
  677MOL0     H89309   9.513   2.964   1.512 -1.2979 -0.5173 -0.8088
  677MOL0     H89310   9.470   3.127   1.571  1.4442  1.5736 -1.6324
  677MOL0     H89311   9.580   3.216   1.379 -1.9478 -0.3902 -2.7251
  677MOL0     H89312   9.625   3.057   1.319  1.0701  1.6533 -0.3633
  677MOL0     H89313   9.746   3.011   1.527  0.1938 -0.8077 -3.2156
  677MOL0     H89314   9.815   3.145   1.433  1.3688  1.5668  1.5083
  677MOL0     H89315   9.656   3.154   1.684 -2.4179 -0.1028 -0.9734
  677MOL0     H89316   9.684   3.307   1.577 -0.5065 -0.6204 -0.3840
  677MOL0     H89317   9.919   3.025   1.732 -2.7603  0.6106  1.0510
  677MOL0     H89318  10.273   3.126   1.734 -0.5684 -2.7586  1.1799
  677MOL0     H89319  10.193   3.022   1.835  2.1567  0.3664  1.2035
  677MOL0     H89320  10.258   3.314   1.891 -0.4295 -0.0276 -2.1772
  677MOL0     H89321  10.353   3.194   1.959 -1.3776  2.3145  3.1034
  677MOL0     H89322  10.106   3.105   2.037  3.5031 -1.6397  0.0067
  677MOL0     H89323  10.217   3.218   2.127  1.4484 -0.6144 -0.8505
  677MOL0     H89324  10.025   3.336   1.931  0.9841  3.6075  0.7849
  677MOL0     H89325  10.081   3.408   2.081 -1.4224 -0.1330  2.7448
  677MOL0     H89326   9.839   3.447   1.915 -1.2525  2.1692 -0.4499
  677MOL0     H89327   9.608   3.471   1.829  1.5769 -1.3976 -1.2602
  677MOL0     H89328   9.190   3.567   1.872  1.4025  1.9769 -1.9813
  677MOL0     H89329   8.951   3.587   1.795  0.9959  2.9398 -3.5953
  677MOL0     H89330   8.746   3.298   1.511  2.9321  0.8059 -5.0610
  677MOL0     H89331   8.848   3.425   1.449  0.4680 -3.1077 -1.0149
  677MOL0     H89332   8.671   3.582   1.564  1.0446  0.3804 -1.5681
  677MOL0     H89333   8.574   3.435   1.589  2.3219 -1.1730  1.6946
  677MOL0     H89334   8.599   3.424   1.315  1.3638  0.7250 -0.4488
  677MOL0     H89335   8.636   3.593   1.336  0.2159 -0.4861 -0.0547
  677MOL0     H89336   8.403   3.479   1.473  1.7389  0.8920  1.6291
  677MOL0     H89337   8.438   3.645   1.431 -1.5146 -1.1007  2.0523
  677MOL0     H89338   8.270   3.537   1.277  0.5276 -0.6279 -0.2566
  677MOL0     H89339   8.392   3.416   1.241  1.5185  0.0748 -0.4642
  677MOL0     H89340   8.520   3.607   1.128 -0.0398 -0.0905  0.4290
  677MOL0     H89341   8.373   3.705   1.157 -3.0291 -0.8395 -0.0629
  677MOL0     H89342   8.402   3.456   0.984  0.9681  0.0193  0.1152
  677MOL0     H89343   8.248   3.532   1.015  0.9287 -2.1307  2.4927
  677MOL0     H89344   8.296   3.723   0.873  2.3924  2.5367 -1.9784
  677MOL0     H89345   8.361   3.581   0.797 -1.8748  2.9699 -1.8044
  677MOL0     H89346   9.012   3.227   1.564  1.8582 -1.7124 -0.1852
  677MOL0     H89347   9.250   3.229   1.627 -1.8965 -1.8360  1.0232
  677MOL0     H89348   9.492   3.151   2.097 -0.7386 -1.1473 -2.5444
  677MOL0     H89349   9.706   3.132   2.171 -0.0617  0.3560 -0.8061
  677MOL0     H89350   8.931   2.602   1.511  0.0825 -0.6690 -1.9757
  677MOL0     H89351   8.695   2.511   1.558 -0.0390  0.4328  2.0409
  677MOL0     H89352   8.195   2.410   1.470  2.9165 -3.2464  0.7308
  677MOL0     H89353   8.023   2.299   1.631  1.1020 -0.8009 -2.5085
  677MOL0     H89354   8.032   2.117   1.805  0.0132  2.2757 -1.8523
  677MOL0     H89355   7.883   2.206   1.848 -0.6730 -1.8429 -0.8044
  677MOL0     H89356   7.923   1.991   1.997 -0.5490  0.6394 -3.5891
  677MOL0     H89357   8.078   2.081   2.044  0.1394  0.4992 -1.5440
  677MOL0     H89358   7.790   2.182   2.104 -0.5335  0.2802  1.9332
  677MOL0     H89359   7.932   2.257   2.154 -0.8418  0.3773 -1.5403
  677MOL0     H89360   7.877   1.967   2.224  0.2083 -0.4038 -0.4085
  677MOL0     H89361   8.013   2.045   2.263 -0.2955 -0.1215 -0.0400
  677MOL0     H89362   7.761   2.175   2.575 -0.4389 -0.9766  0.3441
  677MOL0     H89363   8.266   2.405   1.955  1.1015 -0.3635 -0.8629
  677MOL0     H89364   8.418   2.536   1.805  0.9223  1.6071 -2.4774
  678MOL0     O89365   6.903  11.196  11.134  0.2585 -0.2096  0.3986
  678MOL0     C89366   6.890  11.203  11.014 -0.2305 -0.1434  0.0546
  678MOL0     O89367   6.777  11.161  10.943 -0.2350  0.3974  0.0174
  678MOL0     C89368   6.685  11.074  11.009  0.7417 -0.9009 -0.1908
  678MOL0     C89369   6.638  10.954  10.948  0.6249 -0.6920  0.4031
  678MOL0     C89370   6.553  10.864  11.018  0.9583  0.1198 -0.3628
  678MOL0     C89371   6.507  10.895  11.136 -0.4709  0.7322  0.4224
  678MOL0     O89372   6.421  10.809  11.200 -0.0086 -0.7077  0.3055
  678MOL0     C89373   6.441  10.785  11.336  0.5769 -0.0204 -0.0824
  678MOL0     C89374   6.363  10.659  11.383 -0.4794 -0.1524 -1.1401
  678MOL0     C89375   6.398  10.622  11.531 -0.5545 -0.0096 -0.4920
  678MOL0     C89376   6.325  10.711  11.640  0.1021  0.1114  0.5468
  678MOL0     C89377   6.347  10.666  11.787  0.1245  0.0762 -0.6536
  678MOL0     C89378   6.303  10.528  11.831  0.4058  0.1202 -0.5722
  678MOL0     C89379   6.271  10.510  11.986  0.6434 -0.6265 -0.8155
  678MOL0     C89380   6.237  10.359  12.011 -0.1517 -0.4639  0.4773
  678MOL0     N89381   6.174  10.334  12.143  0.5314  0.6871  0.5112
  678MOL0     C89382   6.149  10.217  12.210  0.2685  0.1125 -0.6465
  678MOL0     C89383   6.084  10.262  12.326  0.0184 -0.1614 -0.4843
  678MOL0     C89384   6.016  10.162  12.411  0.7232 -0.2394  1.2592
  678MOL0     C89385   6.015  10.212  12.552 -0.0295 -0.4975 -0.0940
  678MOL0     C89386   5.977  10.108  12.657  1.0837  0.6848 -0.5251
  678MOL0     C89387   5.835  10.067  12.636  0.5751 -0.5690 -0.2279
  678MOL0     O89388   5.758  10.189  12.638  0.4296 -0.5199  0.1764
  678MOL0     C89389   5.715  10.247  12.755  1.0151  0.3949  1.0612
  678MOL0     C89390   5.597  10.199  12.811  0.1187 -0.1722 -0.4856
  678MOL0     C89391   5.550  10.250  12.935  0.1223 -0.0216 -0.1165
  678MOL0     C89392   5.621  10.347  13.010 -0.1325 -1.6063  0.1879
  678MOL0     C89393   5.559  10.418  13.127  1.2877 -0.3168 -0.3929
  678MOL0     O89394   5.424  10.385  13.145  0.0602 -0.0854 -0.8882
  678MOL0     C89395   5.360  10.446  13.251  0.2062 -0.1306  0.7514
  678MOL0     C89396   5.365  10.583  13.271  0.7128  1.4342 -0.6666
  678MOL0     C89397   5.274  10.641  13.367  0.6994 -0.7529 -0.2757
  678MOL0     C89398   5.209  10.558  13.460 -0.1643 -0.3672  0.4200
  678MOL0     O89399   5.150  10.597  13.581 -0.7080 -0.1745 -0.3702
  678MOL0     C89400   5.205  10.713  13.656 -0.1948  0.3506  0.1342
  678MOL0     C89401   5.087  10.805  13.696 -0.2229  0.8855  0.1749
  678MOL0     C89402   5.129  10.940  13.746  0.6172  1.3408  0.4015
  678MOL0     C89403   5.010  11.026  13.802  0.3172 -0.9733  0.4393
  678MOL0     C89404   5.072  11.154  13.871  0.1144 -0.1023  0.2292
  678MOL0     C89405   5.143  11.132  14.009 -0.6177 -0.2845  0.8286
  678MOL0     C89406   5.149  11.271  14.085 -0.1502  0.6033 -0.7606
  678MOL0     C89407   5.232  11.257  14.221 -0.2048 -0.1812  0.7083
  678MOL0    Cl89408   5.152  11.141  14.331 -0.2002 -0.5391  0.0255
  678MOL0     C89409   5.211  10.422  13.440 -0.4492 -1.3438 -0.3444
  678MOL0     C89410   5.276  10.371  13.332 -0.6650  0.6379  1.0913
  678MOL0     O89411   5.627  10.500  13.191  0.2156 -0.8525  0.9437
  678MOL0     C89412   5.744  10.377  12.956 -1.2878 -0.8914 -0.1514
  678MOL0     C89413   5.783  10.335  12.832 -0.7138  0.4498 -1.0619
  678MOL0     N89414   6.066  10.397  12.324  1.0990 -0.3453 -0.0978
  678MOL0     N89415   6.128  10.445  12.217 -0.5026  0.0387  0.2312
  678MOL0     C89416   6.545  11.013  11.197  0.0465 -0.4037  0.3618
  678MOL0     C89417   6.630  11.098  11.131 -0.2804  0.1497 -0.2976
  678MOL0     C89418   6.984  11.289  10.930  0.3245  0.3308  0.4087
  678MOL0     C89419   7.082  11.361  10.997  0.5759  0.7972  0.0931
  678MOL0     C89420   7.172  11.442  10.926  0.0063 -1.6713 -0.3322
  678MOL0     C89421   7.165  11.462  10.788 -0.8076  0.2686  0.0551
  678MOL0     O89422   7.245  11.537  10.710 -0.3826  0.2218 -0.2457
  678MOL0     C89423   7.385  11.528  10.742 -0.5308  0.5274 -0.0468
  678MOL0     C89424   7.429  11.675  10.766  0.2251 -1.1696  0.1522
  678MOL0     C89425   7.565  11.696  10.718  0.0786  0.2891  0.5522
  678MOL0     C89426   7.610  11.834  10.762 -0.5201 -0.4748 -0.3161
  678MOL0     C89427   7.613  11.836  10.911 -0.0005 -0.0562  0.0531
  678MOL0     C89428   7.626  11.844  11.031 -0.5667  0.1315 -0.0098
  678MOL0     C89429   7.059  11.399  10.714  1.1970 -0.0832  0.1119
  678MOL0     C89430   6.972  11.313  10.786  0.2447  1.5178  0.6612
  678MOL0     H89431   6.663  10.925  10.846  2.8054  0.8279  0.4623
  678MOL0     H89432   6.528  10.766  10.979  2.1750 -0.0484 -0.7726
  678MOL0     H89433   6.411  10.861  11.408  0.5210 -0.4806  0.3865
  678MOL0     H89434   6.548  10.767  11.351  0.6941  0.9544  0.3269
  678MOL0     H89435   6.400  10.575  11.324 -1.4687 -1.8794  0.6254
  678MOL0     H89436   6.255  10.668  11.377 -0.5966 -0.2281  0.5023
  678MOL0     H89437   6.506  10.634  11.543 -0.8169  5.0834 -0.9716
  678MOL0     H89438   6.375  10.520  11.562  1.7270 -0.4211  0.0403
  678MOL0     H89439   6.360  10.814  11.636  3.3829 -0.8913  0.9994
  678MOL0     H89440   6.221  10.709  11.604  0.8506  1.2014 -1.8374
  678MOL0     H89441   6.312  10.739  11.861  5.5431  2.1411  0.3465
  678MOL0     H89442   6.450  10.665  11.823 -0.3745  0.2513  0.8860
  678MOL0     H89443   6.378  10.455  11.799  0.4508  0.9173 -2.3808
  678MOL0     H89444   6.217  10.499  11.770  1.7835 -0.8811 -2.1079
  678MOL0     H89445   6.358  10.539  12.045  0.2821 -1.4126  0.1449
  678MOL0     H89446   6.184  10.570  12.015 -0.0588 -2.3071  0.7673
  678MOL0     H89447   6.327  10.296  12.008  1.0636  1.1956  1.0050
  678MOL0     H89448   6.155  10.327  11.946 -0.8662 -0.1031  1.1947
  678MOL0     H89449   6.168  10.119  12.167 -0.7732 -0.3720 -0.0436
  678MOL0     H89450   6.066  10.065  12.402 -2.1875 -1.6843 -1.6271
  678MOL0     H89451   5.913  10.142  12.380 -0.0643  0.7163  3.0875
  678MOL0     H89452   5.947  10.297  12.559  0.7803  0.0323  2.1281
  678MOL0     H89453   6.119  10.239  12.573  0.1128 -0.5213 -0.7311
  678MOL0     H89454   6.043  10.021  12.660 -3.0688 -2.8131 -0.9714
  678MOL0     H89455   5.993  10.149  12.757  0.8833 -2.5198  0.9501
  678MOL0     H89456   5.796  10.002  12.715  1.9147  0.2439  1.1495
  678MOL0     H89457   5.829  10.015  12.540  1.9865  0.8187 -1.1101
  678MOL0     H89458   5.550  10.123  12.749 -1.4971  1.0835 -0.8732
  678MOL0     H89459   5.468  10.200  12.986  1.0011 -1.8797 -0.4290
  678MOL0     H89460   5.420  10.663  13.223 -1.7229  4.8224  1.6817
  678MOL0     H89461   5.277  10.747  13.386  1.0608 -0.1924 -3.0527
  678MOL0     H89462   5.286  10.768  13.607  2.7667 -0.5966  3.5177
  678MOL0     H89463   5.251  10.670  13.745 -1.3052 -2.5198 -0.5674
  678MOL0     H89464   5.031  10.750  13.772  0.4364 -1.1288 -0.7296
  678MOL0     H89465   5.024  10.817  13.606  0.7299 -0.8335 -0.7873
  678MOL0     H89466   5.160  10.986  13.652  1.2366  0.4178  0.1431
  678MOL0     H89467   5.219  10.946  13.808  0.6930  1.7993  0.2468
  678MOL0     H89468   4.935  11.046  13.725  1.1826  2.8715  0.3881
  678MOL0     H89469   4.960  10.964  13.877 -1.7444 -0.9689 -0.8497
  678MOL0     H89470   4.992  11.225  13.894 -0.4175 -1.6231  3.7171
  678MOL0     H89471   5.132  11.210  13.798 -2.1017  1.9451 -0.1413
  678MOL0     H89472   5.242  11.086  14.001  0.1369  1.4906 -1.1766
  678MOL0     H89473   5.072  11.064  14.056 -0.3668 -1.1777 -0.0326
  678MOL0     H89474   5.201  11.336  14.014  1.5547 -1.9691 -2.0530
  678MOL0     H89475   5.052  11.317  14.106 -0.7984 -0.8450 -0.4423
  678MOL0     H89476   5.252  11.356  14.262  1.1699  0.2390 -0.8647
  678MOL0     H89477   5.331  11.221  14.189 -0.2225  2.0279 -2.2232
  678MOL0     H89478   5.161  10.367  13.519  1.8884  2.5443  4.3556
  678MOL0     H89479   5.256  10.265  13.321  0.3009  0.5870 -0.5250
  678MOL0     H89480   5.807  10.451  13.004 -5.7735  0.7594  4.0394
  678MOL0     H89481   5.880  10.368  12.796  2.3720 -4.5899  1.4834
  678MOL0     H89482   6.510  11.029  11.298  0.6719  0.7675  0.4080
  678MOL0     H89483   6.663  11.182  11.191 -0.4142  2.0453 -2.6941
  678MOL0     H89484   7.070  11.349  11.104  0.4705  1.7637  0.2012
  678MOL0     H89485   7.256  11.489  10.976 -0.5960 -0.3801 -0.4918
  678MOL0     H89486   7.434  11.503  10.647 -2.4255  2.7329 -1.7428
  678MOL0     H89487   7.422  11.457  10.817  1.2880 -1.3999 -2.5715
  678MOL0     H89488   7.364  11.743  10.710 -1.6960 -2.3263  0.8615
  678MOL0     H89489   7.404  11.702  10.869 -0.1846 -0.1558 -0.2005
  678MOL0     H89490   7.571  11.688  10.609  1.9177 -0.8502  0.7013
  678MOL0     H89491   7.631  11.619  10.758 -1.5036 -2.6115 -1.9772
  678MOL0     H89492   7.710  11.852  10.721  0.9098  0.4937  3.2244
  678MOL0     H89493   7.548  11.915  10.724 -0.2179 -0.8345 -1.6583
  678MOL0     H89494   7.634  11.860  11.137  4.6371  0.0447 -0.1635
  678MOL0     H89495   7.055  11.413  10.607  1.0850  0.7521  0.2199
  678MOL0     H89496   6.895  11.274  10.719  1.1866  4.0745 -2.1040
  679MOL0     O89497   5.433   6.256  10.050  1.5253 -0.1475 -0.3134
  679MOL0     C89498   5.327   6.304  10.084 -0.1294  1.0298 -0.2265
  679MOL0     O89499   5.304   6.385  10.188  0.3377  0.3943  0.2144
  679MOL0     C89500   5.404   6.461  10.237  0.0481  1.3026  0.6602
  679MOL0     C89501   5.449   6.576  10.161 -0.2477  0.3708 -0.0546
  679MOL0     C89502   5.534   6.666  10.220  0.8250  0.1127  0.1506
  679MOL0     C89503   5.588   6.653  10.355  0.7102  0.1470  1.1383
  679MOL0     O89504   5.671   6.737  10.404 -1.3736 -0.3720 -0.2516
  679MOL0     C89505   5.804   6.694  10.407 -0.0312 -0.1588  0.3340
  679MOL0     C89506   5.870   6.732  10.279  0.6924  1.0864 -0.3890
  679MOL0     C89507   6.024   6.720  10.287  0.6828  0.3864  0.4352
  679MOL0     C89508   6.103   6.759  10.160 -0.4824  0.2244  0.5080
  679MOL0     C89509   6.254   6.728  10.180  0.7020 -0.0810 -0.6193
  679MOL0     C89510   6.354   6.722  10.054  0.6833  0.9826  0.1146
  679MOL0     C89511   6.338   6.598   9.969 -0.2902 -0.5808  0.0804
  679MOL0     C89512   6.472   6.565   9.908  0.0013 -0.5457  1.1712
  679MOL0     N89513   6.535   6.658   9.814  0.5728  0.1689 -0.2265
  679MOL0     C89514   6.666   6.676   9.810 -0.3223  1.1165 -0.4305
  679MOL0     C89515   6.689   6.769   9.720  0.0130 -0.1852  0.2458
  679MOL0     C89516   6.826   6.821   9.699 -0.2169 -0.1250 -0.5073
  679MOL0     C89517   6.842   6.893   9.573 -1.1077  0.4589 -1.0144
  679MOL0     C89518   6.989   6.894   9.528  0.5050 -0.4554 -0.3697
  679MOL0     C89519   7.097   6.912   9.640  0.1912  0.1493  0.7428
  679MOL0     O89520   7.060   7.015   9.729  0.2677  0.2652  0.3614
  679MOL0     C89521   7.165   7.051   9.813 -0.0932  0.1746 -0.2577
  679MOL0     C89522   7.180   7.184   9.833  0.4468 -0.5411 -0.0323
  679MOL0     C89523   7.288   7.230   9.904 -1.3191  0.2451  0.8686
  679MOL0     C89524   7.399   7.144   9.941  0.4242  0.2599 -0.1588
  679MOL0     C89525   7.531   7.197   9.990  0.1229  0.7160 -0.2816
  679MOL0     O89526   7.512   7.319  10.047 -0.7441 -0.2975  1.2019
  679MOL0     C89527   7.612   7.404  10.076  0.6866  0.5404 -0.3345
  679MOL0     C89528   7.692   7.383  10.192 -0.8269 -0.2415  0.1592
  679MOL0     C89529   7.775   7.490  10.245  0.8510  1.0569  0.3931
  679MOL0     C89530   7.788   7.604  10.176 -0.8611 -0.3379 -0.2835
  679MOL0     O89531   7.875   7.702  10.217  0.0840  0.0024 -0.1645
  679MOL0     C89532   7.925   7.707  10.358  0.2591  0.8254 -0.7258
  679MOL0     C89533   7.826   7.745  10.460  0.0954 -0.3441 -0.5885
  679MOL0     C89534   7.808   7.901  10.459 -0.1417  0.0987 -1.2899
  679MOL0     C89535   7.676   7.944  10.532  0.3695  0.7588  0.1042
  679MOL0     C89536   7.648   8.092  10.547  0.3931 -0.4365  0.4072
  679MOL0     C89537   7.635   8.175  10.418 -0.3459 -0.3041 -0.3875
  679MOL0     C89538   7.759   8.252  10.384  0.1888 -0.3023 -0.2432
  679MOL0     C89539   7.754   8.295  10.242  0.2547 -0.9062  0.0698
  679MOL0    Cl89540   7.794   8.173  10.141 -0.6566 -0.1741  0.1495
  679MOL0     C89541   7.719   7.630  10.054 -0.2568  0.8296  1.1725
  679MOL0     C89542   7.628   7.528  10.009 -0.0639  0.1997 -1.5893
  679MOL0     O89543   7.636   7.137   9.979  0.5355 -0.2296 -0.6825
  679MOL0     C89544   7.380   7.007   9.922 -0.1281  0.2622  0.0441
  679MOL0     C89545   7.265   6.961   9.857  0.4105 -0.3778 -0.5050
  679MOL0     N89546   6.560   6.793   9.658 -0.1823 -1.0203  0.6216
  679MOL0     N89547   6.467   6.733   9.719  0.0460  0.3339 -0.7063
  679MOL0     C89548   5.548   6.535  10.429  0.0909 -0.0700  0.5627
  679MOL0     C89549   5.451   6.453  10.369  0.4393 -0.1187  0.6817
  679MOL0     C89550   5.203   6.247  10.022  0.0028  0.1530  0.8141
  679MOL0     C89551   5.077   6.241  10.095  0.1114  0.0994 -0.4080
  679MOL0     C89552   4.962   6.188  10.031  1.4205  0.0781  1.1623
  679MOL0     C89553   4.969   6.138   9.899  1.0899  0.2398  0.6502
  679MOL0     O89554   4.864   6.070   9.835 -0.1417  0.6556  0.2479
  679MOL0     C89555   4.754   6.036   9.915 -0.9366  0.4550  0.0219
  679MOL0     C89556   4.664   5.925   9.854  0.0883 -0.2473 -0.5570
  679MOL0     C89557   4.720   5.794   9.816 -0.2575 -0.5499  0.7701
  679MOL0     C89558   4.611   5.696   9.785  0.1070  0.6073  0.8930
  679MOL0     C89559   4.539   5.742   9.662 -1.0238 -0.9473  1.7032
  679MOL0     C89560   4.489   5.749   9.549  1.4335  0.6133 -0.2349
  679MOL0     C89561   5.089   6.137   9.838 -0.0106  0.2899 -0.0797
  679MOL0     C89562   5.203   6.191   9.892 -0.4201  0.0267 -0.2451
  679MOL0     H89563   5.419   6.591  10.058  0.4786 -1.2168 -0.5179
  679MOL0     H89564   5.558   6.752  10.159  2.0284  1.0124  1.8036
  679MOL0     H89565   5.811   6.587  10.428  0.3922 -0.3866 -0.8684
  679MOL0     H89566   5.845   6.754  10.488  1.6130 -2.4078  1.2581
  679MOL0     H89567   5.833   6.831  10.252  0.0464  0.5754 -1.4492
  679MOL0     H89568   5.851   6.667  10.193  0.8663  0.3333  0.1327
  679MOL0     H89569   6.053   6.618  10.314 -0.7489  0.1439  1.1137
  679MOL0     H89570   6.059   6.790  10.363  1.0771  1.6641 -0.8695
  679MOL0     H89571   6.071   6.701  10.073 -0.4160  0.1346  0.5433
  679MOL0     H89572   6.088   6.863  10.130 -0.0504 -0.2692 -1.5067
  679MOL0     H89573   6.266   6.634  10.233  2.1007  1.2539  1.5693
  679MOL0     H89574   6.280   6.811  10.246 -3.9101  3.1023 -2.2527
  679MOL0     H89575   6.457   6.727  10.092  0.9581  0.8648 -0.6154
  679MOL0     H89576   6.352   6.810   9.988 -0.7279 -0.5054 -1.9516
  679MOL0     H89577   6.295   6.518  10.030 -0.2528  0.2265  1.1962
  679MOL0     H89578   6.274   6.617   9.882  0.5558  0.3356 -0.3607
  679MOL0     H89579   6.463   6.474   9.848 -2.7860 -1.6762  3.1176
  679MOL0     H89580   6.542   6.535   9.987 -1.9332 -0.9657  2.7921
  679MOL0     H89581   6.740   6.636   9.880  1.3254  0.4549 -2.4549
  679MOL0     H89582   6.890   6.733   9.704  1.0861  0.8512  1.0398
  679MOL0     H89583   6.857   6.885   9.782 -0.7784  2.1306 -1.9355
  679MOL0     H89584   6.799   6.993   9.578 -1.5620  0.3036 -1.6287
  679MOL0     H89585   6.782   6.839   9.499  1.5316 -2.2907 -1.3686
  679MOL0     H89586   7.006   6.795   9.485 -2.0953 -0.6948 -1.0336
  679MOL0     H89587   7.002   6.957   9.439  0.9287  1.4098  0.9352
  679MOL0     H89588   7.191   6.937   9.591  0.0244  0.8810  0.7837
  679MOL0     H89589   7.123   6.813   9.677  1.6884 -0.5840 -2.0551
  679MOL0     H89590   7.105   7.251   9.795 -0.3836  0.3616  2.8952
  679MOL0     H89591   7.313   7.336   9.911 -0.1704  0.7205 -5.1373
  679MOL0     H89592   7.683   7.289  10.247 -0.5361 -0.3782 -0.0279
  679MOL0     H89593   7.832   7.473  10.336 -1.8175  2.8294  2.5825
  679MOL0     H89594   8.007   7.777  10.373  0.5658  0.5517 -1.1326
  679MOL0     H89595   7.960   7.609  10.391 -0.4193  1.2577  1.4332
  679MOL0     H89596   7.852   7.715  10.562 -1.6018  1.4174  0.4267
  679MOL0     H89597   7.728   7.699  10.448 -1.3213  2.7314 -2.0509
  679MOL0     H89598   7.795   7.946  10.360 -2.6491  1.3134 -0.4933
  679MOL0     H89599   7.892   7.936  10.519 -0.6139  0.8546 -1.0559
  679MOL0     H89600   7.590   7.895  10.485 -0.4848  1.6738  0.6889
  679MOL0     H89601   7.677   7.900  10.632 -0.0886  0.3488 -0.0667
  679MOL0     H89602   7.703   8.149  10.621 -1.4083 -0.0119  1.4907
  679MOL0     H89603   7.544   8.110  10.576  0.4757  3.5587 -1.1407
  679MOL0     H89604   7.547   8.239  10.432 -0.8190 -1.2208  1.0725
  679MOL0     H89605   7.607   8.110  10.334  0.9403 -3.0470  1.1639
  679MOL0     H89606   7.756   8.336  10.455  0.3228 -0.7649  0.3119
  679MOL0     H89607   7.851   8.193  10.385 -0.0190 -0.6194  0.1347
  679MOL0     H89608   7.817   8.384  10.237 -2.5529  1.4434  2.9007
  679MOL0     H89609   7.653   8.327  10.214  0.9852  1.2828 -0.2061
  679MOL0     H89610   7.731   7.721   9.995 -0.4955 -1.0910 -2.0809
  679MOL0     H89611   7.566   7.544   9.921 -0.1750 -0.0509 -1.5561
  679MOL0     H89612   7.460   6.943   9.960 -1.5900 -0.5065  1.9850
  679MOL0     H89613   7.282   6.854   9.845  2.0713 -0.4551  1.8237
  679MOL0     H89614   5.603   6.511  10.520  1.1085 -2.2527 -0.5538
  679MOL0     H89615   5.424   6.358  10.415  0.4788 -1.7059 -2.3437
  679MOL0     H89616   5.058   6.272  10.197  2.9533 -0.7514  0.4614
  679MOL0     H89617   4.872   6.190  10.090 -0.7510 -0.9027 -1.8507
  679MOL0     H89618   4.696   6.126   9.935 -0.8580  0.0995  2.0445
  679MOL0     H89619   4.788   5.987  10.007 -0.5705  1.3583  0.3799
  679MOL0     H89620   4.576   5.909   9.917 -0.9059  1.7443 -1.3513
  679MOL0     H89621   4.639   5.971   9.758  0.7230  0.3276 -0.4538
  679MOL0     H89622   4.770   5.753   9.904  0.1799 -1.6737  0.0310
  679MOL0     H89623   4.789   5.808   9.732 -1.7181  2.8055 -0.0055
  679MOL0     H89624   4.641   5.596   9.754 -8.2007 -2.1032 -0.9014
  679MOL0     H89625   4.536   5.693   9.865  0.8743 -0.5900  1.5974
  679MOL0     H89626   4.433   5.764   9.458  2.1152 -1.1659 -0.9857
  679MOL0     H89627   5.095   6.096   9.737 -0.9510 -0.7465  0.2710
  679MOL0     H89628   5.293   6.204   9.833 -1.2098 -0.4032 -1.5829
  680MOL0     O89629  10.090   1.669  11.019  0.3559 -0.0635  0.6076
  680MOL0     C89630  10.189   1.618  11.072  0.4374 -0.2093 -0.3436
  680MOL0     O89631  10.184   1.510  11.154  0.0059  0.0867  0.4165
  680MOL0     C89632  10.070   1.435  11.164 -0.1777 -0.9209 -0.6949
  680MOL0     C89633   9.957   1.491  11.217  0.9792  0.2060  0.2397
  680MOL0     C89634   9.857   1.404  11.265 -0.3507 -0.4176 -0.4728
  680MOL0     C89635   9.865   1.265  11.277 -0.1229  0.5591  0.2004
  680MOL0     O89636   9.748   1.204  11.325  0.4262  0.1885 -0.0015
  680MOL0     C89637   9.751   1.063  11.364  0.4273  0.1299  0.0135
  680MOL0     C89638   9.640   1.038  11.463  0.1705  0.1904  0.8804
  680MOL0     C89639   9.655   0.896  11.526 -0.7659  0.9799 -0.7197
  680MOL0     C89640   9.663   0.788  11.411 -0.3267  0.4554  0.5392
  680MOL0     C89641   9.579   0.666  11.459 -0.8791 -0.3297 -0.3697
  680MOL0     C89642   9.616   0.537  11.391 -0.1976 -0.1511 -0.7035
  680MOL0     C89643   9.538   0.431  11.471  0.5200 -1.0899 -0.0254
  680MOL0     C89644   9.615   0.382  11.601 -0.0545  0.4790 -0.0926
  680MOL0     N89645   9.557   0.259  11.658 -0.0049 -0.4366 -0.2522
  680MOL0     C89646   9.438   0.197  11.625  0.2710 -1.2802  0.2750
  680MOL0     C89647   9.427   0.089  11.710 -0.3287  0.6828  0.1793
  680MOL0     C89648   9.316  -0.018  11.690 -0.5075 -0.4696  0.2349
  680MOL0     C89649   9.245  -0.082  11.812 -0.9350 -0.3510  0.8362
  680MOL0     C89650   9.227   0.009  11.930  0.1591  0.6033  0.7759
  680MOL0     C89651   9.158   0.136  11.898 -0.3622 -0.5900 -0.5571
  680MOL0     O89652   9.018   0.115  11.886 -0.3522 -0.0430 -0.0644
  680MOL0     C89653   8.932   0.168  11.988  1.2573  0.1555  0.2991
  680MOL0     C89654   8.976   0.210  12.111  0.3034  0.4068 -0.5435
  680MOL0     C89655   8.884   0.258  12.207 -0.0177 -0.4809  0.5381
  680MOL0     C89656   8.745   0.277  12.184 -0.6216  0.4617  0.5614
  680MOL0     C89657   8.659   0.333  12.291 -0.6146  0.0090 -0.4691
  680MOL0     O89658   8.523   0.329  12.281 -0.1282  0.3862 -0.1646
  680MOL0     C89659   8.455   0.393  12.371 -0.7170  0.5359 -0.6548
  680MOL0     C89660   8.476   0.523  12.417 -0.3984 -0.1012  0.3042
  680MOL0     C89661   8.370   0.583  12.497  0.8907  0.1290 -0.6901
  680MOL0     C89662   8.262   0.506  12.534  0.3091  0.5306 -0.3584
  680MOL0     O89663   8.171   0.555  12.622  0.4017  0.1057 -0.3303
  680MOL0     C89664   8.082   0.659  12.562 -0.1249  0.3519 -0.1444
  680MOL0     C89665   7.957   0.585  12.511 -0.4410 -0.3656  0.4762
  680MOL0     C89666   7.865   0.556  12.620  0.0504  0.2276 -0.8238
  680MOL0     C89667   7.735   0.485  12.567  0.2988  0.8186  0.8544
  680MOL0     C89668   7.667   0.425  12.692  0.7650  0.1234  0.2721
  680MOL0     C89669   7.583   0.528  12.776 -0.2077  0.1920  0.5820
  680MOL0     C89670   7.451   0.588  12.705 -0.3570 -1.1852  0.5063
  680MOL0     C89671   7.368   0.482  12.625 -0.1314 -0.3192 -0.8936
  680MOL0    Cl89672   7.332   0.342  12.731  0.1137  0.1443  0.1130
  680MOL0     C89673   8.264   0.369  12.501 -0.0212 -0.6431 -1.4975
  680MOL0     C89674   8.350   0.316  12.418 -0.1438 -1.0302 -0.0155
  680MOL0     O89675   8.721   0.350  12.397 -0.0046  0.0200 -0.2939
  680MOL0     C89676   8.707   0.251  12.047 -0.3130  0.7074 -0.5984
  680MOL0     C89677   8.802   0.201  11.956 -0.2785 -0.9143  0.5874
  680MOL0     N89678   9.523   0.101  11.810 -0.0835  1.2619  0.2897
  680MOL0     N89679   9.597   0.202  11.780 -0.2456  0.5655  0.2343
  680MOL0     C89680   9.978   1.208  11.214 -1.1710 -0.3228  0.1855
  680MOL0     C89681  10.075   1.295  11.157 -0.0441  0.0156 -0.1806
  680MOL0     C89682  10.312   1.694  11.051 -0.7605  0.2858  1.2942
  680MOL0     C89683  10.329   1.772  10.932 -0.3733  0.7238 -0.1578
  680MOL0     C89684  10.458   1.823  10.894 -0.4095  0.1188 -0.5207
  680MOL0     C89685  10.560   1.802  10.972 -0.2792 -0.1321 -0.0673
  680MOL0     O89686  10.684   1.847  10.930  0.3347  0.5577 -0.4351
  680MOL0     C89687  10.694   1.990  10.937 -0.3057 -0.1342 -0.5277
  680MOL0     C89688  10.799   2.013  11.046 -1.0726 -1.4075  0.0933
  680MOL0     C89689  10.863   2.159  11.066  0.3550  0.9330  0.3629
  680MOL0     C89690  10.955   2.210  10.947  0.0766 -0.6819  0.0043
  680MOL0     C89691  11.081   2.129  10.960  0.4380  0.1068 -0.0133
  680MOL0     C89692  11.191   2.084  10.975  0.1560 -0.6283 -0.7581
  680MOL0     C89693  10.544   1.728  11.096  0.0357  0.3341  0.7398
  680MOL0     C89694  10.418   1.676  11.129 -0.3030  0.0559  0.4052
  680MOL0     H89695   9.942   1.597  11.238  1.6649  0.2096  0.7324
  680MOL0     H89696   9.766   1.450  11.302 -0.4287 -1.2142  0.3426
  680MOL0     H89697   9.847   1.040  11.412 -0.5396 -0.3031  1.8740
  680MOL0     H89698   9.748   0.999  11.276  2.6017 -2.0300  1.3724
  680MOL0     H89699   9.541   1.046  11.417  0.9381 -2.3450 -1.4385
  680MOL0     H89700   9.648   1.108  11.547 -1.0996 -0.4960  1.5960
  680MOL0     H89701   9.574   0.886  11.599 -0.8673  4.4637 -0.1843
  680MOL0     H89702   9.746   0.890  11.586 -1.8032  1.0709  0.9392
  680MOL0     H89703   9.623   0.825  11.316  1.2913  2.1388  0.4706
  680MOL0     H89704   9.770   0.767  11.409  0.4601  3.8514  0.7850
  680MOL0     H89705   9.477   0.695  11.428  0.1363  0.4988 -3.2622
  680MOL0     H89706   9.591   0.649  11.566 -1.3963  0.2245 -0.2141
  680MOL0     H89707   9.718   0.498  11.392 -1.2206 -3.0320  0.7922
  680MOL0     H89708   9.578   0.544  11.288  3.8454 -1.4457 -2.4693
  680MOL0     H89709   9.435   0.467  11.484  0.8675  1.9259 -3.8800
  680MOL0     H89710   9.533   0.349  11.398  4.3477  0.9210 -2.8924
  680MOL0     H89711   9.618   0.462  11.676  1.3285  1.9670 -1.6352
  680MOL0     H89712   9.717   0.354  11.573 -0.6709  0.1322 -2.0981
  680MOL0     H89713   9.372   0.225  11.543  0.7021  2.8400  1.1127
  680MOL0     H89714   9.358  -0.098  11.628  1.8846  0.0361  1.0658
  680MOL0     H89715   9.238   0.027  11.628  1.1288  0.4869 -1.2465
  680MOL0     H89716   9.314  -0.159  11.845  0.4540 -0.1668 -1.3844
  680MOL0     H89717   9.147  -0.118  11.778 -1.8552  3.7635 -1.6056
  680MOL0     H89718   9.171  -0.045  12.007  0.6836  0.2939  0.9493
  680MOL0     H89719   9.329   0.039  11.956  1.0369 -0.5369 -1.2073
  680MOL0     H89720   9.203   0.164  11.802  1.3290  0.4343  0.4848
  680MOL0     H89721   9.174   0.229  11.954  0.2812 -0.3490 -1.1256
  680MOL0     H89722   9.080   0.206  12.140  0.3643  0.3474 -0.7692
  680MOL0     H89723   8.930   0.275  12.304  1.1684 -0.5965  0.0111
  680MOL0     H89724   8.560   0.584  12.385 -1.4754  2.0190  1.3149
  680MOL0     H89725   8.381   0.681  12.542 -0.6751  0.2280 -0.4629
  680MOL0     H89726   8.123   0.710  12.475 -1.3470 -0.9100 -1.5120
  680MOL0     H89727   8.058   0.736  12.637  1.4649  0.5792  0.1579
  680MOL0     H89728   7.988   0.500  12.450 -2.0376  0.9799 -2.4389
  680MOL0     H89729   7.897   0.651  12.447  1.2774 -1.0202 -1.9332
  680MOL0     H89730   7.844   0.647  12.676 -1.8967 -2.1396  2.6782
  680MOL0     H89731   7.910   0.488  12.693  1.8022  3.0772  0.8976
  680MOL0     H89732   7.681   0.562  12.511 -0.6742 -1.8404 -2.1522
  680MOL0     H89733   7.757   0.398  12.504 -5.0096 -1.6486  1.8571
  680MOL0     H89734   7.739   0.370  12.755  0.5125  1.6960  2.0423
  680MOL0     H89735   7.600   0.348  12.653  1.2806  0.6234 -1.6914
  680MOL0     H89736   7.654   0.605  12.805  1.2033 -0.6218 -0.5696
  680MOL0     H89737   7.544   0.486  12.869 -0.8212  1.5580  0.9640
  680MOL0     H89738   7.389   0.632  12.784  1.2519  0.8233  0.7267
  680MOL0     H89739   7.482   0.668  12.637  1.3077 -1.0168  1.4016
  680MOL0     H89740   7.417   0.462  12.529 -2.0488  0.5493 -2.1124
  680MOL0     H89741   7.273   0.526  12.592 -0.0350  0.0895 -0.6340
  680MOL0     H89742   8.188   0.301  12.538  1.0162 -1.2528 -0.4057
  680MOL0     H89743   8.336   0.221  12.367  4.9250 -0.9921 -2.1015
  680MOL0     H89744   8.609   0.275  12.006 -1.6901 -2.7143  0.3902
  680MOL0     H89745   8.769   0.179  11.855 -0.0410  1.0993  0.0179
  680MOL0     H89746  10.015   1.106  11.200 -1.0988 -0.1413 -1.0676
  680MOL0     H89747  10.153   1.241  11.105 -0.0612  0.4256 -0.6369
  680MOL0     H89748  10.237   1.785  10.875 -0.4730  1.9283  0.2496
  680MOL0     H89749  10.465   1.881  10.803 -0.1193 -0.0853 -0.6286
  680MOL0     H89750  10.602   2.031  10.979  1.4382  1.8527  1.6244
  680MOL0     H89751  10.731   2.031  10.843 -0.6995  1.8877  0.1616
  680MOL0     H89752  10.762   1.985  11.144  1.0825  0.7188  1.6376
  680MOL0     H89753  10.879   1.946  11.013 -2.1576 -2.9180  0.4484
  680MOL0     H89754  10.929   2.159  11.153  3.0794 -3.7347 -1.3310
  680MOL0     H89755  10.777   2.223  11.088 -2.3338 -2.3633  0.2635
  680MOL0     H89756  10.908   2.194  10.849  1.6851  1.0568 -1.1246
  680MOL0     H89757  10.970   2.316  10.972 -3.1552 -0.6734  2.5774
  680MOL0     H89758  11.295   2.073  10.996 -0.0475  0.0988  0.7794
  680MOL0     H89759  10.620   1.715  11.173 -1.1513  0.4424  1.9707
  680MOL0     H89760  10.417   1.618  11.221  0.0596 -0.2524  0.2165
  681MOL0     O89761  10.431   6.889   6.498  0.7328  0.2993  0.5020
  681MOL0     C89762  10.317   6.890   6.452  0.7903 -0.1998 -0.2328
  681MOL0     O89763  10.287   6.873   6.318 -0.7507 -0.5914 -0.4498
  681MOL0     C89764  10.372   6.914   6.217  0.5069  1.0704 -0.5448
  681MOL0     C89765  10.352   6.860   6.078  0.2941  0.4296 -0.9507
  681MOL0     C89766  10.443   6.893   5.973 -0.2176 -0.4135  0.6434
  681MOL0     C89767  10.541   6.987   5.999  0.3630 -0.6138 -0.0640
  681MOL0     O89768  10.620   7.000   5.888  0.0727 -0.5036 -0.5621
  681MOL0     C89769  10.764   7.019   5.906  0.5252  0.2569  0.5672
  681MOL0     C89770  10.813   7.015   5.759 -0.6606 -0.0162  0.0936
  681MOL0     C89771  10.967   7.000   5.763  0.9235 -0.0263 -0.3729
  681MOL0     C89772  11.032   6.998   5.631  0.5580  0.4270 -0.6800
  681MOL0     C89773  11.166   6.926   5.640  0.5705 -0.2168  0.0309
  681MOL0     C89774  11.239   6.903   5.504 -0.2309  0.0940  0.3367
  681MOL0     C89775  11.376   6.827   5.525  0.3177 -0.8333 -0.4373
  681MOL0     C89776  11.421   6.757   5.398 -0.9264 -0.1888 -0.7370
  681MOL0     N89777  11.459   6.852   5.297 -0.2409 -0.5304  0.0549
  681MOL0     C89778  11.580   6.909   5.276  0.6681 -0.9728  0.4662
  681MOL0     C89779  11.560   7.008   5.188 -0.3825  0.5340  0.4786
  681MOL0     C89780  11.656   7.110   5.144 -0.0793  0.0582 -0.3472
  681MOL0     C89781  11.697   7.215   5.248  0.5755 -0.2507 -0.1561
  681MOL0     C89782  11.755   7.163   5.377 -0.8332  0.0001 -0.6621
  681MOL0     C89783  11.824   7.258   5.478 -0.6829  0.8163 -0.3095
  681MOL0     O89784  11.942   7.307   5.422 -0.1478 -0.1062  0.7468
  681MOL0     C89785  12.012   7.408   5.476  0.2361 -0.1125  0.4639
  681MOL0     C89786  12.015   7.448   5.606  0.0349  0.4972  0.1493
  681MOL0     C89787  12.097   7.547   5.660 -1.5440 -0.1182 -0.0919
  681MOL0     C89788  12.188   7.617   5.577 -1.3750 -0.6016 -0.3238
  681MOL0     C89789  12.288   7.717   5.624 -0.5417 -0.5655 -0.0241
  681MOL0     O89790  12.383   7.764   5.537  0.0904  0.2670 -0.6132
  681MOL0     C89791  12.482   7.843   5.594 -0.0945  0.2103  1.3191
  681MOL0     C89792  12.593   7.787   5.654 -0.7950  0.7191 -0.4994
  681MOL0     C89793  12.705   7.857   5.686  0.9659 -0.4021  0.0881
  681MOL0     C89794  12.702   7.997   5.669  0.2050  0.1453 -0.3619
  681MOL0     O89795  12.809   8.065   5.720 -0.6164 -0.6365 -0.6692
  681MOL0     C89796  12.787   8.204   5.751  0.1570  0.1007  0.2597
  681MOL0     C89797  12.716   8.224   5.877 -0.4310 -1.1298 -0.1329
  681MOL0     C89798  12.664   8.368   5.875 -0.3339 -0.1651 -0.7136
  681MOL0     C89799  12.544   8.390   5.976 -1.1436 -0.3675 -1.4398
  681MOL0     C89800  12.409   8.319   5.933  0.3779  0.3148 -0.5768
  681MOL0     C89801  12.270   8.373   5.963  0.0905 -0.5686  0.0358
  681MOL0     C89802  12.221   8.329   6.109 -0.0540  0.4624 -1.5473
  681MOL0     C89803  12.292   8.405   6.210  0.9095 -0.1901  0.6742
  681MOL0    Cl89804  12.246   8.580   6.178  0.2474  0.2121  0.2323
  681MOL0     C89805  12.595   8.061   5.601 -0.3392  1.4392 -0.3516
  681MOL0     C89806  12.482   7.987   5.564  0.5450  0.1633 -0.7129
  681MOL0     O89807  12.279   7.750   5.740 -0.6176 -0.3318 -0.1168
  681MOL0     C89808  12.177   7.592   5.442 -0.3427 -0.1170  0.4391
  681MOL0     C89809  12.094   7.485   5.397  0.1808  0.4628 -0.4834
  681MOL0     N89810  11.424   7.003   5.156 -0.3276 -0.0634 -0.3061
  681MOL0     N89811  11.368   6.908   5.221  0.3042 -0.2210  0.8861
  681MOL0     C89812  10.569   7.029   6.129  0.6845 -0.3716  0.7369
  681MOL0     C89813  10.483   7.003   6.240  0.4534 -0.5366 -0.1818
  681MOL0     C89814  10.208   6.891   6.545  0.2939 -0.0909  0.1701
  681MOL0     C89815  10.223   6.917   6.688 -0.3762 -0.2631  0.1225
  681MOL0     C89816  10.114   6.919   6.775  1.1625  0.5419  0.9389
  681MOL0     C89817   9.990   6.862   6.730 -0.9299 -0.0134  0.2116
  681MOL0     O89818   9.882   6.835   6.812  0.0528 -0.6439  0.1895
  681MOL0     C89819   9.837   6.950   6.893  0.0698 -0.1540 -1.2435
  681MOL0     C89820   9.751   7.035   6.787 -0.8704 -0.6594  0.3767
  681MOL0     C89821   9.652   6.947   6.712  0.7623  0.2061  0.2682
  681MOL0     C89822   9.548   6.869   6.802  0.1018  0.0461  0.1664
  681MOL0     C89823   9.486   6.955   6.903 -0.2513 -0.0081 -0.1912
  681MOL0     C89824   9.422   7.028   6.970 -0.2169 -0.2418 -0.3166
  681MOL0     C89825   9.977   6.832   6.597  0.8364 -0.4072 -0.5924
  681MOL0     C89826  10.074   6.862   6.505 -0.2078 -0.3331  0.8260
  681MOL0     H89827  10.278   6.788   6.046  0.4713 -1.4392  2.3775
  681MOL0     H89828  10.441   6.845   5.875 -0.2620 -2.1171  1.4518
  681MOL0     H89829  10.804   6.946   5.977 -1.1432  0.4743  1.7981
  681MOL0     H89830  10.783   7.122   5.937 -1.0311  1.4848 -2.1600
  681MOL0     H89831  10.787   7.112   5.716  1.6750  1.3549  1.5309
  681MOL0     H89832  10.773   6.928   5.707 -2.4854  0.4924  0.6023
  681MOL0     H89833  10.975   6.906   5.818 -0.5216 -4.2243 -6.2487
  681MOL0     H89834  11.002   7.096   5.800 -0.7611  0.2292  0.6347
  681MOL0     H89835  10.980   6.938   5.557  2.0447 -0.0392 -1.3931
  681MOL0     H89836  11.060   7.099   5.599  0.3953  0.3060 -1.2076
  681MOL0     H89837  11.161   6.828   5.689  1.3653 -1.1045 -1.5889
  681MOL0     H89838  11.239   6.980   5.700  3.4186 -0.0347 -3.3019
  681MOL0     H89839  11.249   6.997   5.448  0.2445  0.1787  0.5601
  681MOL0     H89840  11.166   6.842   5.450  1.1181 -1.2664 -0.0274
  681MOL0     H89841  11.447   6.904   5.557 -0.8693  0.1550 -0.1075
  681MOL0     H89842  11.363   6.755   5.607 -0.6119 -1.3646 -1.0347
  681MOL0     H89843  11.335   6.696   5.367 -2.0918  2.0236 -2.1508
  681MOL0     H89844  11.508   6.693   5.415 -0.8999  0.2221  0.9011
  681MOL0     H89845  11.670   6.881   5.331 -0.9495 -2.9011  2.2816
  681MOL0     H89846  11.616   7.159   5.055  0.6015  3.2367  0.9720
  681MOL0     H89847  11.748   7.059   5.114  0.7177  0.8387  0.6948
  681MOL0     H89848  11.602   7.259   5.280  2.2663  1.8624  2.4601
  681MOL0     H89849  11.761   7.289   5.199  0.3040 -1.1289 -1.8814
  681MOL0     H89850  11.666   7.143   5.438  1.6182 -0.7723  2.9449
  681MOL0     H89851  11.812   7.071   5.361 -0.3519 -0.3295  2.3788
  681MOL0     H89852  11.853   7.205   5.569 -0.5683  1.9830  0.3628
  681MOL0     H89853  11.750   7.337   5.496 -1.3204 -0.1216  1.4780
  681MOL0     H89854  11.953   7.393   5.677  2.6678 -3.2098 -0.1110
  681MOL0     H89855  12.097   7.563   5.767  1.3035 -0.3204  0.0078
  681MOL0     H89856  12.596   7.680   5.668 -0.1827  0.6803 -0.8754
  681MOL0     H89857  12.793   7.812   5.730  2.0113  1.1433 -0.3470
  681MOL0     H89858  12.751   8.272   5.673  1.0704  2.2167  1.5865
  681MOL0     H89859  12.886   8.249   5.762 -0.6382  2.1877 -0.5061
  681MOL0     H89860  12.772   8.210   5.970  0.8350 -0.6682 -0.8063
  681MOL0     H89861  12.627   8.159   5.882 -4.7854  4.1313 -0.1509
  681MOL0     H89862  12.635   8.388   5.771  0.2151  1.7050 -0.5403
  681MOL0     H89863  12.752   8.428   5.898  1.6354 -1.6886 -3.5103
  681MOL0     H89864  12.571   8.371   6.080 -0.8369 -0.9060 -1.6145
  681MOL0     H89865  12.510   8.494   5.973 -1.9306 -0.6336 -2.2441
  681MOL0     H89866  12.412   8.218   5.975 -2.2239  1.4033  2.6877
  681MOL0     H89867  12.418   8.314   5.824  3.7869  3.1625 -0.6153
  681MOL0     H89868  12.193   8.340   5.894 -1.3309  1.5772  0.5048
  681MOL0     H89869  12.285   8.481   5.949 -2.0970 -0.4426 -1.8544
  681MOL0     H89870  12.113   8.346   6.115 -0.2002 -0.5988 -0.8444
  681MOL0     H89871  12.220   8.221   6.127 -4.1642  0.6777  0.5632
  681MOL0     H89872  12.399   8.384   6.204  1.7733  3.0442  2.5096
  681MOL0     H89873  12.254   8.380   6.309 -0.0157 -3.0991 -0.3006
  681MOL0     H89874  12.594   8.168   5.580 -0.1787  1.1218 -2.0676
  681MOL0     H89875  12.394   8.033   5.521 -0.4687  0.0476  1.0867
  681MOL0     H89876  12.237   7.644   5.369 -1.0598 -1.8144 -1.4587
  681MOL0     H89877  12.081   7.439   5.299 -2.6483 -1.1886  0.5714
  681MOL0     H89878  10.663   7.082   6.136  1.6220 -2.1699  2.6390
  681MOL0     H89879  10.520   7.051   6.330 -0.8129  2.0884 -0.9578
  681MOL0     H89880  10.323   6.938   6.725 -0.5963 -2.7634  2.5045
  681MOL0     H89881  10.129   6.965   6.872 -1.0976  2.9131  0.2555
  681MOL0     H89882   9.922   7.005   6.936  0.7147 -2.5900  0.8632
  681MOL0     H89883   9.770   6.927   6.976 -0.4147  0.1226 -1.5498
  681MOL0     H89884   9.721   7.132   6.828 -2.6530 -1.5791  1.3542
  681MOL0     H89885   9.820   7.059   6.706 -0.2028  0.1885  1.1671
  681MOL0     H89886   9.708   6.868   6.661 -1.5872 -2.5727  1.6786
  681MOL0     H89887   9.582   7.003   6.650  0.9237 -0.9259 -0.9924
  681MOL0     H89888   9.464   6.834   6.741  0.4875 -0.7910  0.1088
  681MOL0     H89889   9.607   6.793   6.855  0.4038 -1.8090 -2.6355
  681MOL0     H89890   9.373   7.112   7.015  0.6974  0.0635  0.1477
  681MOL0     H89891   9.887   6.779   6.567 -0.6857 -1.0034  4.1805
  681MOL0     H89892  10.048   6.844   6.401 -3.1264  1.3708  1.1501
  682MOL0     O89893   0.285   3.184   4.720  0.1525  0.3327  0.0709
  682MOL0     C89894   0.177   3.198   4.657 -0.4740 -0.4562  0.0690
  682MOL0     O89895   0.061   3.258   4.710  0.4898  0.2704  0.8840
  682MOL0     C89896   0.068   3.315   4.840 -0.4463  0.0880  0.5188
  682MOL0     C89897   0.156   3.416   4.869  0.8729 -0.3362 -1.1579
  682MOL0     C89898   0.148   3.480   4.992  1.3936  0.2113 -0.0614
  682MOL0     C89899   0.076   3.430   5.091  0.0266  0.1312  0.1372
  682MOL0     O89900   0.074   3.488   5.216  0.3511  0.7468 -0.0102
  682MOL0     C89901   0.087   3.630   5.227  0.8479  0.0659  0.8761
  682MOL0     C89902   0.058   3.669   5.369 -0.1324 -0.0999  0.2388
  682MOL0     C89903   0.077   3.823   5.381  0.0536 -0.1095 -0.0791
  682MOL0     C89904   0.123   3.872   5.520  0.4156 -0.0509  0.8752
  682MOL0     C89905   0.140   4.028   5.538 -0.2714 -0.3836 -0.4908
  682MOL0     C89906   0.204   4.102   5.418  0.6731  0.9710 -0.0800
  682MOL0     C89907   0.340   4.046   5.380  0.0795 -0.3467  1.7710
  682MOL0     C89908   0.365   4.060   5.229  0.6296 -0.8291 -0.1817
  682MOL0     N89909   0.513   4.082   5.207  0.2973 -0.0083  0.1569
  682MOL0     C89910   0.583   4.202   5.232  0.6695 -0.0193  0.4380
  682MOL0     C89911   0.701   4.178   5.166  0.3006  0.6340 -0.0516
  682MOL0     C89912   0.821   4.259   5.143  0.4403 -0.3188  0.1790
  682MOL0     C89913   0.793   4.362   5.029  0.3030 -0.1189 -0.6254
  682MOL0     C89914   0.718   4.304   4.904 -0.7456 -0.0789  0.7413
  682MOL0     C89915   0.692   4.409   4.797  1.1546 -0.2705 -0.1126
  682MOL0     O89916   0.622   4.517   4.865  0.2704 -0.5071  0.4023
  682MOL0     C89917   0.554   4.612   4.788 -0.3856 -0.9027  0.6085
  682MOL0     C89918   0.533   4.733   4.853 -0.6987  0.0088  0.0789
  682MOL0     C89919   0.456   4.831   4.799  0.2983  0.2827 -0.1658
  682MOL0     C89920   0.400   4.818   4.675 -0.6603 -0.2611  0.1072
  682MOL0     C89921   0.306   4.920   4.642  0.2246 -0.4685 -0.3039
  682MOL0     O89922   0.332   5.045   4.673 -0.3637 -0.7674  0.3045
  682MOL0     C89923   0.244   5.144   4.651  0.4832  0.1827 -0.0873
  682MOL0     C89924   0.197   5.170   4.517 -0.0026 -0.5605 -1.0320
  682MOL0     C89925   0.087   5.254   4.506 -0.1633  0.4770  0.2431
  682MOL0     C89926   0.019   5.312   4.617  0.4174 -0.3842  1.1882
  682MOL0     O89927  -0.101   5.380   4.603 -0.1171  0.3300  0.0951
  682MOL0     C89928  -0.076   5.511   4.545  0.1384  0.3638 -0.8093
  682MOL0     C89929  -0.062   5.631   4.645  0.5911 -1.1476 -0.0776
  682MOL0     C89930  -0.200   5.708   4.666 -0.1158 -0.2495 -1.3685
  682MOL0     C89931  -0.180   5.811   4.778  0.5209 -0.4063 -1.2207
  682MOL0     C89932  -0.305   5.869   4.827  0.0771 -1.5281 -0.3564
  682MOL0     C89933  -0.347   5.981   4.733  0.0041  0.1538 -0.1237
  682MOL0     C89934  -0.256   6.106   4.726  0.1868  0.5291 -0.2599
  682MOL0     C89935  -0.350   6.225   4.683  0.9707  0.3480  0.4102
  682MOL0    Cl89936  -0.397   6.221   4.509 -0.4744 -0.3477  0.0410
  682MOL0     C89937   0.055   5.280   4.741 -0.0290 -0.3073 -0.7361
  682MOL0     C89938   0.168   5.196   4.757 -0.0598  0.7397 -0.6040
  682MOL0     O89939   0.197   4.880   4.596 -0.5237 -0.1120 -0.2825
  682MOL0     C89940   0.405   4.701   4.605  0.8938  0.0567  0.5669
  682MOL0     C89941   0.502   4.608   4.654 -0.0889  0.5003  0.1089
  682MOL0     N89942   0.707   4.049   5.117  0.7019  0.2341  0.6335
  682MOL0     N89943   0.597   3.995   5.139  0.2800  1.0473  0.5540
  682MOL0     C89944  -0.016   3.330   5.069 -0.6838 -0.2711  0.1603
  682MOL0     C89945  -0.020   3.269   4.945  0.3821  0.4214  0.6877
  682MOL0     C89946   0.174   3.131   4.526 -0.3146 -0.2771 -0.0052
  682MOL0     C89947   0.302   3.127   4.455 -0.1402 -0.3992  0.0295
  682MOL0     C89948   0.309   3.081   4.322 -0.2441  0.9619  0.4845
  682MOL0     C89949   0.192   3.013   4.278  0.6103  0.2083  0.7990
  682MOL0     O89950   0.169   2.968   4.155  0.5570  0.4999  0.4236
  682MOL0     C89951   0.263   2.932   4.060 -0.4122 -0.2172  0.1912
  682MOL0     C89952   0.184   2.891   3.936  0.2135 -0.6610 -0.3523
  682MOL0     C89953   0.100   2.760   3.952 -0.4409 -0.7290  0.1716
  682MOL0     C89954  -0.003   2.766   3.835  0.0835 -0.0259  0.5008
  682MOL0     C89955  -0.071   2.634   3.831  0.1896 -0.0410  0.2160
  682MOL0     C89956  -0.118   2.525   3.845 -0.1522  0.0961  0.3576
  682MOL0     C89957   0.070   3.017   4.344  0.1086  0.4439 -0.4728
  682MOL0     C89958   0.063   3.065   4.475 -0.5811 -0.9645 -0.1990
  682MOL0     H89959   0.219   3.454   4.790 -0.8234 -1.0632 -2.9367
  682MOL0     H89960   0.213   3.567   4.998 -0.9609  2.1685 -0.8136
  682MOL0     H89961   0.023   3.674   5.150  1.1722 -1.5506 -0.3835
  682MOL0     H89962   0.188   3.666   5.203  0.9742 -2.0066 -2.2491
  682MOL0     H89963   0.138   3.617   5.423 -1.5855 -1.0109  1.5891
  682MOL0     H89964  -0.040   3.636   5.403 -0.9336 -0.2164 -2.0009
  682MOL0     H89965  -0.021   3.858   5.348 -0.5657 -0.0294  1.7471
  682MOL0     H89966   0.156   3.848   5.310 -1.6092  0.3584 -1.8546
  682MOL0     H89967   0.049   3.835   5.591 -0.4645 -0.2643 -0.1191
  682MOL0     H89968   0.215   3.821   5.548  0.7573 -0.9529 -1.6307
  682MOL0     H89969   0.208   4.055   5.619 -0.5212  3.8294 -1.4630
  682MOL0     H89970   0.042   4.073   5.558 -1.4605 -1.2950 -3.6366
  682MOL0     H89971   0.215   4.204   5.455  2.6509  0.0754  2.0434
  682MOL0     H89972   0.127   4.110   5.341  0.0283  0.3980  0.4825
  682MOL0     H89973   0.410   4.106   5.438 -1.6196  1.5772  1.9738
  682MOL0     H89974   0.357   3.940   5.400  0.8836 -0.6137 -0.1323
  682MOL0     H89975   0.320   4.158   5.212 -2.6795 -1.1006  4.8371
  682MOL0     H89976   0.325   3.980   5.165  0.1439 -0.0949 -0.8225
  682MOL0     H89977   0.537   4.285   5.284 -2.9937 -2.3580  1.2931
  682MOL0     H89978   0.902   4.190   5.118 -0.8067 -2.4598  1.6931
  682MOL0     H89979   0.842   4.301   5.242  0.6853 -4.3108  2.0543
  682MOL0     H89980   0.890   4.402   4.996  0.8518 -0.9096  0.0038
  682MOL0     H89981   0.750   4.446   5.084  2.7263  1.6293 -1.2286
  682MOL0     H89982   0.779   4.236   4.844 -2.2658 -0.5792 -0.2793
  682MOL0     H89983   0.626   4.252   4.931 -0.9726  0.1642  0.4525
  682MOL0     H89984   0.630   4.374   4.715  2.0100  2.0257 -1.8536
  682MOL0     H89985   0.787   4.446   4.756  1.6983 -1.1228  0.3455
  682MOL0     H89986   0.583   4.758   4.946 -2.3739 -0.1447  1.0624
  682MOL0     H89987   0.449   4.922   4.857  0.2483 -1.2445  2.4150
  682MOL0     H89988   0.237   5.116   4.431 -0.6240  2.0784 -3.1131
  682MOL0     H89989   0.051   5.262   4.404 -2.5450 -0.2926  0.9626
  682MOL0     H89990  -0.135   5.546   4.460  2.6970 -4.8720 -5.3966
  682MOL0     H89991   0.027   5.505   4.509  1.1530  1.1436  1.7477
  682MOL0     H89992   0.013   5.700   4.604  1.1404 -0.5027  1.9053
  682MOL0     H89993  -0.026   5.604   4.745  2.7877  1.7063  0.0321
  682MOL0     H89994  -0.272   5.633   4.700 -0.4588  1.4570  2.1121
  682MOL0     H89995  -0.228   5.750   4.569 -1.2982 -2.9062 -2.2476
  682MOL0     H89996  -0.118   5.769   4.858 -0.1895  2.3210  0.9193
  682MOL0     H89997  -0.110   5.890   4.748  1.3934 -0.8086 -0.3129
  682MOL0     H89998  -0.295   5.906   4.929  2.8173  2.8846 -1.9279
  682MOL0     H89999  -0.380   5.790   4.832 -0.2881 -1.1176  1.2674
  682MOL0     H90000  -0.446   6.003   4.774 -0.5388 -0.7886 -0.8724
  682MOL0     H90001  -0.369   5.934   4.637 -1.5913 -0.0876  0.3235
  682MOL0     H90002  -0.221   6.120   4.829  0.3098 -0.7125 -0.1127
  682MOL0     H90003  -0.175   6.082   4.656  2.0424  0.9984  1.6429
  682MOL0     H90004  -0.309   6.320   4.718  1.1587  0.8033 -0.9777
  682MOL0     H90005  -0.445   6.205   4.733  1.9275 -3.8840  0.9064
  682MOL0     H90006   0.014   5.307   4.838  1.6255 -3.1336  0.8797
  682MOL0     H90007   0.189   5.162   4.858 -3.2445  1.3810  0.3852
  682MOL0     H90008   0.343   4.685   4.518  1.4039  1.8134 -0.1536
  682MOL0     H90009   0.520   4.514   4.603  0.0685 -0.2788  1.5443
  682MOL0     H90010  -0.075   3.287   5.149  0.3237 -0.1333  0.9998
  682MOL0     H90011  -0.077   3.176   4.938  2.2542 -1.0075  2.7630
  682MOL0     H90012   0.395   3.152   4.505 -1.3821  0.6344  1.9233
  682MOL0     H90013   0.406   3.078   4.274  1.1272  1.9906  3.0001
  682MOL0     H90014   0.336   2.854   4.085  0.5284  0.0285 -1.5750
  682MOL0     H90015   0.328   3.019   4.044  0.8000 -0.8071  1.6575
  682MOL0     H90016   0.116   2.975   3.918 -2.2320 -1.9695  2.0700
  682MOL0     H90017   0.249   2.890   3.848  1.3662 -1.7889  0.4724
  682MOL0     H90018   0.060   2.758   4.054 -1.9509 -0.3276 -0.3942
  682MOL0     H90019   0.165   2.673   3.943  0.3242  0.0485 -2.6847
  682MOL0     H90020  -0.084   2.834   3.863 -1.9032 -1.2369 -1.9874
  682MOL0     H90021   0.043   2.790   3.739 -0.1158 -0.3149  0.3321
  682MOL0     H90022  -0.137   2.421   3.861 -0.1462 -0.1906 -1.2788
  682MOL0     H90023  -0.023   2.988   4.296 -0.3933  1.6999 -0.2852
  682MOL0     H90024  -0.033   3.063   4.524  0.0879  0.2982  1.2447
  683MOL0     O90025   1.095   9.259  10.736  0.1989  0.0156 -0.2877
  683MOL0     C90026   1.052   9.315  10.637  0.0404 -0.1246  0.2654
  683MOL0     O90027   1.066   9.447  10.598 -0.0181  0.2107 -0.3208
  683MOL0     C90028   1.089   9.541  10.695  0.0854  0.6610 -0.5942
  683MOL0     C90029   1.058   9.512  10.831  0.0038 -0.0823  0.0792
  683MOL0     C90030   1.065   9.604  10.923 -0.9914 -0.0164 -0.2380
  683MOL0     C90031   1.112   9.735  10.888  0.8391  0.9124 -0.1911
  683MOL0     O90032   1.093   9.842  10.970  0.0849  0.5959  0.4820
  683MOL0     C90033   1.096   9.827  11.111 -0.5388 -0.5196  1.1096
  683MOL0     C90034   1.159   9.960  11.158  0.7704  1.1262  1.0123
  683MOL0     C90035   1.140   9.981  11.306 -0.2575  0.2754 -1.0013
  683MOL0     C90036   1.210  10.115  11.346  0.8528  1.2678 -0.0795
  683MOL0     C90037   1.143  10.139  11.483  0.1185  0.3668  0.0733
  683MOL0     C90038   1.216  10.267  11.535 -0.1615 -0.3396 -0.3512
  683MOL0     C90039   1.166  10.312  11.681  0.4385  0.7953  0.2232
  683MOL0     C90040   1.259  10.428  11.719  0.0299 -0.1919  0.7172
  683MOL0     N90041   1.216  10.478  11.847 -0.4066 -0.1839 -0.3320
  683MOL0     C90042   1.166  10.409  11.960  0.3304 -0.4736  0.6122
  683MOL0     C90043   1.155  10.508  12.059  0.2330  0.6995  0.8231
  683MOL0     C90044   1.131  10.479  12.201  0.7723  0.2184  0.0249
  683MOL0     C90045   1.111  10.598  12.295 -0.9505 -0.2431 -1.4048
  683MOL0     C90046   1.234  10.669  12.363 -0.6411  1.0990 -0.6676
  683MOL0     C90047   1.274  10.594  12.491 -0.5541 -1.3446 -0.5675
  683MOL0     O90048   1.409  10.631  12.526 -0.2888  1.3464  0.4263
  683MOL0     C90049   1.455  10.757  12.511 -0.7368  0.6648 -0.0236
  683MOL0     C90050   1.411  10.870  12.587  0.2201 -1.0813  0.4317
  683MOL0     C90051   1.451  10.999  12.537 -0.2501 -0.8148 -0.0352
  683MOL0     C90052   1.533  11.019  12.424  0.5971  0.0386  0.0735
  683MOL0     C90053   1.575  11.159  12.384 -0.0608 -0.4454  0.5598
  683MOL0     O90054   1.708  11.187  12.378  0.0360 -1.0426  0.1176
  683MOL0     C90055   1.749  11.305  12.319 -1.4297  1.0653 -0.5972
  683MOL0     C90056   1.689  11.424  12.279 -0.0057  0.8139  0.1967
  683MOL0     C90057   1.754  11.531  12.221 -1.0523 -0.3954 -0.1512
  683MOL0     C90058   1.902  11.515  12.203  0.0914  0.6146 -0.1511
  683MOL0     O90059   1.986  11.603  12.131 -0.3807 -0.5354 -0.6670
  683MOL0     C90060   1.936  11.613  11.997  0.9581  0.3642 -1.2564
  683MOL0     C90061   2.045  11.645  11.895 -0.8321 -0.0750 -0.1276
  683MOL0     C90062   1.978  11.671  11.762 -0.3397 -0.7159  0.6133
  683MOL0     C90063   2.086  11.703  11.660  0.2931  0.3412 -0.2659
  683MOL0     C90064   2.024  11.722  11.518  0.2859 -1.0428 -0.6662
  683MOL0     C90065   1.921  11.833  11.497  0.0377 -0.2292  0.3361
  683MOL0     C90066   1.907  11.871  11.345  1.1809 -0.2215 -0.9049
  683MOL0     C90067   1.842  12.012  11.339  0.4682  0.0800 -1.1224
  683MOL0    Cl90068   1.926  12.155  11.406  0.4260  0.0971 -0.2256
  683MOL0     C90069   1.958  11.405  12.243  0.3010  0.0269 -0.6152
  683MOL0     C90070   1.883  11.294  12.304  0.6629 -0.3708  0.0740
  683MOL0     O90071   1.482  11.240  12.395  0.1321  0.3791 -0.5901
  683MOL0     C90072   1.572  10.912  12.358  0.7437  1.0350  0.6862
  683MOL0     C90073   1.539  10.778  12.399  0.5682 -0.0037 -0.5486
  683MOL0     N90074   1.187  10.624  11.997 -0.9876 -0.6106 -0.4540
  683MOL0     N90075   1.225  10.605  11.878  0.1667 -0.2369 -0.1528
  683MOL0     C90076   1.157   9.762  10.763 -0.4019 -0.7991  0.5170
  683MOL0     C90077   1.146   9.659  10.665 -0.6385 -0.3225 -0.0132
  683MOL0     C90078   0.996   9.225  10.533 -0.6780 -0.4723 -0.7124
  683MOL0     C90079   1.031   9.088  10.529 -0.3229  0.8607  0.6544
  683MOL0     C90080   0.996   9.006  10.416 -0.3640 -0.2707  0.2135
  683MOL0     C90081   0.922   9.060  10.313 -0.3837 -0.1479  0.4010
  683MOL0     O90082   0.888   8.977  10.217 -0.4861 -0.1082 -0.3883
  683MOL0     C90083   0.792   9.017  10.123  0.5253 -0.2185  0.1970
  683MOL0     C90084   0.672   8.918  10.121  0.2794  0.1307 -0.2837
  683MOL0     C90085   0.701   8.761  10.095 -0.4534 -0.1039 -0.1562
  683MOL0     C90086   0.586   8.686  10.044 -1.0281  0.6820  0.7359
  683MOL0     C90087   0.480   8.678  10.133 -0.8295 -0.1695 -0.3622
  683MOL0     C90088   0.385   8.669  10.208  0.9877 -1.0062  0.1217
  683MOL0     C90089   0.895   9.201  10.312 -0.0128 -0.0182  0.1648
  683MOL0     C90090   0.931   9.284  10.418  0.1446  0.3287 -0.3135
  683MOL0     H90091   1.023   9.419  10.875 -0.4552 -0.5779 -1.3010
  683MOL0     H90092   1.047   9.586  11.028  0.4471  1.4911  0.3202
  683MOL0     H90093   1.148   9.736  11.142 -0.9583 -1.4158 -0.6923
  683MOL0     H90094   0.991   9.828  11.142 -0.8723  0.5890  0.0282
  683MOL0     H90095   1.104  10.042  11.112 -0.4214 -0.0446  0.2752
  683MOL0     H90096   1.263   9.957  11.125  1.1861  1.9053  2.1613
  683MOL0     H90097   1.187   9.897  11.358 -0.2260  0.9384  0.0781
  683MOL0     H90098   1.034   9.972  11.332  0.2398 -0.7972  0.8259
  683MOL0     H90099   1.319  10.103  11.357  1.0165  1.4254 -1.3967
  683MOL0     H90100   1.188  10.199  11.280  1.4401  0.7050 -1.0165
  683MOL0     H90101   1.148  10.056  11.554 -1.9821  2.5671  3.0670
  683MOL0     H90102   1.037  10.160  11.472 -0.8421 -4.6186 -3.2253
  683MOL0     H90103   1.196  10.345  11.461 -3.6427 -0.2514  0.5055
  683MOL0     H90104   1.323  10.247  11.539 -0.0479  0.1211 -1.0789
  683MOL0     H90105   1.061  10.343  11.681  0.1403 -0.1618 -0.5188
  683MOL0     H90106   1.179  10.229  11.751  0.3245 -0.5566 -1.2988
  683MOL0     H90107   1.254  10.510  11.646  3.2096  1.2006  1.9214
  683MOL0     H90108   1.364  10.399  11.726  0.9111  1.7471 -2.4327
  683MOL0     H90109   1.159  10.301  11.963 -2.5724 -0.3566  0.9352
  683MOL0     H90110   1.207  10.411  12.241 -1.7490 -5.5198 -3.5389
  683MOL0     H90111   1.035  10.427  12.211  0.1689  0.7550 -2.2873
  683MOL0     H90112   1.040  10.572  12.374 -0.0776  0.9854 -0.1753
  683MOL0     H90113   1.070  10.678  12.232 -0.1627 -1.2588 -3.3140
  683MOL0     H90114   1.318  10.658  12.295  0.8888  1.6362  1.0643
  683MOL0     H90115   1.215  10.774  12.390  1.1379  0.8208  2.0472
  683MOL0     H90116   1.262  10.487  12.476  0.9748 -1.2013 -3.4492
  683MOL0     H90117   1.207  10.634  12.568 -1.1115  1.9533 -2.5449
  683MOL0     H90118   1.358  10.872  12.681 -2.4780 -2.3416 -0.9461
  683MOL0     H90119   1.407  11.084  12.588 -3.7726 -1.0822 -2.2207
  683MOL0     H90120   1.581  11.432  12.276 -0.2251 -1.4453  0.0301
  683MOL0     H90121   1.715  11.622  12.178  1.5145  0.4105 -0.9680
  683MOL0     H90122   1.861  11.686  11.966 -0.7541 -1.1016 -0.7670
  683MOL0     H90123   1.893  11.515  11.974  1.3770 -0.8324  2.3461
  683MOL0     H90124   2.124  11.569  11.896 -1.2626 -0.5304 -0.1547
  683MOL0     H90125   2.093  11.739  11.924  2.5614 -2.1039  1.4667
  683MOL0     H90126   1.924  11.766  11.760  2.0744  0.7504  1.0072
  683MOL0     H90127   1.923  11.581  11.734 -0.8796 -0.7552  1.7730
  683MOL0     H90128   2.135  11.794  11.695  1.8894 -0.2124 -0.9679
  683MOL0     H90129   2.161  11.622  11.660  0.9568  0.9152 -1.5321
  683MOL0     H90130   1.971  11.629  11.494 -0.1895 -0.6179 -1.2904
  683MOL0     H90131   2.101  11.733  11.441 -3.0495 -1.8089 -4.4424
  683MOL0     H90132   1.963  11.926  11.535 -2.4886  1.3121 -0.3901
  683MOL0     H90133   1.831  11.814  11.556  1.1198 -1.9114  1.5721
  683MOL0     H90134   2.002  11.865  11.291  1.9965 -1.0955  0.5425
  683MOL0     H90135   1.840  11.797  11.300 -1.3070  0.1389  1.9533
  683MOL0     H90136   1.745  12.001  11.387 -0.4555  1.4846 -2.5543
  683MOL0     H90137   1.821  12.043  11.236  1.0561  2.2052 -0.6447
  683MOL0     H90138   2.059  11.385  12.210  0.3484 -2.1539  0.6648
  683MOL0     H90139   1.928  11.201  12.336 -2.1848 -2.2708 -1.1075
  683MOL0     H90140   1.645  10.928  12.279 -1.1488 -0.1803 -1.4160
  683MOL0     H90141   1.576  10.689  12.350  2.3850  1.3276 -1.6958
  683MOL0     H90142   1.201   9.859  10.742 -0.8182 -0.9645 -1.2824
  683MOL0     H90143   1.170   9.680  10.561 -0.9251 -0.3103 -0.0801
  683MOL0     H90144   1.073   9.044  10.619 -2.5449 -0.4282  1.1547
  683MOL0     H90145   1.008   8.898  10.417 -0.8605 -0.4744 -3.0554
  683MOL0     H90146   0.838   9.008  10.024  0.3960 -1.7718  0.2541
  683MOL0     H90147   0.745   9.112  10.150  1.7994  0.0160  1.7903
  683MOL0     H90148   0.616   8.921  10.215 -1.6343  0.4406 -1.3748
  683MOL0     H90149   0.604   8.952  10.043 -1.1660 -1.8609  0.0088
  683MOL0     H90150   0.723   8.713  10.191  1.3038  0.4234 -0.2658
  683MOL0     H90151   0.787   8.758  10.027  0.1192  1.5593  0.4678
  683MOL0     H90152   0.548   8.737   9.955 -1.7883  0.3331  0.8511
  683MOL0     H90153   0.621   8.592  10.003  1.8173 -0.6474  5.4213
  683MOL0     H90154   0.309   8.681  10.283  0.7486  2.4173 -0.5086
  683MOL0     H90155   0.849   9.252  10.227  0.4545 -1.1483 -0.8012
  683MOL0     H90156   0.912   9.391  10.428 -3.7987 -0.2017 -0.3479
  684MOL0     O90157   8.881   8.489   0.496  0.4660 -0.4403  0.1173
  684MOL0     C90158   8.947   8.450   0.402  0.1802  0.5993  0.6948
  684MOL0     O90159   8.919   8.333   0.330  0.5406 -0.1904  0.4344
  684MOL0     C90160   8.789   8.292   0.306  0.0840  0.3441  0.2144
  684MOL0     C90161   8.672   8.356   0.334  0.9117 -0.3365  0.2821
  684MOL0     C90162   8.547   8.290   0.318 -0.3474 -0.8716 -0.2407
  684MOL0     C90163   8.537   8.161   0.266  0.7652  0.7087 -0.7611
  684MOL0     O90164   8.416   8.098   0.251 -0.9894  0.1256  0.0822
  684MOL0     C90165   8.305   8.126   0.335  0.9454  0.3037  0.0350
  684MOL0     C90166   8.185   8.035   0.311 -0.2606 -0.6213  0.3743
  684MOL0     C90167   8.092   8.052   0.426  0.2964  1.0428  0.6216
  684MOL0     C90168   8.113   7.946   0.530  0.5490 -0.5972 -0.2125
  684MOL0     C90169   7.984   7.882   0.603  0.4734 -0.0615  0.1394
  684MOL0     C90170   7.882   7.998   0.645  0.2368 -0.8183  0.4490
  684MOL0     C90171   7.761   7.941   0.733  0.2850  0.4511  0.0839
  684MOL0     C90172   7.645   7.893   0.639 -0.3904 -0.2094 -0.0534
  684MOL0     N90173   7.554   8.009   0.620 -0.3752 -0.2244  0.9011
  684MOL0     C90174   7.425   8.022   0.672  0.1854  0.2066  0.3155
  684MOL0     C90175   7.377   8.140   0.619 -0.3764  0.4458  0.8633
  684MOL0     C90176   7.243   8.209   0.652  0.7209  0.3424 -1.2949
  684MOL0     C90177   7.195   8.190   0.798  0.1451  0.4298  0.2802
  684MOL0     C90178   7.250   8.302   0.888  0.4240 -0.1165 -0.0386
  684MOL0     C90179   7.176   8.307   1.017  0.3604 -0.3448  0.1546
  684MOL0     O90180   7.248   8.370   1.119 -0.1633 -1.0963 -0.2023
  684MOL0     C90181   7.205   8.362   1.246 -0.9044 -0.5055 -0.4777
  684MOL0     C90182   7.090   8.291   1.287 -0.1591  0.0149  0.1235
  684MOL0     C90183   7.057   8.293   1.420  0.4653 -0.5052  0.4456
  684MOL0     C90184   7.131   8.370   1.524  0.1141  0.2534 -0.0886
  684MOL0     C90185   7.089   8.377   1.659  0.2305 -0.2269 -0.3724
  684MOL0     O90186   7.132   8.493   1.727  0.3076 -0.9832  0.2126
  684MOL0     C90187   7.092   8.525   1.856 -0.0921  0.0636  0.8460
  684MOL0     C90188   7.050   8.428   1.954 -0.3712  1.0767  0.4290
  684MOL0     C90189   7.014   8.467   2.082  0.0711 -0.3212  0.5079
  684MOL0     C90190   7.053   8.597   2.126  0.6210  1.3174  0.8907
  684MOL0     O90191   7.013   8.643   2.249  0.8375 -0.8255  0.3822
  684MOL0     C90192   7.113   8.689   2.343 -0.2545 -0.5281 -0.6188
  684MOL0     C90193   7.087   8.663   2.497 -0.5603 -0.9549  0.7158
  684MOL0     C90194   7.150   8.529   2.540  0.5763 -1.3770  0.1966
  684MOL0     C90195   7.094   8.480   2.664 -0.0743 -0.0963  0.1792
  684MOL0     C90196   7.145   8.341   2.699  0.2342  0.8608 -0.8696
  684MOL0     C90197   7.037   8.241   2.741  0.4359  0.6968 -0.3920
  684MOL0     C90198   6.946   8.281   2.863 -0.3479  0.2442  0.5750
  684MOL0     C90199   7.029   8.273   2.993 -0.3875 -0.2893  0.2560
  684MOL0    Cl90200   7.044   8.109   3.052  0.4211  0.3343  0.0034
  684MOL0     C90201   7.107   8.687   2.040 -0.0613  0.0330  0.5690
  684MOL0     C90202   7.118   8.652   1.900  0.6498 -0.0950 -0.5404
  684MOL0     O90203   7.023   8.281   1.705  0.0374 -0.3178  0.5896
  684MOL0     C90204   7.244   8.439   1.474  0.5259  0.2973 -0.7398
  684MOL0     C90205   7.272   8.440   1.340  0.4938  0.6207 -0.0068
  684MOL0     N90206   7.466   8.187   0.528 -0.7006  0.0906  0.2898
  684MOL0     N90207   7.563   8.100   0.518  0.3165  0.2184  0.3764
  684MOL0     C90208   8.654   8.103   0.225 -0.0709  0.1218 -0.3371
  684MOL0     C90209   8.781   8.170   0.238 -0.3494  1.8503  0.4527
  684MOL0     C90210   9.078   8.520   0.373  0.8141 -0.0580 -0.5639
  684MOL0     C90211   9.162   8.477   0.271  0.4883 -0.6388 -0.8713
  684MOL0     C90212   9.290   8.532   0.259 -0.0583  0.0372  0.0136
  684MOL0     C90213   9.338   8.634   0.344 -0.6137 -0.5152 -0.3429
  684MOL0     O90214   9.467   8.673   0.324  0.2741 -1.3246 -0.3096
  684MOL0     C90215   9.473   8.817   0.308 -0.5298 -0.3598 -0.3696
  684MOL0     C90216   9.609   8.860   0.260  0.9321 -0.6465 -0.1145
  684MOL0     C90217   9.718   8.784   0.332  0.1321 -1.0993 -0.4596
  684MOL0     C90218   9.855   8.839   0.313 -0.0486 -0.0311  0.6652
  684MOL0     C90219   9.913   8.800   0.177 -0.3825 -0.5247  0.0370
  684MOL0     C90220   9.972   8.783   0.073 -0.1933  0.5811  0.2498
  684MOL0     C90221   9.249   8.685   0.439  0.0942 -0.0205  0.3061
  684MOL0     C90222   9.118   8.631   0.456 -0.6078  0.9415  0.1793
  684MOL0     H90223   8.661   8.459   0.364 -0.4214  0.1515 -1.6401
  684MOL0     H90224   8.459   8.352   0.333  0.4329 -0.0106  0.9511
  684MOL0     H90225   8.265   8.224   0.306 -0.9159 -0.0190  1.3295
  684MOL0     H90226   8.331   8.128   0.441  0.0348 -2.8432  0.4134
  684MOL0     H90227   8.216   7.934   0.284 -2.9075 -1.6061  0.7828
  684MOL0     H90228   8.145   8.070   0.215  3.3448  0.1340 -1.0246
  684MOL0     H90229   7.999   8.027   0.374  2.2463  2.9644 -4.4299
  684MOL0     H90230   8.090   8.155   0.460  4.7719  1.1222  1.2240
  684MOL0     H90231   8.189   7.878   0.491  1.2833 -0.4620  0.9205
  684MOL0     H90232   8.169   7.989   0.614  1.4272 -2.3530  0.1320
  684MOL0     H90233   8.015   7.823   0.689 -1.3866 -2.3304 -0.6256
  684MOL0     H90234   7.933   7.814   0.534  2.2719 -2.2281  0.8042
  684MOL0     H90235   7.836   8.042   0.556  2.4520 -0.2811 -0.5046
  684MOL0     H90236   7.942   8.072   0.698  1.3154 -0.5974 -1.0410
  684MOL0     H90237   7.801   7.861   0.797  0.2892 -0.8710 -1.4954
  684MOL0     H90238   7.714   8.016   0.797 -0.5038 -0.4124  0.5468
  684MOL0     H90239   7.609   7.800   0.685  1.7791 -1.2690 -0.4010
  684MOL0     H90240   7.686   7.876   0.539  1.2966  0.6983  0.4505
  684MOL0     H90241   7.372   7.950   0.733 -0.0198  2.4059  2.8954
  684MOL0     H90242   7.157   8.183   0.590  1.2671  2.0108 -2.8300
  684MOL0     H90243   7.254   8.317   0.638 -0.5110  0.4373 -1.6710
  684MOL0     H90244   7.222   8.092   0.839  1.2268  2.1252  3.9770
  684MOL0     H90245   7.086   8.205   0.796  0.0757 -0.0576 -0.7913
  684MOL0     H90246   7.358   8.294   0.903  0.1308 -1.4198  1.7545
  684MOL0     H90247   7.232   8.396   0.835 -1.1462 -1.4647 -2.0387
  684MOL0     H90248   7.166   8.199   1.028  1.4396 -0.5278 -0.4717
  684MOL0     H90249   7.076   8.348   1.000  1.2486  1.9151 -0.0219
  684MOL0     H90250   7.040   8.225   1.216  1.9563 -0.6568 -0.8298
  684MOL0     H90251   6.973   8.227   1.440 -1.2520  1.9725  1.9311
  684MOL0     H90252   7.039   8.323   1.929  4.7651  0.1467  1.0253
  684MOL0     H90253   6.968   8.405   2.158 -2.6453 -0.3305 -1.0150
  684MOL0     H90254   7.122   8.794   2.314  0.8008  0.0498  1.6184
  684MOL0     H90255   7.212   8.650   2.317  0.2431 -0.3310  0.8807
  684MOL0     H90256   6.981   8.682   2.512  0.1778  4.3189  1.0351
  684MOL0     H90257   7.140   8.744   2.547  1.1217 -0.8519 -1.0778
  684MOL0     H90258   7.256   8.552   2.552  0.0659  2.7821 -1.4833
  684MOL0     H90259   7.130   8.460   2.457 -2.2479 -0.7266  0.2479
  684MOL0     H90260   7.117   8.540   2.752 -1.3016 -0.3667  0.7040
  684MOL0     H90261   6.985   8.481   2.650 -0.0230  2.0087 -0.4575
  684MOL0     H90262   7.208   8.345   2.788  0.7550 -2.5922 -0.9622
  684MOL0     H90263   7.209   8.307   2.617 -1.3758 -2.7941 -0.7966
  684MOL0     H90264   7.083   8.144   2.762 -2.6783 -0.6415  0.8972
  684MOL0     H90265   6.973   8.229   2.653  0.6151  0.8496 -0.5454
  684MOL0     H90266   6.912   8.385   2.853 -0.0383  0.4047  1.1763
  684MOL0     H90267   6.857   8.218   2.874 -0.1853 -0.3086 -1.0522
  684MOL0     H90268   6.969   8.316   3.075 -1.6901 -1.0353 -0.2717
  684MOL0     H90269   7.121   8.331   2.983 -0.6066  0.1135  0.5171
  684MOL0     H90270   7.131   8.790   2.064  0.3172  0.5389 -1.7142
  684MOL0     H90271   7.178   8.720   1.841  0.4524  1.2351  0.7069
  684MOL0     H90272   7.304   8.485   1.552  0.8894 -0.3656 -0.6193
  684MOL0     H90273   7.363   8.497   1.326 -0.7589  3.2222  1.6858
  684MOL0     H90274   8.649   8.004   0.179  2.9159 -0.2877  0.0212
  684MOL0     H90275   8.875   8.122   0.212 -1.2045  1.5007 -2.3228
  684MOL0     H90276   9.144   8.390   0.208  1.5104 -0.7781 -0.9924
  684MOL0     H90277   9.347   8.484   0.180 -4.3539  0.3835 -3.7035
  684MOL0     H90278   9.435   8.864   0.400 -0.1278 -1.0199  0.1436
  684MOL0     H90279   9.410   8.852   0.226 -2.7099 -1.0773  0.9300
  684MOL0     H90280   9.620   8.824   0.157  1.1434 -3.0992  0.6809
  684MOL0     H90281   9.626   8.968   0.263  0.0890 -0.5267  1.9365
  684MOL0     H90282   9.717   8.681   0.296 -0.4756 -1.1873 -0.2089
  684MOL0     H90283   9.696   8.800   0.438  0.0504 -0.1400 -0.6167
  684MOL0     H90284   9.845   8.947   0.323 -2.6320 -0.2486  1.1706
  684MOL0     H90285   9.934   8.815   0.386  1.8759  0.2734 -1.2117
  684MOL0     H90286  10.027   8.767  -0.017 -2.5269  3.4760 -1.9281
  684MOL0     H90287   9.281   8.767   0.502 -0.2476  0.0921  0.3336
  684MOL0     H90288   9.053   8.676   0.530 -0.5257  1.4257 -0.0387
  685MOL0     O90289   0.498   3.095   1.854  0.4529 -0.2618  0.9601
  685MOL0     C90290   0.379   3.124   1.828 -0.2367 -0.3487 -1.5122
  685MOL0     O90291   0.286   3.123   1.931  0.7904 -0.6453  0.2520
  685MOL0     C90292   0.327   3.095   2.059  0.1024 -0.0920 -1.0145
  685MOL0     C90293   0.365   2.962   2.104  0.2578 -0.6066 -0.2327
  685MOL0     C90294   0.421   2.941   2.236 -0.8318  0.4377  0.2108
  685MOL0     C90295   0.438   3.055   2.314 -0.6734 -0.1726  0.1729
  685MOL0     O90296   0.512   3.036   2.429  0.7011  0.1576  0.1365
  685MOL0     C90297   0.625   3.122   2.450  0.4056  0.4907 -0.2856
  685MOL0     C90298   0.659   3.095   2.598  0.0034  0.9621  0.3982
  685MOL0     C90299   0.722   2.956   2.650  0.5723  0.4691  0.3021
  685MOL0     C90300   0.812   2.886   2.551  0.1464 -0.7302  0.3434
  685MOL0     C90301   0.858   2.745   2.589  0.0633  0.8060  0.0489
  685MOL0     C90302   0.747   2.638   2.589  0.5143 -0.4622 -0.1913
  685MOL0     C90303   0.688   2.600   2.454 -0.3191 -0.1488  0.7105
  685MOL0     C90304   0.592   2.474   2.465 -0.7814  0.5914 -0.0825
  685MOL0     N90305   0.648   2.345   2.509 -0.2764 -0.1088  0.1459
  685MOL0     C90306   0.714   2.247   2.432  0.2504  0.7728  0.3547
  685MOL0     C90307   0.719   2.139   2.518 -0.3830  0.3495  0.8057
  685MOL0     C90308   0.794   2.011   2.498  0.3396  0.7238  0.0105
  685MOL0     C90309   0.700   1.910   2.441 -0.9628  0.6926  0.5297
  685MOL0     C90310   0.586   1.876   2.536 -0.1183  0.1037 -0.6592
  685MOL0     C90311   0.467   1.791   2.475  0.0381  0.7100 -0.7595
  685MOL0     O90312   0.526   1.669   2.427  0.1127 -0.2546 -0.2401
  685MOL0     C90313   0.522   1.561   2.523 -0.7576 -0.6894  0.1703
  685MOL0     C90314   0.587   1.447   2.469  0.3305 -0.0358  0.0870
  685MOL0     C90315   0.566   1.325   2.540 -0.2910  0.5335 -0.0732
  685MOL0     C90316   0.498   1.313   2.669  0.1490 -0.2648 -0.3499
  685MOL0     C90317   0.492   1.192   2.746 -0.3642  0.6391  0.3532
  685MOL0     O90318   0.538   1.079   2.685  0.2352  0.5418 -0.2048
  685MOL0     C90319   0.563   0.980   2.769 -0.3963  0.1251  0.1282
  685MOL0     C90320   0.477   0.867   2.767 -0.8199 -0.7962  0.1257
  685MOL0     C90321   0.504   0.753   2.848 -1.4892  1.2285 -0.1615
  685MOL0     C90322   0.609   0.761   2.940  0.3710 -0.8935 -0.3314
  685MOL0     O90323   0.630   0.643   3.002  0.0282  0.3359  0.9444
  685MOL0     C90324   0.746   0.629   3.102 -0.5387 -0.5218  0.6370
  685MOL0     C90325   0.767   0.483   3.156 -0.6658 -0.0015  0.6160
  685MOL0     C90326   0.866   0.482   3.275 -0.6548  0.8925 -0.1058
  685MOL0     C90327   0.803   0.530   3.410 -0.7031 -0.0581  1.2353
  685MOL0     C90328   0.885   0.485   3.534  0.3603 -0.1162  0.4694
  685MOL0     C90329   0.855   0.554   3.664  0.4863  0.3900 -0.5404
  685MOL0     C90330   0.949   0.673   3.676  1.2123 -0.4696 -0.3744
  685MOL0     C90331   0.890   0.779   3.773 -0.0658  0.6197  0.4348
  685MOL0    Cl90332   1.002   0.879   3.851  0.0016 -0.2331 -0.0912
  685MOL0     C90333   0.681   0.881   2.951  0.0387  0.7018 -0.7806
  685MOL0     C90334   0.664   0.985   2.864  0.4839 -0.7039 -0.0065
  685MOL0     O90335   0.455   1.196   2.862 -0.1890  0.5558  0.2469
  685MOL0     C90336   0.436   1.435   2.713 -0.3771 -1.6071  0.0589
  685MOL0     C90337   0.448   1.556   2.645  0.1255 -0.5659  0.6568
  685MOL0     N90338   0.678   2.177   2.641  0.0612  0.2637 -0.6461
  685MOL0     N90339   0.631   2.296   2.638 -0.0995 -0.1037  0.1397
  685MOL0     C90340   0.402   3.184   2.266  1.1041  0.4438  0.3472
  685MOL0     C90341   0.343   3.203   2.139 -0.1398 -0.9351 -0.4657
  685MOL0     C90342   0.325   3.151   1.688 -0.5068  0.2124 -1.7825
  685MOL0     C90343   0.403   3.200   1.587 -0.5079 -0.5468  0.3790
  685MOL0     C90344   0.349   3.241   1.461  0.8241  0.0985 -0.0799
  685MOL0     C90345   0.211   3.237   1.442 -0.9567 -0.2605 -0.5799
  685MOL0     O90346   0.151   3.282   1.324 -0.6120  0.5826 -0.3840
  685MOL0     C90347   0.201   3.260   1.193 -0.8880 -1.7176 -0.0651
  685MOL0     C90348   0.124   3.343   1.083  0.1724  0.3712  0.0503
  685MOL0     C90349   0.195   3.323   0.940 -0.6051 -0.0308  0.8706
  685MOL0     C90350   0.097   3.337   0.815 -0.7009 -0.4280 -0.2592
  685MOL0     C90351   0.035   3.467   0.807 -0.0474 -0.0833 -0.2559
  685MOL0     C90352  -0.012   3.570   0.830  0.5079 -1.0068 -0.1147
  685MOL0     C90353   0.124   3.187   1.540 -0.4652 -0.2035 -0.4633
  685MOL0     C90354   0.187   3.145   1.662 -0.0954  0.5142 -0.5215
  685MOL0     H90355   0.363   2.870   2.047  1.9469 -0.3423 -0.7662
  685MOL0     H90356   0.448   2.843   2.273  1.7966  0.3346 -1.7213
  685MOL0     H90357   0.605   3.228   2.433  0.1822  0.2505 -1.6321
  685MOL0     H90358   0.715   3.104   2.391 -0.7799  2.2231 -2.8190
  685MOL0     H90359   0.569   3.114   2.657 -0.7063  3.6154 -1.3474
  685MOL0     H90360   0.727   3.179   2.618  0.5399  0.5250  0.4305
  685MOL0     H90361   0.636   2.891   2.672  1.9355 -0.6220  2.8702
  685MOL0     H90362   0.762   2.969   2.751 -2.1258  0.8412  1.4112
  685MOL0     H90363   0.771   2.883   2.449  1.2371  1.8070 -0.2597
  685MOL0     H90364   0.894   2.958   2.536 -0.0889 -0.4953  0.1565
  685MOL0     H90365   0.886   2.746   2.695 -0.0193 -2.8560  0.2299
  685MOL0     H90366   0.943   2.702   2.534 -1.1074 -0.8657 -0.5508
  685MOL0     H90367   0.670   2.671   2.659  2.5457  0.6470  1.6116
  685MOL0     H90368   0.795   2.549   2.630  1.7394 -0.1074 -0.7992
  685MOL0     H90369   0.626   2.678   2.408  1.1525  1.2731  1.0154
  685MOL0     H90370   0.767   2.575   2.384  0.2872 -1.0862  1.6950
  685MOL0     H90371   0.540   2.459   2.370 -3.3919  1.6146  1.0732
  685MOL0     H90372   0.518   2.500   2.541  1.3954  0.1509  2.3073
  685MOL0     H90373   0.722   2.247   2.324 -1.0042 -0.5525  0.2277
  685MOL0     H90374   0.854   1.980   2.584 -0.1874  1.1029  0.5259
  685MOL0     H90375   0.880   2.020   2.431  2.3966  0.3856  2.4250
  685MOL0     H90376   0.766   1.823   2.434 -1.5433 -0.0108  2.9489
  685MOL0     H90377   0.660   1.927   2.340  0.6699  1.1898 -0.0555
  685MOL0     H90378   0.639   1.815   2.610  3.0155  1.1245 -1.8918
  685MOL0     H90379   0.533   1.963   2.576 -1.1707  0.0037 -1.7736
  685MOL0     H90380   0.437   1.839   2.382  0.1083 -2.0431 -2.3023
  685MOL0     H90381   0.373   1.780   2.530 -2.0826  3.2043 -3.5670
  685MOL0     H90382   0.642   1.460   2.377  0.2654  0.8045  0.1545
  685MOL0     H90383   0.612   1.239   2.495  2.5986  2.4191 -0.9877
  685MOL0     H90384   0.402   0.873   2.688  2.9748 -1.9696 -3.9477
  685MOL0     H90385   0.458   0.655   2.844 -0.1158  0.6005 -1.9833
  685MOL0     H90386   0.714   0.684   3.191  3.0623 -0.3038  1.9322
  685MOL0     H90387   0.833   0.680   3.059 -2.2670  1.5610 -0.6314
  685MOL0     H90388   0.799   0.408   3.083  2.3350  1.9783 -0.2715
  685MOL0     H90389   0.672   0.440   3.191 -0.3936 -1.3957 -0.2974
  685MOL0     H90390   0.963   0.531   3.262  0.6354 -1.2680  0.8431
  685MOL0     H90391   0.891   0.379   3.304  1.7521  0.5548 -2.9079
  685MOL0     H90392   0.801   0.639   3.403  4.0730  0.1161 -1.1366
  685MOL0     H90393   0.704   0.481   3.406  0.9272 -3.6112 -0.0052
  685MOL0     H90394   0.989   0.487   3.501  0.5269 -1.8013  0.8126
  685MOL0     H90395   0.846   0.383   3.539 -2.0881  0.7152 -0.0147
  685MOL0     H90396   0.860   0.491   3.753 -3.5067  1.9850  1.0476
  685MOL0     H90397   0.750   0.579   3.644  0.1786 -0.0151  0.5070
  685MOL0     H90398   1.041   0.638   3.724  0.2918 -0.3929  1.5647
  685MOL0     H90399   0.977   0.720   3.581 -3.6587  2.0438 -0.8811
  685MOL0     H90400   0.847   0.720   3.854  1.1251 -2.4493 -0.9805
  685MOL0     H90401   0.811   0.841   3.730 -0.5646 -1.9712 -2.8645
  685MOL0     H90402   0.749   0.891   3.035 -1.5567  2.5890  0.3738
  685MOL0     H90403   0.720   1.078   2.864  0.6459 -0.7386 -2.3202
  685MOL0     H90404   0.373   1.431   2.801  1.2119  1.1946  1.4651
  685MOL0     H90405   0.407   1.649   2.682  0.3581  0.3098 -1.2239
  685MOL0     H90406   0.421   3.272   2.327  3.8711  0.2476 -0.1054
  685MOL0     H90407   0.322   3.295   2.086 -1.1978  0.1909  1.7912
  685MOL0     H90408   0.511   3.204   1.600 -0.5100 -3.0624  1.8968
  685MOL0     H90409   0.421   3.262   1.383  2.4206 -2.4486  0.5729
  685MOL0     H90410   0.192   3.153   1.177 -0.4460 -2.2537  2.7607
  685MOL0     H90411   0.309   3.275   1.185 -1.3297  1.8619 -1.1633
  685MOL0     H90412   0.027   3.295   1.068  0.0188  0.7357 -0.1358
  685MOL0     H90413   0.092   3.445   1.102 -4.0870 -0.5408 -1.0731
  685MOL0     H90414   0.225   3.218   0.944 -1.8064 -0.3570  4.2408
  685MOL0     H90415   0.278   3.394   0.947 -3.3772  3.3389  2.2146
  685MOL0     H90416   0.155   3.327   0.723 -1.8933 -2.2064 -0.8741
  685MOL0     H90417   0.015   3.265   0.823 -3.0662  2.2635  1.9535
  685MOL0     H90418  -0.058   3.666   0.838 -0.7267 -1.6983  2.2175
  685MOL0     H90419   0.023   3.174   1.503  0.8036 -0.5655 -4.2260
  685MOL0     H90420   0.116   3.118   1.740  0.3956 -1.0626 -0.5938
  686MOL0     O90421   4.070   2.720   0.454 -0.1291  0.5912  0.2640
  686MOL0     C90422   3.959   2.745   0.503 -0.7591 -0.7027 -0.7438
  686MOL0     O90423   3.940   2.785   0.625  1.0150  0.2094 -0.4782
  686MOL0     C90424   4.049   2.838   0.695  1.2275  0.4078 -0.8007
  686MOL0     C90425   4.055   2.973   0.734 -0.8308  0.4053  0.5320
  686MOL0     C90426   4.159   3.024   0.827  1.0518  0.6429 -1.0147
  686MOL0     C90427   4.257   2.941   0.878  0.0619 -0.3714  0.1210
  686MOL0     O90428   4.355   3.007   0.954 -0.1225  1.1011  0.5013
  686MOL0     C90429   4.461   2.925   1.000  0.4998 -0.9332  0.0244
  686MOL0     C90430   4.555   3.041   1.032  0.0858  0.4112  0.4365
  686MOL0     C90431   4.695   2.985   1.046  0.4190  0.2169 -0.0697
  686MOL0     C90432   4.782   3.086   1.123  0.1424 -0.3280 -0.3734
  686MOL0     C90433   4.926   3.030   1.156  0.6132 -0.1527 -0.1507
  686MOL0     C90434   5.018   3.119   1.223 -0.2404 -0.5495 -0.1281
  686MOL0     C90435   5.005   3.124   1.373 -0.2286  0.0559 -0.7625
  686MOL0     C90436   5.107   3.219   1.433 -1.0994  0.3634 -0.1989
  686MOL0     N90437   5.127   3.225   1.579  0.3744  0.7662 -0.1150
  686MOL0     C90438   5.013   3.244   1.654 -0.4382 -0.3310  0.3246
  686MOL0     C90439   5.060   3.248   1.778  0.3394 -0.1581  0.2884
  686MOL0     C90440   4.976   3.270   1.898 -0.7428  0.8886 -0.3981
  686MOL0     C90441   4.970   3.413   1.931 -0.0510 -0.5787  0.1158
  686MOL0     C90442   4.871   3.458   2.042 -0.5951  0.9267  1.1683
  686MOL0     C90443   4.747   3.362   2.069 -0.3191  0.0316 -0.0523
  686MOL0     O90444   4.645   3.437   2.136  0.2442  0.1947  0.4172
  686MOL0     C90445   4.673   3.502   2.250  1.1726 -0.8075 -0.0979
  686MOL0     C90446   4.737   3.444   2.361  1.1406 -0.2284 -0.2064
  686MOL0     C90447   4.742   3.521   2.488  0.4147 -0.1223  1.0917
  686MOL0     C90448   4.700   3.653   2.479  0.4748 -0.3096 -0.9770
  686MOL0     C90449   4.730   3.750   2.588  0.1350  0.1958  0.0522
  686MOL0     O90450   4.782   3.694   2.701 -0.0552  0.4116 -0.7908
  686MOL0     C90451   4.756   3.749   2.824  0.6968  0.2045 -0.6012
  686MOL0     C90452   4.827   3.695   2.928 -0.7157  0.6152 -0.2711
  686MOL0     C90453   4.799   3.721   3.062  0.6661  0.0657 -0.3359
  686MOL0     C90454   4.703   3.820   3.086 -1.0806  0.0101 -0.4279
  686MOL0     O90455   4.671   3.848   3.218 -0.3131  0.0496  0.6934
  686MOL0     C90456   4.767   3.933   3.281 -1.1537 -0.0290  0.6860
  686MOL0     C90457   4.699   4.030   3.376 -0.0114 -0.0679  0.1865
  686MOL0     C90458   4.581   4.104   3.316 -0.9646  0.5513 -0.7660
  686MOL0     C90459   4.513   4.200   3.423 -0.0014 -0.0819 -0.1694
  686MOL0     C90460   4.440   4.320   3.375  0.0230  0.0144  0.3244
  686MOL0     C90461   4.336   4.276   3.273 -0.2018  0.5454  0.0877
  686MOL0     C90462   4.245   4.398   3.246  0.2482  0.5586  0.1889
  686MOL0     C90463   4.138   4.370   3.152  0.9352 -0.1708  0.0624
  686MOL0    Cl90464   4.041   4.228   3.187 -0.0158  0.1223 -0.2564
  686MOL0     C90465   4.630   3.879   2.981  0.1619 -0.7352 -0.6024
  686MOL0     C90466   4.651   3.840   2.852  0.6278 -0.0870  0.8944
  686MOL0     O90467   4.702   3.872   2.570 -0.1527  0.6613 -0.5327
  686MOL0     C90468   4.622   3.707   2.373  0.0469  0.3948 -0.1145
  686MOL0     C90469   4.613   3.623   2.256  0.2449  0.0170 -0.4664
  686MOL0     N90470   5.199   3.239   1.773 -0.6734 -0.5347 -0.6199
  686MOL0     N90471   5.244   3.234   1.655  1.2124 -0.7279  0.2836
  686MOL0     C90472   4.246   2.805   0.840  0.4596 -0.5201  0.0601
  686MOL0     C90473   4.142   2.751   0.755  0.3004 -0.7065  0.2737
  686MOL0     C90474   3.832   2.728   0.433  0.0073 -0.0379  0.3841
  686MOL0     C90475   3.706   2.729   0.500 -0.1486 -0.4651  0.7302
  686MOL0     C90476   3.580   2.725   0.428  0.4889  0.8822 -0.1967
  686MOL0     C90477   3.588   2.746   0.284 -0.4467 -0.6177  0.2501
  686MOL0     O90478   3.467   2.752   0.222  0.3027 -0.5548 -1.2809
  686MOL0     C90479   3.469   2.773   0.074 -0.1326  0.3382  0.0094
  686MOL0     C90480   3.324   2.784   0.014 -0.0016 -0.2092  0.3020
  686MOL0     C90481   3.326   2.801  -0.139 -0.5258  0.5999  1.0361
  686MOL0     C90482   3.400   2.932  -0.183  0.1998 -0.8204 -0.2436
  686MOL0     C90483   3.400   2.948  -0.327  1.0822 -0.1950  0.8781
  686MOL0     C90484   3.398   2.954  -0.453  0.0320 -0.0746 -1.1241
  686MOL0     C90485   3.716   2.760   0.222  0.6461  0.3601  0.0462
  686MOL0     C90486   3.836   2.744   0.298 -1.2043  0.1315 -0.6149
  686MOL0     H90487   3.975   3.042   0.710 -1.5838 -0.5169  0.3366
  686MOL0     H90488   4.161   3.131   0.847  0.0199  1.0763 -2.9351
  686MOL0     H90489   4.495   2.859   0.920  0.4016  1.0584 -1.7568
  686MOL0     H90490   4.428   2.861   1.082 -1.9794 -1.3796 -1.2134
  686MOL0     H90491   4.514   3.087   1.123 -1.4407  1.1853 -0.6005
  686MOL0     H90492   4.573   3.119   0.958  5.7648 -1.1422 -0.3133
  686MOL0     H90493   4.733   2.966   0.945 -0.5219  2.5427 -0.9330
  686MOL0     H90494   4.701   2.890   1.100  0.8217  0.8315  0.9930
  686MOL0     H90495   4.789   3.177   1.064  0.5138  1.8036  2.7228
  686MOL0     H90496   4.733   3.111   1.217  0.8391 -3.8838  1.0893
  686MOL0     H90497   4.970   3.007   1.058 -0.9591 -2.5087 -0.3931
  686MOL0     H90498   4.910   2.932   1.202 -2.0127  0.1749 -0.2419
  686MOL0     H90499   4.994   3.221   1.193 -2.0932  0.1105  3.0938
  686MOL0     H90500   5.120   3.088   1.200  0.6243 -0.0065  2.5677
  686MOL0     H90501   4.906   3.154   1.409  0.2254 -0.3554  0.9292
  686MOL0     H90502   5.024   3.028   1.421 -2.2031 -0.0668 -0.1190
  686MOL0     H90503   5.092   3.324   1.409  2.1746  0.8666 -0.5228
  686MOL0     H90504   5.203   3.201   1.383 -1.2181  2.2049 -1.1849
  686MOL0     H90505   4.913   3.267   1.619 -1.2664  1.2883  3.3844
  686MOL0     H90506   5.023   3.212   1.978 -0.0946  0.9592 -0.7235
  686MOL0     H90507   4.880   3.228   1.867  0.2977 -1.5794 -0.5523
  686MOL0     H90508   4.936   3.461   1.838 -3.3395  1.6351  2.2451
  686MOL0     H90509   5.065   3.461   1.956 -1.0994  1.6239  0.1385
  686MOL0     H90510   4.927   3.460   2.136  1.3190  1.1540  0.0693
  686MOL0     H90511   4.835   3.556   2.010 -1.5103  0.5187  0.9054
  686MOL0     H90512   4.781   3.274   2.124 -0.2100  0.4546  0.5602
  686MOL0     H90513   4.696   3.334   1.976 -2.4717 -1.8834  1.5979
  686MOL0     H90514   4.767   3.340   2.350  1.4790 -0.1936  0.3447
  686MOL0     H90515   4.783   3.475   2.577  1.5418  1.0606  1.1984
  686MOL0     H90516   4.906   3.624   2.908 -1.4253 -0.2008 -0.2566
  686MOL0     H90517   4.873   3.690   3.135  3.1030  3.0051 -1.3187
  686MOL0     H90518   4.835   3.992   3.219 -2.3819  0.1952 -0.4946
  686MOL0     H90519   4.829   3.868   3.343  2.0567  0.8707 -1.3363
  686MOL0     H90520   4.768   4.102   3.420  0.0640 -1.0720  1.7596
  686MOL0     H90521   4.662   3.974   3.462  0.1116 -0.6696 -0.1487
  686MOL0     H90522   4.505   4.029   3.290 -1.5674  0.0510  2.0696
  686MOL0     H90523   4.613   4.157   3.226  6.4490  1.2437  1.6041
  686MOL0     H90524   4.445   4.136   3.481  1.1609 -2.4564 -1.2855
  686MOL0     H90525   4.593   4.245   3.482  0.3548  2.9294 -2.7026
  686MOL0     H90526   4.517   4.384   3.329 -1.2804  1.0718 -0.4473
  686MOL0     H90527   4.407   4.357   3.472 -1.0515 -1.9030  0.7382
  686MOL0     H90528   4.285   4.183   3.301  2.1256 -1.7392 -2.6103
  686MOL0     H90529   4.375   4.244   3.176  0.0633  1.6542 -0.1848
  686MOL0     H90530   4.220   4.425   3.349  2.7805 -2.9201  1.9189
  686MOL0     H90531   4.311   4.474   3.203  0.7192 -0.9870 -1.9452
  686MOL0     H90532   4.182   4.370   3.052  0.3649 -4.5776 -0.3998
  686MOL0     H90533   4.076   4.460   3.149  2.5456  1.0187  0.9858
  686MOL0     H90534   4.540   3.939   2.988 -0.0939 -1.3222  2.2097
  686MOL0     H90535   4.582   3.886   2.783  1.6401 -0.9391 -0.7293
  686MOL0     H90536   4.585   3.809   2.380 -0.9992  0.0639 -0.7129
  686MOL0     H90537   4.564   3.649   2.162 -1.5576 -0.0895  0.3999
  686MOL0     H90538   4.313   2.730   0.881  0.1219 -0.2493  1.1307
  686MOL0     H90539   4.145   2.646   0.729 -0.5414 -0.6891  0.0828
  686MOL0     H90540   3.711   2.732   0.608  3.0400 -0.1574  0.6843
  686MOL0     H90541   3.492   2.695   0.485  0.5115 -1.2572 -1.2008
  686MOL0     H90542   3.512   2.686   0.024 -0.1329  0.7119 -0.6495
  686MOL0     H90543   3.531   2.860   0.054 -0.5249  0.6540  0.1377
  686MOL0     H90544   3.263   2.701   0.052 -1.1844  0.1088 -0.8209
  686MOL0     H90545   3.273   2.873   0.053  0.6778  1.9090 -3.2285
  686MOL0     H90546   3.233   2.787  -0.194  1.6073 -1.4980 -2.4320
  686MOL0     H90547   3.391   2.725  -0.183  1.4104  2.3153  0.7565
  686MOL0     H90548   3.362   3.023  -0.136  0.4549 -1.8343  2.0344
  686MOL0     H90549   3.507   2.926  -0.164  0.0833 -0.5846  0.5049
  686MOL0     H90550   3.417   2.978  -0.556 -1.1318  0.4543 -1.2265
  686MOL0     H90551   3.708   2.779   0.116 -2.3083  2.3790  0.5125
  686MOL0     H90552   3.926   2.746   0.238  0.1457  2.4774  1.3390
  687MOL0     O90553   9.909   6.300   7.034  0.7866 -0.4962 -0.2047
  687MOL0     C90554   9.794   6.345   7.023 -0.2042  0.8102  0.0237
  687MOL0     O90555   9.732   6.368   6.895 -0.1377 -0.1833 -0.5412
  687MOL0     C90556   9.816   6.374   6.785  0.1928 -0.0262 -0.2670
  687MOL0     C90557   9.891   6.482   6.762 -0.6028  0.3952  1.1261
  687MOL0     C90558   9.989   6.485   6.670  0.7813  1.1511  0.0733
  687MOL0     C90559  10.013   6.363   6.586 -0.2827 -0.1005 -0.6018
  687MOL0     O90560  10.104   6.339   6.488 -1.0917  0.2107  0.3945
  687MOL0     C90561  10.202   6.431   6.469  0.0421 -0.0602  0.3790
  687MOL0     C90562  10.317   6.402   6.373 -0.1392 -1.0586  0.0812
  687MOL0     C90563  10.441   6.503   6.383  0.4384  0.5460 -0.3028
  687MOL0     C90564  10.559   6.465   6.288  1.4756 -1.0626  0.1469
  687MOL0     C90565  10.627   6.329   6.320  0.1480 -0.3043  0.1059
  687MOL0     C90566  10.751   6.309   6.228  0.4107 -0.2774 -0.0273
  687MOL0     C90567  10.851   6.198   6.268  0.0183  0.8263  0.3488
  687MOL0     C90568  10.805   6.061   6.212  0.0252  0.3946 -0.1812
  687MOL0     N90569  10.897   5.947   6.241  0.3009  0.3046  0.2529
  687MOL0     C90570  10.955   5.921   6.361  0.9498  0.0402 -0.6960
  687MOL0     C90571  11.028   5.812   6.352  0.4406  0.4081  0.1106
  687MOL0     C90572  11.112   5.730   6.447  0.1088  0.2253  0.1474
  687MOL0     C90573  11.059   5.587   6.476 -0.1187  0.4944 -0.3463
  687MOL0     C90574  10.907   5.581   6.468  0.0842 -0.6584 -0.1480
  687MOL0     C90575  10.841   5.449   6.519  0.0327 -1.1619 -0.5373
  687MOL0     O90576  10.893   5.432   6.652 -0.9673  0.1191 -0.9249
  687MOL0     C90577  10.905   5.299   6.685  0.2172  0.4390  0.3608
  687MOL0     C90578  10.807   5.200   6.644 -0.0763 -0.3831  0.7873
  687MOL0     C90579  10.824   5.065   6.681 -1.3996 -0.1034 -0.5147
  687MOL0     C90580  10.936   5.019   6.749 -0.2147 -0.4175 -0.3388
  687MOL0     C90581  10.968   4.872   6.779  0.0169 -0.6085  0.9657
  687MOL0     O90582  11.063   4.841   6.868  0.0366 -0.4669  0.4604
  687MOL0     C90583  11.096   4.717   6.888  0.6637 -0.6984  0.7398
  687MOL0     C90584  11.169   4.643   6.795  0.3886 -0.2730  0.5677
  687MOL0     C90585  11.205   4.508   6.808 -0.2201  1.2076 -0.3583
  687MOL0     C90586  11.163   4.438   6.918  0.7930  0.2298 -0.4984
  687MOL0     O90587  11.216   4.313   6.926  0.5635  0.2635  0.1077
  687MOL0     C90588  11.135   4.219   6.984 -0.0372  0.5461 -0.1657
  687MOL0     C90589  11.190   4.080   6.957 -0.7572 -0.1810 -0.8236
  687MOL0     C90590  11.180   4.035   6.815 -0.6475 -0.5932 -0.5623
  687MOL0     C90591  11.201   3.882   6.815 -0.3173 -0.1400  0.0403
  687MOL0     C90592  11.207   3.845   6.665 -0.3903 -0.1844  0.1796
  687MOL0     C90593  11.225   3.695   6.634  0.9233 -0.1663 -0.7415
  687MOL0     C90594  11.368   3.633   6.677 -0.0803  0.1550  0.7101
  687MOL0     C90595  11.399   3.497   6.623 -0.3401 -0.0238  0.2466
  687MOL0    Cl90596  11.549   3.433   6.666  0.0307 -0.7070  0.2095
  687MOL0     C90597  11.101   4.519   7.019  0.1981 -0.0049 -0.1593
  687MOL0     C90598  11.072   4.660   7.009 -0.0768  0.9720  0.0541
  687MOL0     O90599  10.933   4.797   6.691  0.1554 -0.5496 -0.0386
  687MOL0     C90600  11.023   5.120   6.798 -0.0936  0.1989  0.8573
  687MOL0     C90601  11.003   5.259   6.769  0.4022  0.2400 -0.9641
  687MOL0     N90602  11.004   5.769   6.222  0.2098  0.0744 -0.1175
  687MOL0     N90603  10.928   5.854   6.150  0.1389 -0.9839 -1.4794
  687MOL0     C90604   9.921   6.256   6.608  1.1972 -0.5183  0.2099
  687MOL0     C90605   9.827   6.255   6.709  1.0770 -0.2665  0.0333
  687MOL0     C90606   9.720   6.352   7.145 -0.6016 -1.0908 -0.5948
  687MOL0     C90607   9.789   6.397   7.260  0.1697  0.0905 -1.4857
  687MOL0     C90608   9.709   6.450   7.362  0.3656 -0.7462  0.5874
  687MOL0     C90609   9.570   6.426   7.369 -0.2117  1.2566 -0.4989
  687MOL0     O90610   9.494   6.433   7.484 -0.1580 -1.4825  0.1675
  687MOL0     C90611   9.552   6.478   7.614 -0.9681  0.0780  0.1006
  687MOL0     C90612   9.459   6.451   7.728  0.1064 -0.6956 -0.7975
  687MOL0     C90613   9.486   6.316   7.782 -0.3910 -0.4573 -0.7227
  687MOL0     C90614   9.418   6.298   7.913 -0.0739 -0.8330  1.1817
  687MOL0     C90615   9.414   6.152   7.951 -0.0805 -0.1300  0.3736
  687MOL0     C90616   9.420   6.036   7.962 -0.4621 -1.0616 -0.3739
  687MOL0     C90617   9.505   6.378   7.257 -0.2710  0.2995  0.2882
  687MOL0     C90618   9.576   6.344   7.141 -0.3504 -0.2830 -0.9961
  687MOL0     H90619   9.876   6.571   6.822  0.2934  2.7229 -1.8283
  687MOL0     H90620  10.050   6.575   6.661 -0.1986  1.6924 -1.6281
  687MOL0     H90621  10.243   6.444   6.570 -0.8159  0.9450  0.6130
  687MOL0     H90622  10.160   6.527   6.436 -1.0668 -0.6138  0.1554
  687MOL0     H90623  10.277   6.412   6.272  0.9610 -2.1062 -0.4943
  687MOL0     H90624  10.347   6.296   6.374 -0.6274 -1.1971  0.4546
  687MOL0     H90625  10.484   6.494   6.483  0.2098 -3.2440 -0.3994
  687MOL0     H90626  10.399   6.599   6.351  0.8525  0.3953 -1.3455
  687MOL0     H90627  10.516   6.463   6.187  0.7031 -0.2081  0.4499
  687MOL0     H90628  10.640   6.539   6.294  0.9866 -0.6399  3.0108
  687MOL0     H90629  10.558   6.246   6.303  0.2642 -0.6414  1.2358
  687MOL0     H90630  10.667   6.341   6.421  0.0592  2.0661 -0.0897
  687MOL0     H90631  10.803   6.405   6.233  1.7547 -0.9990  0.5195
  687MOL0     H90632  10.724   6.297   6.123  1.0650 -2.8996  0.0285
  687MOL0     H90633  10.946   6.217   6.217 -0.3308 -2.5251 -1.9320
  687MOL0     H90634  10.861   6.190   6.376 -2.3676 -1.3041  0.5019
  687MOL0     H90635  10.813   6.078   6.105 -3.0943  0.3274 -0.4956
  687MOL0     H90636  10.698   6.046   6.224 -0.5205  4.1550  0.9805
  687MOL0     H90637  10.932   5.982   6.447 -0.3163 -0.5867 -0.5621
  687MOL0     H90638  11.130   5.780   6.543  3.4473  0.9954 -0.7823
  687MOL0     H90639  11.215   5.721   6.412  1.2785  0.8132  3.1224
  687MOL0     H90640  11.086   5.563   6.579 -1.3925  1.3161  0.1923
  687MOL0     H90641  11.103   5.505   6.417 -0.5057  1.5389 -2.1463
  687MOL0     H90642  10.850   5.662   6.515 -1.6757 -0.2634 -2.6984
  687MOL0     H90643  10.876   5.596   6.364 -0.2398 -1.0012 -0.1058
  687MOL0     H90644  10.874   5.368   6.453 -1.4801 -2.5717  0.3763
  687MOL0     H90645  10.733   5.459   6.507 -0.4383 -2.6650  1.9399
  687MOL0     H90646  10.716   5.220   6.588 -0.3410 -3.2755  0.0031
  687MOL0     H90647  10.750   4.989   6.660 -0.3116 -1.8083  1.4728
  687MOL0     H90648  11.202   4.703   6.711  0.0739  0.9679  1.3064
  687MOL0     H90649  11.258   4.460   6.726 -0.6335 -0.0031  0.0610
  687MOL0     H90650  11.034   4.229   6.943 -2.1187 -0.5601  4.0540
  687MOL0     H90651  11.123   4.238   7.091 -0.7732 -2.6086  0.4179
  687MOL0     H90652  11.148   4.003   7.022  3.0876 -2.1135 -0.3483
  687MOL0     H90653  11.294   4.079   6.991 -1.3415  1.5886  1.2647
  687MOL0     H90654  11.260   4.082   6.756  1.0477  2.7002  3.8399
  687MOL0     H90655  11.082   4.056   6.771 -0.9409 -1.2691 -0.2499
  687MOL0     H90656  11.289   3.844   6.868 -0.2331  0.3507  0.2496
  687MOL0     H90657  11.110   3.838   6.856 -0.5837  0.7633  0.4434
  687MOL0     H90658  11.289   3.898   6.615 -1.5029 -0.7307 -2.3957
  687MOL0     H90659  11.109   3.871   6.624 -1.1713 -0.8018  1.5750
  687MOL0     H90660  11.204   3.678   6.528  1.1356 -1.7581 -0.5554
  687MOL0     H90661  11.143   3.645   6.687  1.4435 -2.1931 -1.7625
  687MOL0     H90662  11.449   3.703   6.654 -0.0570  0.2863  1.1698
  687MOL0     H90663  11.366   3.622   6.786 -0.9551 -4.1800  0.4340
  687MOL0     H90664  11.390   3.502   6.514 -1.8261 -1.5372  0.2509
  687MOL0     H90665  11.326   3.420   6.648 -1.2229  0.1249 -1.7090
  687MOL0     H90666  11.066   4.458   7.102  2.0625 -0.0037  0.7018
  687MOL0     H90667  11.026   4.718   7.089  0.8304 -1.9694  2.8895
  687MOL0     H90668  11.108   5.088   6.857 -1.7185 -4.0993  1.1977
  687MOL0     H90669  11.066   5.336   6.812  0.0891  0.1303 -0.2871
  687MOL0     H90670   9.930   6.170   6.542  4.1343  0.1088 -0.3478
  687MOL0     H90671   9.763   6.173   6.740  2.2814  0.2636  4.6274
  687MOL0     H90672   9.896   6.408   7.271  0.0143  1.6378 -1.3863
  687MOL0     H90673   9.764   6.476   7.452 -2.4727  2.3965  1.5940
  687MOL0     H90674   9.574   6.585   7.609  6.7793 -0.7873  2.5298
  687MOL0     H90675   9.647   6.429   7.634 -0.6399  1.6990  2.9870
  687MOL0     H90676   9.499   6.521   7.802 -1.5980  0.3406 -0.8152
  687MOL0     H90677   9.357   6.479   7.700 -0.8736 -3.2397 -0.0546
  687MOL0     H90678   9.594   6.300   7.792  0.3563  4.3969  2.6550
  687MOL0     H90679   9.453   6.242   7.709  0.1786 -2.2429  0.7565
  687MOL0     H90680   9.472   6.351   7.992  1.3193  0.6338 -0.6742
  687MOL0     H90681   9.320   6.345   7.905 -0.2241 -1.4099 -0.7752
  687MOL0     H90682   9.424   5.930   7.974 -1.8386 -1.0932 -0.0404
  687MOL0     H90683   9.399   6.358   7.270 -0.1488 -0.4941  0.0952
  687MOL0     H90684   9.515   6.312   7.056 -3.2891 -2.0870  1.5701
  688MOL0     O90685   9.989   9.984   2.988 -0.7631 -0.8378  0.0179
  688MOL0     C90686   9.960  10.010   2.871  1.3373  0.6944 -0.0869
  688MOL0     O90687   9.912  10.131   2.823  0.1004 -0.2130 -0.7574
  688MOL0     C90688   9.894  10.229   2.919 -0.9054  0.2583  1.6492
  688MOL0     C90689   9.779  10.241   2.993 -1.7792  0.8480  0.8044
  688MOL0     C90690   9.773  10.340   3.091 -0.1527  0.0675 -0.4155
  688MOL0     C90691   9.862  10.441   3.107  0.5659 -0.3428 -0.0959
  688MOL0     O90692   9.839  10.545   3.189 -0.2050 -0.3853  0.2066
  688MOL0     C90693   9.867  10.687   3.147 -0.4937  0.2261 -0.2522
  688MOL0     C90694   9.952  10.755   3.248 -0.6945  0.5720  0.2224
  688MOL0     C90695   9.931  10.906   3.236 -0.1913 -0.1205  0.3450
  688MOL0     C90696  10.013  10.975   3.349 -0.3725  0.0670  0.0627
  688MOL0     C90697  10.004  11.131   3.345 -1.2791 -0.1147 -0.4824
  688MOL0     C90698  10.059  11.201   3.469 -0.9193 -1.0516  0.1608
  688MOL0     C90699  10.106  11.350   3.439  0.2586  0.8967  0.6306
  688MOL0     C90700  10.164  11.418   3.559 -0.7907  0.8293  0.2273
  688MOL0     N90701  10.176  11.555   3.529 -0.5656 -0.1272 -0.0039
  688MOL0     C90702  10.291  11.622   3.556  0.2196  0.1644  0.0667
  688MOL0     C90703  10.263  11.754   3.559 -0.7046  0.5182  0.9615
  688MOL0     C90704  10.345  11.860   3.609 -0.2893 -0.3871  0.0995
  688MOL0     C90705  10.400  11.823   3.751 -0.4091 -0.0528  0.2386
  688MOL0     C90706  10.451  11.942   3.825 -0.2599 -0.9327 -0.0470
  688MOL0     C90707  10.533  11.921   3.948 -0.1738  0.2147 -0.3007
  688MOL0     O90708  10.655  11.856   3.904 -0.1664  0.7194  0.4382
  688MOL0     C90709  10.760  11.837   3.994  0.2719 -0.1742  0.4704
  688MOL0     C90710  10.787  11.920   4.111  0.0240 -0.9961  0.5806
  688MOL0     C90711  10.902  11.890   4.179  0.2230  0.3349  0.8139
  688MOL0     C90712  10.961  11.766   4.168  0.5369 -0.6381  0.7562
  688MOL0     C90713  11.072  11.722   4.257 -0.8471  0.3945  0.2827
  688MOL0     O90714  11.115  11.589   4.255  0.3865  0.4194  1.1530
  688MOL0     C90715  11.238  11.563   4.300  0.3716 -0.4580 -0.4825
  688MOL0     C90716  11.353  11.624   4.245  0.9176 -0.2553  0.1392
  688MOL0     C90717  11.477  11.603   4.291  0.1356  0.6963 -0.6343
  688MOL0     C90718  11.509  11.496   4.378  0.0674  0.3636 -0.1955
  688MOL0     O90719  11.637  11.466   4.424 -0.3274  0.5207 -0.1305
  688MOL0     C90720  11.741  11.566   4.402  0.5912  0.0156 -0.0148
  688MOL0     C90721  11.865  11.492   4.416  0.6950 -0.6410 -0.0686
  688MOL0     C90722  11.986  11.574   4.374  0.1741  0.4628 -0.5910
  688MOL0     C90723  12.113  11.491   4.400  0.1216 -0.4395 -0.9631
  688MOL0     C90724  12.239  11.580   4.374 -0.8436  0.3702  0.3250
  688MOL0     C90725  12.367  11.502   4.397  0.5505  1.4355  0.4948
  688MOL0     C90726  12.499  11.575   4.382 -0.1791 -0.6568 -0.8557
  688MOL0     C90727  12.519  11.633   4.243 -0.0793  0.3971 -0.1288
  688MOL0    Cl90728  12.563  11.496   4.132  0.0215  0.0347 -0.1684
  688MOL0     C90729  11.397  11.427   4.431 -0.2380  0.5375 -0.3533
  688MOL0     C90730  11.263  11.458   4.392 -0.7646 -0.8081 -0.7657
  688MOL0     O90731  11.121  11.804   4.334  0.3116 -0.3007 -0.6165
  688MOL0     C90732  10.916  11.682   4.062 -0.0709 -0.5236 -0.0599
  688MOL0     C90733  10.816  11.714   3.977  0.6117  1.2176  0.5741
  688MOL0     N90734  10.132  11.762   3.511 -0.3498 -0.0084 -0.5530
  688MOL0     N90735  10.079  11.643   3.488  0.9497 -0.0632  0.0539
  688MOL0     C90736   9.977  10.434   3.032  0.2147  0.3446 -0.2115
  688MOL0     C90737   9.995  10.326   2.936  0.6994 -0.7262 -0.1266
  688MOL0     C90738   9.963   9.906   2.765 -0.2926  0.6827 -0.3294
  688MOL0     C90739   9.901   9.911   2.645  0.6772 -0.3269  0.2434
  688MOL0     C90740   9.896   9.793   2.561  0.2436 -0.3669  0.0456
  688MOL0     C90741   9.957   9.673   2.601 -0.0678  0.9921  0.1001
  688MOL0     O90742   9.935   9.554   2.537 -0.6917 -0.4794  0.6512
  688MOL0     C90743   9.847   9.550   2.427  0.5175 -0.0850  0.3205
  688MOL0     C90744   9.806   9.403   2.404 -0.0352  0.5305  0.0200
  688MOL0     C90745   9.716   9.385   2.283  0.3654 -0.2008  1.1731
  688MOL0     C90746   9.574   9.429   2.315 -0.2684 -0.0773  0.2883
  688MOL0     C90747   9.512   9.439   2.180  0.0431  0.0959  0.0442
  688MOL0     C90748   9.456   9.458   2.073  0.3113  0.0738  0.6469
  688MOL0     C90749  10.040   9.679   2.714 -0.3567  0.6850 -0.0342
  688MOL0     C90750  10.043   9.790   2.794  0.1792  0.3090  0.2366
  688MOL0     H90751   9.707  10.160   2.989 -0.7330 -0.0672 -0.4594
  688MOL0     H90752   9.676  10.337   3.139  0.6291 -0.4495  1.2246
  688MOL0     H90753   9.767  10.727   3.126 -0.6396  0.0681  0.1369
  688MOL0     H90754   9.930  10.691   3.058 -0.1781  1.7965  0.0177
  688MOL0     H90755  10.052  10.719   3.223 -0.5829 -1.6918  3.3058
  688MOL0     H90756   9.935  10.717   3.349  0.0120 -2.3992 -0.6816
  688MOL0     H90757   9.825  10.926   3.254 -1.4024 -0.6420 -4.7374
  688MOL0     H90758   9.955  10.950   3.138  1.2295 -0.8428  0.3504
  688MOL0     H90759   9.982  10.944   3.449  3.3385 -2.5177  0.5968
  688MOL0     H90760  10.118  10.946   3.337 -1.2541 -2.7354 -1.9677
  688MOL0     H90761   9.899  11.159   3.352 -1.1103  0.0520  2.5509
  688MOL0     H90762  10.056  11.149   3.250 -0.1778 -0.0045  0.1293
  688MOL0     H90763  10.143  11.140   3.505 -0.3611  0.6996  2.0040
  688MOL0     H90764   9.989  11.219   3.551 -0.3829  3.7964 -0.1527
  688MOL0     H90765  10.186  11.345   3.365  0.6037 -2.1809  1.0899
  688MOL0     H90766  10.017  11.404   3.404 -0.3696 -0.2046  0.4832
  688MOL0     H90767  10.259  11.367   3.578 -1.6355 -0.2322  1.7226
  688MOL0     H90768  10.107  11.409   3.651  0.3918 -0.6573  0.8688
  688MOL0     H90769  10.385  11.582   3.593  0.9869  1.3041 -0.5968
  688MOL0     H90770  10.313  11.964   3.613  0.6620  0.0964 -2.9180
  688MOL0     H90771  10.429  11.854   3.539  1.7144  0.5262  2.2639
  688MOL0     H90772  10.485  11.756   3.737 -0.9143 -0.5922 -0.3050
  688MOL0     H90773  10.320  11.778   3.811 -0.1342  0.0926  0.7124
  688MOL0     H90774  10.512  11.993   3.751  1.2333 -1.7753  0.5477
  688MOL0     H90775  10.362  12.001   3.850 -0.5368 -0.4106 -2.1463
  688MOL0     H90776  10.482  11.866   4.027  0.1229  0.3517 -0.0159
  688MOL0     H90777  10.559  12.019   3.991 -0.5599 -0.4531  1.5394
  688MOL0     H90778  10.741  12.013   4.141 -1.2238 -1.9696  1.7981
  688MOL0     H90779  10.937  11.953   4.260  0.9681  0.1603  0.6345
  688MOL0     H90780  11.326  11.694   4.166 -0.2393 -0.6102  0.2009
  688MOL0     H90781  11.558  11.658   4.243  1.4919  1.3152  2.1458
  688MOL0     H90782  11.733  11.649   4.473  0.5294  0.3917 -0.4635
  688MOL0     H90783  11.736  11.603   4.300  2.9816 -1.0083 -0.5812
  688MOL0     H90784  11.849  11.399   4.361 -4.3190  0.9940 -1.9504
  688MOL0     H90785  11.878  11.467   4.522  1.8110 -1.4353 -0.3733
  688MOL0     H90786  11.988  11.665   4.435  3.8184  0.5267 -0.6041
  688MOL0     H90787  11.982  11.597   4.267  4.2402 -0.1435 -1.0224
  688MOL0     H90788  12.117  11.454   4.502  1.6659  2.7484  0.2450
  688MOL0     H90789  12.117  11.409   4.328  0.5422 -1.6021  0.3442
  688MOL0     H90790  12.228  11.667   4.440 -5.2449  0.3510 -0.0562
  688MOL0     H90791  12.234  11.617   4.271 -1.6767  2.0222  0.9137
  688MOL0     H90792  12.373  11.413   4.335  1.6635  2.5846 -1.1276
  688MOL0     H90793  12.378  11.478   4.504  4.6224  1.4803  0.2717
  688MOL0     H90794  12.507  11.656   4.455  3.0393  0.5210 -2.2989
  688MOL0     H90795  12.586  11.508   4.387 -0.4630 -0.9583  0.5518
  688MOL0     H90796  12.597  11.711   4.242 -1.0239  1.3630 -1.1245
  688MOL0     H90797  12.428  11.688   4.219 -0.2744 -0.6710 -1.9826
  688MOL0     H90798  11.413  11.346   4.502 -4.7059 -0.3630 -0.0672
  688MOL0     H90799  11.192  11.391   4.438  0.4797 -0.4342  1.8627
  688MOL0     H90800  10.983  11.599   4.046 -1.1609 -1.1382 -1.7545
  688MOL0     H90801  10.785  11.651   3.895  2.8802 -3.0248  2.6374
  688MOL0     H90802  10.052  10.510   3.016  1.2444 -0.1872  1.7948
  688MOL0     H90803  10.088  10.323   2.880 -0.3771  3.4694 -2.6010
  688MOL0     H90804   9.831   9.993   2.633  0.6205 -0.3034  0.7428
  688MOL0     H90805   9.841   9.801   2.468  0.5062  0.8355 -0.0175
  688MOL0     H90806   9.894   9.589   2.336  0.3825  1.0000  0.7053
  688MOL0     H90807   9.753   9.604   2.443  0.3720  0.2199 -1.4064
  688MOL0     H90808   9.892   9.337   2.393 -1.4749 -1.4783  0.3290
  688MOL0     H90809   9.765   9.372   2.501  2.3166 -0.0866  0.8942
  688MOL0     H90810   9.723   9.285   2.239  0.0180 -0.5378  1.8675
  688MOL0     H90811   9.765   9.442   2.204 -0.8117  0.3484  0.8058
  688MOL0     H90812   9.520   9.351   2.370 -1.0711  1.7132  2.1863
  688MOL0     H90813   9.555   9.526   2.362 -0.9833 -0.5617  1.0162
  688MOL0     H90814   9.387   9.462   1.991  1.1168 -0.8480 -0.0917
  688MOL0     H90815  10.095   9.592   2.750  2.2396  2.4152  0.4322
  688MOL0     H90816  10.094   9.802   2.890 -3.0472  4.0216  1.7806
  689MOL0     O90817   1.013   5.443   8.355 -1.2152 -0.7644 -0.7489
  689MOL0     C90818   0.976   5.535   8.286 -1.8023 -0.1082  0.2806
  689MOL0     O90819   1.038   5.577   8.173  0.3620 -0.7865 -0.4430
  689MOL0     C90820   1.132   5.476   8.135  0.5325  0.4671  0.4828
  689MOL0     C90821   1.087   5.350   8.090  0.5395 -0.5896 -0.1776
  689MOL0     C90822   1.184   5.251   8.059  0.3242 -0.2504 -0.1484
  689MOL0     C90823   1.317   5.281   8.058  0.0495 -0.5052 -0.4196
  689MOL0     O90824   1.419   5.189   8.024  0.3318  0.4197 -0.5429
  689MOL0     C90825   1.380   5.072   7.948 -0.0201 -1.4790 -0.5119
  689MOL0     C90826   1.509   4.995   7.924 -0.2014 -0.2942  0.1668
  689MOL0     C90827   1.645   5.063   7.942 -0.2483 -0.7534  0.9288
  689MOL0     C90828   1.674   5.144   7.815 -0.2333 -0.3232  0.0069
  689MOL0     C90829   1.750   5.275   7.831 -1.0048 -0.3821  0.0493
  689MOL0     C90830   1.812   5.342   7.699 -0.1317  0.6002 -0.9924
  689MOL0     C90831   1.747   5.306   7.567  0.8511 -0.2200  0.1877
  689MOL0     C90832   1.844   5.330   7.449  0.4042 -1.2650 -0.3119
  689MOL0     N90833   1.913   5.458   7.468 -0.1527 -0.5068  0.7999
  689MOL0     C90834   1.871   5.588   7.442 -0.7173  0.5486  0.5219
  689MOL0     C90835   1.985   5.661   7.475 -0.0317 -0.1430 -0.1750
  689MOL0     C90836   1.981   5.810   7.479  0.9112 -0.2711 -0.1574
  689MOL0     C90837   1.908   5.853   7.610 -0.4097 -0.0773 -0.5871
  689MOL0     C90838   1.844   5.988   7.611  0.8668 -0.1628  0.2032
  689MOL0     C90839   1.744   6.018   7.503 -0.9019 -0.1754  0.2827
  689MOL0     O90840   1.619   5.952   7.520 -0.4801  0.2605  0.4837
  689MOL0     C90841   1.531   6.028   7.583 -0.5415  1.1716 -0.6777
  689MOL0     C90842   1.498   6.166   7.562  0.2487  0.5429  0.4636
  689MOL0     C90843   1.388   6.222   7.635 -0.6845 -0.4297  1.2123
  689MOL0     C90844   1.333   6.160   7.748  0.0839  0.7300  0.9721
  689MOL0     C90845   1.244   6.233   7.839  0.4467 -0.2787  0.7976
  689MOL0     O90846   1.182   6.165   7.933 -0.5504 -0.1275 -0.0510
  689MOL0     C90847   1.113   6.220   8.035  0.2439  0.3494  0.0870
  689MOL0     C90848   1.070   6.353   8.053  0.4983 -0.1510 -0.7551
  689MOL0     C90849   0.981   6.376   8.156  0.2888  0.2253  0.1978
  689MOL0     C90850   0.921   6.275   8.238 -0.4719  0.5572  0.4820
  689MOL0     O90851   0.832   6.325   8.331  0.5348  0.2791  0.4457
  689MOL0     C90852   0.711   6.248   8.354  0.4805  0.4165 -0.4091
  689MOL0     C90853   0.630   6.227   8.233 -0.3128  0.1600  0.5856
  689MOL0     C90854   0.482   6.194   8.266 -0.2213  0.2970 -1.4266
  689MOL0     C90855   0.390   6.173   8.150  0.6748  0.7383  0.1365
  689MOL0     C90856   0.262   6.099   8.180  0.3063  0.0258 -0.1610
  689MOL0     C90857   0.196   6.149   8.311  1.2272  0.2631 -0.6592
  689MOL0     C90858   0.115   6.270   8.274  0.3856 -0.1185  0.0539
  689MOL0     C90859   0.037   6.324   8.395 -0.6352 -0.4528 -0.4452
  689MOL0    Cl90860  -0.082   6.426   8.331 -0.3095 -0.8566 -0.2711
  689MOL0     C90861   0.957   6.135   8.211  0.0854 -0.1619 -0.1689
  689MOL0     C90862   1.055   6.119   8.115  0.0400  0.2220  0.6119
  689MOL0     O90863   1.243   6.359   7.829 -0.1293 -0.3066 -0.1503
  689MOL0     C90864   1.354   6.027   7.762 -0.9310  0.5330  0.0032
  689MOL0     C90865   1.452   5.964   7.681  0.2329 -0.9942 -0.1036
  689MOL0     N90866   2.100   5.578   7.504 -0.6277  0.3002  0.2275
  689MOL0     N90867   2.049   5.466   7.494 -0.8625  0.8407  1.3920
  689MOL0     C90868   1.358   5.407   8.095  0.3428 -0.2582  0.0807
  689MOL0     C90869   1.268   5.502   8.145 -0.2835  0.4534 -0.5751
  689MOL0     C90870   0.859   5.612   8.329  0.2754  0.1860  0.2243
  689MOL0     C90871   0.772   5.563   8.425 -0.7830 -0.2580  0.2252
  689MOL0     C90872   0.669   5.642   8.483  0.2587 -0.1208  0.0881
  689MOL0     C90873   0.646   5.776   8.447 -0.1367  0.2452 -0.1953
  689MOL0     O90874   0.540   5.857   8.490 -0.6474  0.5462 -0.3611
  689MOL0     C90875   0.491   5.840   8.626  0.4535  0.6387  0.9931
  689MOL0     C90876   0.381   5.938   8.659  0.0599  0.7116  0.7570
  689MOL0     C90877   0.333   5.934   8.797  0.6712  0.3441 -0.2914
  689MOL0     C90878   0.193   5.999   8.810 -0.1059  0.4232  1.5876
  689MOL0     C90879   0.149   6.016   8.942  0.3481 -0.2001  0.5059
  689MOL0     C90880   0.109   6.049   9.051 -0.0690 -0.3366 -0.9635
  689MOL0     C90881   0.736   5.824   8.352 -0.1259 -0.3611 -0.0423
  689MOL0     C90882   0.836   5.747   8.295 -0.5410  0.0653  0.5823
  689MOL0     H90883   0.979   5.345   8.090  0.3658  0.6817  2.9708
  689MOL0     H90884   1.148   5.155   8.021 -1.3974  0.0955  0.5157
  689MOL0     H90885   1.341   5.123   7.859 -0.5746  1.4064  1.2866
  689MOL0     H90886   1.297   5.016   7.994 -3.2905  3.3687  0.2094
  689MOL0     H90887   1.489   4.942   7.831 -1.0019 -0.5266  0.4594
  689MOL0     H90888   1.500   4.918   8.002  0.9146 -1.0808 -0.4564
  689MOL0     H90889   1.735   5.002   7.949  3.6306  4.5145  3.7760
  689MOL0     H90890   1.648   5.133   8.027 -1.3271 -2.3554  2.3423
  689MOL0     H90891   1.737   5.077   7.754  0.5229  0.7054 -0.3728
  689MOL0     H90892   1.583   5.159   7.756  1.3363 -1.8288 -3.1015
  689MOL0     H90893   1.826   5.271   7.910  0.9614  4.5602 -1.2456
  689MOL0     H90894   1.676   5.348   7.864  0.1329  1.5862 -1.5077
  689MOL0     H90895   1.913   5.302   7.688  0.5353  1.7881  0.4256
  689MOL0     H90896   1.826   5.446   7.728  0.5193  0.0930  0.6252
  689MOL0     H90897   1.735   5.198   7.562  1.0792 -0.1985 -3.9438
  689MOL0     H90898   1.646   5.340   7.542  0.5940 -2.1108 -1.4889
  689MOL0     H90899   1.783   5.344   7.359  0.4085  0.7178 -0.0435
  689MOL0     H90900   1.924   5.256   7.444  0.8727 -0.8900  1.1861
  689MOL0     H90901   1.776   5.622   7.403  0.4447  2.1065 -1.0868
  689MOL0     H90902   1.931   5.844   7.388  1.1777  0.7344  0.0594
  689MOL0     H90903   2.084   5.848   7.474  1.3355 -1.3965 -0.4337
  689MOL0     H90904   1.973   5.837   7.697 -1.3823 -1.4431 -0.0721
  689MOL0     H90905   1.824   5.784   7.625 -0.7484  0.6756  1.3018
  689MOL0     H90906   1.797   6.010   7.708  1.1973  3.0453 -0.2614
  689MOL0     H90907   1.932   6.050   7.595  2.2681 -2.2575 -0.5198
  689MOL0     H90908   1.783   5.977   7.410 -3.4082  0.3580 -1.1049
  689MOL0     H90909   1.735   6.124   7.477  2.2993  0.2339  0.4616
  689MOL0     H90910   1.555   6.228   7.493 -0.5851  0.1905 -0.5617
  689MOL0     H90911   1.378   6.330   7.634  2.1789 -0.1008  0.7842
  689MOL0     H90912   1.096   6.443   7.999  1.5585  0.9845  1.4930
  689MOL0     H90913   0.938   6.474   8.174  0.0095 -0.1500  1.7118
  689MOL0     H90914   0.657   6.309   8.427 -1.1788 -0.6174 -0.7188
  689MOL0     H90915   0.746   6.156   8.401  4.7333  1.9429 -0.1483
  689MOL0     H90916   0.668   6.147   8.170  1.0951  1.5073 -0.3532
  689MOL0     H90917   0.625   6.322   8.178  4.6226 -0.9796 -2.4041
  689MOL0     H90918   0.435   6.266   8.334 -3.3693 -1.7093 -1.2589
  689MOL0     H90919   0.481   6.100   8.323  2.6588  1.2213  0.3411
  689MOL0     H90920   0.364   6.269   8.105 -1.8364  0.7061  1.3283
  689MOL0     H90921   0.444   6.121   8.070 -1.4726 -0.1889 -0.8032
  689MOL0     H90922   0.298   5.996   8.175  1.6458  0.5189 -3.8235
  689MOL0     H90923   0.187   6.118   8.102 -1.5510 -1.8343  1.0382
  689MOL0     H90924   0.262   6.177   8.394 -1.7455 -0.7643  2.2356
  689MOL0     H90925   0.131   6.071   8.351 -2.6858  1.9706 -3.0506
  689MOL0     H90926   0.174   6.353   8.234  1.7155 -0.8479  0.4672
  689MOL0     H90927   0.039   6.241   8.201 -1.6632  0.6521  1.7452
  689MOL0     H90928   0.106   6.383   8.456  0.0255  0.3799 -1.9469
  689MOL0     H90929  -0.007   6.238   8.447 -1.0835 -0.9611 -1.6223
  689MOL0     H90930   0.931   6.044   8.266 -1.0271 -1.7583 -3.1154
  689MOL0     H90931   1.096   6.021   8.093 -1.1388 -0.3130  0.7137
  689MOL0     H90932   1.305   5.953   7.826 -1.3274 -0.9317 -1.9116
  689MOL0     H90933   1.474   5.858   7.686  4.6957 -0.2288 -0.0205
  689MOL0     H90934   1.460   5.440   8.083  0.4667 -0.2563  1.1014
  689MOL0     H90935   1.314   5.599   8.160  3.0465 -1.3894  2.6276
  689MOL0     H90936   0.789   5.461   8.456 -0.3556 -1.4341 -3.4387
  689MOL0     H90937   0.605   5.590   8.554 -3.4296  1.9570 -1.4301
  689MOL0     H90938   0.563   5.860   8.705  1.1435 -0.4568  0.6505
  689MOL0     H90939   0.452   5.739   8.635  0.9992  0.5975  3.4925
  689MOL0     H90940   0.424   6.035   8.633  0.5730 -0.0635 -1.5491
  689MOL0     H90941   0.300   5.924   8.586  2.4642  2.5946 -2.5419
  689MOL0     H90942   0.396   5.993   8.864  0.3109  3.1539 -2.2504
  689MOL0     H90943   0.342   5.829   8.825  1.4410 -0.2342 -2.5209
  689MOL0     H90944   0.197   6.094   8.757 -2.9617 -0.1836  0.0618
  689MOL0     H90945   0.120   5.931   8.763 -1.7567  2.3530  1.2457
  689MOL0     H90946   0.075   6.082   9.147 -2.2990 -0.1403 -1.7839
  689MOL0     H90947   0.723   5.921   8.304 -0.1833 -0.6919 -0.7057
  689MOL0     H90948   0.900   5.797   8.222 -2.4172 -1.3468 -2.1818
  690MOL0     O90949   8.389   7.176   1.647  0.3208 -0.0594  0.2318
  690MOL0     C90950   8.401   7.176   1.768 -0.3427  0.3928  0.4907
  690MOL0     O90951   8.457   7.071   1.840  0.8839  0.8968 -0.7408
  690MOL0     C90952   8.527   6.987   1.755 -0.8601 -1.0211 -0.3849
  690MOL0     C90953   8.456   6.887   1.692 -0.3372  0.7531 -0.6570
  690MOL0     C90954   8.532   6.800   1.609  0.2011 -1.1401  0.5359
  690MOL0     C90955   8.663   6.833   1.560 -0.1211  1.1228  0.0534
  690MOL0     O90956   8.733   6.744   1.475  1.0218 -0.9382 -1.1455
  690MOL0     C90957   8.753   6.605   1.515 -0.8328  0.1319 -0.4739
  690MOL0     C90958   8.753   6.518   1.387  0.1844  0.1887 -0.6486
  690MOL0     C90959   8.606   6.488   1.320 -0.1861 -0.8219  0.1588
  690MOL0     C90960   8.528   6.602   1.261 -0.3111 -0.7499 -1.0857
  690MOL0     C90961   8.409   6.552   1.183 -0.5475 -0.5496  0.5084
  690MOL0     C90962   8.424   6.445   1.072 -0.0965 -0.2667  0.7493
  690MOL0     C90963   8.505   6.482   0.947  0.3447  0.1444  0.3868
  690MOL0     C90964   8.458   6.423   0.811  0.1233  0.1963 -0.2602
  690MOL0     N90965   8.313   6.426   0.785 -0.4522 -0.1621 -0.7067
  690MOL0     C90966   8.226   6.530   0.763 -0.3898  0.3910  0.5139
  690MOL0     C90967   8.104   6.479   0.750  0.8138 -0.2138 -0.4784
  690MOL0     C90968   7.976   6.553   0.708 -0.0393  1.1031 -0.7987
  690MOL0     C90969   7.928   6.658   0.809  0.8969  0.4751  0.1459
  690MOL0     C90970   7.985   6.799   0.802 -0.7037 -0.1130  0.4855
  690MOL0     C90971   7.902   6.861   0.702  0.7095 -0.6377 -0.4973
  690MOL0     O90972   7.954   6.993   0.664 -0.0391  0.2420  1.2378
  690MOL0     C90973   7.872   7.098   0.643  0.2099  1.3260 -0.5702
  690MOL0     C90974   7.918   7.233   0.665 -0.5949  0.1394 -0.1436
  690MOL0     C90975   7.839   7.349   0.628  0.3563  0.7797 -0.1725
  690MOL0     C90976   7.701   7.316   0.605 -0.8450 -0.0432 -0.3544
  690MOL0     C90977   7.595   7.424   0.592  0.3456  0.5185 -0.2551
  690MOL0     O90978   7.477   7.392   0.537  0.5953  0.5857  0.0975
  690MOL0     C90979   7.374   7.475   0.570  0.3066  0.9745  0.6169
  690MOL0     C90980   7.286   7.438   0.667  0.6615 -0.3973 -0.1250
  690MOL0     C90981   7.181   7.522   0.708  0.1435  1.6932 -0.3911
  690MOL0     C90982   7.168   7.645   0.651  0.2564 -0.1738 -0.0124
  690MOL0     O90983   7.071   7.719   0.704  0.4530 -0.6111  0.0593
  690MOL0     C90984   7.039   7.838   0.626 -0.2720  0.6824  0.4281
  690MOL0     C90985   6.899   7.879   0.671 -0.4179 -0.2488 -0.2220
  690MOL0     C90986   6.845   7.991   0.590 -0.0449 -0.8239 -0.2161
  690MOL0     C90987   6.690   7.993   0.592  0.2457 -0.3872 -0.1689
  690MOL0     C90988   6.628   8.003   0.730 -0.8908 -1.2346 -0.2292
  690MOL0     C90989   6.645   8.152   0.800  0.1706  0.3221 -0.3960
  690MOL0     C90990   6.583   8.256   0.705  0.9238  0.6048 -0.0465
  690MOL0     C90991   6.529   8.374   0.791 -0.7172  0.7438 -0.2041
  690MOL0    Cl90992   6.383   8.435   0.738  0.5079 -0.0609  0.4825
  690MOL0     C90993   7.260   7.689   0.550 -0.3518 -0.3402  0.2303
  690MOL0     C90994   7.359   7.593   0.502  0.7012 -0.6064  0.3419
  690MOL0     O90995   7.612   7.534   0.645 -0.7379  0.6362  1.0148
  690MOL0     C90996   7.650   7.181   0.590  0.3478 -0.2471  0.3515
  690MOL0     C90997   7.741   7.077   0.593 -0.2489  0.0864 -1.1650
  690MOL0     N90998   8.120   6.342   0.767  0.4862 -0.0160 -0.8235
  690MOL0     N90999   8.244   6.311   0.781 -0.0507  0.6210 -0.1829
  690MOL0     C91000   8.727   6.942   1.616  0.1819  0.0363 -0.0099
  690MOL0     C91001   8.658   7.018   1.719 -0.0103 -0.4250  1.1736
  690MOL0     C91002   8.322   7.281   1.848 -0.1680 -0.0338 -0.6697
  690MOL0     C91003   8.281   7.391   1.771 -0.0156 -0.2057 -0.8155
  690MOL0     C91004   8.211   7.496   1.832  0.9496  0.1893  0.7105
  690MOL0     C91005   8.178   7.482   1.969  0.2621 -0.5583  0.4684
  690MOL0     O91006   8.130   7.603   2.018 -0.0405 -0.0035 -0.7011
  690MOL0     C91007   8.120   7.620   2.158 -0.0562  0.6185 -0.6621
  690MOL0     C91008   8.094   7.767   2.190  0.4236 -0.5439  0.1955
  690MOL0     C91009   8.127   7.812   2.332  0.0668 -0.2339 -0.6487
  690MOL0     C91010   8.276   7.827   2.362 -0.1274 -0.0111  0.0401
  690MOL0     C91011   8.319   7.888   2.486  1.2859 -0.0535 -0.0360
  690MOL0     C91012   8.365   7.958   2.572 -0.0852 -0.0370 -0.2398
  690MOL0     C91013   8.223   7.374   2.037 -0.8922 -0.2399 -0.5838
  690MOL0     C91014   8.294   7.273   1.987  0.3816  0.5128 -0.4878
  690MOL0     H91015   8.349   6.874   1.704 -0.3592  1.7494  0.4120
  690MOL0     H91016   8.484   6.714   1.564  2.4058 -0.2589 -4.1959
  690MOL0     H91017   8.679   6.561   1.582  0.3698 -1.0586  0.1026
  690MOL0     H91018   8.854   6.603   1.557 -1.3999 -1.5033  0.9142
  690MOL0     H91019   8.790   6.423   1.427  0.2728  0.8394  0.8825
  690MOL0     H91020   8.819   6.550   1.306 -2.1326  2.6970 -1.6863
  690MOL0     H91021   8.539   6.442   1.393 -0.8809  0.1027  0.1302
  690MOL0     H91022   8.638   6.424   1.237 -0.0055  1.2175 -1.4401
  690MOL0     H91023   8.506   6.666   1.347  0.0065  0.5799 -1.9553
  690MOL0     H91024   8.589   6.665   1.195 -1.1690  1.1732 -0.1394
  690MOL0     H91025   8.377   6.647   1.140  0.5621  0.0186  0.8871
  690MOL0     H91026   8.332   6.514   1.250 -0.8090 -2.7013 -0.9173
  690MOL0     H91027   8.332   6.402   1.030  0.9370  0.4464 -2.5120
  690MOL0     H91028   8.470   6.362   1.126  0.5908 -0.0911  0.4343
  690MOL0     H91029   8.509   6.591   0.937  0.6068  0.0168 -1.0020
  690MOL0     H91030   8.609   6.454   0.966 -0.4686 -1.4362  3.0578
  690MOL0     H91031   8.496   6.321   0.808 -0.4704 -0.2364  3.2505
  690MOL0     H91032   8.509   6.484   0.736 -0.6273  2.3518  0.8983
  690MOL0     H91033   8.249   6.636   0.762 -1.9007  0.8638 -3.4428
  690MOL0     H91034   7.894   6.481   0.702 -0.1161  1.1155 -0.0563
  690MOL0     H91035   7.983   6.589   0.605 -2.0690 -2.5288 -2.4231
  690MOL0     H91036   7.948   6.616   0.908  0.8999 -0.0228 -0.0584
  690MOL0     H91037   7.819   6.656   0.811  0.9034 -1.1785  1.5415
  690MOL0     H91038   7.977   6.851   0.898  0.1504  0.3725  0.2973
  690MOL0     H91039   8.092   6.796   0.779 -1.1413  2.2588 -2.3163
  690MOL0     H91040   7.795   6.863   0.726 -0.3218 -2.4700 -4.1056
  690MOL0     H91041   7.899   6.798   0.613 -0.6438  1.5358 -2.1103
  690MOL0     H91042   8.013   7.250   0.716 -2.5692  0.6067  3.7774
  690MOL0     H91043   7.874   7.452   0.625 -0.2357  0.9736 -2.8840
  690MOL0     H91044   7.293   7.345   0.722 -0.8986 -0.5533 -0.1376
  690MOL0     H91045   7.125   7.494   0.797  2.3518  0.0554  0.5874
  690MOL0     H91046   7.036   7.819   0.518  0.1662  0.8812  0.3761
  690MOL0     H91047   7.115   7.914   0.646  1.9508 -1.9200  2.7110
  690MOL0     H91048   6.893   7.919   0.773 -1.0828 -0.0725 -0.3261
  690MOL0     H91049   6.847   7.787   0.642  3.0218 -2.4380 -0.0733
  690MOL0     H91050   6.883   7.991   0.487 -3.0529 -1.9579 -1.4510
  690MOL0     H91051   6.870   8.087   0.636 -1.7952 -1.1532  1.6070
  690MOL0     H91052   6.645   8.071   0.531 -0.8466 -0.8568  0.0052
  690MOL0     H91053   6.655   7.897   0.553  0.4855 -1.9496  3.0459
  690MOL0     H91054   6.666   7.927   0.798  2.3376 -0.3320 -0.8722
  690MOL0     H91055   6.522   7.984   0.709 -1.1617  0.4057 -0.4375
  690MOL0     H91056   6.750   8.177   0.819 -0.5041  2.9714  0.3049
  690MOL0     H91057   6.591   8.151   0.895  1.6506  1.3454  0.5014
  690MOL0     H91058   6.659   8.296   0.638 -0.3526  1.7381 -0.8836
  690MOL0     H91059   6.500   8.215   0.646  0.4368  1.9941 -0.3762
  690MOL0     H91060   6.608   8.450   0.786  0.8751 -0.8161  0.4281
  690MOL0     H91061   6.520   8.352   0.898 -2.0870  2.7349  0.1537
  690MOL0     H91062   7.260   7.793   0.516 -2.6649  1.2542  4.3950
  690MOL0     H91063   7.426   7.616   0.420 -3.1508  2.6569 -2.3242
  690MOL0     H91064   7.545   7.162   0.569  0.8326 -0.8899 -1.6241
  690MOL0     H91065   7.698   6.979   0.576 -2.5910  0.7696  0.2669
  690MOL0     H91066   8.832   6.968   1.617  0.6413 -1.5737 -1.6421
  690MOL0     H91067   8.704   7.107   1.760 -1.7071 -0.2108  2.7435
  690MOL0     H91068   8.303   7.394   1.664  0.3176  0.6041 -0.7368
  690MOL0     H91069   8.192   7.583   1.770 -0.7137  0.3321  1.3811
  690MOL0     H91070   8.218   7.595   2.200 -2.1497 -0.4203  4.3315
  690MOL0     H91071   8.041   7.569   2.214  0.8300 -0.5693 -0.4620
  690MOL0     H91072   8.145   7.822   2.110 -0.7990  0.9428  0.3884
  690MOL0     H91073   7.988   7.787   2.175 -0.3518  2.6489  6.5757
  690MOL0     H91074   8.094   7.742   2.409  0.5717  0.6938  0.4345
  690MOL0     H91075   8.090   7.913   2.352 -2.0806 -0.6967 -1.9580
  690MOL0     H91076   8.325   7.731   2.345  2.3917  0.6951  2.5664
  690MOL0     H91077   8.324   7.881   2.280 -0.0809 -0.4396 -0.2147
  690MOL0     H91078   8.391   8.016   2.658  0.2563 -0.9577  0.2965
  690MOL0     H91079   8.190   7.368   2.140 -1.6970  0.8704 -0.7685
  690MOL0     H91080   8.304   7.183   2.047 -0.8565  0.9231  0.3860
  691MOL0     O91081   5.030   9.722   4.942 -0.2873 -0.9132 -0.0038
  691MOL0     C91082   4.949   9.801   4.990  0.4123  0.9280 -0.2337
  691MOL0     O91083   4.866   9.765   5.105 -0.0952 -0.8452  0.5491
  691MOL0     C91084   4.904   9.672   5.199  0.7537  0.2609  0.2585
  691MOL0     C91085   5.016   9.593   5.208 -0.8241 -0.9150  0.2946
  691MOL0     C91086   5.032   9.482   5.286 -0.2152  0.4728 -0.0956
  691MOL0     C91087   4.929   9.447   5.382 -0.1994 -0.1280  0.2463
  691MOL0     O91088   4.958   9.338   5.463 -0.5105  0.2249  0.4308
  691MOL0     C91089   4.873   9.288   5.566 -0.4546 -0.2262  0.1371
  691MOL0     C91090   4.837   9.380   5.686  0.1912  1.6619 -0.2857
  691MOL0     C91091   4.937   9.494   5.713  1.1451 -0.3188  0.2567
  691MOL0     C91092   4.892   9.587   5.826  1.0511  0.0912 -0.3948
  691MOL0     C91093   4.989   9.701   5.850 -0.0239 -0.5859  0.2675
  691MOL0     C91094   5.032   9.782   5.720 -0.1639 -0.3085 -0.9839
  691MOL0     C91095   5.066   9.926   5.765 -0.4315  0.3741 -0.0228
  691MOL0     C91096   5.070  10.020   5.649 -0.3618  0.4610  0.4056
  691MOL0     N91097   5.056  10.168   5.660 -0.2173 -0.1931 -0.5765
  691MOL0     C91098   5.038  10.246   5.547 -0.4014  0.0506  0.7316
  691MOL0     C91099   5.100  10.355   5.566 -0.7559  0.7361 -0.5742
  691MOL0     C91100   5.101  10.474   5.485  0.0652 -0.9314  1.0666
  691MOL0     C91101   5.241  10.493   5.435  0.5995 -0.7523  0.1944
  691MOL0     C91102   5.306  10.603   5.506 -0.0557  0.5088  0.4576
  691MOL0     C91103   5.456  10.596   5.448  0.3173 -0.5613  0.0325
  691MOL0     O91104   5.460  10.628   5.309 -1.0667 -0.3058  0.2874
  691MOL0     C91105   5.581  10.669   5.260  0.3147  0.5108  0.5365
  691MOL0     C91106   5.570  10.771   5.167 -0.0540 -0.1930 -0.3396
  691MOL0     C91107   5.681  10.812   5.100 -0.1410  0.0513  0.6390
  691MOL0     C91108   5.805  10.749   5.113  0.2061  0.6038 -0.4901
  691MOL0     C91109   5.916  10.760   5.025  0.6179  0.2233 -0.3789
  691MOL0     O91110   5.882  10.802   4.904 -0.3543 -0.8875  0.0430
  691MOL0     C91111   5.965  10.804   4.785  0.0374  0.6245  0.4253
  691MOL0     C91112   5.925  10.891   4.686 -0.7490  0.8980  0.6494
  691MOL0     C91113   6.000  10.917   4.566  0.2515 -0.4207 -0.6552
  691MOL0     C91114   6.114  10.841   4.545 -0.2509  0.1545 -0.5816
  691MOL0     O91115   6.193  10.858   4.440 -0.3311 -0.0055 -0.1668
  691MOL0     C91116   6.283  10.967   4.463  0.4942  0.1404  0.1862
  691MOL0     C91117   6.384  10.981   4.348  0.1631 -0.6420  0.1124
  691MOL0     C91118   6.466  10.862   4.311  0.5025 -0.4742 -0.0250
  691MOL0     C91119   6.570  10.828   4.425 -0.3928 -0.9296  0.1498
  691MOL0     C91120   6.654  10.702   4.386  0.2766 -0.4385  0.8776
  691MOL0     C91121   6.716  10.716   4.241 -0.3729  0.3412 -0.6339
  691MOL0     C91122   6.796  10.594   4.206 -0.4721  0.4226  0.9165
  691MOL0     C91123   6.872  10.621   4.083 -0.1106 -0.0006  0.1318
  691MOL0    Cl91124   6.981  10.474   4.079  0.3204  0.4002  0.1093
  691MOL0     C91125   6.148  10.735   4.642 -0.0470 -1.2184  0.2798
  691MOL0     C91126   6.077  10.731   4.761  0.5937  0.9558  0.1202
  691MOL0     O91127   6.024  10.737   5.059 -0.3149  0.5267 -0.2441
  691MOL0     C91128   5.815  10.661   5.215  0.7031  0.0987  0.4043
  691MOL0     C91129   5.706  10.615   5.292  0.2538  0.1193 -0.1583
  691MOL0     N91130   5.155  10.351   5.690 -0.7904 -0.0099  0.4857
  691MOL0     N91131   5.135  10.240   5.742  0.8000 -0.3993 -0.0538
  691MOL0     C91132   4.814   9.535   5.388 -0.3917 -0.7816  0.5946
  691MOL0     C91133   4.801   9.638   5.294 -0.4600  0.0519  0.1404
  691MOL0     C91134   4.935   9.928   4.926  0.0244 -0.0961 -0.5964
  691MOL0     C91135   5.010   9.954   4.810 -0.6145  0.3399  0.5003
  691MOL0     C91136   4.991  10.070   4.729 -0.7129 -0.2126 -0.1082
  691MOL0     C91137   4.905  10.168   4.768  0.2613  0.1111  0.1231
  691MOL0     O91138   4.900  10.287   4.696  0.2553 -0.5882  0.1716
  691MOL0     C91139   4.871  10.408   4.770 -0.4444  0.1867  0.4832
  691MOL0     C91140   4.882  10.513   4.669  0.0406  0.0407 -0.0981
  691MOL0     C91141   4.757  10.537   4.590 -0.9685  0.6294  1.0324
  691MOL0     C91142   4.732  10.428   4.491  0.8980  0.3309 -0.0277
  691MOL0     C91143   4.627  10.485   4.399  0.9086  0.1023 -0.3869
  691MOL0     C91144   4.532  10.526   4.339  0.8823 -1.1590 -0.9291
  691MOL0     C91145   4.840  10.153   4.891  0.3955 -0.8090  0.1225
  691MOL0     C91146   4.851  10.035   4.970 -0.4175  0.5427 -0.0910
  691MOL0     H91147   5.091   9.590   5.130  2.2024 -0.6914  2.9862
  691MOL0     H91148   5.126   9.427   5.278 -0.6849 -0.3610 -0.0164
  691MOL0     H91149   4.925   9.205   5.615 -0.3177  0.3477  0.9957
  691MOL0     H91150   4.781   9.249   5.522 -0.0860  0.1014 -0.9385
  691MOL0     H91151   4.822   9.318   5.775 -2.8035 -2.9883 -3.5624
  691MOL0     H91152   4.737   9.422   5.675 -0.5252  0.3243  0.8572
  691MOL0     H91153   4.919   9.557   5.625 -0.1820 -1.6252 -0.4576
  691MOL0     H91154   5.038   9.454   5.711  1.8540  1.3783 -2.3145
  691MOL0     H91155   4.803   9.638   5.787  1.7472  0.1343 -1.9866
  691MOL0     H91156   4.866   9.520   5.909  2.2193  2.4847  2.0644
  691MOL0     H91157   5.077   9.671   5.908 -1.6078 -1.5262  2.3311
  691MOL0     H91158   4.932   9.768   5.916 -3.6390 -1.4919 -1.6375
  691MOL0     H91159   4.940   9.806   5.666  1.5663  0.8342 -3.6260
  691MOL0     H91160   5.106   9.728   5.660  1.5533 -1.4033  1.9173
  691MOL0     H91161   4.989   9.958   5.836 -1.7753  2.3080 -2.1964
  691MOL0     H91162   5.164   9.923   5.813 -0.2888  1.3388 -0.2359
  691MOL0     H91163   4.986   9.987   5.588 -1.2322 -0.9793  2.2944
  691MOL0     H91164   5.165  10.006   5.597 -0.8107 -0.3748 -0.2060
  691MOL0     H91165   4.985  10.220   5.456  0.0062  1.8070 -0.0605
  691MOL0     H91166   5.059  10.555   5.546  0.5981  1.8002 -1.9185
  691MOL0     H91167   5.033  10.455   5.401  1.2306 -0.6051  0.0275
  691MOL0     H91168   5.240  10.516   5.328 -1.7826 -1.8059 -0.0769
  691MOL0     H91169   5.291  10.400   5.461  0.8982 -0.3066  1.2506
  691MOL0     H91170   5.266  10.703   5.485  2.0811  1.0447 -1.5888
  691MOL0     H91171   5.302  10.576   5.612 -0.5369 -3.4493 -0.4031
  691MOL0     H91172   5.494  10.494   5.463 -1.4543 -1.2040  0.4217
  691MOL0     H91173   5.514  10.674   5.498  0.4841 -0.5176 -0.2270
  691MOL0     H91174   5.472  10.818   5.161 -0.1109 -0.3600 -0.7770
  691MOL0     H91175   5.676  10.890   5.024  1.8564  2.1787  2.5248
  691MOL0     H91176   5.837  10.954   4.695 -0.8269  0.8171  0.4359
  691MOL0     H91177   5.975  10.998   4.497  1.4542 -2.0182 -3.1180
  691MOL0     H91178   6.341  10.944   4.553 -1.3857  0.7500  1.6360
  691MOL0     H91179   6.229  11.061   4.482  0.1912 -0.1973  1.0398
  691MOL0     H91180   6.463  11.052   4.374 -0.2760 -0.1214  0.0445
  691MOL0     H91181   6.338  11.015   4.255  1.4486 -2.7162 -1.3671
  691MOL0     H91182   6.511  10.900   4.219 -2.4799  1.9915 -0.6301
  691MOL0     H91183   6.405  10.778   4.276 -2.4865  2.5816 -2.8878
  691MOL0     H91184   6.643  10.908   4.441 -0.3376 -1.3720  2.4362
  691MOL0     H91185   6.515  10.808   4.517 -1.5988  2.3091  0.2738
  691MOL0     H91186   6.594  10.612   4.373  0.5821 -0.6425  0.8750
  691MOL0     H91187   6.739  10.682   4.452  3.1728 -0.0235 -2.4233
  691MOL0     H91188   6.781  10.804   4.247  1.4784 -1.0493  1.8494
  691MOL0     H91189   6.641  10.726   4.163 -0.0216 -2.8305 -1.5100
  691MOL0     H91190   6.867  10.566   4.284 -0.8273  0.0874  1.1265
  691MOL0     H91191   6.729  10.507   4.198 -1.0468  0.8760  0.6846
  691MOL0     H91192   6.927  10.714   4.100 -0.8317  0.4566  0.0521
  691MOL0     H91193   6.806  10.640   3.998  0.0583 -3.1060 -0.7956
  691MOL0     H91194   6.233  10.675   4.612  1.9682  1.8207 -0.5082
  691MOL0     H91195   6.106  10.657   4.835 -3.8941  0.2414  1.4928
  691MOL0     H91196   5.903  10.598   5.225 -0.2592 -1.8074 -1.9888
  691MOL0     H91197   5.724  10.538   5.366  4.3273  0.5727 -0.4535
  691MOL0     H91198   4.729   9.524   5.454 -3.3700  4.0045 -1.8582
  691MOL0     H91199   4.710   9.696   5.294  1.9048  4.2681  2.1894
  691MOL0     H91200   5.082   9.876   4.787 -1.5755 -0.3980 -0.0660
  691MOL0     H91201   5.053  10.089   4.642  1.0509 -1.8679  0.7134
  691MOL0     H91202   4.950  10.425   4.844  2.9425  2.3808 -3.2470
  691MOL0     H91203   4.769  10.422   4.809 -0.4311 -0.2653  0.6788
  691MOL0     H91204   4.900  10.604   4.728  2.2893 -0.2167 -0.2973
  691MOL0     H91205   4.963  10.507   4.596  1.6791 -2.0939  1.7627
  691MOL0     H91206   4.783  10.619   4.522 -0.8765 -1.1390 -1.1686
  691MOL0     H91207   4.669  10.561   4.650 -1.5559 -1.6110  1.1362
  691MOL0     H91208   4.822  10.414   4.431 -0.0968 -1.5259 -1.1900
  691MOL0     H91209   4.698  10.335   4.536 -0.5782 -0.5134 -2.6641
  691MOL0     H91210   4.447  10.561   4.285 -1.5154 -1.4676  2.3573
  691MOL0     H91211   4.764  10.229   4.908  2.1180  1.1894 -0.5668
  691MOL0     H91212   4.798  10.018   5.063  1.7473 -1.0027  0.9573
  692MOL0     O91213   7.618   3.521   4.298  0.3039 -0.0217 -0.1591
  692MOL0     C91214   7.576   3.406   4.315 -0.4662  1.2370  1.3083
  692MOL0     O91215   7.464   3.373   4.364 -0.1973  0.0279 -0.5407
  692MOL0     C91216   7.399   3.455   4.449  0.8755 -0.8302 -0.1135
  692MOL0     C91217   7.454   3.499   4.571  0.0754 -0.7586 -1.7325
  692MOL0     C91218   7.371   3.579   4.657 -1.4555  0.2011 -0.1436
  692MOL0     C91219   7.240   3.618   4.621  0.4722 -0.9260  0.6679
  692MOL0     O91220   7.174   3.684   4.719 -0.1621  0.3529 -0.7242
  692MOL0     C91221   7.040   3.662   4.744 -0.2865  1.5437  0.2836
  692MOL0     C91222   6.947   3.773   4.687 -0.4526  0.0728 -0.6038
  692MOL0     C91223   6.804   3.712   4.701  0.0768 -0.0809  0.3603
  692MOL0     C91224   6.744   3.744   4.841 -0.5238  0.3615 -1.0083
  692MOL0     C91225   6.603   3.692   4.862 -0.3589 -0.0809  0.6076
  692MOL0     C91226   6.583   3.552   4.814  0.8154  0.6826  0.6239
  692MOL0     C91227   6.654   3.453   4.897 -0.8640  0.3972  0.1234
  692MOL0     C91228   6.639   3.311   4.842  0.2303 -0.1959 -0.3057
  692MOL0     N91229   6.714   3.215   4.925  1.1753 -0.5933  0.2987
  692MOL0     C91230   6.836   3.158   4.904  0.0583  0.1795  0.5571
  692MOL0     C91231   6.866   3.069   5.001  1.0787  0.2406  0.4701
  692MOL0     C91232   6.989   2.982   4.998 -0.3568  0.8946  0.0988
  692MOL0     C91233   7.026   2.898   5.120  0.2088 -0.1367  0.6315
  692MOL0     C91234   7.103   2.774   5.077  0.2472  0.6745 -0.5005
  692MOL0     C91235   7.105   2.674   5.202 -0.4077 -0.3082  0.1055
  692MOL0     O91236   7.137   2.740   5.328 -0.1544  0.3900 -0.1935
  692MOL0     C91237   7.250   2.822   5.334  0.8246  0.0544  0.1059
  692MOL0     C91238   7.247   2.942   5.412 -0.4240  0.2629 -0.1335
  692MOL0     C91239   7.367   3.015   5.423 -1.3391  0.0451 -0.8186
  692MOL0     C91240   7.489   2.973   5.364  0.7095 -0.2341 -0.1409
  692MOL0     C91241   7.613   3.054   5.372 -0.2154  0.1000 -0.6638
  692MOL0     O91242   7.710   3.037   5.285  0.4502 -0.0569 -0.3377
  692MOL0     C91243   7.814   3.133   5.297 -0.3250  0.4124  0.4948
  692MOL0     C91244   7.915   3.088   5.384  0.4243  0.0169  0.1510
  692MOL0     C91245   8.029   3.164   5.394 -0.0253  0.4024  0.2314
  692MOL0     C91246   8.044   3.276   5.330 -0.2435 -0.3099  0.0643
  692MOL0     O91247   8.150   3.354   5.341 -0.1599  0.1593 -0.2327
  692MOL0     C91248   8.139   3.465   5.434  0.8720  0.8753  0.0782
  692MOL0     C91249   8.273   3.533   5.431  0.5292  0.8018 -0.9220
  692MOL0     C91250   8.275   3.657   5.514 -0.1522  0.1909  0.0466
  692MOL0     C91251   8.400   3.713   5.561 -0.0147 -0.0963 -1.0946
  692MOL0     C91252   8.495   3.721   5.445 -0.3037 -0.7916 -0.1168
  692MOL0     C91253   8.608   3.818   5.478 -0.6055  0.0033  0.1865
  692MOL0     C91254   8.700   3.848   5.354  0.0948  1.0595  1.6321
  692MOL0     C91255   8.840   3.889   5.398 -0.4038 -0.2049  0.9818
  692MOL0    Cl91256   8.828   4.040   5.502  0.2259 -0.1643  0.5397
  692MOL0     C91257   7.932   3.330   5.260  0.7029  0.3351  0.1037
  692MOL0     C91258   7.812   3.259   5.248 -0.7605 -0.8110  0.0893
  692MOL0     O91259   7.617   3.114   5.479 -0.4707 -0.1416  0.2531
  692MOL0     C91260   7.482   2.864   5.270 -0.2955 -0.4652 -0.1800
  692MOL0     C91261   7.367   2.784   5.268 -0.5871 -0.6931  0.6046
  692MOL0     N91262   6.750   3.074   5.083  0.9304 -0.0488 -0.3977
  692MOL0     N91263   6.671   3.171   5.049 -0.0261 -0.3261 -0.0797
  692MOL0     C91264   7.185   3.573   4.497  0.5154  0.1382  0.0093
  692MOL0     C91265   7.265   3.494   4.422 -0.2583 -0.6774  0.9270
  692MOL0     C91266   7.635   3.290   4.247 -0.8982  0.0708  1.3413
  692MOL0     C91267   7.748   3.302   4.157  0.1908 -0.9491 -0.5506
  692MOL0     C91268   7.807   3.189   4.103 -0.0725 -0.0029 -0.0373
  692MOL0     C91269   7.749   3.061   4.130  1.2799  0.2108  1.3914
  692MOL0     O91270   7.802   2.953   4.068  0.3548  0.8034  0.1312
  692MOL0     C91271   7.882   2.860   4.151  0.6194  0.0578 -0.0925
  692MOL0     C91272   7.910   2.727   4.079  0.1896  0.7965 -0.5002
  692MOL0     C91273   7.939   2.609   4.180  0.4278 -0.0304 -0.1175
  692MOL0     C91274   7.951   2.473   4.119 -0.1922 -0.1996  0.1871
  692MOL0     C91275   7.819   2.416   4.094 -0.1048 -0.0176 -0.2163
  692MOL0     C91276   7.706   2.376   4.086  0.3903 -0.1288 -0.0398
  692MOL0     C91277   7.638   3.049   4.215 -0.0695  0.4374  0.1506
  692MOL0     C91278   7.589   3.166   4.278 -0.0744 -0.4114  0.8339
  692MOL0     H91279   7.552   3.479   4.612 -0.5786  1.5104  1.2859
  692MOL0     H91280   7.418   3.600   4.753  3.6923 -1.8185 -1.8764
  692MOL0     H91281   7.025   3.660   4.853  1.4185  1.8769  0.5556
  692MOL0     H91282   7.018   3.557   4.721  2.5260  0.3701  2.2299
  692MOL0     H91283   6.955   3.780   4.579 -1.3126 -5.1739 -1.2666
  692MOL0     H91284   6.962   3.873   4.729  0.8180 -0.2338 -0.2840
  692MOL0     H91285   6.802   3.603   4.700 -1.9706 -0.1566  2.5712
  692MOL0     H91286   6.739   3.732   4.616 -0.0681 -1.6361  0.0808
  692MOL0     H91287   6.812   3.711   4.920  2.4806  3.3058 -2.1215
  692MOL0     H91288   6.746   3.853   4.850  1.7614  0.2651  0.3294
  692MOL0     H91289   6.524   3.747   4.811  0.3005 -1.0454 -1.6142
  692MOL0     H91290   6.584   3.707   4.969 -1.0636  0.6788  0.3898
  692MOL0     H91291   6.596   3.529   4.708 -3.0806 -0.9819  0.3089
  692MOL0     H91292   6.474   3.539   4.815  0.7332 -0.4424 -3.8708
  692MOL0     H91293   6.759   3.481   4.910 -1.2830  1.1463  2.3321
  692MOL0     H91294   6.613   3.469   4.998  2.7678  3.1468  1.4228
  692MOL0     H91295   6.674   3.318   4.739 -1.5293 -1.6065 -1.0616
  692MOL0     H91296   6.531   3.293   4.835  0.3369 -0.7310 -0.5776
  692MOL0     H91297   6.893   3.174   4.813 -1.4588  1.6657 -0.1891
  692MOL0     H91298   7.067   3.051   4.964  0.5969 -1.2957 -2.6288
  692MOL0     H91299   6.969   2.917   4.912 -1.6756  0.8451  0.4312
  692MOL0     H91300   6.928   2.886   5.168  0.5336  0.2707  1.4138
  692MOL0     H91301   7.081   2.970   5.181 -0.7040  2.1264 -1.0838
  692MOL0     H91302   7.071   2.725   4.985  0.3912 -1.3389  0.4582
  692MOL0     H91303   7.206   2.806   5.057  0.4181 -1.2458 -3.2244
  692MOL0     H91304   7.160   2.580   5.188  0.4342 -0.2498  2.5957
  692MOL0     H91305   7.001   2.640   5.209 -1.2483  2.1690  0.6534
  692MOL0     H91306   7.164   2.955   5.481  1.0508 -0.3963  1.8523
  692MOL0     H91307   7.359   3.105   5.484 -2.6806 -1.2262  1.0193
  692MOL0     H91308   7.909   2.990   5.430  3.6878 -0.0193  0.7109
  692MOL0     H91309   8.109   3.129   5.457  0.7523  0.9589 -0.4238
  692MOL0     H91310   8.116   3.433   5.536  1.8938  0.4381  0.1731
  692MOL0     H91311   8.063   3.539   5.404  0.8793  0.8538  0.0052
  692MOL0     H91312   8.298   3.563   5.329  1.5920  2.0908 -0.3158
  692MOL0     H91313   8.352   3.469   5.471 -0.1661  1.1925  1.2249
  692MOL0     H91314   8.218   3.649   5.607 -0.4029  3.4438  0.2953
  692MOL0     H91315   8.206   3.729   5.470 -0.1495  0.4244  0.4130
  692MOL0     H91316   8.377   3.810   5.606  0.5149  0.4452 -1.9645
  692MOL0     H91317   8.449   3.664   5.646  1.6388  1.7147 -0.9264
  692MOL0     H91318   8.445   3.753   5.353 -0.7904  0.6257  0.6059
  692MOL0     H91319   8.531   3.619   5.427 -1.0022 -1.1020  0.1894
  692MOL0     H91320   8.672   3.764   5.549  3.9691  0.7193 -2.9471
  692MOL0     H91321   8.594   3.914   5.529  2.6261 -0.3314  1.9953
  692MOL0     H91322   8.704   3.754   5.297 -1.6261  0.2230  2.8259
  692MOL0     H91323   8.667   3.902   5.265  2.8132 -2.3204 -1.8001
  692MOL0     H91324   8.905   3.920   5.316  2.1583  1.6905  3.5062
  692MOL0     H91325   8.883   3.812   5.463 -1.0338 -0.7378  0.7768
  692MOL0     H91326   7.936   3.430   5.220  1.9328 -0.1208 -0.9984
  692MOL0     H91327   7.723   3.301   5.204  0.4630  0.4257 -1.3213
  692MOL0     H91328   7.557   2.846   5.194  0.9290  0.9777  0.6282
  692MOL0     H91329   7.366   2.704   5.195  0.9532 -0.1736 -0.0232
  692MOL0     H91330   7.088   3.602   4.457  0.4415  2.5488  1.7766
  692MOL0     H91331   7.215   3.463   4.330  0.7974  1.4630 -0.4445
  692MOL0     H91332   7.795   3.399   4.144  2.9196 -2.0866  0.1565
  692MOL0     H91333   7.886   3.197   4.029 -1.1397 -0.0052 -1.2150
  692MOL0     H91334   7.825   2.842   4.243 -1.8480  1.3940 -1.2508
  692MOL0     H91335   7.978   2.910   4.169  0.9713 -0.4032 -0.6639
  692MOL0     H91336   7.834   2.695   4.007  1.7260  0.8445 -2.1911
  692MOL0     H91337   8.004   2.732   4.025  0.5120 -0.3089 -0.0709
  692MOL0     H91338   7.857   2.606   4.253  1.1079  0.8420  0.7150
  692MOL0     H91339   8.027   2.637   4.238 -0.7768 -0.0770  1.8525
  692MOL0     H91340   8.003   2.472   4.024 -1.1649  0.7505 -0.3853
  692MOL0     H91341   8.005   2.404   4.185  1.5895  1.6276  0.7309
  692MOL0     H91342   7.607   2.340   4.105  1.2797 -3.2276 -0.8063
  692MOL0     H91343   7.588   2.953   4.219 -0.3315  0.5942  0.7368
  692MOL0     H91344   7.497   3.155   4.334  0.9291 -0.6996  2.5189
  693MOL0     O91345   7.174   9.059   1.260  0.5320 -0.0386 -0.5554
  693MOL0     C91346   7.231   9.165   1.237  0.1167 -0.7126  0.3975
  693MOL0     O91347   7.306   9.241   1.326  0.2194 -0.5142  0.1942
  693MOL0     C91348   7.332   9.187   1.450  0.9283 -0.1062  1.3897
  693MOL0     C91349   7.345   9.285   1.548 -0.3707  0.3184  0.0571
  693MOL0     C91350   7.371   9.255   1.685  1.3091 -0.0952  1.6133
  693MOL0     C91351   7.379   9.123   1.723  0.1150  0.0557  0.8210
  693MOL0     O91352   7.400   9.079   1.846  1.0427 -0.0079 -0.6101
  693MOL0     C91353   7.449   9.172   1.952 -0.3920  0.0035 -0.0409
  693MOL0     C91354   7.369   9.133   2.086 -0.2495  0.9469 -0.1213
  693MOL0     C91355   7.215   9.156   2.050  0.6691  0.6650 -0.0231
  693MOL0     C91356   7.134   9.217   2.163  0.6974  0.2410 -0.2176
  693MOL0     C91357   7.117   9.369   2.152  1.6961 -0.2845 -0.0199
  693MOL0     C91358   7.253   9.437   2.172 -0.4153 -0.0973  0.0854
  693MOL0     C91359   7.241   9.589   2.194 -0.0579  0.3333  0.7025
  693MOL0     C91360   7.359   9.652   2.259 -0.0832  0.2031 -0.2376
  693MOL0     N91361   7.468   9.651   2.158  0.3873  0.2388 -0.1278
  693MOL0     C91362   7.479   9.729   2.043 -0.2767 -0.4052  0.1516
  693MOL0     C91363   7.601   9.690   2.005  0.2520 -0.1758  0.0001
  693MOL0     C91364   7.678   9.750   1.887 -1.1469  0.7959 -0.1946
  693MOL0     C91365   7.676   9.662   1.760  0.7482  0.0826  0.2541
  693MOL0     C91366   7.723   9.515   1.776  0.6722  0.2233  0.4716
  693MOL0     C91367   7.707   9.436   1.645 -0.9446 -0.2379  0.4069
  693MOL0     O91368   7.829   9.425   1.568 -0.7996  0.8274 -0.4262
  693MOL0     C91369   7.828   9.347   1.453  1.4530  0.3898 -0.4064
  693MOL0     C91370   7.940   9.347   1.381 -0.2052  0.1851 -0.6814
  693MOL0     C91371   7.943   9.301   1.252 -0.2754  0.5602 -0.1798
  693MOL0     C91372   7.829   9.236   1.202  1.1838 -1.0605  0.2469
  693MOL0     C91373   7.819   9.172   1.071 -0.1347  0.2620 -0.9476
  693MOL0     O91374   7.929   9.124   1.004  0.3626  0.3713  0.4562
  693MOL0     C91375   7.919   9.070   0.879  0.4203 -0.2242  0.8098
  693MOL0     C91376   7.850   9.116   0.774  0.0335 -0.6561 -0.1354
  693MOL0     C91377   7.862   9.062   0.649 -0.0233 -0.4951  0.5486
  693MOL0     C91378   7.945   8.953   0.630  1.2740  0.9079  0.1986
  693MOL0     O91379   7.969   8.889   0.513 -0.4934  0.5952 -0.1551
  693MOL0     C91380   7.903   8.936   0.394 -0.2186 -0.3410 -0.3586
  693MOL0     C91381   7.774   8.864   0.386  0.4360  0.1782  0.6077
  693MOL0     C91382   7.681   8.944   0.286  0.1002  0.5901  0.4375
  693MOL0     C91383   7.537   8.877   0.253  0.0890 -0.0575 -0.2657
  693MOL0     C91384   7.460   8.965   0.154 -1.1090 -0.0607  0.3527
  693MOL0     C91385   7.308   8.948   0.161 -0.8509 -0.4703  0.2673
  693MOL0     C91386   7.240   8.967   0.295 -0.0016  0.4755 -0.6026
  693MOL0     C91387   7.093   8.935   0.272 -1.6004 -0.2231 -0.2222
  693MOL0    Cl91388   7.020   8.886   0.424  0.4635  0.2120 -0.0242
  693MOL0     C91389   8.020   8.909   0.743  0.6527  0.1644 -0.0791
  693MOL0     C91390   8.005   8.962   0.865  0.0522  0.3602  0.1046
  693MOL0     O91391   7.709   9.183   1.025  0.4007 -0.0790  0.0049
  693MOL0     C91392   7.713   9.240   1.279  0.6342 -1.2331  0.6248
  693MOL0     C91393   7.708   9.296   1.399  0.8249  0.7122  0.2443
  693MOL0     N91394   7.666   9.604   2.085  0.6911 -0.3659  0.0694
  693MOL0     N91395   7.587   9.591   2.191  0.6150 -0.1119  0.2993
  693MOL0     C91396   7.361   9.019   1.631 -1.1487  0.2092 -0.6824
  693MOL0     C91397   7.333   9.051   1.496  1.0271 -0.2583 -0.1681
  693MOL0     C91398   7.206   9.237   1.106  0.2429  0.8129 -1.5558
  693MOL0     C91399   7.277   9.353   1.075  0.4522 -0.3425 -0.6979
  693MOL0     C91400   7.231   9.444   0.985 -0.2372  0.6621 -1.4998
  693MOL0     C91401   7.121   9.409   0.907  0.6337  0.9088  0.7878
  693MOL0     O91402   7.091   9.479   0.794  0.8030 -0.1201  0.6858
  693MOL0     C91403   6.987   9.569   0.802 -0.4668  0.4052 -1.0155
  693MOL0     C91404   7.037   9.693   0.887  0.2274 -0.7462 -0.0518
  693MOL0     C91405   6.951   9.822   0.858 -0.3850 -0.4356  0.6597
  693MOL0     C91406   6.974   9.935   0.967  0.0900  0.4649  1.5222
  693MOL0     C91407   7.105   9.999   0.938  0.3858 -0.2559 -0.0251
  693MOL0     C91408   7.213  10.054   0.918  0.8487 -0.1544 -0.3335
  693MOL0     C91409   7.050   9.280   0.915  0.4454  1.2007 -0.8137
  693MOL0     C91410   7.105   9.192   1.021  0.1171  0.5337  0.7484
  693MOL0     H91411   7.357   9.382   1.501  1.3520 -1.4329 -3.4892
  693MOL0     H91412   7.391   9.340   1.750 -0.9828  1.4730  0.3856
  693MOL0     H91413   7.428   9.277   1.934  0.0839 -0.0981 -1.2938
  693MOL0     H91414   7.558   9.162   1.956 -0.0464  2.9535 -0.0010
  693MOL0     H91415   7.403   9.195   2.170  1.2491 -1.5497  1.2565
  693MOL0     H91416   7.398   9.030   2.112 -0.3782  0.5873 -1.3617
  693MOL0     H91417   7.169   9.060   2.026 -1.8417  2.0272 -0.9754
  693MOL0     H91418   7.216   9.221   1.962 -2.1224 -1.9189 -2.1480
  693MOL0     H91419   7.033   9.174   2.154  1.5270 -1.5930 -1.3192
  693MOL0     H91420   7.165   9.184   2.263 -2.1505 -4.7934 -0.6339
  693MOL0     H91421   7.056   9.410   2.233 -1.1224  0.2151 -2.2361
  693MOL0     H91422   7.048   9.395   2.071 -0.6414 -0.1421  1.9148
  693MOL0     H91423   7.308   9.424   2.079 -5.0206  0.1331 -3.0233
  693MOL0     H91424   7.289   9.395   2.267  0.9130 -1.8541 -1.1304
  693MOL0     H91425   7.216   9.643   2.102  1.8058  0.8981  0.4851
  693MOL0     H91426   7.157   9.601   2.263 -0.0590  2.2725  0.4320
  693MOL0     H91427   7.381   9.596   2.350 -2.6419 -0.1797  0.2188
  693MOL0     H91428   7.331   9.751   2.297 -1.0778 -1.4682  4.0451
  693MOL0     H91429   7.418   9.813   2.011  2.1738  1.5421  0.2775
  693MOL0     H91430   7.780   9.770   1.920 -0.1202 -0.0434 -2.6114
  693MOL0     H91431   7.628   9.846   1.875  0.3430  1.4977 -1.0118
  693MOL0     H91432   7.732   9.705   1.677 -1.5456  0.0789 -1.3723
  693MOL0     H91433   7.568   9.664   1.742  1.1958  0.7369 -2.8474
  693MOL0     H91434   7.827   9.495   1.804  0.4765 -0.8669  0.4649
  693MOL0     H91435   7.661   9.460   1.848  0.5550 -1.6974 -1.0147
  693MOL0     H91436   7.623   9.485   1.596 -1.5672 -1.9115 -0.2775
  693MOL0     H91437   7.674   9.335   1.675  0.1830  0.1520  3.2929
  693MOL0     H91438   8.032   9.387   1.422 -0.4980  1.0880 -0.8776
  693MOL0     H91439   8.041   9.301   1.206 -0.6335  1.7634 -1.0030
  693MOL0     H91440   7.785   9.204   0.778 -1.4309 -1.6473 -1.0910
  693MOL0     H91441   7.815   9.111   0.564  1.6937  3.3896  1.6002
  693MOL0     H91442   7.964   8.905   0.309 -0.2412 -0.5118 -0.3134
  693MOL0     H91443   7.898   9.045   0.386  1.1514 -0.3273 -1.2849
  693MOL0     H91444   7.720   8.858   0.481 -1.3700  0.3858 -0.3544
  693MOL0     H91445   7.796   8.762   0.353  1.9443 -0.2637  2.8156
  693MOL0     H91446   7.741   8.948   0.194  1.8443  0.5900  1.5393
  693MOL0     H91447   7.656   9.047   0.309 -2.2618 -0.1107  1.2063
  693MOL0     H91448   7.537   8.778   0.205 -3.1195 -1.1747  1.6869
  693MOL0     H91449   7.485   8.853   0.347  0.2653  1.6701  0.3121
  693MOL0     H91450   7.503   8.952   0.054 -0.1776 -2.8471  1.0261
  693MOL0     H91451   7.478   9.071   0.172 -3.7193  0.3858  0.6553
  693MOL0     H91452   7.281   8.849   0.124 -0.1368  0.2187 -2.2381
  693MOL0     H91453   7.270   9.025   0.093 -1.4447 -0.8504  0.1580
  693MOL0     H91454   7.273   8.893   0.369 -1.2957 -1.2225 -1.6625
  693MOL0     H91455   7.251   9.069   0.333  0.8219 -0.0420  0.6101
  693MOL0     H91456   7.088   8.845   0.209  0.7049 -0.8460  0.3972
  693MOL0     H91457   7.039   9.013   0.218  2.8367  2.4314 -1.3443
  693MOL0     H91458   8.100   8.837   0.731 -0.0249 -0.6134 -0.0788
  693MOL0     H91459   8.081   8.924   0.933  1.9925 -3.4174 -3.6944
  693MOL0     H91460   7.628   9.190   1.233  0.9532 -1.1245 -0.0938
  693MOL0     H91461   7.610   9.308   1.444  0.2190  0.0122 -0.8783
  693MOL0     H91462   7.371   8.913   1.653 -1.7956  0.5654  1.6257
  693MOL0     H91463   7.319   8.963   1.435  1.8996  0.6362 -1.7312
  693MOL0     H91464   7.363   9.374   1.139 -0.4227 -0.5366  0.5900
  693MOL0     H91465   7.291   9.534   0.973  4.2917 -0.8608  4.6814
  693MOL0     H91466   6.894   9.536   0.850 -0.6528  1.9110 -0.2624
  693MOL0     H91467   6.950   9.601   0.705 -2.2046  0.0015 -0.5269
  693MOL0     H91468   7.034   9.668   0.993 -0.1163 -0.9962 -0.1173
  693MOL0     H91469   7.141   9.712   0.859  0.2835 -0.2380  0.4915
  693MOL0     H91470   6.845   9.801   0.844 -0.4287 -0.8543  1.5407
  693MOL0     H91471   6.983   9.871   0.765 -1.4479  0.7046  0.8638
  693MOL0     H91472   6.907  10.020   0.951  1.0184  1.0263  0.5293
  693MOL0     H91473   6.963   9.878   1.060 -2.2949 -0.9024  0.4932
  693MOL0     H91474   7.309  10.095   0.895  2.3380 -1.1917  3.4090
  693MOL0     H91475   6.976   9.256   0.840  1.6421  0.7565 -1.8757
  693MOL0     H91476   7.049   9.099   1.032 -0.8414  0.8998 -0.7341
  694MOL0     O91477  11.071   6.491   4.908 -0.5198  1.0913 -0.0763
  694MOL0     C91478  11.028   6.401   4.982  0.4293 -0.0981 -0.6743
  694MOL0     O91479  10.899   6.361   4.986  0.1545  0.5572  0.2707
  694MOL0     C91480  10.805   6.422   4.906  0.3957  0.6637 -0.6005
  694MOL0     C91481  10.787   6.564   4.918  0.1853  0.3204 -0.1698
  694MOL0     C91482  10.687   6.628   4.848 -0.0278 -0.2695  0.3289
  694MOL0     C91483  10.615   6.551   4.751  0.0438  0.2723 -0.5764
  694MOL0     O91484  10.505   6.607   4.708  0.3743 -0.5420 -0.3220
  694MOL0     C91485  10.470   6.580   4.576  1.2942 -0.5602 -0.9354
  694MOL0     C91486  10.412   6.705   4.519 -0.4039  0.5003 -0.3213
  694MOL0     C91487  10.507   6.830   4.525  1.1050  0.7052  0.0067
  694MOL0     C91488  10.560   6.873   4.387 -0.1254  0.1875 -0.2475
  694MOL0     C91489  10.660   6.769   4.322  1.1194  0.1619  0.6536
  694MOL0     C91490  10.798   6.779   4.389 -0.0961 -0.6833 -0.5359
  694MOL0     C91491  10.855   6.640   4.421 -0.6717 -0.8773  1.5434
  694MOL0     C91492  10.962   6.633   4.526 -0.1835  0.8304 -0.8870
  694MOL0     N91493  11.087   6.679   4.486  0.5149  0.2757 -0.8709
  694MOL0     C91494  11.205   6.620   4.527  0.1189  0.1808  0.3480
  694MOL0     C91495  11.301   6.685   4.459 -0.8644  0.6618 -0.4622
  694MOL0     C91496  11.450   6.689   4.472 -0.4268 -0.2954 -0.2430
  694MOL0     C91497  11.525   6.682   4.334  0.2921  0.0238 -1.0183
  694MOL0     C91498  11.566   6.824   4.279  1.0506  0.6072 -0.2752
  694MOL0     C91499  11.605   6.824   4.126 -0.1756  0.0152 -0.4017
  694MOL0     O91500  11.743   6.778   4.122  0.2160  0.2061 -0.2086
  694MOL0     C91501  11.802   6.798   4.005 -0.0997 -0.5440  0.7374
  694MOL0     C91502  11.933   6.849   4.010 -0.2495 -0.4692 -0.0927
  694MOL0     C91503  12.010   6.871   3.893  1.5520 -0.6992  0.1007
  694MOL0     C91504  11.958   6.871   3.766  0.0953 -0.4846  0.2305
  694MOL0     C91505  12.033   6.925   3.655  0.4306 -0.0359  0.9744
  694MOL0     O91506  12.161   6.956   3.671 -0.2279 -0.0790  0.1612
  694MOL0     C91507  12.246   6.984   3.562 -0.1654  0.2420  0.0539
  694MOL0     C91508  12.353   7.066   3.595 -0.1560 -0.2021 -0.6291
  694MOL0     C91509  12.442   7.116   3.504 -0.0495 -0.4270 -0.7838
  694MOL0     C91510  12.439   7.081   3.372  0.5534  0.1302  1.0127
  694MOL0     O91511  12.536   7.112   3.272 -0.0524 -1.3050  0.4322
  694MOL0     C91512  12.675   7.128   3.326  0.2619 -0.4933  0.0511
  694MOL0     C91513  12.741   6.989   3.336  0.1468 -0.4370 -0.2002
  694MOL0     C91514  12.762   6.928   3.202 -0.6778  0.6137 -0.3627
  694MOL0     C91515  12.815   6.780   3.217  0.6474 -0.3972  0.4289
  694MOL0     C91516  12.823   6.700   3.084  0.5975  0.5652  0.4102
  694MOL0     C91517  12.919   6.759   2.982  1.0384  0.7106  1.2615
  694MOL0     C91518  13.056   6.768   3.038 -0.8267  0.3415 -0.5123
  694MOL0     C91519  13.165   6.801   2.942  0.6173 -1.0844  0.3002
  694MOL0    Cl91520  13.154   6.981   2.916 -0.1817 -0.1654 -0.0562
  694MOL0     C91521  12.329   6.999   3.330  0.4966  0.0689  0.1848
  694MOL0     C91522  12.238   6.952   3.425  0.6011  0.3228 -0.0451
  694MOL0     O91523  11.968   6.938   3.548 -0.7098  0.3125 -0.4616
  694MOL0     C91524  11.824   6.820   3.762 -0.5668 -0.2294  0.4286
  694MOL0     C91525  11.743   6.783   3.871 -0.5432  0.2293  0.5560
  694MOL0     N91526  11.241   6.775   4.384  0.4779 -0.6494 -0.1028
  694MOL0     N91527  11.116   6.761   4.383  0.7871  0.8999  0.5454
  694MOL0     C91528  10.641   6.413   4.741  0.1950  0.0295 -0.1074
  694MOL0     C91529  10.737   6.344   4.818  0.1830  0.0214  0.3209
  694MOL0     C91530  11.117   6.300   5.046  0.0528  1.1843  0.4588
  694MOL0     C91531  11.247   6.334   5.055  1.4567  0.3004 -1.3040
  694MOL0     C91532  11.341   6.257   5.107 -0.1902  0.2075  0.9471
  694MOL0     C91533  11.304   6.136   5.171  0.7403 -0.4440 -0.1006
  694MOL0     O91534  11.390   6.051   5.239  0.0243  0.0568  0.1305
  694MOL0     C91535  11.532   6.071   5.258  0.5167  0.7050 -0.7627
  694MOL0     C91536  11.636   5.956   5.236 -0.2320 -0.0981 -0.6690
  694MOL0     C91537  11.617   5.863   5.114  0.5352  0.0127  0.7845
  694MOL0     C91538  11.597   5.943   4.986 -0.1141 -0.5203 -0.3038
  694MOL0     C91539  11.624   5.854   4.875 -1.4419 -0.3511 -0.9795
  694MOL0     C91540  11.658   5.783   4.784  0.4937 -0.1153  0.8496
  694MOL0     C91541  11.169   6.100   5.174  0.8605  0.4629  0.0797
  694MOL0     C91542  11.074   6.183   5.107 -0.2395 -0.8956 -0.1537
  694MOL0     H91543  10.855   6.609   4.989  1.4629 -3.0753  0.9706
  694MOL0     H91544  10.655   6.730   4.866 -0.5324 -0.3676  0.0081
  694MOL0     H91545  10.390   6.505   4.573 -0.0428  0.8247 -1.7461
  694MOL0     H91546  10.554   6.546   4.516 -0.6864 -2.7305 -2.6516
  694MOL0     H91547  10.320   6.730   4.574 -1.6165 -0.3408 -1.8710
  694MOL0     H91548  10.379   6.682   4.417  1.7043  2.8015 -1.6201
  694MOL0     H91549  10.591   6.810   4.591  2.9567 -2.5509 -2.9870
  694MOL0     H91550  10.443   6.911   4.561 -0.9410 -1.7354  2.3188
  694MOL0     H91551  10.478   6.894   4.319  0.3863  1.0027 -0.6239
  694MOL0     H91552  10.618   6.964   4.405  0.8199 -0.5711  0.7094
  694MOL0     H91553  10.662   6.793   4.216 -2.0891  1.8023  0.8384
  694MOL0     H91554  10.618   6.668   4.321  2.1769 -0.3716 -2.6675
  694MOL0     H91555  10.803   6.837   4.482  0.7032  2.8426 -2.5918
  694MOL0     H91556  10.868   6.831   4.322 -3.1247  4.3050 -0.3374
  694MOL0     H91557  10.774   6.574   4.454 -0.0121 -4.1626 -2.5545
  694MOL0     H91558  10.895   6.591   4.332  0.2721  2.5780 -0.1266
  694MOL0     H91559  10.967   6.526   4.545  0.1128  1.0504  0.3620
  694MOL0     H91560  10.930   6.676   4.622 -1.3526  2.7113 -2.0479
  694MOL0     H91561  11.224   6.558   4.614  0.1575  0.5752  0.6223
  694MOL0     H91562  11.493   6.610   4.534  0.6805  1.4300  1.2970
  694MOL0     H91563  11.467   6.784   4.524 -0.1986 -0.1398 -0.5971
  694MOL0     H91564  11.469   6.618   4.265  2.6936 -1.0476 -2.1145
  694MOL0     H91565  11.621   6.635   4.357 -0.7445 -1.5034  0.4815
  694MOL0     H91566  11.478   6.889   4.278  0.3456 -0.1187 -4.7331
  694MOL0     H91567  11.649   6.860   4.340  2.0171 -1.4133 -0.3164
  694MOL0     H91568  11.593   6.922   4.080  2.0074  0.6901  0.3324
  694MOL0     H91569  11.551   6.753   4.063 -0.7443 -0.0465  0.1487
  694MOL0     H91570  11.980   6.878   4.104  1.4513  0.1511 -1.0887
  694MOL0     H91571  12.116   6.891   3.907  1.7566 -1.5565 -0.1768
  694MOL0     H91572  12.378   7.077   3.701  0.8001 -1.3204 -0.7204
  694MOL0     H91573  12.528   7.158   3.556 -1.2503  2.6111 -1.0509
  694MOL0     H91574  12.679   7.190   3.416 -0.9726  0.6994 -0.6805
  694MOL0     H91575  12.734   7.193   3.262 -2.8143  0.2295 -2.2910
  694MOL0     H91576  12.686   6.924   3.405 -3.0945  0.7386 -1.4848
  694MOL0     H91577  12.838   7.011   3.382 -0.6547 -0.3536  1.5716
  694MOL0     H91578  12.837   6.994   3.157 -0.4849  1.5839  1.3091
  694MOL0     H91579  12.666   6.911   3.152 -1.2941 -1.2057  1.3330
  694MOL0     H91580  12.913   6.777   3.265  0.3884 -0.6429  0.9381
  694MOL0     H91581  12.741   6.732   3.281 -0.9641  1.6537  0.2023
  694MOL0     H91582  12.723   6.698   3.040  0.3524  0.7044  0.9547
  694MOL0     H91583  12.845   6.595   3.108  0.9104  0.9784  2.0298
  694MOL0     H91584  12.884   6.860   2.959 -3.5888 -0.4944  1.9980
  694MOL0     H91585  12.914   6.694   2.894 -0.4767 -1.8091  3.0733
  694MOL0     H91586  13.056   6.854   3.106  2.4601  1.5147 -1.7887
  694MOL0     H91587  13.084   6.671   3.082 -0.5636  0.7807  0.3103
  694MOL0     H91588  13.146   6.753   2.846 -0.5854  1.2921 -0.7537
  694MOL0     H91589  13.265   6.772   2.974  1.6875  0.3207 -1.5415
  694MOL0     H91590  12.323   6.966   3.227  0.1500 -1.7989  0.7748
  694MOL0     H91591  12.165   6.889   3.373  1.0703 -0.3811  0.1314
  694MOL0     H91592  11.769   6.806   3.670  0.3798  2.0032 -0.5585
  694MOL0     H91593  11.644   6.755   3.837  0.1381  1.0340 -2.3980
  694MOL0     H91594  10.578   6.352   4.677  4.8727 -3.0601 -2.4079
  694MOL0     H91595  10.748   6.236   4.810  3.3149  0.1683  1.2317
  694MOL0     H91596  11.274   6.438   5.039 -2.0661  1.6560  0.3815
  694MOL0     H91597  11.440   6.299   5.121 -1.1090  1.6099  4.2283
  694MOL0     H91598  11.551   6.108   5.359  1.7902  1.0946 -1.1263
  694MOL0     H91599  11.569   6.151   5.194  1.4731 -0.2909 -1.5153
  694MOL0     H91600  11.737   5.994   5.218  0.2849 -0.1192  1.7980
  694MOL0     H91601  11.655   5.889   5.320 -0.9245 -3.2995 -2.8849
  694MOL0     H91602  11.527   5.802   5.121 -0.7948  1.8155  0.2503
  694MOL0     H91603  11.700   5.792   5.123 -1.8028 -2.6384  6.3488
  694MOL0     H91604  11.492   5.973   4.982 -0.2910 -1.2208 -1.1798
  694MOL0     H91605  11.655   6.036   4.987  0.4278 -0.8078  2.2384
  694MOL0     H91606  11.683   5.722   4.700 -1.7937  3.2667 -2.6092
  694MOL0     H91607  11.143   6.005   5.219 -0.0733  1.4879  1.8115
  694MOL0     H91608  10.974   6.142   5.097  1.2021 -4.8310 -0.5228
  695MOL0     O91609   1.732   9.411   8.016  0.6425 -0.3424  0.0580
  695MOL0     C91610   1.660   9.448   8.115  0.4700  0.4764  0.1490
  695MOL0     O91611   1.532   9.401   8.150  0.1933  0.4176  0.0094
  695MOL0     C91612   1.469   9.294   8.087  0.5349  0.3237  0.8032
  695MOL0     C91613   1.540   9.181   8.054 -0.2922 -0.3789 -0.3885
  695MOL0     C91614   1.479   9.078   7.983 -0.7197 -0.4113  0.1231
  695MOL0     C91615   1.344   9.091   7.950 -0.7902 -0.3116  1.0115
  695MOL0     O91616   1.271   9.001   7.883  0.1989  0.2280  0.2651
  695MOL0     C91617   1.277   8.869   7.942 -0.7449  0.3514  0.8717
  695MOL0     C91618   1.160   8.777   7.907 -0.2006 -0.9288 -0.2088
  695MOL0     C91619   1.178   8.629   7.949 -0.7378 -0.1984  1.6893
  695MOL0     C91620   1.073   8.514   7.905 -0.8910 -0.5299  0.9776
  695MOL0     C91621   1.123   8.374   7.957 -0.1997  0.4063  0.3959
  695MOL0     C91622   1.020   8.269   7.915 -0.5878  0.1526 -0.6980
  695MOL0     C91623   1.054   8.125   7.950 -0.1507 -0.0815  0.1359
  695MOL0     C91624   0.952   8.031   7.892  0.7944 -0.0649  0.0162
  695MOL0     N91625   0.988   7.890   7.923  0.7347  0.3934  0.0951
  695MOL0     C91626   1.069   7.809   7.852 -0.9330 -0.2658  1.6667
  695MOL0     C91627   1.076   7.688   7.922  0.7152  0.2195  0.0108
  695MOL0     C91628   1.155   7.575   7.871  0.1965  1.2764 -0.5035
  695MOL0     C91629   1.073   7.449   7.835 -0.7198  0.2683 -0.6213
  695MOL0     C91630   0.944   7.469   7.748  0.3730  1.4493 -0.5538
  695MOL0     C91631   0.957   7.526   7.608  0.3871 -0.1504  0.1252
  695MOL0     O91632   0.854   7.466   7.524 -0.5225 -0.3795 -0.1913
  695MOL0     C91633   0.876   7.467   7.390  1.4028  0.3207  0.3330
  695MOL0     C91634   0.792   7.382   7.312  0.3716 -0.1968 -1.0056
  695MOL0     C91635   0.797   7.377   7.177  0.1570  0.4340 -0.0774
  695MOL0     C91636   0.883   7.461   7.103 -0.0091  1.3313  0.3100
  695MOL0     C91637   0.888   7.449   6.958 -0.1314  0.1684  0.4287
  695MOL0     O91638   0.808   7.362   6.882  0.6150 -0.0815 -0.3657
  695MOL0     C91639   0.816   7.369   6.746  0.2351 -0.4232 -0.1765
  695MOL0     C91640   0.881   7.267   6.676 -0.5390 -0.5528 -0.0833
  695MOL0     C91641   0.875   7.258   6.539  0.3082  0.0263  0.9865
  695MOL0     C91642   0.811   7.364   6.461  0.5248  0.2879  0.2070
  695MOL0     O91643   0.802   7.368   6.325 -0.8209  0.1476  0.6169
  695MOL0     C91644   0.854   7.257   6.246 -0.0731 -0.5908 -0.2993
  695MOL0     C91645   0.812   7.285   6.102 -0.9269 -0.3760 -0.8313
  695MOL0     C91646   0.837   7.151   6.024  0.0955 -0.6827 -0.2465
  695MOL0     C91647   0.767   7.187   5.894 -1.2268  0.3221  0.3565
  695MOL0     C91648   0.779   7.073   5.798  0.2984  0.3189  0.7016
  695MOL0     C91649   0.762   7.116   5.658  0.9639  1.2335 -0.1606
  695MOL0     C91650   0.806   7.009   5.563  0.8411 -0.2452 -0.0658
  695MOL0     C91651   0.764   7.048   5.425 -0.6343 -0.3186  0.0542
  695MOL0    Cl91652   0.709   6.904   5.327 -0.0926  0.1788 -0.1502
  695MOL0     C91653   0.751   7.475   6.533  0.0368  0.1335 -0.1367
  695MOL0     C91654   0.755   7.471   6.674  0.3132  0.4839 -0.0194
  695MOL0     O91655   0.959   7.534   6.901 -0.1199  0.1486 -0.2799
  695MOL0     C91656   0.967   7.550   7.174 -0.8981  0.2167 -0.0117
  695MOL0     C91657   0.964   7.556   7.320 -0.1508  1.0378 -0.9828
  695MOL0     N91658   0.990   7.703   8.035  0.3322  1.4193  0.3547
  695MOL0     N91659   0.941   7.823   8.033  0.4687  0.2417 -0.9328
  695MOL0     C91660   1.275   9.203   7.980 -0.7663 -0.5160  0.3352
  695MOL0     C91661   1.334   9.305   8.039  0.0580 -1.0228 -0.0870
  695MOL0     C91662   1.712   9.559   8.198  0.2676 -0.2776 -0.1730
  695MOL0     C91663   1.805   9.642   8.150  0.4237 -0.1364  0.1127
  695MOL0     C91664   1.856   9.736   8.232  0.2320  0.0358  0.1486
  695MOL0     C91665   1.818   9.757   8.366  0.1322 -0.1525 -0.2588
  695MOL0     O91666   1.871   9.857   8.451  0.1548 -0.1731 -0.4548
  695MOL0     C91667   1.995   9.917   8.416 -0.2137  0.1647  0.4421
  695MOL0     C91668   2.039  10.011   8.534  0.2035 -0.0565  1.0873
  695MOL0     C91669   2.187  10.050   8.524 -0.5317  0.3443 -0.5792
  695MOL0     C91670   2.220  10.181   8.585  0.9016 -0.9798 -0.1300
  695MOL0     C91671   2.228  10.154   8.725 -0.2399  0.4458  0.3740
  695MOL0     C91672   2.230  10.122   8.839  0.5773 -0.3765 -0.4636
  695MOL0     C91673   1.725   9.667   8.416 -0.6515  0.7716  0.3717
  695MOL0     C91674   1.683   9.557   8.334  0.2420 -0.6120 -0.0968
  695MOL0     H91675   1.643   9.173   8.085 -0.3863  1.2024  0.3865
  695MOL0     H91676   1.545   9.002   7.943  1.3329  1.8305 -1.0786
  695MOL0     H91677   1.273   8.880   8.051  3.7703  1.7708  1.1275
  695MOL0     H91678   1.377   8.828   7.923 -0.5490  1.1619  0.1137
  695MOL0     H91679   1.158   8.778   7.797  0.2835  2.1078 -0.2792
  695MOL0     H91680   1.074   8.828   7.949  0.9499 -1.4360  3.0836
  695MOL0     H91681   1.168   8.623   8.058  2.5726 -1.8516  2.0311
  695MOL0     H91682   1.270   8.596   7.900 -0.1472  1.9872  1.2533
  695MOL0     H91683   0.973   8.534   7.943 -0.9540  2.3270 -0.3532
  695MOL0     H91684   1.059   8.511   7.797 -0.7814  2.7025  0.7510
  695MOL0     H91685   1.130   8.383   8.066  1.0926  1.3862  0.2444
  695MOL0     H91686   1.219   8.349   7.912  1.1677  0.1274  3.2173
  695MOL0     H91687   1.016   8.266   7.806 -1.2597 -0.4662 -0.6695
  695MOL0     H91688   0.922   8.292   7.958 -0.5044  1.0868 -0.9994
  695MOL0     H91689   1.152   8.088   7.920 -0.7445 -0.0466 -2.0432
  695MOL0     H91690   1.061   8.091   8.054 -0.2006 -1.0621 -0.1765
  695MOL0     H91691   0.956   8.046   7.783  1.6041 -3.8583 -0.6118
  695MOL0     H91692   0.853   8.058   7.931  0.7616 -1.8395  1.2787
  695MOL0     H91693   1.118   7.845   7.763  1.1786 -2.0240  2.0515
  695MOL0     H91694   1.229   7.545   7.946  2.2971 -1.6762 -3.4667
  695MOL0     H91695   1.207   7.600   7.778 -3.3977  0.3074 -2.9961
  695MOL0     H91696   1.030   7.401   7.924 -0.3809  0.6104 -0.2752
  695MOL0     H91697   1.144   7.383   7.784 -1.2051 -0.1561 -0.7621
  695MOL0     H91698   0.897   7.371   7.744 -3.8579  2.9675  3.3344
  695MOL0     H91699   0.866   7.527   7.799  1.3177  2.2350  0.0393
  695MOL0     H91700   1.052   7.495   7.564  0.2585  1.2185 -1.2066
  695MOL0     H91701   0.959   7.635   7.619  2.7061 -0.2025  0.6671
  695MOL0     H91702   0.721   7.316   7.360 -0.7570  0.7087 -1.3822
  695MOL0     H91703   0.749   7.297   7.122  1.1400 -1.6667  1.9658
  695MOL0     H91704   0.928   7.196   6.743 -0.6617 -2.3102 -1.7816
  695MOL0     H91705   0.933   7.177   6.497 -0.8349  0.0935 -0.8508
  695MOL0     H91706   0.806   7.162   6.271 -2.0103  0.3813 -0.1085
  695MOL0     H91707   0.962   7.245   6.256  0.1887  1.8694  0.5683
  695MOL0     H91708   0.863   7.375   6.064 -1.8732  0.2454 -0.6785
  695MOL0     H91709   0.711   7.326   6.100 -0.5521  0.6342 -0.3303
  695MOL0     H91710   0.801   7.061   6.074 -0.3871 -0.1587  0.3533
  695MOL0     H91711   0.946   7.144   6.017  0.0459 -1.1304 -0.6024
  695MOL0     H91712   0.663   7.217   5.909 -0.3385  3.5658  0.9013
  695MOL0     H91713   0.812   7.272   5.841 -1.8148 -1.7381 -3.8395
  695MOL0     H91714   0.699   7.001   5.816 -0.1340  0.0098 -2.0605
  695MOL0     H91715   0.878   7.027   5.800 -0.4469 -2.2755 -4.2388
  695MOL0     H91716   0.812   7.212   5.639 -1.4713  2.5308 -0.4431
  695MOL0     H91717   0.657   7.145   5.645  0.8888  0.4857 -1.3551
  695MOL0     H91718   0.915   6.997   5.566  0.8229 -0.2854  1.0115
  695MOL0     H91719   0.762   6.913   5.594 -0.9367  0.8089  0.7844
  695MOL0     H91720   0.857   7.085   5.382 -0.0759 -0.9846  0.6567
  695MOL0     H91721   0.690   7.129   5.429  0.9985  1.3299 -1.5321
  695MOL0     H91722   0.714   7.553   6.466  0.9850  1.3245  0.6734
  695MOL0     H91723   0.710   7.551   6.731  0.5222  0.0927  0.7136
  695MOL0     H91724   1.038   7.610   7.118 -2.2457  4.7810  2.6627
  695MOL0     H91725   1.036   7.617   7.372  1.2824 -0.1019 -1.5548
  695MOL0     H91726   1.180   9.212   7.928  0.4264 -1.8836 -2.2709
  695MOL0     H91727   1.276   9.395   8.056  1.6288  0.1769 -0.8058
  695MOL0     H91728   1.833   9.643   8.046 -1.1584  0.0874 -0.3431
  695MOL0     H91729   1.933   9.798   8.187 -0.5550 -0.4161 -1.9213
  695MOL0     H91730   1.985   9.976   8.324 -3.9977  0.2418  0.7513
  695MOL0     H91731   2.073   9.840   8.406 -0.6159 -0.0638 -1.1339
  695MOL0     H91732   1.962  10.088   8.542 -1.6625 -1.4560 -1.6925
  695MOL0     H91733   2.024   9.950   8.624 -0.5156 -0.0153  1.0055
  695MOL0     H91734   2.210  10.064   8.418  1.8137 -2.2154 -0.5391
  695MOL0     H91735   2.247   9.973   8.574  1.8316  2.8431  0.6738
  695MOL0     H91736   2.319  10.217   8.555  0.9933  1.8196  2.9788
  695MOL0     H91737   2.140  10.254   8.573 -0.7398 -2.7839 -0.7592
  695MOL0     H91738   2.217  10.093   8.941  2.7836 -1.2691 -0.3820
  695MOL0     H91739   1.680   9.672   8.515  0.4022  0.8628  0.8640
  695MOL0     H91740   1.619   9.483   8.382  1.2542 -1.0722  0.5939
  696MOL0     O91741   6.752  10.891   6.156 -0.0862  0.3078  0.3261
  696MOL0     C91742   6.749  10.882   6.038  0.3803  0.4883 -0.1213
  696MOL0     O91743   6.672  10.956   5.951  0.2360 -0.6930  0.5852
  696MOL0     C91744   6.637  11.092   5.974  0.6619 -0.7762 -0.1114
  696MOL0     C91745   6.509  11.135   5.930  0.1559 -0.7064 -1.0130
  696MOL0     C91746   6.466  11.253   5.985  0.5769 -0.1278 -0.6353
  696MOL0     C91747   6.541  11.337   6.067 -0.2525 -0.9487 -0.2613
  696MOL0     O91748   6.493  11.461   6.115 -0.2748  0.0076  0.3021
  696MOL0     C91749   6.404  11.531   6.024 -0.5115  0.1061 -0.8815
  696MOL0     C91750   6.289  11.585   6.107  0.4461  0.7965 -0.0544
  696MOL0     C91751   6.315  11.710   6.193  0.3228 -0.1315  0.2320
  696MOL0     C91752   6.182  11.750   6.253  0.8500 -0.2393 -0.1865
  696MOL0     C91753   6.172  11.828   6.380  0.1456 -0.1027 -0.0861
  696MOL0     C91754   6.273  11.789   6.484  0.0906 -0.4718  0.1844
  696MOL0     C91755   6.225  11.809   6.627 -0.4617 -0.7202  0.1010
  696MOL0     C91756   6.325  11.762   6.734 -1.4742 -0.6846 -1.2299
  696MOL0     N91757   6.433  11.864   6.746 -0.3679  0.0061 -0.3373
  696MOL0     C91758   6.426  12.006   6.767  0.6319 -0.2105  0.2074
  696MOL0     C91759   6.553  12.051   6.783 -0.1651  0.4106 -0.3116
  696MOL0     C91760   6.597  12.188   6.799  0.5438  0.8240  0.0378
  696MOL0     C91761   6.626  12.247   6.662 -0.2473 -1.0469  0.3884
  696MOL0     C91762   6.492  12.279   6.593  0.4528 -0.1002  0.9296
  696MOL0     C91763   6.498  12.426   6.526 -0.3722  0.7677  0.0357
  696MOL0     O91764   6.526  12.514   6.621  0.9196 -0.0271 -1.1319
  696MOL0     C91765   6.546  12.640   6.590  0.9471 -0.7832  0.2189
  696MOL0     C91766   6.667  12.706   6.619 -0.1897  0.3516  0.4242
  696MOL0     C91767   6.679  12.849   6.594  0.0499 -0.1913  0.3155
  696MOL0     C91768   6.573  12.928   6.539  0.7602  0.2180  0.3689
  696MOL0     C91769   6.588  13.069   6.526 -1.3215 -0.1671  0.0861
  696MOL0     O91770   6.715  13.117   6.519  0.1665 -0.0303  0.6997
  696MOL0     C91771   6.735  13.253   6.515 -0.9695  0.5130 -0.1420
  696MOL0     C91772   6.757  13.301   6.385  0.5461  0.2479 -0.0289
  696MOL0     C91773   6.749  13.440   6.364  0.1596 -0.2111  0.2825
  696MOL0     C91774   6.735  13.529   6.479  0.1898  1.2054  0.1716
  696MOL0     O91775   6.723  13.665   6.467  0.0303 -0.2476  0.0944
  696MOL0     C91776   6.818  13.724   6.376 -0.0352 -0.1966 -0.9946
  696MOL0     C91777   6.823  13.881   6.396  0.0071 -0.3472  0.1984
  696MOL0     C91778   6.689  13.947   6.374  0.6795  0.7195  1.0635
  696MOL0     C91779   6.654  13.942   6.219 -0.0871  0.2894  0.2897
  696MOL0     C91780   6.611  14.079   6.173  0.5598  0.5035  0.3941
  696MOL0     C91781   6.561  14.091   6.027  0.5873 -0.4733  0.2003
  696MOL0     C91782   6.533  14.238   6.006  0.1951 -0.0259  0.6857
  696MOL0     C91783   6.461  14.258   5.870  0.2463  0.4792 -0.7212
  696MOL0    Cl91784   6.555  14.193   5.725 -0.3659 -0.1176 -0.3630
  696MOL0     C91785   6.720  13.479   6.606 -0.0654 -0.2601  0.2407
  696MOL0     C91786   6.703  13.337   6.625 -0.0549 -0.5692  1.0044
  696MOL0     O91787   6.488  13.137   6.516 -0.5529 -0.2718 -0.4139
  696MOL0     C91788   6.450  12.861   6.509 -0.4976 -0.0042 -0.1838
  696MOL0     C91789   6.443  12.711   6.528 -0.3715  0.5853  0.5464
  696MOL0     N91790   6.634  11.939   6.784  0.2910 -0.0695  0.4701
  696MOL0     N91791   6.570  11.831   6.752  0.4174 -0.5147 -0.3021
  696MOL0     C91792   6.675  11.312   6.091 -0.2781  0.2619  0.0071
  696MOL0     C91793   6.718  11.177   6.052  0.0788 -0.5649  0.8236
  696MOL0     C91794   6.837  10.775   5.981  0.6499 -0.0139 -0.6883
  696MOL0     C91795   6.938  10.728   6.058 -0.3319  0.3002  0.2346
  696MOL0     C91796   7.026  10.629   6.001 -0.6980 -0.0164 -1.2130
  696MOL0     C91797   7.005  10.590   5.866  0.2374  0.3363 -0.3932
  696MOL0     O91798   7.095  10.496   5.808  1.0307 -1.1869  0.5946
  696MOL0     C91799   7.047  10.365   5.821 -0.2862  0.0770  0.8325
  696MOL0     C91800   7.173  10.287   5.858  0.0642 -0.4867 -0.4522
  696MOL0     C91801   7.153  10.138   5.872 -0.3793 -0.5793  0.3579
  696MOL0     C91802   7.281  10.064   5.910  0.1840 -0.0520  0.7012
  696MOL0     C91803   7.309  10.100   6.043  1.0243  0.1612 -0.6774
  696MOL0     C91804   7.340  10.129   6.148 -0.1811 -0.4956 -0.3968
  696MOL0     C91805   6.901  10.636   5.787 -0.3402  0.1702  0.0720
  696MOL0     C91806   6.813  10.724   5.847  0.6026 -0.8883  0.7219
  696MOL0     H91807   6.428  11.075   5.890 -1.8193  2.0722 -1.5120
  696MOL0     H91808   6.361  11.279   5.989  1.0665  1.9700  2.3794
  696MOL0     H91809   6.360  11.469   5.945 -0.2062 -2.3713  0.7947
  696MOL0     H91810   6.460  11.600   5.961  0.3391  0.0419 -0.2146
  696MOL0     H91811   6.234  11.505   6.157 -2.2472  2.2555 -0.4674
  696MOL0     H91812   6.206  11.612   6.041 -0.3221 -3.0589 -0.9081
  696MOL0     H91813   6.347  11.796   6.134 -0.8112  2.4729  3.0949
  696MOL0     H91814   6.383  11.685   6.276  1.9593 -1.2315 -1.3580
  696MOL0     H91815   6.118  11.803   6.182 -1.8430 -1.1420  1.4265
  696MOL0     H91816   6.121  11.660   6.266  1.6023 -0.3900  3.0184
  696MOL0     H91817   6.074  11.802   6.421  0.7387  0.6050  1.9022
  696MOL0     H91818   6.181  11.931   6.346 -3.7878  0.3498 -0.2117
  696MOL0     H91819   6.364  11.850   6.478  0.0730 -0.5999 -2.1594
  696MOL0     H91820   6.289  11.683   6.463  1.1729 -0.6654  1.8090
  696MOL0     H91821   6.188  11.909   6.653 -1.5738 -1.8243  3.1152
  696MOL0     H91822   6.133  11.751   6.640 -1.8330 -0.1632 -4.8052
  696MOL0     H91823   6.379  11.669   6.712 -2.0118 -0.9253 -1.5468
  696MOL0     H91824   6.279  11.753   6.832 -3.7407  0.0543 -2.1470
  696MOL0     H91825   6.339  12.070   6.771  0.0002 -0.6100 -3.6529
  696MOL0     H91826   6.687  12.188   6.861  2.1785  1.0725 -2.2004
  696MOL0     H91827   6.524  12.247   6.856  1.7676 -0.1581  2.8183
  696MOL0     H91828   6.676  12.175   6.597  0.1412 -2.0113  1.7106
  696MOL0     H91829   6.692  12.335   6.670 -2.7546  1.0741 -0.7829
  696MOL0     H91830   6.474  12.210   6.510  1.7219 -0.2471  0.7454
  696MOL0     H91831   6.412  12.284   6.667  0.3936 -0.4928  0.8933
  696MOL0     H91832   6.394  12.453   6.505  0.5865  3.5478 -1.5556
  696MOL0     H91833   6.554  12.444   6.435 -1.4323  1.9957 -0.4005
  696MOL0     H91834   6.745  12.643   6.661  0.3611  3.1288  3.9649
  696MOL0     H91835   6.770  12.901   6.623  0.8326  0.4118 -2.8646
  696MOL0     H91836   6.767  13.231   6.303  0.2608 -0.1180  0.2489
  696MOL0     H91837   6.756  13.477   6.262  1.5705  0.6044  0.6570
  696MOL0     H91838   6.798  13.707   6.270  1.5131  0.2488 -1.3919
  696MOL0     H91839   6.922  13.694   6.392 -0.9491 -2.0651  2.2060
  696MOL0     H91840   6.904  13.935   6.345  0.3627 -0.1367  0.9704
  696MOL0     H91841   6.847  13.904   6.500  0.7854  6.0498 -0.9723
  696MOL0     H91842   6.686  14.052   6.404 -0.7958  1.2922 -0.8679
  696MOL0     H91843   6.609  13.886   6.419  0.8504 -1.1089 -0.9625
  696MOL0     H91844   6.748  13.931   6.163  1.4389  2.2640  2.2654
  696MOL0     H91845   6.584  13.863   6.190  3.5890 -1.5206 -5.3775
  696MOL0     H91846   6.694  14.149   6.183  1.2795 -0.4399  1.2889
  696MOL0     H91847   6.534  14.100   6.248 -0.6451 -1.4836 -0.1972
  696MOL0     H91848   6.467  14.041   6.003  1.1356 -1.6034  0.3204
  696MOL0     H91849   6.637  14.051   5.959 -0.1775  1.1434 -1.6886
  696MOL0     H91850   6.469  14.281   6.084 -0.1766 -0.2507  0.5104
  696MOL0     H91851   6.627  14.292   6.014  0.1077 -0.1668  3.7480
  696MOL0     H91852   6.438  14.362   5.843 -1.8278 -0.0504 -1.1310
  696MOL0     H91853   6.366  14.204   5.875  0.4085  0.2393 -0.0789
  696MOL0     H91854   6.683  13.542   6.686 -0.3908 -2.8639  2.3006
  696MOL0     H91855   6.668  13.289   6.716 -1.3843  0.7023  1.1977
  696MOL0     H91856   6.372  12.922   6.465 -2.5180 -2.4388 -0.1883
  696MOL0     H91857   6.341  12.677   6.510  0.3917 -0.0365 -3.7754
  696MOL0     H91858   6.727  11.394   6.138  0.7270  0.2706 -1.0932
  696MOL0     H91859   6.817  11.142   6.078 -0.4484 -2.8109  0.1132
  696MOL0     H91860   6.926  10.740   6.166  1.0121 -2.6561  0.7881
  696MOL0     H91861   7.095  10.574   6.065 -0.3953  1.5289 -0.1597
  696MOL0     H91862   7.012  10.324   5.725  4.7046 -5.0545  0.7099
  696MOL0     H91863   6.966  10.347   5.892 -0.4716  0.4461  0.7190
  696MOL0     H91864   7.249  10.309   5.783  0.4523 -4.0238 -1.2790
  696MOL0     H91865   7.209  10.321   5.955  1.6072 -3.0911 -0.0294
  696MOL0     H91866   7.110  10.119   5.773 -0.0377  1.0657 -0.1503
  696MOL0     H91867   7.074  10.120   5.946 -1.6348 -3.3211 -1.4995
  696MOL0     H91868   7.261   9.957   5.898  2.6271 -0.4889  0.0919
  696MOL0     H91869   7.368  10.086   5.848  1.5214 -3.0089  1.3462
  696MOL0     H91870   7.363  10.154   6.249 -5.9101  0.4538  1.0527
  696MOL0     H91871   6.895  10.609   5.682  2.8213 -2.8076  0.4815
  696MOL0     H91872   6.736  10.770   5.785  2.6091  4.4564  1.6198
  697MOL0     O91873   6.129   8.298   9.245  0.2948  0.8324 -0.3670
  697MOL0     C91874   6.031   8.375   9.276  0.5599  1.0733  0.0893
  697MOL0     O91875   5.899   8.338   9.254  0.1873  0.1388  0.3006
  697MOL0     C91876   5.883   8.221   9.197  0.0405  0.5869  0.0609
  697MOL0     C91877   5.873   8.201   9.062  0.0992 -0.0403  0.4065
  697MOL0     C91878   5.850   8.068   9.011 -0.8570  0.8872  0.0501
  697MOL0     C91879   5.852   7.959   9.102 -1.4216  0.0590 -0.7725
  697MOL0     O91880   5.825   7.831   9.065  0.1473 -0.1378  0.2018
  697MOL0     C91881   5.688   7.807   9.044  0.7126  0.6242 -0.3899
  697MOL0     C91882   5.643   7.659   9.065  0.3948 -1.0813 -0.1103
  697MOL0     C91883   5.705   7.560   8.971  0.1754 -0.5472  0.0617
  697MOL0     C91884   5.624   7.430   8.974 -0.4318 -0.4670  0.2245
  697MOL0     C91885   5.696   7.317   8.908 -0.5138  0.4038  0.1501
  697MOL0     C91886   5.782   7.234   8.996 -0.1571  0.2968 -0.5490
  697MOL0     C91887   5.815   7.092   8.935 -0.1486  0.4222  0.2693
  697MOL0     C91888   5.938   7.104   8.857  0.2956 -1.5144  0.1592
  697MOL0     N91889   6.008   6.981   8.826 -0.3916 -0.5766 -0.6476
  697MOL0     C91890   6.060   6.895   8.919 -0.7608 -0.4831 -0.1697
  697MOL0     C91891   6.112   6.789   8.849 -0.6274 -0.5793 -0.5748
  697MOL0     C91892   6.159   6.665   8.918  0.5678 -0.9311  0.0385
  697MOL0     C91893   6.261   6.576   8.843 -0.1697 -0.1488  0.3755
  697MOL0     C91894   6.406   6.630   8.837 -0.4069 -0.4978 -0.1443
  697MOL0     C91895   6.508   6.511   8.776  0.1776 -0.3231  0.5868
  697MOL0     O91896   6.641   6.563   8.799  0.5543 -0.2895  0.1735
  697MOL0     C91897   6.743   6.544   8.719  0.4082 -0.3167 -0.4021
  697MOL0     C91898   6.749   6.455   8.616 -0.2585 -0.6481  0.3145
  697MOL0     C91899   6.862   6.434   8.537  1.2499 -0.5691 -0.6556
  697MOL0     C91900   6.975   6.511   8.566  0.6653  0.1802 -0.2149
  697MOL0     C91901   7.105   6.490   8.509 -0.3168  0.6412  0.8295
  697MOL0     O91902   7.108   6.422   8.386  0.2796  0.4384 -0.2865
  697MOL0     C91903   7.225   6.425   8.320 -0.4500  0.5330  0.1314
  697MOL0     C91904   7.341   6.383   8.380 -0.3548  0.5892  0.2916
  697MOL0     C91905   7.467   6.405   8.320  0.1297  0.5903  0.7919
  697MOL0     C91906   7.473   6.458   8.196 -0.3302 -0.3279 -0.1922
  697MOL0     O91907   7.587   6.447   8.116  0.5881 -0.2281  0.6947
  697MOL0     C91908   7.642   6.567   8.069 -0.2595 -0.3753 -0.0802
  697MOL0     C91909   7.725   6.540   7.940 -0.2532 -0.4925 -0.8066
  697MOL0     C91910   7.687   6.413   7.874  0.0969  0.8356  0.7286
  697MOL0     C91911   7.776   6.386   7.747  0.3712 -0.1463 -0.2857
  697MOL0     C91912   7.736   6.265   7.682 -0.4521 -0.3914  0.6491
  697MOL0     C91913   7.746   6.287   7.531  0.0667 -0.3653  0.0210
  697MOL0     C91914   7.688   6.182   7.447  0.3088 -0.0426 -0.2341
  697MOL0     C91915   7.622   6.223   7.322 -0.2791  0.7622  0.1822
  697MOL0    Cl91916   7.476   6.312   7.356 -0.4001  0.1915 -0.3062
  697MOL0     C91917   7.356   6.502   8.136 -0.6274  0.9251  0.6746
  697MOL0     C91918   7.237   6.503   8.201  0.2357 -0.3684 -1.0469
  697MOL0     O91919   7.206   6.547   8.558 -0.0162 -0.6544 -0.8856
  697MOL0     C91920   6.967   6.594   8.679  0.0760 -0.1455  0.2197
  697MOL0     C91921   6.851   6.621   8.750  0.2533  0.3245  0.2004
  697MOL0     N91922   6.087   6.818   8.709 -0.7129  0.0762 -0.0167
  697MOL0     N91923   6.023   6.927   8.706  0.2794  0.6286  0.8845
  697MOL0     C91924   5.868   7.991   9.236  0.2749 -0.0691 -0.0535
  697MOL0     C91925   5.873   8.118   9.288 -0.0121 -0.4794 -0.1395
  697MOL0     C91926   6.056   8.509   9.328  0.7847 -0.5474  0.5739
  697MOL0     C91927   5.974   8.622   9.305 -0.5817  0.1324  0.9498
  697MOL0     C91928   5.989   8.745   9.368 -0.7369 -1.0216 -1.0130
  697MOL0     C91929   6.094   8.763   9.456 -0.0807  0.9495 -0.7589
  697MOL0     O91930   6.115   8.893   9.509  0.2605 -0.6212 -0.4011
  697MOL0     C91931   6.228   8.923   9.596 -0.2646 -0.0408  1.1150
  697MOL0     C91932   6.205   8.896   9.742 -0.4595  0.4650  0.4313
  697MOL0     C91933   6.091   8.974   9.806 -0.0481 -0.3641 -0.2082
  697MOL0     C91934   6.094   9.130   9.788  1.4106  0.8821  0.2071
  697MOL0     C91935   6.223   9.207   9.798  0.0629  0.2591 -0.8143
  697MOL0     C91936   6.329   9.270   9.824  1.2145  0.0214 -0.8496
  697MOL0     C91937   6.169   8.650   9.495 -0.6974  0.4101 -0.6606
  697MOL0     C91938   6.150   8.531   9.425  0.5103  0.1587  0.5599
  697MOL0     H91939   5.882   8.283   8.992  1.5142 -3.1900 -3.4526
  697MOL0     H91940   5.830   8.056   8.904  2.0032  1.9217 -0.6808
  697MOL0     H91941   5.659   7.834   8.942 -0.6327  2.1505  0.3534
  697MOL0     H91942   5.619   7.857   9.113 -3.5768 -5.4574  0.5082
  697MOL0     H91943   5.536   7.670   9.045  0.5962  1.4515 -0.1454
  697MOL0     H91944   5.652   7.633   9.171  3.2638 -2.0697 -0.5275
  697MOL0     H91945   5.809   7.542   9.000 -0.1961 -0.7695  1.3117
  697MOL0     H91946   5.708   7.594   8.867 -1.3129  1.6937  0.6634
  697MOL0     H91947   5.582   7.394   9.068  3.1208 -1.6936  1.4973
  697MOL0     H91948   5.536   7.448   8.910 -1.5098 -4.9118  0.1662
  697MOL0     H91949   5.760   7.345   8.824  0.7089  3.7612  2.0136
  697MOL0     H91950   5.612   7.263   8.862  1.3946 -2.6228 -0.0619
  697MOL0     H91951   5.724   7.202   9.083  0.0791 -0.0859 -0.5321
  697MOL0     H91952   5.875   7.284   9.023 -1.0950  0.4261  2.9086
  697MOL0     H91953   5.816   7.017   9.015  1.1340  2.4532  2.2873
  697MOL0     H91954   5.736   7.060   8.867 -0.2353 -0.3520  0.7153
  697MOL0     H91955   6.014   7.165   8.907  0.0675  0.3728 -1.6461
  697MOL0     H91956   5.908   7.155   8.765 -2.9918  0.2876  2.0035
  697MOL0     H91957   6.070   6.917   9.024  3.6987  0.0357 -0.5259
  697MOL0     H91958   6.070   6.608   8.945 -0.9138  0.6855 -1.1554
  697MOL0     H91959   6.200   6.681   9.018  2.0528 -2.4439 -0.2923
  697MOL0     H91960   6.230   6.569   8.739 -0.5137 -0.1709  0.4783
  697MOL0     H91961   6.259   6.477   8.890 -1.9861 -2.0348 -3.2737
  697MOL0     H91962   6.402   6.724   8.782  3.1754  0.2811  0.6605
  697MOL0     H91963   6.438   6.665   8.936  0.6735  3.2874 -1.6645
  697MOL0     H91964   6.492   6.491   8.670  3.9352  0.3353 -0.2816
  697MOL0     H91965   6.498   6.410   8.816  3.5904 -1.5133 -1.1036
  697MOL0     H91966   6.663   6.393   8.594 -0.2903  0.1621 -2.1069
  697MOL0     H91967   6.870   6.359   8.459  1.5178 -0.5977 -0.6019
  697MOL0     H91968   7.341   6.334   8.477  2.3781 -0.8542 -0.3577
  697MOL0     H91969   7.550   6.382   8.386  0.4927  0.3778  0.2684
  697MOL0     H91970   7.709   6.601   8.148  1.0611 -0.3849 -1.1586
  697MOL0     H91971   7.563   6.642   8.057 -0.2385 -0.1024  1.3431
  697MOL0     H91972   7.828   6.524   7.973 -0.7131  1.6435  1.9817
  697MOL0     H91973   7.729   6.631   7.880 -0.2169  2.5583  3.3858
  697MOL0     H91974   7.583   6.424   7.841 -0.3515 -2.8836  0.4102
  697MOL0     H91975   7.694   6.330   7.945  1.3166  0.8531  0.6600
  697MOL0     H91976   7.773   6.472   7.680  0.5000  1.0079  1.1339
  697MOL0     H91977   7.879   6.379   7.785  0.5764  3.0424  0.0146
  697MOL0     H91978   7.641   6.228   7.722 -0.0150 -2.0798  0.1887
  697MOL0     H91979   7.814   6.191   7.701 -0.9535 -0.9287  0.6409
  697MOL0     H91980   7.841   6.312   7.484 -0.9213  0.4614 -1.6581
  697MOL0     H91981   7.686   6.377   7.514  1.3122  0.7124  1.1334
  697MOL0     H91982   7.772   6.122   7.410  1.1856 -0.8508  2.7665
  697MOL0     H91983   7.641   6.104   7.507  2.5236 -0.0879  1.5753
  697MOL0     H91984   7.587   6.137   7.265  0.8682 -0.2431  0.9333
  697MOL0     H91985   7.698   6.272   7.260 -0.6492  0.7370 -0.2928
  697MOL0     H91986   7.359   6.522   8.030 -0.5858 -2.3554 -0.0575
  697MOL0     H91987   7.147   6.547   8.158 -0.5700 -0.3583  0.5907
  697MOL0     H91988   7.054   6.654   8.706 -1.5363  2.7937 -0.6249
  697MOL0     H91989   6.855   6.678   8.842  1.7481  0.2181  0.2180
  697MOL0     H91990   5.879   7.916   9.313 -0.0638 -0.9785 -0.8790
  697MOL0     H91991   5.891   8.135   9.394  1.2071  0.4609 -0.4691
  697MOL0     H91992   5.892   8.605   9.236 -0.0086 -0.6915  0.4475
  697MOL0     H91993   5.924   8.829   9.349 -0.3462  0.1172  2.0631
  697MOL0     H91994   6.250   9.030   9.588  2.1874 -0.5863 -1.0356
  697MOL0     H91995   6.311   8.866   9.552 -2.3783 -0.5394 -2.7431
  697MOL0     H91996   6.193   8.790   9.764  4.1211 -0.4524 -0.4868
  697MOL0     H91997   6.300   8.926   9.786  0.4478  1.4644 -2.0162
  697MOL0     H91998   6.099   8.971   9.915 -0.6627  3.4113  0.0713
  697MOL0     H91999   5.995   8.928   9.782  0.0262 -1.5533  1.6101
  697MOL0     H92000   6.041   9.140   9.693  1.6325 -1.2537 -0.1989
  697MOL0     H92001   6.028   9.167   9.867 -1.4680 -1.7497 -0.7435
  697MOL0     H92002   6.421   9.313   9.859  1.7890 -2.0606  0.3823
  697MOL0     H92003   6.258   8.660   9.555 -0.0152  2.2717 -1.8754
  697MOL0     H92004   6.216   8.450   9.453 -0.9561 -1.6674 -0.9230
  698MOL0     O92005   3.308   9.811  10.542 -0.1852 -0.5725 -0.8619
  698MOL0     C92006   3.297   9.748  10.643 -0.3655  0.6820  0.0437
  698MOL0     O92007   3.179   9.727  10.718  0.1830 -0.3729  0.3053
  698MOL0     C92008   3.055   9.761  10.660 -1.1750 -0.9990 -0.7411
  698MOL0     C92009   2.971   9.660  10.611 -0.4113 -0.9414  0.0860
  698MOL0     C92010   2.835   9.693  10.569 -0.3143  0.0079 -0.2609
  698MOL0     C92011   2.786   9.826  10.570 -0.3372  0.2770 -1.1880
  698MOL0     O92012   2.656   9.848  10.562 -0.1233  0.3213 -0.2599
  698MOL0     C92013   2.572   9.759  10.495  0.5123  0.3452  0.1855
  698MOL0     C92014   2.436   9.831  10.474 -0.1204  0.3360 -0.1487
  698MOL0     C92015   2.461   9.967  10.391 -0.3832  0.7632 -0.4522
  698MOL0     C92016   2.342  10.058  10.390  0.1630  0.6094  0.1229
  698MOL0     C92017   2.379  10.195  10.350  0.6033 -0.1143 -0.6550
  698MOL0     C92018   2.474  10.272  10.450  1.0683 -0.4836 -0.8295
  698MOL0     C92019   2.463  10.425  10.438  0.0419 -0.1708  0.2560
  698MOL0     C92020   2.502  10.476  10.299  1.0254  0.6463 -0.3701
  698MOL0     N92021   2.543  10.618  10.312  0.2830 -0.3131  0.3449
  698MOL0     C92022   2.446  10.715  10.309  0.4994 -0.4009  0.3425
  698MOL0     C92023   2.510  10.832  10.281  1.3119  0.2926  0.4259
  698MOL0     C92024   2.442  10.973  10.264  0.4794 -0.3994 -0.3845
  698MOL0     C92025   2.418  11.047  10.398 -0.0798  0.5248  0.1468
  698MOL0     C92026   2.289  10.993  10.473  1.1863 -0.4931  0.4067
  698MOL0     C92027   2.242  11.060  10.597 -0.7718  0.3112 -0.3074
  698MOL0     O92028   2.362  11.115  10.666  0.1414  0.1662 -0.2412
  698MOL0     C92029   2.346  11.133  10.805  0.0160  0.4953 -0.1786
  698MOL0     C92030   2.222  11.151  10.869  1.1379  0.6257  0.2149
  698MOL0     C92031   2.223  11.195  11.003  0.2578 -0.3590 -1.0806
  698MOL0     C92032   2.338  11.229  11.068 -0.2754  0.2490 -1.0116
  698MOL0     C92033   2.341  11.259  11.213  0.8193 -0.4749  0.4130
  698MOL0     O92034   2.232  11.226  11.277 -0.4083  0.0017  0.3445
  698MOL0     C92035   2.218  11.261  11.408 -1.1358  0.0453 -0.5422
  698MOL0     C92036   2.313  11.228  11.496 -0.4400 -0.3024 -0.4480
  698MOL0     C92037   2.279  11.245  11.629  0.6472  0.5250  0.1247
  698MOL0     C92038   2.163  11.298  11.683  1.2320 -0.2004  0.3934
  698MOL0     O92039   2.150  11.327  11.821  0.4871  0.8184 -0.3201
  698MOL0     C92040   2.065  11.239  11.894 -1.3605 -0.4822  0.6369
  698MOL0     C92041   2.148  11.130  11.958 -1.0590  0.0921 -0.0195
  698MOL0     C92042   2.233  11.158  12.087  0.1385  0.0351  0.6586
  698MOL0     C92043   2.298  11.031  12.136 -1.1744  0.4905 -0.2903
  698MOL0     C92044   2.401  11.064  12.252 -0.3636  0.5595  0.2964
  698MOL0     C92045   2.465  10.935  12.311 -1.1954  0.7312 -0.2600
  698MOL0     C92046   2.367  10.841  12.376  0.0819 -0.1741 -0.1279
  698MOL0     C92047   2.434  10.742  12.470  0.2006 -0.2555 -0.0504
  698MOL0    Cl92048   2.317  10.619  12.526  0.3589 -0.1481 -0.1200
  698MOL0     C92049   2.071  11.345  11.585  0.7546 -0.5895  0.0251
  698MOL0     C92050   2.092  11.311  11.452 -0.1464  0.4003  0.0549
  698MOL0     O92051   2.437  11.320  11.253 -0.7089  0.2799 -0.7956
  698MOL0     C92052   2.461  11.231  10.994 -0.3313 -0.3903 -0.8750
  698MOL0     C92053   2.460  11.180  10.868 -0.5982  0.1396  0.6259
  698MOL0     N92054   2.643  10.795  10.270 -0.0286  0.4037 -0.4207
  698MOL0     N92055   2.661  10.670  10.307  0.1415  0.8827 -1.0646
  698MOL0     C92056   2.881   9.920  10.614 -0.3847 -0.6556 -0.9061
  698MOL0     C92057   3.010   9.893  10.658  0.0889 -0.0113 -0.3675
  698MOL0     C92058   3.428   9.699  10.698 -1.1751  0.1638  0.2662
  698MOL0     C92059   3.551   9.702  10.624  0.7413  0.1922 -0.3149
  698MOL0     C92060   3.666   9.646  10.684  0.2270 -0.2277  0.1545
  698MOL0     C92061   3.674   9.606  10.815  0.0148  0.1514  0.3222
  698MOL0     O92062   3.799   9.576  10.865 -0.3431  0.0855 -0.1720
  698MOL0     C92063   3.811   9.453  10.930  0.0672  0.7053  0.1779
  698MOL0     C92064   3.955   9.403  10.933 -0.6304 -0.8926  0.2319
  698MOL0     C92065   3.967   9.269  10.992 -0.1261 -0.2911  0.5041
  698MOL0     C92066   4.076   9.180  10.946 -0.0700  0.6779  0.1591
  698MOL0     C92067   4.043   9.044  10.989 -0.1752 -0.7276  0.0615
  698MOL0     C92068   4.007   8.932  11.017  0.7658  0.2867 -0.5144
  698MOL0     C92069   3.559   9.599  10.895  0.3978  0.2582 -0.1121
  698MOL0     C92070   3.441   9.639  10.826 -0.2551  0.4051 -0.0209
  698MOL0     H92071   3.001   9.556  10.617 -0.1093 -0.8421  0.3288
  698MOL0     H92072   2.767   9.614  10.538 -2.1869  1.8969 -1.1776
  698MOL0     H92073   2.564   9.669  10.557 -1.8131 -0.0851 -0.6367
  698MOL0     H92074   2.606   9.716  10.401  1.6485 -0.2232  0.8271
  698MOL0     H92075   2.398   9.848  10.575  0.0626  1.9744 -0.3212
  698MOL0     H92076   2.374   9.763  10.416 -0.2497  0.8685 -0.6504
  698MOL0     H92077   2.496   9.960  10.288  2.9366  3.5416  0.3188
  698MOL0     H92078   2.545   9.999  10.453  1.2895 -4.5681  0.5765
  698MOL0     H92079   2.272  10.022  10.314  0.5454  2.5370 -1.2173
  698MOL0     H92080   2.303  10.056  10.492 -1.3332  3.3371 -0.2958
  698MOL0     H92081   2.290  10.257  10.339 -0.5559 -1.7271 -0.7289
  698MOL0     H92082   2.428  10.189  10.252 -0.6207  2.8117 -1.5595
  698MOL0     H92083   2.579  10.252  10.427  1.9900 -1.6396  3.5397
  698MOL0     H92084   2.455  10.236  10.552 -0.8134  0.3673 -0.8398
  698MOL0     H92085   2.356  10.443  10.456 -0.1076 -3.2830  3.3856
  698MOL0     H92086   2.522  10.475  10.515 -3.1862  0.1051  2.8017
  698MOL0     H92087   2.422  10.471  10.224  2.1550  1.4194 -1.6523
  698MOL0     H92088   2.584  10.421  10.253  1.6940 -2.8013  4.2313
  698MOL0     H92089   2.340  10.698  10.325 -0.0137  2.1046 -0.0325
  698MOL0     H92090   2.351  10.961  10.204 -0.7292 -0.6521  1.4328
  698MOL0     H92091   2.515  11.034  10.209  2.1281 -0.8218  1.2298
  698MOL0     H92092   2.409  11.154  10.375  0.8093  0.1168 -2.4701
  698MOL0     H92093   2.506  11.015  10.455  0.1451  1.6147  0.4351
  698MOL0     H92094   2.201  11.003  10.409 -0.6424 -0.4515  2.7974
  698MOL0     H92095   2.300  10.886  10.492 -0.2701 -0.5712  0.9010
  698MOL0     H92096   2.181  10.991  10.656 -0.1062 -1.0782 -1.1885
  698MOL0     H92097   2.176  11.146  10.584  2.3140  3.1490  1.1138
  698MOL0     H92098   2.131  11.117  10.821  2.4311 -0.4347 -1.6139
  698MOL0     H92099   2.133  11.200  11.064  2.7160 -0.5408  2.9270
  698MOL0     H92100   2.407  11.184  11.463  0.1165  0.0435  0.6245
  698MOL0     H92101   2.349  11.213  11.705  1.5539  2.0166 -0.0451
  698MOL0     H92102   1.991  11.193  11.828 -0.1101 -0.8453 -0.5718
  698MOL0     H92103   2.002  11.284  11.971 -0.7391  2.7606 -0.5901
  698MOL0     H92104   2.213  11.086  11.882  1.4752  1.8214  0.9679
  698MOL0     H92105   2.077  11.054  11.991 -0.8402  1.6145  4.8235
  698MOL0     H92106   2.158  11.193  12.159 -4.2278 -2.2109 -2.3581
  698MOL0     H92107   2.317  11.227  12.071  0.0125 -0.1184 -0.7967
  698MOL0     H92108   2.226  10.960  12.177  0.2423 -0.2571  1.0043
  698MOL0     H92109   2.355  10.974  12.061 -1.9560 -0.2763 -0.3154
  698MOL0     H92110   2.349  11.108  12.337  0.7793 -0.1901  1.4051
  698MOL0     H92111   2.468  11.141  12.212  1.2237  0.4647  2.5771
  698MOL0     H92112   2.538  10.969  12.385 -0.3918 -1.0414 -0.1769
  698MOL0     H92113   2.523  10.879  12.237 -1.3648 -2.0800  1.5660
  698MOL0     H92114   2.300  10.896  12.442  1.1537 -0.5798  1.3500
  698MOL0     H92115   2.310  10.786  12.300  0.6897 -2.0080  0.6880
  698MOL0     H92116   2.473  10.801  12.553 -2.6872  2.0074 -0.1555
  698MOL0     H92117   2.517  10.687  12.424  1.5824  2.3717 -0.9350
  698MOL0     H92118   1.983  11.395  11.626  1.6170  0.7956  0.2732
  698MOL0     H92119   2.012  11.334  11.383  0.9949  0.1914 -1.3808
  698MOL0     H92120   2.551  11.269  11.042 -1.6041  3.1735 -0.9504
  698MOL0     H92121   2.540  11.199  10.798  0.1070 -5.2571 -0.4572
  698MOL0     H92122   2.854  10.023  10.632 -1.4618 -1.6281  5.0593
  698MOL0     H92123   3.057   9.980  10.704  1.0059 -0.1102 -1.1000
  698MOL0     H92124   3.546   9.744  10.524 -0.0268  0.2743 -0.2465
  698MOL0     H92125   3.759   9.642  10.628  1.0136  0.8410  1.3226
  698MOL0     H92126   3.752   9.377  10.876 -0.5656 -1.7773  3.9609
  698MOL0     H92127   3.770   9.462  11.031 -1.2768  0.4098 -0.3048
  698MOL0     H92128   4.001   9.426  10.837  2.9146 -1.4673  1.6242
  698MOL0     H92129   4.012   9.471  10.997 -1.3161 -2.5135  2.7317
  698MOL0     H92130   3.874   9.213  10.989 -1.9502  2.3752  2.4057
  698MOL0     H92131   3.972   9.277  11.101 -0.2447 -2.5099  0.7250
  698MOL0     H92132   4.075   9.200  10.838  2.8581  0.8295  0.0960
  698MOL0     H92133   4.172   9.205  10.991 -0.1136 -1.7620  1.7822
  698MOL0     H92134   3.976   8.831  11.034  1.0904  0.3133  0.2503
  698MOL0     H92135   3.556   9.584  11.002  1.5107  1.1543  0.0704
  698MOL0     H92136   3.351   9.637  10.886 -1.1649  0.3516 -1.3555
  699MOL0     O92137   3.202   8.554  10.061  0.1241 -0.2414 -0.3152
  699MOL0     C92138   3.173   8.501  10.169  0.0845  0.4686  0.3228
  699MOL0     O92139   3.055   8.424  10.191 -0.1798  0.1293  0.5660
  699MOL0     C92140   2.977   8.391  10.080  0.4782  0.1598  0.6067
  699MOL0     C92141   2.839   8.417  10.082 -0.1726 -0.9226  0.0232
  699MOL0     C92142   2.762   8.386   9.963 -0.4745  0.3439 -0.0710
  699MOL0     C92143   2.821   8.319   9.849  0.1804  0.0797 -0.3403
  699MOL0     O92144   2.744   8.263   9.757  0.4769  0.6373  0.1959
  699MOL0     C92145   2.636   8.342   9.708  0.7396 -0.7463 -0.0188
  699MOL0     C92146   2.622   8.337   9.553  0.7487 -0.2645  0.0072
  699MOL0     C92147   2.549   8.211   9.508 -0.6353  0.1424  0.5515
  699MOL0     C92148   2.552   8.200   9.354  0.0126 -0.6585 -0.4862
  699MOL0     C92149   2.446   8.279   9.288  0.4281 -0.7727  0.0373
  699MOL0     C92150   2.394   8.214   9.158 -0.4219  1.2051  0.2706
  699MOL0     C92151   2.315   8.086   9.170 -0.0186  1.4489  0.5202
  699MOL0     C92152   2.182   8.096   9.249 -0.1292  1.0702 -0.4438
  699MOL0     N92153   2.095   7.973   9.239 -0.1568  0.0749 -0.2065
  699MOL0     C92154   2.018   7.944   9.129  0.1037 -0.1857  0.0465
  699MOL0     C92155   1.967   7.821   9.146  0.0345  0.2073 -0.2157
  699MOL0     C92156   1.914   7.721   9.050  0.2909 -0.8176 -0.7647
  699MOL0     C92157   1.776   7.774   8.998 -0.6922  0.6342  0.4115
  699MOL0     C92158   1.709   7.680   8.900 -0.1537  0.3053 -0.2900
  699MOL0     C92159   1.583   7.736   8.847 -0.1586  0.1929  0.2550
  699MOL0     O92160   1.584   7.875   8.811 -0.3654 -0.4485 -0.1756
  699MOL0     C92161   1.459   7.906   8.751 -0.7581 -0.4242  0.7844
  699MOL0     C92162   1.454   7.911   8.609 -0.1018 -0.0803  0.4295
  699MOL0     C92163   1.342   7.942   8.541 -0.2078 -0.1630 -0.2697
  699MOL0     C92164   1.230   7.954   8.617  1.2527  0.7480 -0.4232
  699MOL0     C92165   1.112   7.998   8.537 -0.0990  1.2174  0.1486
  699MOL0     O92166   1.108   7.978   8.400 -0.4681  0.1638  0.2433
  699MOL0     C92167   1.035   8.061   8.328  0.6351  0.2587  0.6145
  699MOL0     C92168   1.067   8.195   8.315 -0.5446 -0.3627  1.2824
  699MOL0     C92169   0.969   8.285   8.273  0.6702  0.9294  0.2965
  699MOL0     C92170   0.852   8.228   8.203  0.4779  0.2591  0.4097
  699MOL0     O92171   0.754   8.304   8.151  0.1433 -0.2393  0.1026
  699MOL0     C92172   0.733   8.449   8.154  0.9802 -0.3757  0.0925
  699MOL0     C92173   0.627   8.480   8.263  0.6585 -0.3172 -0.3713
  699MOL0     C92174   0.490   8.411   8.237 -0.8893  1.0703  0.3243
  699MOL0     C92175   0.406   8.491   8.132 -0.3270 -0.6454  1.4336
  699MOL0     C92176   0.264   8.421   8.107 -0.1044  0.7210 -0.0754
  699MOL0     C92177   0.172   8.488   8.021  0.1578  0.4154  0.3446
  699MOL0     C92178   0.118   8.620   8.089 -0.1001  0.6416  0.1295
  699MOL0     C92179  -0.010   8.682   8.020 -1.0720 -0.0002  0.0926
  699MOL0    Cl92180   0.055   8.804   7.898 -0.4534  0.3643 -0.3591
  699MOL0     C92181   0.826   8.092   8.220 -0.6830 -0.0881 -1.0854
  699MOL0     C92182   0.919   8.014   8.279  0.0577  0.8957  0.2349
  699MOL0     O92183   1.019   8.056   8.599  0.0454  0.0648  0.3100
  699MOL0     C92184   1.227   7.953   8.756  0.3833  0.1371  0.3035
  699MOL0     C92185   1.349   7.927   8.821  0.6139  0.7935  0.9036
  699MOL0     N92186   1.999   7.785   9.271  0.1162  0.2489 -0.1940
  699MOL0     N92187   2.073   7.876   9.333  0.1735 -1.1845 -1.2187
  699MOL0     C92188   2.957   8.294   9.851  0.3789 -0.0732 -0.5991
  699MOL0     C92189   3.029   8.322   9.964 -0.3845 -0.3589 -0.8251
  699MOL0     C92190   3.241   8.531  10.302  0.0277 -0.9116 -0.4764
  699MOL0     C92191   3.249   8.428  10.399 -1.6332  0.0614 -0.3863
  699MOL0     C92192   3.331   8.434  10.507 -1.8186 -0.5724  0.5650
  699MOL0     C92193   3.406   8.551  10.528 -0.6068 -0.3119 -0.5970
  699MOL0     O92194   3.480   8.551  10.646 -0.3847  0.0551 -0.4703
  699MOL0     C92195   3.515   8.685  10.693  0.5760 -0.2738 -0.0671
  699MOL0     C92196   3.500   8.704  10.841  0.2265  0.0003 -0.5971
  699MOL0     C92197   3.505   8.854  10.883 -0.5949 -0.2290 -0.1720
  699MOL0     C92198   3.475   8.883  11.028  0.3325  0.2784  0.1907
  699MOL0     C92199   3.578   8.871  11.125  0.1712 -0.1633 -0.1144
  699MOL0     C92200   3.669   8.857  11.199  0.2392  0.2954 -0.2131
  699MOL0     C92201   3.397   8.666  10.440 -0.5670  0.7594 -0.0633
  699MOL0     C92202   3.313   8.654  10.326 -1.0286  0.8547  0.2683
  699MOL0     H92203   2.782   8.466  10.160 -0.8492  2.1075 -2.1857
  699MOL0     H92204   2.655   8.399   9.971 -0.9227 -1.7261 -1.7601
  699MOL0     H92205   2.641   8.449   9.729 -1.2444 -0.2361 -1.7772
  699MOL0     H92206   2.551   8.300   9.762  2.1397 -2.5174  0.9202
  699MOL0     H92207   2.723   8.346   9.511  0.5659 -2.5011 -1.1230
  699MOL0     H92208   2.566   8.425   9.521 -0.1117 -0.6229  0.4897
  699MOL0     H92209   2.446   8.209   9.546 -1.4764 -0.3063 -1.5764
  699MOL0     H92210   2.595   8.123   9.552 -2.3332 -1.3714 -0.5472
  699MOL0     H92211   2.646   8.234   9.309 -0.8000 -0.6559 -2.2914
  699MOL0     H92212   2.549   8.094   9.329  0.2150 -1.4469  2.5459
  699MOL0     H92213   2.474   8.385   9.278  1.8438 -1.1744 -0.4094
  699MOL0     H92214   2.363   8.287   9.359  0.2577  0.8317 -0.2871
  699MOL0     H92215   2.481   8.193   9.096  0.2045 -2.3584  2.0732
  699MOL0     H92216   2.332   8.290   9.109 -0.4879 -0.5171 -2.5248
  699MOL0     H92217   2.290   8.047   9.071 -0.2992  0.3895  0.9881
  699MOL0     H92218   2.382   8.009   9.208 -1.1733  0.2397  0.2034
  699MOL0     H92219   2.119   8.180   9.218 -0.6834  1.0564  0.5911
  699MOL0     H92220   2.200   8.111   9.356 -2.9802 -2.3846  0.7016
  699MOL0     H92221   2.023   8.005   9.040  2.0791  4.5966  3.0425
  699MOL0     H92222   1.892   7.626   9.098  0.6939  0.7733  2.9343
  699MOL0     H92223   1.987   7.708   8.969  0.5952  1.4912 -0.9527
  699MOL0     H92224   1.787   7.876   8.960 -2.1481 -0.0020 -1.9165
  699MOL0     H92225   1.711   7.783   9.086  0.1482 -0.3935  1.1520
  699MOL0     H92226   1.769   7.640   8.818  0.7326  1.6237 -0.3136
  699MOL0     H92227   1.689   7.590   8.959 -0.3577 -0.7843 -1.9560
  699MOL0     H92228   1.505   7.725   8.923  0.7016  1.2509  1.3376
  699MOL0     H92229   1.547   7.681   8.760  1.3323  0.3519 -0.4831
  699MOL0     H92230   1.545   7.893   8.552 -1.9717 -0.3800 -2.7232
  699MOL0     H92231   1.336   7.938   8.433  2.1023 -0.9424 -0.4237
  699MOL0     H92232   1.162   8.223   8.359 -0.6118  0.5577  0.8551
  699MOL0     H92233   1.004   8.387   8.268  5.0647 -0.4349 -2.5912
  699MOL0     H92234   0.687   8.483   8.060  0.1195 -1.3732  0.1317
  699MOL0     H92235   0.825   8.508   8.159 -0.0974  1.6983 -2.3980
  699MOL0     H92236   0.630   8.588   8.276 -1.0253 -0.5895  3.4906
  699MOL0     H92237   0.672   8.455   8.359  2.3610  0.2996 -0.9528
  699MOL0     H92238   0.432   8.402   8.329 -0.6187 -1.8229  0.3296
  699MOL0     H92239   0.499   8.313   8.189 -0.9987  2.5635 -3.0419
  699MOL0     H92240   0.386   8.592   8.168  0.2861  0.2123 -0.5503
  699MOL0     H92241   0.456   8.511   8.037  0.8200 -1.7474  1.7639
  699MOL0     H92242   0.212   8.397   8.200 -1.6516  0.1469 -1.0600
  699MOL0     H92243   0.280   8.318   8.074  3.3679  0.6083  1.4366
  699MOL0     H92244   0.099   8.409   8.005  0.4755  0.0658  0.6003
  699MOL0     H92245   0.217   8.518   7.926 -1.9579  0.7600 -0.6028
  699MOL0     H92246   0.104   8.604   8.197  2.4744  1.5700  0.6812
  699MOL0     H92247   0.191   8.701   8.088 -2.6734  3.1164  0.3272
  699MOL0     H92248  -0.073   8.738   8.090  1.2257  0.5085  1.8713
  699MOL0     H92249  -0.076   8.606   7.976 -2.0660 -0.4938  2.3120
  699MOL0     H92250   0.737   8.041   8.183 -0.8307 -3.4045  3.0287
  699MOL0     H92251   0.902   7.907   8.281  1.6593  0.6323  1.3515
  699MOL0     H92252   1.141   7.955   8.822 -0.1875  1.0955 -0.4444
  699MOL0     H92253   1.345   7.929   8.929 -1.6514  0.1720  0.8767
  699MOL0     H92254   3.000   8.219   9.786  0.5875 -1.6624  1.2917
  699MOL0     H92255   3.135   8.296   9.963 -1.2626 -4.8930  0.7151
  699MOL0     H92256   3.189   8.339  10.383 -2.8083  0.4288  1.6427
  699MOL0     H92257   3.357   8.353  10.574  1.4372  0.6840  0.9919
  699MOL0     H92258   3.446   8.757  10.647 -0.9673  0.2454  2.8467
  699MOL0     H92259   3.618   8.711  10.668  0.3304  2.5457  1.4938
  699MOL0     H92260   3.408   8.655  10.874  0.8302 -0.1216  0.9970
  699MOL0     H92261   3.576   8.647  10.897  0.4228  1.0436  0.2289
  699MOL0     H92262   3.426   8.905  10.827 -2.0408  1.7251  3.3515
  699MOL0     H92263   3.601   8.900  10.857 -0.9629 -0.1305 -1.4388
  699MOL0     H92264   3.418   8.976  11.041 -0.2474  0.0109 -0.3864
  699MOL0     H92265   3.399   8.810  11.058  4.8532 -4.5639  1.3407
  699MOL0     H92266   3.757   8.851  11.258 -0.2901 -3.0235  0.4273
  699MOL0     H92267   3.442   8.764  10.445 -1.4557  1.1094  2.2396
  699MOL0     H92268   3.297   8.738  10.259  0.5428  3.5178  2.9496
  700MOL0     O92269   8.545   7.592   2.891  0.2900 -0.0910  0.1833
  700MOL0     C92270   8.510   7.490   2.827  0.0013  0.0878 -0.2849
  700MOL0     O92271   8.480   7.371   2.877  0.3231 -0.0540  0.0993
  700MOL0     C92272   8.474   7.333   3.009 -0.4064  0.1077  1.0496
  700MOL0     C92273   8.437   7.199   3.017 -0.3124  0.1312  0.2893
  700MOL0     C92274   8.440   7.134   3.150  0.2181 -0.5091  0.7250
  700MOL0     C92275   8.499   7.197   3.258  0.1036  0.0886  0.7218
  700MOL0     O92276   8.513   7.115   3.364 -0.2280  0.6245 -0.3484
  700MOL0     C92277   8.542   7.184   3.484  1.0061  0.4476 -0.6267
  700MOL0     C92278   8.570   7.087   3.598  0.7678  0.4470  0.0446
  700MOL0     C92279   8.628   7.156   3.717 -0.2136  0.1443 -0.9669
  700MOL0     C92280   8.679   7.053   3.817  0.2956  0.5309 -0.4863
  700MOL0     C92281   8.573   7.037   3.933 -0.1510  0.6345  0.5159
  700MOL0     C92282   8.632   6.933   4.037  1.1946  0.4619  0.0300
  700MOL0     C92283   8.750   6.995   4.123  0.7516 -1.3002 -0.2566
  700MOL0     C92284   8.822   6.891   4.208  0.8100 -0.8432 -0.5992
  700MOL0     N92285   8.965   6.912   4.218  0.0555 -1.0210 -0.4866
  700MOL0     C92286   9.017   6.986   4.319 -0.6634 -0.1948 -0.3968
  700MOL0     C92287   9.150   6.954   4.299 -0.4543 -0.7523 -0.9211
  700MOL0     C92288   9.249   7.003   4.408  0.4563 -0.1191  0.0098
  700MOL0     C92289   9.286   6.905   4.523  0.6652 -0.9803  0.1294
  700MOL0     C92290   9.402   6.957   4.616  0.0247 -1.2955  0.0325
  700MOL0     C92291   9.442   6.876   4.741  0.3438 -0.3327  0.2686
  700MOL0     O92292   9.329   6.869   4.827  0.5596  0.9384 -0.9172
  700MOL0     C92293   9.304   6.761   4.909  0.1658 -0.4139  0.0975
  700MOL0     C92294   9.181   6.769   4.976 -0.1784 -0.3093 -0.6569
  700MOL0     C92295   9.159   6.674   5.072 -0.3169  0.5291 -0.2050
  700MOL0     C92296   9.250   6.574   5.097  0.4259  0.3731 -0.0656
  700MOL0     C92297   9.224   6.477   5.201 -0.1790  0.1821  0.3404
  700MOL0     O92298   9.277   6.352   5.197  0.6285  0.0184  0.0262
  700MOL0     C92299   9.228   6.264   5.288  0.1525 -0.1239 -0.4199
  700MOL0     C92300   9.095   6.255   5.339  0.0494  0.1407  0.0854
  700MOL0     C92301   9.060   6.150   5.419  0.3310  0.2521  0.2988
  700MOL0     C92302   9.153   6.053   5.465  0.7779  0.1083  0.0867
  700MOL0     O92303   9.111   5.948   5.553 -1.4281 -0.2353 -0.0424
  700MOL0     C92304   9.040   5.986   5.672 -0.7029 -0.3167 -0.0677
  700MOL0     C92305   9.070   5.872   5.782  0.8080 -0.1980  0.8840
  700MOL0     C92306   9.221   5.861   5.798  0.8521 -0.3473 -0.4743
  700MOL0     C92307   9.256   5.741   5.893  0.6370  0.4946  0.0756
  700MOL0     C92308   9.401   5.699   5.857  0.4018 -0.8136  0.7184
  700MOL0     C92309   9.468   5.623   5.985 -0.1510 -0.0333 -0.3067
  700MOL0     C92310   9.588   5.530   5.944  0.0123 -0.8127  0.9879
  700MOL0     C92311   9.634   5.427   6.050 -0.2653  0.4572  0.0831
  700MOL0    Cl92312   9.671   5.516   6.194 -0.3214 -0.5556 -0.2138
  700MOL0     C92313   9.275   6.046   5.408 -0.0346  0.2201 -0.9723
  700MOL0     C92314   9.315   6.157   5.325  0.6679  1.1480 -0.0640
  700MOL0     O92315   9.163   6.524   5.295  0.9979  0.2671  0.7820
  700MOL0     C92316   9.373   6.567   5.031  0.3600 -0.1420 -0.1387
  700MOL0     C92317   9.401   6.670   4.949  0.0013 -0.4609  0.4607
  700MOL0     N92318   9.170   6.871   4.186  0.8711 -0.4632  0.2001
  700MOL0     N92319   9.050   6.841   4.148 -0.8629 -0.3511  0.3687
  700MOL0     C92320   8.546   7.336   3.241 -0.6442 -0.3913  0.4714
  700MOL0     C92321   8.520   7.401   3.120 -0.3929  0.7367 -0.4727
  700MOL0     C92322   8.525   7.503   2.685 -0.3247 -0.2780 -0.7862
  700MOL0     C92323   8.532   7.630   2.631 -0.1787  1.3788 -0.5542
  700MOL0     C92324   8.559   7.654   2.497 -0.0809  0.2679 -1.0222
  700MOL0     C92325   8.568   7.545   2.408 -0.9632 -0.2432 -0.6003
  700MOL0     O92326   8.614   7.587   2.278 -0.6337  0.6055  0.3368
  700MOL0     C92327   8.649   7.482   2.180 -0.6035  0.6793  0.7399
  700MOL0     C92328   8.713   7.548   2.056  0.7188  0.5459 -0.0253
  700MOL0     C92329   8.798   7.457   1.973  0.3418  0.2850 -0.4605
  700MOL0     C92330   8.724   7.368   1.886  0.4152 -0.1061 -0.0481
  700MOL0     C92331   8.731   7.436   1.750  0.2361  0.6549 -0.6259
  700MOL0     C92332   8.711   7.496   1.642 -0.6083 -0.7186  0.6964
  700MOL0     C92333   8.562   7.417   2.455 -0.2042 -0.3500 -0.2276
  700MOL0     C92334   8.548   7.392   2.595  0.6095  0.0952  0.2595
  700MOL0     H92335   8.420   7.142   2.927  0.4304  1.7664 -0.9450
  700MOL0     H92336   8.418   7.028   3.141  2.4846 -0.9165 -0.7007
  700MOL0     H92337   8.457   7.249   3.506 -0.7181 -1.5099 -1.1579
  700MOL0     H92338   8.638   7.236   3.475  1.1140  0.0777 -1.7621
  700MOL0     H92339   8.646   7.017   3.562 -1.1066 -0.0602 -3.3374
  700MOL0     H92340   8.484   7.029   3.633  2.4161 -2.4896 -0.4126
  700MOL0     H92341   8.555   7.214   3.775  0.1984 -0.1575 -0.1276
  700MOL0     H92342   8.711   7.218   3.683  0.1152  0.9133  1.0593
  700MOL0     H92343   8.681   6.958   3.764  1.3162  0.1543  0.1965
  700MOL0     H92344   8.774   7.090   3.857 -0.8946  1.9959  1.1465
  700MOL0     H92345   8.482   6.994   3.889 -0.7950  2.7330 -0.3024
  700MOL0     H92346   8.563   7.130   3.989 -0.1029  1.2092 -0.4086
  700MOL0     H92347   8.670   6.852   3.975 -0.0784 -1.4612  1.6076
  700MOL0     H92348   8.547   6.895   4.096 -1.3339 -2.7947 -4.9758
  700MOL0     H92349   8.828   7.023   4.051 -0.8613  1.9513 -0.9047
  700MOL0     H92350   8.721   7.088   4.172  1.2940  0.9804 -3.8427
  700MOL0     H92351   8.800   6.798   4.154  0.5019 -0.0303 -1.8905
  700MOL0     H92352   8.770   6.876   4.304 -0.2144  0.6214 -0.9030
  700MOL0     H92353   8.976   7.046   4.400  1.0528  0.5391 -0.0388
  700MOL0     H92354   9.214   7.098   4.451  1.8116  0.6781 -0.5642
  700MOL0     H92355   9.343   7.033   4.360  1.6231 -0.7647  1.7888
  700MOL0     H92356   9.306   6.813   4.468  0.6337  0.7099 -2.9822
  700MOL0     H92357   9.202   6.882   4.588  1.2280 -0.7588  0.9512
  700MOL0     H92358   9.494   6.956   4.557  0.4975  0.5468  0.6642
  700MOL0     H92359   9.389   7.060   4.652 -0.2520 -1.8987  1.7384
  700MOL0     H92360   9.527   6.923   4.793 -1.2255 -0.1317  2.8346
  700MOL0     H92361   9.462   6.775   4.704 -0.6310  0.3324 -2.3317
  700MOL0     H92362   9.108   6.846   4.955  0.1025  1.0206  2.6877
  700MOL0     H92363   9.062   6.676   5.121 -0.1205  0.3623  0.1927
  700MOL0     H92364   9.010   6.319   5.317 -1.4572 -1.8522 -0.2575
  700MOL0     H92365   8.953   6.142   5.435  0.3298 -4.8319 -0.7728
  700MOL0     H92366   8.932   5.984   5.653 -1.6844 -1.2922  4.4230
  700MOL0     H92367   9.083   6.081   5.705 -1.8760  0.0649  0.4246
  700MOL0     H92368   9.045   5.775   5.739  3.5613  0.0920 -1.7672
  700MOL0     H92369   9.014   5.878   5.875 -0.5933 -4.5788  0.5659
  700MOL0     H92370   9.258   5.957   5.833  1.4958 -0.5063 -0.7104
  700MOL0     H92371   9.284   5.842   5.710  1.6462 -0.7686  0.1729
  700MOL0     H92372   9.240   5.766   5.999 -0.3798 -0.3058  0.1289
  700MOL0     H92373   9.191   5.653   5.887  0.6929  0.5390 -1.6023
  700MOL0     H92374   9.463   5.778   5.814 -0.0765 -0.3789  0.8177
  700MOL0     H92375   9.394   5.621   5.781 -0.7229  0.1001 -0.1545
  700MOL0     H92376   9.399   5.559   6.040 -0.9817  1.1935  0.1355
  700MOL0     H92377   9.497   5.706   6.051 -1.2183  1.5312 -1.7398
  700MOL0     H92378   9.567   5.480   5.849 -0.2688  1.3883 -0.1852
  700MOL0     H92379   9.676   5.595   5.940 -0.1143 -0.6121  1.4246
  700MOL0     H92380   9.722   5.376   6.011 -0.3060  2.7007 -3.4634
  700MOL0     H92381   9.559   5.352   6.076 -0.8412  0.7843 -0.5814
  700MOL0     H92382   9.341   5.965   5.435 -1.3954 -1.5654 -2.7577
  700MOL0     H92383   9.414   6.166   5.283  0.3188 -3.0486 -2.2593
  700MOL0     H92384   9.453   6.496   5.048  1.0785  0.8121  0.5651
  700MOL0     H92385   9.495   6.680   4.896  1.2030  0.6972  2.6595
  700MOL0     H92386   8.577   7.393   3.328 -2.2868 -0.9952  1.5133
  700MOL0     H92387   8.564   7.500   3.111  1.9109 -0.2089 -0.4506
  700MOL0     H92388   8.501   7.718   2.687 -2.6406  0.0203  0.3546
  700MOL0     H92389   8.574   7.756   2.465 -3.2616  1.0204 -0.4750
  700MOL0     H92390   8.558   7.432   2.147 -0.5498  1.3813 -0.5685
  700MOL0     H92391   8.719   7.412   2.227  2.0678  1.6641 -1.4259
  700MOL0     H92392   8.631   7.589   1.997 -0.6188  2.7012  3.0429
  700MOL0     H92393   8.777   7.631   2.086  0.9948  1.5501 -3.0473
  700MOL0     H92394   8.857   7.407   2.051  3.7772  0.9738 -2.4360
  700MOL0     H92395   8.873   7.513   1.917  0.9115  1.2793  1.2413
  700MOL0     H92396   8.784   7.277   1.894  1.1962  0.5718  3.0900
  700MOL0     H92397   8.619   7.350   1.911  0.7105 -3.8317 -1.0023
  700MOL0     H92398   8.690   7.541   1.547 -0.4774 -0.0826  0.9610
  700MOL0     H92399   8.587   7.331   2.393 -1.1575  0.8475 -2.4180
  700MOL0     H92400   8.566   7.293   2.637  0.2431  0.7254  1.9999
  701MOL0     O92401   5.920   5.073   2.616 -0.2888  0.2862  0.2563
  701MOL0     C92402   5.982   5.164   2.669 -1.0225  0.3004 -0.3701
  701MOL0     O92403   6.010   5.283   2.620 -0.6266 -0.3968  0.1641
  701MOL0     C92404   5.952   5.324   2.502 -0.0485 -0.1739  0.7463
  701MOL0     C92405   5.823   5.293   2.449 -1.3945  0.0418 -1.0504
  701MOL0     C92406   5.780   5.341   2.326 -0.4132  0.6160  0.1700
  701MOL0     C92407   5.866   5.416   2.252 -1.0038 -0.8434  1.2924
  701MOL0     O92408   5.826   5.457   2.122  0.6179  0.9020  0.0832
  701MOL0     C92409   5.805   5.594   2.112  0.0736 -0.7710  0.1510
  701MOL0     C92410   5.652   5.607   2.115 -0.2890  0.5180  0.9030
  701MOL0     C92411   5.598   5.738   2.172  0.3837 -0.9174  0.5487
  701MOL0     C92412   5.439   5.743   2.146  0.1730  0.3841 -0.6948
  701MOL0     C92413   5.413   5.804   2.005 -0.6214 -0.0537 -0.0959
  701MOL0     C92414   5.256   5.801   1.954 -0.5934 -0.1261 -0.1670
  701MOL0     C92415   5.149   5.874   2.032 -0.1517  0.5182  0.7900
  701MOL0     C92416   5.183   6.022   2.005  0.5664 -0.0625 -0.9595
  701MOL0     N92417   5.081   6.113   2.064  0.5069 -0.2713 -0.0627
  701MOL0     C92418   4.998   6.205   2.007 -0.3662  1.7753 -0.8390
  701MOL0     C92419   4.899   6.222   2.097  0.7651  0.9470  0.1741
  701MOL0     C92420   4.783   6.312   2.059 -0.0602  1.3392  0.3817
  701MOL0     C92421   4.816   6.454   2.094 -0.2767 -0.3779  1.0512
  701MOL0     C92422   4.839   6.489   2.245 -1.4845  0.5859 -0.0915
  701MOL0     C92423   4.788   6.634   2.287  0.0364 -0.2703  0.0239
  701MOL0     O92424   4.843   6.748   2.222  0.8130  0.6640  0.7039
  701MOL0     C92425   4.786   6.867   2.244  0.3448  0.4742 -1.0074
  701MOL0     C92426   4.829   6.971   2.163  0.0450 -0.6278  0.0836
  701MOL0     C92427   4.780   7.095   2.173  0.0514  0.6717 -0.6298
  701MOL0     C92428   4.664   7.124   2.241 -0.5800  0.0397 -0.5197
  701MOL0     C92429   4.602   7.256   2.235  0.4404 -0.7508 -1.0426
  701MOL0     O92430   4.505   7.290   2.324  0.0278 -0.4219  0.1228
  701MOL0     C92431   4.451   7.417   2.349 -0.7961  0.7330  0.1552
  701MOL0     C92432   4.387   7.441   2.473  0.0762  0.0090 -0.6276
  701MOL0     C92433   4.346   7.566   2.513 -0.1700 -0.1489  0.1627
  701MOL0     C92434   4.350   7.666   2.417 -0.7136  0.0093  0.2813
  701MOL0     O92435   4.316   7.791   2.471 -0.4387 -0.1162 -0.6771
  701MOL0     C92436   4.378   7.913   2.426  0.2277 -0.0105 -0.1856
  701MOL0     C92437   4.287   8.032   2.471 -0.4479 -0.3852 -0.1400
  701MOL0     C92438   4.342   8.173   2.433  0.3336  0.6650 -0.1786
  701MOL0     C92439   4.392   8.180   2.291 -0.0774  0.3067  0.0559
  701MOL0     C92440   4.470   8.313   2.260  0.4092  0.1068  0.1985
  701MOL0     C92441   4.383   8.444   2.269  0.1479  1.0107 -0.5708
  701MOL0     C92442   4.470   8.562   2.228 -0.0819 -0.2843  0.4217
  701MOL0     C92443   4.383   8.693   2.242  0.0764 -0.7550  0.1487
  701MOL0    Cl92444   4.511   8.830   2.233  0.0686  1.0400  0.3962
  701MOL0     C92445   4.414   7.646   2.297 -0.0598 -0.1314  0.4883
  701MOL0     C92446   4.463   7.519   2.257 -0.2749 -0.1664 -1.4276
  701MOL0     O92447   4.654   7.338   2.159  0.1404  0.3714  0.0511
  701MOL0     C92448   4.614   7.022   2.323  0.1027 -0.8794  0.3875
  701MOL0     C92449   4.678   6.895   2.333 -0.4290  0.3032  0.1017
  701MOL0     N92450   4.937   6.162   2.218 -0.1313 -0.6871 -0.4679
  701MOL0     N92451   5.047   6.097   2.193  1.4742 -0.9560 -0.4039
  701MOL0     C92452   5.985   5.457   2.304  0.3456  0.2098 -0.4419
  701MOL0     C92453   6.022   5.417   2.431 -0.6657  0.0753  0.6380
  701MOL0     C92454   6.052   5.133   2.796 -0.2840 -0.0073  0.3848
  701MOL0     C92455   6.059   5.004   2.846  0.1488 -0.1310 -0.8271
  701MOL0     C92456   6.139   4.969   2.960 -0.5389 -0.1483  0.2942
  701MOL0     C92457   6.217   5.066   3.026 -0.0661  0.2912 -0.6985
  701MOL0     O92458   6.291   5.065   3.145  0.2503  0.8374  0.5828
  701MOL0     C92459   6.268   4.954   3.236 -0.4705  0.6784 -0.3066
  701MOL0     C92460   6.283   5.009   3.376  0.3944 -0.3289  0.5147
  701MOL0     C92461   6.164   5.094   3.414 -0.4479 -1.3685  0.4031
  701MOL0     C92462   6.179   5.120   3.559 -0.0431 -0.5396  0.0298
  701MOL0     C92463   6.065   5.182   3.621 -0.7238  0.2934 -0.0934
  701MOL0     C92464   5.962   5.229   3.657 -0.5387 -0.2942  0.3498
  701MOL0     C92465   6.210   5.192   2.976  0.4204 -0.3849  1.2167
  701MOL0     C92466   6.127   5.234   2.865 -0.7198 -0.2432 -0.1893
  701MOL0     H92467   5.751   5.240   2.511  0.4953 -0.3796  0.8861
  701MOL0     H92468   5.679   5.312   2.299  0.7911 -1.4231 -2.5916
  701MOL0     H92469   5.855   5.627   2.021  0.9818  0.9723  1.2174
  701MOL0     H92470   5.851   5.652   2.192  0.5521  1.3917 -1.6087
  701MOL0     H92471   5.608   5.542   2.192  0.0775 -0.8632 -0.0238
  701MOL0     H92472   5.610   5.571   2.020 -0.6365  5.1902 -0.9761
  701MOL0     H92473   5.643   5.818   2.112 -0.5440  0.6891  1.9296
  701MOL0     H92474   5.606   5.751   2.280 -0.3728  0.7032  0.4489
  701MOL0     H92475   5.412   5.636   2.149  1.0048  0.1607 -1.0105
  701MOL0     H92476   5.378   5.803   2.214  2.0717  3.8187 -1.8313
  701MOL0     H92477   5.466   5.744   1.930 -1.6363 -2.1891  0.8253
  701MOL0     H92478   5.453   5.906   2.005  0.7199 -0.4003  4.1272
  701MOL0     H92479   5.230   5.695   1.962 -0.4184 -0.1205  0.5030
  701MOL0     H92480   5.259   5.835   1.850 -0.1923 -0.2448 -0.1986
  701MOL0     H92481   5.058   5.838   1.984  1.0226 -1.6295  0.0524
  701MOL0     H92482   5.149   5.852   2.139  0.6137 -0.5087  0.5948
  701MOL0     H92483   5.194   6.045   1.898  1.8625 -0.2050 -0.8728
  701MOL0     H92484   5.281   6.056   2.039  0.9227 -0.4336 -1.6022
  701MOL0     H92485   5.005   6.235   1.903  2.7499  0.2731 -1.1780
  701MOL0     H92486   4.686   6.295   2.107 -0.2344  2.5225  0.4684
  701MOL0     H92487   4.769   6.303   1.950  0.1125 -1.8026  0.5263
  701MOL0     H92488   4.726   6.506   2.060 -0.9390 -0.7620  2.1484
  701MOL0     H92489   4.895   6.484   2.025 -2.3605 -2.0050 -2.3009
  701MOL0     H92490   4.786   6.415   2.306  0.4340 -1.2886 -0.5752
  701MOL0     H92491   4.943   6.506   2.271 -0.4318  0.8213 -3.8853
  701MOL0     H92492   4.800   6.648   2.394 -2.2718 -1.9359  0.5883
  701MOL0     H92493   4.683   6.626   2.258  0.6710  0.2781 -2.7120
  701MOL0     H92494   4.907   6.948   2.090  0.0718  2.7572 -1.1382
  701MOL0     H92495   4.828   7.174   2.115  2.1656 -0.6025 -0.7048
  701MOL0     H92496   4.383   7.356   2.541 -2.3100 -2.3004 -3.4156
  701MOL0     H92497   4.293   7.571   2.608 -1.7581 -0.3688 -0.6910
  701MOL0     H92498   4.390   7.918   2.317 -0.3827  1.7626 -0.2148
  701MOL0     H92499   4.476   7.917   2.474  1.4999 -0.4660 -2.5959
  701MOL0     H92500   4.284   8.029   2.580 -0.1996 -0.9068 -0.1425
  701MOL0     H92501   4.190   8.029   2.421  0.2499  0.9946 -1.6966
  701MOL0     H92502   4.426   8.188   2.502  1.5146  1.4266 -1.7221
  701MOL0     H92503   4.267   8.248   2.460 -1.2344 -1.5849  2.2400
  701MOL0     H92504   4.461   8.099   2.269  0.4610 -0.6671  4.4288
  701MOL0     H92505   4.307   8.169   2.223 -1.6782  2.6873  1.5051
  701MOL0     H92506   4.511   8.311   2.159  1.6460  0.8049  0.6589
  701MOL0     H92507   4.551   8.330   2.331 -0.2421  2.8340  0.3895
  701MOL0     H92508   4.349   8.459   2.371 -0.0997  2.2109 -0.8167
  701MOL0     H92509   4.302   8.446   2.196  3.3558 -1.1378 -4.6973
  701MOL0     H92510   4.563   8.569   2.285  0.0196  2.9724  0.0376
  701MOL0     H92511   4.498   8.545   2.124  2.1913 -0.0633  0.9502
  701MOL0     H92512   4.334   8.705   2.339 -2.3168 -1.2837 -0.9320
  701MOL0     H92513   4.306   8.694   2.165  0.5555 -2.6278 -0.4042
  701MOL0     H92514   4.414   7.727   2.226  1.6867 -1.0254 -0.5872
  701MOL0     H92515   4.514   7.506   2.162  4.0403  1.0823  0.4660
  701MOL0     H92516   4.516   7.036   2.368  0.6224  5.2354  0.5087
  701MOL0     H92517   4.637   6.814   2.392  1.9181 -1.2431 -0.2767
  701MOL0     H92518   6.047   5.525   2.246  1.7752 -0.4954  0.1877
  701MOL0     H92519   6.116   5.453   2.469  0.2756 -0.0631 -1.4426
  701MOL0     H92520   6.004   4.920   2.803 -0.1036 -1.4919  1.8668
  701MOL0     H92521   6.144   4.870   3.003 -0.9492  0.0781  0.8760
  701MOL0     H92522   6.330   4.868   3.208 -1.6934 -0.2268 -0.3107
  701MOL0     H92523   6.165   4.917   3.229 -0.6021  0.4334  2.0610
  701MOL0     H92524   6.285   4.921   3.442  1.2755 -1.6713 -1.2128
  701MOL0     H92525   6.381   5.056   3.386  1.2301 -1.4834 -1.6614
  701MOL0     H92526   6.066   5.054   3.387  0.1169 -1.8017 -1.1126
  701MOL0     H92527   6.174   5.182   3.349 -0.5448 -1.1094  0.7317
  701MOL0     H92528   6.197   5.024   3.608 -0.7308 -1.0855 -0.7567
  701MOL0     H92529   6.269   5.182   3.570 -2.1298  2.2675  2.6779
  701MOL0     H92530   5.865   5.262   3.690 -0.9405  1.2598 -2.1304
  701MOL0     H92531   6.265   5.272   3.024 -1.5872 -0.5613  4.0710
  701MOL0     H92532   6.121   5.337   2.832 -2.3262  0.5930  2.4131
  702MOL0     O92533   7.140   7.069  10.291 -0.7151  0.8813  0.7605
  702MOL0     C92534   7.209   7.168  10.259  0.3121 -0.4444  0.2696
  702MOL0     O92535   7.347   7.170  10.270  0.5747 -0.5351 -0.1424
  702MOL0     C92536   7.418   7.077  10.342 -0.1680  1.8620 -0.4993
  702MOL0     C92537   7.396   6.940  10.351 -0.0530 -0.7981  0.4901
  702MOL0     C92538   7.468   6.859  10.444  0.4987 -0.2786  0.7329
  702MOL0     C92539   7.570   6.909  10.517  0.1531 -0.3350 -0.0324
  702MOL0     O92540   7.663   6.837  10.597  0.5960 -0.6020  0.1106
  702MOL0     C92541   7.652   6.697  10.608  0.2788 -0.2045  0.8195
  702MOL0     C92542   7.559   6.658  10.712 -0.3005 -0.2215 -0.5562
  702MOL0     C92543   7.523   6.513  10.697 -1.7094  1.2235  0.2858
  702MOL0     C92544   7.406   6.485  10.786 -0.1950 -0.5662 -0.3587
  702MOL0     C92545   7.392   6.327  10.788  0.5445 -1.3304  0.0286
  702MOL0     C92546   7.260   6.297  10.842  0.0047  0.0650 -0.1356
  702MOL0     C92547   7.224   6.145  10.825  0.1034 -0.7104 -0.2789
  702MOL0     C92548   7.073   6.109  10.845 -0.4756 -0.6208 -0.1058
  702MOL0     N92549   7.037   5.971  10.817  0.0603 -0.1687  0.5616
  702MOL0     C92550   7.085   5.881  10.721 -0.0906  0.5809 -0.5434
  702MOL0     C92551   7.011   5.772  10.740 -0.2363 -0.3660 -0.7553
  702MOL0     C92552   7.023   5.644  10.661  0.1371 -0.0510  0.8116
  702MOL0     C92553   6.899   5.561  10.653 -0.0036 -0.2461  0.2502
  702MOL0     C92554   6.940   5.436  10.576 -0.1598  0.6692 -1.9998
  702MOL0     C92555   6.815   5.338  10.556 -1.2874 -0.0957  0.5538
  702MOL0     O92556   6.870   5.212  10.501  0.2834 -0.9329  0.1786
  702MOL0     C92557   6.794   5.110  10.460  0.7225  0.4459 -0.0975
  702MOL0     C92558   6.654   5.104  10.456  0.4159 -0.2575  0.5364
  702MOL0     C92559   6.581   4.988  10.399  0.0326 -0.3685 -0.3472
  702MOL0     C92560   6.652   4.882  10.340 -0.2191 -0.3455  0.1094
  702MOL0     C92561   6.563   4.770  10.287  0.2390  0.2679 -1.2987
  702MOL0     O92562   6.450   4.746  10.347  0.9162  0.7204  0.2795
  702MOL0     C92563   6.348   4.653  10.319  0.5680  1.5037 -1.3968
  702MOL0     C92564   6.227   4.670  10.382  0.2285  0.4330  0.9180
  702MOL0     C92565   6.117   4.589  10.354 -0.2052 -1.2662 -0.1022
  702MOL0     C92566   6.136   4.480  10.253  0.2275 -0.5891 -0.3952
  702MOL0     O92567   6.060   4.372  10.216 -0.0932 -0.4219  0.4834
  702MOL0     C92568   5.939   4.356  10.281  0.3964  0.4271 -0.1089
  702MOL0     C92569   5.838   4.449  10.214  0.7416 -0.2878  0.1320
  702MOL0     C92570   5.694   4.441  10.276  0.1358  0.8858  0.0545
  702MOL0     C92571   5.643   4.296  10.285 -0.0846  0.3953 -0.1531
  702MOL0     C92572   5.486   4.285  10.297  0.1997 -0.4783 -0.1587
  702MOL0     C92573   5.431   4.360  10.418 -0.5524 -1.1346 -0.5451
  702MOL0     C92574   5.306   4.294  10.456  0.9733  0.2121 -0.9399
  702MOL0     C92575   5.237   4.361  10.581  0.3794  0.3837 -0.3622
  702MOL0    Cl92576   5.089   4.290  10.639 -0.6588 -0.1918 -0.2855
  702MOL0     C92577   6.252   4.461  10.193  0.0510  0.4702  0.4955
  702MOL0     C92578   6.363   4.546  10.223 -0.2486  0.7439 -0.7511
  702MOL0     O92579   6.609   4.718  10.189 -0.5239  0.2791 -1.0245
  702MOL0     C92580   6.790   4.898  10.322 -0.3097  0.1557  0.1741
  702MOL0     C92581   6.856   5.005  10.390 -0.0560  0.9108  0.0608
  702MOL0     N92582   6.938   5.788  10.858  0.1949 -0.2030  0.0316
  702MOL0     N92583   6.950   5.910  10.896  0.1931 -0.4871  0.1107
  702MOL0     C92584   7.596   7.046  10.495 -0.1069 -0.6639 -0.2417
  702MOL0     C92585   7.528   7.130  10.412 -0.4502 -0.5148 -0.6733
  702MOL0     C92586   7.148   7.286  10.201 -0.3700 -0.5633 -0.7100
  702MOL0     C92587   7.006   7.294  10.172 -0.1831  0.0490  1.0871
  702MOL0     C92588   6.940   7.405  10.100 -0.7679  2.3214 -0.0242
  702MOL0     C92589   7.018   7.510  10.064  0.1755 -0.0140  0.7461
  702MOL0     O92590   6.971   7.616   9.984 -0.2793 -0.4299  0.0811
  702MOL0     C92591   6.850   7.616   9.909  0.0054  0.2411 -0.6539
  702MOL0     C92592   6.858   7.718   9.808 -0.2319 -0.7736 -0.2840
  702MOL0     C92593   6.968   7.690   9.707  0.1132  0.1019 -0.6669
  702MOL0     C92594   7.086   7.785   9.707 -0.6544 -0.1566 -1.1088
  702MOL0     C92595   7.203   7.725   9.657 -1.3599 -0.1437  0.4322
  702MOL0     C92596   7.298   7.662   9.619 -0.1322 -0.3767 -0.7423
  702MOL0     C92597   7.160   7.511  10.102  0.4747 -0.1190 -0.3889
  702MOL0     C92598   7.224   7.400  10.165  1.0045  0.1405 -0.0310
  702MOL0     H92599   7.311   6.898  10.298 -0.3143  0.8035 -0.4252
  702MOL0     H92600   7.427   6.761  10.466 -1.7584  0.8632  1.9916
  702MOL0     H92601   7.750   6.656  10.635 -0.8878 -2.3027  2.1109
  702MOL0     H92602   7.615   6.658  10.513 -0.1706 -2.4304  1.8466
  702MOL0     H92603   7.470   6.721  10.717 -0.8864 -1.0428 -0.3569
  702MOL0     H92604   7.613   6.686  10.803 -1.3671 -2.5577  0.9049
  702MOL0     H92605   7.608   6.450  10.725 -1.6367  1.9205  1.6843
  702MOL0     H92606   7.490   6.470  10.601 -1.6383 -1.1063  1.2263
  702MOL0     H92607   7.430   6.530  10.883 -2.6595  0.7866 -0.2872
  702MOL0     H92608   7.318   6.542  10.753  0.9196  1.3742 -0.1460
  702MOL0     H92609   7.481   6.289  10.839  0.0815 -1.3550  0.8481
  702MOL0     H92610   7.394   6.282  10.689  3.1515 -0.3210 -0.4706
  702MOL0     H92611   7.197   6.347  10.768  0.5936  1.4924  0.2951
  702MOL0     H92612   7.239   6.325  10.946 -2.6799 -0.6656 -0.4045
  702MOL0     H92613   7.244   6.117  10.721  1.7281 -0.4451 -0.0616
  702MOL0     H92614   7.277   6.083  10.897  3.4003 -0.6217 -2.4012
  702MOL0     H92615   7.015   6.178  10.783 -1.3994 -3.2157 -2.3362
  702MOL0     H92616   7.043   6.139  10.946  0.2159 -0.0142 -0.0719
  702MOL0     H92617   7.173   5.890  10.658  1.6959 -2.5250  1.2363
  702MOL0     H92618   7.097   5.579  10.709 -0.3023 -0.0260  1.5379
  702MOL0     H92619   7.058   5.671  10.561  0.3675 -0.6144  0.7348
  702MOL0     H92620   6.823   5.624  10.606 -0.6230 -0.4125  1.0062
  702MOL0     H92621   6.859   5.536  10.752  2.5565 -1.1568  1.1494
  702MOL0     H92622   6.989   5.465  10.482 -2.2182 -0.6282 -3.5804
  702MOL0     H92623   7.006   5.371  10.634 -1.7558  0.9672  0.2512
  702MOL0     H92624   6.751   5.393  10.486 -0.4447  2.0654  1.3821
  702MOL0     H92625   6.752   5.322  10.643 -1.3072  0.9875  0.7476
  702MOL0     H92626   6.602   5.189  10.499  1.5041  0.4096  0.5750
  702MOL0     H92627   6.474   4.987  10.418 -0.5250 -3.8862 -2.7868
  702MOL0     H92628   6.218   4.742  10.463 -1.8812 -0.5570  1.6529
  702MOL0     H92629   6.021   4.601  10.403 -1.1105 -0.0618 -2.0647
  702MOL0     H92630   5.941   4.363  10.390 -1.4658  3.2238 -0.1712
  702MOL0     H92631   5.900   4.256  10.258 -2.6692  1.6221 -0.4951
  702MOL0     H92632   5.824   4.436  10.107 -0.7091  1.9829 -0.0336
  702MOL0     H92633   5.883   4.548  10.219 -0.5828  0.5274 -2.2895
  702MOL0     H92634   5.616   4.505  10.234 -2.5204  0.2786  3.5742
  702MOL0     H92635   5.697   4.462  10.383  1.5788 -0.4317  0.3066
  702MOL0     H92636   5.670   4.240  10.195  1.3335 -0.6818  0.8959
  702MOL0     H92637   5.685   4.248  10.374  3.0963 -1.6843 -2.5536
  702MOL0     H92638   5.453   4.181  10.298  0.6441 -0.6428 -1.2530
  702MOL0     H92639   5.437   4.312  10.203 -0.2896 -2.9182 -0.6669
  702MOL0     H92640   5.413   4.467  10.407 -1.6240 -1.2480 -0.0068
  702MOL0     H92641   5.504   4.341  10.498  4.3482  2.7287 -3.4700
  702MOL0     H92642   5.240   4.301  10.369  1.4346  3.6203 -1.1791
  702MOL0     H92643   5.320   4.188  10.478 -0.2261  0.6108  2.3096
  702MOL0     H92644   5.226   4.469  10.591  1.9857  0.4618  1.0205
  702MOL0     H92645   5.306   4.337  10.663 -1.6261 -0.3062  1.2083
  702MOL0     H92646   6.269   4.379  10.124  0.6756 -0.4154  1.6562
  702MOL0     H92647   6.451   4.532  10.160 -0.7764  2.4944 -1.9297
  702MOL0     H92648   6.851   4.822  10.273  2.6353  3.1362 -1.1491
  702MOL0     H92649   6.964   5.003  10.376 -0.3430 -1.2399 -2.6446
  702MOL0     H92650   7.679   7.097  10.543 -1.5308 -1.2614  3.1634
  702MOL0     H92651   7.558   7.233  10.395  1.3397 -0.8644  0.0895
  702MOL0     H92652   6.952   7.201  10.190 -3.0203  1.9039  2.9833
  702MOL0     H92653   6.837   7.406  10.066 -0.3808 -1.9757 -1.9916
  702MOL0     H92654   6.765   7.637   9.974  0.0368 -1.7297  0.0884
  702MOL0     H92655   6.825   7.519   9.865  1.2571 -0.0057 -0.8848
  702MOL0     H92656   6.760   7.706   9.761 -1.2161 -1.4982  1.8344
  702MOL0     H92657   6.864   7.819   9.849  2.3439 -0.7799 -0.4621
  702MOL0     H92658   6.929   7.686   9.605  2.4667 -2.5465 -1.6023
  702MOL0     H92659   7.015   7.594   9.729  0.9398 -0.0644 -2.9018
  702MOL0     H92660   7.050   7.875   9.656  0.8951  1.9434  1.2380
  702MOL0     H92661   7.096   7.813   9.813  0.9845 -0.2854 -1.2083
  702MOL0     H92662   7.389   7.619   9.581 -0.4888 -0.8002 -1.1352
  702MOL0     H92663   7.218   7.599  10.076 -0.8813  0.6724 -0.7984
  702MOL0     H92664   7.332   7.402  10.168  0.9821  0.7247  1.6796
  703MOL0     O92665   7.720   6.083   8.805  0.0966 -0.8056 -0.4814
  703MOL0     C92666   7.720   6.086   8.682 -0.0204  0.8803 -0.5355
  703MOL0     O92667   7.637   6.172   8.616  0.0826  0.3349 -0.3479
  703MOL0     C92668   7.561   6.260   8.694 -0.8407  0.8443  0.3374
  703MOL0     C92669   7.436   6.235   8.747  0.2768 -0.8784  0.5432
  703MOL0     C92670   7.365   6.337   8.806 -0.3589  1.1148  0.3612
  703MOL0     C92671   7.419   6.466   8.834 -0.3478 -0.3188  0.4411
  703MOL0     O92672   7.354   6.572   8.893 -0.2186  0.6423 -0.1737
  703MOL0     C92673   7.254   6.554   8.995  0.1321  0.2037  0.2312
  703MOL0     C92674   7.160   6.681   9.017 -0.3979  0.4975  0.7038
  703MOL0     C92675   7.035   6.649   9.105 -0.1879 -0.2288  0.0804
  703MOL0     C92676   6.964   6.768   9.156 -0.1083 -0.3033 -0.6278
  703MOL0     C92677   6.816   6.746   9.186  0.0479 -0.3925 -0.0315
  703MOL0     C92678   6.726   6.877   9.193 -0.3632 -0.3627  0.6579
  703MOL0     C92679   6.581   6.855   9.176  0.1005 -0.0794  0.6872
  703MOL0     C92680   6.487   6.941   9.251 -0.8905  0.2036  0.1745
  703MOL0     N92681   6.359   6.871   9.269  0.6139  0.5788 -0.7442
  703MOL0     C92682   6.311   6.846   9.394 -0.6627 -0.2475  0.2654
  703MOL0     C92683   6.179   6.823   9.382 -1.9940 -0.9014 -0.7994
  703MOL0     C92684   6.078   6.813   9.492 -0.5893 -0.3287 -0.2501
  703MOL0     C92685   6.005   6.937   9.530 -0.6623  0.4378 -0.1781
  703MOL0     C92686   5.890   6.898   9.623 -0.5430 -0.5170 -0.3582
  703MOL0     C92687   5.950   6.874   9.759  0.3188 -0.4311 -0.2549
  703MOL0     O92688   5.849   6.863   9.862 -0.3556  0.3824  0.0481
  703MOL0     C92689   5.731   6.812   9.825 -0.5707  0.3235 -0.7146
  703MOL0     C92690   5.625   6.877   9.880  0.4008 -1.1589 -1.1376
  703MOL0     C92691   5.492   6.823   9.879 -0.7538 -0.9256 -0.0284
  703MOL0     C92692   5.463   6.702   9.808  0.3994 -0.3117 -0.8046
  703MOL0     C92693   5.332   6.663   9.769  0.5979 -0.6452  1.6860
  703MOL0     O92694   5.240   6.765   9.783 -0.2572  0.0754  0.1819
  703MOL0     C92695   5.109   6.732   9.782  0.4705 -0.6742 -0.9738
  703MOL0     C92696   5.024   6.722   9.898 -0.7015  0.6496 -0.1613
  703MOL0     C92697   4.882   6.688   9.885  0.3703 -0.2018  0.9121
  703MOL0     C92698   4.826   6.663   9.753 -0.1622 -0.2754 -0.7760
  703MOL0     O92699   4.690   6.649   9.726 -0.4391  0.5768 -1.0152
  703MOL0     C92700   4.604   6.610   9.833  0.3767 -1.0789 -0.2706
  703MOL0     C92701   4.595   6.463   9.842  0.1705  0.1004 -0.2044
  703MOL0     C92702   4.505   6.398   9.731  0.4123  0.5174  0.1006
  703MOL0     C92703   4.479   6.244   9.752  0.6597  0.7788  0.1167
  703MOL0     C92704   4.378   6.180   9.656  0.1344  0.0934 -0.5534
  703MOL0     C92705   4.407   6.187   9.506  0.2232 -0.5964  0.4107
  703MOL0     C92706   4.282   6.160   9.418 -0.1492  0.0212  0.1868
  703MOL0     C92707   4.287   6.225   9.277  0.0137  0.0641  0.2351
  703MOL0    Cl92708   4.155   6.166   9.178 -0.3292 -0.1007 -0.3369
  703MOL0     C92709   4.919   6.679   9.644 -0.5157  0.3158 -0.1335
  703MOL0     C92710   5.050   6.720   9.661 -0.1835  0.6992  0.6333
  703MOL0     O92711   5.308   6.550   9.729 -0.1767  0.4624 -0.4558
  703MOL0     C92712   5.579   6.630   9.776 -0.2458  0.2487 -0.7665
  703MOL0     C92713   5.707   6.687   9.788  0.4686  0.4076 -0.1580
  703MOL0     N92714   6.157   6.833   9.251  0.1007 -0.3287 -1.0575
  703MOL0     N92715   6.257   6.873   9.182  1.1128 -0.0024  0.6016
  703MOL0     C92716   7.551   6.479   8.795  0.1393 -0.1867  0.2838
  703MOL0     C92717   7.621   6.387   8.714 -0.0548  0.1161  0.3524
  703MOL0     C92718   7.807   5.987   8.618 -0.3899 -0.4905 -0.1056
  703MOL0     C92719   7.879   5.900   8.693 -0.1593 -0.4669  0.2032
  703MOL0     C92720   7.963   5.809   8.617 -0.5382 -0.0220  0.7590
  703MOL0     C92721   7.969   5.799   8.479 -0.5698 -1.3599  0.2170
  703MOL0     O92722   8.062   5.708   8.428 -0.0356 -0.7982  0.4843
  703MOL0     C92723   8.102   5.722   8.294 -0.4137  0.0673  0.3703
  703MOL0     C92724   8.227   5.633   8.270  0.1427 -0.2584  0.1548
  703MOL0     C92725   8.322   5.689   8.165 -0.0811  0.6492  1.3102
  703MOL0     C92726   8.433   5.780   8.220  0.4932 -0.3920 -0.4258
  703MOL0     C92727   8.535   5.817   8.115  0.3922 -1.1419 -0.3424
  703MOL0     C92728   8.596   5.829   8.011 -0.1237 -0.2466 -0.4975
  703MOL0     C92729   7.893   5.889   8.410  0.6233  0.7198  0.1087
  703MOL0     C92730   7.817   5.979   8.478  0.4845 -0.9613  0.2694
  703MOL0     H92731   7.386   6.139   8.739 -2.7849  0.7015 -0.8588
  703MOL0     H92732   7.265   6.319   8.846  0.7823 -3.5565  1.7588
  703MOL0     H92733   7.303   6.517   9.085 -0.4531  0.6933  0.7650
  703MOL0     H92734   7.186   6.474   8.965  0.8299 -0.1587 -0.3935
  703MOL0     H92735   7.136   6.730   8.922 -1.5788  0.5270  1.0065
  703MOL0     H92736   7.219   6.755   9.072  0.1947 -0.6796  1.6893
  703MOL0     H92737   7.071   6.590   9.190 -0.4904  0.4684  0.7010
  703MOL0     H92738   6.967   6.583   9.050  1.2378 -3.5708  2.0419
  703MOL0     H92739   7.013   6.795   9.250  0.9153 -3.2012 -0.2484
  703MOL0     H92740   6.968   6.851   9.085 -2.8903 -2.7079 -3.9296
  703MOL0     H92741   6.805   6.681   9.273  2.0022  1.1242  1.4475
  703MOL0     H92742   6.776   6.691   9.100  0.6823  1.3154 -1.4969
  703MOL0     H92743   6.754   6.946   9.113 -0.0721 -2.0429 -0.7315
  703MOL0     H92744   6.754   6.932   9.284  5.2081  2.4437 -2.2105
  703MOL0     H92745   6.551   6.858   9.071  0.6520  1.2181  0.5542
  703MOL0     H92746   6.572   6.752   9.212  2.1148  0.0984  1.8064
  703MOL0     H92747   6.478   7.034   9.193  0.0565  1.0590  1.3554
  703MOL0     H92748   6.531   6.969   9.347 -0.1023 -1.2658  0.2718
  703MOL0     H92749   6.376   6.832   9.481  0.7894 -3.0866 -1.1244
  703MOL0     H92750   6.122   6.779   9.586 -1.4746 -1.2613 -0.1567
  703MOL0     H92751   5.998   6.746   9.460 -2.1641  0.5259  1.6371
  703MOL0     H92752   5.960   6.986   9.443 -0.2331  0.0357 -0.6325
  703MOL0     H92753   6.074   7.012   9.568 -4.0451  2.7385  1.9549
  703MOL0     H92754   5.820   6.982   9.626 -0.8228 -0.5380 -3.3728
  703MOL0     H92755   5.838   6.817   9.571  1.2904 -1.7158 -0.4082
  703MOL0     H92756   6.019   6.954   9.788 -0.6178  0.0502  0.6895
  703MOL0     H92757   5.996   6.774   9.763  0.7095 -0.2240  0.6368
  703MOL0     H92758   5.647   6.976   9.919  0.5036 -1.5465 -0.1973
  703MOL0     H92759   5.410   6.878   9.922  1.6844  2.0868  1.1743
  703MOL0     H92760   5.069   6.735   9.996 -2.1266 -1.9024  0.9332
  703MOL0     H92761   4.839   6.700   9.985 -3.3073 -0.9772 -0.4177
  703MOL0     H92762   4.510   6.660   9.811 -0.5367 -3.0460 -1.1022
  703MOL0     H92763   4.637   6.647   9.930 -0.8427  2.0686 -0.9585
  703MOL0     H92764   4.534   6.454   9.932 -1.7106 -1.1009 -1.5227
  703MOL0     H92765   4.696   6.422   9.849  1.1161  2.5328  3.6748
  703MOL0     H92766   4.518   6.421   9.625 -0.4806 -1.3750 -0.4659
  703MOL0     H92767   4.409   6.451   9.738 -0.3548 -0.4615 -2.2291
  703MOL0     H92768   4.574   6.195   9.731 -0.3950 -1.2313 -0.1713
  703MOL0     H92769   4.440   6.229   9.854 -2.1577  1.7632 -0.7033
  703MOL0     H92770   4.285   6.235   9.676  1.8718  2.9351  0.4100
  703MOL0     H92771   4.364   6.076   9.687 -1.0053  0.2420 -0.5311
  703MOL0     H92772   4.481   6.107   9.500  0.2578 -0.4819 -2.5162
  703MOL0     H92773   4.456   6.282   9.480  3.6717 -2.3770 -0.1233
  703MOL0     H92774   4.271   6.051   9.408 -0.1523  0.0761 -0.4335
  703MOL0     H92775   4.192   6.186   9.475  1.8409  0.9475  3.0848
  703MOL0     H92776   4.379   6.188   9.231  0.0985 -0.1919  0.6011
  703MOL0     H92777   4.304   6.333   9.289 -2.1834  0.4247  0.5035
  703MOL0     H92778   4.878   6.675   9.543 -3.5135  0.6547  0.9873
  703MOL0     H92779   5.107   6.735   9.570 -2.0974  0.0902 -0.7254
  703MOL0     H92780   5.570   6.539   9.717  3.0126  0.9240 -2.5415
  703MOL0     H92781   5.787   6.618   9.762  1.6259  2.1101 -1.3128
  703MOL0     H92782   7.598   6.571   8.829  0.5103 -0.9218  1.8455
  703MOL0     H92783   7.716   6.416   8.672  1.3275  1.9111  4.2771
  703MOL0     H92784   7.853   5.892   8.798 -1.5009  1.6113  0.0879
  703MOL0     H92785   8.023   5.732   8.664 -1.0344  0.1226  1.6370
  703MOL0     H92786   8.132   5.826   8.276 -0.7745  0.2532  0.8117
  703MOL0     H92787   8.015   5.683   8.240  0.5696  1.1728 -2.1953
  703MOL0     H92788   8.278   5.623   8.366 -1.5615  0.4208  1.1635
  703MOL0     H92789   8.194   5.535   8.236  2.6601 -1.7277  1.6352
  703MOL0     H92790   8.287   5.741   8.075  2.6484 -1.1698 -1.0008
  703MOL0     H92791   8.374   5.602   8.125 -0.8979  0.3053  0.9761
  703MOL0     H92792   8.406   5.877   8.262  1.9988  0.6576 -1.7214
  703MOL0     H92793   8.471   5.717   8.301  0.9143 -2.1492 -1.9001
  703MOL0     H92794   8.663   5.851   7.930 -0.2946  2.4264 -0.0023
  703MOL0     H92795   7.902   5.901   8.303 -1.1807 -0.2592 -0.1716
  703MOL0     H92796   7.754   6.050   8.424 -1.3195 -0.5936  2.7124
  704MOL0     O92797  10.372   0.693   2.245 -0.0822 -0.0864  0.1021
  704MOL0     C92798  10.286   0.722   2.159 -0.4052  0.1060 -0.4746
  704MOL0     O92799  10.179   0.790   2.187  0.1714  0.7722  0.4731
  704MOL0     C92800  10.147   0.785   2.322 -0.4650  0.9410  0.1174
  704MOL0     C92801  10.114   0.671   2.404 -0.0427  0.0044 -0.7962
  704MOL0     C92802  10.107   0.682   2.546 -0.2659  0.7512 -0.1543
  704MOL0     C92803  10.115   0.801   2.615 -0.8069 -0.3195  0.1000
  704MOL0     O92804  10.101   0.795   2.748 -0.1732 -0.0913 -0.6375
  704MOL0     C92805  10.191   0.878   2.826 -0.1815 -0.1799 -0.0562
  704MOL0     C92806  10.195   0.857   2.978 -1.0793  0.3662 -0.1013
  704MOL0     C92807  10.255   0.716   3.017 -0.3687  0.8991 -0.0639
  704MOL0     C92808  10.260   0.688   3.169  0.2555 -0.1673  0.8124
  704MOL0     C92809  10.299   0.541   3.201 -0.1045 -1.0671  0.4773
  704MOL0     C92810  10.428   0.485   3.128 -0.0568 -0.4029  0.6381
  704MOL0     C92811  10.490   0.366   3.206 -0.2935 -0.2677 -0.2733
  704MOL0     C92812  10.391   0.245   3.230 -0.2014  0.4963 -0.3992
  704MOL0     N92813  10.361   0.166   3.111  0.1921  0.3428 -0.1923
  704MOL0     C92814  10.241   0.193   3.048 -0.0777  0.7821  0.8190
  704MOL0     C92815  10.221   0.085   2.966 -1.5241  0.3072 -0.0089
  704MOL0     C92816  10.104   0.057   2.878  0.5046  0.3619  0.1676
  704MOL0     C92817   9.996  -0.042   2.934  0.2643  0.9157  0.1528
  704MOL0     C92818   9.935  -0.140   2.825 -0.6720 -0.4936 -0.1150
  704MOL0     C92819   9.808  -0.225   2.876  0.0705 -0.4474 -1.0605
  704MOL0     O92820   9.702  -0.136   2.901  0.1854 -0.6236 -0.0376
  704MOL0     C92821   9.622  -0.118   2.793  0.0141  0.5112  0.4460
  704MOL0     C92822   9.654  -0.124   2.656  0.6677 -0.1243 -0.4266
  704MOL0     C92823   9.555  -0.089   2.562  0.2096 -0.3528 -0.2369
  704MOL0     C92824   9.428  -0.044   2.595 -0.0771  0.1859 -0.4102
  704MOL0     C92825   9.332  -0.013   2.489 -0.1015  0.3850  0.9662
  704MOL0     O92826   9.374  -0.003   2.359  1.0248 -0.7316  0.2251
  704MOL0     C92827   9.268  -0.007   2.267 -0.4021 -0.7983  0.3075
  704MOL0     C92828   9.214  -0.128   2.222 -0.2232  0.0658 -0.3878
  704MOL0     C92829   9.110  -0.135   2.123 -0.1272 -0.1893  1.0632
  704MOL0     C92830   9.050  -0.023   2.082  0.1457  0.3576 -0.1672
  704MOL0     O92831   8.958  -0.016   1.981  0.5086 -0.1875  0.7223
  704MOL0     C92832   8.928  -0.133   1.909  0.0151  0.2624  0.0158
  704MOL0     C92833   8.826  -0.117   1.800  0.4461  0.1022 -0.0409
  704MOL0     C92834   8.772  -0.253   1.733 -0.7452  0.1321  0.1774
  704MOL0     C92835   8.741  -0.228   1.586 -0.1256  0.0083  0.5203
  704MOL0     C92836   8.707  -0.354   1.497  0.5211 -0.8292  0.3727
  704MOL0     C92837   8.566  -0.394   1.511  0.3200  0.3445  0.8929
  704MOL0     C92838   8.538  -0.518   1.425 -0.4139 -0.5712  0.6701
  704MOL0     C92839   8.390  -0.566   1.422  0.2153  0.1417 -0.3022
  704MOL0    Cl92840   8.367  -0.738   1.378 -0.1886  0.3676  0.3811
  704MOL0     C92841   9.109   0.093   2.120 -0.0950 -0.6011 -0.0605
  704MOL0     C92842   9.216   0.106   2.210  0.0029  0.5661  0.3140
  704MOL0     O92843   9.223   0.009   2.528  0.2249 -0.4039 -0.6244
  704MOL0     C92844   9.408  -0.026   2.731 -0.1799 -0.9042  0.1036
  704MOL0     C92845   9.505  -0.063   2.828  0.3242  0.0503  0.6879
  704MOL0     N92846  10.333  -0.000   2.986 -0.5213 -0.4123 -0.0739
  704MOL0     N92847  10.412   0.048   3.074  0.7225  0.6992  0.5926
  704MOL0     C92848  10.146   0.915   2.528  0.6685 -0.6316  0.6966
  704MOL0     C92849  10.151   0.907   2.393 -0.1150 -0.3566  0.4339
  704MOL0     C92850  10.327   0.705   2.019  0.7339 -0.2051  1.6154
  704MOL0     C92851  10.455   0.673   1.976 -0.3769 -0.0736  0.2947
  704MOL0     C92852  10.490   0.667   1.849 -1.0077  0.5625  0.3292
  704MOL0     C92853  10.397   0.680   1.752 -0.6655  0.8086  0.5680
  704MOL0     O92854  10.429   0.659   1.617  0.3171  0.8033  0.2043
  704MOL0     C92855  10.531   0.569   1.572 -0.3246  0.7998 -0.5954
  704MOL0     C92856  10.467   0.431   1.570  0.3091  0.0052  0.6598
  704MOL0     C92857  10.550   0.345   1.477 -0.3416 -0.3396  0.6120
  704MOL0     C92858  10.498   0.203   1.484 -0.7327 -0.1462  0.9473
  704MOL0     C92859  10.597   0.123   1.408  0.1999  0.0244 -0.3923
  704MOL0     C92860  10.654   0.068   1.325 -1.0805  0.4371 -0.0664
  704MOL0     C92861  10.264   0.715   1.791  0.2805 -0.7123 -0.7462
  704MOL0     C92862  10.229   0.725   1.925  0.1538 -0.0473 -0.0183
  704MOL0     H92863  10.108   0.577   2.350 -1.3979  1.3858 -3.1825
  704MOL0     H92864  10.079   0.593   2.602  0.4255 -0.4521 -1.6555
  704MOL0     H92865  10.190   0.987   2.809  1.9781 -0.4174 -2.3733
  704MOL0     H92866  10.291   0.852   2.789 -0.4551 -2.5059  0.7237
  704MOL0     H92867  10.097   0.876   3.022 -0.8367  1.6463 -0.0963
  704MOL0     H92868  10.264   0.929   3.021 -1.1735  0.3928  0.0069
  704MOL0     H92869  10.352   0.718   2.967 -0.3267 -0.3544 -0.0604
  704MOL0     H92870  10.200   0.629   2.980  4.3518 -2.8010  0.5509
  704MOL0     H92871  10.333   0.754   3.217  0.1000  1.6729 -1.2963
  704MOL0     H92872  10.156   0.699   3.201 -1.8372  0.5999 -5.0054
  704MOL0     H92873  10.213   0.475   3.191 -0.8771  0.0423 -0.5293
  704MOL0     H92874  10.321   0.536   3.308 -2.3295 -0.8620  0.9770
  704MOL0     H92875  10.498   0.568   3.114  1.4139 -2.0749 -3.7060
  704MOL0     H92876  10.398   0.457   3.026 -1.3939  3.1352 -0.0800
  704MOL0     H92877  10.570   0.325   3.143  0.1504  1.3454 -0.7892
  704MOL0     H92878  10.538   0.416   3.290  1.8566 -0.9737 -1.0106
  704MOL0     H92879  10.296   0.282   3.268 -0.7738 -2.3321  1.2187
  704MOL0     H92880  10.445   0.179   3.298  1.3406 -0.2582 -2.2544
  704MOL0     H92881  10.179   0.282   3.051  1.0884  1.6999 -0.7038
  704MOL0     H92882  10.151   0.027   2.784  1.2007 -2.7994  1.3991
  704MOL0     H92883  10.051   0.151   2.860 -1.4433 -0.7184 -0.0342
  704MOL0     H92884   9.913   0.012   2.979 -3.2134 -1.3864 -2.9299
  704MOL0     H92885  10.044  -0.113   3.003  1.1364 -0.6487 -1.9268
  704MOL0     H92886   9.926  -0.073   2.739 -1.8579 -0.1357  0.2713
  704MOL0     H92887  10.013  -0.213   2.802 -0.8380 -0.5543 -0.4865
  704MOL0     H92888   9.839  -0.269   2.971 -1.8338 -1.0644 -0.6919
  704MOL0     H92889   9.782  -0.304   2.805  0.5589  1.5752 -3.7007
  704MOL0     H92890   9.745  -0.176   2.632 -0.6368 -2.0393 -1.4747
  704MOL0     H92891   9.575  -0.118   2.460 -1.4780 -0.2642 -0.6291
  704MOL0     H92892   9.258  -0.216   2.267  1.3393  1.9234  1.9292
  704MOL0     H92893   9.072  -0.234   2.097 -1.2938 -0.4336  3.4489
  704MOL0     H92894   8.885  -0.211   1.972 -2.2047 -0.6929 -2.4973
  704MOL0     H92895   9.020  -0.174   1.866  0.0159 -0.8774  1.0571
  704MOL0     H92896   8.885  -0.057   1.731  0.0032  1.3980  0.6635
  704MOL0     H92897   8.736  -0.066   1.835  0.8257  0.0859  0.9895
  704MOL0     H92898   8.680  -0.292   1.778  0.6225 -1.6068  1.6108
  704MOL0     H92899   8.847  -0.332   1.740  0.3535  1.2292  1.0274
  704MOL0     H92900   8.673  -0.143   1.579 -2.1860 -1.3809  2.2477
  704MOL0     H92901   8.833  -0.186   1.545  1.1884 -1.3086  1.9347
  704MOL0     H92902   8.764  -0.446   1.512  0.1731 -1.2719 -0.9124
  704MOL0     H92903   8.714  -0.319   1.394 -0.4569  1.9859  1.1429
  704MOL0     H92904   8.505  -0.312   1.472  1.5478  0.7996 -0.1237
  704MOL0     H92905   8.548  -0.401   1.619  0.3715  0.8082  0.9352
  704MOL0     H92906   8.575  -0.506   1.323 -2.6557 -1.6895 -0.3508
  704MOL0     H92907   8.607  -0.590   1.469  0.7642  0.2999  0.3061
  704MOL0     H92908   8.311  -0.507   1.375  2.4977  1.2612 -3.0513
  704MOL0     H92909   8.360  -0.545   1.525 -0.8657  2.2263 -0.9816
  704MOL0     H92910   9.068   0.189   2.090 -1.2319 -1.1656 -0.3812
  704MOL0     H92911   9.265   0.199   2.238  0.7998  0.3370 -0.2892
  704MOL0     H92912   9.320   0.020   2.775  1.3223  2.5325 -0.2107
  704MOL0     H92913   9.487  -0.042   2.933 -0.6340 -1.4570  0.8492
  704MOL0     H92914  10.161   1.010   2.579 -0.4522 -0.1505  0.1797
  704MOL0     H92915  10.179   0.994   2.336  1.5248 -0.9518  0.2865
  704MOL0     H92916  10.538   0.664   2.045 -0.2848 -2.2188 -0.0223
  704MOL0     H92917  10.592   0.634   1.838 -1.1890 -1.4271  3.3956
  704MOL0     H92918  10.620   0.553   1.634 -1.7232  1.6827  1.7766
  704MOL0     H92919  10.560   0.599   1.470  3.5382  3.7379  1.0917
  704MOL0     H92920  10.452   0.384   1.668 -0.8403  1.0790  1.0260
  704MOL0     H92921  10.369   0.454   1.527 -1.2084 -2.0959  2.7356
  704MOL0     H92922  10.655   0.358   1.507 -0.4954  3.4551  0.0089
  704MOL0     H92923  10.537   0.396   1.381 -1.5985  0.9221  1.4279
  704MOL0     H92924  10.502   0.172   1.589  3.7077 -2.7276  0.2565
  704MOL0     H92925  10.395   0.193   1.447  0.4088 -3.6857 -1.8348
  704MOL0     H92926  10.686   0.004   1.245 -0.5270  0.5264  0.0766
  704MOL0     H92927  10.191   0.719   1.711 -2.0082 -3.0935  1.0385
  704MOL0     H92928  10.128   0.761   1.943  1.3105  3.0246  0.9919
  705MOL0     O92929  10.497   0.324   8.561 -0.8523 -0.9118 -0.4802
  705MOL0     C92930  10.545   0.423   8.498 -0.6371 -0.7102 -1.1533
  705MOL0     O92931  10.649   0.500   8.550 -0.1822  0.3128  0.2100
  705MOL0     C92932  10.695   0.461   8.675  1.1084 -0.0102  0.9057
  705MOL0     C92933  10.617   0.483   8.790 -0.4790 -0.6425  0.0262
  705MOL0     C92934  10.655   0.435   8.913  0.2364 -0.0353 -0.1477
  705MOL0     C92935  10.774   0.368   8.929  0.0123 -0.3051  0.2006
  705MOL0     O92936  10.822   0.316   9.045 -0.2569  0.2035  0.1161
  705MOL0     C92937  10.756   0.358   9.164 -0.4468 -0.0846  0.1373
  705MOL0     C92938  10.810   0.272   9.276 -0.6158 -0.8213  0.2141
  705MOL0     C92939  10.725   0.281   9.410  0.5589  0.4892  0.0736
  705MOL0     C92940  10.780   0.386   9.510  0.3446 -0.6638 -0.5881
  705MOL0     C92941  10.713   0.372   9.641  0.1295  0.6987  0.0120
  705MOL0     C92942  10.603   0.484   9.674  0.4536 -0.5191 -0.6266
  705MOL0     C92943  10.659   0.622   9.677 -0.5704  0.2429 -0.0239
  705MOL0     C92944  10.781   0.648   9.777  0.2957 -0.9710 -0.3851
  705MOL0     N92945  10.751   0.597   9.908  0.2137 -0.2356 -0.7407
  705MOL0     C92946  10.648   0.632   9.996  1.1464  0.5348  0.1836
  705MOL0     C92947  10.674   0.564  10.107  0.7521  0.0960  0.1694
  705MOL0     C92948  10.590   0.581  10.232 -0.0953  0.1690  0.8651
  705MOL0     C92949  10.667   0.675  10.327 -0.1968  0.3681 -0.6818
  705MOL0     C92950  10.556   0.717  10.434  0.7005 -0.1249 -0.8740
  705MOL0     C92951  10.640   0.769  10.557  0.8405 -0.0124 -0.8521
  705MOL0     O92952  10.724   0.879  10.516  0.4035  0.5440  0.1070
  705MOL0     C92953  10.675   0.997  10.470 -0.6023  0.2671  0.6502
  705MOL0     C92954  10.774   1.073  10.414 -0.2125 -0.7446 -0.2145
  705MOL0     C92955  10.749   1.207  10.372  0.1656 -0.8919 -0.9437
  705MOL0     C92956  10.616   1.260  10.383  0.4453  0.8125 -0.9844
  705MOL0     C92957  10.586   1.387  10.319  1.0890  0.1656 -0.7990
  705MOL0     O92958  10.675   1.449  10.226 -0.4667  0.4281 -0.4627
  705MOL0     C92959  10.647   1.573  10.179  0.4883  0.6182 -0.5260
  705MOL0     C92960  10.736   1.673  10.205  0.0079 -0.6321  0.2120
  705MOL0     C92961  10.712   1.805  10.170  0.2521  0.4336  0.8179
  705MOL0     C92962  10.589   1.837  10.100  0.7436  0.7942  1.1855
  705MOL0     O92963  10.556   1.962  10.057  0.7542  0.3505  1.0698
  705MOL0     C92964  10.657   2.064  10.042 -0.4516 -0.0746  0.2562
  705MOL0     C92965  10.637   2.171   9.931  0.7726 -0.1766 -0.2046
  705MOL0     C92966  10.752   2.279   9.919  0.6898  0.0347 -0.1105
  705MOL0     C92967  10.729   2.384   9.806 -0.2059  0.4115  0.4157
  705MOL0     C92968  10.850   2.429   9.746 -1.0123  0.1485  0.2740
  705MOL0     C92969  10.905   2.347   9.636  0.7103 -1.2203 -0.1677
  705MOL0     C92970  10.842   2.389   9.494 -0.4239  0.2415 -1.3048
  705MOL0     C92971  10.819   2.268   9.405  0.2394 -0.6245  0.6511
  705MOL0    Cl92972  10.981   2.183   9.364  0.3667  0.3259  0.4583
  705MOL0     C92973  10.501   1.736  10.072 -0.6030  0.4495 -0.9175
  705MOL0     C92974  10.529   1.602  10.118  0.6317 -0.5646 -0.6268
  705MOL0     O92975  10.487   1.438  10.372  0.0230 -0.6500  0.3904
  705MOL0     C92976  10.520   1.185  10.456  1.2156  0.6770  0.0226
  705MOL0     C92977  10.555   1.053  10.489 -0.6210  0.2753 -0.3379
  705MOL0     N92978  10.793   0.493  10.091  0.8742  0.6089 -0.5869
  705MOL0     N92979  10.831   0.515   9.974 -0.2831  0.0787  0.4799
  705MOL0     C92980  10.851   0.335   8.817 -0.9987 -0.4680 -0.2635
  705MOL0     C92981  10.810   0.379   8.698  0.0426 -0.4630 -0.3039
  705MOL0     C92982  10.474   0.458   8.383 -0.5335 -0.5223 -0.2803
  705MOL0     C92983  10.349   0.397   8.348 -0.0201 -0.1728  0.1683
  705MOL0     C92984  10.287   0.428   8.231  0.8023  0.6798  0.4964
  705MOL0     C92985  10.325   0.535   8.142  0.0259  0.3859 -0.6927
  705MOL0     O92986  10.233   0.557   8.035 -0.0932  0.2681 -0.0832
  705MOL0     C92987  10.255   0.679   7.971  1.1945 -0.7559  0.3219
  705MOL0     C92988  10.138   0.683   7.870  0.3358 -0.4738 -0.3670
  705MOL0     C92989  10.159   0.815   7.797  0.6243 -0.3348 -0.6808
  705MOL0     C92990  10.050   0.819   7.682  0.1387  0.9400 -0.6835
  705MOL0     C92991  10.064   0.935   7.594 -1.1916  0.2196 -0.4124
  705MOL0     C92992  10.091   1.034   7.531  1.5840  0.3361  0.7367
  705MOL0     C92993  10.446   0.598   8.178  0.1750 -0.4653 -0.0554
  705MOL0     C92994  10.526   0.557   8.292 -0.0007  0.3824 -0.4160
  705MOL0     H92995  10.518   0.520   8.763 -2.0652 -4.0562  0.6072
  705MOL0     H92996  10.588   0.464   8.993 -1.3935  4.2201 -2.7110
  705MOL0     H92997  10.648   0.341   9.154 -0.1564 -0.7601 -2.5976
  705MOL0     H92998  10.788   0.463   9.171  3.9334 -0.8719 -3.4749
  705MOL0     H92999  10.917   0.292   9.284 -0.7620  0.2103 -0.1938
  705MOL0     H93000  10.815   0.167   9.247  2.5392 -0.1932 -2.0424
  705MOL0     H93001  10.736   0.184   9.459 -2.8204 -0.5238 -0.9280
  705MOL0     H93002  10.622   0.302   9.383  0.7080  0.1476 -0.7979
  705MOL0     H93003  10.884   0.356   9.527  0.5710 -1.5657 -3.1648
  705MOL0     H93004  10.783   0.491   9.480  3.0246 -0.8711 -1.3450
  705MOL0     H93005  10.803   0.376   9.703 -0.4296 -0.4658  0.9331
  705MOL0     H93006  10.668   0.273   9.640  0.9460  0.2719  1.9263
  705MOL0     H93007  10.563   0.452   9.771  1.9942  0.2432  0.2890
  705MOL0     H93008  10.526   0.495   9.597  1.5799  1.1879 -1.5576
  705MOL0     H93009  10.687   0.658   9.578  3.4128  0.2235  0.9158
  705MOL0     H93010  10.588   0.691   9.723  0.8621  1.5587  0.2982
  705MOL0     H93011  10.800   0.754   9.762 -2.7921 -0.6582 -3.3153
  705MOL0     H93012  10.874   0.604   9.740  0.7435  0.6248 -1.2096
  705MOL0     H93013  10.563   0.697   9.978  0.6764 -0.5520 -1.8140
  705MOL0     H93014  10.591   0.480  10.273  1.0503 -0.7407 -1.2594
  705MOL0     H93015  10.488   0.615  10.211  0.0264  0.6495  1.0295
  705MOL0     H93016  10.693   0.773  10.285 -2.4243  1.4331  0.2670
  705MOL0     H93017  10.759   0.622  10.353 -1.7365 -1.9760  0.3100
  705MOL0     H93018  10.483   0.792  10.401  3.9101  3.8359  0.2027
  705MOL0     H93019  10.497   0.634  10.475 -0.6299  0.3558 -1.7621
  705MOL0     H93020  10.697   0.692  10.609 -1.9508 -1.1499  0.7246
  705MOL0     H93021  10.575   0.799  10.640 -0.1596 -0.3799 -1.4766
  705MOL0     H93022  10.876   1.037  10.407  0.3296  0.7769 -0.5314
  705MOL0     H93023  10.823   1.266  10.319  0.6709  1.7934  2.4179
  705MOL0     H93024  10.830   1.646  10.252 -1.3240 -0.0528  3.4871
  705MOL0     H93025  10.791   1.879  10.167 -1.6259  2.5176 -0.3038
  705MOL0     H93026  10.757   2.023  10.034  1.2366  3.7860 -0.8803
  705MOL0     H93027  10.643   2.120  10.135 -2.4962  0.3526 -0.2390
  705MOL0     H93028  10.542   2.224   9.945 -0.3766 -1.8098 -1.3985
  705MOL0     H93029  10.618   2.123   9.835  2.8982  0.3325 -0.9242
  705MOL0     H93030  10.836   2.217   9.886  1.7430  2.4963 -2.4160
  705MOL0     H93031  10.770   2.328  10.015 -3.9285  4.7782 -1.2622
  705MOL0     H93032  10.667   2.345   9.725  1.3934 -0.3388 -0.4952
  705MOL0     H93033  10.677   2.467   9.857  0.5823 -1.3353  4.4409
  705MOL0     H93034  10.929   2.416   9.820 -3.0491  0.7593  2.7080
  705MOL0     H93035  10.843   2.536   9.725  4.9275  0.9069  0.4407
  705MOL0     H93036  10.878   2.242   9.648 -1.6073 -0.5202  1.3307
  705MOL0     H93037  11.014   2.362   9.638  0.6232  0.2270 -2.5108
  705MOL0     H93038  10.742   2.427   9.517  0.3204  1.0878  0.8374
  705MOL0     H93039  10.905   2.470   9.456  0.1978  2.6183  3.8221
  705MOL0     H93040  10.770   2.293   9.311  2.0604  2.0549  0.2924
  705MOL0     H93041  10.753   2.204   9.463 -1.4980  1.8077  1.5004
  705MOL0     H93042  10.404   1.760  10.030 -0.8645  2.3037  0.5593
  705MOL0     H93043  10.457   1.524  10.095  0.1347  0.1572 -1.5656
  705MOL0     H93044  10.418   1.213  10.480  0.7164 -0.3568 -0.8110
  705MOL0     H93045  10.473   0.991  10.525  0.4389 -0.0934  1.5854
  705MOL0     H93046  10.947   0.287   8.828 -0.9429 -0.4125 -0.5126
  705MOL0     H93047  10.868   0.340   8.615 -0.2885 -3.2326  0.6508
  705MOL0     H93048  10.320   0.318   8.416  2.9704 -0.4665  1.2736
  705MOL0     H93049  10.192   0.380   8.206  1.2384  0.6155 -1.1650
  705MOL0     H93050  10.345   0.675   7.908  0.3613  0.3258 -0.9684
  705MOL0     H93051  10.263   0.762   8.041 -0.2859 -0.5117  0.2231
  705MOL0     H93052  10.142   0.606   7.792 -0.8350  1.1521 -2.1230
  705MOL0     H93053  10.046   0.681   7.929  0.6486 -2.3404  0.1167
  705MOL0     H93054  10.254   0.830   7.746 -0.3269  1.3674 -2.0610
  705MOL0     H93055  10.146   0.901   7.863  0.3711 -1.3961  0.7037
  705MOL0     H93056  10.064   0.733   7.616  0.5531 -0.0994  0.7172
  705MOL0     H93057   9.946   0.811   7.714  0.1673 -1.1697 -0.9854
  705MOL0     H93058  10.100   1.131   7.487  3.2747 -0.1897 -0.1454
  705MOL0     H93059  10.468   0.683   8.115  1.6671 -0.8945 -0.1572
  705MOL0     H93060  10.619   0.610   8.306  0.8613 -0.8381 -1.2976
  706MOL0     O93061   0.169   4.384   5.108 -0.0443 -0.3400  0.0527
  706MOL0     C93062   0.275   4.440   5.099  0.3671  0.1829  0.3155
  706MOL0     O93063   0.358   4.441   4.992 -0.3115 -0.8733 -0.5410
  706MOL0     C93064   0.305   4.382   4.880  0.9835  0.1452 -0.0107
  706MOL0     C93065   0.344   4.253   4.840 -0.1245 -0.5380  0.3146
  706MOL0     C93066   0.309   4.201   4.709  0.1236  0.0085 -0.4962
  706MOL0     C93067   0.230   4.290   4.628  0.3146  0.6049  0.2173
  706MOL0     O93068   0.190   4.248   4.506  0.4246  0.9254 -0.0787
  706MOL0     C93069   0.258   4.140   4.437  0.1673 -0.1659  1.1764
  706MOL0     C93070   0.202   4.123   4.291  0.3124 -0.3013  0.1499
  706MOL0     C93071   0.245   3.978   4.232  0.5269  0.7065 -0.1708
  706MOL0     C93072   0.163   3.876   4.301 -0.1102  0.1096 -0.5133
  706MOL0     C93073   0.175   3.749   4.225  1.5184  0.1049 -0.7241
  706MOL0     C93074   0.313   3.685   4.239 -0.6487  0.3895 -0.6519
  706MOL0     C93075   0.330   3.567   4.141  0.6132 -0.7072  0.2454
  706MOL0     C93076   0.389   3.610   4.004  0.3190 -0.2579  0.8313
  706MOL0     N93077   0.294   3.671   3.900 -0.6211 -0.4854 -0.5608
  706MOL0     C93078   0.197   3.595   3.844  0.2100 -0.1536 -0.5074
  706MOL0     C93079   0.140   3.676   3.750  0.2976  0.2621 -0.8458
  706MOL0     C93080   0.055   3.636   3.636 -0.3671  0.1046  0.3443
  706MOL0     C93081  -0.075   3.568   3.679  0.6524  0.7021  0.2528
  706MOL0     C93082  -0.204   3.615   3.602  0.3746 -0.3412 -1.2261
  706MOL0     C93083  -0.315   3.511   3.644  0.9067 -0.2470  0.0111
  706MOL0     O93084  -0.439   3.535   3.579 -0.3555 -0.4290 -0.1406
  706MOL0     C93085  -0.522   3.631   3.622 -0.2757 -0.3264  0.7383
  706MOL0     C93086  -0.646   3.638   3.567 -0.4321  0.3679 -0.1953
  706MOL0     C93087  -0.745   3.725   3.608  0.5365  0.2161  0.1856
  706MOL0     C93088  -0.713   3.823   3.707  0.3319  0.7478  0.7755
  706MOL0     C93089  -0.819   3.903   3.759 -0.4574 -0.1623  0.0273
  706MOL0     O93090  -0.779   4.006   3.852 -0.2799 -0.4723  0.6741
  706MOL0     C93091  -0.863   4.075   3.942  0.1794 -0.1737  0.9130
  706MOL0     C93092  -0.955   4.167   3.887 -0.2504  0.6433  0.0054
  706MOL0     C93093  -1.053   4.220   3.964  0.0730  0.6723 -0.1625
  706MOL0     C93094  -1.054   4.181   4.100  0.7737 -1.3196 -0.3502
  706MOL0     O93095  -1.141   4.246   4.189 -0.2883 -0.0578  0.3031
  706MOL0     C93096  -1.085   4.366   4.231 -0.4255 -1.0605 -0.2099
  706MOL0     C93097  -0.999   4.361   4.360 -0.3801  0.1421 -0.3124
  706MOL0     C93098  -1.068   4.304   4.478  0.5162  0.0014  0.0279
  706MOL0     C93099  -1.000   4.318   4.608 -0.8805 -0.9200  1.1031
  706MOL0     C93100  -1.088   4.290   4.727  0.8629 -1.2475  0.1481
  706MOL0     C93101  -1.006   4.303   4.864 -0.8363  0.0254 -0.3926
  706MOL0     C93102  -1.094   4.241   4.976  0.7031  0.5061  0.7921
  706MOL0     C93103  -1.052   4.287   5.111 -0.3358 -0.6046 -0.1483
  706MOL0    Cl93104  -1.150   4.208   5.246 -0.3177  0.1589 -0.3628
  706MOL0     C93105  -0.969   4.088   4.149 -0.4119  0.9248  0.2954
  706MOL0     C93106  -0.866   4.038   4.073  1.0196  0.5031  0.2240
  706MOL0     O93107  -0.936   3.880   3.734 -0.2022 -0.8112  0.6577
  706MOL0     C93108  -0.585   3.826   3.761  0.1956  0.1125 -1.0910
  706MOL0     C93109  -0.490   3.730   3.719  0.6344  0.3070 -0.1130
  706MOL0     N93110   0.209   3.797   3.754 -0.5858  0.3824  0.2843
  706MOL0     N93111   0.301   3.799   3.848  0.5850  0.6644 -1.1732
  706MOL0     C93112   0.187   4.411   4.673 -0.4400  0.5800  1.1413
  706MOL0     C93113   0.228   4.462   4.795  0.0139  1.8421  0.3181
  706MOL0     C93114   0.328   4.501   5.211  0.1248 -1.4614 -0.7266
  706MOL0     C93115   0.269   4.475   5.341 -0.6382  0.2415  0.7271
  706MOL0     C93116   0.341   4.509   5.458  1.8152 -0.4744  0.6059
  706MOL0     C93117   0.459   4.591   5.446  0.1454 -0.2992  0.2665
  706MOL0     O93118   0.534   4.615   5.565  0.9377  0.0042  0.3847
  706MOL0     C93119   0.630   4.713   5.585  0.8821  0.5204  0.3630
  706MOL0     C93120   0.767   4.650   5.607 -1.0654  0.6903 -0.4643
  706MOL0     C93121   0.879   4.753   5.607  0.2166  0.1918  0.5105
  706MOL0     C93122   1.017   4.699   5.643 -0.1431 -0.5567  0.0321
  706MOL0     C93123   1.036   4.714   5.780 -1.1093  0.8936  0.0673
  706MOL0     C93124   1.040   4.744   5.897  0.6797  0.4016 -0.2358
  706MOL0     C93125   0.505   4.622   5.312  0.4214 -0.1968  0.2875
  706MOL0     C93126   0.437   4.585   5.199 -0.3719  0.6508 -0.0622
  706MOL0     H93127   0.405   4.189   4.904  2.4446  1.1024 -0.3267
  706MOL0     H93128   0.343   4.103   4.676 -0.2478 -0.4630  0.5050
  706MOL0     H93129   0.260   4.044   4.489  1.4837  0.0823  1.6149
  706MOL0     H93130   0.361   4.175   4.428 -1.0105  3.1857 -3.5397
  706MOL0     H93131   0.247   4.197   4.223  1.8348 -0.7140  0.6795
  706MOL0     H93132   0.093   4.125   4.288 -0.1747 -3.5569  5.0801
  706MOL0     H93133   0.349   3.957   4.259  0.3551 -0.3850 -0.3129
  706MOL0     H93134   0.247   3.978   4.123  1.1953  0.2313 -0.1627
  706MOL0     H93135   0.203   3.859   4.401  1.8666  1.1800 -1.0849
  706MOL0     H93136   0.060   3.912   4.310 -1.5200 -3.2266 -1.6500
  706MOL0     H93137   0.151   3.771   4.121  0.5337  2.2584 -0.0895
  706MOL0     H93138   0.099   3.673   4.245 -0.4136  1.9848 -0.5505
  706MOL0     H93139   0.323   3.648   4.342  1.4777  2.1345 -0.1511
  706MOL0     H93140   0.406   3.742   4.235  2.0822 -3.3838  1.9703
  706MOL0     H93141   0.387   3.484   4.186 -0.9387 -1.1301  1.5081
  706MOL0     H93142   0.230   3.523   4.130  0.5772 -0.8544  1.0852
  706MOL0     H93143   0.432   3.518   3.965 -0.3533 -0.1214 -0.2823
  706MOL0     H93144   0.459   3.694   4.014 -0.9360  1.1500 -1.4517
  706MOL0     H93145   0.180   3.488   3.849 -0.3430 -0.0451  0.1570
  706MOL0     H93146   0.097   3.569   3.561 -0.8515  0.2999 -0.1021
  706MOL0     H93147   0.027   3.727   3.583 -1.6662 -0.1781  0.5013
  706MOL0     H93148  -0.100   3.593   3.783 -0.1535  0.6421  0.0773
  706MOL0     H93149  -0.067   3.458   3.684  0.1438  0.6939  1.0090
  706MOL0     H93150  -0.235   3.715   3.634  0.5789 -0.7335  0.2748
  706MOL0     H93151  -0.190   3.598   3.495 -0.3262 -0.2386 -1.3364
  706MOL0     H93152  -0.324   3.523   3.753  2.8394 -1.2200  0.3158
  706MOL0     H93153  -0.284   3.409   3.624 -0.1048 -0.8886  1.5264
  706MOL0     H93154  -0.654   3.562   3.490  4.1920 -0.4133 -0.2224
  706MOL0     H93155  -0.842   3.722   3.559  1.7864 -0.6804 -2.3737
  706MOL0     H93156  -0.929   4.211   3.791  0.7675 -1.3255 -0.6853
  706MOL0     H93157  -1.114   4.301   3.927 -0.4897  0.1259 -0.4572
  706MOL0     H93158  -1.158   4.441   4.264 -0.1151 -1.3075  1.0994
  706MOL0     H93159  -1.019   4.420   4.163  1.1908 -0.1157  1.9789
  706MOL0     H93160  -0.973   4.464   4.386 -1.7836  0.7370 -1.1466
  706MOL0     H93161  -0.908   4.301   4.351 -0.7914 -0.8653  1.7508
  706MOL0     H93162  -1.083   4.197   4.461 -2.6040  0.3869 -0.2173
  706MOL0     H93163  -1.163   4.357   4.486  0.9210  0.4809  5.3973
  706MOL0     H93164  -0.914   4.251   4.611  1.4400  1.8844  2.1903
  706MOL0     H93165  -0.960   4.419   4.594 -1.6362 -0.8161 -0.6616
  706MOL0     H93166  -1.141   4.195   4.718 -4.0081  1.3254 -3.3331
  706MOL0     H93167  -1.173   4.359   4.722  1.1705 -0.8137  0.7717
  706MOL0     H93168  -0.996   4.406   4.897 -1.6707  0.4288 -1.3495
  706MOL0     H93169  -0.911   4.254   4.845 -0.7092  0.1468 -0.0751
  706MOL0     H93170  -1.198   4.271   4.960  0.6349 -0.0125  0.2025
  706MOL0     H93171  -1.099   4.132   4.971 -0.9710  0.5867  0.2714
  706MOL0     H93172  -1.058   4.396   5.112  1.1466 -0.5062  0.2612
  706MOL0     H93173  -0.944   4.273   5.126 -0.6170 -1.8435  0.9174
  706MOL0     H93174  -0.994   4.052   4.248 -1.9130  2.4141  0.5191
  706MOL0     H93175  -0.808   3.957   4.117 -0.5267 -0.8763 -0.1811
  706MOL0     H93176  -0.550   3.901   3.831  0.5325 -0.9592 -0.0781
  706MOL0     H93177  -0.393   3.713   3.766 -0.2919 -0.3742  1.6707
  706MOL0     H93178   0.115   4.460   4.609 -0.4576 -0.2920  0.4652
  706MOL0     H93179   0.204   4.565   4.820 -0.7046  2.3182 -2.0923
  706MOL0     H93180   0.174   4.422   5.342 -0.5177 -0.0306 -0.4467
  706MOL0     H93181   0.305   4.483   5.557  1.9237 -0.4576  0.6497
  706MOL0     H93182   0.597   4.777   5.667 -2.7874  2.9690 -2.7194
  706MOL0     H93183   0.625   4.778   5.498 -1.4141  0.1339  0.1435
  706MOL0     H93184   0.758   4.611   5.709 -2.2233 -1.0634 -1.1935
  706MOL0     H93185   0.791   4.561   5.548  1.7662  1.2966 -0.3751
  706MOL0     H93186   0.855   4.835   5.675  0.2643  0.2223  0.4901
  706MOL0     H93187   0.876   4.800   5.509 -3.0584 -0.6879  0.0813
  706MOL0     H93188   1.028   4.596   5.609  2.5950 -0.3909  0.2301
  706MOL0     H93189   1.099   4.757   5.600  0.7257 -1.0836  0.9505
  706MOL0     H93190   1.017   4.777   5.997 -0.5210 -0.5989 -0.1599
  706MOL0     H93191   0.596   4.679   5.297  0.8774 -0.6997  1.0686
  706MOL0     H93192   0.474   4.623   5.104  2.7872  0.8330  1.1011
  707MOL0     O93193   1.049   3.089   8.090 -0.1132 -0.4885  0.3491
  707MOL0     C93194   0.952   3.062   8.165  0.1564  0.0649  0.2667
  707MOL0     O93195   0.946   2.945   8.240 -0.5329  0.9687  0.5309
  707MOL0     C93196   1.045   2.848   8.225  0.6957  0.3400 -0.5553
  707MOL0     C93197   1.064   2.790   8.103  0.0663 -1.1605  0.7289
  707MOL0     C93198   1.151   2.686   8.078 -0.2261 -0.3473  0.3689
  707MOL0     C93199   1.222   2.632   8.184  0.0593 -0.4174  0.0496
  707MOL0     O93200   1.307   2.524   8.163  0.2337 -0.4706 -0.1534
  707MOL0     C93201   1.430   2.520   8.240  0.3931 -0.6820  0.2740
  707MOL0     C93202   1.531   2.603   8.179 -0.7287 -1.3149  0.9729
  707MOL0     C93203   1.671   2.592   8.239  0.0572  0.3959  0.7473
  707MOL0     C93204   1.769   2.675   8.168 -0.3192 -0.7536  0.4063
  707MOL0     C93205   1.890   2.698   8.255  0.4050  0.0813  0.2035
  707MOL0     C93206   2.010   2.771   8.180 -0.3409 -0.3901 -0.2839
  707MOL0     C93207   2.131   2.778   8.272 -0.7733 -0.0094 -0.0020
  707MOL0     C93208   2.235   2.889   8.244 -0.7358 -1.2136 -0.1216
  707MOL0     N93209   2.330   2.910   8.358  0.3163 -0.5560 -0.0162
  707MOL0     C93210   2.424   3.007   8.358 -0.0304  0.2375  0.0472
  707MOL0     C93211   2.461   3.010   8.482  1.2608  0.9320  0.1447
  707MOL0     C93212   2.572   3.099   8.530  0.1816 -0.6282  0.2378
  707MOL0     C93213   2.523   3.238   8.564  0.2278 -0.2973  0.2079
  707MOL0     C93214   2.403   3.264   8.650  0.6626  0.4403  0.6626
  707MOL0     C93215   2.412   3.219   8.798  0.0207 -0.6059  0.4235
  707MOL0     O93216   2.277   3.226   8.839  0.1271  0.4013 -0.0913
  707MOL0     C93217   2.247   3.327   8.930 -0.1890  0.3912 -1.0573
  707MOL0     C93218   2.160   3.434   8.893  0.3754 -0.1149  0.4049
  707MOL0     C93219   2.139   3.552   8.974  0.3968  0.0940 -0.9795
  707MOL0     C93220   2.199   3.545   9.107  0.8049 -0.3683 -0.2519
  707MOL0     C93221   2.163   3.649   9.206 -0.2933 -0.6169 -0.4029
  707MOL0     O93222   2.201   3.626   9.337 -0.5834 -0.4124  0.1431
  707MOL0     C93223   2.179   3.718   9.432 -0.1870  1.1358  0.1380
  707MOL0     C93224   2.251   3.838   9.428  0.0846 -0.2206  0.2215
  707MOL0     C93225   2.226   3.938   9.530  0.8042  0.8486 -0.1921
  707MOL0     C93226   2.127   3.911   9.623 -1.2393 -0.3024 -0.2830
  707MOL0     O93227   2.090   4.005   9.715 -0.4702  0.3942 -0.0573
  707MOL0     C93228   2.089   4.143   9.672  0.3910  0.5755  0.8770
  707MOL0     C93229   2.062   4.231   9.794  0.4246  0.4781  0.2790
  707MOL0     C93230   2.080   4.382   9.765  0.2943  0.2185 -0.2157
  707MOL0     C93231   2.057   4.478   9.886 -0.9270 -0.5241 -0.9866
  707MOL0     C93232   1.916   4.478   9.946  0.2976  0.2416  0.3319
  707MOL0     C93233   1.915   4.443  10.092 -0.0749  0.3895  0.7604
  707MOL0     C93234   1.789   4.514  10.162 -0.7554  0.6269  0.7070
  707MOL0     C93235   1.844   4.638  10.233 -0.0228 -0.0005 -0.4610
  707MOL0    Cl93236   1.710   4.733  10.323 -0.0400 -0.4090  0.7378
  707MOL0     C93237   2.072   3.781   9.629  0.8295 -0.4697 -0.2926
  707MOL0     C93238   2.099   3.680   9.538 -0.2297  0.1087 -0.2884
  707MOL0     O93239   2.088   3.742   9.177 -0.0440 -0.7025 -0.6003
  707MOL0     C93240   2.277   3.439   9.142  0.3543 -0.7913 -0.2339
  707MOL0     C93241   2.301   3.330   9.062  1.3615 -0.0897  0.0457
  707MOL0     N93242   2.392   2.911   8.552  0.7303  0.3682  0.2834
  707MOL0     N93243   2.299   2.867   8.484  0.3255 -0.0074 -0.3726
  707MOL0     C93244   1.194   2.676   8.316  0.9253  0.3690  0.0416
  707MOL0     C93245   1.109   2.787   8.331  0.0273  0.1996 -0.6164
  707MOL0     C93246   0.837   3.157   8.178 -0.4992 -0.2257 -0.5864
  707MOL0     C93247   0.705   3.112   8.199 -0.3445 -0.0461  0.4783
  707MOL0     C93248   0.593   3.206   8.196  0.1397  0.0855 -0.0859
  707MOL0     C93249   0.611   3.341   8.184 -0.7124  0.0574 -0.1309
  707MOL0     O93250   0.510   3.438   8.175  0.6876 -0.5659  0.1014
  707MOL0     C93251   0.373   3.417   8.205 -0.3663  0.9510 -0.9097
  707MOL0     C93252   0.307   3.352   8.101  0.1024  0.1671 -0.0125
  707MOL0     C93253   0.160   3.323   8.137 -0.5155  0.2358  0.3081
  707MOL0     C93254   0.079   3.254   8.026  0.0973  0.2291  0.1286
  707MOL0     C93255   0.145   3.136   7.968 -0.4461 -0.1217 -0.1350
  707MOL0     C93256   0.214   3.043   7.943 -0.4828  0.9634 -0.4224
  707MOL0     C93257   0.748   3.388   8.169  0.4452  0.3232 -0.0837
  707MOL0     C93258   0.848   3.294   8.168 -0.1512  0.1178  0.9554
  707MOL0     H93259   1.011   2.819   8.012  2.1759 -1.3404 -0.6177
  707MOL0     H93260   1.171   2.645   7.979  0.9993  2.2948 -0.5906
  707MOL0     H93261   1.469   2.419   8.225 -0.3127 -0.6676 -2.0523
  707MOL0     H93262   1.417   2.536   8.348 -0.4494 -0.6645  0.1822
  707MOL0     H93263   1.508   2.710   8.180  3.9596 -0.0285 -0.9161
  707MOL0     H93264   1.540   2.571   8.075  0.7138 -0.8917  0.9380
  707MOL0     H93265   1.712   2.493   8.218 -1.5702 -0.0544 -0.5629
  707MOL0     H93266   1.662   2.619   8.344 -0.4530 -2.0165  1.3723
  707MOL0     H93267   1.804   2.636   8.072  0.5191  0.2119  0.2965
  707MOL0     H93268   1.725   2.773   8.146 -1.2485 -1.1982  0.2761
  707MOL0     H93269   1.934   2.598   8.259 -2.5541 -1.2772  1.2137
  707MOL0     H93270   1.879   2.745   8.353 -0.2257  2.6535 -1.0186
  707MOL0     H93271   1.980   2.874   8.160 -2.1922 -0.1247  3.2197
  707MOL0     H93272   2.028   2.725   8.082 -0.4605  0.4471 -0.7138
  707MOL0     H93273   2.094   2.801   8.372 -0.1347 -3.3707  1.1215
  707MOL0     H93274   2.186   2.684   8.280  0.6447  0.9395  2.5863
  707MOL0     H93275   2.188   2.984   8.216  1.0405  0.0181  0.8689
  707MOL0     H93276   2.283   2.856   8.152 -3.0681 -2.6214 -0.9207
  707MOL0     H93277   2.445   3.061   8.266 -1.2162  2.3265  0.9232
  707MOL0     H93278   2.658   3.095   8.462  0.4212 -1.9316  0.6001
  707MOL0     H93279   2.616   3.053   8.619 -0.0590 -3.6089 -1.0836
  707MOL0     H93280   2.497   3.278   8.465 -0.1820  1.2441  0.9094
  707MOL0     H93281   2.606   3.305   8.590 -1.4481  2.4742 -1.0705
  707MOL0     H93282   2.376   3.370   8.664 -1.3478  0.0428  0.0590
  707MOL0     H93283   2.323   3.216   8.594  0.3329  1.4424  0.2459
  707MOL0     H93284   2.479   3.270   8.868  1.1438  0.1621 -1.1504
  707MOL0     H93285   2.449   3.116   8.801  0.7388 -0.4300 -1.0710
  707MOL0     H93286   2.111   3.419   8.796  0.9226  1.2495 -0.1050
  707MOL0     H93287   2.082   3.642   8.953  2.2697  1.7815  0.7011
  707MOL0     H93288   2.316   3.854   9.343  2.8835 -1.7795  1.9398
  707MOL0     H93289   2.273   4.033   9.510  1.1770  0.4792 -1.1013
  707MOL0     H93290   2.007   4.151   9.599 -0.5991 -0.1172  1.8805
  707MOL0     H93291   2.183   4.178   9.630 -0.4419  2.3030  0.3413
  707MOL0     H93292   2.121   4.187   9.875  0.4542  1.1119  0.6048
  707MOL0     H93293   1.960   4.215   9.829 -0.0068  1.9795 -0.2329
  707MOL0     H93294   2.002   4.399   9.691  0.9066 -1.9066 -1.4287
  707MOL0     H93295   2.177   4.393   9.715  0.3036 -4.8548 -1.9364
  707MOL0     H93296   2.134   4.440   9.953 -1.7872 -0.2365  0.2026
  707MOL0     H93297   2.090   4.581   9.869  0.9096 -1.0804 -0.9943
  707MOL0     H93298   1.840   4.414   9.900  0.5694 -2.3805  3.1625
  707MOL0     H93299   1.875   4.578   9.928  0.5605  0.6909  2.0629
  707MOL0     H93300   2.007   4.477  10.140 -0.3902  1.8420  0.3747
  707MOL0     H93301   1.906   4.334  10.095 -0.8846  0.4607  2.2132
  707MOL0     H93302   1.705   4.554  10.105 -0.7044  0.2461  0.3562
  707MOL0     H93303   1.760   4.450  10.246 -2.2710 -0.2081 -0.4116
  707MOL0     H93304   1.893   4.707  10.163 -3.5423  0.0642 -3.1186
  707MOL0     H93305   1.921   4.609  10.305 -1.1731 -1.4298  0.2468
  707MOL0     H93306   2.006   3.769   9.715  3.4037 -1.3897  1.7093
  707MOL0     H93307   2.052   3.584   9.556 -0.0091  0.2338  1.0442
  707MOL0     H93308   2.320   3.447   9.241 -2.7234  1.0626  1.0911
  707MOL0     H93309   2.363   3.243   9.078  1.8738  0.2590 -0.0237
  707MOL0     H93310   1.237   2.630   8.405 -0.0755  0.5801  0.6498
  707MOL0     H93311   1.111   2.829   8.431  0.6194 -1.2283  0.0021
  707MOL0     H93312   0.687   3.005   8.196  1.2917 -0.3562  0.5386
  707MOL0     H93313   0.496   3.161   8.215 -0.1248  1.5703  2.4443
  707MOL0     H93314   0.326   3.513   8.225  2.1533  2.6335 -2.5001
  707MOL0     H93315   0.363   3.357   8.295 -4.8165 -0.7943 -2.2916
  707MOL0     H93316   0.318   3.410   8.009  2.0574 -2.5545 -1.6719
  707MOL0     H93317   0.349   3.254   8.077 -1.0984 -0.5667  0.7763
  707MOL0     H93318   0.107   3.410   8.176  0.3244  0.2534  1.4283
  707MOL0     H93319   0.163   3.251   8.219  2.6395  1.2559  1.1949
  707MOL0     H93320  -0.011   3.207   8.066  0.7616 -4.0749 -2.7396
  707MOL0     H93321   0.051   3.325   7.948 -2.9990 -2.4171 -1.4147
  707MOL0     H93322   0.279   2.958   7.946 -1.4386  0.2374  1.5430
  707MOL0     H93323   0.773   3.493   8.175 -0.7295  0.7243 -1.6215
  707MOL0     H93324   0.948   3.335   8.164 -0.8003  1.7021 -0.2827
  708MOL0     O93325   0.226  11.085   5.328 -0.3151  0.4627  0.1357
  708MOL0     C93326   0.149  11.102   5.235 -0.1182 -0.2654  0.2666
  708MOL0     O93327   0.013  11.127   5.250 -1.0941  0.0496 -0.1712
  708MOL0     C93328  -0.041  11.164   5.368  0.2109 -0.5575 -0.6346
  708MOL0     C93329   0.018  11.273   5.446  0.4183  0.7211 -0.5483
  708MOL0     C93330  -0.057  11.305   5.558  0.9446 -0.6320 -0.4691
  708MOL0     C93331  -0.188  11.255   5.581  0.0912  0.6372  1.0660
  708MOL0     O93332  -0.269  11.288   5.686 -0.1945  0.2325 -0.1982
  708MOL0     C93333  -0.212  11.330   5.805  0.3260 -0.7351  1.1525
  708MOL0     C93334  -0.271  11.460   5.854 -0.1305  0.1108  0.3781
  708MOL0     C93335  -0.206  11.584   5.793 -1.1071  0.2430  0.1042
  708MOL0     C93336  -0.071  11.610   5.855 -0.0723  1.1173 -0.4165
  708MOL0     C93337   0.003  11.724   5.773  1.1889  1.2671 -0.1053
  708MOL0     C93338   0.126  11.753   5.847  0.0016  0.1334  0.5666
  708MOL0     C93339   0.224  11.840   5.767  0.3709  0.0178 -0.0296
  708MOL0     C93340   0.367  11.848   5.831  0.9827  0.2460  0.3527
  708MOL0     N93341   0.376  11.925   5.948 -0.9118  0.5065  0.1947
  708MOL0     C93342   0.337  12.056   5.953  0.5451  0.4785 -0.1247
  708MOL0     C93343   0.361  12.080   6.087  1.0514 -0.1950  0.3418
  708MOL0     C93344   0.319  12.198   6.166  0.4247 -0.6052 -0.5706
  708MOL0     C93345   0.327  12.178   6.320  0.8084  0.1202  0.0443
  708MOL0     C93346   0.229  12.069   6.369  0.1488  0.2175 -0.6839
  708MOL0     C93347   0.274  12.015   6.513  0.2335 -0.1866 -0.4778
  708MOL0     O93348   0.168  11.933   6.584 -0.0068  0.6037 -0.3734
  708MOL0     C93349   0.170  11.791   6.573  0.0700  0.0430  0.0659
  708MOL0     C93350   0.139  11.710   6.683 -0.0114 -0.2829  0.0651
  708MOL0     C93351   0.142  11.578   6.677  0.4088  0.2542  0.4455
  708MOL0     C93352   0.182  11.517   6.561 -0.2033 -0.5380  0.4189
  708MOL0     C93353   0.180  11.368   6.544  0.1814  0.0352  0.2770
  708MOL0     O93354   0.081  11.311   6.614  0.2260 -0.1827 -0.2711
  708MOL0     C93355   0.051  11.183   6.584 -0.1257  1.3912 -0.3247
  708MOL0     C93356   0.110  11.064   6.640  0.3993 -0.5490 -1.1243
  708MOL0     C93357   0.073  10.937   6.597 -0.0781 -0.3204  0.8043
  708MOL0     C93358  -0.023  10.920   6.490 -1.1470 -0.2840  0.3143
  708MOL0     O93359  -0.078  10.798   6.454 -0.1699 -0.4219  0.8712
  708MOL0     C93360   0.018  10.690   6.436  0.3754 -0.7735  0.5079
  708MOL0     C93361  -0.008  10.563   6.349 -0.7009  0.0166  0.8219
  708MOL0     C93362  -0.089  10.443   6.416 -0.0949 -1.0366  0.0531
  708MOL0     C93363  -0.078  10.333   6.310  0.0324  0.3866 -0.4216
  708MOL0     C93364  -0.215  10.258   6.291 -0.0255  1.1355 -1.0426
  708MOL0     C93365  -0.211  10.174   6.162  0.2529 -0.7861 -1.3442
  708MOL0     C93366  -0.327  10.077   6.171  0.4536 -0.8154  0.0864
  708MOL0     C93367  -0.326   9.989   6.053  0.1874 -0.9413 -0.3676
  708MOL0    Cl93368  -0.178   9.883   6.049  0.3216  0.0177 -0.1479
  708MOL0     C93369  -0.093  11.033   6.452 -0.4762  0.0984 -1.2223
  708MOL0     C93370  -0.061  11.156   6.503  0.1850  0.1921 -0.7755
  708MOL0     O93371   0.254  11.320   6.456  0.0335 -0.2149  0.6466
  708MOL0     C93372   0.230  11.595   6.447 -0.6847 -0.1374 -0.2574
  708MOL0     C93373   0.215  11.731   6.449  0.1258  0.3064 -0.2525
  708MOL0     N93374   0.436  11.977   6.146 -0.0577 -0.4620 -0.1763
  708MOL0     N93375   0.440  11.877   6.067 -0.6355  0.9088 -0.6258
  708MOL0     C93376  -0.236  11.152   5.505 -0.6372  0.5833 -0.3227
  708MOL0     C93377  -0.157  11.105   5.403  0.2313  0.5339 -0.4295
  708MOL0     C93378   0.193  11.078   5.099 -0.1930  1.4480  0.1402
  708MOL0     C93379   0.113  11.130   4.995  0.4256 -0.2908 -0.0811
  708MOL0     C93380   0.157  11.116   4.869  0.8679  0.0547 -0.0639
  708MOL0     C93381   0.271  11.038   4.839  0.3704 -0.1649 -0.1128
  708MOL0     O93382   0.304  10.999   4.713  0.0435  1.1290 -0.9556
  708MOL0     C93383   0.246  11.072   4.604 -0.3080  0.1251 -0.4886
  708MOL0     C93384   0.316  11.042   4.476  0.9855  0.1518 -0.8690
  708MOL0     C93385   0.345  10.892   4.459 -0.2821  0.7331 -0.5694
  708MOL0     C93386   0.493  10.856   4.499  0.0953 -0.3026 -0.2502
  708MOL0     C93387   0.601  10.905   4.412 -0.5077 -0.1900 -0.3487
  708MOL0     C93388   0.687  10.949   4.335 -0.0259  0.0816  0.4545
  708MOL0     C93389   0.345  10.984   4.941  0.2208  0.2203 -0.0245
  708MOL0     C93390   0.319  11.008   5.075  0.5885 -0.0831  0.1359
  708MOL0     H93391   0.122  11.304   5.434  0.3603  1.3917  0.5570
  708MOL0     H93392  -0.023  11.397   5.605  1.7949  0.6726 -3.4204
  708MOL0     H93393  -0.103  11.332   5.796  0.1934 -0.4662 -1.0780
  708MOL0     H93394  -0.244  11.254   5.877 -1.0072 -2.1421 -0.8232
  708MOL0     H93395  -0.264  11.461   5.963 -2.8634  0.0583  0.6074
  708MOL0     H93396  -0.373  11.462   5.815 -1.2670  0.0207  3.1480
  708MOL0     H93397  -0.264  11.677   5.794 -0.2078  0.8186  0.9171
  708MOL0     H93398  -0.196  11.560   5.687  0.1962  2.8465 -0.4514
  708MOL0     H93399  -0.091  11.640   5.958 -1.0926  0.1828 -0.3288
  708MOL0     H93400   0.006  11.532   5.849 -0.8079  0.2333  1.0564
  708MOL0     H93401  -0.060  11.815   5.774 -1.8339 -0.5948  2.7903
  708MOL0     H93402   0.007  11.694   5.669  3.4143  2.9170 -0.5824
  708MOL0     H93403   0.171  11.654   5.861 -1.6176 -0.3936  2.6207
  708MOL0     H93404   0.111  11.788   5.950 -3.0437 -1.7880  0.9096
  708MOL0     H93405   0.236  11.794   5.669  1.0205 -0.2709  0.1763
  708MOL0     H93406   0.194  11.944   5.755 -1.3361 -0.3481  0.7658
  708MOL0     H93407   0.438  11.884   5.756 -0.0802 -0.0248 -0.7974
  708MOL0     H93408   0.407  11.748   5.852 -0.5689 -0.7730 -1.2908
  708MOL0     H93409   0.280  12.111   5.879 -0.4355  0.7539  0.8285
  708MOL0     H93410   0.221  12.225   6.125  0.6841 -3.4801 -3.4619
  708MOL0     H93411   0.379  12.284   6.135 -1.2541  0.5218 -0.8844
  708MOL0     H93412   0.309  12.276   6.365  0.0798 -0.2282  0.5309
  708MOL0     H93413   0.428  12.145   6.345 -0.5223 -2.1324  3.1245
  708MOL0     H93414   0.125  12.098   6.351  0.2293  0.4302 -0.8074
  708MOL0     H93415   0.227  11.982   6.303 -0.9420  0.8924 -1.5813
  708MOL0     H93416   0.293  12.100   6.579 -0.6644 -1.3217  1.3358
  708MOL0     H93417   0.355  11.942   6.503 -0.6727 -1.5185  1.1410
  708MOL0     H93418   0.116  11.759   6.778  2.2371 -2.1331  1.6960
  708MOL0     H93419   0.088  11.520   6.751  2.6222 -1.5599  0.7470
  708MOL0     H93420   0.191  11.075   6.712  0.7242  3.8984 -1.8640
  708MOL0     H93421   0.121  10.854   6.648 -2.3046 -2.8169 -0.9069
  708MOL0     H93422   0.039  10.639   6.531 -3.9015 -2.1037  0.9905
  708MOL0     H93423   0.106  10.742   6.399  0.9872 -0.2405  2.5601
  708MOL0     H93424   0.089  10.517   6.327 -0.2893  1.3017 -0.1947
  708MOL0     H93425  -0.054  10.596   6.255 -0.5505  0.6919  0.9800
  708MOL0     H93426  -0.192  10.476   6.434 -0.7171 -4.3370  3.6623
  708MOL0     H93427  -0.033  10.412   6.504 -1.6511  0.0817  1.4894
  708MOL0     H93428  -0.049  10.387   6.219  1.0318  3.3793  1.5228
  708MOL0     H93429   0.017  10.283   6.330  1.8576  3.2307 -1.3217
  708MOL0     H93430  -0.300  10.326   6.279  0.4197  1.6758 -1.1234
  708MOL0     H93431  -0.232  10.185   6.371  1.3011  0.0747 -1.7010
  708MOL0     H93432  -0.117  10.128   6.132  0.7510  1.2202 -3.0963
  708MOL0     H93433  -0.221  10.256   6.090 -2.4631  1.2641  1.0891
  708MOL0     H93434  -0.333  10.010   6.257 -0.9664 -1.8745 -0.7894
  708MOL0     H93435  -0.421  10.131   6.178  0.0175 -1.2236 -1.8269
  708MOL0     H93436  -0.335  10.058   5.968 -2.5370  0.7062  1.1102
  708MOL0     H93437  -0.406   9.917   6.069 -0.6362 -0.2767 -1.3302
  708MOL0     H93438  -0.168  11.030   6.374  1.5787  2.7099 -3.4730
  708MOL0     H93439  -0.118  11.240   6.463 -1.0642  0.7475  1.9028
  708MOL0     H93440   0.275  11.546   6.361  1.9279  2.9260 -0.8232
  708MOL0     H93441   0.226  11.783   6.354  1.5079  0.1031 -0.2212
  708MOL0     H93442  -0.335  11.109   5.505 -0.3064 -0.2079 -0.7448
  708MOL0     H93443  -0.192  11.039   5.324 -0.7909  2.3113 -1.5453
  708MOL0     H93444   0.019  11.178   5.016  0.7424 -0.2135  1.2849
  708MOL0     H93445   0.081  11.141   4.796 -0.4360 -0.5146  1.0619
  708MOL0     H93446   0.238  11.179   4.627  0.6837 -0.1275  1.1453
  708MOL0     H93447   0.143  11.036   4.598  0.8973 -3.4598 -2.5871
  708MOL0     H93448   0.262  11.069   4.385  1.9020  0.5420 -1.3045
  708MOL0     H93449   0.415  11.089   4.468  1.8547 -1.7985 -2.6132
  708MOL0     H93450   0.319  10.857   4.359 -0.7826  0.0574 -0.2105
  708MOL0     H93451   0.270  10.837   4.518  0.0055 -1.3439 -2.0525
  708MOL0     H93452   0.501  10.908   4.595  0.1593  1.8198 -1.3464
  708MOL0     H93453   0.501  10.749   4.520  1.2528 -0.3025 -0.5869
  708MOL0     H93454   0.762  11.005   4.282 -1.4571  4.1797  2.3783
  708MOL0     H93455   0.430  10.922   4.916  0.0092 -0.2825  0.4775
  708MOL0     H93456   0.381  10.983   5.160 -1.6505 -1.3791  1.5022
  709MOL0     O93457   0.526   5.562  10.627  0.7216  0.6988 -0.5152
  709MOL0     C93458   0.507   5.437  10.623 -0.4866  0.4518  0.1693
  709MOL0     O93459   0.562   5.349  10.530 -0.6239 -0.3658 -0.2621
  709MOL0     C93460   0.641   5.383  10.422 -1.0147  0.0218  0.6747
  709MOL0     C93461   0.747   5.307  10.382  0.4466 -0.0523 -0.2125
  709MOL0     C93462   0.820   5.335  10.267 -1.0070 -0.0992 -0.8991
  709MOL0     C93463   0.791   5.442  10.190  0.2324  0.3327 -1.2249
  709MOL0     O93464   0.840   5.470  10.064 -0.0674 -0.7451  0.2781
  709MOL0     C93465   0.973   5.424  10.046 -0.2935  0.5286  1.2719
  709MOL0     C93466   1.026   5.453   9.909 -0.3763 -1.1161  0.2471
  709MOL0     C93467   1.163   5.404   9.865  0.5700  0.3607 -0.1176
  709MOL0     C93468   1.277   5.482   9.932  0.8691  0.1130 -0.6136
  709MOL0     C93469   1.419   5.434   9.907 -0.5744  0.6608  0.1652
  709MOL0     C93470   1.437   5.385   9.767 -0.4554  0.9730  1.0057
  709MOL0     C93471   1.583   5.384   9.722 -0.8433 -0.8546  0.8395
  709MOL0     C93472   1.671   5.271   9.781 -0.3613  0.6642 -0.6505
  709MOL0     N93473   1.780   5.218   9.700  0.0637 -0.1386  0.3678
  709MOL0     C93474   1.911   5.215   9.740  1.2058 -0.3064 -0.3052
  709MOL0     C93475   1.966   5.151   9.640  0.7697  0.6355 -0.3983
  709MOL0     C93476   2.097   5.076   9.631 -0.1626 -0.5437  1.0624
  709MOL0     C93477   2.102   4.958   9.713  0.0792 -0.1437 -0.8690
  709MOL0     C93478   2.028   4.832   9.676 -1.3796 -0.1939  0.3221
  709MOL0     C93479   1.874   4.832   9.698 -0.7088 -0.2574 -0.5751
  709MOL0     O93480   1.837   4.834   9.828 -0.8840  0.4208  0.2772
  709MOL0     C93481   1.703   4.866   9.853 -1.3169 -0.6883  0.3236
  709MOL0     C93482   1.671   4.886   9.989 -0.5038  0.2272  0.4386
  709MOL0     C93483   1.544   4.931  10.026  1.0332 -0.1818  1.1124
  709MOL0     C93484   1.444   4.949   9.929  0.2036  0.6625 -0.2719
  709MOL0     C93485   1.309   4.988   9.970 -0.0396 -0.0972  0.4698
  709MOL0     O93486   1.205   4.960   9.882 -0.1433 -0.2091  0.1599
  709MOL0     C93487   1.074   5.010   9.894 -0.0443 -0.4588 -1.4811
  709MOL0     C93488   1.021   5.090   9.794 -0.0984  0.7271 -0.8670
  709MOL0     C93489   0.896   5.150   9.811  0.3735 -0.8221 -0.3022
  709MOL0     C93490   0.815   5.119   9.922 -0.0442  0.2294 -0.3655
  709MOL0     O93491   0.695   5.172   9.938 -0.0366  0.0531 -0.2621
  709MOL0     C93492   0.628   5.241   9.819 -0.3786  0.3943 -0.2385
  709MOL0     C93493   0.476   5.263   9.834  0.1555 -0.0408  0.3143
  709MOL0     C93494   0.399   5.132   9.880  0.0028  0.1188  0.4116
  709MOL0     C93495   0.262   5.187   9.922 -0.2777  0.3042 -0.2128
  709MOL0     C93496   0.146   5.090   9.900  0.9677 -0.2931  0.1965
  709MOL0     C93497   0.022   5.154   9.954  0.5435 -1.0541  0.6438
  709MOL0     C93498  -0.099   5.058   9.948  0.2214 -0.4134 -0.0107
  709MOL0     C93499  -0.208   5.093  10.052 -0.8235  0.9578  0.2107
  709MOL0    Cl93500  -0.218   5.259  10.091  0.3720  0.2360 -0.1699
  709MOL0     C93501   0.866   5.040  10.024  0.3596 -0.2422  0.4434
  709MOL0     C93502   0.989   4.983  10.006 -0.4888 -0.4822 -0.0238
  709MOL0     O93503   1.295   5.053  10.067  0.5497  0.5790  0.4389
  709MOL0     C93504   1.479   4.933   9.798  0.9110  1.2461 -0.4832
  709MOL0     C93505   1.604   4.897   9.758  0.6709 -0.1946  0.2787
  709MOL0     N93506   1.882   5.144   9.526  0.3139 -0.0103 -0.3876
  709MOL0     N93507   1.771   5.182   9.569 -0.0154  0.6525  0.6106
  709MOL0     C93508   0.697   5.529  10.228  0.5127  0.1638  0.2612
  709MOL0     C93509   0.611   5.497  10.341 -0.4641 -0.7794 -0.0785
  709MOL0     C93510   0.428   5.406  10.741 -0.8092  1.1033  0.1557
  709MOL0     C93511   0.355   5.496  10.820  0.1574 -0.9019 -0.0285
  709MOL0     C93512   0.251   5.450  10.899  0.2470  0.5346  0.7897
  709MOL0     C93513   0.232   5.309  10.928  0.8492  0.0748 -0.4764
  709MOL0     O93514   0.124   5.262  11.000 -0.6404 -0.0261  0.6403
  709MOL0     C93515   0.079   5.126  10.986 -0.1680 -0.5071  0.0069
  709MOL0     C93516  -0.075   5.140  10.997  0.2155 -0.4521 -0.3069
  709MOL0     C93517  -0.126   5.166  11.148  0.1156  0.0952 -0.4256
  709MOL0     C93518  -0.269   5.201  11.165  0.9834  0.1746 -0.5167
  709MOL0     C93519  -0.318   5.317  11.072  0.2007  0.3601 -0.0397
  709MOL0     C93520  -0.363   5.416  11.005  0.3477  0.6273 -0.5267
  709MOL0     C93521   0.322   5.220  10.867  0.0737 -0.3702 -0.4980
  709MOL0     C93522   0.414   5.273  10.776  0.3559  0.1261 -0.1809
  709MOL0     H93523   0.768   5.225  10.451  1.2924 -0.3086 -0.7536
  709MOL0     H93524   0.907   5.272  10.249  0.0743  1.0845  0.0059
  709MOL0     H93525   0.974   5.316  10.059 -1.8093  0.3411  0.0516
  709MOL0     H93526   1.044   5.461  10.121 -0.6326  0.0572  1.8323
  709MOL0     H93527   1.010   5.561   9.899 -4.0928 -1.5287  0.1319
  709MOL0     H93528   0.949   5.422   9.837 -0.4751 -3.3679  1.2619
  709MOL0     H93529   1.167   5.419   9.757  1.4788  2.4146  0.1734
  709MOL0     H93530   1.176   5.296   9.881  1.3437  0.6390  1.2976
  709MOL0     H93531   1.256   5.588   9.915  0.5769  0.2480  0.5452
  709MOL0     H93532   1.268   5.470  10.040 -1.6724  3.5258 -0.2897
  709MOL0     H93533   1.445   5.353   9.976  0.2617 -0.3052 -1.2109
  709MOL0     H93534   1.489   5.513   9.933  0.5591 -0.2880  0.0717
  709MOL0     H93535   1.381   5.458   9.707 -2.0432  1.5110  3.0208
  709MOL0     H93536   1.398   5.285   9.751  0.3547  0.8297 -0.2692
  709MOL0     H93537   1.581   5.376   9.613  0.4376 -1.0809  0.8247
  709MOL0     H93538   1.626   5.481   9.745 -2.5461  0.2054 -0.1990
  709MOL0     H93539   1.604   5.186   9.799 -2.7690  2.1944 -1.8321
  709MOL0     H93540   1.705   5.290   9.883  1.2305  1.1922 -1.2519
  709MOL0     H93541   1.940   5.224   9.844  1.0904  3.8139 -0.4633
  709MOL0     H93542   2.176   5.146   9.661  0.3215 -1.0012  0.8693
  709MOL0     H93543   2.102   5.038   9.528 -0.6966  1.3131  0.3025
  709MOL0     H93544   2.081   4.974   9.819 -4.8254  1.1063 -1.8117
  709MOL0     H93545   2.210   4.937   9.709  0.7903  2.3544  1.7999
  709MOL0     H93546   2.047   4.791   9.576 -4.6169  2.5342 -1.5936
  709MOL0     H93547   2.063   4.751   9.741  3.7300 -0.0369 -1.7389
  709MOL0     H93548   1.852   4.731   9.663  1.5321 -1.0013 -0.0016
  709MOL0     H93549   1.835   4.915   9.639  2.7053  0.8674 -1.4824
  709MOL0     H93550   1.747   4.857  10.061  1.1055  1.2011 -0.8098
  709MOL0     H93551   1.522   4.936  10.133  1.4812  0.1644  1.1874
  709MOL0     H93552   1.083   5.118   9.710  0.7339  1.4584 -0.0293
  709MOL0     H93553   0.855   5.208   9.729 -1.7906  0.1336  1.3532
  709MOL0     H93554   0.640   5.183   9.728  0.1182  2.5162 -1.5992
  709MOL0     H93555   0.672   5.341   9.805 -0.5932  0.0626 -4.4255
  709MOL0     H93556   0.442   5.299   9.736  1.8543  2.8443  0.6644
  709MOL0     H93557   0.457   5.333   9.916  1.1839  2.3547 -1.3545
  709MOL0     H93558   0.452   5.093   9.967  1.0520  1.4897  0.4179
  709MOL0     H93559   0.392   5.063   9.795  1.1290  0.8758 -0.3266
  709MOL0     H93560   0.268   5.205  10.030  0.1415  1.3431 -0.3970
  709MOL0     H93561   0.234   5.275   9.864  1.6696 -0.5222 -2.5916
  709MOL0     H93562   0.169   4.994   9.946  0.7880 -0.7731 -0.7049
  709MOL0     H93563   0.139   5.067   9.794 -0.7796  0.1776  0.1854
  709MOL0     H93564   0.008   5.243   9.893  1.6115 -0.4699  1.2173
  709MOL0     H93565   0.040   5.180  10.059  0.5210 -0.1374  0.4249
  709MOL0     H93566  -0.144   5.073   9.849  0.8618  0.3254 -0.2008
  709MOL0     H93567  -0.079   4.951   9.954 -2.5313 -1.0464 -0.7513
  709MOL0     H93568  -0.179   5.039  10.143  0.0991 -1.0930 -1.2138
  709MOL0     H93569  -0.306   5.054  10.026 -1.1360  1.7897  0.1089
  709MOL0     H93570   0.812   5.026  10.117 -0.3438  1.2921  0.2936
  709MOL0     H93571   1.046   4.949  10.092 -0.6540  1.8815  1.0868
  709MOL0     H93572   1.397   4.922   9.727 -0.3390 -2.1917  1.2459
  709MOL0     H93573   1.628   4.894   9.652 -1.7905 -0.5127 -0.3127
  709MOL0     H93574   0.658   5.595  10.151 -0.5365 -1.8048 -0.9741
  709MOL0     H93575   0.516   5.549  10.352  0.9117  1.4213  3.3668
  709MOL0     H93576   0.379   5.602  10.826  3.0149 -1.5476  2.4766
  709MOL0     H93577   0.174   5.519  10.933 -1.1964  0.9137 -2.8533
  709MOL0     H93578   0.119   5.061  11.064  1.4286  4.0988  3.5085
  709MOL0     H93579   0.095   5.088  10.885  2.3269 -0.5659  0.3437
  709MOL0     H93580  -0.098   5.222  10.929 -0.7938 -1.7364 -1.5833
  709MOL0     H93581  -0.122   5.049  10.957 -2.8270  0.7303  0.2728
  709MOL0     H93582  -0.055   5.237  11.191  1.1017 -0.3402 -1.2884
  709MOL0     H93583  -0.110   5.071  11.201 -2.5481  0.2639  0.8236
  709MOL0     H93584  -0.328   5.112  11.141  0.7513 -0.0821  0.9036
  709MOL0     H93585  -0.294   5.233  11.266 -0.3814  0.5579 -0.9610
  709MOL0     H93586  -0.415   5.502  10.968  0.4399  2.7311  3.6426
  709MOL0     H93587   0.333   5.113  10.878  4.9874 -0.1295 -0.7462
  709MOL0     H93588   0.482   5.202  10.732  2.4057  1.6066  0.4666
  710MOL0     O93589   8.415  10.004   0.738 -0.5532 -0.1154  0.3015
  710MOL0     C93590   8.445   9.946   0.846 -0.5904  0.4238  0.9607
  710MOL0     O93591   8.527   9.841   0.858  0.1706 -0.6684  0.1401
  710MOL0     C93592   8.587   9.797   0.739  1.3299  0.2420 -0.2195
  710MOL0     C93593   8.695   9.865   0.694  0.4705 -0.4956  0.3024
  710MOL0     C93594   8.777   9.811   0.595  0.1812  0.6911 -0.1375
  710MOL0     C93595   8.755   9.687   0.533 -0.5382  0.8952 -0.8601
  710MOL0     O93596   8.820   9.641   0.422  0.3919 -0.5765 -0.8322
  710MOL0     C93597   8.959   9.660   0.425 -0.2250  0.5140  0.4938
  710MOL0     C93598   9.017   9.592   0.302  0.2125 -1.4954  1.4904
  710MOL0     C93599   9.169   9.614   0.283  0.3620  0.9369  0.6004
  710MOL0     C93600   9.248   9.542   0.380  0.5480 -1.3284  0.3267
  710MOL0     C93601   9.401   9.577   0.359  0.0555 -0.9885  0.2970
  710MOL0     C93602   9.490   9.492   0.449 -0.4899  0.3708  0.2982
  710MOL0     C93603   9.622   9.455   0.388 -1.0238  0.3777 -1.2204
  710MOL0     C93604   9.728   9.387   0.481  0.4320 -0.3477  1.1750
  710MOL0     N93605   9.829   9.339   0.390  0.8527 -0.0337  1.1007
  710MOL0     C93606   9.821   9.245   0.291 -1.2014  0.4906  0.8288
  710MOL0     C93607   9.943   9.263   0.227 -0.4640 -0.4006  0.4271
  710MOL0     C93608   9.996   9.205   0.095  0.6725 -0.4660 -0.1528
  710MOL0     C93609   9.894   9.203  -0.025 -0.3055 -0.6425 -0.0799
  710MOL0     C93610   9.959   9.133  -0.139  0.4343  1.0133  0.2273
  710MOL0     C93611   9.878   9.146  -0.269  0.1856  0.2851  0.6772
  710MOL0     O93612   9.760   9.065  -0.254 -0.0011  0.6171  0.1103
  710MOL0     C93613   9.729   8.979  -0.362  0.1589 -0.6800  0.1369
  710MOL0     C93614   9.720   9.022  -0.496 -0.5613 -0.2243  0.2683
  710MOL0     C93615   9.663   8.946  -0.597  0.0832  0.2463 -0.5933
  710MOL0     C93616   9.621   8.807  -0.564 -0.4024  0.1146  0.2679
  710MOL0     C93617   9.560   8.721  -0.667 -0.0109  0.9246 -1.1974
  710MOL0     O93618   9.513   8.793  -0.768  0.3320  0.1692  0.0621
  710MOL0     C93619   9.481   8.716  -0.882 -0.5744 -0.0348  0.1493
  710MOL0     C93620   9.585   8.658  -0.948  1.1033 -1.1126 -0.0174
  710MOL0     C93621   9.552   8.565  -1.061  0.0538 -0.2314 -0.7824
  710MOL0     C93622   9.421   8.544  -1.101 -0.8800  0.1623 -1.2559
  710MOL0     O93623   9.396   8.455  -1.201  0.1958 -0.4243 -0.0445
  710MOL0     C93624   9.389   8.324  -1.139 -0.0683 -0.2802  0.5658
  710MOL0     C93625   9.317   8.216  -1.225 -0.4740  0.0898  0.4931
  710MOL0     C93626   9.168   8.249  -1.258 -1.0084  0.3286 -0.3034
  710MOL0     C93627   9.140   8.352  -1.371 -0.4805  0.5005  0.5357
  710MOL0     C93628   8.988   8.388  -1.383 -0.0118  0.8139 -0.5889
  710MOL0     C93629   8.901   8.262  -1.413 -0.2397  0.1842  0.2403
  710MOL0     C93630   8.756   8.301  -1.446 -0.1268 -0.4088 -0.4545
  710MOL0     C93631   8.669   8.197  -1.511 -1.0241 -0.6353  1.6002
  710MOL0    Cl93632   8.691   8.033  -1.461 -0.0556  0.1271 -0.1426
  710MOL0     C93633   9.312   8.598  -1.023 -0.2057  0.9722 -0.6355
  710MOL0     C93634   9.340   8.687  -0.914 -0.6930 -0.1770  0.4429
  710MOL0     O93635   9.553   8.600  -0.649 -0.6300 -0.3441  0.0026
  710MOL0     C93636   9.647   8.764  -0.430  0.3556 -0.4874 -1.0547
  710MOL0     C93637   9.695   8.850  -0.327 -0.2002 -0.5717  0.3638
  710MOL0     N93638  10.024   9.356   0.301 -0.5284 -0.4359  0.5080
  710MOL0     N93639   9.947   9.409   0.391  0.5822 -0.1162  0.1579
  710MOL0     C93640   8.659   9.604   0.600 -0.3759 -0.5219  0.3451
  710MOL0     C93641   8.568   9.663   0.689  1.5773 -0.6247  0.8886
  710MOL0     C93642   8.393  10.002   0.970  0.0866  0.2362 -0.3607
  710MOL0     C93643   8.455   9.990   1.099 -0.5031  0.4523  0.2438
  710MOL0     C93644   8.398  10.038   1.214  0.2191  1.1295  0.2758
  710MOL0     C93645   8.270  10.095   1.216 -0.4185  0.2505 -0.5060
  710MOL0     O93646   8.225  10.157   1.334 -0.0544  0.3043 -0.4933
  710MOL0     C93647   8.219  10.300   1.322  0.9564  0.0150 -0.8333
  710MOL0     C93648   8.096  10.377   1.268  1.3882 -0.1700  0.5701
  710MOL0     C93649   7.964  10.329   1.334  1.0156  0.1567  0.6919
  710MOL0     C93650   7.841  10.416   1.309  0.3708  0.4485  0.0016
  710MOL0     C93651   7.863  10.565   1.321 -0.6207 -0.4219 -0.4883
  710MOL0     C93652   7.866  10.686   1.327  0.2157  0.0222  0.2614
  710MOL0     C93653   8.205  10.108   1.084 -0.5047 -0.2079 -0.6773
  710MOL0     C93654   8.269  10.065   0.970 -0.2221  0.2306 -0.1429
  710MOL0     H93655   8.717   9.964   0.731 -3.1152 -1.1968  5.2945
  710MOL0     H93656   8.847   9.887   0.562  2.8402 -0.9475  1.3975
  710MOL0     H93657   8.994   9.609   0.515 -1.2483 -1.2139 -0.0379
  710MOL0     H93658   8.988   9.766   0.427  0.1177  0.4889 -1.1348
  710MOL0     H93659   8.962   9.638   0.220  1.1258 -0.8280  1.2375
  710MOL0     H93660   8.994   9.485   0.299 -0.6384 -1.3075 -1.1048
  710MOL0     H93661   9.204   9.717   0.293  0.5376  0.8713  0.6613
  710MOL0     H93662   9.206   9.569   0.190 -0.3528 -1.7853  1.5103
  710MOL0     H93663   9.221   9.569   0.482  3.8676 -0.9833  1.2493
  710MOL0     H93664   9.237   9.433   0.377 -0.2838 -1.4103  3.3378
  710MOL0     H93665   9.408   9.685   0.376 -2.1708 -0.4416 -1.7335
  710MOL0     H93666   9.442   9.567   0.258  1.0587 -1.1360  0.7050
  710MOL0     H93667   9.425   9.408   0.479 -2.1326  1.7732  0.8451
  710MOL0     H93668   9.529   9.545   0.536  0.8401  0.9034 -0.6040
  710MOL0     H93669   9.605   9.388   0.302 -0.0435 -2.0207  0.3385
  710MOL0     H93670   9.668   9.549   0.357 -4.0402  1.7383 -1.9479
  710MOL0     H93671   9.677   9.306   0.534  0.0645 -1.2473 -0.4925
  710MOL0     H93672   9.763   9.464   0.550 -0.4850 -1.7764  3.3352
  710MOL0     H93673   9.746   9.171   0.262  0.8518 -1.3877 -0.0022
  710MOL0     H93674  10.031   9.104   0.118  0.2671 -0.6625 -0.3896
  710MOL0     H93675  10.075   9.258   0.040 -0.5564 -0.2580 -1.8074
  710MOL0     H93676   9.877   9.305  -0.063  1.9601 -0.8005 -1.7860
  710MOL0     H93677   9.799   9.159   0.005 -0.7069 -1.9365 -2.8623
  710MOL0     H93678  10.058   9.174  -0.161  0.4879 -0.1129 -1.8953
  710MOL0     H93679   9.987   9.032  -0.108  1.0102  1.9680  3.1901
  710MOL0     H93680   9.948   9.113  -0.347 -0.2748  3.1322 -1.1094
  710MOL0     H93681   9.841   9.247  -0.292  0.4291  0.4315  0.9352
  710MOL0     H93682   9.746   9.125  -0.519  2.8549 -1.3577 -1.5393
  710MOL0     H93683   9.654   8.988  -0.697  0.6963  1.6752 -0.0606
  710MOL0     H93684   9.683   8.695  -0.921 -0.8547  3.6594  1.6582
  710MOL0     H93685   9.638   8.535  -1.120  0.2226  2.4743 -2.0694
  710MOL0     H93686   9.328   8.331  -1.048  2.2509 -1.0278  2.2612
  710MOL0     H93687   9.486   8.281  -1.111 -1.1220 -2.1304  1.5587
  710MOL0     H93688   9.326   8.126  -1.164  2.0099  0.1318  0.3092
  710MOL0     H93689   9.374   8.202  -1.318 -2.7031 -0.4973 -0.8540
  710MOL0     H93690   9.115   8.272  -1.165 -3.0287  1.7797 -1.7567
  710MOL0     H93691   9.133   8.153  -1.297 -1.7299 -0.3771  1.8885
  710MOL0     H93692   9.191   8.442  -1.339  2.2336 -1.9976  4.0148
  710MOL0     H93693   9.178   8.313  -1.466  0.1342  0.8739  0.6265
  710MOL0     H93694   8.995   8.461  -1.464  0.0737 -1.0442 -2.3627
  710MOL0     H93695   8.950   8.420  -1.286 -1.5520 -0.0983 -0.8642
  710MOL0     H93696   8.900   8.195  -1.326  0.9084 -2.4040 -1.6380
  710MOL0     H93697   8.938   8.202  -1.496 -0.5732 -0.0688  0.2702
  710MOL0     H93698   8.709   8.334  -1.353 -0.9404  0.2968 -1.0943
  710MOL0     H93699   8.744   8.392  -1.506  1.4673  0.4308  0.4409
  710MOL0     H93700   8.702   8.196  -1.616  2.4450  3.2624  2.3733
  710MOL0     H93701   8.564   8.220  -1.495 -0.9977 -1.4517  3.0760
  710MOL0     H93702   9.208   8.576  -1.047 -0.5865 -2.3638  2.9816
  710MOL0     H93703   9.256   8.743  -0.873 -0.4791 -0.2253  0.9504
  710MOL0     H93704   9.633   8.664  -0.392  0.3209  0.0398  0.3877
  710MOL0     H93705   9.705   8.827  -0.221 -0.0797 -3.0779 -0.1359
  710MOL0     H93706   8.644   9.501   0.571 -3.0103 -0.1122 -0.0393
  710MOL0     H93707   8.491   9.608   0.741 -0.3164  1.9017  0.9653
  710MOL0     H93708   8.544   9.931   1.116 -0.0863  1.8597  3.7001
  710MOL0     H93709   8.449  10.022   1.309  0.2884  1.1514  0.2419
  710MOL0     H93710   8.301  10.344   1.265 -0.3095  1.9125 -1.2947
  710MOL0     H93711   8.239  10.337   1.423 -0.4166  4.2051 -1.8849
  710MOL0     H93712   8.113  10.484   1.287  0.2579  0.3806 -1.2681
  710MOL0     H93713   8.091  10.360   1.160 -1.0781 -0.3729  0.6629
  710MOL0     H93714   7.991  10.331   1.440  5.1277  0.4483 -0.1742
  710MOL0     H93715   7.942  10.227   1.301  0.0497  1.0985 -1.8801
  710MOL0     H93716   7.791  10.402   1.213 -0.6697  0.0560  0.5816
  710MOL0     H93717   7.765  10.392   1.384 -1.9873 -0.7157 -2.5919
  710MOL0     H93718   7.883  10.791   1.314  2.9398 -0.4692 -0.8502
  710MOL0     H93719   8.106  10.149   1.063 -0.5287 -1.7880 -4.2937
  710MOL0     H93720   8.224  10.072   0.872  1.7818  1.4141 -1.0439
  711MOL0     O93721   7.809  10.455   9.373  0.1425  0.2211  0.4835
  711MOL0     C93722   7.724  10.528   9.386  0.3051 -0.7293 -0.1445
  711MOL0     O93723   7.646  10.540   9.498 -0.8891  0.4336 -0.1988
  711MOL0     C93724   7.655  10.445   9.596  0.6223 -0.1186 -0.4825
  711MOL0     C93725   7.689  10.308   9.589  0.5054  0.1611  0.3363
  711MOL0     C93726   7.683  10.222   9.696 -0.3855 -0.3806  0.8664
  711MOL0     C93727   7.625  10.264   9.816 -0.0306  0.8580  0.2848
  711MOL0     O93728   7.630  10.182   9.930 -0.2991  0.8207  0.7640
  711MOL0     C93729   7.733  10.084   9.937 -0.1472  0.4236 -0.0509
  711MOL0     C93730   7.686   9.941   9.917  0.4766 -0.2523  0.2057
  711MOL0     C93731   7.562   9.906  10.016 -0.2557  0.4397  0.0583
  711MOL0     C93732   7.528   9.755   9.986 -0.1153  0.3405 -0.0226
  711MOL0     C93733   7.397   9.718  10.058 -0.1493 -0.8266 -0.4899
  711MOL0     C93734   7.334   9.581  10.022  0.4083 -0.6349  1.3158
  711MOL0     C93735   7.307   9.574   9.866  1.0159  0.4025 -0.2507
  711MOL0     C93736   7.234   9.692   9.807 -0.3723  0.1518  0.2984
  711MOL0     N93737   7.207   9.685   9.664 -0.2646  1.2169  0.3891
  711MOL0     C93738   7.306   9.713   9.574 -0.2249  0.7862  0.6552
  711MOL0     C93739   7.241   9.705   9.457  0.4029  0.5982  1.0354
  711MOL0     C93740   7.294   9.731   9.320  0.6648 -0.7507 -0.2631
  711MOL0     C93741   7.226   9.851   9.248 -0.9069 -0.3148 -0.3712
  711MOL0     C93742   7.326   9.925   9.150  0.6487 -0.9386 -0.6252
  711MOL0     C93743   7.414   9.844   9.052  0.3317  0.8230 -1.0643
  711MOL0     O93744   7.339   9.768   8.956 -0.0898 -0.0720  0.0210
  711MOL0     C93745   7.325   9.811   8.819  1.4080  0.3292  0.1309
  711MOL0     C93746   7.347   9.941   8.780  0.0583  0.7284  0.2758
  711MOL0     C93747   7.318   9.979   8.651  0.7439 -0.4254  0.8545
  711MOL0     C93748   7.257   9.895   8.560 -1.6159  0.9918 -0.6276
  711MOL0     C93749   7.226   9.942   8.424  0.3986  0.0881 -0.7279
  711MOL0     O93750   7.175   9.857   8.326 -0.8364  0.2978  0.3901
  711MOL0     C93751   7.119   9.890   8.205  0.8090 -0.4890 -0.2124
  711MOL0     C93752   7.056  10.013   8.167 -0.5682  0.8349 -0.3282
  711MOL0     C93753   7.011  10.024   8.032  0.8454 -0.4524  0.0735
  711MOL0     C93754   7.024   9.925   7.937  0.6753 -0.8673 -0.2937
  711MOL0     O93755   6.975   9.946   7.809 -0.5038 -0.6073 -0.4109
  711MOL0     C93756   6.865   9.865   7.781  0.0983 -0.5355 -0.1082
  711MOL0     C93757   6.894   9.718   7.753  0.3579 -0.1025  1.0047
  711MOL0     C93758   7.002   9.688   7.653  0.3343 -0.5629  0.3581
  711MOL0     C93759   6.995   9.538   7.613 -0.1625 -0.9442  0.6154
  711MOL0     C93760   7.059   9.454   7.720  0.3454  0.3394  0.0976
  711MOL0     C93761   7.110   9.314   7.674 -0.0033 -0.4583 -0.4441
  711MOL0     C93762   6.999   9.231   7.606  0.7787 -1.0530 -0.6800
  711MOL0     C93763   6.874   9.206   7.706  0.5064 -0.7415 -0.3580
  711MOL0    Cl93764   6.934   9.106   7.857 -0.2021  0.2517  0.3277
  711MOL0     C93765   7.100   9.806   7.974  0.2137 -0.6761  0.6669
  711MOL0     C93766   7.140   9.793   8.106 -0.1201 -0.2601  0.0888
  711MOL0     O93767   7.209  10.060   8.415  0.8890 -0.7293  0.0413
  711MOL0     C93768   7.227   9.770   8.605  0.0685  0.1408 -0.1208
  711MOL0     C93769   7.255   9.729   8.733  0.1142 -0.1752  0.9020
  711MOL0     N93770   7.120   9.652   9.476 -0.5134  0.3726 -0.0249
  711MOL0     N93771   7.094   9.631   9.601  0.2600 -0.5039  0.0744
  711MOL0     C93772   7.575  10.397   9.821  0.5787  0.2672 -1.1322
  711MOL0     C93773   7.588  10.481   9.714 -0.1950 -0.2536 -0.2821
  711MOL0     C93774   7.697  10.623   9.283  0.1974  0.1368  0.4169
  711MOL0     C93775   7.620  10.738   9.322  0.4727 -0.2854  0.0311
  711MOL0     C93776   7.579  10.828   9.225  0.9609 -0.1487 -0.1404
  711MOL0     C93777   7.623  10.816   9.090  0.3233 -1.4052 -0.0189
  711MOL0     O93778   7.593  10.923   9.005  0.5211 -0.4910  0.1398
  711MOL0     C93779   7.549  10.879   8.876  0.3488  0.7059 -0.3270
  711MOL0     C93780   7.434  10.967   8.840  0.1612 -0.7111  0.0523
  711MOL0     C93781   7.309  10.933   8.936 -0.1050  0.3821  0.0700
  711MOL0     C93782   7.194  11.006   8.877 -0.4538  0.5965  0.3477
  711MOL0     C93783   7.084  10.985   8.966  0.9879 -0.7086  1.1397
  711MOL0     C93784   7.004  10.952   9.043 -0.5605  0.0421  0.1194
  711MOL0     C93785   7.709  10.707   9.058 -0.0545 -0.1692  0.1140
  711MOL0     C93786   7.747  10.608   9.154 -0.1951 -0.4221 -0.1639
  711MOL0     H93787   7.737  10.273   9.498  0.5461  0.9138  0.0591
  711MOL0     H93788   7.725  10.125   9.672  0.2200  0.6612 -2.8340
  711MOL0     H93789   7.771  10.092  10.039 -1.9290  0.5747  0.6385
  711MOL0     H93790   7.817  10.118   9.875 -0.5181  1.3573 -0.0607
  711MOL0     H93791   7.770   9.872   9.910  1.1362  0.6868 -2.0509
  711MOL0     H93792   7.648   9.932   9.814 -2.2996 -1.6196  1.2367
  711MOL0     H93793   7.483   9.978   9.993 -0.0159  0.3161 -1.2159
  711MOL0     H93794   7.583   9.915  10.123 -0.6012 -1.3099  0.2973
  711MOL0     H93795   7.520   9.747   9.877 -1.5825  3.4295 -0.2311
  711MOL0     H93796   7.608   9.695  10.031 -0.0184 -1.1339 -2.0011
  711MOL0     H93797   7.327   9.796  10.029  0.2293  0.1620  1.1332
  711MOL0     H93798   7.414   9.728  10.166 -2.3267  3.6959 -0.3722
  711MOL0     H93799   7.239   9.566  10.075  0.7735 -0.2051  2.1216
  711MOL0     H93800   7.395   9.491  10.025 -2.6584 -2.8794  1.6915
  711MOL0     H93801   7.398   9.542   9.815  0.2953 -1.5097 -0.4174
  711MOL0     H93802   7.241   9.490   9.842  0.6041  0.9950 -1.2321
  711MOL0     H93803   7.291   9.785   9.815 -0.7402  0.4691 -0.6510
  711MOL0     H93804   7.143   9.703   9.866 -1.5352  0.3729 -1.4795
  711MOL0     H93805   7.408   9.745   9.594  1.1729 -0.7924 -2.9998
  711MOL0     H93806   7.276   9.647   9.253 -1.0478  0.7275 -1.7436
  711MOL0     H93807   7.401   9.747   9.341  0.9123 -1.1998 -1.1372
  711MOL0     H93808   7.193   9.922   9.325  2.3727  0.7499  0.1965
  711MOL0     H93809   7.137   9.823   9.191 -2.1746  4.6350 -1.2930
  711MOL0     H93810   7.268   9.999   9.093  0.6229  0.0171  0.5926
  711MOL0     H93811   7.390   9.986   9.214 -1.7437  0.9352  0.1461
  711MOL0     H93812   7.482   9.776   9.105  0.7494  0.7264 -1.7226
  711MOL0     H93813   7.479   9.917   9.004  4.0731 -1.5539 -0.0358
  711MOL0     H93814   7.390  10.021   8.839  0.6369  1.0661 -0.5923
  711MOL0     H93815   7.333  10.084   8.627 -1.2765 -0.4957 -0.9810
  711MOL0     H93816   7.043  10.090   8.242 -1.9876 -4.0091  5.1160
  711MOL0     H93817   6.973  10.120   7.999  0.8660 -1.4285 -3.1819
  711MOL0     H93818   6.828   9.914   7.690  3.4079  1.1024 -0.7220
  711MOL0     H93819   6.791   9.857   7.862  0.7254 -0.0062  0.5274
  711MOL0     H93820   6.804   9.671   7.712  1.4518  0.2449 -2.0251
  711MOL0     H93821   6.916   9.671   7.849  3.1792 -0.0556  0.4413
  711MOL0     H93822   7.104   9.718   7.682  1.2361 -0.2271 -2.7796
  711MOL0     H93823   6.988   9.751   7.565 -0.0960 -3.4513 -1.7715
  711MOL0     H93824   6.900   9.488   7.595  0.2852 -3.0883  3.6293
  711MOL0     H93825   7.052   9.524   7.521  2.1941 -3.7044  2.3535
  711MOL0     H93826   6.980   9.443   7.795 -1.3429  0.7514 -1.5393
  711MOL0     H93827   7.148   9.508   7.753  1.9707 -2.4118  0.5204
  711MOL0     H93828   7.152   9.266   7.763 -2.1934 -1.4752  0.0848
  711MOL0     H93829   7.186   9.322   7.595 -2.5832 -2.2084 -3.2935
  711MOL0     H93830   6.959   9.275   7.515 -0.4313  0.0264  0.3458
  711MOL0     H93831   7.046   9.135   7.579 -0.7382 -2.1175  0.2922
  711MOL0     H93832   6.796   9.145   7.660  0.5214 -1.1509  0.1525
  711MOL0     H93833   6.827   9.301   7.732  2.4063  0.7399 -2.0043
  711MOL0     H93834   7.129   9.726   7.907 -0.7686  0.8396 -1.7000
  711MOL0     H93835   7.209   9.717   8.143 -0.8764  0.4485  3.2326
  711MOL0     H93836   7.179   9.706   8.530 -0.2011  2.3597 -1.9550
  711MOL0     H93837   7.223   9.631   8.765  1.9167 -0.7090  1.2131
  711MOL0     H93838   7.536  10.432   9.916 -5.2476 -1.8155 -2.2862
  711MOL0     H93839   7.554  10.582   9.735  2.4858  0.7126 -0.2566
  711MOL0     H93840   7.581  10.762   9.420 -0.8634 -3.1766  0.2979
  711MOL0     H93841   7.520  10.914   9.256 -1.1264 -1.0837 -1.3284
  711MOL0     H93842   7.526  10.772   8.874  0.4017  0.6954 -2.5627
  711MOL0     H93843   7.636  10.886   8.809  3.7566 -1.6520  3.3281
  711MOL0     H93844   7.457  11.074   8.840 -2.1397 -0.1439  1.4633
  711MOL0     H93845   7.405  10.929   8.742 -0.5461 -3.0153  1.0888
  711MOL0     H93846   7.328  10.954   9.042 -0.1124 -1.5980  0.5002
  711MOL0     H93847   7.290  10.826   8.944  1.7154  0.1230  1.8870
  711MOL0     H93848   7.207  11.115   8.880  1.4267  0.4214 -0.1954
  711MOL0     H93849   7.177  10.961   8.779 -0.0690 -1.7065  1.2795
  711MOL0     H93850   6.936  10.927   9.122 -0.3886 -0.2844  0.1637
  711MOL0     H93851   7.759  10.689   8.963  1.4573 -3.3064  1.3762
  711MOL0     H93852   7.804  10.522   9.121  0.8952  0.8320 -1.7156
  712MOL0     O93853   8.271   8.766   8.404  1.0633 -0.0456  0.5770
  712MOL0     C93854   8.320   8.734   8.509 -0.0196 -0.4391 -0.0707
  712MOL0     O93855   8.291   8.796   8.624  0.0785 -0.3173  0.0665
  712MOL0     C93856   8.192   8.901   8.615  0.6486  0.0230  0.5135
  712MOL0     C93857   8.064   8.879   8.654  0.3900 -1.3542  0.1358
  712MOL0     C93858   7.962   8.980   8.663 -0.1377 -0.2034  0.4545
  712MOL0     C93859   7.994   9.109   8.640 -0.1509 -0.0907 -0.6344
  712MOL0     O93860   7.894   9.202   8.617 -0.2177  0.2400 -0.4712
  712MOL0     C93861   7.915   9.324   8.694  0.0776  0.2051  0.5704
  712MOL0     C93862   7.821   9.440   8.657 -0.5226  0.4938  0.2914
  712MOL0     C93863   7.820   9.471   8.506 -0.9808  0.7756  0.1971
  712MOL0     C93864   7.762   9.612   8.476 -0.1280 -0.1707 -0.9671
  712MOL0     C93865   7.783   9.646   8.327 -0.2080  0.7382 -0.8737
  712MOL0     C93866   7.911   9.706   8.293 -0.1949  0.2987  0.2764
  712MOL0     C93867   7.931   9.675   8.136  0.0715  0.7310 -0.4460
  712MOL0     C93868   8.048   9.751   8.082  0.0247  0.0135  0.5597
  712MOL0     N93869   8.109   9.704   7.954 -0.4216 -0.5154 -0.9684
  712MOL0     C93870   8.218   9.765   7.897 -0.4569 -0.1949  1.0095
  712MOL0     C93871   8.259   9.682   7.805 -0.5218  0.6495  0.1979
  712MOL0     C93872   8.357   9.689   7.696 -0.1093  0.5163  0.3963
  712MOL0     C93873   8.476   9.789   7.709  0.0191  0.5556  0.4231
  712MOL0     C93874   8.565   9.801   7.584 -0.1674  0.1937 -0.4757
  712MOL0     C93875   8.508   9.909   7.485 -0.5569  0.0697 -0.0508
  712MOL0     O93876   8.577   9.893   7.355  0.0231 -0.4792  0.6673
  712MOL0     C93877   8.705   9.927   7.329 -0.5231 -0.7727 -0.7149
  712MOL0     C93878   8.746   9.914   7.191  0.4518  0.4215  0.5076
  712MOL0     C93879   8.876   9.952   7.149  0.8261  0.0278  0.1352
  712MOL0     C93880   8.956  10.008   7.249 -0.6654 -0.2505  0.2567
  712MOL0     C93881   9.087  10.043   7.205 -0.0225  0.0755  0.2697
  712MOL0     O93882   9.125  10.005   7.075  0.1849 -0.1938 -0.0804
  712MOL0     C93883   9.247  10.040   7.027 -0.1063 -0.1079 -0.6535
  712MOL0     C93884   9.260  10.161   6.961  0.6968 -0.0443  0.7221
  712MOL0     C93885   9.384  10.206   6.900 -0.3774  0.8193  0.6940
  712MOL0     C93886   9.499  10.129   6.915 -0.4438  0.3733  0.6617
  712MOL0     O93887   9.614  10.170   6.848  0.5741 -0.5266  0.2364
  712MOL0     C93888   9.729  10.077   6.843  0.7425 -0.9129 -0.3597
  712MOL0     C93889   9.848  10.159   6.796 -0.9149 -0.9921  0.7328
  712MOL0     C93890   9.833  10.194   6.640  0.0219  0.4068 -0.2743
  712MOL0     C93891   9.951  10.268   6.592 -0.5296 -0.3645  0.8112
  712MOL0     C93892  10.077  10.182   6.575 -0.0250  0.2818  0.9995
  712MOL0     C93893  10.206  10.255   6.538 -0.1856 -0.2867 -1.1195
  712MOL0     C93894  10.308  10.158   6.470  1.3744 -0.6896  1.3467
  712MOL0     C93895  10.351  10.044   6.568 -0.1986  0.2754 -1.0271
  712MOL0    Cl93896  10.478  10.102   6.691  0.1554 -0.3149  0.0487
  712MOL0     C93897   9.495  10.018   7.010 -0.1820 -0.2700  1.4881
  712MOL0     C93898   9.361   9.974   7.051 -0.8352  0.1000  0.4499
  712MOL0     O93899   9.161  10.107   7.282 -0.7737 -0.2051 -0.8204
  712MOL0     C93900   8.924  10.026   7.385 -0.5520  1.0579  0.3729
  712MOL0     C93901   8.798   9.984   7.427  0.5134 -0.9020  0.6599
  712MOL0     N93902   8.182   9.567   7.799  0.1308 -0.5800 -0.5792
  712MOL0     N93903   8.095   9.582   7.898  0.1286  0.2996 -0.4960
  712MOL0     C93904   8.127   9.135   8.591  0.8998  0.4846 -0.9965
  712MOL0     C93905   8.221   9.033   8.584  0.6217 -0.6563  0.1488
  712MOL0     C93906   8.414   8.636   8.496 -0.1687 -0.9476  0.7889
  712MOL0     C93907   8.501   8.612   8.595  0.2038  0.1785 -0.6095
  712MOL0     C93908   8.604   8.506   8.588  0.6178  0.1145 -0.1686
  712MOL0     C93909   8.629   8.430   8.470 -0.3477 -0.2691  0.0875
  712MOL0     O93910   8.715   8.319   8.469  0.6782 -0.4202 -0.1514
  712MOL0     C93911   8.845   8.350   8.525 -0.5469  0.5025 -0.4823
  712MOL0     C93912   8.955   8.245   8.495 -1.1359 -0.2991 -1.1567
  712MOL0     C93913   9.007   8.265   8.350  0.2713  0.5296 -0.3045
  712MOL0     C93914   9.065   8.141   8.285  0.4912 -0.4127 -0.7212
  712MOL0     C93915   9.165   8.096   8.378  0.1297  0.9295 -0.8058
  712MOL0     C93916   9.262   8.046   8.437  0.0776  0.2490  0.3215
  712MOL0     C93917   8.534   8.454   8.370 -0.5332  0.2378 -0.5436
  712MOL0     C93918   8.429   8.557   8.377  0.0424 -0.6412  0.0782
  712MOL0     H93919   8.061   8.774   8.680 -0.1591 -1.0455  1.3341
  712MOL0     H93920   7.857   8.950   8.664  0.3219 -1.9516 -0.4330
  712MOL0     H93921   8.018   9.360   8.690  0.4779 -0.9274  0.5502
  712MOL0     H93922   7.896   9.293   8.797  3.1515  2.8429  2.1224
  712MOL0     H93923   7.854   9.528   8.713 -2.4071  1.5958 -0.2170
  712MOL0     H93924   7.722   9.418   8.699  0.3250 -1.6153  1.3201
  712MOL0     H93925   7.778   9.393   8.442 -0.9689  0.7792  0.1849
  712MOL0     H93926   7.927   9.472   8.488 -0.0644 -2.1096  4.0590
  712MOL0     H93927   7.656   9.612   8.499 -0.0094  0.4280 -0.3855
  712MOL0     H93928   7.810   9.688   8.540  4.8691 -1.2489 -2.9055
  712MOL0     H93929   7.706   9.709   8.282 -1.4409 -2.6012 -3.8662
  712MOL0     H93930   7.779   9.547   8.282 -2.3958 -0.2765  1.2695
  712MOL0     H93931   7.982   9.661   8.364 -1.4828  0.1285  1.4988
  712MOL0     H93932   7.906   9.812   8.322 -1.8836  0.9826 -2.1748
  712MOL0     H93933   7.962   9.571   8.122  1.4637  1.3389 -2.2604
  712MOL0     H93934   7.835   9.697   8.088  1.0131 -0.3259 -2.9640
  712MOL0     H93935   8.125   9.755   8.159  1.8275  1.3392 -1.2052
  712MOL0     H93936   8.013   9.850   8.053 -0.6278 -0.3160  0.1913
  712MOL0     H93937   8.261   9.860   7.925 -1.9206  0.2702  1.8319
  712MOL0     H93938   8.303   9.705   7.602  1.2598 -2.1401 -0.9395
  712MOL0     H93939   8.403   9.590   7.691  1.1090  0.9533  2.0146
  712MOL0     H93940   8.543   9.761   7.791  0.0583  0.5411  0.3852
  712MOL0     H93941   8.429   9.883   7.739  0.2978  1.1740 -0.9855
  712MOL0     H93942   8.669   9.830   7.605 -0.2307  1.2148 -1.5012
  712MOL0     H93943   8.566   9.702   7.537  0.3282 -1.1284  2.0936
  712MOL0     H93944   8.522  10.009   7.527  0.1556  0.2289 -0.6443
  712MOL0     H93945   8.401   9.891   7.473 -0.1913 -1.2791 -1.6776
  712MOL0     H93946   8.679   9.874   7.116  3.9339 -1.5029 -1.8593
  712MOL0     H93947   8.913   9.921   7.052 -0.3043  0.2316 -0.3750
  712MOL0     H93948   9.181  10.234   6.943  0.3474 -0.1731  1.6438
  712MOL0     H93949   9.384  10.294   6.837  0.3633  0.4703  0.1916
  712MOL0     H93950   9.686   9.990   6.793 -3.0702 -0.9646  2.5588
  712MOL0     H93951   9.755  10.028   6.937  3.9547 -1.0239 -1.1832
  712MOL0     H93952   9.933  10.095   6.822 -0.1771 -0.6936 -0.8003
  712MOL0     H93953   9.844  10.253   6.850 -1.7967 -0.7810  0.3104
  712MOL0     H93954   9.748  10.261   6.621 -2.2851 -2.0824  0.6905
  712MOL0     H93955   9.818  10.098   6.591  2.5448 -0.1673 -0.0291
  712MOL0     H93956   9.933  10.305   6.491  3.2206  1.7714  0.7345
  712MOL0     H93957   9.963  10.353   6.660 -1.3070  3.5056 -3.3958
  712MOL0     H93958  10.056  10.127   6.482 -0.9054  0.1692  1.2520
  712MOL0     H93959  10.088  10.113   6.659 -0.8357  1.5807  2.2034
  712MOL0     H93960  10.252  10.307   6.622 -0.1797  0.8836 -1.8280
  712MOL0     H93961  10.178  10.324   6.457 -1.3741 -1.7735 -2.0352
  712MOL0     H93962  10.270  10.113   6.378  3.0070  1.3448 -0.4531
  712MOL0     H93963  10.400  10.209   6.438  0.8830  0.8770  2.3574
  712MOL0     H93964  10.392   9.965   6.505 -0.2995  0.1371 -0.9217
  712MOL0     H93965  10.268  10.008   6.631  0.5254 -2.7008 -1.6256
  712MOL0     H93966   9.581   9.955   7.029 -0.1554 -1.4062 -1.8438
  712MOL0     H93967   9.354   9.885   7.112  0.8732 -0.0953  0.4180
  712MOL0     H93968   9.000  10.076   7.445 -0.0180  0.9055 -0.1633
  712MOL0     H93969   8.766  10.015   7.526 -1.2400  1.7766 -0.5866
  712MOL0     H93970   8.162   9.237   8.579  1.9328  0.4227  1.0762
  712MOL0     H93971   8.321   9.069   8.561  0.9699 -2.5349 -1.5948
  712MOL0     H93972   8.508   8.674   8.684 -1.5439  1.1742 -1.1250
  712MOL0     H93973   8.669   8.488   8.673  0.4228  1.0657  0.1946
  712MOL0     H93974   8.841   8.357   8.634 -1.9170 -0.6165 -0.4233
  712MOL0     H93975   8.884   8.448   8.495 -2.1490  1.0222 -0.9827
  712MOL0     H93976   9.031   8.252   8.572 -1.8606 -1.6537 -0.2652
  712MOL0     H93977   8.923   8.143   8.521  2.3100 -0.5746  3.1709
  712MOL0     H93978   9.082   8.345   8.347 -0.2937  1.0212 -2.1990
  712MOL0     H93979   8.922   8.280   8.284  1.7069  0.0969 -2.3572
  712MOL0     H93980   8.991   8.063   8.261 -0.0750 -0.4547  0.9825
  712MOL0     H93981   9.103   8.170   8.187 -1.4115  1.7829 -0.8833
  712MOL0     H93982   9.355   8.005   8.470  0.1337 -1.5878 -1.8488
  712MOL0     H93983   8.538   8.390   8.283  0.3106  0.5137 -0.7223
  712MOL0     H93984   8.368   8.579   8.290  0.6837 -0.4805 -0.3372
  713MOL0     O93985   3.586   9.556   7.171  1.1557  0.4141  0.0439
  713MOL0     C93986   3.619   9.531   7.286 -0.4142 -0.8836 -0.0582
  713MOL0     O93987   3.640   9.622   7.383 -0.4346 -0.6879 -0.6068
  713MOL0     C93988   3.650   9.756   7.348 -0.2929 -0.2401 -0.3091
  713MOL0     C93989   3.562   9.834   7.411  0.4430  0.1258  0.4558
  713MOL0     C93990   3.563   9.976   7.385 -0.6483  0.5986 -0.5875
  713MOL0     C93991   3.645  10.031   7.292  0.2095 -0.1708 -0.1630
  713MOL0     O93992   3.650  10.165   7.259  0.7891  0.0416  0.5673
  713MOL0     C93993   3.587  10.275   7.338  0.2052 -0.9829  0.5121
  713MOL0     C93994   3.697  10.370   7.390 -0.4564  1.6853  0.1619
  713MOL0     C93995   3.795  10.307   7.479 -0.3055 -0.8777 -0.2884
  713MOL0     C93996   3.725  10.262   7.606 -0.4235 -0.5800  0.0782
  713MOL0     C93997   3.814  10.173   7.691  0.1036  0.4418  0.3175
  713MOL0     C93998   3.745  10.074   7.777 -0.0622 -0.2305  0.1765
  713MOL0     C93999   3.716  10.133   7.912  0.0801 -0.5971  0.3209
  713MOL0     C94000   3.684  10.018   8.003 -0.2795 -0.0722 -0.3817
  713MOL0     N94001   3.636  10.064   8.140  0.3549 -0.8623  1.0817
  713MOL0     C94002   3.548  10.170   8.167 -0.1607 -0.9417  0.6582
  713MOL0     C94003   3.583  10.207   8.291 -0.5006  0.3964 -0.0470
  713MOL0     C94004   3.518  10.315   8.379 -0.1137 -0.5535 -0.3760
  713MOL0     C94005   3.625  10.366   8.489 -0.5289  0.5998  0.2212
  713MOL0     C94006   3.729  10.451   8.417 -0.0158  0.4111 -0.1716
  713MOL0     C94007   3.860  10.482   8.496  0.2641  0.1601  0.2151
  713MOL0     O94008   3.911  10.362   8.572 -0.1695  0.0258  0.3204
  713MOL0     C94009   4.043  10.351   8.556  0.0558 -0.7052 -0.3688
  713MOL0     C94010   4.105  10.247   8.485 -0.2405  0.2733 -0.2477
  713MOL0     C94011   4.240  10.233   8.488 -1.1720 -0.5651 -0.1949
  713MOL0     C94012   4.327  10.319   8.555 -0.3103 -0.0608  0.3361
  713MOL0     C94013   4.472  10.296   8.555  0.6916 -0.3924  0.7075
  713MOL0     O94014   4.510  10.181   8.500 -0.5382  0.0800 -0.9026
  713MOL0     C94015   4.636  10.136   8.506  0.5518 -0.2024  0.2129
  713MOL0     C94016   4.682  10.085   8.387 -1.1218  0.5842 -0.5241
  713MOL0     C94017   4.810  10.018   8.383 -0.7418  0.4592  0.3094
  713MOL0     C94018   4.891  10.023   8.495 -0.0031  0.3584  1.1700
  713MOL0     O94019   5.008   9.945   8.476  0.5550  0.0908 -0.3454
  713MOL0     C94020   5.108   9.958   8.576  0.5856 -0.2441 -0.6085
  713MOL0     C94021   5.230   9.880   8.573 -0.8942 -0.6568 -0.4102
  713MOL0     C94022   5.313   9.921   8.449  1.1575  0.4938 -0.1437
  713MOL0     C94023   5.453   9.865   8.452 -0.0721 -0.9803 -0.3174
  713MOL0     C94024   5.556   9.968   8.516  0.1908  0.0081 -0.1805
  713MOL0     C94025   5.698   9.915   8.546  0.5381 -0.9757  0.5677
  713MOL0     C94026   5.779  10.023   8.620 -1.2501 -0.2295 -0.0825
  713MOL0     C94027   5.911  10.052   8.550  0.3620 -0.4102  0.6081
  713MOL0    Cl94028   6.021   9.904   8.531 -0.0746  0.3172  0.0148
  713MOL0     C94029   4.848  10.093   8.608 -0.6167  0.3788 -0.3822
  713MOL0     C94030   4.724  10.147   8.623  0.4714  0.4076 -0.7947
  713MOL0     O94031   4.538  10.397   8.589  0.0570  0.1242  0.2777
  713MOL0     C94032   4.267  10.421   8.635  0.2926  0.7110 -0.1867
  713MOL0     C94033   4.126  10.433   8.629  0.8366  0.8909 -0.0125
  713MOL0     N94034   3.682  10.111   8.338 -0.3376 -1.0663  0.4531
  713MOL0     N94035   3.700  10.022   8.251 -1.3683 -0.2736  0.5561
  713MOL0     C94036   3.731   9.941   7.220  0.2351  0.4064 -0.1071
  713MOL0     C94037   3.727   9.806   7.252 -0.5774 -0.3518  0.3154
  713MOL0     C94038   3.612   9.395   7.325  0.1103  0.1093  0.1802
  713MOL0     C94039   3.568   9.288   7.233 -0.9344 -0.0214 -0.1309
  713MOL0     C94040   3.552   9.156   7.275 -0.3303 -0.4655 -0.3128
  713MOL0     C94041   3.597   9.121   7.403 -0.0564  0.2267  0.4609
  713MOL0     O94042   3.602   8.993   7.439 -0.0023  0.2134 -0.1454
  713MOL0     C94043   3.732   8.947   7.448 -0.8108 -0.3748 -0.9569
  713MOL0     C94044   3.735   8.809   7.390  0.3997 -1.4688  0.5429
  713MOL0     C94045   3.649   8.717   7.475 -0.2339 -0.0171  0.2574
  713MOL0     C94046   3.664   8.572   7.420 -0.5309  0.4092  0.0984
  713MOL0     C94047   3.802   8.516   7.436 -0.3372  0.8884 -0.6499
  713MOL0     C94048   3.924   8.496   7.446  0.1802 -0.1134 -0.4122
  713MOL0     C94049   3.637   9.218   7.491 -0.9240 -0.1642 -0.6118
  713MOL0     C94050   3.627   9.356   7.454  0.0354 -0.0231  0.1284
  713MOL0     H94051   3.492   9.789   7.479 -2.0310  1.0353 -1.3510
  713MOL0     H94052   3.496  10.043   7.437 -0.8035 -0.4936  0.6603
  713MOL0     H94053   3.525  10.237   7.420 -2.1708 -1.1588 -1.2566
  713MOL0     H94054   3.512  10.330   7.281  1.2053 -0.5077 -0.3784
  713MOL0     H94055   3.671  10.464   7.440  0.1530  0.3987  3.1172
  713MOL0     H94056   3.757  10.394   7.302  2.3299 -0.4582  1.3336
  713MOL0     H94057   3.873  10.381   7.500 -0.7226 -1.0768  2.1729
  713MOL0     H94058   3.838  10.226   7.419  0.9621  0.9931 -2.0681
  713MOL0     H94059   3.702  10.353   7.662 -0.9283 -0.1876 -0.7381
  713MOL0     H94060   3.634  10.202   7.591  0.4855 -2.5810  2.0747
  713MOL0     H94061   3.880  10.249   7.735  0.8758  1.9361 -3.1182
  713MOL0     H94062   3.870  10.111   7.621 -0.4832 -2.6273  2.3755
  713MOL0     H94063   3.817   9.992   7.784 -1.6673 -1.9765 -2.2544
  713MOL0     H94064   3.657  10.043   7.721 -0.9138  1.9246  0.2011
  713MOL0     H94065   3.797  10.193   7.955 -2.7465  3.0773  1.0351
  713MOL0     H94066   3.634  10.206   7.915  3.2932  3.2925  1.3261
  713MOL0     H94067   3.768   9.950   8.022  2.2534  3.4175  2.1683
  713MOL0     H94068   3.601   9.962   7.959 -0.2955  0.6782 -1.3222
  713MOL0     H94069   3.488  10.234   8.103  0.6369  0.1828  1.0067
  713MOL0     H94070   3.424  10.276   8.419  0.8024 -1.2547  1.1963
  713MOL0     H94071   3.503  10.399   8.311  3.9569 -0.0794 -0.9542
  713MOL0     H94072   3.676  10.283   8.538  0.3551  1.9698  1.6855
  713MOL0     H94073   3.568  10.422   8.563 -0.6713  0.7753 -0.0186
  713MOL0     H94074   3.767  10.392   8.334 -0.7053 -6.1351  3.4607
  713MOL0     H94075   3.687  10.542   8.374  1.1686  1.2998  0.4857
  713MOL0     H94076   3.838  10.564   8.565 -0.0126 -1.0222  1.5829
  713MOL0     H94077   3.936  10.519   8.427 -1.9314  1.2199 -1.7579
  713MOL0     H94078   4.041  10.199   8.413 -1.7866  3.0928 -0.8922
  713MOL0     H94079   4.284  10.152   8.430 -2.1836 -0.0047 -1.8406
  713MOL0     H94080   4.625  10.095   8.295 -1.0601  2.2787 -0.4012
  713MOL0     H94081   4.832   9.958   8.296 -2.3767  0.1485  0.0663
  713MOL0     H94082   5.062   9.941   8.674 -2.6669  0.0559 -1.9458
  713MOL0     H94083   5.143  10.061   8.575  1.9302 -0.6619 -2.7076
  713MOL0     H94084   5.203   9.776   8.553 -0.6845 -0.0553 -5.0881
  713MOL0     H94085   5.294   9.885   8.661  0.7493  1.5351 -1.6396
  713MOL0     H94086   5.316  10.027   8.424  1.4785 -0.0063 -2.4408
  713MOL0     H94087   5.264   9.874   8.364  1.6672 -3.3982  1.4811
  713MOL0     H94088   5.455   9.758   8.477 -0.6689 -1.0604 -0.6070
  713MOL0     H94089   5.495   9.868   8.351  0.5917 -2.1192 -0.0944
  713MOL0     H94090   5.515  10.000   8.613 -0.2706 -0.2023 -0.3006
  713MOL0     H94091   5.566  10.065   8.467  1.9111  1.9304  3.5290
  713MOL0     H94092   5.748   9.885   8.453 -0.7620 -2.9437  0.4537
  713MOL0     H94093   5.685   9.827   8.609  0.0405 -1.4847 -0.2259
  713MOL0     H94094   5.729  10.121   8.614 -0.1891  0.3865  0.7157
  713MOL0     H94095   5.797   9.997   8.725 -0.0647  0.5321 -0.0778
  713MOL0     H94096   5.961  10.140   8.592  1.3657  1.2775 -3.5469
  713MOL0     H94097   5.889  10.076   8.445 -3.5950 -0.0903  1.3601
  713MOL0     H94098   4.922  10.093   8.688  0.3567  2.9538 -1.1721
  713MOL0     H94099   4.693  10.196   8.714 -0.1477 -1.5622  0.0988
  713MOL0     H94100   4.326  10.489   8.696 -0.2924  0.5691  0.5657
  713MOL0     H94101   4.082  10.507   8.695  1.2673 -1.6378  3.3776
  713MOL0     H94102   3.791   9.987   7.142 -1.4979  0.3097 -1.5380
  713MOL0     H94103   3.798   9.729   7.222 -1.1075 -0.9613  0.6161
  713MOL0     H94104   3.530   9.316   7.135 -0.2858 -1.3989 -0.7992
  713MOL0     H94105   3.521   9.074   7.210  2.7456 -0.9528 -1.3188
  713MOL0     H94106   3.762   8.948   7.553  1.4112  0.8111 -1.5366
  713MOL0     H94107   3.809   9.016   7.411  0.4143 -2.1007 -1.7379
  713MOL0     H94108   3.704   8.807   7.285  1.4088 -1.8831  0.2419
  713MOL0     H94109   3.836   8.770   7.399  0.6962 -1.2834 -1.4713
  713MOL0     H94110   3.550   8.759   7.453 -0.2925 -1.7995 -3.6525
  713MOL0     H94111   3.662   8.721   7.583 -1.5963 -0.4311  0.4625
  713MOL0     H94112   3.590   8.510   7.471 -0.5600  0.9920  0.7816
  713MOL0     H94113   3.636   8.583   7.315 -2.1920  3.9254  0.7374
  713MOL0     H94114   4.019   8.461   7.482  0.1311 -0.3482 -0.5163
  713MOL0     H94115   3.679   9.177   7.582 -0.3926 -3.3829 -2.1327
  713MOL0     H94116   3.654   9.411   7.544  2.8919 -2.3681  0.8466
  714MOL0     O94117  11.014   4.781   5.770 -1.0623 -0.0035 -0.4569
  714MOL0     C94118  11.005   4.851   5.878 -0.4688  0.9751 -0.5362
  714MOL0     O94119  10.899   4.845   5.966  0.5844  0.4398 -0.0313
  714MOL0     C94120  10.785   4.786   5.928 -0.2520  0.8373 -0.4522
  714MOL0     C94121  10.721   4.712   6.023 -0.0439 -0.4183 -0.1829
  714MOL0     C94122  10.596   4.662   5.987 -0.3507 -0.1155  0.8274
  714MOL0     C94123  10.547   4.661   5.859 -0.0662 -0.5997  0.3539
  714MOL0     O94124  10.433   4.594   5.831 -0.1123  0.4880 -0.4394
  714MOL0     C94125  10.331   4.654   5.760  0.3626 -0.8725 -0.1269
  714MOL0     C94126  10.310   4.584   5.616  0.1691  0.0218  0.1589
  714MOL0     C94127  10.223   4.690   5.531 -0.1252 -0.7031 -0.3838
  714MOL0     C94128  10.116   4.632   5.426  0.4583 -0.0470 -0.2577
  714MOL0     C94129  10.189   4.583   5.310  0.5896 -0.0713  0.6368
  714MOL0     C94130  10.091   4.510   5.208 -0.0762 -0.3674  0.2245
  714MOL0     C94131   9.987   4.601   5.152 -0.0756  0.7254  0.3255
  714MOL0     C94132   9.903   4.533   5.050  0.0927 -0.3720  0.1668
  714MOL0     N94133   9.785   4.612   5.015  0.9748  0.4540  0.1281
  714MOL0     C94134   9.797   4.717   4.930 -0.7217 -0.0948  0.2806
  714MOL0     C94135   9.667   4.753   4.898  0.4532  0.1679 -0.6797
  714MOL0     C94136   9.615   4.877   4.822 -1.1607 -0.4186  0.4486
  714MOL0     C94137   9.621   4.825   4.677  0.0634  0.2843  0.0168
  714MOL0     C94138   9.527   4.904   4.588 -0.3052  0.4340  0.6288
  714MOL0     C94139   9.500   4.838   4.454 -0.8381 -0.0481  1.0646
  714MOL0     O94140   9.622   4.804   4.376  0.5222  0.2314  0.5009
  714MOL0     C94141   9.612   4.716   4.270 -0.6956 -1.1301  1.0927
  714MOL0     C94142   9.526   4.606   4.262  0.0918 -0.6635  1.0873
  714MOL0     C94143   9.529   4.527   4.145  0.6733 -0.2404 -0.6848
  714MOL0     C94144   9.613   4.555   4.037  0.2390 -0.0725  0.4162
  714MOL0     C94145   9.605   4.467   3.912  0.6775  0.4289  0.2006
  714MOL0     O94146   9.664   4.516   3.795 -0.9957 -1.2927  0.2839
  714MOL0     C94147   9.648   4.465   3.671  0.2789 -0.2529  0.4265
  714MOL0     C94148   9.733   4.364   3.618  0.5854 -0.0906 -0.8404
  714MOL0     C94149   9.725   4.334   3.485  0.1976  0.0728 -0.6327
  714MOL0     C94150   9.630   4.385   3.402  0.2656  0.4340  0.0487
  714MOL0     O94151   9.638   4.328   3.272 -0.0255 -0.5238  0.0626
  714MOL0     C94152   9.562   4.403   3.170  0.1109  0.0540  0.5730
  714MOL0     C94153   9.580   4.335   3.040 -1.5244 -0.1815 -0.0062
  714MOL0     C94154   9.517   4.190   3.043 -0.8969  0.3131  0.5964
  714MOL0     C94155   9.530   4.114   2.908 -0.1632 -0.0343 -0.1474
  714MOL0     C94156   9.528   3.958   2.926  0.2046 -0.4551  0.8681
  714MOL0     C94157   9.550   3.883   2.790  0.0804 -0.0081  0.5952
  714MOL0     C94158   9.557   3.734   2.830 -0.0976 -0.4044 -0.7173
  714MOL0     C94159   9.697   3.690   2.875  0.1891  0.7257  0.3957
  714MOL0    Cl94160   9.729   3.515   2.860  0.0108  0.2024  0.3118
  714MOL0     C94161   9.540   4.470   3.462 -0.2420  0.1214 -0.1928
  714MOL0     C94162   9.548   4.507   3.591 -0.1939 -0.0441 -0.9583
  714MOL0     O94163   9.576   4.347   3.920 -0.9434 -0.3533  0.6777
  714MOL0     C94164   9.700   4.669   4.043  0.3595 -0.0337 -0.1487
  714MOL0     C94165   9.699   4.742   4.167 -0.4995  0.8084 -0.3842
  714MOL0     N94166   9.582   4.662   4.964 -0.0295  0.1893  0.4120
  714MOL0     N94167   9.651   4.579   5.027 -0.3245 -0.3089 -0.3303
  714MOL0     C94168  10.610   4.743   5.766 -0.6761 -0.5567  1.0020
  714MOL0     C94169  10.729   4.802   5.797 -0.4924  0.3366 -0.5552
  714MOL0     C94170  11.124   4.930   5.918 -0.4934  0.6215 -0.4455
  714MOL0     C94171  11.248   4.918   5.845  0.2006 -1.1855  0.2472
  714MOL0     C94172  11.366   4.974   5.901  0.9531  0.6473  0.9115
  714MOL0     C94173  11.362   5.051   6.020  0.7692  0.5726 -0.5454
  714MOL0     O94174  11.472   5.107   6.072  0.3333  0.3113 -0.3595
  714MOL0     C94175  11.484   5.166   6.208 -0.1976  0.6814  0.0228
  714MOL0     C94176  11.624   5.226   6.224  0.6199  0.0378  0.0470
  714MOL0     C94177  11.722   5.123   6.255 -0.1917  0.1741  0.2471
  714MOL0     C94178  11.853   5.179   6.198  0.8840 -0.4078  0.3123
  714MOL0     C94179  11.949   5.076   6.226 -0.5588 -0.4615 -0.9143
  714MOL0     C94180  12.022   4.988   6.254  0.1353  0.1700 -0.4866
  714MOL0     C94181  11.245   5.071   6.085 -0.6385 -0.2069 -0.0881
  714MOL0     C94182  11.128   5.006   6.043  0.2559  0.1903  0.0562
  714MOL0     H94183  10.769   4.683   6.116 -0.1596  1.1586  0.3890
  714MOL0     H94184  10.553   4.584   6.050 -1.2657 -1.8734 -1.7479
  714MOL0     H94185  10.342   4.761   5.740 -1.3880 -0.9139 -1.5546
  714MOL0     H94186  10.241   4.642   5.821  1.5538 -1.5324  1.5631
  714MOL0     H94187  10.247   4.496   5.633  0.2331 -0.4898 -1.9420
  714MOL0     H94188  10.394   4.559   5.551 -0.6080 -1.4911 -0.3064
  714MOL0     H94189  10.296   4.760   5.489  0.9791 -0.7603  1.3295
  714MOL0     H94190  10.168   4.753   5.602  1.6986  1.1379 -0.4872
  714MOL0     H94191  10.068   4.548   5.478 -1.1914 -0.6279 -2.5709
  714MOL0     H94192  10.046   4.711   5.399  0.9666  1.0491  1.4560
  714MOL0     H94193  10.258   4.500   5.326 -0.0604 -1.4452 -2.7842
  714MOL0     H94194  10.244   4.658   5.252 -3.0413  0.9176 -1.9325
  714MOL0     H94195  10.047   4.427   5.263 -1.5028  0.3679  0.2471
  714MOL0     H94196  10.148   4.468   5.124  0.3029 -3.1461  1.7731
  714MOL0     H94197   9.925   4.636   5.235 -1.4188  1.8513 -1.0864
  714MOL0     H94198  10.037   4.681   5.097 -2.2691  1.5575 -0.5900
  714MOL0     H94199   9.862   4.440   5.090 -0.9035  0.9165  2.3033
  714MOL0     H94200   9.959   4.508   4.959 -0.8317 -1.8454 -0.0303
  714MOL0     H94201   9.893   4.758   4.898  0.6789 -2.1688  1.5696
  714MOL0     H94202   9.677   4.966   4.833 -0.7593 -0.3239 -1.9244
  714MOL0     H94203   9.511   4.893   4.853 -0.9365  2.8743 -0.1200
  714MOL0     H94204   9.590   4.720   4.678  2.3868 -0.4834 -2.0347
  714MOL0     H94205   9.720   4.829   4.632 -1.0956 -1.0256 -2.9104
  714MOL0     H94206   9.430   4.927   4.632 -0.3742 -0.7425  1.1457
  714MOL0     H94207   9.570   5.002   4.565 -1.1754  0.7965  0.5285
  714MOL0     H94208   9.427   4.880   4.385 -0.2793 -5.1621 -3.3190
  714MOL0     H94209   9.440   4.753   4.488  0.4417 -0.6951  1.7998
  714MOL0     H94210   9.484   4.570   4.356  1.6560 -2.4026  1.1833
  714MOL0     H94211   9.462   4.442   4.140  0.2007  0.1004 -0.2925
  714MOL0     H94212   9.822   4.341   3.677  1.9103  1.2490 -2.2165
  714MOL0     H94213   9.794   4.260   3.447  0.1010 -1.0404  1.2202
  714MOL0     H94214   9.594   4.508   3.173 -1.0814  0.6111 -2.2612
  714MOL0     H94215   9.456   4.412   3.197  0.0862  3.0146 -0.1389
  714MOL0     H94216   9.680   4.331   2.996 -1.9604  3.8504 -1.8430
  714MOL0     H94217   9.522   4.387   2.963 -0.9770 -1.1264 -1.0987
  714MOL0     H94218   9.413   4.188   3.076 -0.1792 -1.0262  3.0439
  714MOL0     H94219   9.566   4.132   3.122 -0.1652 -1.3853 -1.0221
  714MOL0     H94220   9.448   4.145   2.843  2.7028  2.6523 -2.7814
  714MOL0     H94221   9.618   4.128   2.845  0.4631 -1.0008  0.4756
  714MOL0     H94222   9.425   3.938   2.956 -0.6384  0.0426 -1.4862
  714MOL0     H94223   9.602   3.922   2.998  0.1860 -1.7604  0.2547
  714MOL0     H94224   9.649   3.895   2.745 -0.2564 -0.5599 -0.3370
  714MOL0     H94225   9.482   3.913   2.709  1.5008  1.2417 -0.1880
  714MOL0     H94226   9.482   3.705   2.905  1.2115 -1.6970  0.1400
  714MOL0     H94227   9.531   3.671   2.745 -1.8006 -2.1522  0.9837
  714MOL0     H94228   9.709   3.710   2.982 -0.0451  1.4338  0.2926
  714MOL0     H94229   9.771   3.743   2.814  3.2923 -2.3427  1.1695
  714MOL0     H94230   9.453   4.502   3.406 -2.8883 -3.4342  1.5469
  714MOL0     H94231   9.473   4.572   3.636  0.0037 -2.4493  3.3042
  714MOL0     H94232   9.772   4.690   3.964 -0.6529 -0.8004 -1.3189
  714MOL0     H94233   9.787   4.805   4.176  1.5058 -1.6107 -1.7382
  714MOL0     H94234  10.572   4.765   5.667  1.2189  1.2835  0.6160
  714MOL0     H94235  10.784   4.859   5.723  0.3845 -2.0011 -1.8096
  714MOL0     H94236  11.261   4.858   5.755  3.1470 -1.1643  0.5557
  714MOL0     H94237  11.466   4.975   5.858  1.7284 -1.6827  2.4467
  714MOL0     H94238  11.465   5.100   6.294  0.7406  1.4960  0.8907
  714MOL0     H94239  11.407   5.244   6.202 -0.0960  0.6551 -2.6414
  714MOL0     H94240  11.657   5.287   6.139 -1.0825 -0.4848 -1.0527
  714MOL0     H94241  11.624   5.287   6.314  3.0076 -1.0835  0.8888
  714MOL0     H94242  11.699   5.024   6.216 -0.1370  1.2516 -2.7901
  714MOL0     H94243  11.728   5.118   6.364  0.5942 -0.5540  0.1763
  714MOL0     H94244  11.836   5.192   6.091 -0.3251  0.8947  0.6385
  714MOL0     H94245  11.872   5.277   6.240  0.2238 -0.1056 -0.0821
  714MOL0     H94246  12.093   4.913   6.282 -0.9094 -0.0836  1.6968
  714MOL0     H94247  11.238   5.139   6.169  0.7558  0.9734 -0.8723
  714MOL0     H94248  11.031   5.039   6.081  1.1842  1.7116  1.2601
  715MOL0     O94249  10.867   7.863   1.931  0.1830  0.0215  1.4021
  715MOL0     C94250  10.865   7.932   2.034 -1.2795 -0.5755  0.4502
  715MOL0     O94251  10.815   8.057   2.044  0.0551 -0.1745  0.3695
  715MOL0     C94252  10.762   8.126   1.943  0.1326  0.5550  0.0268
  715MOL0     C94253  10.649   8.074   1.872  0.3359  0.0834  0.0182
  715MOL0     C94254  10.589   8.144   1.774 -0.2769 -1.2400 -0.6503
  715MOL0     C94255  10.635   8.276   1.736 -0.1337  0.0580  0.7002
  715MOL0     O94256  10.577   8.356   1.640 -0.0658 -0.2867 -0.5862
  715MOL0     C94257  10.439   8.374   1.669  0.4675  0.0536  0.0101
  715MOL0     C94258  10.388   8.462   1.558  0.6372 -0.2726  1.0432
  715MOL0     C94259  10.374   8.378   1.423 -0.0345 -0.5113 -0.3134
  715MOL0     C94260  10.263   8.266   1.439 -0.6747  0.2048 -0.3789
  715MOL0     C94261  10.211   8.215   1.302  0.5278 -0.4895 -0.1658
  715MOL0     C94262  10.097   8.118   1.328  0.9657  0.0123  0.0870
  715MOL0     C94263  10.041   8.044   1.200  0.1329  0.5202 -0.5824
  715MOL0     C94264   9.906   8.108   1.151  0.0357  0.1307  0.9840
  715MOL0     N94265   9.908   8.255   1.139  0.5357 -0.1693  0.4204
  715MOL0     C94266   9.960   8.327   1.028  0.8671 -0.7348  0.4122
  715MOL0     C94267   9.990   8.447   1.083  0.1029  0.1839 -0.4809
  715MOL0     C94268  10.042   8.561   1.008 -0.9593  0.4112 -0.7137
  715MOL0     C94269   9.944   8.590   0.882  0.4628  0.5196 -0.4410
  715MOL0     C94270   9.991   8.720   0.814 -0.1627  0.0097 -0.3361
  715MOL0     C94271   9.914   8.756   0.685 -0.4415  0.5793 -1.8339
  715MOL0     O94272   9.978   8.859   0.614  0.1569  0.0387 -0.5265
  715MOL0     C94273   9.966   8.988   0.658  0.5948  0.7720 -0.3982
  715MOL0     C94274  10.070   9.089   0.621  0.3069  0.3975  0.0324
  715MOL0     C94275  10.083   9.213   0.681 -0.2695 -1.0867  0.4580
  715MOL0     C94276   9.990   9.259   0.779  0.2262  0.5498 -0.6236
  715MOL0     C94277  10.000   9.392   0.833 -0.5051  0.0609  1.1195
  715MOL0     O94278   9.897   9.428   0.919 -0.2136 -0.5560  0.4692
  715MOL0     C94279   9.859   9.560   0.931  0.4079  0.7241 -1.1429
  715MOL0     C94280   9.782   9.592   1.039 -0.2642 -0.4787  0.4670
  715MOL0     C94281   9.748   9.724   1.062 -0.1808 -0.2665  0.3463
  715MOL0     C94282   9.756   9.819   0.960 -0.8148 -0.2646  0.5920
  715MOL0     O94283   9.723   9.948   0.968  0.1481  0.0555  0.1600
  715MOL0     C94284   9.588   9.993   0.952 -0.0629  0.0258 -0.5775
  715MOL0     C94285   9.499   9.943   1.072  0.8610 -0.2209  0.1841
  715MOL0     C94286   9.357  10.003   1.078 -0.3636  0.9219  0.3788
  715MOL0     C94287   9.377  10.138   1.146 -0.2854  0.2078  0.1482
  715MOL0     C94288   9.245  10.205   1.180  0.2988 -0.6086 -0.5155
  715MOL0     C94289   9.265  10.346   1.232  0.1381  0.1398 -0.2668
  715MOL0     C94290   9.150  10.381   1.330 -0.0702 -0.8931  0.5195
  715MOL0     C94291   9.180  10.504   1.414  0.1689  0.2483  0.3291
  715MOL0    Cl94292   9.243  10.648   1.329  0.3363 -0.0345  0.3737
  715MOL0     C94293   9.814   9.785   0.838  0.3487 -0.3127 -0.6636
  715MOL0     C94294   9.871   9.657   0.825 -0.6894 -0.8372 -0.3268
  715MOL0     O94295  10.104   9.465   0.806  0.7359  0.2930 -0.9322
  715MOL0     C94296   9.877   9.175   0.813  0.2016  0.5512  0.1779
  715MOL0     C94297   9.870   9.034   0.755 -0.4683  0.1095 -0.7985
  715MOL0     N94298   9.949   8.449   1.214 -0.7631 -0.3542  0.0467
  715MOL0     N94299   9.903   8.334   1.249 -0.0469  0.0345 -0.0163
  715MOL0     C94300  10.744   8.329   1.809 -0.8694  0.2424 -0.3866
  715MOL0     C94301  10.806   8.253   1.914 -0.1607  0.0135 -0.3800
  715MOL0     C94302  10.915   7.870   2.161 -0.7558 -0.6387 -0.0634
  715MOL0     C94303  10.957   7.730   2.166  0.0323 -0.0983 -1.4009
  715MOL0     C94304  10.977   7.677   2.294 -0.3374  0.7143  0.3708
  715MOL0     C94305  10.980   7.750   2.410  0.2667  0.3299  0.6979
  715MOL0     O94306  11.012   7.679   2.522 -0.2893  0.2623 -0.2262
  715MOL0     C94307  10.954   7.708   2.648  1.2415 -0.6302  0.3894
  715MOL0     C94308  10.794   7.713   2.642 -0.0130  0.4370 -0.1857
  715MOL0     C94309  10.743   7.564   2.634  0.0005  0.5171 -0.0046
  715MOL0     C94310  10.586   7.545   2.658  0.2449 -0.5378  0.3298
  715MOL0     C94311  10.545   7.603   2.786 -0.2553 -0.2334  0.3876
  715MOL0     C94312  10.518   7.669   2.886  0.4865 -0.6609  0.0478
  715MOL0     C94313  10.942   7.889   2.414 -0.4526 -0.2963 -0.3030
  715MOL0     C94314  10.908   7.943   2.286  0.5186 -0.1742 -0.5207
  715MOL0     H94315  10.607   7.976   1.891  2.3513 -1.0426 -0.9651
  715MOL0     H94316  10.511   8.099   1.713 -0.2810  0.4370 -1.9814
  715MOL0     H94317  10.424   8.414   1.769 -1.2493 -1.5705  0.4560
  715MOL0     H94318  10.387   8.279   1.680  0.6332  0.2312  3.3269
  715MOL0     H94319  10.449   8.552   1.542 -1.4092  1.4713  2.4544
  715MOL0     H94320  10.292   8.492   1.600  0.1890 -1.4148  0.8821
  715MOL0     H94321  10.470   8.336   1.393  0.2440 -0.7436  0.8765
  715MOL0     H94322  10.349   8.442   1.338  1.5776  0.8836  0.2182
  715MOL0     H94323  10.318   8.185   1.489 -0.0118 -0.1219 -1.5899
  715MOL0     H94324  10.184   8.295   1.508 -2.0930 -2.2681 -0.8304
  715MOL0     H94325  10.289   8.162   1.247 -1.7426 -2.4687 -1.6766
  715MOL0     H94326  10.185   8.302   1.242  2.2127 -0.7772 -1.4122
  715MOL0     H94327  10.020   8.163   1.391 -1.3327 -1.7536 -1.2936
  715MOL0     H94328  10.150   8.041   1.384  1.7876  0.8800  0.5224
  715MOL0     H94329  10.121   8.051   1.126 -1.9155  6.5504 -2.8476
  715MOL0     H94330  10.015   7.938   1.201  1.3596  0.1401 -2.6809
  715MOL0     H94331   9.825   8.092   1.223 -0.7598  1.6552  0.4846
  715MOL0     H94332   9.885   8.057   1.056  0.8319 -0.2976  1.0260
  715MOL0     H94333   9.974   8.273   0.935 -3.5585 -2.8791  0.7608
  715MOL0     H94334  10.143   8.537   0.974 -0.3597 -0.0028  1.2539
  715MOL0     H94335  10.052   8.638   1.085  0.8568 -1.6994  1.2800
  715MOL0     H94336   9.838   8.596   0.909 -0.2056  0.1442 -2.8094
  715MOL0     H94337   9.954   8.501   0.819 -1.5522 -2.2934  2.8357
  715MOL0     H94338   9.982   8.795   0.892 -0.1195 -2.8684  2.6576
  715MOL0     H94339  10.089   8.699   0.770 -1.2438 -0.7418 -2.5250
  715MOL0     H94340   9.816   8.794   0.713  0.3267  0.2581  1.7244
  715MOL0     H94341   9.911   8.657   0.638  1.8817 -1.1141  1.2237
  715MOL0     H94342  10.135   9.061   0.539 -1.0580 -2.5116 -0.1816
  715MOL0     H94343  10.169   9.268   0.643 -1.5588  0.1831 -0.7440
  715MOL0     H94344   9.743   9.520   1.110 -3.5193 -0.7300 -1.3847
  715MOL0     H94345   9.710   9.740   1.163 -1.1939 -2.0790  0.2936
  715MOL0     H94346   9.551   9.947   0.859 -1.6348  1.6002 -0.7852
  715MOL0     H94347   9.598  10.101   0.939  1.8718  0.4154  3.0855
  715MOL0     H94348   9.536   9.953   1.174 -1.5824  0.6074  1.0783
  715MOL0     H94349   9.477   9.839   1.048 -5.5707  0.4543  1.1770
  715MOL0     H94350   9.296   9.939   1.142 -0.9133  0.5605 -0.4862
  715MOL0     H94351   9.306   9.998   0.982  3.1066  0.2541 -1.6027
  715MOL0     H94352   9.424  10.122   1.244  1.4608 -0.4396 -0.7653
  715MOL0     H94353   9.435  10.208   1.085  1.1253 -0.7354  0.3421
  715MOL0     H94354   9.189  10.144   1.252  1.2882 -0.2237  0.6164
  715MOL0     H94355   9.172  10.210   1.098  0.5337  1.2167 -0.6471
  715MOL0     H94356   9.279  10.415   1.149  0.9010  0.9933  0.5510
  715MOL0     H94357   9.358  10.354   1.289  0.2218  0.2428 -0.4185
  715MOL0     H94358   9.056  10.397   1.277  1.1234  1.3839 -1.0644
  715MOL0     H94359   9.133  10.294   1.396 -4.9641 -2.1559 -1.8886
  715MOL0     H94360   9.267  10.484   1.478  1.5330  1.9511 -0.9185
  715MOL0     H94361   9.097  10.533   1.481 -2.3969 -3.3655 -0.9740
  715MOL0     H94362   9.836   9.862   0.765  1.9070 -1.0371 -1.0082
  715MOL0     H94363   9.939   9.629   0.744  1.0573 -0.4415  0.9329
  715MOL0     H94364   9.803   9.210   0.885 -0.0941 -3.2730  1.9877
  715MOL0     H94365   9.783   8.975   0.785 -0.2420  0.8709  1.6085
  715MOL0     H94366  10.784   8.428   1.790 -3.2572  0.8590 -2.7978
  715MOL0     H94367  10.878   8.308   1.974 -0.3788 -1.3071  1.1550
  715MOL0     H94368  10.953   7.656   2.087  1.0648 -0.4543 -1.1398
  715MOL0     H94369  11.004   7.573   2.308 -3.5829  0.0712  3.1704
  715MOL0     H94370  10.991   7.801   2.691  2.4545 -0.9439  0.0538
  715MOL0     H94371  10.975   7.628   2.720  3.1739  0.7759  1.4928
  715MOL0     H94372  10.761   7.759   2.736  0.9785  0.0093  0.3927
  715MOL0     H94373  10.763   7.764   2.551  2.9623 -2.5300 -3.1567
  715MOL0     H94374  10.784   7.505   2.716  1.3408  3.5626  1.6582
  715MOL0     H94375  10.780   7.511   2.545 -1.3164 -2.2216  0.9803
  715MOL0     H94376  10.524   7.586   2.578  1.6321  0.9052 -0.0666
  715MOL0     H94377  10.570   7.438   2.671  0.5254 -0.3813  2.3058
  715MOL0     H94378  10.493   7.732   2.969  1.0231  0.3188 -0.5183
  715MOL0     H94379  10.922   7.934   2.511  0.7233  0.9944 -0.6403
  715MOL0     H94380  10.870   8.044   2.277  2.2270  0.3185 -3.3491
  716MOL0     O94381   9.799   3.932   1.435  0.6838  0.1138  0.4220
  716MOL0     C94382   9.771   3.813   1.433  0.1411  0.5596  0.2249
  716MOL0     O94383   9.859   3.716   1.437 -0.3997 -0.6957  0.6983
  716MOL0     C94384   9.994   3.737   1.445  0.0763 -0.0775  0.0158
  716MOL0     C94385  10.064   3.659   1.531  0.2260  0.6047  0.1636
  716MOL0     C94386  10.209   3.671   1.530 -0.1862 -0.8637 -0.9784
  716MOL0     C94387  10.271   3.762   1.446 -0.3040 -0.9122  0.4026
  716MOL0     O94388  10.413   3.768   1.447  0.2094 -0.3138  0.1931
  716MOL0     C94389  10.488   3.812   1.336  0.0563  0.8529 -0.8359
  716MOL0     C94390  10.450   3.746   1.201 -0.0820  0.5678  0.1595
  716MOL0     C94391  10.547   3.750   1.084 -0.0056 -1.6294  0.7165
  716MOL0     C94392  10.567   3.894   1.033 -0.1193  0.1597  0.2125
  716MOL0     C94393  10.435   3.973   0.995  0.3183  0.1234  0.2579
  716MOL0     C94394  10.352   3.879   0.914 -0.3755  0.4197  0.5624
  716MOL0     C94395  10.226   3.953   0.856 -0.1333  0.1475 -0.1804
  716MOL0     C94396  10.145   3.866   0.753  0.3268  0.6147 -0.6657
  716MOL0     N94397  10.237   3.821   0.646  1.0186 -0.2434  0.2441
  716MOL0     C94398  10.215   3.707   0.571  0.1742  0.4367  0.0797
  716MOL0     C94399  10.316   3.690   0.494 -0.1642 -0.6512  1.1127
  716MOL0     C94400  10.324   3.568   0.407 -1.1137  0.5814  0.1526
  716MOL0     C94401  10.468   3.519   0.371  0.4325 -0.7175  0.5405
  716MOL0     C94402  10.530   3.592   0.245 -0.4496 -0.1216  0.2975
  716MOL0     C94403  10.683   3.558   0.232  0.2873  0.8485 -0.8032
  716MOL0     O94404  10.700   3.418   0.202  0.3981 -0.7142  1.2967
  716MOL0     C94405  10.798   3.372   0.110  0.3409  0.2534  0.0187
  716MOL0     C94406  10.906   3.447   0.054 -0.4816 -0.5778 -0.3932
  716MOL0     C94407  10.998   3.394  -0.036  0.3165 -1.1147 -0.3995
  716MOL0     C94408  10.995   3.257  -0.054 -0.3792 -0.6987  0.1972
  716MOL0     C94409  11.093   3.205  -0.151  0.4985  1.6003 -1.1320
  716MOL0     O94410  11.182   3.289  -0.212  0.4786  0.6068  0.3348
  716MOL0     C94411  11.246   3.235  -0.321  0.0660  1.0705 -0.0532
  716MOL0     C94412  11.380   3.193  -0.315 -0.3166  0.1452 -0.8433
  716MOL0     C94413  11.431   3.125  -0.434  0.7411 -0.3748 -0.8577
  716MOL0     C94414  11.353   3.104  -0.542 -0.1850 -0.1775  0.0823
  716MOL0     O94415  11.406   3.045  -0.655  0.0175  0.1926  0.0972
  716MOL0     C94416  11.475   2.920  -0.656  0.3697  0.4227 -1.7294
  716MOL0     C94417  11.474   2.827  -0.768  0.2796 -0.0777  0.3388
  716MOL0     C94418  11.326   2.788  -0.817 -0.3438 -1.1335  0.0086
  716MOL0     C94419  11.350   2.684  -0.920  0.3137 -0.1954 -0.0475
  716MOL0     C94420  11.220   2.618  -0.962  0.1983  0.2270  0.9279
  716MOL0     C94421  11.124   2.725  -1.031  0.3011 -0.8335  0.8569
  716MOL0     C94422  11.178   2.824  -1.154  0.2154  0.5219  0.0305
  716MOL0     C94423  11.248   2.738  -1.264 -0.5076  0.6129  0.2416
  716MOL0    Cl94424  11.146   2.593  -1.321  0.2767  0.0194 -0.5085
  716MOL0     C94425  11.216   3.135  -0.539 -0.6160 -0.1603 -0.2800
  716MOL0     C94426  11.162   3.202  -0.430  0.1847 -0.3033  0.6807
  716MOL0     O94427  11.090   3.081  -0.169 -1.3184 -0.1942  0.2725
  716MOL0     C94428  10.901   3.177   0.011 -1.0944 -0.4177 -0.2860
  716MOL0     C94429  10.803   3.233   0.093 -0.1463 -0.7950 -0.2574
  716MOL0     N94430  10.395   3.797   0.510 -0.7447 -0.3055  0.0120
  716MOL0     N94431  10.351   3.875   0.592  0.2690 -0.0117 -0.4736
  716MOL0     C94432  10.194   3.843   1.360  0.7587  0.2038  0.3582
  716MOL0     C94433  10.058   3.833   1.370  0.8218 -0.2103  0.2962
  716MOL0     C94434   9.626   3.782   1.428 -1.0740  0.4241 -1.1298
  716MOL0     C94435   9.533   3.868   1.362 -1.3203 -0.8293 -0.0033
  716MOL0     C94436   9.394   3.832   1.359  0.2655 -0.8213  0.0041
  716MOL0     C94437   9.342   3.714   1.413 -0.5927 -1.6466  0.1503
  716MOL0     O94438   9.216   3.673   1.441 -0.2572 -0.6674 -0.7547
  716MOL0     C94439   9.105   3.767   1.458  0.1016  0.4616  0.9860
  716MOL0     C94440   9.037   3.815   1.328 -0.1055 -0.0392  1.3113
  716MOL0     C94441   8.904   3.868   1.363  0.4780 -0.3807  0.9278
  716MOL0     C94442   8.815   3.925   1.244 -0.6708  1.0458  0.2072
  716MOL0     C94443   8.675   3.926   1.276  0.6725 -0.3072 -0.8700
  716MOL0     C94444   8.557   3.930   1.308  0.7002  0.5978 -1.0024
  716MOL0     C94445   9.439   3.623   1.463 -0.3040  0.0717  0.7208
  716MOL0     C94446   9.580   3.657   1.483 -0.1405  0.9664  0.6145
  716MOL0     H94447  10.014   3.589   1.597  1.3424 -0.3574  0.0237
  716MOL0     H94448  10.275   3.605   1.585  0.0155  1.3497  1.6406
  716MOL0     H94449  10.596   3.801   1.348 -0.1989  1.1997  2.8242
  716MOL0     H94450  10.476   3.921   1.329 -3.2276  0.7540  1.0461
  716MOL0     H94451  10.349   3.777   1.173 -1.5928 -2.6859  1.5372
  716MOL0     H94452  10.443   3.643   1.238  0.8882  1.4050  2.8777
  716MOL0     H94453  10.515   3.681   1.005 -1.5898 -0.1066 -0.0220
  716MOL0     H94454  10.641   3.703   1.118  1.0452  0.0189  0.1958
  716MOL0     H94455  10.612   3.941   1.120  1.3142 -0.9330  0.1072
  716MOL0     H94456  10.634   3.895   0.947  0.6922 -0.5904  0.8206
  716MOL0     H94457  10.440   4.056   0.924 -2.7337  1.5774  1.5410
  716MOL0     H94458  10.388   4.003   1.089 -0.8982 -2.5576  0.5835
  716MOL0     H94459  10.318   3.785   0.960 -1.6570 -0.2866 -1.6447
  716MOL0     H94460  10.409   3.840   0.830 -0.4854 -2.0251  1.5197
  716MOL0     H94461  10.164   3.993   0.937 -0.2779  1.5602 -0.9753
  716MOL0     H94462  10.259   4.040   0.799 -0.6843 -1.8072 -3.7473
  716MOL0     H94463  10.061   3.925   0.715 -1.5468  0.1114  2.3118
  716MOL0     H94464  10.115   3.779   0.813 -1.8627  1.4114 -0.4988
  716MOL0     H94465  10.144   3.630   0.600  0.6932 -0.1013 -0.0674
  716MOL0     H94466  10.256   3.582   0.322 -2.9885  0.9678  1.6667
  716MOL0     H94467  10.275   3.488   0.461 -1.2090  2.6356  3.3437
  716MOL0     H94468  10.450   3.414   0.346 -2.4295 -0.6082  1.8285
  716MOL0     H94469  10.519   3.537   0.466 -1.9675  2.0951  1.4466
  716MOL0     H94470  10.471   3.569   0.156 -0.0483  3.2789 -1.0099
  716MOL0     H94471  10.517   3.700   0.258  3.1271  0.2870  1.4088
  716MOL0     H94472  10.744   3.589   0.318  0.2639 -2.6117  0.6119
  716MOL0     H94473  10.721   3.618   0.148  0.9360  0.0280 -1.1069
  716MOL0     H94474  10.911   3.554   0.067 -0.6443 -0.8359  2.4778
  716MOL0     H94475  11.071   3.446  -0.097 -0.4318  0.6049  0.1308
  716MOL0     H94476  11.444   3.211  -0.229 -0.5938 -4.5401  0.6251
  716MOL0     H94477  11.535   3.094  -0.435  0.3510 -1.9661 -4.1346
  716MOL0     H94478  11.432   2.856  -0.577 -3.3808  1.4563 -2.7263
  716MOL0     H94479  11.578   2.944  -0.628  0.1723 -1.8775  1.6524
  716MOL0     H94480  11.524   2.734  -0.737  4.1752  1.8432  0.4535
  716MOL0     H94481  11.531   2.860  -0.855  1.6153 -3.2697 -0.1570
  716MOL0     H94482  11.270   2.875  -0.852 -0.7822  0.3223  3.8793
  716MOL0     H94483  11.263   2.743  -0.739  0.0568 -3.6449 -1.0068
  716MOL0     H94484  11.405   2.732  -1.002 -0.5556  0.5619 -0.1983
  716MOL0     H94485  11.420   2.608  -0.883 -1.1867  0.0803  3.8206
  716MOL0     H94486  11.165   2.565  -0.884 -2.0803  1.1879  0.0684
  716MOL0     H94487  11.247   2.534  -1.026 -0.0656 -0.2691  1.4649
  716MOL0     H94488  11.082   2.784  -0.949 -2.5430 -2.7039  0.9002
  716MOL0     H94489  11.033   2.671  -1.058 -1.7848  2.8482 -0.0284
  716MOL0     H94490  11.099   2.886  -1.197  1.4400  0.1942 -2.8912
  716MOL0     H94491  11.250   2.892  -1.109 -1.4671  1.2884  1.6960
  716MOL0     H94492  11.342   2.699  -1.224 -0.5396 -1.7119 -1.6940
  716MOL0     H94493  11.270   2.807  -1.347  1.9929 -0.0161  0.2999
  716MOL0     H94494  11.168   3.125  -0.635  0.9274  0.1117 -1.1169
  716MOL0     H94495  11.056   3.225  -0.434  0.4977  1.3225  0.7573
  716MOL0     H94496  10.888   3.070   0.006  3.9082 -1.2680 -0.0501
  716MOL0     H94497  10.731   3.170   0.144 -0.2483  0.8168  1.6929
  716MOL0     H94498  10.245   3.923   1.308  2.0164  1.6943  3.5897
  716MOL0     H94499  10.013   3.889   1.290  3.6710 -0.6013 -1.7191
  716MOL0     H94500   9.581   3.959   1.329 -0.1271 -0.7459  1.8107
  716MOL0     H94501   9.324   3.891   1.301  0.5824 -0.6553 -0.2148
  716MOL0     H94502   9.127   3.843   1.533  0.7704  1.4237 -0.1615
  716MOL0     H94503   9.026   3.700   1.494  0.0970 -0.2780 -0.3207
  716MOL0     H94504   9.099   3.892   1.282 -1.1888  0.8498  1.2950
  716MOL0     H94505   9.033   3.734   1.254 -1.3686 -2.0519  3.4643
  716MOL0     H94506   8.924   3.949   1.435  2.1533  0.3895 -0.3436
  716MOL0     H94507   8.849   3.786   1.409  1.1312  0.3768  3.2366
  716MOL0     H94508   8.841   4.025   1.207 -0.4966  1.0855  0.4414
  716MOL0     H94509   8.825   3.856   1.160 -1.5401  1.7283 -0.4829
  716MOL0     H94510   8.470   3.929   1.371  1.2835  4.4517  0.1435
  716MOL0     H94511   9.406   3.526   1.499  0.2303 -1.2340 -2.0333
  716MOL0     H94512   9.640   3.579   1.528  0.6552 -1.9805 -4.7563
  717MOL0     O94513   2.073   2.811   7.759  0.4720  0.2414 -0.0290
  717MOL0     C94514   2.030   2.693   7.785  0.0048  0.1667  0.3158
  717MOL0     O94515   2.111   2.583   7.813 -0.2731 -0.4137  0.4875
  717MOL0     C94516   2.242   2.614   7.826 -1.1545  0.1601 -0.8170
  717MOL0     C94517   2.311   2.563   7.941 -1.0062  0.1645 -0.0523
  717MOL0     C94518   2.447   2.571   7.940 -0.3476  0.6058  0.1406
  717MOL0     C94519   2.526   2.632   7.835  0.5726  0.5154  0.2627
  717MOL0     O94520   2.664   2.628   7.836  0.6547  0.0493  0.5989
  717MOL0     C94521   2.727   2.511   7.782 -0.3577  0.8427  0.3691
  717MOL0     C94522   2.845   2.560   7.705 -0.2949  0.3012 -0.1564
  717MOL0     C94523   2.933   2.450   7.660  0.0153  0.1125 -0.5249
  717MOL0     C94524   3.079   2.499   7.639 -0.1813  0.3855 -0.2481
  717MOL0     C94525   3.172   2.389   7.594 -0.0016  1.2035 -0.2406
  717MOL0     C94526   3.322   2.434   7.604  0.2744 -0.9511 -0.7224
  717MOL0     C94527   3.379   2.531   7.506 -0.8724  0.0487  1.3251
  717MOL0     C94528   3.314   2.668   7.479  0.2946 -0.0885  0.8974
  717MOL0     N94529   3.396   2.770   7.413 -0.4566  0.6488 -0.2775
  717MOL0     C94530   3.362   2.901   7.390 -0.3756 -0.1723  0.1269
  717MOL0     C94531   3.471   2.971   7.347 -0.1001  0.6123 -0.2147
  717MOL0     C94532   3.478   3.121   7.338  0.5864 -1.1097 -0.3246
  717MOL0     C94533   3.471   3.172   7.192 -0.6896  0.9144 -0.7070
  717MOL0     C94534   3.611   3.187   7.140 -0.1171  0.1504  0.9714
  717MOL0     C94535   3.614   3.217   6.996  0.5344  0.8558 -0.5877
  717MOL0     O94536   3.544   3.340   6.952  0.9631  0.4602  0.1852
  717MOL0     C94537   3.543   3.368   6.814  0.6594 -0.3839 -0.8689
  717MOL0     C94538   3.586   3.294   6.712 -0.5950  1.1592  0.3029
  717MOL0     C94539   3.577   3.334   6.577  0.5498 -0.1527 -0.1511
  717MOL0     C94540   3.539   3.469   6.548 -0.1847  0.4794 -0.1556
  717MOL0     C94541   3.545   3.518   6.410  0.3575  0.9157  0.4173
  717MOL0     O94542   3.457   3.611   6.367  0.2119  0.0558 -0.2701
  717MOL0     C94543   3.475   3.683   6.250  0.8721  0.5098 -0.6592
  717MOL0     C94544   3.588   3.744   6.200  0.1444  0.2720 -1.0734
  717MOL0     C94545   3.579   3.824   6.082 -0.0369 -1.3150 -0.3625
  717MOL0     C94546   3.456   3.853   6.020  0.3619 -0.5310  0.2574
  717MOL0     O94547   3.429   3.930   5.902 -0.2123 -0.4524 -0.5781
  717MOL0     C94548   3.543   3.976   5.829 -0.3688 -0.1969 -0.6337
  717MOL0     C94549   3.509   4.024   5.695 -0.9543  0.2143  0.0933
  717MOL0     C94550   3.409   4.140   5.683  0.1375  0.2464  0.5128
  717MOL0     C94551   3.442   4.261   5.771 -0.6447 -0.3667  0.4063
  717MOL0     C94552   3.321   4.361   5.787  0.7425 -0.0159  0.0070
  717MOL0     C94553   3.384   4.470   5.870 -0.1955 -0.2284  1.2438
  717MOL0     C94554   3.270   4.576   5.870 -0.2418  0.0603 -0.0747
  717MOL0     C94555   3.315   4.707   5.936  0.0954 -0.7125 -0.1903
  717MOL0    Cl94556   3.466   4.777   5.860 -0.5330 -0.5848  0.3074
  717MOL0     C94557   3.343   3.782   6.064  0.0454 -0.2734  0.0117
  717MOL0     C94558   3.356   3.697   6.171  1.2274 -0.6958 -0.5054
  717MOL0     O94559   3.618   3.461   6.334 -0.5978  0.1144  0.2747
  717MOL0     C94560   3.489   3.548   6.654  0.5926 -0.2223 -0.0242
  717MOL0     C94561   3.503   3.501   6.789 -0.3449  0.3514  0.3704
  717MOL0     N94562   3.570   2.881   7.360  0.2748 -0.9829 -0.7947
  717MOL0     N94563   3.533   2.761   7.393  0.6747  0.1060 -0.4991
  717MOL0     C94564   2.465   2.679   7.722 -0.3389 -0.2805  0.0219
  717MOL0     C94565   2.322   2.671   7.719 -0.0547  0.2900 -0.0815
  717MOL0     C94566   1.881   2.686   7.782 -0.1975  0.8561 -0.2424
  717MOL0     C94567   1.815   2.575   7.720 -0.6364 -0.0524 -1.2073
  717MOL0     C94568   1.675   2.561   7.712  0.7373 -0.0483  0.6790
  717MOL0     C94569   1.595   2.657   7.783  0.8345  0.3656  0.5194
  717MOL0     O94570   1.458   2.635   7.777  0.1608  0.3763  0.3121
  717MOL0     C94571   1.372   2.754   7.783  0.4824  0.3219 -0.8165
  717MOL0     C94572   1.363   2.856   7.664  0.0322  0.3085  0.2237
  717MOL0     C94573   1.279   2.974   7.689  0.6055  0.3857 -0.3444
  717MOL0     C94574   1.134   2.958   7.720  0.2439  0.9677 -1.4134
  717MOL0     C94575   1.059   2.897   7.613 -0.1222  0.5273  0.1768
  717MOL0     C94576   0.994   2.845   7.523  0.5216  0.5365 -0.3093
  717MOL0     C94577   1.658   2.760   7.845  0.2160 -0.5827 -0.4334
  717MOL0     C94578   1.800   2.779   7.838 -0.0367 -0.1341  0.5152
  717MOL0     H94579   2.251   2.513   8.015 -2.8727  0.5099 -1.2611
  717MOL0     H94580   2.504   2.526   8.022  2.4156  0.1944 -1.8534
  717MOL0     H94581   2.658   2.458   7.716  0.1828  2.1389 -1.2936
  717MOL0     H94582   2.761   2.437   7.856 -0.0671 -2.0276 -2.4364
  717MOL0     H94583   2.889   2.613   7.790  3.2081 -2.7100  0.1536
  717MOL0     H94584   2.802   2.628   7.630 -1.2801  0.7277  0.7709
  717MOL0     H94585   2.911   2.412   7.560 -0.6938 -1.4201  0.1767
  717MOL0     H94586   2.929   2.375   7.740 -1.3564  0.4188 -0.2863
  717MOL0     H94587   3.073   2.588   7.575 -0.7373  0.8811  0.4762
  717MOL0     H94588   3.117   2.536   7.734 -0.4780 -2.6043  1.1411
  717MOL0     H94589   3.147   2.354   7.493  1.7750 -0.3826 -0.1803
  717MOL0     H94590   3.150   2.304   7.658  1.9759 -0.9389 -2.2324
  717MOL0     H94591   3.387   2.347   7.595 -1.7829 -2.5037 -1.2683
  717MOL0     H94592   3.328   2.480   7.704 -0.3277 -0.4472 -0.9060
  717MOL0     H94593   3.484   2.544   7.533 -0.2457  0.7292 -1.1392
  717MOL0     H94594   3.387   2.477   7.411  2.6333  1.0394  0.9063
  717MOL0     H94595   3.271   2.719   7.565 -5.4471  1.5688 -2.4390
  717MOL0     H94596   3.231   2.643   7.413 -1.8617 -0.2144  3.5337
  717MOL0     H94597   3.264   2.944   7.408  0.3215  1.5415 -0.0060
  717MOL0     H94598   3.575   3.150   7.378  0.0473  0.1160  0.1614
  717MOL0     H94599   3.407   3.180   7.397  2.1112  0.5570 -0.0804
  717MOL0     H94600   3.423   3.269   7.172  1.3064  1.6257 -2.4543
  717MOL0     H94601   3.411   3.095   7.143 -4.4126  1.9349  1.8393
  717MOL0     H94602   3.672   3.262   7.191  0.9623  0.5934 -0.8909
  717MOL0     H94603   3.665   3.092   7.148  4.0441  2.0663 -1.2168
  717MOL0     H94604   3.558   3.138   6.945 -1.7778  3.1685 -1.9057
  717MOL0     H94605   3.714   3.220   6.951 -1.1467  1.4374 -4.7939
  717MOL0     H94606   3.613   3.189   6.720 -0.1417  0.8005 -3.8044
  717MOL0     H94607   3.618   3.273   6.498  1.0641  1.9111 -1.5684
  717MOL0     H94608   3.669   3.737   6.271 -1.9783 -0.7020  1.3975
  717MOL0     H94609   3.670   3.869   6.044 -1.3316  0.5647 -1.4103
  717MOL0     H94610   3.615   3.898   5.798 -3.1826 -3.0708 -0.4389
  717MOL0     H94611   3.599   4.045   5.893  1.5379 -0.7215 -1.6460
  717MOL0     H94612   3.458   3.935   5.657 -0.3866  0.1653 -0.5547
  717MOL0     H94613   3.604   4.059   5.655  0.3409  1.0790  3.5540
  717MOL0     H94614   3.313   4.095   5.711  0.3751 -2.0621 -1.9002
  717MOL0     H94615   3.399   4.180   5.581  0.5295  1.1243  0.8092
  717MOL0     H94616   3.476   4.223   5.868 -0.1072  0.9307  0.7536
  717MOL0     H94617   3.535   4.303   5.732  1.1436 -2.4481  2.1294
  717MOL0     H94618   3.233   4.316   5.834  1.9358 -1.6985  0.7384
  717MOL0     H94619   3.280   4.386   5.689  0.5509  1.6163  0.4810
  717MOL0     H94620   3.475   4.506   5.820  0.4379 -4.2821 -0.9328
  717MOL0     H94621   3.390   4.446   5.976  0.4287 -0.3594  1.1849
  717MOL0     H94622   3.242   4.603   5.768  3.8638 -0.1486 -1.4418
  717MOL0     H94623   3.185   4.535   5.926 -0.1739  0.5222  0.3789
  717MOL0     H94624   3.345   4.696   6.041  1.3294 -1.2275 -0.5815
  717MOL0     H94625   3.229   4.774   5.925 -0.2263 -0.8807  1.0760
  717MOL0     H94626   3.247   3.789   6.014 -1.0840 -2.5017  1.6953
  717MOL0     H94627   3.271   3.644   6.212 -2.7219  2.6484 -3.4826
  717MOL0     H94628   3.442   3.645   6.644  2.8900  1.2637  2.2867
  717MOL0     H94629   3.489   3.563   6.877 -1.1507  1.0005 -0.2092
  717MOL0     H94630   2.527   2.709   7.639 -2.4191 -1.2692 -1.9931
  717MOL0     H94631   2.265   2.715   7.639 -1.0947  0.1228  0.5398
  717MOL0     H94632   1.876   2.495   7.680 -2.5211 -2.0548 -0.2424
  717MOL0     H94633   1.645   2.470   7.660  2.4416 -1.2074  1.6171
  717MOL0     H94634   1.407   2.804   7.874  4.1195 -2.6796 -0.2865
  717MOL0     H94635   1.271   2.712   7.790  0.8529 -0.5162 -0.2269
  717MOL0     H94636   1.468   2.884   7.661  0.2628 -0.6117 -0.6844
  717MOL0     H94637   1.336   2.797   7.576  0.5796 -1.9709  1.5031
  717MOL0     H94638   1.279   3.034   7.597  2.1266  1.5835  0.3959
  717MOL0     H94639   1.320   3.043   7.763  0.3931 -0.0608  0.1974
  717MOL0     H94640   1.124   2.896   7.810  4.2191  0.8320 -0.9088
  717MOL0     H94641   1.099   3.057   7.751 -1.2213  1.0701 -3.1810
  717MOL0     H94642   0.945   2.807   7.435 -1.9356 -1.1418  1.6634
  717MOL0     H94643   1.591   2.822   7.904 -1.9540 -2.2999 -0.9525
  717MOL0     H94644   1.848   2.865   7.885  2.0604  1.6585 -4.2500
  718MOL0     O94645   1.893   2.833   9.421  0.1194  0.5801 -0.5207
  718MOL0     C94646   2.001   2.776   9.413 -0.5207 -0.7427 -0.8557
  718MOL0     O94647   2.077   2.774   9.301  0.2124 -0.3039 -0.7561
  718MOL0     C94648   2.031   2.849   9.200  0.6343  0.0011  1.1820
  718MOL0     C94649   2.123   2.916   9.123 -0.3956  0.6063  0.2220
  718MOL0     C94650   2.085   2.982   9.003 -0.1942  0.1307  0.5819
  718MOL0     C94651   1.959   2.969   8.952 -1.0356  1.1361  0.2295
  718MOL0     O94652   1.930   3.017   8.829 -0.0410  0.2602 -0.3175
  718MOL0     C94653   1.947   2.925   8.719 -0.4825  0.4311  1.5243
  718MOL0     C94654   1.917   2.995   8.579  1.7362 -1.0935  0.1751
  718MOL0     C94655   2.026   3.108   8.548  0.2693 -0.2423 -0.0559
  718MOL0     C94656   2.005   3.192   8.412  1.0906 -0.7024 -0.1640
  718MOL0     C94657   2.106   3.302   8.407  0.8011  0.7457 -1.1214
  718MOL0     C94658   2.078   3.413   8.306 -0.6263  0.7634  0.0705
  718MOL0     C94659   2.203   3.482   8.249 -0.5664  0.3656 -0.1142
  718MOL0     C94660   2.291   3.557   8.345 -0.0842 -0.0653 -0.6416
  718MOL0     N94661   2.211   3.660   8.416 -0.0768  0.1076  0.7022
  718MOL0     C94662   2.134   3.648   8.531 -0.9367 -0.1624  0.2121
  718MOL0     C94663   2.088   3.768   8.557  0.4320 -0.6138  0.0593
  718MOL0     C94664   2.003   3.806   8.671 -0.0564  0.6225  0.0913
  718MOL0     C94665   2.043   3.939   8.717  1.0379 -0.3383 -0.2135
  718MOL0     C94666   2.120   3.947   8.849 -0.2182 -0.4710 -1.2095
  718MOL0     C94667   2.251   3.861   8.840 -0.3523  0.7520 -0.3390
  718MOL0     O94668   2.330   3.867   8.965  0.9549  0.2165  0.3026
  718MOL0     C94669   2.427   3.779   8.994  1.0590 -0.1818 -0.2737
  718MOL0     C94670   2.501   3.795   9.106 -0.2726 -0.0957  0.3174
  718MOL0     C94671   2.600   3.701   9.146  0.1957 -0.1482 -0.5998
  718MOL0     C94672   2.626   3.582   9.075 -0.0072 -0.0905 -0.9019
  718MOL0     C94673   2.728   3.486   9.111 -0.0210 -0.6590 -0.0659
  718MOL0     O94674   2.790   3.513   9.236  0.0850  0.0670  0.4003
  718MOL0     C94675   2.895   3.427   9.277 -0.1109 -0.0328  0.7900
  718MOL0     C94676   2.903   3.394   9.407  0.9300  0.8352 -0.4508
  718MOL0     C94677   3.006   3.308   9.469  0.0658  0.0588  0.6671
  718MOL0     C94678   3.103   3.258   9.386 -0.8090  0.7576 -0.1923
  718MOL0     O94679   3.199   3.163   9.423  0.6669 -0.0850  0.2674
  718MOL0     C94680   3.161   3.057   9.515  0.9069  0.2555 -0.0907
  718MOL0     C94681   3.282   2.968   9.533  0.3318  0.8730  0.6547
  718MOL0     C94682   3.239   2.866   9.638  0.6336  0.6114  1.1958
  718MOL0     C94683   3.336   2.750   9.669 -1.2089 -0.3889 -0.1700
  718MOL0     C94684   3.302   2.628   9.569  0.3901 -0.2940  0.3115
  718MOL0     C94685   3.381   2.505   9.602 -0.2906 -0.0372 -0.1252
  718MOL0     C94686   3.351   2.383   9.518 -0.0860  0.5777 -1.0408
  718MOL0     C94687   3.443   2.374   9.399  0.2466 -0.3200  0.2885
  718MOL0    Cl94688   3.435   2.192   9.335 -0.1375 -0.1225 -0.8879
  718MOL0     C94689   3.110   3.305   9.254  0.6056 -0.2216 -0.7690
  718MOL0     C94690   3.003   3.385   9.202 -0.6708  0.5083  0.1201
  718MOL0     O94691   2.762   3.402   9.028 -0.2227 -0.5329 -1.5139
  718MOL0     C94692   2.544   3.559   8.964  0.4347  0.5877  0.7556
  718MOL0     C94693   2.445   3.656   8.922 -0.4547 -0.9090  0.1342
  718MOL0     N94694   2.131   3.847   8.454 -0.7422 -0.3544 -0.0350
  718MOL0     N94695   2.202   3.783   8.373  0.1267 -0.3660  0.2791
  718MOL0     C94696   1.863   2.895   9.028 -0.4816  0.2554  0.1851
  718MOL0     C94697   1.901   2.834   9.145 -0.0393 -0.6843  0.1967
  718MOL0     C94698   2.045   2.697   9.532  0.1109  0.0318  0.3956
  718MOL0     C94699   1.980   2.690   9.660 -0.7280 -0.6795  0.5955
  718MOL0     C94700   2.037   2.612   9.757  0.3195  0.2984 -0.8507
  718MOL0     C94701   2.145   2.522   9.738 -0.0954 -0.1770  0.4177
  718MOL0     O94702   2.191   2.458   9.846  0.8322  0.5333 -0.6540
  718MOL0     C94703   2.307   2.381   9.846  0.2628  0.5840  0.8986
  718MOL0     C94704   2.273   2.257   9.746 -0.1169 -1.3730  0.0808
  718MOL0     C94705   2.408   2.195   9.711  0.2763 -0.1875  0.8439
  718MOL0     C94706   2.393   2.068   9.616  0.0232  0.4002 -0.3127
  718MOL0     C94707   2.346   2.102   9.477  0.2293  0.6638  0.1199
  718MOL0     C94708   2.325   2.123   9.359  0.0355  0.2172 -0.1769
  718MOL0     C94709   2.226   2.553   9.626 -0.6894 -0.4991  0.9631
  718MOL0     C94710   2.177   2.634   9.515  0.9663 -0.6508  0.1897
  718MOL0     H94711   2.225   2.917   9.160 -0.4697 -2.4324  0.6988
  718MOL0     H94712   2.147   3.056   8.955 -3.4201  0.9813 -2.6351
  718MOL0     H94713   1.879   2.840   8.726  0.0098 -0.5202 -2.4491
  718MOL0     H94714   2.049   2.886   8.722 -1.1426 -2.1853 -2.4435
  718MOL0     H94715   1.818   3.041   8.592  1.8073 -1.4589  2.5051
  718MOL0     H94716   1.916   2.926   8.495  0.1766 -0.4642 -0.3700
  718MOL0     H94717   2.120   3.053   8.556  0.8484  0.6670 -0.5043
  718MOL0     H94718   2.024   3.183   8.628  2.4574  0.9241 -1.0294
  718MOL0     H94719   2.012   3.124   8.326 -3.5938 -0.6394 -0.8536
  718MOL0     H94720   1.905   3.236   8.418  1.5245  0.0456  3.9222
  718MOL0     H94721   2.202   3.249   8.397 -0.9069 -2.8047 -0.2023
  718MOL0     H94722   2.105   3.357   8.501 -1.6061  1.3369 -1.4363
  718MOL0     H94723   2.012   3.491   8.345  0.0379  0.9584  0.8211
  718MOL0     H94724   2.029   3.360   8.223 -2.3379  0.1582  1.4205
  718MOL0     H94725   2.265   3.404   8.204 -0.6294  1.0856 -1.5271
  718MOL0     H94726   2.176   3.545   8.163 -0.6293 -1.0510 -1.1678
  718MOL0     H94727   2.360   3.600   8.271  2.0931 -3.8717 -1.0924
  718MOL0     H94728   2.342   3.502   8.424  1.0983  2.0215  0.1587
  718MOL0     H94729   2.113   3.559   8.589 -0.5727 -0.6985 -0.4530
  718MOL0     H94730   2.024   3.736   8.753  1.8441  1.2438  0.1685
  718MOL0     H94731   1.898   3.799   8.642 -0.2300 -1.1867  1.0164
  718MOL0     H94732   1.949   3.995   8.728  0.7803 -0.8594  0.2904
  718MOL0     H94733   2.100   4.002   8.648  2.5124 -0.0423  1.2252
  718MOL0     H94734   2.155   4.048   8.874  1.1979 -1.4233  0.9901
  718MOL0     H94735   2.058   3.924   8.935  2.2062  0.1680  0.8383
  718MOL0     H94736   2.329   3.888   8.768  2.6678 -0.9351  2.0216
  718MOL0     H94737   2.228   3.762   8.799  1.8747  0.1360 -0.2360
  718MOL0     H94738   2.479   3.885   9.163 -0.4704  0.5540 -0.7555
  718MOL0     H94739   2.659   3.723   9.234 -1.3084  0.9668  0.1853
  718MOL0     H94740   2.834   3.425   9.486  1.9220  0.4281  0.6029
  718MOL0     H94741   2.998   3.293   9.576 -0.1341 -0.5282  0.5699
  718MOL0     H94742   3.074   3.008   9.471  0.8446  0.5481 -0.2962
  718MOL0     H94743   3.130   3.100   9.611  0.0373 -1.0380  0.2231
  718MOL0     H94744   3.363   3.023   9.582  1.4996  0.0476 -0.2921
  718MOL0     H94745   3.331   2.936   9.440 -0.2466 -0.3551  0.7587
  718MOL0     H94746   3.142   2.822   9.613  1.2354 -1.4554  2.3242
  718MOL0     H94747   3.228   2.901   9.741  3.2249 -2.0124  2.5065
  718MOL0     H94748   3.442   2.778   9.667 -0.8670 -1.4525  1.2524
  718MOL0     H94749   3.325   2.712   9.772  2.3789 -0.3179  0.3760
  718MOL0     H94750   3.317   2.654   9.464 -2.1390 -0.1385 -0.0741
  718MOL0     H94751   3.196   2.607   9.581  0.4282  0.3526  2.0192
  718MOL0     H94752   3.343   2.480   9.701  0.2303  1.3146  0.4269
  718MOL0     H94753   3.489   2.521   9.602 -0.2547 -0.2717 -0.4895
  718MOL0     H94754   3.356   2.289   9.573 -2.6637  0.4517 -0.8829
  718MOL0     H94755   3.251   2.389   9.474 -0.4421  2.3359 -0.0505
  718MOL0     H94756   3.544   2.402   9.428 -0.3851  0.0911  2.1999
  718MOL0     H94757   3.408   2.455   9.334  3.8952  1.7789  0.6637
  718MOL0     H94758   3.186   3.269   9.186 -0.3100  1.0560 -2.5612
  718MOL0     H94759   3.010   3.413   9.098 -0.9782  0.5986  0.1221
  718MOL0     H94760   2.579   3.483   8.895 -0.8668 -0.0175  0.7353
  718MOL0     H94761   2.396   3.632   8.829 -0.0724 -0.3050 -0.2283
  718MOL0     H94762   1.763   2.871   8.994 -0.9172  0.7999  1.0544
  718MOL0     H94763   1.822   2.770   9.182  0.8468 -1.7855  0.2567
  718MOL0     H94764   1.881   2.731   9.672 -0.1263  0.8416  0.6157
  718MOL0     H94765   1.977   2.605   9.848  2.2863  2.1516  0.6940
  718MOL0     H94766   2.326   2.332   9.942 -0.3479  0.2083  0.8331
  718MOL0     H94767   2.395   2.437   9.814  1.3413 -1.1001  0.7736
  718MOL0     H94768   2.196   2.189   9.783  0.2586 -1.3400  0.9532
  718MOL0     H94769   2.227   2.282   9.651  2.5168 -1.1389 -1.2251
  718MOL0     H94770   2.455   2.165   9.806  0.7611  0.3387  0.7752
  718MOL0     H94771   2.476   2.266   9.663 -1.6351  1.6669  0.7075
  718MOL0     H94772   2.486   2.012   9.607 -2.0128 -4.0301  2.6932
  718MOL0     H94773   2.312   2.008   9.659  0.6432 -0.1159  0.1536
  718MOL0     H94774   2.310   2.131   9.253 -4.5247  0.2572  0.2770
  718MOL0     H94775   2.326   2.511   9.620 -0.3378  0.1761  1.8212
  718MOL0     H94776   2.240   2.647   9.427  2.5923  0.5270  1.4592
  719MOL0     O94777   9.712   0.449   5.627  0.5446 -0.8766 -0.0433
  719MOL0     C94778   9.800   0.500   5.558  0.5750  0.0333  0.0786
  719MOL0     O94779   9.918   0.572   5.605 -0.8630  0.4512  0.1586
  719MOL0     C94780   9.964   0.568   5.735  0.0436 -1.2497  0.3085
  719MOL0     C94781   9.942   0.470   5.825  0.0294  0.9096  0.0279
  719MOL0     C94782   9.969   0.487   5.959  0.3117  0.6075 -0.4303
  719MOL0     C94783   9.999   0.614   6.018 -0.0079 -0.2702  0.3572
  719MOL0     O94784  10.048   0.634   6.148 -0.2399  0.6001  0.9599
  719MOL0     C94785   9.961   0.557   6.242 -0.6998 -0.2219 -0.7519
  719MOL0     C94786   9.993   0.599   6.381  0.2512 -1.5452  0.4457
  719MOL0     C94787   9.891   0.560   6.487 -0.0211  0.1126 -0.4640
  719MOL0     C94788   9.956   0.555   6.622 -0.4270 -0.8369  0.0443
  719MOL0     C94789   9.862   0.518   6.732 -0.4138 -0.1020 -0.0633
  719MOL0     C94790   9.862   0.363   6.758 -0.2847 -0.9232 -0.7712
  719MOL0     C94791   9.760   0.326   6.871 -0.0494  0.0498  0.8190
  719MOL0     C94792   9.621   0.336   6.831 -0.6461 -1.1024 -0.1869
  719MOL0     N94793   9.562   0.200   6.850  0.1495  0.6834 -0.6650
  719MOL0     C94794   9.515   0.157   6.973  1.3344  0.1904 -0.9507
  719MOL0     C94795   9.425   0.066   6.941 -0.0766 -0.1645  0.1466
  719MOL0     C94796   9.325  -0.021   7.008 -0.2658 -0.2351  0.9371
  719MOL0     C94797   9.358  -0.173   6.997 -0.0494 -1.7090  0.3754
  719MOL0     C94798   9.233  -0.247   7.062 -0.3699 -0.1442  0.1358
  719MOL0     C94799   9.243  -0.395   7.020  0.1357 -0.4929  0.2307
  719MOL0     O94800   9.174  -0.432   6.895  0.6067 -0.9758  0.2547
  719MOL0     C94801   9.147  -0.563   6.850  0.0499 -0.3206  0.1074
  719MOL0     C94802   9.227  -0.678   6.884  0.2819 -1.2772 -0.5267
  719MOL0     C94803   9.194  -0.800   6.832 -0.1949  0.1241  0.6087
  719MOL0     C94804   9.078  -0.820   6.765  0.3577  0.9523  0.1022
  719MOL0     C94805   9.031  -0.955   6.728  0.6125 -0.3345  0.4852
  719MOL0     O94806   9.134  -1.045   6.685  0.0997 -0.0080 -0.2169
  719MOL0     C94807   9.125  -1.176   6.670 -0.3651  1.2430  0.3383
  719MOL0     C94808   9.196  -1.235   6.573 -0.7457 -0.4145 -0.2971
  719MOL0     C94809   9.218  -1.376   6.567  0.6445  0.4867  0.2160
  719MOL0     C94810   9.158  -1.460   6.665 -0.0581 -0.9783 -0.2859
  719MOL0     O94811   9.178  -1.593   6.657 -2.0241  0.2085  0.4021
  719MOL0     C94812   9.070  -1.685   6.686  0.3002  0.4860  0.3442
  719MOL0     C94813   9.117  -1.819   6.645  0.2940  0.0844  0.1260
  719MOL0     C94814   9.176  -1.837   6.511  0.2520 -0.9531  0.0848
  719MOL0     C94815   9.209  -1.979   6.476 -0.0319  0.2072 -0.5627
  719MOL0     C94816   9.300  -2.002   6.352  0.0800 -0.6171  0.1944
  719MOL0     C94817   9.215  -1.980   6.228 -0.7014  0.5439 -0.4970
  719MOL0     C94818   9.292  -2.014   6.097 -0.6138  0.2708 -0.1475
  719MOL0     C94819   9.417  -1.936   6.054 -0.3529 -1.0210  0.0870
  719MOL0    Cl94820   9.352  -1.771   6.013 -0.3604  0.3770  0.4071
  719MOL0     C94821   9.063  -1.390   6.750 -0.3720  0.2168  0.3756
  719MOL0     C94822   9.050  -1.261   6.754 -0.6587 -0.7043  0.9629
  719MOL0     O94823   8.911  -0.978   6.731  0.5951  0.0947 -0.0840
  719MOL0     C94824   8.992  -0.706   6.728 -0.0175  1.3483  0.0351
  719MOL0     C94825   9.035  -0.584   6.775  0.3791 -0.4967  0.5630
  719MOL0     N94826   9.443   0.037   6.805 -0.2642  0.5061  0.2217
  719MOL0     N94827   9.529   0.115   6.753  0.2962 -0.1689  0.5879
  719MOL0     C94828  10.001   0.719   5.928  0.4845  0.9175 -0.4561
  719MOL0     C94829   9.990   0.687   5.792  1.4196  0.2290  0.3106
  719MOL0     C94830   9.774   0.507   5.410 -0.6583 -1.7517 -0.2314
  719MOL0     C94831   9.667   0.433   5.358 -0.1610  0.2864  0.3308
  719MOL0     C94832   9.639   0.425   5.217 -0.0351 -0.8939  0.6153
  719MOL0     C94833   9.721   0.491   5.122  0.2362 -0.0934 -0.1664
  719MOL0     O94834   9.719   0.482   4.991 -0.9161 -1.2035 -0.0735
  719MOL0     C94835   9.607   0.416   4.937 -0.0563  0.3675 -0.0995
  719MOL0     C94836   9.608   0.434   4.788 -0.6341  0.7110  1.0221
  719MOL0     C94837   9.513   0.330   4.719 -0.8121 -0.5840  0.2697
  719MOL0     C94838   9.526   0.336   4.565 -0.6151  0.4981  0.6584
  719MOL0     C94839   9.446   0.437   4.496 -0.5182  1.0457 -0.4280
  719MOL0     C94840   9.370   0.514   4.441 -0.6456  0.0901 -0.7799
  719MOL0     C94841   9.825   0.569   5.178 -0.3150  0.1288 -0.9221
  719MOL0     C94842   9.850   0.577   5.323 -0.4489  0.7245  0.7432
  719MOL0     H94843   9.903   0.374   5.793  1.7941  0.4894 -1.0183
  719MOL0     H94844   9.968   0.395   6.017 -1.0938  1.6853  1.3340
  719MOL0     H94845   9.958   0.449   6.226 -2.5644 -1.6100  5.9506
  719MOL0     H94846   9.856   0.575   6.218 -0.0606 -0.0498 -3.9402
  719MOL0     H94847  10.000   0.708   6.388 -1.2996 -1.3715 -0.2871
  719MOL0     H94848  10.094   0.561   6.403  1.0898  0.0970 -0.3304
  719MOL0     H94849   9.851   0.463   6.458 -0.3878  0.2990 -0.5802
  719MOL0     H94850   9.806   0.628   6.481  0.3535  0.9549  2.2535
  719MOL0     H94851  10.046   0.494   6.612  1.8611  2.1756  0.8235
  719MOL0     H94852   9.988   0.659   6.639 -0.7519 -0.6438 -0.4883
  719MOL0     H94853   9.773   0.577   6.708  1.2885  1.3274 -3.5567
  719MOL0     H94854   9.908   0.547   6.826  0.3518  0.0166 -0.4730
  719MOL0     H94855   9.962   0.337   6.794  0.5711  0.7534 -1.7999
  719MOL0     H94856   9.837   0.318   6.662 -1.3804 -2.1565  0.0585
  719MOL0     H94857   9.780   0.222   6.901  0.5547  0.4975  2.0453
  719MOL0     H94858   9.774   0.381   6.965 -1.2031 -2.3926  2.5202
  719MOL0     H94859   9.620   0.342   6.722  2.6055  1.2802 -0.2320
  719MOL0     H94860   9.570   0.418   6.881  2.1707 -0.5413  2.0365
  719MOL0     H94861   9.537   0.197   7.072 -0.0640 -0.5862 -0.2975
  719MOL0     H94862   9.226  -0.005   6.963 -0.4690 -2.2811  0.5296
  719MOL0     H94863   9.318   0.007   7.113  0.3875 -1.1292  1.2351
  719MOL0     H94864   9.458  -0.183   7.039  1.2034 -1.6613 -2.3959
  719MOL0     H94865   9.372  -0.202   6.893  3.1741 -1.6655  0.6903
  719MOL0     H94866   9.243  -0.238   7.170  0.8019 -1.6736  0.1999
  719MOL0     H94867   9.142  -0.197   7.027 -1.4546 -3.4851 -2.4603
  719MOL0     H94868   9.213  -0.447   7.111  2.1833 -1.4714  0.3992
  719MOL0     H94869   9.349  -0.424   7.017  0.3933  0.4880 -0.5870
  719MOL0     H94870   9.301  -0.662   6.962 -2.9340  0.1562  2.5152
  719MOL0     H94871   9.239  -0.894   6.860 -1.2312 -0.1548  1.4208
  719MOL0     H94872   9.247  -1.168   6.504 -3.6487  1.4362 -0.8356
  719MOL0     H94873   9.275  -1.410   6.481 -1.2174 -1.7256 -0.2290
  719MOL0     H94874   8.988  -1.646   6.625 -3.3490 -0.5770  4.0458
  719MOL0     H94875   9.031  -1.694   6.788 -0.0106  2.4693  0.4299
  719MOL0     H94876   9.034  -1.891   6.646  0.0307  0.3881  0.7247
  719MOL0     H94877   9.198  -1.845   6.713 -1.8833  0.8849  3.2401
  719MOL0     H94878   9.266  -1.776   6.497 -0.3531  0.8237  3.0309
  719MOL0     H94879   9.099  -1.790   6.449  1.8015  0.7504 -0.6451
  719MOL0     H94880   9.262  -2.022   6.562  1.1238 -1.8861 -2.2172
  719MOL0     H94881   9.113  -2.030   6.463  0.2946 -0.4756 -0.3556
  719MOL0     H94882   9.318  -2.110   6.348  0.2443 -0.7114  2.3879
  719MOL0     H94883   9.382  -1.930   6.358  0.8656 -1.4877  0.1545
  719MOL0     H94884   9.199  -1.872   6.224 -2.4867  0.2773 -2.0758
  719MOL0     H94885   9.121  -2.035   6.234 -2.1279  3.0262  2.4305
  719MOL0     H94886   9.319  -2.120   6.100 -0.9545  0.1773  3.3676
  719MOL0     H94887   9.222  -2.009   6.013  3.6086 -0.0588 -4.0860
  719MOL0     H94888   9.456  -1.976   5.960 -0.1319  1.4193 -0.9293
  719MOL0     H94889   9.491  -1.916   6.133 -1.2368  0.8625  0.4939
  719MOL0     H94890   8.990  -1.428   6.821 -0.0660  2.8445  2.2348
  719MOL0     H94891   8.973  -1.223   6.819 -0.9380  5.8879 -2.3468
  719MOL0     H94892   8.898  -0.720   6.676 -1.6315  3.8375  2.0209
  719MOL0     H94893   8.983  -0.490   6.757  2.2568  0.1817 -1.8503
  719MOL0     H94894  10.039   0.818   5.954  1.3435  1.1166 -2.2923
  719MOL0     H94895  10.006   0.769   5.723  3.0328 -1.2459 -1.1562
  719MOL0     H94896   9.607   0.365   5.418  0.4120 -0.5174  0.0125
  719MOL0     H94897   9.563   0.360   5.177  0.1910 -0.7445 -0.0665
  719MOL0     H94898   9.508   0.438   4.978 -1.7637 -3.2658 -1.7961
  719MOL0     H94899   9.621   0.308   4.950 -0.9743  0.0934 -1.2217
  719MOL0     H94900   9.572   0.536   4.771 -0.8308  0.9149  2.4844
  719MOL0     H94901   9.704   0.421   4.739 -0.8380  3.4976 -0.3203
  719MOL0     H94902   9.413   0.368   4.744  0.1020  1.7723  0.5596
  719MOL0     H94903   9.535   0.230   4.756  0.7956  0.1620  1.4437
  719MOL0     H94904   9.630   0.342   4.531 -1.3523  3.4187 -1.5132
  719MOL0     H94905   9.479   0.243   4.532 -1.9660  1.7490 -1.1195
  719MOL0     H94906   9.296   0.578   4.397 -0.8667  0.2317 -0.2072
  719MOL0     H94907   9.893   0.621   5.112  1.8088 -1.4337 -0.0834
  719MOL0     H94908   9.941   0.632   5.346  0.2732  0.5068 -1.4036
  720MOL0     O94909  11.098   3.125   4.485 -0.2323  0.0767 -0.4031
  720MOL0     C94910  11.095   3.242   4.455  0.2977  0.4546 -0.7199
  720MOL0     O94911  11.045   3.284   4.336 -0.4657 -0.5184  1.0752
  720MOL0     C94912  11.048   3.189   4.233  0.0347 -0.3086  1.0551
  720MOL0     C94913  10.931   3.155   4.162  0.1773 -0.6033 -0.4623
  720MOL0     C94914  10.935   3.068   4.056  0.0325  0.3953  0.1403
  720MOL0     C94915  11.049   2.997   4.015  0.2031 -1.3130  0.3642
  720MOL0     O94916  11.064   2.919   3.906  0.5421 -0.5293 -0.0610
  720MOL0     C94917  10.949   2.836   3.867 -0.1773 -1.0954 -0.3391
  720MOL0     C94918  11.005   2.707   3.812 -0.3833 -0.2326  0.9085
  720MOL0     C94919  11.105   2.734   3.696 -0.7443  0.9346  0.4279
  720MOL0     C94920  11.042   2.797   3.568  0.1517 -0.3214  0.1557
  720MOL0     C94921  10.911   2.721   3.514 -0.2496 -0.5134  0.5595
  720MOL0     C94922  10.936   2.576   3.474  0.4344 -0.4861  0.5280
  720MOL0     C94923  10.807   2.510   3.439 -0.8965  0.4695 -0.2854
  720MOL0     C94924  10.757   2.545   3.302  0.3242 -0.3595  0.4171
  720MOL0     N94925  10.674   2.666   3.289  0.2840  0.4823  0.0489
  720MOL0     C94926  10.573   2.718   3.371  0.5203 -0.0986  0.3152
  720MOL0     C94927  10.558   2.843   3.317 -0.3791  0.7137 -0.0824
  720MOL0     C94928  10.479   2.955   3.376  0.0573 -0.1424  0.0880
  720MOL0     C94929  10.336   2.913   3.355  0.3058 -0.2667 -0.3035
  720MOL0     C94930  10.243   2.967   3.461 -1.2160  0.3944  0.0810
  720MOL0     C94931  10.090   2.939   3.437 -0.0088  0.2005  0.4710
  720MOL0     O94932  10.045   3.031   3.338  0.1329 -0.1514  0.1419
  720MOL0     C94933   9.918   3.013   3.292 -1.2451 -0.0622  0.4925
  720MOL0     C94934   9.885   2.934   3.192  0.3838  0.4619  0.1700
  720MOL0     C94935   9.752   2.936   3.133 -0.9586 -0.0875  0.0550
  720MOL0     C94936   9.652   3.015   3.197  0.7895 -0.2369 -0.2337
  720MOL0     C94937   9.510   3.016   3.144  0.2289  0.5221  0.4840
  720MOL0     O94938   9.405   3.045   3.228 -0.1840 -0.1764 -0.4604
  720MOL0     C94939   9.274   3.018   3.197 -0.3555  0.0651 -0.0194
  720MOL0     C94940   9.215   2.962   3.088 -0.1413 -0.2538 -0.4159
  720MOL0     C94941   9.077   2.956   3.062  1.1302 -1.3253 -0.1615
  720MOL0     C94942   8.984   3.041   3.136 -0.5148  1.1103 -0.2367
  720MOL0     O94943   8.843   3.031   3.113 -0.4963  0.9274  0.7737
  720MOL0     C94944   8.785   2.988   3.005  1.4350  0.4579 -0.1793
  720MOL0     C94945   8.634   2.953   3.018  0.3086  0.1323  0.4370
  720MOL0     C94946   8.601   2.842   3.126  0.9294  0.0690  0.2571
  720MOL0     C94947   8.451   2.806   3.120  1.0085 -0.3494 -0.7141
  720MOL0     C94948   8.390   2.762   3.251  1.0217  0.6269 -0.2153
  720MOL0     C94949   8.363   2.887   3.346  0.5214  0.0460  0.1222
  720MOL0     C94950   8.221   2.946   3.320 -0.3390  0.4655  0.4505
  720MOL0     C94951   8.199   3.030   3.199 -0.1629  0.2842 -0.7716
  720MOL0    Cl94952   8.314   3.157   3.200  0.3606  0.2432 -0.3718
  720MOL0     C94953   9.045   3.112   3.244 -0.7356  0.2241 -0.0391
  720MOL0     C94954   9.181   3.083   3.280  0.5151 -0.3455  0.6120
  720MOL0     O94955   9.494   2.986   3.026 -0.0425  0.1715 -0.2279
  720MOL0     C94956   9.684   3.094   3.309  0.4321  0.3748 -0.0251
  720MOL0     C94957   9.819   3.099   3.339  1.2000 -0.1701  0.1617
  720MOL0     N94958  10.630   2.851   3.201  0.6322 -0.2418 -0.5955
  720MOL0     N94959  10.692   2.745   3.180 -0.4529 -0.2705  0.0275
  720MOL0     C94960  11.169   3.034   4.095 -0.6568 -0.2457  0.0553
  720MOL0     C94961  11.170   3.121   4.210 -0.7680  0.1768 -0.0169
  720MOL0     C94962  11.093   3.333   4.571 -0.6660  0.1775  0.3539
  720MOL0     C94963  11.205   3.346   4.665  0.4619 -0.3719  0.1413
  720MOL0     C94964  11.196   3.456   4.751  0.7167 -0.5873  0.5743
  720MOL0     C94965  11.087   3.552   4.752  0.0341  1.1072  0.7728
  720MOL0     O94966  11.084   3.649   4.840  0.5073  0.6159 -0.3216
  720MOL0     C94967  11.075   3.607   4.972  0.2345  1.2108  0.1622
  720MOL0     C94968  11.196   3.625   5.056 -0.0115  1.3413 -0.8524
  720MOL0     C94969  11.168   3.574   5.202  0.7916 -0.1392  0.6321
  720MOL0     C94970  11.145   3.689   5.295  0.2266 -0.0356 -0.0808
  720MOL0     C94971  11.132   3.647   5.435 -0.8379  0.2034  0.0912
  720MOL0     C94972  11.123   3.609   5.553 -0.1004  0.3149 -0.8145
  720MOL0     C94973  10.975   3.534   4.664  0.0943 -0.7732  0.0266
  720MOL0     C94974  10.984   3.432   4.572  0.1545  0.3645 -0.2089
  720MOL0     H94975  10.839   3.207   4.186  0.2022 -1.1157  0.8416
  720MOL0     H94976  10.850   3.049   3.991  0.4504 -0.2514 -0.2271
  720MOL0     H94977  10.884   2.881   3.792 -0.5348  2.9678  2.1347
  720MOL0     H94978  10.884   2.818   3.954 -0.7362  0.6362 -0.3630
  720MOL0     H94979  10.925   2.643   3.775  2.4038 -1.0256 -4.6684
  720MOL0     H94980  11.061   2.655   3.891 -0.7733 -0.1533  1.2433
  720MOL0     H94981  11.132   2.630   3.678  0.3023  0.9934  1.5106
  720MOL0     H94982  11.201   2.777   3.723 -1.0126  2.9099 -1.4879
  720MOL0     H94983  11.009   2.897   3.596  0.9254 -1.4430  6.6732
  720MOL0     H94984  11.115   2.799   3.486 -0.1603  4.2059 -0.2422
  720MOL0     H94985  10.889   2.772   3.420 -1.2919 -0.7493  0.6601
  720MOL0     H94986  10.827   2.750   3.578 -1.1882  0.8938 -1.2035
  720MOL0     H94987  10.970   2.521   3.562 -1.7619 -3.6737 -0.4372
  720MOL0     H94988  11.004   2.570   3.389 -0.6917 -2.2630 -0.3086
  720MOL0     H94989  10.838   2.406   3.429 -1.7233  0.2939 -1.1299
  720MOL0     H94990  10.730   2.515   3.516  0.3281  0.0232  1.0193
  720MOL0     H94991  10.707   2.455   3.265 -1.4753 -0.2596  2.3959
  720MOL0     H94992  10.841   2.558   3.233  2.3139 -2.1014  2.3423
  720MOL0     H94993  10.526   2.674   3.459 -0.2593 -1.1752 -0.6053
  720MOL0     H94994  10.504   3.040   3.311 -0.9560 -0.9502 -1.4064
  720MOL0     H94995  10.503   2.973   3.481 -4.4093 -0.7623  1.4044
  720MOL0     H94996  10.318   2.806   3.367 -2.6449 -0.0362 -1.8597
  720MOL0     H94997  10.301   2.939   3.255 -1.2193 -0.5975  0.1176
  720MOL0     H94998  10.273   2.922   3.557 -0.1052  1.1767  0.1149
  720MOL0     H94999  10.259   3.075   3.465  1.0861  0.0705  0.5947
  720MOL0     H95000  10.027   2.924   3.525  0.8253 -1.2053  0.8503
  720MOL0     H95001  10.095   2.838   3.396  0.1044  0.5658 -0.4388
  720MOL0     H95002   9.962   2.879   3.140  0.6452  1.2719 -0.3153
  720MOL0     H95003   9.740   2.874   3.045  0.9541 -1.0571  0.4226
  720MOL0     H95004   9.281   2.919   3.013  1.6268  0.2260  0.8192
  720MOL0     H95005   9.052   2.893   2.977  1.0154 -1.5912  0.0674
  720MOL0     H95006   8.818   2.888   2.974 -0.3399 -0.8351  1.8434
  720MOL0     H95007   8.785   3.057   2.919 -0.4609 -2.7758 -3.0508
  720MOL0     H95008   8.589   2.926   2.923  0.9794  2.4166 -0.5902
  720MOL0     H95009   8.582   3.042   3.054 -2.9438 -2.1986  2.0636
  720MOL0     H95010   8.634   2.882   3.223 -0.6527  0.6791  0.5759
  720MOL0     H95011   8.664   2.755   3.104  1.8811  0.8824 -0.2836
  720MOL0     H95012   8.393   2.895   3.093 -2.6451 -1.8675  1.3656
  720MOL0     H95013   8.435   2.729   3.044  1.5138 -1.9208  0.7084
  720MOL0     H95014   8.457   2.691   3.300  0.8002  0.3380 -0.3281
  720MOL0     H95015   8.297   2.708   3.232  2.3738 -1.0934 -2.5754
  720MOL0     H95016   8.439   2.964   3.330  0.7319 -0.1765  0.0549
  720MOL0     H95017   8.380   2.853   3.449  1.3624 -3.2335 -1.0058
  720MOL0     H95018   8.157   2.857   3.316  0.8250 -0.5133  2.1182
  720MOL0     H95019   8.188   3.006   3.405  2.5266  0.6829  1.5430
  720MOL0     H95020   8.101   3.077   3.196 -0.4069  0.0205  1.2846
  720MOL0     H95021   8.202   2.968   3.109  0.2446  0.7173 -1.0592
  720MOL0     H95022   8.976   3.161   3.312 -2.7417 -1.2309 -0.9216
  720MOL0     H95023   9.216   3.124   3.374  1.6992 -0.9225  0.4495
  720MOL0     H95024   9.625   3.157   3.376  3.4176  2.4692  0.8084
  720MOL0     H95025   9.868   3.164   3.410  2.2635  1.5281 -2.0336
  720MOL0     H95026  11.261   2.984   4.065  0.0023  1.1993 -0.4132
  720MOL0     H95027  11.263   3.140   4.262  0.2615 -0.8778 -1.4142
  720MOL0     H95028  11.294   3.284   4.662  0.3747 -0.4789 -0.6127
  720MOL0     H95029  11.269   3.479   4.828  0.1122 -0.0700  1.0086
  720MOL0     H95030  11.037   3.505   4.982 -0.8251  1.4824 -0.8982
  720MOL0     H95031  10.991   3.666   5.011 -0.7349  0.6617 -1.0172
  720MOL0     H95032  11.280   3.587   4.997  0.2617 -1.2597  1.0086
  720MOL0     H95033  11.225   3.729   5.075 -0.8216  1.2556  1.1778
  720MOL0     H95034  11.257   3.520   5.234  0.5555  0.6454  2.7888
  720MOL0     H95035  11.085   3.505   5.216  1.0704 -0.2729  1.6941
  720MOL0     H95036  11.228   3.759   5.284  0.1278  0.6386  2.7909
  720MOL0     H95037  11.052   3.737   5.262 -0.7443 -0.4841  1.8600
  720MOL0     H95038  11.098   3.561   5.646  0.5519  2.4811  0.5551
  720MOL0     H95039  10.894   3.606   4.662 -1.5287 -2.4697 -2.5086
  720MOL0     H95040  10.912   3.433   4.491 -0.1455  1.5962  0.0669
  721MOL0     O95041   6.763   5.631   5.600  0.0729 -0.3092  0.1724
  721MOL0     C95042   6.707   5.740   5.617  0.2212  0.5039 -0.4009
  721MOL0     O95043   6.572   5.755   5.634 -0.2137 -0.2146  0.1338
  721MOL0     C95044   6.487   5.652   5.667 -0.6044  0.0064 -0.6433
  721MOL0     C95045   6.524   5.561   5.766 -1.0001 -0.3839  0.7816
  721MOL0     C95046   6.429   5.465   5.795 -0.5467 -0.8455  0.4052
  721MOL0     C95047   6.309   5.450   5.725  0.7207  0.0878 -0.8416
  721MOL0     O95048   6.242   5.334   5.742 -0.0713  0.1735  0.2939
  721MOL0     C95049   6.109   5.321   5.687 -0.5476 -0.1103 -0.2350
  721MOL0     C95050   6.037   5.193   5.747  0.6199 -0.1855  0.1376
  721MOL0     C95051   5.934   5.243   5.859  0.4346  0.6432  0.0773
  721MOL0     C95052   5.868   5.120   5.931 -0.7624 -0.4108  0.5504
  721MOL0     C95053   5.769   5.148   6.034  0.6507 -0.5243  0.1017
  721MOL0     C95054   5.634   5.207   5.971  0.8764  0.5547 -0.1521
  721MOL0     C95055   5.536   5.245   6.085  0.4907  0.1716  0.3360
  721MOL0     C95056   5.396   5.299   6.023 -0.3128 -0.1232 -1.1181
  721MOL0     N95057   5.275   5.297   6.102 -0.2818 -0.3374 -0.2880
  721MOL0     C95058   5.217   5.391   6.183  0.0371  0.0066  0.2370
  721MOL0     C95059   5.103   5.325   6.230  1.0210 -0.2233 -0.4419
  721MOL0     C95060   5.011   5.370   6.349  0.3263 -0.1860  0.0744
  721MOL0     C95061   4.897   5.451   6.290  0.0499  0.1197 -1.0098
  721MOL0     C95062   4.934   5.579   6.218 -0.3562  0.6353 -0.2767
  721MOL0     C95063   4.921   5.707   6.300  0.5547 -0.1720  0.5411
  721MOL0     O95064   4.786   5.737   6.328 -0.5071 -0.7482 -0.8348
  721MOL0     C95065   4.757   5.843   6.412 -0.9093 -0.8772 -0.0940
  721MOL0     C95066   4.627   5.852   6.448 -0.0829 -0.0403 -0.0987
  721MOL0     C95067   4.575   5.958   6.532  0.9114 -0.1125 -0.6635
  721MOL0     C95068   4.660   6.056   6.579  0.6891 -0.1961  0.3180
  721MOL0     C95069   4.613   6.157   6.666  0.3952 -0.8992  0.1658
  721MOL0     O95070   4.675   6.281   6.666  0.0983 -0.2062 -1.4473
  721MOL0     C95071   4.638   6.359   6.772  0.1209 -0.0458 -0.8755
  721MOL0     C95072   4.686   6.320   6.900  1.0773 -0.6540 -0.6628
  721MOL0     C95073   4.651   6.413   7.010 -0.5087 -0.1387  0.1699
  721MOL0     C95074   4.578   6.531   6.981 -0.1947 -0.2055  0.0475
  721MOL0     O95075   4.543   6.624   7.072  0.3130  1.3196 -0.5425
  721MOL0     C95076   4.479   6.547   7.176  0.3328  0.6156 -0.1986
  721MOL0     C95077   4.358   6.614   7.221  0.1451 -0.0441 -0.7527
  721MOL0     C95078   4.299   6.550   7.351 -0.1825  0.6903  0.1997
  721MOL0     C95079   4.187   6.653   7.399  0.8944  0.0953  0.7589
  721MOL0     C95080   4.124   6.621   7.538 -0.2287 -1.2196 -0.4397
  721MOL0     C95081   4.065   6.485   7.542  0.2328 -0.4132  0.2468
  721MOL0     C95082   3.957   6.467   7.652 -0.7323 -0.3879 -0.3540
  721MOL0     C95083   3.895   6.315   7.646 -0.3226  0.2429  0.3058
  721MOL0    Cl95084   3.774   6.301   7.772  0.5045  0.0429  0.4387
  721MOL0     C95085   4.534   6.562   6.855  1.3150 -0.1472  0.2438
  721MOL0     C95086   4.560   6.472   6.753  0.0440 -0.2794  0.2757
  721MOL0     O95087   4.515   6.131   6.738 -0.9006 -1.3374 -0.7716
  721MOL0     C95088   4.793   6.055   6.538 -1.1151 -0.2006 -0.4265
  721MOL0     C95089   4.845   5.948   6.453  0.1997 -0.6612 -0.3889
  721MOL0     N95090   5.085   5.208   6.151  0.3691 -0.1762  0.7511
  721MOL0     N95091   5.184   5.196   6.078 -0.7800 -0.0338  0.2998
  721MOL0     C95092   6.276   5.537   5.623 -0.3897  0.1624  0.4437
  721MOL0     C95093   6.364   5.645   5.600  0.1520  1.6928 -0.6636
  721MOL0     C95094   6.788   5.862   5.606 -1.7860  0.7023 -0.1995
  721MOL0     C95095   6.724   5.987   5.640 -0.1677  1.0719  0.3019
  721MOL0     C95096   6.795   6.117   5.631 -0.8858  0.2659 -1.4646
  721MOL0     C95097   6.938   6.121   5.619  0.5249 -0.0637  0.3659
  721MOL0     O95098   7.019   6.233   5.607 -0.2789  0.6600  0.2990
  721MOL0     C95099   6.985   6.334   5.710 -0.1437 -0.3251 -0.0250
  721MOL0     C95100   6.897   6.447   5.670 -0.9905  0.1284  0.8423
  721MOL0     C95101   6.986   6.547   5.594 -0.2003 -0.2889  0.1871
  721MOL0     C95102   6.926   6.686   5.571 -0.3251  0.5599 -0.1519
  721MOL0     C95103   6.923   6.777   5.684 -0.0698 -0.2732  0.8241
  721MOL0     C95104   6.914   6.874   5.758  0.3503 -0.5395  0.1544
  721MOL0     C95105   6.995   5.998   5.569 -0.1064 -1.5691 -0.2443
  721MOL0     C95106   6.934   5.873   5.569 -0.4692 -0.4203  0.0281
  721MOL0     H95107   6.620   5.570   5.817 -0.1011  1.2188 -1.0653
  721MOL0     H95108   6.459   5.398   5.875  2.0917 -0.1354  0.0999
  721MOL0     H95109   6.125   5.301   5.581  4.1019  3.3721 -0.5291
  721MOL0     H95110   6.055   5.414   5.704  3.2610  2.5826 -1.5847
  721MOL0     H95111   6.100   5.114   5.789  0.7121 -2.3386 -3.6080
  721MOL0     H95112   5.979   5.149   5.665  2.1626  0.9346 -1.6409
  721MOL0     H95113   5.861   5.308   5.811  0.9787  0.6405 -0.8035
  721MOL0     H95114   5.985   5.299   5.937  0.2644 -3.1271  3.2177
  721MOL0     H95115   5.811   5.053   5.866  0.4511 -0.2140 -0.7656
  721MOL0     H95116   5.952   5.060   5.966 -0.2553  0.7838  1.4555
  721MOL0     H95117   5.805   5.217   6.111  2.2298  0.8954 -1.7759
  721MOL0     H95118   5.741   5.057   6.087  0.1604  0.8423  2.3083
  721MOL0     H95119   5.587   5.125   5.915  3.7249 -2.5725  1.6281
  721MOL0     H95120   5.649   5.290   5.902 -2.9216  0.1229 -1.7397
  721MOL0     H95121   5.501   5.157   6.140 -3.6679  1.3487 -0.0768
  721MOL0     H95122   5.571   5.323   6.154  0.3147 -0.1079  0.7447
  721MOL0     H95123   5.384   5.226   5.943  0.2925  0.1881 -1.5024
  721MOL0     H95124   5.401   5.401   5.984 -3.0981  0.8353  0.6791
  721MOL0     H95125   5.251   5.489   6.217  2.2554 -1.4164  2.3846
  721MOL0     H95126   5.062   5.437   6.419 -2.0549  0.6506  1.1147
  721MOL0     H95127   4.977   5.279   6.398  0.6072 -0.7435 -0.7340
  721MOL0     H95128   4.820   5.468   6.366  0.2723  0.9704 -0.9717
  721MOL0     H95129   4.850   5.394   6.209  1.1847  0.5978 -2.0324
  721MOL0     H95130   5.033   5.571   6.171 -0.6971 -1.5765 -0.7135
  721MOL0     H95131   4.868   5.577   6.131  2.0390 -4.8449 -2.4441
  721MOL0     H95132   4.962   5.793   6.245 -0.4933 -0.4870 -0.7890
  721MOL0     H95133   4.973   5.689   6.394 -0.5090  3.2330  1.9368
  721MOL0     H95134   4.562   5.776   6.404 -1.4973  0.4023  1.1582
  721MOL0     H95135   4.474   5.958   6.572  1.5215 -0.6548  0.9702
  721MOL0     H95136   4.748   6.233   6.920  5.9887  2.3939 -1.0752
  721MOL0     H95137   4.701   6.385   7.101 -1.5910  3.2710  1.9532
  721MOL0     H95138   4.551   6.546   7.258  4.0521  0.5335 -3.1819
  721MOL0     H95139   4.448   6.446   7.146 -3.6583  1.6451 -0.1353
  721MOL0     H95140   4.286   6.609   7.139  1.6288  3.0926 -2.4434
  721MOL0     H95141   4.381   6.719   7.240  0.6871  0.5144 -3.9446
  721MOL0     H95142   4.378   6.533   7.425 -0.0462 -3.5884 -0.7134
  721MOL0     H95143   4.273   6.449   7.319 -0.9550  1.0215 -0.2698
  721MOL0     H95144   4.234   6.752   7.400  0.1348  0.5653 -1.9617
  721MOL0     H95145   4.100   6.648   7.334  0.1613 -0.8355  1.7695
  721MOL0     H95146   4.058   6.704   7.568  2.2031  0.4834  0.5650
  721MOL0     H95147   4.202   6.628   7.614  0.5375 -1.2251 -1.2111
  721MOL0     H95148   4.147   6.414   7.556 -1.6990 -2.9622 -0.6852
  721MOL0     H95149   4.005   6.469   7.452  1.4801 -4.0977 -0.1121
  721MOL0     H95150   3.998   6.495   7.749 -1.1856 -0.7586 -0.0486
  721MOL0     H95151   3.879   6.540   7.626  2.7206  3.3632 -1.1383
  721MOL0     H95152   3.974   6.242   7.668 -1.5963 -1.1432  0.4769
  721MOL0     H95153   3.854   6.295   7.546  2.8129  2.8762 -1.6841
  721MOL0     H95154   4.472   6.650   6.845  1.3720 -0.2475 -1.2128
  721MOL0     H95155   4.531   6.498   6.652  0.9890  3.9252  0.9292
  721MOL0     H95156   4.864   6.136   6.551  1.0006 -1.7651 -1.6527
  721MOL0     H95157   4.945   5.970   6.416 -0.1595  1.4721 -0.2441
  721MOL0     H95158   6.187   5.527   5.562  0.9954  0.0593 -1.6261
  721MOL0     H95159   6.343   5.713   5.518  0.9990 -0.8602 -3.1160
  721MOL0     H95160   6.626   5.995   5.686 -0.0926 -2.0007  1.2523
  721MOL0     H95161   6.749   6.213   5.653 -0.3072 -0.0442  1.4707
  721MOL0     H95162   7.081   6.369   5.750 -0.0585  1.1840 -1.4359
  721MOL0     H95163   6.921   6.293   5.788 -0.6942 -1.5024 -1.0605
  721MOL0     H95164   6.815   6.413   5.606 -0.6014  0.5306  0.1189
  721MOL0     H95165   6.869   6.504   5.759  0.4537 -1.0355  2.0996
  721MOL0     H95166   6.986   6.495   5.497 -2.0129 -2.6274  1.3329
  721MOL0     H95167   7.087   6.547   5.637 -0.7430  2.0006  1.6247
  721MOL0     H95168   6.980   6.723   5.484  1.6243 -0.7902  0.4292
  721MOL0     H95169   6.821   6.679   5.541  0.2537  1.0658 -2.5237
  721MOL0     H95170   6.898   6.955   5.827 -2.8471 -0.1987 -0.8221
  721MOL0     H95171   7.092   6.013   5.522  1.2989 -3.5243  1.8101
  721MOL0     H95172   6.990   5.785   5.538  2.1167  1.4783 -1.0530
  722MOL0     O95173   2.208   9.142   8.626  0.3819 -0.3504 -0.4593
  722MOL0     C95174   2.279   9.176   8.531  0.1830 -0.0473  1.5315
  722MOL0     O95175   2.379   9.269   8.533 -0.0611  0.5659 -0.5125
  722MOL0     C95176   2.435   9.315   8.643 -0.0434 -0.6312 -0.5961
  722MOL0     C95177   2.481   9.444   8.635  0.0396 -0.1260  0.0875
  722MOL0     C95178   2.557   9.492   8.742  0.1550  0.3854 -0.1171
  722MOL0     C95179   2.588   9.417   8.857  0.1588  0.8513 -0.7650
  722MOL0     O95180   2.660   9.470   8.960 -0.9830  0.5095 -0.0957
  722MOL0     C95181   2.711   9.384   9.073  1.2951 -0.9344 -0.8920
  722MOL0     C95182   2.812   9.471   9.139  0.2434 -0.2805 -1.4838
  722MOL0     C95183   2.840   9.410   9.282  0.1600  0.8292 -0.0773
  722MOL0     C95184   2.901   9.516   9.364 -1.1273 -0.5739  0.9198
  722MOL0     C95185   2.807   9.596   9.451  0.1750  0.2388  0.2080
  722MOL0     C95186   2.878   9.712   9.529 -0.0702 -0.9162 -1.2984
  722MOL0     C95187   2.771   9.756   9.626  0.1635  0.4025 -0.8156
  722MOL0     C95188   2.734   9.664   9.738 -0.2379  1.1499 -0.5343
  722MOL0     N95189   2.622   9.733   9.799 -0.1835  0.5965 -1.0539
  722MOL0     C95190   2.620   9.852   9.866 -0.1393 -0.0901  0.4221
  722MOL0     C95191   2.486   9.882   9.886 -0.0415 -0.5194  0.1749
  722MOL0     C95192   2.436  10.009   9.942 -0.7598  0.1382  0.6419
  722MOL0     C95193   2.293  10.005   9.986  0.1262 -0.2201  0.5517
  722MOL0     C95194   2.230  10.145  10.005  0.5987 -0.5711 -0.1360
  722MOL0     C95195   2.078  10.130   9.995  0.0625  0.3619  0.4551
  722MOL0     O95196   2.011  10.067  10.106  0.4899 -0.3311 -0.1111
  722MOL0     C95197   1.871  10.055  10.100  0.1927 -0.8210  0.2445
  722MOL0     C95198   1.793  10.076   9.984 -0.5592 -0.2227 -0.3106
  722MOL0     C95199   1.657  10.052   9.990 -0.2311  0.3290  0.4036
  722MOL0     C95200   1.593  10.005  10.109 -0.5610  0.3148  0.1831
  722MOL0     C95201   1.440   9.985  10.118 -0.3804 -0.0516  0.4839
  722MOL0     O95202   1.380   9.965  10.242  0.3405 -0.4546 -0.2904
  722MOL0     C95203   1.244   9.990  10.255  0.1817 -0.5801  0.8510
  722MOL0     C95204   1.087  10.003  10.103 -0.0046  0.1294  0.8321
  722MOL0     C95205   0.887  10.026  10.164 -0.0593 -0.2596  1.4358
  722MOL0     C95206   0.839  10.037  10.366  0.1761  0.3915 -0.2176
  722MOL0     O95207   0.706  10.052  10.389  0.2433  0.2620 -0.8438
  722MOL0     C95208   0.645  10.068  10.515  0.5843  0.3393 -0.3062
  722MOL0     C95209   0.538  10.170  10.506  0.5032  0.1545 -0.7497
  722MOL0     C95210   0.429  10.112  10.416 -0.8023  0.2541 -0.0526
  722MOL0     C95211   0.320  10.218  10.373 -0.1299  0.1094 -0.3332
  722MOL0     C95212   0.254  10.296  10.486  0.0175 -0.2712  1.2103
  722MOL0     C95213   0.179  10.203  10.585 -0.1709  0.7878 -0.2835
  722MOL0     C95214   0.127  10.286  10.704  0.7437 -0.3284 -0.2148
  722MOL0     C95215   0.029  10.195  10.780  0.4007 -0.1775  0.4522
  722MOL0    Cl95216  -0.041  10.299  10.907 -0.2138 -0.3933 -0.3230
  722MOL0     C95217   0.990  10.020  10.511  0.5947  0.9225 -0.1442
  722MOL0     C95218   1.188   9.999  10.454  0.2210 -0.5405 -0.4729
  722MOL0     O95219   1.378   9.983  10.008  0.4959  0.2814  0.0608
  722MOL0     C95220   1.669   9.993  10.225  0.8855 -0.2903 -0.5314
  722MOL0     C95221   1.810  10.013  10.216  0.4449  0.1264  0.2264
  722MOL0     N95222   2.407   9.780   9.824  0.2301  0.5023 -0.0200
  722MOL0     N95223   2.491   9.691   9.781  0.5125 -0.5068 -0.3353
  722MOL0     C95224   2.540   9.283   8.858  0.7438 -0.8408  0.3232
  722MOL0     C95225   2.460   9.236   8.753 -1.2279  0.2369 -0.1594
  722MOL0     C95226   2.236   9.128   8.399  0.2591 -0.7652 -0.1350
  722MOL0     C95227   2.290   9.189   8.287 -0.5454 -0.0448 -0.2568
  722MOL0     C95228   2.255   9.147   8.158  0.2433  0.4076 -0.2865
  722MOL0     C95229   2.154   9.062   8.142 -0.0923 -0.3625 -0.2308
  722MOL0     O95230   2.117   9.047   8.010  0.2195 -0.0238 -0.5223
  722MOL0     C95231   1.997   8.974   7.980  0.3449 -0.3347 -0.0538
  722MOL0     C95232   1.977   8.971   7.830  0.0114 -0.0095  0.1512
  722MOL0     C95233   1.946   9.107   7.771  0.0057 -0.8106  0.2438
  722MOL0     C95234   1.911   9.098   7.622  0.6433 -0.1866  0.9209
  722MOL0     C95235   2.029   9.060   7.545  0.7779 -0.2119  0.0545
  722MOL0     C95236   2.118   9.037   7.466  0.0195  0.5621 -0.2560
  722MOL0     C95237   2.098   8.992   8.254  0.9275  0.5366  0.9350
  722MOL0     C95238   2.138   9.029   8.384  0.1841 -0.1015 -0.4886
  722MOL0     H95239   2.469   9.504   8.546 -1.0216 -1.6740 -0.8392
  722MOL0     H95240   2.605   9.589   8.734  0.4985  0.5021  2.4728
  722MOL0     H95241   2.758   9.293   9.036  1.4896 -0.7164 -1.1845
  722MOL0     H95242   2.631   9.359   9.143  1.4853 -1.6724 -0.9370
  722MOL0     H95243   2.782   9.576   9.143  0.2390 -0.3242  0.2759
  722MOL0     H95244   2.902   9.468   9.077  3.7358 -2.1368  3.1430
  722MOL0     H95245   2.899   9.319   9.271 -0.4724  0.1395  1.8480
  722MOL0     H95246   2.746   9.377   9.327  1.2008  0.9795  2.3876
  722MOL0     H95247   2.983   9.487   9.430  1.5177  1.6839 -1.1189
  722MOL0     H95248   2.951   9.575   9.287 -0.9958 -3.0641 -1.0692
  722MOL0     H95249   2.758   9.517   9.509 -1.0506  1.1106  0.4049
  722MOL0     H95250   2.722   9.634   9.394  0.6451  0.4307 -0.3672
  722MOL0     H95251   2.901   9.790   9.457  3.2337 -0.0065  0.5307
  722MOL0     H95252   2.959   9.675   9.593 -0.8365 -0.5384 -0.0695
  722MOL0     H95253   2.827   9.837   9.674 -1.1500  0.7049  0.2872
  722MOL0     H95254   2.681   9.788   9.572 -1.3013  0.1676  1.3619
  722MOL0     H95255   2.816   9.661   9.810 -2.8006  0.5240  2.6332
  722MOL0     H95256   2.726   9.557   9.714 -2.2371  0.7754  1.4266
  722MOL0     H95257   2.717   9.894   9.892  1.7501 -3.3106 -0.8750
  722MOL0     H95258   2.437  10.074   9.854  1.7970 -1.0168 -0.2652
  722MOL0     H95259   2.495  10.041  10.028 -0.2780  1.7230 -0.2312
  722MOL0     H95260   2.264   9.945  10.073 -2.2744  0.3640  0.2285
  722MOL0     H95261   2.248   9.960   9.897  0.0764 -0.9563  0.9413
  722MOL0     H95262   2.261  10.189  10.100  3.6384 -0.5710 -1.0230
  722MOL0     H95263   2.255  10.201   9.915 -1.4593  1.7838  0.6701
  722MOL0     H95264   2.050  10.084   9.900 -2.6988 -1.3133  1.9660
  722MOL0     H95265   2.034  10.230   9.995 -0.0407  0.3416  2.3370
  722MOL0     H95266   1.833  10.092   9.885  0.8555 -0.4558  0.2014
  722MOL0     H95267   1.607  10.061   9.894  1.9541  0.4661 -0.7734
  722MOL0     H95268   1.123   9.994  10.001  1.5477 -1.3942  1.4688
  722MOL0     H95269   0.811  10.055  10.092  1.1345  2.0897  1.0408
  722MOL0     H95270   0.720  10.092  10.592  0.3418 -1.9424  0.7027
  722MOL0     H95271   0.612   9.968  10.544 -1.5577  0.9506 -0.4643
  722MOL0     H95272   0.573  10.257  10.449 -0.4595  0.6592 -0.5902
  722MOL0     H95273   0.497  10.201  10.602  0.1007  1.3799 -1.2933
  722MOL0     H95274   0.377  10.034  10.471 -0.4492 -1.4847 -2.0508
  722MOL0     H95275   0.482  10.090  10.323 -0.0403  2.2894 -0.1699
  722MOL0     H95276   0.374  10.290  10.312  2.4044 -1.5248 -0.1581
  722MOL0     H95277   0.235  10.166  10.326 -0.7012  0.0884  0.6813
  722MOL0     H95278   0.190  10.372  10.440  1.4933 -0.2301 -0.9026
  722MOL0     H95279   0.324  10.352  10.549  1.6889  0.2013 -0.9508
  722MOL0     H95280   0.237  10.120  10.628 -0.7587  0.3290 -0.3650
  722MOL0     H95281   0.104  10.164  10.515 -1.0147 -0.6059  1.3312
  722MOL0     H95282   0.203  10.318  10.776 -0.1104 -1.9308  1.4819
  722MOL0     H95283   0.077  10.376  10.668  2.4111 -0.2421 -2.4859
  722MOL0     H95284   0.073  10.101  10.815  2.1204  0.2712 -0.3764
  722MOL0     H95285  -0.045  10.166  10.705 -0.3393 -3.8254  2.3295
  722MOL0     H95286   0.950  10.029  10.612 -2.2281 -1.7542 -0.8824
  722MOL0     H95287   1.270   9.999  10.525  1.3449 -1.1337 -1.7383
  722MOL0     H95288   1.619   9.953  10.313  0.6683  1.5288  0.2101
  722MOL0     H95289   1.870  10.002  10.305  0.2377  2.4312  0.7270
  722MOL0     H95290   2.560   9.229   8.950  1.2545  2.0619  2.0527
  722MOL0     H95291   2.435   9.131   8.754  2.3740 -0.7783  2.5825
  722MOL0     H95292   2.375   9.255   8.296 -0.9692  0.3873  0.6946
  722MOL0     H95293   2.295   9.204   8.075 -0.3142  0.4371 -0.5411
  722MOL0     H95294   1.917   9.026   8.034 -0.4728 -0.0059 -1.5510
  722MOL0     H95295   2.016   8.872   8.014 -0.2173 -0.4161  0.0194
  722MOL0     H95296   2.072   8.936   7.790  0.0746 -1.0043  1.1177
  722MOL0     H95297   1.896   8.901   7.807 -0.6657  0.6336  0.5221
  722MOL0     H95298   2.024   9.180   7.794 -2.2481  1.3255  1.5700
  722MOL0     H95299   1.861   9.148   7.826 -0.0438 -0.4275 -0.1163
  722MOL0     H95300   1.831   9.024   7.610  0.6784 -1.0446  4.6595
  722MOL0     H95301   1.871   9.196   7.594 -0.6623 -0.9555 -0.0006
  722MOL0     H95302   2.192   8.997   7.399 -2.1759 -2.7509 -0.9685
  722MOL0     H95303   2.041   8.909   8.212  2.4877  0.4795 -1.2665
  722MOL0     H95304   2.103   8.984   8.476  1.0089  1.8927  0.8757
  723MOL0     O95305   2.905   3.674   3.890 -0.1190  0.1896 -0.1124
  723MOL0     C95306   2.906   3.726   3.779  0.3272  0.6124 -0.0160
  723MOL0     O95307   2.851   3.671   3.663  0.0986 -0.2541  0.4991
  723MOL0     C95308   2.780   3.542   3.662 -0.9566  0.0284  0.3034
  723MOL0     C95309   2.679   3.523   3.564  0.3961 -0.5305  0.5888
  723MOL0     C95310   2.611   3.397   3.556 -0.5956  0.2130  0.6633
  723MOL0     C95311   2.638   3.289   3.643  0.7002 -0.3276 -0.3826
  723MOL0     O95312   2.570   3.169   3.649  0.0310 -0.6566  0.3337
  723MOL0     C95313   2.456   3.142   3.571  0.1967 -0.1966  1.2946
  723MOL0     C95314   2.364   3.039   3.642 -0.5226  0.1190 -0.8330
  723MOL0     C95315   2.223   3.048   3.582 -0.0188 -1.2665  0.4296
  723MOL0     C95316   2.122   2.947   3.636 -0.4417 -0.0225  0.2173
  723MOL0     C95317   2.027   2.907   3.524 -0.4308  0.9039 -0.2525
  723MOL0     C95318   1.945   3.017   3.458 -0.0414 -0.2197  0.4351
  723MOL0     C95319   1.864   2.975   3.332  0.0503  0.0487 -0.5116
  723MOL0     C95320   1.794   3.097   3.269  0.9772  0.3794  0.6598
  723MOL0     N95321   1.705   3.048   3.161  0.0638 -0.2663 -1.0742
  723MOL0     C95322   1.594   2.966   3.181 -0.7388  1.1703 -0.5043
  723MOL0     C95323   1.547   2.947   3.058 -0.4477 -0.6018  1.0669
  723MOL0     C95324   1.426   2.867   3.006 -0.4456  0.1636  0.6587
  723MOL0     C95325   1.373   2.927   2.872 -0.0646  0.7879  0.0823
  723MOL0     C95326   1.273   2.825   2.804  0.8042 -0.3678 -0.0999
  723MOL0     C95327   1.345   2.700   2.751  0.1918 -0.7528  1.4112
  723MOL0     O95328   1.235   2.623   2.716  0.2317 -0.2837 -0.0005
  723MOL0     C95329   1.254   2.550   2.606 -0.0602  0.2075  0.2138
  723MOL0     C95330   1.147   2.463   2.582 -0.7606 -0.2347  1.0519
  723MOL0     C95331   1.149   2.377   2.471  0.4729 -0.0120  0.2460
  723MOL0     C95332   1.260   2.359   2.384 -0.0730 -0.1181 -0.2397
  723MOL0     C95333   1.264   2.252   2.279  0.9031  0.3127  0.1145
  723MOL0     O95334   1.351   2.272   2.180 -0.4496  0.0511  0.6335
  723MOL0     C95335   1.373   2.172   2.090  0.3142 -0.1558 -0.1733
  723MOL0     C95336   1.348   2.207   1.964  0.0709 -0.5360 -0.0436
  723MOL0     C95337   1.370   2.114   1.860 -0.1589  0.3030  0.1344
  723MOL0     C95338   1.411   1.984   1.885 -0.2211  0.8473 -0.2823
  723MOL0     O95339   1.421   1.901   1.773 -1.2452  0.1298  0.3850
  723MOL0     C95340   1.391   1.764   1.789 -1.4301  0.1475  0.3922
  723MOL0     C95341   1.366   1.714   1.650 -0.0210 -0.1637 -0.5387
  723MOL0     C95342   1.480   1.736   1.549  0.5882 -0.1251 -0.3353
  723MOL0     C95343   1.434   1.674   1.419 -0.7959 -0.4272  0.0097
  723MOL0     C95344   1.540   1.663   1.303  0.4360 -0.0008  0.3001
  723MOL0     C95345   1.601   1.789   1.270  0.1231  0.2246 -0.7788
  723MOL0     C95346   1.720   1.778   1.174 -0.3125 -0.3383 -0.0303
  723MOL0     C95347   1.727   1.920   1.106 -0.3540 -0.4692 -0.4661
  723MOL0    Cl95348   1.838   1.916   0.974  0.1948  0.1802 -0.0437
  723MOL0     C95349   1.435   1.947   2.020 -1.1056 -0.0054 -0.2301
  723MOL0     C95350   1.418   2.037   2.122 -0.0460  0.4406 -0.2018
  723MOL0     O95351   1.191   2.152   2.299 -0.5614 -0.0617 -0.4669
  723MOL0     C95352   1.378   2.431   2.428  0.2104 -0.5493  1.1045
  723MOL0     C95353   1.374   2.517   2.533 -0.8661 -0.2069  0.3914
  723MOL0     N95354   1.631   3.015   2.980 -0.7214  0.8989  1.0640
  723MOL0     N95355   1.733   3.071   3.035 -0.5841  0.3601  0.1913
  723MOL0     C95356   2.738   3.303   3.742  1.1639  0.2451 -0.4538
  723MOL0     C95357   2.808   3.430   3.747 -0.7311  1.2380 -0.8134
  723MOL0     C95358   2.991   3.841   3.767  0.3377 -0.3236  0.1027
  723MOL0     C95359   3.011   3.913   3.646  2.2188 -0.8351 -0.5062
  723MOL0     C95360   3.101   4.011   3.626 -1.2572  0.3900 -0.4469
  723MOL0     C95361   3.186   4.057   3.726  0.3414 -0.3104 -0.6015
  723MOL0     O95362   3.281   4.160   3.694 -0.1938 -0.0222  0.5862
  723MOL0     C95363   3.379   4.177   3.797  1.0389 -0.3667  0.7624
  723MOL0     C95364   3.516   4.197   3.736 -0.3660 -0.0653 -1.3325
  723MOL0     C95365   3.531   4.299   3.628  0.8398 -0.1028  0.2855
  723MOL0     C95366   3.661   4.311   3.568 -0.1542  0.0307  1.3154
  723MOL0     C95367   3.688   4.209   3.461 -0.8330 -0.4477  0.6412
  723MOL0     C95368   3.729   4.121   3.381 -0.6017 -0.5680 -0.5195
  723MOL0     C95369   3.150   4.011   3.860 -0.0106 -1.2065 -0.2021
  723MOL0     C95370   3.060   3.898   3.879  0.1572  0.3960 -0.2990
  723MOL0     H95371   2.645   3.606   3.503 -1.4579 -1.9857 -0.4399
  723MOL0     H95372   2.542   3.391   3.473  1.6953 -4.1481 -1.2535
  723MOL0     H95373   2.485   3.093   3.478 -1.2000 -2.3077  1.9144
  723MOL0     H95374   2.391   3.220   3.532 -0.3154 -1.6791 -0.9827
  723MOL0     H95375   2.360   3.054   3.751 -0.5064  0.3616 -0.8644
  723MOL0     H95376   2.406   2.941   3.619 -0.6257  0.8486 -4.8125
  723MOL0     H95377   2.247   3.033   3.476  2.9563  2.2275  0.3823
  723MOL0     H95378   2.187   3.152   3.586  1.1758 -0.8632  1.3146
  723MOL0     H95379   2.166   2.852   3.669 -0.2388 -0.2608 -0.7055
  723MOL0     H95380   2.073   2.992   3.723 -0.3259 -1.3116  0.9696
  723MOL0     H95381   1.953   2.834   3.558 -1.5958 -0.0355 -4.2694
  723MOL0     H95382   2.089   2.858   3.448 -0.5669 -0.6587  0.5914
  723MOL0     H95383   2.015   3.099   3.437  3.0363 -3.2291 -2.3311
  723MOL0     H95384   1.873   3.055   3.531 -2.2518 -2.0959 -0.6851
  723MOL0     H95385   1.945   2.937   3.269  1.0838  1.1683  0.0974
  723MOL0     H95386   1.794   2.895   3.358  2.2519 -1.5986  0.6651
  723MOL0     H95387   1.871   3.167   3.233  0.4727 -0.2352 -1.8243
  723MOL0     H95388   1.733   3.143   3.347 -1.9851 -1.2542 -0.5281
  723MOL0     H95389   1.562   2.929   3.278  1.9376  0.6728  0.2772
  723MOL0     H95390   1.338   2.851   3.069 -0.5146  0.5828  0.6680
  723MOL0     H95391   1.460   2.764   2.991 -0.1878  0.5758 -2.2565
  723MOL0     H95392   1.452   2.945   2.799  1.6259 -0.0251  1.6424
  723MOL0     H95393   1.328   3.025   2.895 -0.7497  0.3013  0.8762
  723MOL0     H95394   1.200   2.788   2.877 -0.1687 -2.3491 -1.9605
  723MOL0     H95395   1.215   2.873   2.724  2.5252  0.2033 -1.0685
  723MOL0     H95396   1.403   2.651   2.830  0.2692  1.1701  2.6336
  723MOL0     H95397   1.406   2.735   2.668 -0.0319  1.3253  2.0575
  723MOL0     H95398   1.055   2.490   2.634 -0.9395 -1.4789  1.4135
  723MOL0     H95399   1.069   2.309   2.444  1.7298 -0.7452 -1.8218
  723MOL0     H95400   1.308   2.303   1.933 -2.0740 -1.0273  1.0102
  723MOL0     H95401   1.354   2.143   1.757  0.7860  0.2833 -0.0254
  723MOL0     H95402   1.297   1.757   1.845 -2.3970  1.9100 -0.8867
  723MOL0     H95403   1.477   1.717   1.837  1.5196  0.0942 -4.2656
  723MOL0     H95404   1.291   1.781   1.606 -1.8141 -2.9185 -1.8976
  723MOL0     H95405   1.330   1.612   1.661  2.1800 -1.0317 -0.9602
  723MOL0     H95406   1.579   1.703   1.582  0.4769 -0.5107 -0.3934
  723MOL0     H95407   1.501   1.844   1.547  3.0148 -0.5578 -0.5634
  723MOL0     H95408   1.399   1.573   1.443  0.1308 -0.7164  0.2039
  723MOL0     H95409   1.346   1.731   1.390 -1.5951  0.4958  3.6401
  723MOL0     H95410   1.496   1.620   1.213  1.8963  2.0958 -1.4994
  723MOL0     H95411   1.624   1.600   1.333  0.3075 -0.2345  0.1696
  723MOL0     H95412   1.643   1.832   1.362  1.9391  0.2773 -1.5854
  723MOL0     H95413   1.530   1.864   1.234  0.0646  2.0212  2.6478
  723MOL0     H95414   1.821   1.767   1.214  0.3336  0.1669 -1.4327
  723MOL0     H95415   1.709   1.702   1.095 -0.8458 -2.6878  2.1838
  723MOL0     H95416   1.751   2.002   1.174 -2.0921 -1.0595  0.9213
  723MOL0     H95417   1.631   1.945   1.061 -0.0782  1.9096  0.1655
  723MOL0     H95418   1.487   1.855   2.047  1.5333  0.8590 -1.9658
  723MOL0     H95419   1.455   2.028   2.224 -2.9560  1.5124  1.0549
  723MOL0     H95420   1.472   2.424   2.374 -0.7407  2.4376 -1.2081
  723MOL0     H95421   1.470   2.566   2.550  0.9510 -3.0252 -1.0038
  723MOL0     H95422   2.762   3.223   3.811  0.6717  1.7163  1.5108
  723MOL0     H95423   2.881   3.430   3.828 -1.9606 -1.1966  0.3961
  723MOL0     H95424   2.945   3.877   3.567  1.1195 -4.0225  1.6474
  723MOL0     H95425   3.110   4.054   3.527  1.4783 -0.9149 -0.8527
  723MOL0     H95426   3.397   4.091   3.863 -0.5953 -1.3150  0.0348
  723MOL0     H95427   3.353   4.262   3.860 -0.2489 -0.6630  0.6509
  723MOL0     H95428   3.577   4.248   3.811  0.5274 -1.7888 -0.8427
  723MOL0     H95429   3.566   4.105   3.706  2.0076  0.7026 -0.0351
  723MOL0     H95430   3.507   4.400   3.663  1.4330  1.0571 -2.4380
  723MOL0     H95431   3.453   4.283   3.553 -0.2775 -2.1165  1.7672
  723MOL0     H95432   3.661   4.413   3.530  0.1792  1.0955  3.9432
  723MOL0     H95433   3.748   4.312   3.635  2.2577  3.4996 -1.5113
  723MOL0     H95434   3.779   4.062   3.308  3.2950  4.4294 -2.5200
  723MOL0     H95435   3.195   4.055   3.948  0.4278 -1.0774 -0.4890
  723MOL0     H95436   3.037   3.854   3.976  0.1696  1.5671  0.2450
  724MOL0     O95437   9.235  11.381   3.524 -0.0019  0.6748  0.3603
  724MOL0     C95438   9.232  11.271   3.464 -0.2570  0.6271 -0.3105
  724MOL0     O95439   9.217  11.253   3.328 -0.7634  0.3194 -0.3992
  724MOL0     C95440   9.216  11.357   3.240  0.4188  0.7075 -1.2840
  724MOL0     C95441   9.115  11.367   3.150 -0.3132  0.1126  0.4863
  724MOL0     C95442   9.107  11.471   3.054 -0.5242 -0.1296 -0.2171
  724MOL0     C95443   9.192  11.581   3.069 -0.2888 -0.4338  0.0649
  724MOL0     O95444   9.183  11.689   2.984 -0.5706  0.3485 -0.1285
  724MOL0     C95445   9.290  11.776   2.959 -0.2080 -0.4131 -0.6071
  724MOL0     C95446   9.267  11.864   2.832  0.2779 -0.6008  0.8962
  724MOL0     C95447   9.380  11.965   2.823 -0.0698 -0.3287 -0.7224
  724MOL0     C95448   9.371  12.054   2.702  0.6999  0.5757  0.1241
  724MOL0     C95449   9.492  12.156   2.715 -0.8894  0.0487  0.1102
  724MOL0     C95450   9.473  12.238   2.584 -0.7612 -0.2643  0.4133
  724MOL0     C95451   9.575  12.352   2.579 -0.7705  0.0838 -0.0110
  724MOL0     C95452   9.558  12.438   2.461 -0.0032 -0.4342  0.4405
  724MOL0     N95453   9.658  12.549   2.447  0.6938 -0.5388 -0.8017
  724MOL0     C95454   9.757  12.571   2.355 -0.4913  1.1012  0.3979
  724MOL0     C95455   9.812  12.685   2.384  0.0003  0.0288 -0.1444
  724MOL0     C95456   9.922  12.747   2.308  0.6357  0.3392 -0.3480
  724MOL0     C95457   9.968  12.902   2.339  0.0763 -0.0401 -0.1716
  724MOL0     C95458  10.121  12.923   2.321 -0.1710  0.5705 -0.7769
  724MOL0     C95459  10.155  12.936   2.176  0.3534 -0.3819  0.0637
  724MOL0     O95460  10.119  13.054   2.110 -0.1466 -0.9794 -0.0408
  724MOL0     C95461  10.139  13.075   1.979 -0.0910  0.2009 -0.1390
  724MOL0     C95462  10.058  13.174   1.918 -0.2132 -0.0043 -0.2322
  724MOL0     C95463  10.079  13.206   1.788  0.5971 -0.3973 -0.2385
  724MOL0     C95464  10.185  13.152   1.715 -1.4563 -0.5892  0.0422
  724MOL0     C95465  10.199  13.211   1.583 -1.0877 -0.7163  0.0454
  724MOL0     O95466  10.120  13.308   1.543 -0.4354 -0.0860 -0.1988
  724MOL0     C95467  10.109  13.330   1.409  0.6467  0.0076  0.6201
  724MOL0     C95468  10.197  13.414   1.332 -0.2932 -0.1723  0.1502
  724MOL0     C95469  10.181  13.411   1.185 -0.2261  0.4941 -0.4890
  724MOL0     C95470  10.076  13.337   1.123 -0.3686 -0.2760 -0.1793
  724MOL0     O95471  10.072  13.364   0.991  0.1306  0.7034  0.3402
  724MOL0     C95472   9.953  13.335   0.911  0.1163 -0.0141  0.1198
  724MOL0     C95473   9.958  13.206   0.821 -0.7100  1.3138 -0.3570
  724MOL0     C95474   9.992  13.252   0.680  0.3214  0.3263  0.7289
  724MOL0     C95475  10.119  13.341   0.670 -0.2176 -0.3979 -0.7855
  724MOL0     C95476  10.124  13.376   0.525  0.2015  0.1408  0.5145
  724MOL0     C95477  10.256  13.453   0.489 -0.3016 -1.0063  0.0183
  724MOL0     C95478  10.383  13.368   0.538  0.2792 -0.3752  0.7540
  724MOL0     C95479  10.510  13.404   0.458  0.5090 -0.2733 -0.0240
  724MOL0    Cl95480  10.524  13.572   0.456 -0.1218  0.2893  0.3719
  724MOL0     C95481   9.984  13.263   1.197 -0.3254 -0.9537 -0.7214
  724MOL0     C95482  10.005  13.266   1.338 -0.4728  0.6452 -0.0377
  724MOL0     O95483  10.291  13.157   1.517  0.6110  0.5445  0.5323
  724MOL0     C95484  10.261  13.048   1.772  0.2835 -0.2525 -0.3657
  724MOL0     C95485  10.234  13.006   1.900 -0.2332 -1.1214 -0.6700
  724MOL0     N95486   9.746  12.741   2.491 -0.4703 -0.5771 -0.1092
  724MOL0     N95487   9.654  12.654   2.536  0.3284 -1.0488  1.1320
  724MOL0     C95488   9.283  11.577   3.170  0.7475 -0.6025  0.1470
  724MOL0     C95489   9.300  11.461   3.252 -0.1993 -0.5211 -0.7774
  724MOL0     C95490   9.242  11.148   3.544 -0.6315 -0.1918  0.1234
  724MOL0     C95491   9.216  11.021   3.486 -0.0603  0.5330 -0.7758
  724MOL0     C95492   9.240  10.906   3.562  0.6866  0.3092 -0.1575
  724MOL0     C95493   9.302  10.915   3.688  0.7169  0.2648  0.1411
  724MOL0     O95494   9.349  10.811   3.764 -0.1311  0.2717  0.4084
  724MOL0     C95495   9.276  10.683   3.760 -0.6947 -0.0086  0.5310
  724MOL0     C95496   9.353  10.586   3.665  0.3001 -0.5883  0.4841
  724MOL0     C95497   9.292  10.449   3.680  0.2045  0.3311  0.6975
  724MOL0     C95498   9.382  10.336   3.640  0.3688 -0.2191  0.1007
  724MOL0     C95499   9.410  10.320   3.498  0.0656  0.8957  0.1470
  724MOL0     C95500   9.433  10.311   3.379 -1.0019  0.4521 -0.1994
  724MOL0     C95501   9.322  11.043   3.744 -0.9180 -0.2330  0.0664
  724MOL0     C95502   9.297  11.155   3.676  0.3919 -0.7515  0.0804
  724MOL0     H95503   9.045  11.284   3.145  1.6374 -1.8226  2.6993
  724MOL0     H95504   9.036  11.476   2.973 -1.6938  1.0966  0.8351
  724MOL0     H95505   9.378  11.712   2.947 -0.0304 -0.0698 -1.2099
  724MOL0     H95506   9.313  11.841   3.045  1.3841  0.5331 -1.6710
  724MOL0     H95507   9.169  11.910   2.847 -0.7079 -2.7562  1.4888
  724MOL0     H95508   9.259  11.811   2.737  0.0117  0.8561  0.0728
  724MOL0     H95509   9.479  11.925   2.801 -1.4265 -2.5413 -3.5176
  724MOL0     H95510   9.386  12.022   2.915 -0.3096 -3.4274  1.3717
  724MOL0     H95511   9.371  12.009   2.602  1.9184  2.6350 -0.8715
  724MOL0     H95512   9.276  12.108   2.709  0.1827 -0.1089 -1.2245
  724MOL0     H95513   9.588  12.103   2.716 -0.0037  1.6073 -0.0941
  724MOL0     H95514   9.477  12.220   2.802 -3.1706  0.6975 -0.6963
  724MOL0     H95515   9.370  12.274   2.589 -1.8212 -2.8721 -0.6384
  724MOL0     H95516   9.477  12.174   2.495 -0.1413  1.7221 -1.0722
  724MOL0     H95517   9.566  12.421   2.663 -1.4460  1.1492 -0.9243
  724MOL0     H95518   9.675  12.309   2.574 -0.8576 -0.7624  3.2275
  724MOL0     H95519   9.454  12.471   2.458  0.6704  1.9576  1.2070
  724MOL0     H95520   9.566  12.375   2.372  0.0454 -0.4559  0.4601
  724MOL0     H95521   9.781  12.489   2.288 -1.6123  0.0849  1.1945
  724MOL0     H95522   9.907  12.722   2.203  0.1037 -1.0070  0.0356
  724MOL0     H95523  10.002  12.677   2.333  0.2241  0.5282  1.6621
  724MOL0     H95524   9.951  12.940   2.440 -3.1243  1.8799 -1.2700
  724MOL0     H95525   9.927  12.975   2.268 -1.7920  0.1496  1.0370
  724MOL0     H95526  10.138  13.001   2.396  2.3231 -0.6699  0.0904
  724MOL0     H95527  10.179  12.845   2.372 -1.9261 -0.2699  0.0041
  724MOL0     H95528  10.128  12.849   2.115  1.0404 -0.2269 -0.4804
  724MOL0     H95529  10.265  12.941   2.174  0.3399  3.4593  1.5401
  724MOL0     H95530   9.969  13.210   1.969  0.3307 -0.8787  1.3597
  724MOL0     H95531  10.001  13.275   1.758 -1.6091 -2.1200  1.2536
  724MOL0     H95532  10.271  13.481   1.375 -1.0648  0.3710  0.6658
  724MOL0     H95533  10.243  13.478   1.125  0.5360  0.2913  0.0553
  724MOL0     H95534   9.927  13.417   0.844  1.0575  1.1697  1.1607
  724MOL0     H95535   9.863  13.322   0.973 -0.0176  0.4770  0.0346
  724MOL0     H95536   9.872  13.138   0.815  2.5327 -3.7724  3.0768
  724MOL0     H95537  10.041  13.146   0.857 -2.4017 -1.6548 -1.0416
  724MOL0     H95538   9.907  13.312   0.646  0.0660  2.0389  3.9899
  724MOL0     H95539  10.004  13.167   0.612 -2.7822  0.2888  0.0737
  724MOL0     H95540  10.113  13.432   0.730  0.4462 -1.6144  1.2223
  724MOL0     H95541  10.207  13.286   0.705 -0.7656 -0.2444  0.8999
  724MOL0     H95542  10.039  13.443   0.510  2.2568  2.9072  0.4487
  724MOL0     H95543  10.140  13.286   0.465  3.3809  2.8129 -3.1108
  724MOL0     H95544  10.249  13.552   0.534  0.1091 -1.0130  0.0994
  724MOL0     H95545  10.262  13.475   0.382  0.1617 -0.5818  0.1280
  724MOL0     H95546  10.398  13.383   0.645 -2.2815 -0.7189  1.2252
  724MOL0     H95547  10.357  13.262   0.526 -4.7711  0.7983 -0.9491
  724MOL0     H95548  10.491  13.370   0.356  1.6277 -2.8139  0.5239
  724MOL0     H95549  10.595  13.363   0.513  0.8335  0.2762 -0.1089
  724MOL0     H95550   9.907  13.204   1.148 -1.4643  0.8541 -1.1983
  724MOL0     H95551   9.948  13.197   1.400  0.5287 -2.2209 -2.1059
  724MOL0     H95552  10.347  13.009   1.719  1.4719  1.1344  0.4925
  724MOL0     H95553  10.284  12.918   1.940 -1.2021  0.0726  3.8097
  724MOL0     H95554   9.360  11.651   3.188  1.4512 -1.5904  1.3114
  724MOL0     H95555   9.367  11.462   3.337 -1.5623 -2.4968  0.4146
  724MOL0     H95556   9.185  11.021   3.382 -4.7126 -0.5071  0.3542
  724MOL0     H95557   9.217  10.811   3.514 -0.3452  1.5040 -2.1331
  724MOL0     H95558   9.179  10.702   3.714  0.0922  0.6031 -0.9238
  724MOL0     H95559   9.263  10.644   3.862 -0.1948  0.1517  0.6619
  724MOL0     H95560   9.338  10.621   3.562 -2.1131  0.1483  1.0169
  724MOL0     H95561   9.459  10.596   3.690  1.0637 -0.3103 -2.5085
  724MOL0     H95562   9.205  10.449   3.614  1.6237  2.5796 -1.3000
  724MOL0     H95563   9.265  10.435   3.785 -0.8773 -4.3373  0.0498
  724MOL0     H95564   9.478  10.358   3.687  0.5668 -1.8279  0.5282
  724MOL0     H95565   9.355  10.239   3.683 -1.6416 -0.2432 -1.1184
  724MOL0     H95566   9.455  10.310   3.274 -2.6244  1.2255 -0.5793
  724MOL0     H95567   9.361  11.051   3.845 -3.8048  2.3649  1.1235
  724MOL0     H95568   9.314  11.254   3.715 -1.3469 -1.0120  1.6697
  725MOL0     O95569   8.331   0.354   0.432  0.1331 -0.4820 -0.6035
  725MOL0     C95570   8.386   0.265   0.371  0.0627 -0.0324 -0.0898
  725MOL0     O95571   8.415   0.273   0.240  0.4653  0.2110 -0.0697
  725MOL0     C95572   8.359   0.371   0.151 -0.4303  0.9363 -0.7459
  725MOL0     C95573   8.427   0.410   0.039  0.1928  0.2727  1.0133
  725MOL0     C95574   8.393   0.525  -0.041 -0.0643  0.1449  0.0215
  725MOL0     C95575   8.281   0.591  -0.022  0.4070 -0.7131  1.3653
  725MOL0     O95576   8.247   0.702  -0.097  0.3757 -0.1537  0.0382
  725MOL0     C95577   8.150   0.698  -0.196  0.5097 -0.1058  0.3551
  725MOL0     C95578   8.162   0.581  -0.298  0.4323  0.2990 -0.6226
  725MOL0     C95579   8.294   0.584  -0.389  0.4987  0.3219  0.5162
  725MOL0     C95580   8.302   0.450  -0.461  0.3019 -0.3184 -1.8410
  725MOL0     C95581   8.216   0.448  -0.587  0.5444  0.5054  0.5496
  725MOL0     C95582   8.262   0.542  -0.703 -0.2029 -0.4299 -0.0102
  725MOL0     C95583   8.190   0.483  -0.827 -0.9958 -0.0324 -0.3613
  725MOL0     C95584   8.213   0.340  -0.871 -0.1052 -0.1358  0.2942
  725MOL0     N95585   8.348   0.295  -0.866 -0.3807 -0.3605 -0.4826
  725MOL0     C95586   8.457   0.354  -0.921 -0.6412  0.2507  0.5511
  725MOL0     C95587   8.562   0.269  -0.901  0.5249 -0.6992 -0.3461
  725MOL0     C95588   8.709   0.279  -0.944  0.5649  0.2231  0.0609
  725MOL0     C95589   8.801   0.342  -0.836 -0.2860 -0.1303  0.8710
  725MOL0     C95590   8.948   0.343  -0.894  0.5870 -0.0546  0.0448
  725MOL0     C95591   9.028   0.444  -0.823 -0.5645 -0.7335 -0.2118
  725MOL0     O95592   9.072   0.543  -0.925  0.1159 -0.3466  0.0116
  725MOL0     C95593   9.167   0.489  -1.019  0.3197  0.4416  0.0940
  725MOL0     C95594   9.199   0.574  -1.125 -0.0744 -0.4930  0.2775
  725MOL0     C95595   9.306   0.555  -1.207 -0.3972  0.6586 -0.4507
  725MOL0     C95596   9.378   0.430  -1.204  0.0799  0.4863  0.1399
  725MOL0     C95597   9.487   0.390  -1.291  0.2823 -0.5856 -0.3917
  725MOL0     O95598   9.532   0.487  -1.376 -0.2884 -0.6736 -0.8839
  725MOL0     C95599   9.613   0.443  -1.485 -0.5116 -0.1845 -0.6072
  725MOL0     C95600   9.560   0.389  -1.601 -0.5866 -0.7153  0.8484
  725MOL0     C95601   9.637   0.332  -1.696 -0.0328  0.5711  0.4321
  725MOL0     C95602   9.776   0.307  -1.682 -1.6798  0.8841 -0.2766
  725MOL0     O95603   9.851   0.237  -1.770 -0.5816  0.5258  0.7961
  725MOL0     C95604   9.817   0.243  -1.914  0.0905 -0.9248 -0.3579
  725MOL0     C95605   9.947   0.202  -1.979  0.0897 -0.1700 -0.4615
  725MOL0     C95606   9.948   0.240  -2.123 -1.0717  0.3043  0.1563
  725MOL0     C95607  10.054   0.159  -2.206  0.1011  0.1074  0.1787
  725MOL0     C95608  10.021   0.028  -2.286  0.1684  0.7085 -0.7911
  725MOL0     C95609  10.014  -0.094  -2.187  0.2834 -0.4147  0.0769
  725MOL0     C95610  10.022  -0.222  -2.270 -0.3008 -0.3348 -0.6142
  725MOL0     C95611  10.008  -0.347  -2.174 -0.0789  0.7564 -0.2101
  725MOL0    Cl95612  10.132  -0.390  -2.067 -0.2553  0.7573 -0.1409
  725MOL0     C95613   9.834   0.365  -1.562  0.1846  0.3891  0.8068
  725MOL0     C95614   9.748   0.419  -1.462 -0.4705 -0.5996 -1.4137
  725MOL0     O95615   9.538   0.280  -1.281 -0.5735  0.0545 -0.0875
  725MOL0     C95616   9.344   0.340  -1.102  0.0047 -0.4090  0.9062
  725MOL0     C95617   9.239   0.372  -1.013 -0.1265 -0.5551 -0.1819
  725MOL0     N95618   8.510   0.157  -0.828  0.1660  0.5691 -0.9190
  725MOL0     N95619   8.388   0.180  -0.807 -0.3140 -0.4639 -0.0095
  725MOL0     C95620   8.197   0.551   0.088 -0.3780 -0.4537  0.6053
  725MOL0     C95621   8.245   0.446   0.173 -0.0346 -0.9445 -1.5630
  725MOL0     C95622   8.418   0.141   0.449 -0.9010  0.4831 -0.3750
  725MOL0     C95623   8.500   0.043   0.394 -0.3138  0.3201 -0.4716
  725MOL0     C95624   8.526  -0.070   0.471  0.0723  0.3002 -0.5629
  725MOL0     C95625   8.496  -0.073   0.602  0.9891 -0.5601  0.5478
  725MOL0     O95626   8.564  -0.170   0.674 -0.5506  0.5016  0.2937
  725MOL0     C95627   8.688  -0.134   0.732  1.0658  0.2283  0.6286
  725MOL0     C95628   8.781  -0.232   0.673 -0.9448  0.3471 -0.0517
  725MOL0     C95629   8.925  -0.220   0.722 -0.4027  0.2265  1.2504
  725MOL0     C95630   8.936  -0.257   0.869 -0.6299 -0.3379  0.2980
  725MOL0     C95631   8.930  -0.131   0.947 -0.0999  0.6591  0.1022
  725MOL0     C95632   8.903  -0.024   0.992 -0.6786 -0.1238 -0.5424
  725MOL0     C95633   8.419   0.020   0.660  0.3501 -0.3403 -0.7608
  725MOL0     C95634   8.376   0.131   0.590  0.5547 -0.3811  0.4272
  725MOL0     H95635   8.519   0.359   0.014  0.2427 -0.1947  2.0993
  725MOL0     H95636   8.459   0.548  -0.124  0.7623 -0.9591  0.3356
  725MOL0     H95637   8.152   0.787  -0.261  0.8013  1.3766  2.2899
  725MOL0     H95638   8.057   0.698  -0.139  0.2307  0.7062 -0.0875
  725MOL0     H95639   8.068   0.575  -0.354 -0.7051 -1.1137  1.3057
  725MOL0     H95640   8.154   0.485  -0.246  3.7562 -0.2479 -0.8844
  725MOL0     H95641   8.378   0.585  -0.319  3.4874  0.0083 -2.7940
  725MOL0     H95642   8.303   0.673  -0.452  3.7016  0.8442  1.5229
  725MOL0     H95643   8.404   0.442  -0.499  1.1256  0.5103  0.0633
  725MOL0     H95644   8.284   0.357  -0.404  1.0153  1.2628  1.1842
  725MOL0     H95645   8.110   0.471  -0.571  0.1870 -1.0682  0.6585
  725MOL0     H95646   8.213   0.345  -0.625 -3.4938  1.3313 -2.0725
  725MOL0     H95647   8.370   0.541  -0.719 -0.3186  3.0143 -2.2204
  725MOL0     H95648   8.227   0.639  -0.667 -0.8805 -1.0441  1.0292
  725MOL0     H95649   8.082   0.502  -0.824 -0.9537  1.1616 -2.9937
  725MOL0     H95650   8.218   0.550  -0.909 -2.8370  1.5465  0.2171
  725MOL0     H95651   8.190   0.324  -0.977 -0.8834  0.2514  0.3994
  725MOL0     H95652   8.158   0.260  -0.820  0.0993 -1.7647 -1.8678
  725MOL0     H95653   8.468   0.452  -0.967 -1.2999 -0.3683 -0.9815
  725MOL0     H95654   8.718   0.332  -1.040 -2.4059 -2.3606 -1.8291
  725MOL0     H95655   8.739   0.174  -0.953  0.5480  0.3122 -1.2952
  725MOL0     H95656   8.798   0.276  -0.749  0.4221 -0.8089  0.3917
  725MOL0     H95657   8.748   0.432  -0.804 -0.5590  0.8753 -2.0701
  725MOL0     H95658   8.989   0.245  -0.868  2.1333  0.7459  0.7953
  725MOL0     H95659   8.943   0.369  -1.000 -3.9189  1.1772  0.3607
  725MOL0     H95660   9.112   0.395  -0.774  0.3077 -1.0207 -1.9282
  725MOL0     H95661   8.980   0.498  -0.741  0.1609  0.9964 -0.8889
  725MOL0     H95662   9.137   0.661  -1.144  1.3895  0.5249  0.0165
  725MOL0     H95663   9.321   0.642  -1.270 -3.2699  2.4856  1.1874
  725MOL0     H95664   9.454   0.398  -1.618 -0.6862 -0.6561  1.4925
  725MOL0     H95665   9.588   0.304  -1.788 -2.8701  1.2112  1.6460
  725MOL0     H95666   9.803   0.350  -1.935 -1.3434  0.1115  4.5340
  725MOL0     H95667   9.732   0.180  -1.943 -0.7204 -0.0496  0.0628
  725MOL0     H95668   9.952   0.093  -1.977 -0.4710 -0.1944 -0.2266
  725MOL0     H95669  10.040   0.243  -1.939  0.8798 -1.4293 -0.9701
  725MOL0     H95670   9.994   0.340  -2.121 -0.1739 -0.0983  1.6081
  725MOL0     H95671   9.846   0.244  -2.162 -1.8560  0.3917  2.0906
  725MOL0     H95672  10.105   0.232  -2.271  0.7985 -1.3667 -0.9817
  725MOL0     H95673  10.126   0.117  -2.135  1.0014  0.5327 -0.4551
  725MOL0     H95674  10.096   0.004  -2.361  1.6692 -2.3544  1.5096
  725MOL0     H95675   9.924   0.033  -2.336 -0.6944 -1.0720  0.5890
  725MOL0     H95676   9.919  -0.094  -2.133  0.1588  3.6185  0.1634
  725MOL0     H95677  10.091  -0.082  -2.110  0.3957  5.4482 -0.4923
  725MOL0     H95678   9.953  -0.215  -2.355  2.9564 -0.1788 -3.4559
  725MOL0     H95679  10.126  -0.230  -2.302  1.1479  0.6335  3.3372
  725MOL0     H95680  10.004  -0.439  -2.233  2.9209 -0.1777  0.8778
  725MOL0     H95681   9.912  -0.331  -2.125 -0.3591  1.1563 -0.8688
  725MOL0     H95682   9.941   0.368  -1.546  0.2128  3.3982  0.4844
  725MOL0     H95683   9.783   0.447  -1.363 -2.3713  0.4895 -0.9922
  725MOL0     H95684   9.406   0.255  -1.076 -1.1074 -1.4197  0.3408
  725MOL0     H95685   9.230   0.304  -0.929 -0.7866 -0.8374 -0.4787
  725MOL0     H95686   8.102   0.599   0.106 -0.7022  0.6652 -3.2045
  725MOL0     H95687   8.186   0.436   0.263  0.2842  1.9762 -0.9417
  725MOL0     H95688   8.538   0.051   0.293 -3.8469 -1.3717 -2.0971
  725MOL0     H95689   8.587  -0.155   0.442 -3.7535 -2.3009 -1.8176
  725MOL0     H95690   8.690  -0.142   0.841  2.5785  0.5109  0.6462
  725MOL0     H95691   8.720  -0.032   0.704  0.5667  0.0303 -0.7633
  725MOL0     H95692   8.746  -0.335   0.683 -0.7126  0.2876  0.1559
  725MOL0     H95693   8.784  -0.216   0.564  2.1463 -1.8285 -0.4165
  725MOL0     H95694   8.974  -0.123   0.714  1.2093 -0.7110 -0.9643
  725MOL0     H95695   8.969  -0.287   0.648 -2.6525  0.9445 -0.8945
  725MOL0     H95696   8.847  -0.318   0.888  0.9188 -2.0816  2.4635
  725MOL0     H95697   9.018  -0.317   0.910  0.8194  1.5409  0.2906
  725MOL0     H95698   8.871   0.071   1.027  0.1280 -0.6899  1.9042
  725MOL0     H95699   8.399  -0.005   0.764 -0.2335  3.4246  0.1982
  725MOL0     H95700   8.312   0.207   0.635 -3.2813 -2.6040 -0.7720
  726MOL0     O95701   5.207   1.945   9.826  0.3647 -0.3955  0.7149
  726MOL0     C95702   5.183   1.982   9.937 -0.3365 -0.7836  1.4942
  726MOL0     O95703   5.152   2.110   9.973 -0.4758 -0.2932 -0.0620
  726MOL0     C95704   5.178   2.214   9.901 -1.6475 -0.0965  0.5875
  726MOL0     C95705   5.096   2.258   9.796  0.0264 -0.0937 -0.2788
  726MOL0     C95706   5.123   2.375   9.734  0.3609  0.5308  0.3837
  726MOL0     C95707   5.232   2.459   9.767  0.3258  0.9320 -0.3957
  726MOL0     O95708   5.231   2.570   9.692 -0.2459 -0.3694 -0.0732
  726MOL0     C95709   5.358   2.643   9.692  0.0256  0.8453 -1.6269
  726MOL0     C95710   5.367   2.760   9.591 -0.0965  0.1711  0.2601
  726MOL0     C95711   5.322   2.721   9.458 -0.5681  0.5563  1.1943
  726MOL0     C95712   5.359   2.824   9.345 -0.6914  0.1860 -0.6426
  726MOL0     C95713   5.322   2.771   9.207 -0.6344 -0.2483 -0.6885
  726MOL0     C95714   5.332   2.888   9.113 -0.5826  0.1304  0.1592
  726MOL0     C95715   5.353   2.843   8.973 -0.7317 -0.1462 -0.0785
  726MOL0     C95716   5.400   2.961   8.879  0.2474 -0.0892 -0.3536
  726MOL0     N95717   5.491   2.897   8.789 -0.2383 -0.1632  0.5623
  726MOL0     C95718   5.466   2.850   8.656  0.3468  0.1124  0.1691
  726MOL0     C95719   5.586   2.781   8.622 -0.3902 -0.3323 -0.3074
  726MOL0     C95720   5.610   2.680   8.504 -0.5813 -0.4460  0.3440
  726MOL0     C95721   5.726   2.718   8.403  0.2957 -0.2092 -0.0406
  726MOL0     C95722   5.843   2.781   8.468 -0.4624  0.3920  0.2112
  726MOL0     C95723   5.973   2.773   8.379  1.2073 -1.1664  0.4566
  726MOL0     O95724   6.079   2.863   8.423 -1.1338 -0.2107 -0.7334
  726MOL0     C95725   6.201   2.863   8.360 -0.1044  0.0336 -0.0218
  726MOL0     C95726   6.306   2.953   8.399  0.1780  0.2475  0.0987
  726MOL0     C95727   6.427   2.962   8.333  1.0900 -0.1875  0.5600
  726MOL0     C95728   6.454   2.873   8.232 -0.5192  0.2188  0.1267
  726MOL0     C95729   6.580   2.866   8.164  0.2816 -0.4225  0.0643
  726MOL0     O95730   6.596   2.759   8.075 -0.5692 -0.0613  0.0426
  726MOL0     C95731   6.714   2.733   8.006 -0.0508 -0.0649  0.5146
  726MOL0     C95732   6.739   2.597   7.987  0.1646  0.4668  0.1906
  726MOL0     C95733   6.860   2.549   7.933  0.3199  0.9866  0.4746
  726MOL0     C95734   6.957   2.641   7.906  1.0679 -0.2766  0.1140
  726MOL0     O95735   7.063   2.593   7.848 -0.7641  0.1901 -1.0346
  726MOL0     C95736   7.043   2.560   7.707 -0.8563  0.4544 -0.4852
  726MOL0     C95737   7.083   2.408   7.703 -1.1731 -0.1865  1.0627
  726MOL0     C95738   7.071   2.352   7.559 -0.2070  0.6189  0.4836
  726MOL0     C95739   7.120   2.213   7.534 -0.2102  0.7798 -0.7755
  726MOL0     C95740   7.100   2.172   7.384 -0.0025  0.6897  0.4878
  726MOL0     C95741   6.962   2.216   7.328 -0.7053  0.4495 -0.6913
  726MOL0     C95742   6.938   2.135   7.198  0.4562 -0.6367  1.2045
  726MOL0     C95743   6.875   2.225   7.085  0.3350  0.5179  0.1278
  726MOL0    Cl95744   6.727   2.303   7.134  0.3662  0.0992  0.3852
  726MOL0     C95745   6.939   2.781   7.921 -0.2472 -0.1801  0.3873
  726MOL0     C95746   6.815   2.828   7.970  0.1348 -0.5095 -0.8307
  726MOL0     O95747   6.648   2.972   8.161 -0.2304 -0.1691  0.4384
  726MOL0     C95748   6.357   2.783   8.193  0.2189 -0.5673  0.0125
  726MOL0     C95749   6.232   2.780   8.253 -0.2995  0.3806  0.1014
  726MOL0     N95750   5.672   2.780   8.736  0.3737 -0.5181 -0.0257
  726MOL0     N95751   5.617   2.852   8.827  0.3656  0.1683  0.5345
  726MOL0     C95752   5.311   2.421   9.877 -0.3076 -0.6298 -0.7593
  726MOL0     C95753   5.294   2.297   9.939  0.6891 -0.5466  0.0212
  726MOL0     C95754   5.210   1.882  10.045 -0.1244 -0.9083  0.2428
  726MOL0     C95755   5.225   1.914  10.183  0.1409  0.5895 -0.2433
  726MOL0     C95756   5.238   1.815  10.283 -0.1049 -0.0561  0.0495
  726MOL0     C95757   5.263   1.678  10.237  0.1073  0.0157  0.3548
  726MOL0     O95758   5.280   1.585  10.337  0.1871 -0.1454 -0.3115
  726MOL0     C95759   5.370   1.475  10.306  0.0995  0.3412  0.0766
  726MOL0     C95760   5.449   1.451  10.426 -0.8255 -0.4639 -0.9032
  726MOL0     C95761   5.514   1.315  10.419  0.0870  1.0754  0.1685
  726MOL0     C95762   5.622   1.301  10.526  0.4914 -0.0313 -0.2706
  726MOL0     C95763   5.563   1.283  10.659  0.3253 -0.7379 -0.0854
  726MOL0     C95764   5.496   1.261  10.758  0.2752 -0.1720 -0.5137
  726MOL0     C95765   5.244   1.647  10.101  1.2590 -1.3588  1.1763
  726MOL0     C95766   5.213   1.750  10.012 -0.4912  1.0630  0.7308
  726MOL0     H95767   5.010   2.199   9.766  0.7924 -0.7110 -1.3369
  726MOL0     H95768   5.061   2.418   9.655 -0.2152  1.6422  1.4029
  726MOL0     H95769   5.436   2.571   9.662 -1.4166 -0.6100 -2.0449
  726MOL0     H95770   5.363   2.666   9.798 -2.0719 -0.7464 -1.1150
  726MOL0     H95771   5.471   2.794   9.589 -0.4450  1.3801  1.1637
  726MOL0     H95772   5.302   2.845   9.614 -1.1648 -0.3211 -0.8399
  726MOL0     H95773   5.213   2.721   9.464 -0.7590  0.6798 -1.1189
  726MOL0     H95774   5.352   2.621   9.425  0.2653  1.7759 -2.1828
  726MOL0     H95775   5.298   2.912   9.366 -1.1311  0.1800 -1.8220
  726MOL0     H95776   5.466   2.845   9.356 -0.3182 -1.8389  0.2187
  726MOL0     H95777   5.222   2.728   9.200 -1.2575  0.3829  2.5496
  726MOL0     H95778   5.396   2.703   9.165  1.0956  0.7275  0.6250
  726MOL0     H95779   5.408   2.959   9.144  0.7433 -0.9187 -0.5942
  726MOL0     H95780   5.238   2.945   9.109  1.5848  4.0449 -0.2599
  726MOL0     H95781   5.420   2.757   8.968 -1.5873 -0.8185 -0.1769
  726MOL0     H95782   5.263   2.795   8.934 -1.4987  0.9257  0.3192
  726MOL0     H95783   5.462   3.037   8.926 -0.5557  0.5225 -0.2629
  726MOL0     H95784   5.317   3.011   8.828 -1.5146 -1.1331  1.3168
  726MOL0     H95785   5.377   2.853   8.595  0.4777 -0.3496 -0.0468
  726MOL0     H95786   5.513   2.672   8.452 -1.7108  0.8527  2.1455
  726MOL0     H95787   5.637   2.576   8.527  0.3904 -0.3526 -0.3180
  726MOL0     H95788   5.692   2.787   8.325  0.8155 -1.4544 -1.4146
  726MOL0     H95789   5.757   2.623   8.359 -0.4401 -0.8405  0.7720
  726MOL0     H95790   5.835   2.883   8.505  0.4653  1.2429 -1.7824
  726MOL0     H95791   5.872   2.714   8.550 -1.2290 -0.9312 -0.5590
  726MOL0     H95792   5.949   2.789   8.274 -0.7050 -0.2387  0.9834
  726MOL0     H95793   6.011   2.671   8.385  1.0662 -1.1497  4.1482
  726MOL0     H95794   6.296   3.018   8.485  1.2925 -0.5191  0.8293
  726MOL0     H95795   6.495   3.042   8.360  0.0033  1.9733 -2.5397
  726MOL0     H95796   6.669   2.529   8.034 -2.8496  2.1739 -1.5272
  726MOL0     H95797   6.884   2.443   7.935  0.3872  0.9800 -0.4106
  726MOL0     H95798   7.126   2.603   7.652 -0.7057  2.2911  1.0615
  726MOL0     H95799   6.946   2.591   7.666  0.0892  4.4569 -0.1613
  726MOL0     H95800   7.017   2.341   7.758 -1.0789 -0.3491  0.9795
  726MOL0     H95801   7.186   2.393   7.735 -0.0942 -0.3809 -2.1296
  726MOL0     H95802   7.131   2.406   7.486 -1.4295  0.8985 -0.3434
  726MOL0     H95803   6.968   2.369   7.527  0.2788  0.2301 -1.4025
  726MOL0     H95804   7.227   2.202   7.554 -0.4692  0.6231  0.5876
  726MOL0     H95805   7.065   2.138   7.591  1.3764  0.5160  0.4875
  726MOL0     H95806   7.093   2.063   7.382 -2.6056  0.7095 -3.6570
  726MOL0     H95807   7.183   2.200   7.319 -1.2583  3.6761  0.0213
  726MOL0     H95808   6.963   2.323   7.304 -3.5175  1.3334  2.3069
  726MOL0     H95809   6.882   2.208   7.403 -0.5272  0.7265 -0.4706
  726MOL0     H95810   7.031   2.105   7.149 -1.6859 -0.5496 -3.5415
  726MOL0     H95811   6.884   2.044   7.225 -1.8408  0.2652 -0.0225
  726MOL0     H95812   6.830   2.159   7.010 -2.7537  3.0961 -0.4994
  726MOL0     H95813   6.955   2.289   7.047 -0.2357  1.9408  1.2044
  726MOL0     H95814   7.011   2.849   7.878 -2.0783  1.2787 -0.5371
  726MOL0     H95815   6.796   2.934   7.982 -1.1380 -0.8501  0.4950
  726MOL0     H95816   6.363   2.705   8.118  0.2111 -1.0389  0.5017
  726MOL0     H95817   6.158   2.716   8.206 -0.7883 -0.2345  1.6398
  726MOL0     H95818   5.390   2.477   9.926 -2.7410  1.3756  1.0929
  726MOL0     H95819   5.354   2.272  10.026  0.5635  1.5172  0.7586
  726MOL0     H95820   5.198   2.018  10.199 -2.1740  0.7593 -3.9862
  726MOL0     H95821   5.227   1.855  10.383 -0.6693 -1.2876  0.4892
  726MOL0     H95822   5.447   1.506  10.235  0.8886 -2.0012 -0.1610
  726MOL0     H95823   5.311   1.398  10.255  0.3521  2.0360 -3.0496
  726MOL0     H95824   5.526   1.528  10.440 -0.8311 -0.7714  1.2550
  726MOL0     H95825   5.382   1.456  10.513  2.2889 -3.6250  1.9682
  726MOL0     H95826   5.560   1.303  10.321 -1.0172 -1.6587 -0.0978
  726MOL0     H95827   5.435   1.240  10.421  1.4848 -0.7424 -3.4234
  726MOL0     H95828   5.682   1.213  10.502  0.9180 -0.5718  2.4268
  726MOL0     H95829   5.695   1.383  10.525  0.4222  0.3252  3.9444
  726MOL0     H95830   5.429   1.249  10.841  0.8189 -1.9360 -0.3060
  726MOL0     H95831   5.254   1.546  10.063 -0.4726 -1.1130 -0.0099
  726MOL0     H95832   5.202   1.727   9.907 -1.0345  1.8058  0.6171
  727MOL0     O95833   2.555   2.882   5.093 -0.7105  0.5020  0.0144
  727MOL0     C95834   2.495   2.845   5.000  0.4071  0.7713  0.9080
  727MOL0     O95835   2.540   2.817   4.871 -0.5011  0.0452 -0.0657
  727MOL0     C95836   2.672   2.839   4.846  0.2952 -0.1268  1.1694
  727MOL0     C95837   2.741   2.723   4.844  0.5819 -0.8281  0.7032
  727MOL0     C95838   2.884   2.726   4.824  0.3521  0.3360  0.3281
  727MOL0     C95839   2.949   2.834   4.791 -0.0716 -0.3736 -0.0613
  727MOL0     O95840   3.073   2.849   4.747  0.1774 -0.1442 -1.4269
  727MOL0     C95841   3.153   2.736   4.720 -0.4012  0.2934  0.3421
  727MOL0     C95842   3.279   2.794   4.651 -0.0148  0.7453  0.2594
  727MOL0     C95843   3.413   2.741   4.690  0.0367  0.1085  0.2510
  727MOL0     C95844   3.523   2.811   4.609 -0.3419  0.1512  0.3449
  727MOL0     C95845   3.663   2.746   4.621 -0.3225  0.3416 -0.4043
  727MOL0     C95846   3.738   2.737   4.486 -0.3994  0.3806 -0.4956
  727MOL0     C95847   3.882   2.688   4.521 -0.1715 -0.7033  0.4803
  727MOL0     C95848   3.938   2.615   4.401 -0.6322 -0.1429  0.0595
  727MOL0     N95849   4.073   2.582   4.381 -0.5665 -0.2767 -0.1247
  727MOL0     C95850   4.159   2.526   4.474  0.1313  0.6902  0.2941
  727MOL0     C95851   4.277   2.555   4.424 -0.7543 -1.2480  0.5207
  727MOL0     C95852   4.405   2.504   4.484 -0.0143 -0.6251 -0.4284
  727MOL0     C95853   4.404   2.512   4.639 -0.0476  0.6787  0.5879
  727MOL0     C95854   4.540   2.460   4.697 -0.8777  0.5687  0.1729
  727MOL0     C95855   4.528   2.453   4.845 -0.2605 -1.0176  1.0328
  727MOL0     O95856   4.645   2.398   4.907 -0.7743 -0.1775 -0.3330
  727MOL0     C95857   4.768   2.474   4.915  0.1807  0.8758  0.3612
  727MOL0     C95858   4.892   2.415   4.959 -0.3506 -0.5770  0.7095
  727MOL0     C95859   5.001   2.498   4.983 -0.7172  1.2172  0.1914
  727MOL0     C95860   5.006   2.627   4.947  1.5940 -1.0443  0.5202
  727MOL0     C95861   5.130   2.704   4.939  0.8207 -0.5230 -0.3248
  727MOL0     O95862   5.239   2.633   4.969 -1.0595  0.8095 -0.3026
  727MOL0     C95863   5.357   2.693   5.002  0.3169  0.8882  0.2425
  727MOL0     C95864   5.365   2.797   5.099  0.7717  0.2811  0.0489
  727MOL0     C95865   5.492   2.846   5.126  0.3849 -0.5560  0.0913
  727MOL0     C95866   5.608   2.786   5.084  0.3752 -0.1575  1.2514
  727MOL0     O95867   5.728   2.827   5.137  0.3617 -0.3784  0.4221
  727MOL0     C95868   5.775   2.725   5.235 -1.2687  0.7736  0.8147
  727MOL0     C95869   5.903   2.776   5.295 -0.5711  0.1048  0.6574
  727MOL0     C95870   5.981   2.668   5.366 -0.6133  1.1605  0.1780
  727MOL0     C95871   6.128   2.710   5.400 -0.3723 -0.7435 -0.4308
  727MOL0     C95872   6.202   2.636   5.524 -0.4376 -0.5304  1.0428
  727MOL0     C95873   6.295   2.528   5.466  0.1431  0.8800 -0.7032
  727MOL0     C95874   6.351   2.425   5.571  0.5333 -0.6410 -0.1064
  727MOL0     C95875   6.466   2.336   5.529  0.3805  0.6406  0.4695
  727MOL0    Cl95876   6.391   2.221   5.404 -0.4028 -0.2903 -0.0314
  727MOL0     C95877   5.598   2.677   4.996  0.6892  0.0972  0.3346
  727MOL0     C95878   5.467   2.632   4.953 -0.2599 -0.4305 -0.5239
  727MOL0     O95879   5.124   2.828   4.915  0.1151 -0.0041 -0.9005
  727MOL0     C95880   4.880   2.690   4.904 -0.3758 -1.0835  0.1684
  727MOL0     C95881   4.769   2.612   4.884 -0.1162 -0.0237 -0.2737
  727MOL0     N95882   4.263   2.643   4.313 -0.3841  1.7423 -0.0586
  727MOL0     N95883   4.135   2.644   4.290 -0.1123 -0.9056  0.7132
  727MOL0     C95884   2.880   2.962   4.801  0.8379  0.1458  0.0238
  727MOL0     C95885   2.738   2.960   4.827 -0.5471  0.6281 -0.2989
  727MOL0     C95886   2.364   2.813   5.028 -0.0030  0.0377 -0.7747
  727MOL0     C95887   2.283   2.857   5.134 -0.9255 -0.5529  0.2262
  727MOL0     C95888   2.157   2.812   5.158  0.9580  1.4217 -0.4770
  727MOL0     C95889   2.100   2.706   5.081 -0.7368  0.1705 -0.2171
  727MOL0     O95890   1.974   2.659   5.117 -0.8018 -0.1416 -1.0899
  727MOL0     C95891   1.959   2.516   5.108 -1.0111 -0.7216 -0.4239
  727MOL0     C95892   2.049   2.441   5.210 -0.3350 -0.5404  0.0426
  727MOL0     C95893   2.073   2.509   5.349 -0.2639  0.3319 -0.5707
  727MOL0     C95894   1.957   2.569   5.418  0.8576 -0.6462 -0.6839
  727MOL0     C95895   1.986   2.618   5.550 -0.2504  0.3382 -0.5699
  727MOL0     C95896   1.981   2.652   5.666 -0.1046 -0.4071 -0.3405
  727MOL0     C95897   2.171   2.664   4.962 -1.5099  0.6119  0.1065
  727MOL0     C95898   2.305   2.712   4.948  0.1037 -0.0163  0.1560
  727MOL0     H95899   2.684   2.631   4.856 -3.4737  1.4277  0.6113
  727MOL0     H95900   2.925   2.627   4.811 -0.1689  0.2779 -1.0899
  727MOL0     H95901   3.096   2.661   4.664 -2.2041  0.9825  1.1851
  727MOL0     H95902   3.182   2.701   4.819 -2.4886  1.1574  1.3052
  727MOL0     H95903   3.288   2.901   4.674  1.4718  0.6047  0.4305
  727MOL0     H95904   3.268   2.793   4.542 -0.4319  1.3053  0.2869
  727MOL0     H95905   3.417   2.632   4.679  2.8333  0.0249  1.1915
  727MOL0     H95906   3.424   2.767   4.795 -0.7451  1.8422 -0.0770
  727MOL0     H95907   3.481   2.794   4.509  1.5101 -1.3222 -0.2251
  727MOL0     H95908   3.514   2.919   4.620 -2.9142  0.2506 -1.6670
  727MOL0     H95909   3.652   2.643   4.659  0.6849 -0.2943 -1.7657
  727MOL0     H95910   3.718   2.807   4.693  1.7687 -1.2988 -0.5083
  727MOL0     H95911   3.743   2.837   4.443  2.6795  0.9071  0.8395
  727MOL0     H95912   3.699   2.661   4.416 -0.2645 -0.9401  0.8098
  727MOL0     H95913   3.943   2.777   4.539  1.2130 -1.6806  0.7598
  727MOL0     H95914   3.884   2.616   4.603  1.2332  0.7118  1.7506
  727MOL0     H95915   3.891   2.664   4.315  1.1244  0.3009 -0.6880
  727MOL0     H95916   3.888   2.520   4.421  0.9904 -1.1197 -0.3523
  727MOL0     H95917   4.129   2.474   4.564  0.0103 -2.3419 -1.3948
  727MOL0     H95918   4.493   2.565   4.461 -0.5120  1.8745  3.3197
  727MOL0     H95919   4.426   2.405   4.443  4.1379 -0.5287  1.0004
  727MOL0     H95920   4.313   2.471   4.683 -0.8303 -0.3272 -1.7620
  727MOL0     H95921   4.414   2.619   4.663  1.6350  0.7345 -0.1932
  727MOL0     H95922   4.562   2.364   4.649 -2.2275  0.8840 -1.1641
  727MOL0     H95923   4.622   2.527   4.671  0.8360 -1.4978  0.0222
  727MOL0     H95924   4.449   2.381   4.866  0.1723 -3.1829 -3.5443
  727MOL0     H95925   4.495   2.551   4.880  0.9927  0.4834 -1.5985
  727MOL0     H95926   4.894   2.307   4.971 -0.9380 -0.7764 -0.8227
  727MOL0     H95927   5.091   2.451   5.022 -0.9719  1.3900  1.0154
  727MOL0     H95928   5.275   2.840   5.142  1.7767  2.2006  0.3566
  727MOL0     H95929   5.506   2.933   5.190 -1.0112 -0.8785  0.8904
  727MOL0     H95930   5.797   2.627   5.192  1.1778  0.9111  1.5802
  727MOL0     H95931   5.688   2.697   5.295 -1.8104  1.5048  0.3872
  727MOL0     H95932   5.880   2.855   5.366  3.2911  1.0619  1.0953
  727MOL0     H95933   5.965   2.817   5.215  2.0441 -2.2125  1.3337
  727MOL0     H95934   5.979   2.569   5.319 -1.8987 -0.3784  3.1777
  727MOL0     H95935   5.936   2.647   5.464  1.3903 -3.6133  0.3447
  727MOL0     H95936   6.193   2.715   5.313  0.5713 -0.3873  0.2738
  727MOL0     H95937   6.116   2.814   5.434  0.3670 -0.5733 -0.6778
  727MOL0     H95938   6.122   2.607   5.593 -2.6772  1.3621 -0.5933
  727MOL0     H95939   6.251   2.717   5.579  1.5941 -0.0555 -1.3106
  727MOL0     H95940   6.381   2.578   5.420  0.8228 -2.8379 -4.0574
  727MOL0     H95941   6.250   2.464   5.390 -0.4137  1.2229 -0.6718
  727MOL0     H95942   6.376   2.486   5.658 -2.7293  2.0782 -0.8670
  727MOL0     H95943   6.272   2.366   5.619  0.4306  1.6337  2.8325
  727MOL0     H95944   6.505   2.276   5.612 -0.0445 -1.4778 -0.7904
  727MOL0     H95945   6.548   2.396   5.490 -0.6351  2.4329  0.9841
  727MOL0     H95946   5.687   2.626   4.960 -1.6880 -1.9338 -3.3025
  727MOL0     H95947   5.463   2.549   4.883 -0.6347 -1.4373  0.6644
  727MOL0     H95948   4.871   2.794   4.876 -1.4568 -1.3980 -0.7568
  727MOL0     H95949   4.677   2.660   4.852 -0.0871  0.4870  0.3749
  727MOL0     H95950   2.935   3.054   4.787  2.8864 -0.9507  0.5000
  727MOL0     H95951   2.680   3.049   4.848 -0.3373  0.9934 -1.2067
  727MOL0     H95952   2.325   2.931   5.202  1.4226 -0.3667 -1.3050
  727MOL0     H95953   2.110   2.841   5.251 -2.8163  0.6204 -1.9341
  727MOL0     H95954   1.967   2.474   5.007 -1.3514 -0.3255 -0.6200
  727MOL0     H95955   1.857   2.491   5.138 -0.6706 -1.3903  0.2131
  727MOL0     H95956   1.995   2.347   5.223 -2.6627  0.5609 -1.0204
  727MOL0     H95957   2.151   2.412   5.184  1.2922  2.2568  2.6129
  727MOL0     H95958   2.148   2.588   5.347 -1.6088  1.6613 -0.3738
  727MOL0     H95959   2.111   2.436   5.420 -0.1305 -0.1514 -1.1248
  727MOL0     H95960   1.926   2.655   5.358  0.3139 -1.1390 -1.1206
  727MOL0     H95961   1.874   2.498   5.423  1.1416 -1.1584 -2.5831
  727MOL0     H95962   1.977   2.666   5.772 -0.1695 -2.9854  0.0630
  727MOL0     H95963   2.128   2.584   4.904  0.8987  1.1130 -2.5424
  727MOL0     H95964   2.356   2.668   4.863 -0.5265  0.5914 -0.5427
  728MOL0     O95965   1.629   8.774  10.402 -0.0501  0.3070 -0.1777
  728MOL0     C95966   1.577   8.679  10.466  0.0922  1.1128  0.1103
  728MOL0     O95967   1.613   8.625  10.579 -0.2142 -0.1319 -0.0721
  728MOL0     C95968   1.721   8.684  10.648  0.0075  0.7196  1.1440
  728MOL0     C95969   1.692   8.802  10.719 -0.0340 -0.6460  0.3675
  728MOL0     C95970   1.776   8.836  10.822 -0.2928 -0.8497  0.0068
  728MOL0     C95971   1.892   8.766  10.851 -0.1055  0.4317 -0.3945
  728MOL0     O95972   1.976   8.832  10.940 -0.1522 -0.2709  0.5173
  728MOL0     C95973   2.110   8.774  10.951  1.0045  0.9486  0.1064
  728MOL0     C95974   2.201   8.813  10.830  0.3811 -0.1530 -0.8602
  728MOL0     C95975   2.314   8.903  10.860 -0.3470 -0.1670  0.0006
  728MOL0     C95976   2.357   8.988  10.735  0.6216 -0.1921  0.0451
  728MOL0     C95977   2.471   9.079  10.767  0.5393  0.7108 -0.4202
  728MOL0     C95978   2.535   9.146  10.638 -0.7804 -0.6405 -0.8727
  728MOL0     C95979   2.657   9.237  10.674  0.2903 -0.1996 -0.2788
  728MOL0     C95980   2.620   9.368  10.735 -0.6037  0.4212 -0.3020
  728MOL0     N95981   2.730   9.425  10.822 -0.5437 -0.4095 -0.4717
  728MOL0     C95982   2.714   9.533  10.897  0.1118 -0.3333 -0.3683
  728MOL0     C95983   2.824   9.569  10.974 -0.4839  0.0462  0.8266
  728MOL0     C95984   2.830   9.673  11.084  0.0608 -0.0845  0.9037
  728MOL0     C95985   2.859   9.806  11.004 -0.8551 -0.4771 -0.6359
  728MOL0     C95986   2.901   9.907  11.105  0.1323  0.2686  0.4828
  728MOL0     C95987   2.920  10.041  11.050  0.2693 -0.2507 -0.4192
  728MOL0     O95988   3.056  10.058  10.998  0.0982  0.5421 -0.5441
  728MOL0     C95989   3.090  10.164  10.926  0.4486 -0.9164 -0.1469
  728MOL0     C95990   3.224  10.162  10.882  0.0535 -0.1319 -0.5498
  728MOL0     C95991   3.287  10.279  10.851  0.0327  0.6428 -0.7885
  728MOL0     C95992   3.218  10.400  10.854  0.5739  0.4193  0.9566
  728MOL0     C95993   3.296  10.519  10.808  1.3168  0.8725 -0.5650
  728MOL0     O95994   3.391  10.496  10.709 -0.4036 -0.1610 -0.3510
  728MOL0     C95995   3.486  10.591  10.705  0.4021 -0.1223  0.2702
  728MOL0     C95996   3.589  10.588  10.786  0.4725 -0.4016  0.4087
  728MOL0     C95997   3.694  10.687  10.764  0.3485 -0.0414 -0.4132
  728MOL0     C95998   3.686  10.775  10.656 -0.0378  0.3733  1.0163
  728MOL0     O95999   3.784  10.865  10.622  0.1863  0.9066  0.5905
  728MOL0     C96000   3.805  10.986  10.688 -0.4423  0.0721 -1.6185
  728MOL0     C96001   3.937  11.042  10.642 -0.3740  0.0511  1.1957
  728MOL0     C96002   3.987  11.149  10.730 -0.2589  0.2035  0.5723
  728MOL0     C96003   3.911  11.275  10.704  0.5349 -0.8023  0.6415
  728MOL0     C96004   3.927  11.404  10.789 -0.9155  0.1815  0.0651
  728MOL0     C96005   3.875  11.389  10.941  0.3605  0.7939  1.1402
  728MOL0     C96006   3.876  11.514  11.017  0.4722 -0.3228  0.3826
  728MOL0     C96007   3.765  11.517  11.115  0.8402  0.1390 -1.0659
  728MOL0    Cl96008   3.780  11.369  11.217 -0.1929 -0.0573 -0.0056
  728MOL0     C96009   3.569  10.785  10.578 -0.0556  0.4202 -0.0927
  728MOL0     C96010   3.469  10.686  10.602  0.2052  0.0496 -1.1214
  728MOL0     O96011   3.277  10.623  10.873  0.5668 -0.3098  0.6780
  728MOL0     C96012   3.077  10.407  10.879 -0.2717 -0.4175 -1.1980
  728MOL0     C96013   3.017  10.290  10.912 -0.6384 -0.0613 -0.5632
  728MOL0     N96014   2.918   9.472  10.930  0.9486 -0.4022  0.4737
  728MOL0     N96015   2.865   9.394  10.846  0.7143  0.5788 -0.9978
  728MOL0     C96016   1.925   8.648  10.775 -1.1022  0.0783 -0.7124
  728MOL0     C96017   1.840   8.611  10.667  0.2582 -0.2877 -0.8355
  728MOL0     C96018   1.455   8.617  10.399  0.3602 -0.3994 -0.4782
  728MOL0     C96019   1.403   8.657  10.279 -0.7362  0.0018 -0.6329
  728MOL0     C96020   1.272   8.620  10.234 -0.5199 -0.1223 -1.0841
  728MOL0     C96021   1.214   8.518  10.304 -0.5089  0.5407 -1.0043
  728MOL0     O96022   1.092   8.471  10.268 -0.5995  0.7885 -0.0466
  728MOL0     C96023   0.996   8.546  10.191 -0.8666 -0.1232  0.0163
  728MOL0     C96024   0.864   8.478  10.208  0.1293 -0.2395  0.5857
  728MOL0     C96025   0.798   8.475  10.346  0.3859 -0.7572  0.0423
  728MOL0     C96026   0.839   8.334  10.406  1.0635 -0.4256 -0.4754
  728MOL0     C96027   0.774   8.327  10.541  0.1955  1.0637 -0.3676
  728MOL0     C96028   0.743   8.341  10.664 -0.0363 -0.4242  0.1374
  728MOL0     C96029   1.261   8.469  10.423  1.0570 -0.4000  0.2090
  728MOL0     C96030   1.381   8.516  10.466  0.2053 -0.2093 -0.9350
  728MOL0     H96031   1.596   8.852  10.715 -0.1483 -0.6852  1.9654
  728MOL0     H96032   1.747   8.924  10.878  0.4928  0.8165 -2.0711
  728MOL0     H96033   2.123   8.667  10.970 -0.6742  0.4787 -1.1276
  728MOL0     H96034   2.155   8.811  11.044  1.7117 -3.0162  1.5273
  728MOL0     H96035   2.127   8.858  10.764 -0.0831 -1.1695 -1.0514
  728MOL0     H96036   2.250   8.732  10.775 -0.0087 -1.4535  0.6491
  728MOL0     H96037   2.398   8.841  10.889  0.2746  0.7983  0.3318
  728MOL0     H96038   2.293   8.968  10.946 -1.9466 -1.1181  0.3663
  728MOL0     H96039   2.382   8.920  10.654  0.3340  1.4784 -1.5201
  728MOL0     H96040   2.267   9.046  10.714  0.4160 -0.2723  0.6770
  728MOL0     H96041   2.548   9.017  10.812 -1.7906 -0.1347  2.7347
  728MOL0     H96042   2.426   9.146  10.841 -1.7627 -0.9862 -0.1710
  728MOL0     H96043   2.460   9.205  10.584 -0.0793  0.0737 -1.0767
  728MOL0     H96044   2.553   9.059  10.574 -4.3302 -3.8574  1.9766
  728MOL0     H96045   2.727   9.190  10.743 -0.0417  0.0261  0.2225
  728MOL0     H96046   2.711   9.262  10.583  0.5859  0.8152  0.1541
  728MOL0     H96047   2.532   9.363  10.800  0.2509 -2.5292  0.7862
  728MOL0     H96048   2.600   9.431  10.648 -1.9931 -0.8286 -0.9185
  728MOL0     H96049   2.620   9.587  10.908  0.1593 -0.2483 -0.3798
  728MOL0     H96050   2.898   9.652  11.166 -2.3400 -1.7348  2.6092
  728MOL0     H96051   2.731   9.689  11.128 -0.4662  1.3162 -0.6692
  728MOL0     H96052   2.776   9.835  10.939 -0.9302  2.0111  0.4307
  728MOL0     H96053   2.945   9.790  10.937  0.2250 -0.9182  0.7973
  728MOL0     H96054   2.815   9.910  11.173 -0.6331  1.9635 -0.4852
  728MOL0     H96055   2.991   9.871  11.156  0.1564 -1.4512 -0.7037
  728MOL0     H96056   2.904  10.115  11.129 -1.3580  1.1325 -1.9537
  728MOL0     H96057   2.843  10.051  10.973 -0.0934  2.3685  0.1877
  728MOL0     H96058   3.282  10.073  10.902  2.3244  1.6690  1.5198
  728MOL0     H96059   3.394  10.279  10.830  0.9656  2.3496  3.1131
  728MOL0     H96060   3.586  10.516  10.867 -0.9171 -1.6659 -0.7141
  728MOL0     H96061   3.772  10.690  10.840  1.9586  1.0126 -2.0398
  728MOL0     H96062   3.822  10.954  10.791  1.8937 -2.3921 -2.6466
  728MOL0     H96063   3.714  11.046  10.678 -1.6447 -1.1052  1.2873
  728MOL0     H96064   3.933  11.065  10.535  2.7807 -0.4711  0.8766
  728MOL0     H96065   4.015  10.966  10.637 -0.3683  0.1299 -1.1187
  728MOL0     H96066   4.092  11.170  10.710 -0.4292  2.5332  1.7988
  728MOL0     H96067   3.983  11.112  10.833 -1.8123 -1.5945 -0.0671
  728MOL0     H96068   3.943  11.293  10.601 -0.7153  0.5219  0.4558
  728MOL0     H96069   3.806  11.248  10.717  0.8794 -1.8566  1.3664
  728MOL0     H96070   3.876  11.494  10.752  0.1841  0.2550 -1.3670
  728MOL0     H96071   4.033  11.429  10.797 -0.3384  1.1999 -5.9462
  728MOL0     H96072   3.920  11.307  10.998 -0.1136 -0.5950 -0.4065
  728MOL0     H96073   3.771  11.361  10.923  0.8576  0.3010 -1.3164
  728MOL0     H96074   3.974  11.520  11.065  0.6438 -2.5987  0.4188
  728MOL0     H96075   3.869  11.596  10.945  0.1839 -0.1975  0.5526
  728MOL0     H96076   3.669  11.531  11.064  0.3880  1.4277  0.0931
  728MOL0     H96077   3.778  11.596  11.189  0.8341 -1.0700  0.2571
  728MOL0     H96078   3.559  10.860  10.500  0.1313 -0.2274 -0.7510
  728MOL0     H96079   3.377  10.685  10.545 -0.5691  0.2363  0.0971
  728MOL0     H96080   3.024  10.499  10.903 -1.9189 -2.0642  2.2169
  728MOL0     H96081   2.917  10.294  10.954 -0.8077 -3.4535 -0.3393
  728MOL0     H96082   2.020   8.596  10.783 -1.2749 -0.6916 -2.9839
  728MOL0     H96083   1.870   8.521  10.614  2.4391  0.6412 -1.2963
  728MOL0     H96084   1.448   8.725  10.207 -0.9989 -0.1835 -0.9786
  728MOL0     H96085   1.215   8.656  10.149 -2.9635  3.6394  1.7812
  728MOL0     H96086   1.021   8.550  10.084  2.1686  1.0095  0.6694
  728MOL0     H96087   0.992   8.650  10.225  1.3851 -0.0498  0.1891
  728MOL0     H96088   0.803   8.511  10.123  0.2855 -1.9968 -0.2473
  728MOL0     H96089   0.885   8.374  10.183  0.6678 -1.1932  4.4110
  728MOL0     H96090   0.689   8.489  10.342  0.2066 -1.3963  1.7852
  728MOL0     H96091   0.843   8.553  10.408  0.9647 -1.5040  0.5737
  728MOL0     H96092   0.789   8.262  10.341 -0.9386  2.8109 -2.8157
  728MOL0     H96093   0.946   8.310  10.408  0.7020 -2.3890 -1.8626
  728MOL0     H96094   0.708   8.354  10.764 -2.3017 -1.2993 -0.4934
  728MOL0     H96095   1.202   8.394  10.475 -1.0221 -0.7621 -2.4338
  728MOL0     H96096   1.397   8.472  10.563 -1.8603  1.3078  0.1730
  729MOL0     O96097  11.318   7.775   8.916  0.5476 -0.0308 -0.2653
  729MOL0     C96098  11.350   7.851   8.829 -0.5743 -0.3039 -0.5583
  729MOL0     O96099  11.476   7.859   8.768 -0.4965  0.4261 -0.2336
  729MOL0     C96100  11.565   7.762   8.813 -0.4882  0.5492 -0.3900
  729MOL0     C96101  11.707   7.796   8.811  0.7330  0.5116 -1.0434
  729MOL0     C96102  11.807   7.694   8.813  0.0244  0.0234  0.2665
  729MOL0     C96103  11.777   7.559   8.820 -0.1151  0.9560  0.3760
  729MOL0     O96104  11.894   7.484   8.813  0.7420  0.2244  0.1573
  729MOL0     C96105  11.881   7.343   8.847  0.6544 -0.6606  0.6108
  729MOL0     C96106  12.017   7.292   8.886  0.4235 -0.0935  0.3157
  729MOL0     C96107  12.107   7.261   8.769 -0.5352 -0.6071  0.2446
  729MOL0     C96108  12.252   7.234   8.816 -0.3376  0.5738 -0.4133
  729MOL0     C96109  12.342   7.223   8.689 -0.0705  0.0649 -0.3404
  729MOL0     C96110  12.479   7.165   8.716 -0.1403  0.5305  0.9020
  729MOL0     C96111  12.558   7.147   8.587 -0.2679  0.6947  1.0319
  729MOL0     C96112  12.615   7.278   8.526 -0.5815  1.0335 -1.0832
  729MOL0     N96113  12.715   7.243   8.423  0.6687 -1.3672  0.0606
  729MOL0     C96114  12.721   7.302   8.299 -0.4356  0.3887  0.2127
  729MOL0     C96115  12.821   7.237   8.233 -0.2345  0.6572 -0.5349
  729MOL0     C96116  12.856   7.260   8.084  0.5552  0.3067 -1.2157
  729MOL0     C96117  12.746   7.200   7.989  0.0339  0.0124  0.2616
  729MOL0     C96118  12.722   7.049   8.011 -0.2788  0.1890  0.6062
  729MOL0     C96119  12.849   6.953   8.007  0.4816  0.7134  0.2252
  729MOL0     O96120  12.900   6.964   7.872  0.2933 -1.1965 -0.2059
  729MOL0     C96121  12.965   6.859   7.811  0.3861 -1.0197 -0.2218
  729MOL0     C96122  12.930   6.714   7.820 -0.0700  0.4635  0.2000
  729MOL0     C96123  12.989   6.626   7.741  0.3346  0.6784 -0.5182
  729MOL0     C96124  13.086   6.663   7.656  0.5659 -0.1023  0.3226
  729MOL0     C96125  13.150   6.560   7.570 -0.5289 -0.9499  1.3491
  729MOL0     O96126  13.281   6.584   7.524  0.2821  0.6986  0.2982
  729MOL0     C96127  13.323   6.485   7.437 -0.7017 -0.2408  0.5479
  729MOL0     C96128  13.448   6.410   7.451 -0.4634 -0.2192  0.6124
  729MOL0     C96129  13.506   6.326   7.352  0.5659  0.6677  0.1379
  729MOL0     C96130  13.442   6.322   7.222  0.0999  0.5902 -0.7810
  729MOL0     O96131  13.496   6.243   7.129 -0.4508  0.9131 -0.5363
  729MOL0     C96132  13.411   6.130   7.100 -0.0425  0.6879  0.1934
  729MOL0     C96133  13.472   6.001   7.146 -0.2611 -0.3473  0.4720
  729MOL0     C96134  13.375   5.882   7.118 -0.0754 -0.4693  0.1414
  729MOL0     C96135  13.447   5.746   7.116 -0.4800  0.4485 -0.2022
  729MOL0     C96136  13.352   5.626   7.083  0.9525 -0.2288 -0.6015
  729MOL0     C96137  13.431   5.501   7.074 -0.5308 -0.6869 -0.6610
  729MOL0     C96138  13.352   5.380   7.070  0.0899 -0.1521 -0.3259
  729MOL0     C96139  13.445   5.263   7.062  0.5543  0.1432  0.6689
  729MOL0    Cl96140  13.518   5.229   7.227 -0.2285  0.2820  0.4136
  729MOL0     C96141  13.316   6.385   7.204 -0.0667 -0.4169  0.1066
  729MOL0     C96142  13.262   6.461   7.310 -0.0434 -0.0412 -1.0008
  729MOL0     O96143  13.098   6.452   7.561  0.2588 -0.2703 -0.1681
  729MOL0     C96144  13.121   6.796   7.646  0.1462 -0.2505  0.1435
  729MOL0     C96145  13.070   6.901   7.725 -0.3609 -0.0931 -0.0017
  729MOL0     N96146  12.879   7.151   8.320 -0.2992 -0.6509  0.1476
  729MOL0     N96147  12.813   7.151   8.435 -0.7449 -0.7896 -0.0768
  729MOL0     C96148  11.638   7.525   8.809  0.1267  0.8209  0.4935
  729MOL0     C96149  11.537   7.621   8.806  0.0623  0.9040  0.2307
  729MOL0     C96150  11.240   7.933   8.781  0.5445 -0.8274 -0.6123
  729MOL0     C96151  11.110   7.910   8.832  0.5904  0.5015 -0.9117
  729MOL0     C96152  11.010   7.995   8.783  0.4843 -1.0542  0.7422
  729MOL0     C96153  11.039   8.113   8.715  0.5535  0.2756 -0.2535
  729MOL0     O96154  10.948   8.211   8.701  0.5604 -0.5634  0.9818
  729MOL0     C96155  10.833   8.215   8.776 -0.2639  0.7031  0.3330
  729MOL0     C96156  10.784   8.367   8.772  0.1667  0.2110  0.2595
  729MOL0     C96157  10.642   8.383   8.836 -1.0165 -0.7222 -0.2568
  729MOL0     C96158  10.535   8.311   8.763 -0.2500  0.7506  0.1219
  729MOL0     C96159  10.516   8.369   8.633 -1.0358  0.8206  0.0113
  729MOL0     C96160  10.505   8.414   8.526  0.2606  0.1055  0.3975
  729MOL0     C96161  11.163   8.124   8.653 -0.4904 -0.8334  0.1546
  729MOL0     C96162  11.265   8.039   8.693  0.8101 -0.4110 -0.0115
  729MOL0     H96163  11.729   7.900   8.788 -3.2229  1.7353 -0.0474
  729MOL0     H96164  11.910   7.727   8.815 -0.4193  1.6713 -1.2686
  729MOL0     H96165  11.833   7.287   8.767  2.3289  1.9094 -2.4375
  729MOL0     H96166  11.809   7.351   8.928  0.0224  0.4100 -0.0324
  729MOL0     H96167  11.991   7.196   8.933  0.8495 -1.3258 -1.8468
  729MOL0     H96168  12.064   7.353   8.964  1.8167  0.2872 -0.7764
  729MOL0     H96169  12.113   7.345   8.700  1.1276 -1.1783 -0.3483
  729MOL0     H96170  12.061   7.181   8.711 -0.8569  0.3798 -0.8919
  729MOL0     H96171  12.291   7.302   8.892  0.1173 -3.0718  2.9499
  729MOL0     H96172  12.262   7.141   8.873 -2.2537 -0.6064 -1.8607
  729MOL0     H96173  12.352   7.324   8.647  4.1147 -0.6346 -1.4436
  729MOL0     H96174  12.284   7.160   8.621 -6.1027  3.3073  1.0751
  729MOL0     H96175  12.459   7.069   8.764 -1.1258 -0.3035 -1.0381
  729MOL0     H96176  12.537   7.229   8.783  2.6305 -1.9195  1.0561
  729MOL0     H96177  12.644   7.089   8.619 -1.5081 -0.0695  3.2059
  729MOL0     H96178  12.489   7.097   8.518  0.2909  0.5621  0.5687
  729MOL0     H96179  12.667   7.335   8.603 -1.9863  2.8891 -1.4271
  729MOL0     H96180  12.538   7.350   8.499 -1.1881  1.4799  1.6150
  729MOL0     H96181  12.652   7.363   8.242  0.4940 -0.3634 -1.8019
  729MOL0     H96182  12.959   7.226   8.070  0.6270 -0.9755  1.6527
  729MOL0     H96183  12.841   7.366   8.064 -3.5725  0.4656  1.4903
  729MOL0     H96184  12.769   7.200   7.882 -2.0534 -1.0586 -0.2455
  729MOL0     H96185  12.655   7.254   8.015 -0.6868 -1.0703  0.0811
  729MOL0     H96186  12.668   7.029   8.104  1.6042 -3.2136  1.1057
  729MOL0     H96187  12.651   7.008   7.938  2.2250 -0.7753 -1.4151
  729MOL0     H96188  12.822   6.849   8.032 -1.3112  0.8957 -0.7690
  729MOL0     H96189  12.922   6.980   8.084  2.2265  2.0867 -1.8103
  729MOL0     H96190  12.841   6.701   7.881 -2.2514  3.6969 -1.8936
  729MOL0     H96191  12.955   6.525   7.759  1.8083 -0.6048 -4.0865
  729MOL0     H96192  13.487   6.416   7.552  2.4669  0.0726 -0.4220
  729MOL0     H96193  13.595   6.273   7.386 -0.1762  0.0382  1.1488
  729MOL0     H96194  13.393   6.131   6.992  1.2594 -2.9563 -0.1694
  729MOL0     H96195  13.313   6.123   7.148  0.0721 -1.7904  0.1568
  729MOL0     H96196  13.512   6.005   7.248 -1.9707 -0.8615  1.1989
  729MOL0     H96197  13.559   5.995   7.080  0.7022  0.6925  1.6229
  729MOL0     H96198  13.326   5.892   7.020  2.2671  0.0198 -1.0448
  729MOL0     H96199  13.302   5.877   7.199 -1.9417 -0.1159 -1.4282
  729MOL0     H96200  13.522   5.753   7.037  1.2652 -2.4883  1.0151
  729MOL0     H96201  13.491   5.739   7.217 -0.8994  2.1281  0.1301
  729MOL0     H96202  13.313   5.650   6.983  2.2579  0.9798 -0.8435
  729MOL0     H96203  13.273   5.621   7.159 -1.4845  1.1593 -2.8545
  729MOL0     H96204  13.493   5.488   7.163 -0.6742 -2.4915 -0.7832
  729MOL0     H96205  13.492   5.516   6.985  1.0113  2.9229  0.8087
  729MOL0     H96206  13.296   5.365   7.163 -0.8273 -0.4047 -0.9082
  729MOL0     H96207  13.287   5.381   6.982  1.5321 -0.2283 -1.4305
  729MOL0     H96208  13.522   5.291   6.990  1.8301 -0.7816  1.6047
  729MOL0     H96209  13.389   5.175   7.029  1.2856 -0.1341  0.1236
  729MOL0     H96210  13.267   6.378   7.108 -1.1571  2.6561  0.3036
  729MOL0     H96211  13.166   6.507   7.289  0.0514  0.5175 -0.2671
  729MOL0     H96212  13.202   6.819   7.578 -0.9104 -0.8524 -1.3743
  729MOL0     H96213  13.110   7.001   7.714 -1.2688  0.3002  0.1659
  729MOL0     H96214  11.616   7.419   8.794 -0.9325  1.1510 -0.4514
  729MOL0     H96215  11.432   7.598   8.790 -0.5647  1.6478  2.7783
  729MOL0     H96216  11.085   7.834   8.906 -1.8070  2.1577  0.1124
  729MOL0     H96217  10.906   7.973   8.804 -1.5215  4.6621 -1.1981
  729MOL0     H96218  10.857   8.181   8.877  0.2135 -1.3520 -0.4195
  729MOL0     H96219  10.756   8.153   8.728 -0.9468  1.2421  0.7196
  729MOL0     H96220  10.859   8.424   8.828  0.0122 -0.1493  0.8358
  729MOL0     H96221  10.779   8.403   8.669  0.0670  0.6591  0.4203
  729MOL0     H96222  10.616   8.489   8.843 -0.2020 -0.5186 -0.1736
  729MOL0     H96223  10.643   8.346   8.939 -2.8377  1.3716  0.5984
  729MOL0     H96224  10.563   8.205   8.763  2.2504  1.3237  1.6320
  729MOL0     H96225  10.442   8.321   8.820  0.6194 -1.4425  2.0863
  729MOL0     H96226  10.512   8.450   8.426 -2.3562  3.9070  1.3733
  729MOL0     H96227  11.179   8.203   8.580 -1.6939 -2.2428 -1.7279
  729MOL0     H96228  11.357   8.063   8.641 -0.0277  2.2790 -0.4541
  730MOL0     O96229   4.636   4.542   2.042 -0.0604 -0.5152 -0.3609
  730MOL0     C96230   4.714   4.540   2.133  1.5367 -0.5062  0.5040
  730MOL0     O96231   4.739   4.431   2.208  0.0032  0.2619  1.2735
  730MOL0     C96232   4.648   4.346   2.250  0.5181  1.1433  0.2448
  730MOL0     C96233   4.512   4.364   2.262 -0.5214 -0.3119 -0.4254
  730MOL0     C96234   4.426   4.249   2.293 -1.2863 -0.9714  0.0324
  730MOL0     C96235   4.486   4.124   2.314  0.0885 -0.2411  0.5195
  730MOL0     O96236   4.405   4.015   2.357 -0.1923  0.2022 -0.3635
  730MOL0     C96237   4.388   3.990   2.501 -0.1310 -0.6299  0.9403
  730MOL0     C96238   4.351   4.104   2.590  0.4622 -0.0211 -0.4466
  730MOL0     C96239   4.319   4.045   2.726 -0.3485 -0.1017  0.1797
  730MOL0     C96240   4.269   4.155   2.824 -0.4102  0.6416 -0.0647
  730MOL0     C96241   4.135   4.216   2.785  0.9631  0.0686 -0.1370
  730MOL0     C96242   4.021   4.119   2.825 -0.0111 -0.6883  0.6830
  730MOL0     C96243   3.879   4.170   2.786  0.1553 -0.2862  0.7028
  730MOL0     C96244   3.783   4.193   2.904 -1.8028 -0.3621 -0.7753
  730MOL0     N96245   3.726   4.060   2.958 -1.0805  0.1176  0.1139
  730MOL0     C96246   3.599   4.034   3.011  0.2837  0.6312  0.6421
  730MOL0     C96247   3.608   3.912   3.077  0.6202  0.1387  1.2340
  730MOL0     C96248   3.483   3.839   3.133  1.0893 -0.0535 -0.0139
  730MOL0     C96249   3.474   3.891   3.274  0.1126 -0.4037 -0.2893
  730MOL0     C96250   3.333   3.886   3.327 -0.9382  0.2203 -0.5161
  730MOL0     C96251   3.285   3.742   3.347  0.4664  0.9563  1.3897
  730MOL0     O96252   3.365   3.664   3.436 -0.1710 -0.2079  0.8261
  730MOL0     C96253   3.384   3.697   3.570 -0.1423 -0.6189  0.0274
  730MOL0     C96254   3.492   3.750   3.621 -0.6528  0.8067 -0.1093
  730MOL0     C96255   3.502   3.788   3.752 -0.5564 -0.0161  0.1720
  730MOL0     C96256   3.400   3.757   3.845 -0.2779  0.2007  0.4212
  730MOL0     C96257   3.396   3.799   3.989 -0.8838  0.0654  0.8686
  730MOL0     O96258   3.324   3.726   4.070 -0.3258  0.1044  1.0154
  730MOL0     C96259   3.346   3.745   4.206  0.1944  0.5756  0.0155
  730MOL0     C96260   3.237   3.776   4.290  0.1978 -0.2369 -0.4864
  730MOL0     C96261   3.262   3.794   4.426  0.1612 -1.3211 -0.6359
  730MOL0     C96262   3.390   3.804   4.477 -0.7929 -0.5391  0.7724
  730MOL0     O96263   3.410   3.821   4.613  0.1076  0.1236 -0.7161
  730MOL0     C96264   3.395   3.696   4.688 -0.2723 -0.7099  1.6276
  730MOL0     C96265   3.448   3.704   4.827 -0.4557  0.4415 -0.3990
  730MOL0     C96266   3.599   3.735   4.809  0.3392  0.2039  0.2504
  730MOL0     C96267   3.684   3.759   4.944  0.6835  0.2860 -0.3845
  730MOL0     C96268   3.834   3.764   4.926 -0.2882 -0.1860 -0.4621
  730MOL0     C96269   3.886   3.627   4.884 -0.7055  0.5801 -0.1776
  730MOL0     C96270   4.029   3.637   4.839 -0.2333  0.6631  0.0902
  730MOL0     C96271   4.081   3.499   4.787  0.6123  0.2835  0.5835
  730MOL0    Cl96272   4.100   3.366   4.908  0.3389  0.1191  0.3902
  730MOL0     C96273   3.501   3.776   4.389  1.0595 -0.0736  0.0136
  730MOL0     C96274   3.473   3.742   4.264 -0.6388 -0.3331 -0.0429
  730MOL0     O96275   3.465   3.894   4.026 -0.1319 -0.4371 -0.6030
  730MOL0     C96276   3.298   3.683   3.791  0.0549 -0.1679  0.8631
  730MOL0     C96277   3.282   3.661   3.655  0.8083 -1.2154 -0.1959
  730MOL0     N96278   3.733   3.874   3.048  0.9568  0.1736  0.7966
  730MOL0     N96279   3.807   3.952   2.988  0.3149 -0.3004 -0.6244
  730MOL0     C96280   4.616   4.111   2.313  0.1992 -1.1035  0.1932
  730MOL0     C96281   4.704   4.220   2.278  0.1507  0.2067 -0.6013
  730MOL0     C96282   4.782   4.670   2.157 -0.5480 -0.6803  0.2610
  730MOL0     C96283   4.770   4.777   2.059 -0.2401  0.4399 -0.7101
  730MOL0     C96284   4.846   4.892   2.064 -0.0406 -0.3141  0.1261
  730MOL0     C96285   4.938   4.911   2.168 -0.0241  0.2144 -0.5838
  730MOL0     O96286   4.973   5.037   2.209  0.3525  0.2218 -0.2918
  730MOL0     C96287   4.894   5.093   2.318  0.5328  0.3998  0.0123
  730MOL0     C96288   4.746   5.052   2.330 -0.5944 -1.3998  0.8429
  730MOL0     C96289   4.678   5.112   2.454  0.5368 -0.1586  0.2467
  730MOL0     C96290   4.534   5.054   2.456 -0.1810  0.7457 -0.2446
  730MOL0     C96291   4.519   4.910   2.478  0.7102 -0.4233 -0.4427
  730MOL0     C96292   4.504   4.793   2.499 -0.3048  0.5311  0.4008
  730MOL0     C96293   4.967   4.805   2.249  0.8019  1.5048 -0.0002
  730MOL0     C96294   4.887   4.685   2.248  0.1296 -0.5291 -0.7583
  730MOL0     H96295   4.459   4.459   2.258 -1.9716 -1.0917 -0.3548
  730MOL0     H96296   4.323   4.273   2.316 -0.9813 -0.8246  1.3276
  730MOL0     H96297   4.478   3.936   2.530  1.3734 -0.3501 -2.7150
  730MOL0     H96298   4.294   3.934   2.504  0.0050 -0.8956  4.0134
  730MOL0     H96299   4.269   4.162   2.546 -1.3290  0.3689  3.0560
  730MOL0     H96300   4.434   4.174   2.594 -0.3548  1.0579  4.4976
  730MOL0     H96301   4.416   4.008   2.762  0.1797  2.5165  1.7477
  730MOL0     H96302   4.246   3.964   2.716 -2.2624  1.7473 -1.9481
  730MOL0     H96303   4.268   4.112   2.924 -1.4534 -0.6576 -0.6070
  730MOL0     H96304   4.338   4.240   2.817 -1.6521  1.5452 -2.7883
  730MOL0     H96305   4.120   4.249   2.681 -0.2543 -0.9380 -0.3067
  730MOL0     H96306   4.140   4.305   2.848  3.4551 -0.2096  0.1679
  730MOL0     H96307   4.012   4.098   2.932 -3.2784  0.7914  0.8104
  730MOL0     H96308   4.050   4.025   2.778  0.9492  0.3961 -1.0122
  730MOL0     H96309   3.878   4.262   2.727  1.8313 -0.0587  0.9884
  730MOL0     H96310   3.836   4.087   2.729 -1.6480  0.4271  0.9452
  730MOL0     H96311   3.702   4.261   2.876 -2.1887 -1.0984 -1.4933
  730MOL0     H96312   3.845   4.238   2.982 -0.4339 -0.6027 -1.6899
  730MOL0     H96313   3.515   4.103   3.006  0.9589  1.9158  3.9980
  730MOL0     H96314   3.509   3.733   3.126  3.2004  0.4929 -1.1028
  730MOL0     H96315   3.390   3.852   3.077 -1.1438 -1.5398  3.0587
  730MOL0     H96316   3.515   3.990   3.293 -1.4480  0.2727 -0.3004
  730MOL0     H96317   3.528   3.823   3.340  1.9912  0.9852 -0.3294
  730MOL0     H96318   3.344   3.929   3.427 -3.7114  0.4145 -0.2138
  730MOL0     H96319   3.263   3.939   3.261 -2.2051 -0.1878  0.4522
  730MOL0     H96320   3.296   3.686   3.254 -3.4553  2.8144 -0.4525
  730MOL0     H96321   3.188   3.724   3.394  1.8229 -0.3383  3.9264
  730MOL0     H96322   3.577   3.788   3.565 -1.0217  1.3823 -0.2925
  730MOL0     H96323   3.584   3.853   3.780 -0.9925  2.6260 -3.7655
  730MOL0     H96324   3.136   3.798   4.257 -0.4387  1.0300  2.0729
  730MOL0     H96325   3.176   3.809   4.490 -1.0887  1.0267 -2.6888
  730MOL0     H96326   3.443   3.618   4.628  1.7410  0.7177  1.2965
  730MOL0     H96327   3.291   3.664   4.702 -0.8317 -0.0267 -0.4578
  730MOL0     H96328   3.435   3.614   4.888 -1.7639  0.3431 -0.7935
  730MOL0     H96329   3.406   3.783   4.891  0.7121  0.4011  0.4407
  730MOL0     H96330   3.614   3.818   4.739 -0.1277 -0.0543 -0.1580
  730MOL0     H96331   3.641   3.650   4.755  0.6669  1.3664 -1.3919
  730MOL0     H96332   3.656   3.850   4.997  3.6542  1.2696 -0.3018
  730MOL0     H96333   3.659   3.678   5.014  3.8024 -3.7087 -3.3858
  730MOL0     H96334   3.877   3.808   5.016  0.5576 -3.1177  0.6684
  730MOL0     H96335   3.856   3.829   4.840 -0.8168 -2.4617 -2.4220
  730MOL0     H96336   3.836   3.590   4.795  3.8194 -0.8980 -2.4111
  730MOL0     H96337   3.863   3.554   4.962 -3.8896  0.4550 -1.1022
  730MOL0     H96338   4.039   3.714   4.762 -2.9366  0.2533 -0.7790
  730MOL0     H96339   4.086   3.658   4.930 -0.7804  1.6366  0.2158
  730MOL0     H96340   4.182   3.504   4.745  0.2666  2.5452 -0.0810
  730MOL0     H96341   4.010   3.463   4.713  1.8152  3.5097 -2.3710
  730MOL0     H96342   3.602   3.784   4.428  2.1532  0.1990 -2.6389
  730MOL0     H96343   3.560   3.721   4.202 -0.4391  0.7093 -0.1369
  730MOL0     H96344   3.208   3.658   3.847 -4.1374  0.3622 -4.6643
  730MOL0     H96345   3.208   3.593   3.614 -0.3671  2.7229 -5.6426
  730MOL0     H96346   4.671   4.018   2.327  2.1443 -0.4086 -2.1816
  730MOL0     H96347   4.812   4.212   2.279  0.1214 -0.2842 -1.1469
  730MOL0     H96348   4.703   4.782   1.974  0.0290  1.9685 -0.8643
  730MOL0     H96349   4.835   4.970   1.989  2.4028  0.7719  0.8021
  730MOL0     H96350   4.905   5.202   2.322  0.3229  0.4295  3.8808
  730MOL0     H96351   4.937   5.074   2.417 -0.5551  1.5272  0.7380
  730MOL0     H96352   4.686   5.064   2.239 -0.5515 -1.8118  0.7568
  730MOL0     H96353   4.750   4.944   2.349 -1.8654 -2.0757 -2.1699
  730MOL0     H96354   4.678   5.221   2.451  3.9554 -0.0580  0.7681
  730MOL0     H96355   4.740   5.092   2.542  0.5811 -2.5776 -0.2752
  730MOL0     H96356   4.501   5.097   2.552 -2.2149 -1.7645  0.2903
  730MOL0     H96357   4.473   5.081   2.370  0.4750 -2.4768 -1.8361
  730MOL0     H96358   4.485   4.690   2.525 -2.1375  0.7260 -0.0328
  730MOL0     H96359   5.046   4.814   2.324  0.1411 -1.3235  1.1373
  730MOL0     H96360   4.902   4.623   2.336 -1.3603  2.5734  1.9401
  731MOL0     O96361   7.649   8.123   1.587 -0.0416 -0.3672 -0.3849
  731MOL0     C96362   7.589   8.227   1.622 -0.3089 -0.7778  0.2995
  731MOL0     O96363   7.566   8.339   1.542 -0.6142 -0.3641 -0.3810
  731MOL0     C96364   7.623   8.343   1.416  0.2694 -0.3340 -0.3409
  731MOL0     C96365   7.594   8.238   1.329 -0.8391  0.1272  0.1849
  731MOL0     C96366   7.633   8.239   1.195 -0.5366 -0.2869 -0.2619
  731MOL0     C96367   7.715   8.340   1.152  0.6425 -0.4571 -0.3409
  731MOL0     O96368   7.773   8.328   1.029  0.6849 -0.4371 -1.2143
  731MOL0     C96369   7.769   8.442   0.947 -0.0790 -0.1194 -0.3361
  731MOL0     C96370   7.828   8.407   0.814  0.3329 -0.5885 -0.6800
  731MOL0     C96371   7.974   8.400   0.838 -0.4475  1.5274  0.6028
  731MOL0     C96372   8.040   8.394   0.698  0.4000  0.1680  0.5375
  731MOL0     C96373   8.172   8.328   0.694  0.2262  0.6232 -0.0666
  731MOL0     C96374   8.279   8.400   0.778  0.2757 -0.4099 -0.3808
  731MOL0     C96375   8.421   8.332   0.747  0.0071 -0.6465 -0.3312
  731MOL0     C96376   8.539   8.429   0.705 -0.9489 -0.3984  0.3752
  731MOL0     N96377   8.527   8.554   0.783 -0.6567 -0.3283 -0.3171
  731MOL0     C96378   8.551   8.682   0.728 -0.3451 -0.7501  0.2582
  731MOL0     C96379   8.523   8.768   0.832  0.0757 -0.3860  0.0296
  731MOL0     C96380   8.544   8.916   0.812  1.0691  0.5006 -0.4366
  731MOL0     C96381   8.684   8.950   0.799 -0.6094 -1.1549 -0.3904
  731MOL0     C96382   8.718   9.094   0.841 -0.1865 -0.0020 -0.5119
  731MOL0     C96383   8.630   9.210   0.774 -0.4400  0.3371  0.2594
  731MOL0     O96384   8.672   9.328   0.840 -0.8393 -0.5155  0.2150
  731MOL0     C96385   8.605   9.391   0.940 -0.4361 -0.7008  0.0520
  731MOL0     C96386   8.489   9.345   1.005 -0.3149 -0.2076  0.4570
  731MOL0     C96387   8.427   9.418   1.110  0.2727 -0.4068  0.0406
  731MOL0     C96388   8.482   9.535   1.154 -0.2545 -0.7522  0.0413
  731MOL0     C96389   8.436   9.608   1.269  0.2533  0.3568 -0.7341
  731MOL0     O96390   8.503   9.721   1.307 -0.2698  0.9914  0.1694
  731MOL0     C96391   8.495   9.766   1.431 -0.1839 -0.3168  0.0504
  731MOL0     C96392   8.391   9.849   1.487  0.1935 -0.8241  0.0820
  731MOL0     C96393   8.396   9.880   1.625 -0.0914  0.4046 -0.5087
  731MOL0     C96394   8.498   9.843   1.706 -0.5543  1.3451  0.8567
  731MOL0     O96395   8.509   9.878   1.837  0.2675 -0.6897 -0.4366
  731MOL0     C96396   8.412   9.977   1.890  0.1276 -0.3182  0.1413
  731MOL0     C96397   8.443  10.026   2.036  0.5976  0.7661  0.3953
  731MOL0     C96398   8.576  10.093   2.049  0.6020 -0.3768  0.8499
  731MOL0     C96399   8.590  10.237   1.976 -0.2436  0.2543  0.2810
  731MOL0     C96400   8.720  10.315   1.981  0.2817  0.4887  0.2008
  731MOL0     C96401   8.835  10.242   1.898 -0.6179 -1.1283 -0.5684
  731MOL0     C96402   8.956  10.326   1.902  0.3907  0.6420 -0.6872
  731MOL0     C96403   9.077  10.256   1.833  0.0173  0.6043 -0.4005
  731MOL0    Cl96404   9.050  10.217   1.656 -0.2278 -0.1307 -0.2062
  731MOL0     C96405   8.590   9.755   1.649  0.2579  0.0893 -0.2246
  731MOL0     C96406   8.589   9.712   1.519  0.8855 -1.2542 -0.8986
  731MOL0     O96407   8.349   9.553   1.333  0.4853 -0.3622  0.1772
  731MOL0     C96408   8.606   9.579   1.092 -0.3563 -0.4678 -1.1037
  731MOL0     C96409   8.664   9.509   0.986  0.2170  0.2485 -0.9780
  731MOL0     N96410   8.480   8.693   0.945 -0.4979  0.2611 -0.8324
  731MOL0     N96411   8.482   8.567   0.910  0.4197 -0.5540  0.1953
  731MOL0     C96412   7.764   8.428   1.241  0.4196 -0.5501  0.3948
  731MOL0     C96413   7.720   8.436   1.379 -0.5802 -0.0247  0.1318
  731MOL0     C96414   7.529   8.227   1.760  0.4101  0.0581  0.6792
  731MOL0     C96415   7.538   8.119   1.849  0.1986 -0.0045  0.2734
  731MOL0     C96416   7.474   8.126   1.974 -0.5905  0.4957  0.0583
  731MOL0     C96417   7.376   8.222   2.002  1.7301 -0.0359  0.2112
  731MOL0     O96418   7.298   8.216   2.120  0.2276 -1.0416  0.7295
  731MOL0     C96419   7.215   8.101   2.133 -0.2384 -1.0514  1.1757
  731MOL0     C96420   7.168   8.085   2.271 -0.1466  0.5900 -0.4427
  731MOL0     C96421   7.123   7.945   2.311 -0.6315 -0.9394 -0.8741
  731MOL0     C96422   7.004   7.899   2.226 -0.8026  0.3173  1.1296
  731MOL0     C96423   6.964   7.765   2.263  0.9851 -0.4052 -0.5090
  731MOL0     C96424   6.929   7.652   2.298 -0.2932  0.4256 -0.3747
  731MOL0     C96425   7.377   8.336   1.928 -0.0409 -0.0546  0.6991
  731MOL0     C96426   7.451   8.341   1.807 -0.1655 -0.1321 -0.2096
  731MOL0     H96427   7.519   8.171   1.371 -2.1936  1.9096  0.7321
  731MOL0     H96428   7.602   8.151   1.140  1.7276 -0.6916 -1.0098
  731MOL0     H96429   7.812   8.531   0.995  0.1123 -1.3729  1.9249
  731MOL0     H96430   7.666   8.477   0.945  0.2173  0.9227  1.2007
  731MOL0     H96431   7.795   8.487   0.746  0.1238  1.6887  1.9392
  731MOL0     H96432   7.791   8.307   0.790  1.8644 -1.4375  0.3856
  731MOL0     H96433   7.987   8.311   0.900 -1.0625  1.5529  0.7765
  731MOL0     H96434   8.023   8.479   0.897  0.3312  0.6639  1.1495
  731MOL0     H96435   7.976   8.357   0.618  1.3009  1.3965 -0.8091
  731MOL0     H96436   8.054   8.499   0.670 -1.7654  1.1345  2.6604
  731MOL0     H96437   8.209   8.313   0.592  2.0472 -4.5412  1.0759
  731MOL0     H96438   8.156   8.229   0.738 -1.0149 -0.9959 -3.7404
  731MOL0     H96439   8.256   8.396   0.884  0.0657  0.9600 -0.3589
  731MOL0     H96440   8.274   8.507   0.757 -0.5253 -0.7215 -1.9303
  731MOL0     H96441   8.446   8.283   0.841 -4.6268 -0.5312  1.1932
  731MOL0     H96442   8.401   8.265   0.663 -2.5058 -0.7293  0.2635
  731MOL0     H96443   8.536   8.456   0.599 -0.4992 -1.5632  0.0384
  731MOL0     H96444   8.631   8.379   0.738 -1.6816 -1.3506  1.0248
  731MOL0     H96445   8.578   8.701   0.625 -0.5758 -1.0090  0.1489
  731MOL0     H96446   8.505   8.967   0.901  0.3432 -0.5494 -0.1366
  731MOL0     H96447   8.485   8.959   0.731  1.4245  2.6241  0.3578
  731MOL0     H96448   8.711   8.929   0.696  2.1085 -0.3450  0.0836
  731MOL0     H96449   8.734   8.882   0.868 -0.9000 -3.9585 -2.7869
  731MOL0     H96450   8.709   9.096   0.950  3.4817 -0.7793 -0.0853
  731MOL0     H96451   8.822   9.120   0.819  0.5763 -1.6287  0.9260
  731MOL0     H96452   8.526   9.182   0.760  0.0818 -2.5567  1.4290
  731MOL0     H96453   8.666   9.219   0.671 -2.0737 -0.7891 -0.4464
  731MOL0     H96454   8.441   9.254   0.969 -2.2478  0.1731  1.8708
  731MOL0     H96455   8.334   9.374   1.144  1.4137 -1.4822  1.9577
  731MOL0     H96456   8.309   9.882   1.424  0.4788 -1.0724 -0.4333
  731MOL0     H96457   8.320   9.950   1.657 -0.1607 -0.7724  2.2239
  731MOL0     H96458   8.308   9.941   1.886 -0.4606  1.3715 -2.9892
  731MOL0     H96459   8.413  10.060   1.820  0.0838 -0.5620 -0.1505
  731MOL0     H96460   8.437   9.936   2.097  2.6061 -0.1170 -0.6212
  731MOL0     H96461   8.359  10.089   2.069  0.4553 -0.1005  1.7432
  731MOL0     H96462   8.653  10.043   1.989  0.2432 -0.9454  0.8522
  731MOL0     H96463   8.605  10.100   2.154 -3.0763 -1.0946  2.0655
  731MOL0     H96464   8.573  10.233   1.868  1.5308  2.8283 -0.1848
  731MOL0     H96465   8.501  10.292   2.008 -1.8196 -2.1623  0.3343
  731MOL0     H96466   8.761  10.337   2.080  1.2949  1.6624 -0.4300
  731MOL0     H96467   8.712  10.420   1.952  2.0407  1.3838  2.5948
  731MOL0     H96468   8.799  10.233   1.795  3.5978  1.5777 -2.5653
  731MOL0     H96469   8.853  10.139   1.932 -0.0726 -0.3190  1.8187
  731MOL0     H96470   8.940  10.424   1.856  0.0933  1.4203  0.9786
  731MOL0     H96471   8.982  10.358   2.004  0.7393 -0.1932 -0.5081
  731MOL0     H96472   9.125  10.177   1.891  5.3613  4.8839  2.0089
  731MOL0     H96473   9.164  10.322   1.842 -0.7302  1.2632  4.1656
  731MOL0     H96474   8.665   9.707   1.711  0.0045 -0.2216 -0.1507
  731MOL0     H96475   8.667   9.650   1.475  1.4121 -0.8784 -0.4922
  731MOL0     H96476   8.659   9.659   1.142  1.0819  0.2985 -3.6582
  731MOL0     H96477   8.752   9.539   0.931  0.4696  0.3885 -0.5075
  731MOL0     H96478   7.846   8.497   1.222  0.2791 -0.9404 -1.9055
  731MOL0     H96479   7.762   8.499   1.457 -1.9972 -3.3512  3.9743
  731MOL0     H96480   7.586   8.025   1.821  2.4722  0.3340  2.6105
  731MOL0     H96481   7.490   8.040   2.039  0.1847 -0.4613 -1.3582
  731MOL0     H96482   7.277   8.014   2.110  4.8975  2.1580  1.3915
  731MOL0     H96483   7.130   8.115   2.066 -1.5434  0.1411  2.9773
  731MOL0     H96484   7.256   8.117   2.328  1.9679 -7.3260  2.0010
  731MOL0     H96485   7.083   8.153   2.281  0.0982  0.7131  1.1782
  731MOL0     H96486   7.104   7.933   2.418  3.7623 -0.1788  0.2006
  731MOL0     H96487   7.207   7.880   2.284  0.5679  0.7938 -1.4600
  731MOL0     H96488   6.930   7.975   2.251 -1.0928  0.6196 -0.5387
  731MOL0     H96489   7.017   7.900   2.118  0.6595  0.7603  1.2756
  731MOL0     H96490   6.910   7.550   2.326 -0.9135  0.9146  1.0844
  731MOL0     H96491   7.337   8.431   1.963  4.9662  2.5420  0.4314
  731MOL0     H96492   7.431   8.431   1.750 -1.3632  0.2712  0.7895
  732MOL0     O96493  10.866   4.066   7.585 -0.4916 -0.1292 -0.3790
  732MOL0     C96494  10.985   4.048   7.562  0.3815  0.3882  0.0843
  732MOL0     O96495  11.052   4.063   7.447  0.1010  0.4638  0.3980
  732MOL0     C96496  10.982   4.114   7.346  0.1416 -0.3466  0.7509
  732MOL0     C96497  10.954   4.027   7.244  0.2070 -0.0817 -0.2840
  732MOL0     C96498  10.885   4.070   7.130  0.5269 -0.0349 -0.0600
  732MOL0     C96499  10.826   4.202   7.122 -0.3239  0.2617 -0.7592
  732MOL0     O96500  10.752   4.229   7.013  0.1383 -0.0959  0.3041
  732MOL0     C96501  10.727   4.368   6.979  0.4435  0.2960 -0.5357
  732MOL0     C96502  10.708   4.382   6.834  1.0401  0.2786 -1.0612
  732MOL0     C96503  10.836   4.386   6.755 -0.4632 -0.4633 -0.1922
  732MOL0     C96504  10.825   4.356   6.597 -0.1289 -0.1522 -0.7148
  732MOL0     C96505  10.737   4.474   6.537 -0.4575  0.2044  0.2573
  732MOL0     C96506  10.766   4.485   6.387  0.2786  1.2638  0.1154
  732MOL0     C96507  10.699   4.383   6.300  0.4333  0.4100  0.2059
  732MOL0     C96508  10.552   4.357   6.328 -0.1802  1.3491  1.0096
  732MOL0     N96509  10.494   4.273   6.221 -0.8336 -0.3077 -0.5436
  732MOL0     C96510  10.366   4.296   6.178 -0.3577 -0.0683  0.5657
  732MOL0     C96511  10.337   4.183   6.101  0.1811  0.4093  0.3397
  732MOL0     C96512  10.206   4.159   6.042  0.4294  0.7432 -0.9700
  732MOL0     C96513  10.213   4.184   5.888  0.7992  0.2417  0.4980
  732MOL0     C96514  10.268   4.063   5.810 -0.2449  0.2349  0.7362
  732MOL0     C96515  10.189   3.929   5.835 -0.5429  1.2881 -0.3704
  732MOL0     O96516  10.192   3.831   5.722 -0.6000 -0.2882 -0.2402
  732MOL0     C96517  10.159   3.883   5.598  0.5615  0.5656  0.5009
  732MOL0     C96518  10.065   3.988   5.583 -0.7626 -0.4494 -0.4479
  732MOL0     C96519  10.027   4.033   5.456 -0.6818  0.4200  0.4992
  732MOL0     C96520  10.095   3.981   5.341 -0.0278  0.3447  0.2168
  732MOL0     C96521  10.063   4.028   5.208  0.8252 -0.5045 -0.3655
  732MOL0     O96522   9.945   4.105   5.204  0.0453 -0.9953  0.5176
  732MOL0     C96523   9.888   4.134   5.082 -1.1487  0.5567  0.6139
  732MOL0     C96524   9.957   4.199   4.973  0.0498  0.1734 -0.1632
  732MOL0     C96525   9.902   4.218   4.845  0.5124 -0.1789 -1.4402
  732MOL0     C96526   9.778   4.173   4.826 -0.3773 -0.2788 -0.1068
  732MOL0     O96527   9.716   4.199   4.704 -0.3129 -0.2849 -0.5756
  732MOL0     C96528   9.630   4.315   4.717 -0.1393  0.8872  0.0912
  732MOL0     C96529   9.592   4.373   4.582  0.4758  0.4808  0.2178
  732MOL0     C96530   9.712   4.388   4.502  0.0665 -0.8240 -0.1643
  732MOL0     C96531   9.807   4.494   4.555  0.0047 -0.3246  0.0252
  732MOL0     C96532   9.885   4.580   4.448  1.6123 -0.2515  0.6563
  732MOL0     C96533  10.008   4.670   4.492  0.9604  0.7007  0.4481
  732MOL0     C96534  10.127   4.579   4.534  0.6150  0.6259 -0.0415
  732MOL0     C96535  10.225   4.644   4.634  0.4045 -0.1722  0.0291
  732MOL0    Cl96536  10.156   4.659   4.804  0.3920 -0.3293 -0.0178
  732MOL0     C96537   9.720   4.089   4.918  1.3777 -0.5832  0.1257
  732MOL0     C96538   9.769   4.065   5.045 -0.1812 -0.7353 -0.4838
  732MOL0     O96539  10.127   3.986   5.113 -0.6691 -0.3756 -0.2291
  732MOL0     C96540  10.184   3.879   5.366  0.4500 -1.3443  0.3116
  732MOL0     C96541  10.222   3.845   5.486  0.0749 -0.2241 -0.2920
  732MOL0     N96542  10.450   4.103   6.103  0.3317  0.4545  0.6385
  732MOL0     N96543  10.548   4.160   6.174  0.9537 -0.2058  0.1715
  732MOL0     C96544  10.847   4.288   7.237 -0.5230  0.3957  0.0434
  732MOL0     C96545  10.918   4.243   7.347  0.0040  0.2496 -0.1731
  732MOL0     C96546  11.066   4.026   7.676  0.2118  0.1265 -0.5391
  732MOL0     C96547  11.207   3.994   7.678 -0.6871  0.0892 -0.9969
  732MOL0     C96548  11.274   3.963   7.794 -0.1873  0.1571  0.6164
  732MOL0     C96549  11.215   3.953   7.915  1.0278  0.8079  0.4715
  732MOL0     O96550  11.266   3.911   8.037  0.1988 -0.6640  0.1253
  732MOL0     C96551  11.382   3.837   8.029 -0.8996 -0.2225  0.0074
  732MOL0     C96552  11.419   3.772   8.161  0.0033  0.3410  0.2846
  732MOL0     C96553  11.296   3.684   8.198  0.5786 -0.7504  0.7357
  732MOL0     C96554  11.336   3.614   8.322  0.0257  0.1691  0.3371
  732MOL0     C96555  11.204   3.562   8.372 -0.1329  0.8016 -0.3714
  732MOL0     C96556  11.090   3.527   8.401  0.6977  0.3336 -0.2186
  732MOL0     C96557  11.077   3.983   7.922 -0.2949  0.0476 -0.4949
  732MOL0     C96558  11.006   4.016   7.808  0.2224 -1.0205 -0.6238
  732MOL0     H96559  10.990   3.924   7.242 -0.7260 -0.4363  0.3870
  732MOL0     H96560  10.870   3.997   7.051  0.4705  1.3112 -1.3294
  732MOL0     H96561  10.811   4.432   7.006  2.3897 -1.9599 -0.8981
  732MOL0     H96562  10.633   4.389   7.031  0.4271 -0.9938 -0.0068
  732MOL0     H96563  10.650   4.474   6.821  1.3583  0.5729 -0.4495
  732MOL0     H96564  10.647   4.299   6.799 -1.7447  0.1069  3.4842
  732MOL0     H96565  10.907   4.311   6.789  4.0173  2.0583 -2.9600
  732MOL0     H96566  10.890   4.481   6.762  2.0809 -1.8869  0.4772
  732MOL0     H96567  10.924   4.354   6.550  2.5495 -0.2226  4.2965
  732MOL0     H96568  10.778   4.258   6.584  0.4837 -0.2586 -2.4595
  732MOL0     H96569  10.784   4.567   6.570 -0.3866  2.0750 -4.2965
  732MOL0     H96570  10.630   4.461   6.556 -0.5571 -2.4037 -1.5148
  732MOL0     H96571  10.875   4.485   6.379  0.1821  2.5959 -1.7073
  732MOL0     H96572  10.734   4.584   6.354  1.8706  2.0316  0.7769
  732MOL0     H96573  10.707   4.411   6.194  1.2126  0.0011  0.1516
  732MOL0     H96574  10.764   4.296   6.312  0.5652 -0.2227 -3.7252
  732MOL0     H96575  10.501   4.453   6.330  0.8630  1.9645 -0.2355
  732MOL0     H96576  10.536   4.305   6.423 -1.5354 -0.8811 -0.3347
  732MOL0     H96577  10.299   4.374   6.212  1.3202  1.6659  0.0793
  732MOL0     H96578  10.139   4.226   6.097  4.2179  2.0541  2.6106
  732MOL0     H96579  10.162   4.061   6.065 -1.4763  1.9479  0.9496
  732MOL0     H96580  10.260   4.276   5.851 -0.5924  0.5859 -0.4939
  732MOL0     H96581  10.108   4.203   5.865  0.1879  0.0102  2.9152
  732MOL0     H96582  10.273   4.083   5.703  1.2143 -3.0094  0.0771
  732MOL0     H96583  10.369   4.039   5.846  0.0592 -0.9754 -0.8310
  732MOL0     H96584  10.085   3.947   5.863 -1.1100  1.3794 -2.4109
  732MOL0     H96585  10.245   3.882   5.916  0.4496 -3.1953 -3.3179
  732MOL0     H96586   9.991   4.027   5.652 -2.0933 -0.5597 -1.7451
  732MOL0     H96587   9.954   4.113   5.451  0.7856  1.7256 -2.3887
  732MOL0     H96588  10.053   4.238   5.003 -0.2126 -0.0255  0.9673
  732MOL0     H96589   9.959   4.260   4.763  1.3190 -0.0653 -0.8402
  732MOL0     H96590   9.679   4.399   4.767  1.9906 -0.1991 -0.0849
  732MOL0     H96591   9.538   4.283   4.768  0.2844 -0.1640  0.2106
  732MOL0     H96592   9.540   4.467   4.603  0.1289  0.9902 -2.5686
  732MOL0     H96593   9.519   4.309   4.533 -1.9929  0.5185  3.4805
  732MOL0     H96594   9.676   4.420   4.404  0.0096 -2.3623 -0.6779
  732MOL0     H96595   9.770   4.297   4.482 -2.7150 -2.1061 -3.1745
  732MOL0     H96596   9.758   4.557   4.629  0.2016 -2.4807  2.1183
  732MOL0     H96597   9.878   4.452   4.628  0.2202 -3.0209 -1.5893
  732MOL0     H96598   9.813   4.648   4.401  1.9894 -0.4637 -0.2546
  732MOL0     H96599   9.904   4.508   4.368 -0.1970 -0.9512  0.8090
  732MOL0     H96600   9.980   4.741   4.570 -0.5917 -0.5395  1.0658
  732MOL0     H96601  10.023   4.736   4.406  0.0709  0.7891  0.3495
  732MOL0     H96602  10.092   4.485   4.579  1.0696  0.2145 -0.5286
  732MOL0     H96603  10.183   4.533   4.451  0.7255  0.1754  0.2773
  732MOL0     H96604  10.241   4.746   4.598  0.9859 -0.4091 -0.4044
  732MOL0     H96605  10.320   4.590   4.625  2.4088  2.9443  0.9012
  732MOL0     H96606   9.614   4.068   4.906  0.2363  4.0882 -0.1937
  732MOL0     H96607   9.726   3.995   5.117 -2.7231  2.2324  1.0917
  732MOL0     H96608  10.232   3.829   5.283  2.8270 -0.4642  1.0602
  732MOL0     H96609  10.291   3.762   5.493  0.4794  0.1737  0.6052
  732MOL0     H96610  10.810   4.390   7.230  0.1115  0.6662  0.5026
  732MOL0     H96611  10.922   4.300   7.439  3.0169 -1.6056  1.0166
  732MOL0     H96612  11.273   4.018   7.595  3.1012 -2.2381  1.0165
  732MOL0     H96613  11.379   3.941   7.774 -0.4582  1.4492 -3.0031
  732MOL0     H96614  11.464   3.909   8.017 -0.6034  0.3683  4.1944
  732MOL0     H96615  11.370   3.762   7.950 -0.1481 -1.9781  1.5055
  732MOL0     H96616  11.518   3.729   8.145  1.6874  4.3578 -1.3467
  732MOL0     H96617  11.425   3.849   8.239  0.7211 -2.2996  2.9882
  732MOL0     H96618  11.266   3.612   8.121  0.6951  1.2326 -1.2726
  732MOL0     H96619  11.218   3.754   8.228 -0.9140 -1.3834 -1.4340
  732MOL0     H96620  11.390   3.522   8.296 -1.0862 -1.2609  2.7305
  732MOL0     H96621  11.384   3.667   8.404  3.1673  0.2306 -1.3933
  732MOL0     H96622  10.987   3.496   8.401  0.8209 -0.1319  1.2917
  732MOL0     H96623  11.025   3.980   8.017  0.9836  0.2860  0.2307
  732MOL0     H96624  10.904   4.054   7.810  0.6797  0.2213 -0.3154
  733MOL0     O96625  10.581   2.341   4.299  0.4425  0.5336 -0.1205
  733MOL0     C96626  10.548   2.415   4.396 -0.0742 -0.6154 -0.2271
  733MOL0     O96627  10.601   2.408   4.520  0.4639 -0.0363 -0.6396
  733MOL0     C96628  10.684   2.302   4.547  0.1905 -0.0130  1.1313
  733MOL0     C96629  10.813   2.340   4.589  0.3384 -0.0102  0.0910
  733MOL0     C96630  10.909   2.246   4.621 -0.9276  0.1255 -0.5256
  733MOL0     C96631  10.889   2.119   4.595  1.2127 -0.2058 -0.6798
  733MOL0     O96632  10.995   2.032   4.613 -0.1987  0.3773  0.2419
  733MOL0     C96633  10.981   1.889   4.585  0.4268 -0.4096  0.3536
  733MOL0     C96634  11.109   1.827   4.523 -0.2436 -0.1182 -0.6007
  733MOL0     C96635  11.147   1.891   4.387  0.1881  0.5200 -0.3966
  733MOL0     C96636  11.042   1.904   4.282 -0.0853 -0.3966 -1.1250
  733MOL0     C96637  11.084   1.937   4.141  0.1710 -0.0144  0.0209
  733MOL0     C96638  11.207   2.039   4.137 -0.3482  1.3224  0.7393
  733MOL0     C96639  11.153   2.180   4.178 -0.0730 -0.7718  0.5347
  733MOL0     C96640  11.268   2.280   4.182 -0.0188  1.3184  0.4018
  733MOL0     N96641  11.331   2.274   4.318 -0.3445 -0.3745 -0.0418
  733MOL0     C96642  11.272   2.318   4.431 -0.6879  0.1109  0.8593
  733MOL0     C96643  11.354   2.272   4.533  0.1698  0.0111  0.5951
  733MOL0     C96644  11.350   2.251   4.687  0.1659  0.1045  1.2377
  733MOL0     C96645  11.312   2.106   4.711  0.8075 -0.1780  0.3093
  733MOL0     C96646  11.286   2.060   4.852 -0.1667 -0.9590 -0.0301
  733MOL0     C96647  11.312   1.907   4.864 -0.9690  0.5206  0.5591
  733MOL0     O96648  11.364   1.888   4.992  0.3838 -0.9307 -0.7871
  733MOL0     C96649  11.267   1.880   5.088  0.6570  0.2187 -1.0877
  733MOL0     C96650  11.204   1.757   5.112 -1.1777  0.5107 -0.6556
  733MOL0     C96651  11.103   1.749   5.206 -0.8630 -0.5953 -0.2828
  733MOL0     C96652  11.071   1.859   5.293  0.1522  1.4339  0.5482
  733MOL0     C96653  10.971   1.857   5.402 -0.3140  0.4612 -1.0690
  733MOL0     O96654  10.950   1.741   5.480  0.9074  0.3682 -0.4478
  733MOL0     C96655  10.837   1.744   5.566 -0.2974  0.5949  0.5893
  733MOL0     C96656  10.872   1.744   5.699 -0.0283 -0.0626 -0.4976
  733MOL0     C96657  10.775   1.780   5.795  1.0684 -0.5660  0.5154
  733MOL0     C96658  10.648   1.805   5.755 -0.5080 -0.1117  0.0958
  733MOL0     O96659  10.552   1.826   5.852  0.5885  0.2928  0.2099
  733MOL0     C96660  10.450   1.932   5.832  0.0984  0.5673  0.1095
  733MOL0     C96661  10.464   2.051   5.921  0.4151 -0.6216 -0.4047
  733MOL0     C96662  10.483   2.037   6.084 -0.8460 -0.3914 -0.3679
  733MOL0     C96663  10.484   2.176   6.158  0.4328 -0.4810  0.0948
  733MOL0     C96664  10.514   2.152   6.305  0.3591  0.6148  0.9590
  733MOL0     C96665  10.485   2.282   6.390 -1.2646 -0.0268 -0.1470
  733MOL0     C96666  10.335   2.292   6.401 -0.0656  0.4847 -0.6631
  733MOL0     C96667  10.300   2.426   6.465  0.0257 -0.3879  0.7089
  733MOL0    Cl96668  10.130   2.444   6.431  0.1875  0.1939 -0.0499
  733MOL0     C96669  10.604   1.803   5.621  0.6568  0.1951  0.0392
  733MOL0     C96670  10.711   1.769   5.524  1.0134 -0.3791 -0.9523
  733MOL0     O96671  10.918   1.963   5.426 -0.4134 -0.4446  0.5409
  733MOL0     C96672  11.128   1.977   5.260  0.6746 -0.1648  0.0470
  733MOL0     C96673  11.228   1.994   5.161  1.2766  0.8088  0.6269
  733MOL0     N96674  11.462   2.209   4.472  0.2252  0.0524  0.6629
  733MOL0     N96675  11.453   2.229   4.344  0.1368 -0.1703  0.0318
  733MOL0     C96676  10.760   2.080   4.561 -0.0028  0.0540 -0.0895
  733MOL0     C96677  10.655   2.165   4.536  0.1588  0.1945 -0.4780
  733MOL0     C96678  10.466   2.534   4.364 -0.4544  0.3247 -0.3639
  733MOL0     C96679  10.394   2.542   4.241  1.1194 -0.2302 -0.2523
  733MOL0     C96680  10.297   2.648   4.225  0.2448 -0.0704 -0.7355
  733MOL0     C96681  10.272   2.743   4.322 -0.8007 -0.3735 -0.4894
  733MOL0     O96682  10.178   2.843   4.283 -0.3652  0.0659  0.2938
  733MOL0     C96683  10.148   2.944   4.381  0.0560 -0.4684 -0.2073
  733MOL0     C96684  10.062   3.058   4.315  0.1022  0.2785 -1.3923
  733MOL0     C96685  10.134   3.135   4.209 -0.3681  0.2369 -0.1737
  733MOL0     C96686  10.091   3.276   4.175 -0.0014 -0.6980 -0.6833
  733MOL0     C96687   9.958   3.262   4.115  0.0101  0.2673  0.6059
  733MOL0     C96688   9.849   3.247   4.065  0.5172  0.2289  0.0958
  733MOL0     C96689  10.348   2.747   4.439  0.1238  0.0905 -0.4482
  733MOL0     C96690  10.440   2.638   4.463 -0.9028  0.1681  0.6014
  733MOL0     H96691  10.827   2.446   4.609  0.5797  0.4972 -2.4936
  733MOL0     H96692  11.006   2.276   4.657 -0.2751  4.5052 -4.9047
  733MOL0     H96693  10.888   1.864   4.532 -0.5293  1.0851  1.2752
  733MOL0     H96694  10.964   1.844   4.684 -0.4178 -4.6973 -1.4814
  733MOL0     H96695  11.083   1.721   4.511  0.3115 -0.1946 -1.1985
  733MOL0     H96696  11.186   1.846   4.598  0.5048  0.0436 -1.3814
  733MOL0     H96697  11.213   1.818   4.339 -2.1478 -1.8320 -0.2884
  733MOL0     H96698  11.200   1.982   4.415  1.5810 -0.7841  1.4741
  733MOL0     H96699  10.973   1.820   4.279 -0.7140 -0.0985  1.9148
  733MOL0     H96700  10.984   1.989   4.319 -1.4799 -2.3042  1.3605
  733MOL0     H96701  11.000   1.976   4.082  0.7714  0.1487 -0.7320
  733MOL0     H96702  11.109   1.841   4.097 -2.1997 -0.4164 -0.6131
  733MOL0     H96703  11.240   2.044   4.033 -3.7128  0.7570 -0.4828
  733MOL0     H96704  11.291   2.005   4.199 -1.4981 -0.4542  1.3790
  733MOL0     H96705  11.066   2.218   4.124 -2.5962  0.5045  4.9655
  733MOL0     H96706  11.104   2.186   4.276 -3.3505 -1.4643 -0.9418
  733MOL0     H96707  11.226   2.379   4.165  3.5666  2.5908 -2.4774
  733MOL0     H96708  11.331   2.258   4.096 -2.4352 -0.9833 -0.9121
  733MOL0     H96709  11.174   2.359   4.452 -0.9403 -0.1564  0.2360
  733MOL0     H96710  11.285   2.324   4.737 -0.9196  2.0443 -2.6719
  733MOL0     H96711  11.446   2.273   4.735  0.4872  0.5593  0.3882
  733MOL0     H96712  11.387   2.043   4.661  0.1056  0.5620 -1.7319
  733MOL0     H96713  11.221   2.082   4.656  0.1182  3.0100 -0.1443
  733MOL0     H96714  11.356   2.116   4.915 -0.7927  0.7292 -0.7563
  733MOL0     H96715  11.189   2.094   4.890  0.8677  0.4661  1.4530
  733MOL0     H96716  11.383   1.852   4.800 -0.6023 -1.8298  2.8089
  733MOL0     H96717  11.219   1.851   4.858 -1.0892  0.8890 -2.1113
  733MOL0     H96718  11.239   1.669   5.059  0.4995  0.9196 -0.2786
  733MOL0     H96719  11.067   1.649   5.231  1.1600 -1.7798 -1.7888
  733MOL0     H96720  10.977   1.725   5.721  0.3052 -0.6108 -2.3918
  733MOL0     H96721  10.789   1.792   5.902  2.3002  0.6264  0.2549
  733MOL0     H96722  10.350   1.889   5.845 -0.3279  2.3000  3.8041
  733MOL0     H96723  10.458   1.974   5.732  2.4402  1.5962  0.6652
  733MOL0     H96724  10.378   2.119   5.913 -0.2588 -1.2147  1.3846
  733MOL0     H96725  10.557   2.103   5.898 -1.0053  1.9592 -0.7265
  733MOL0     H96726  10.576   1.985   6.110 -0.9587 -1.1012 -1.3466
  733MOL0     H96727  10.396   1.986   6.124  0.3422 -0.7290  1.9676
  733MOL0     H96728  10.557   2.254   6.135 -1.3946  1.0849 -0.5927
  733MOL0     H96729  10.390   2.228   6.139 -1.6972 -2.4856  3.9353
  733MOL0     H96730  10.621   2.132   6.308  0.6383  1.5133 -1.0989
  733MOL0     H96731  10.462   2.067   6.351  2.2719 -0.5173  1.1082
  733MOL0     H96732  10.529   2.369   6.341 -2.0631  1.0935  1.0851
  733MOL0     H96733  10.539   2.280   6.485  0.5614  3.6923 -0.9092
  733MOL0     H96734  10.283   2.281   6.306  0.0092 -2.7043 -0.4540
  733MOL0     H96735  10.310   2.207   6.465  0.0358 -0.9271 -2.4282
  733MOL0     H96736  10.351   2.504   6.406 -1.4768 -1.0653 -1.6000
  733MOL0     H96737  10.311   2.435   6.574 -0.7872 -1.3171  0.8777
  733MOL0     H96738  10.510   1.834   5.578  0.3837 -1.2262 -0.4476
  733MOL0     H96739  10.685   1.771   5.419 -4.6721 -0.1803  0.1141
  733MOL0     H96740  11.096   2.066   5.313 -0.4149 -2.3649  3.4225
  733MOL0     H96741  11.273   2.091   5.145  2.9341 -0.2033 -1.3218
  733MOL0     H96742  10.736   1.975   4.552  0.9964 -0.1860 -0.0560
  733MOL0     H96743  10.555   2.140   4.504  1.7911 -6.1726 -1.9701
  733MOL0     H96744  10.429   2.471   4.167  0.3722 -0.6512 -0.2176
  733MOL0     H96745  10.245   2.656   4.130  0.7858 -1.3910 -1.1696
  733MOL0     H96746  10.245   2.992   4.399 -0.2043 -0.3945  1.0249
  733MOL0     H96747  10.115   2.898   4.474  4.5802 -2.0078  0.8989
  733MOL0     H96748   9.962   3.020   4.294  0.2077 -2.6180  2.2932
  733MOL0     H96749  10.048   3.135   4.392 -0.2056 -0.5239 -0.6237
  733MOL0     H96750  10.144   3.072   4.120 -2.2965  0.4987 -0.6064
  733MOL0     H96751  10.237   3.152   4.243 -0.8870  3.3081  0.1878
  733MOL0     H96752  10.082   3.334   4.267  3.2752 -1.8471  0.5407
  733MOL0     H96753  10.165   3.326   4.112  1.0926 -2.3065 -0.7630
  733MOL0     H96754   9.752   3.221   4.028 -0.1181  1.9564  0.4580
  733MOL0     H96755  10.337   2.814   4.523  1.5263  1.6669 -1.4489
  733MOL0     H96756  10.493   2.633   4.557 -0.2336  1.1382  0.2922
  734MOL0     O96757   6.247   3.175   6.941 -0.2220  1.1149  0.4911
  734MOL0     C96758   6.154   3.232   6.882 -0.1056 -0.1349  0.1064
  734MOL0     O96759   6.173   3.327   6.786 -0.7257 -0.2370  0.5275
  734MOL0     C96760   6.299   3.342   6.727 -0.2796 -0.2228  0.6285
  734MOL0     C96761   6.319   3.474   6.685 -0.3618 -0.1529 -0.3268
  734MOL0     C96762   6.434   3.508   6.608 -0.2025 -0.5469 -0.2586
  734MOL0     C96763   6.530   3.419   6.581  1.0741 -1.1652  0.2825
  734MOL0     O96764   6.646   3.475   6.530  0.0471  0.5364  0.6554
  734MOL0     C96765   6.727   3.400   6.437 -0.3368 -0.9798 -0.1632
  734MOL0     C96766   6.848   3.503   6.409 -0.1955 -0.6788  0.7591
  734MOL0     C96767   6.946   3.489   6.529 -0.5260 -1.0691  0.2725
  734MOL0     C96768   7.084   3.549   6.490 -0.6517 -0.1740  0.3285
  734MOL0     C96769   7.174   3.576   6.616  0.2160  0.1684  0.2419
  734MOL0     C96770   7.121   3.691   6.703 -1.4772  0.6407 -0.3614
  734MOL0     C96771   7.220   3.736   6.821  0.5917 -0.8409 -0.6917
  734MOL0     C96772   7.359   3.771   6.777 -0.0527 -0.1187 -0.0868
  734MOL0     N96773   7.444   3.833   6.882  1.1327 -0.1786 -0.0771
  734MOL0     C96774   7.454   3.969   6.890 -0.9313 -0.5690 -0.2960
  734MOL0     C96775   7.549   3.997   6.983 -0.2833  0.7818 -0.4193
  734MOL0     C96776   7.595   4.124   7.028  0.0861  0.7178 -0.0341
  734MOL0     C96777   7.751   4.143   7.019  0.4250 -0.6167 -0.7407
  734MOL0     C96778   7.807   4.252   7.107  0.0911  1.1004  0.1073
  734MOL0     C96779   7.955   4.236   7.131  0.2169  0.4479 -0.8724
  734MOL0     O96780   8.031   4.237   7.015  0.1286  0.0604 -0.7593
  734MOL0     C96781   8.167   4.211   7.019 -0.5834  0.1996  0.1576
  734MOL0     C96782   8.242   4.204   6.910  0.1834 -0.5120 -0.1415
  734MOL0     C96783   8.384   4.200   6.920 -1.0362 -0.4136 -0.2820
  734MOL0     C96784   8.446   4.188   7.047  0.4231  0.0443  0.0034
  734MOL0     C96785   8.598   4.184   7.056  0.3892  0.3773  0.1428
  734MOL0     O96786   8.666   4.178   6.933 -0.8008  0.0399  0.4810
  734MOL0     C96787   8.806   4.172   6.925 -0.3528  0.8678 -0.0631
  734MOL0     C96788   8.852   4.195   6.792  0.9190 -0.1936 -0.2806
  734MOL0     C96789   8.987   4.189   6.762 -0.5965 -0.2573 -0.1044
  734MOL0     C96790   9.080   4.149   6.858 -0.2838 -0.7724  0.8639
  734MOL0     O96791   9.213   4.120   6.826 -0.9236  0.9297 -0.0662
  734MOL0     C96792   9.243   3.991   6.773  0.4590 -1.2408  0.3360
  734MOL0     C96793   9.369   3.995   6.687 -0.4797  0.1933 -0.2053
  734MOL0     C96794   9.413   3.859   6.635 -0.6519 -0.6039 -0.1819
  734MOL0     C96795   9.333   3.820   6.512 -0.1287 -0.3774  1.1586
  734MOL0     C96796   9.393   3.701   6.438 -0.0065  0.3212 -0.9817
  734MOL0     C96797   9.468   3.730   6.303  1.0632  0.2193 -0.7442
  734MOL0     C96798   9.514   3.596   6.242 -0.0399 -0.2083 -0.8454
  734MOL0     C96799   9.539   3.599   6.089  0.6839 -0.6982  0.0643
  734MOL0    Cl96800   9.368   3.579   6.024 -0.1447 -0.1600 -0.4992
  734MOL0     C96801   9.041   4.130   6.983  0.1919  0.5570 -0.7887
  734MOL0     C96802   8.901   4.139   7.017  0.1314 -0.8687 -0.0355
  734MOL0     O96803   8.650   4.191   7.166 -0.8974 -0.4385 -0.2160
  734MOL0     C96804   8.366   4.187   7.161  0.4374  0.7118  0.5541
  734MOL0     C96805   8.235   4.199   7.143  0.5195  0.6925  0.4595
  734MOL0     N96806   7.578   3.874   7.036 -0.2368 -0.2196  0.2532
  734MOL0     N96807   7.531   3.779   6.970 -0.3851  0.1567 -0.2849
  734MOL0     C96808   6.505   3.285   6.621 -0.5089 -0.3877  0.7200
  734MOL0     C96809   6.392   3.247   6.689 -1.2501  0.5120 -0.0714
  734MOL0     C96810   6.021   3.201   6.936  0.2729  0.0108  0.2253
  734MOL0     C96811   5.900   3.210   6.855  0.2629 -0.0892 -0.0545
  734MOL0     C96812   5.783   3.179   6.931 -0.7634  0.3768  0.2999
  734MOL0     C96813   5.775   3.125   7.058 -0.6175  0.3726 -0.7072
  734MOL0     O96814   5.664   3.076   7.124 -0.3430 -0.3482 -0.7081
  734MOL0     C96815   5.540   3.060   7.049  0.1674 -0.3037 -0.1570
  734MOL0     C96816   5.436   2.986   7.129 -0.2584  0.5579 -0.4701
  734MOL0     C96817   5.489   2.869   7.206 -0.6189 -0.0816  0.0508
  734MOL0     C96818   5.382   2.801   7.292 -0.3230 -0.6147  0.9230
  734MOL0     C96819   5.403   2.657   7.299  0.7272 -0.1419  0.2741
  734MOL0     C96820   5.399   2.536   7.320  0.8697  0.3565  0.4119
  734MOL0     C96821   5.896   3.116   7.122  0.4117 -0.8338 -0.6430
  734MOL0     C96822   6.017   3.156   7.065 -1.6062  0.3821  0.6388
  734MOL0     H96823   6.243   3.549   6.708  0.0857  0.2425 -0.1203
  734MOL0     H96824   6.433   3.610   6.570  0.7654 -0.5074 -0.2087
  734MOL0     H96825   6.670   3.379   6.346 -1.2122 -1.2580  0.4346
  734MOL0     H96826   6.769   3.315   6.492  3.0720  1.1375  0.8529
  734MOL0     H96827   6.817   3.607   6.393 -2.6614 -1.4398  0.1851
  734MOL0     H96828   6.896   3.478   6.314 -2.5749  0.7747 -0.9673
  734MOL0     H96829   6.960   3.382   6.550 -0.0270 -0.9040  0.7985
  734MOL0     H96830   6.894   3.531   6.616 -2.3216 -1.0177 -0.7778
  734MOL0     H96831   7.142   3.483   6.425 -1.5319 -1.6119  0.9738
  734MOL0     H96832   7.071   3.648   6.443 -1.2695  0.3470  1.5654
  734MOL0     H96833   7.270   3.611   6.577  0.1935  2.0527  1.7317
  734MOL0     H96834   7.198   3.486   6.674  0.4372  2.0700  3.3304
  734MOL0     H96835   7.022   3.680   6.750 -1.3697  2.0095  0.2216
  734MOL0     H96836   7.118   3.778   6.637  2.0710  0.1749 -1.3594
  734MOL0     H96837   7.168   3.816   6.874  1.8547 -0.6119  0.2456
  734MOL0     H96838   7.231   3.655   6.895 -0.7026 -0.0496  0.4146
  734MOL0     H96839   7.379   3.826   6.684  1.7341  0.4364  0.5699
  734MOL0     H96840   7.403   3.675   6.745  1.5412  0.7465 -0.6211
  734MOL0     H96841   7.400   4.038   6.825 -1.2686  0.0334  0.5942
  734MOL0     H96842   7.567   4.144   7.131  1.7062  3.0897  0.0456
  734MOL0     H96843   7.560   4.204   6.962  2.2008  2.9527  1.3755
  734MOL0     H96844   7.768   4.162   6.912  1.6335  0.8262 -0.3310
  734MOL0     H96845   7.809   4.054   7.045 -0.2276 -1.6061 -2.5257
  734MOL0     H96846   7.783   4.350   7.066 -0.3968  0.7049 -0.5876
  734MOL0     H96847   7.764   4.241   7.207  0.9038  0.2769  0.3826
  734MOL0     H96848   7.978   4.144   7.186  0.9600 -0.1143 -2.0983
  734MOL0     H96849   7.990   4.319   7.193  0.0162  0.6711 -1.0553
  734MOL0     H96850   8.201   4.208   6.809  0.5353 -2.8200 -0.4318
  734MOL0     H96851   8.452   4.197   6.835 -2.2014 -1.9709 -1.2095
  734MOL0     H96852   8.770   4.212   6.724 -0.1986 -2.0391  0.5230
  734MOL0     H96853   9.001   4.224   6.660 -1.0473  0.0168 -0.0748
  734MOL0     H96854   9.168   3.964   6.698  0.5434  1.9694 -1.0784
  734MOL0     H96855   9.244   3.902   6.836  1.3707 -2.2328 -1.0169
  734MOL0     H96856   9.442   4.040   6.756  0.7725  1.7125 -2.3877
  734MOL0     H96857   9.359   4.074   6.611  2.4781  2.1348  1.2054
  734MOL0     H96858   9.404   3.785   6.715 -1.8876  1.1246  1.3703
  734MOL0     H96859   9.519   3.877   6.614 -0.9973  1.9927 -0.0669
  734MOL0     H96860   9.232   3.798   6.547 -0.8188  0.7009 -0.0521
  734MOL0     H96861   9.344   3.904   6.443  3.1660 -0.2330  1.7003
  734MOL0     H96862   9.310   3.629   6.427 -1.9305  1.8970  2.0406
  734MOL0     H96863   9.462   3.654   6.508 -1.2285 -1.7910 -1.1010
  734MOL0     H96864   9.543   3.809   6.307 -0.3123  1.5298  1.2553
  734MOL0     H96865   9.388   3.773   6.242  0.0353  1.1179  1.1376
  734MOL0     H96866   9.601   3.553   6.292 -1.5812 -0.9634  1.3094
  734MOL0     H96867   9.444   3.516   6.268 -0.2335  0.7223  1.8241
  734MOL0     H96868   9.604   3.514   6.063  1.1697  0.0092 -1.1168
  734MOL0     H96869   9.568   3.696   6.048 -1.5718  1.4899  3.1781
  734MOL0     H96870   9.116   4.079   7.044 -1.0488 -1.5178 -0.8990
  734MOL0     H96871   8.878   4.118   7.121  4.7606 -0.7062  1.2512
  734MOL0     H96872   8.399   4.173   7.263  0.8866 -0.6812  0.2373
  734MOL0     H96873   8.181   4.213   7.236 -0.9982  1.4692 -0.4897
  734MOL0     H96874   6.566   3.199   6.595 -3.3576 -1.4796 -3.1738
  734MOL0     H96875   6.362   3.144   6.707 -2.0195  0.3882 -1.8083
  734MOL0     H96876   5.879   3.255   6.759 -0.2802  4.1060  1.8006
  734MOL0     H96877   5.690   3.207   6.882  0.5548  3.0681 -0.8329
  734MOL0     H96878   5.542   3.000   6.957 -3.9401 -0.1009 -0.5667
  734MOL0     H96879   5.507   3.161   7.021  3.3862  0.0446 -3.5790
  734MOL0     H96880   5.390   3.053   7.202 -0.8276 -2.1079  1.7825
  734MOL0     H96881   5.359   2.955   7.058  2.7209 -0.2320 -3.6198
  734MOL0     H96882   5.568   2.894   7.278 -1.5680 -1.6683  1.7559
  734MOL0     H96883   5.544   2.803   7.138  1.5977  1.2800  0.4025
  734MOL0     H96884   5.376   2.850   7.389  0.0160  0.6878  0.3148
  734MOL0     H96885   5.286   2.814   7.242  0.7739  0.8413 -0.9533
  734MOL0     H96886   5.398   2.429   7.334 -4.6359  0.1951  0.9995
  734MOL0     H96887   5.908   3.079   7.224  2.8037 -0.6942 -0.8077
  734MOL0     H96888   6.107   3.142   7.123 -1.0741  0.8940 -0.0560
  735MOL0     O96889   4.625   1.996   9.232 -0.1172  0.1742  0.1855
  735MOL0     C96890   4.553   1.988   9.331 -0.1237 -0.0139  0.3736
  735MOL0     O96891   4.527   2.094   9.416  0.9207  0.5677 -0.1327
  735MOL0     C96892   4.606   2.204   9.398  0.0313 -0.4832  0.1379
  735MOL0     C96893   4.525   2.322   9.428  0.2367 -0.1329  0.1449
  735MOL0     C96894   4.579   2.451   9.426  1.7909 -0.2387 -0.4745
  735MOL0     C96895   4.715   2.472   9.393 -0.4281 -1.4147 -0.5682
  735MOL0     O96896   4.778   2.596   9.397  0.5590  0.4234  1.0338
  735MOL0     C96897   4.890   2.626   9.483 -0.7125  1.1060  0.4355
  735MOL0     C96898   4.902   2.776   9.514  0.1389  0.1034  0.3885
  735MOL0     C96899   4.944   2.838   9.377  0.3823  0.1117  0.4021
  735MOL0     C96900   4.925   2.989   9.384 -0.8160  1.1802 -0.0527
  735MOL0     C96901   4.985   3.064   9.266 -0.1154  0.8026 -0.6654
  735MOL0     C96902   4.915   3.194   9.225 -0.5441  0.4159  0.6340
  735MOL0     C96903   4.915   3.294   9.341  0.5355 -1.1065  0.9091
  735MOL0     C96904   4.874   3.434   9.289 -0.3400 -0.5833  0.1356
  735MOL0     N96905   4.878   3.551   9.384 -0.4117 -0.2509 -0.5209
  735MOL0     C96906   4.791   3.565   9.492 -0.5116  1.0083 -0.7062
  735MOL0     C96907   4.831   3.684   9.545  0.1802  0.7454 -0.0716
  735MOL0     C96908   4.773   3.747   9.663  0.0163  0.2296 -0.8750
  735MOL0     C96909   4.635   3.792   9.633  0.2369  1.1469 -1.1682
  735MOL0     C96910   4.629   3.887   9.512  0.6289  0.2876  0.2144
  735MOL0     C96911   4.501   3.959   9.507  0.1519 -0.3805 -0.4013
  735MOL0     O96912   4.397   3.869   9.476  0.6218 -0.1477  1.2231
  735MOL0     C96913   4.283   3.857   9.550 -1.0252 -0.8355  0.4212
  735MOL0     C96914   4.286   3.876   9.694 -0.8143 -0.0570  0.3950
  735MOL0     C96915   4.165   3.866   9.762 -0.2183  0.0744 -0.1819
  735MOL0     C96916   4.045   3.844   9.703  0.0215 -0.5797 -1.2388
  735MOL0     C96917   3.914   3.851   9.771  0.1712  0.2924  0.6043
  735MOL0     O96918   3.921   3.860   9.906 -0.5738 -0.6528  0.3812
  735MOL0     C96919   3.801   3.841   9.973 -0.8938  0.0800 -0.5969
  735MOL0     C96920   3.729   3.949  10.036  0.0898 -0.0241  0.4653
  735MOL0     C96921   3.594   3.931  10.073 -0.5748  0.3931 -0.0034
  735MOL0     C96922   3.543   3.802  10.063 -0.2040  0.1709 -0.2916
  735MOL0     O96923   3.411   3.777  10.102  0.8338  0.1164 -0.7629
  735MOL0     C96924   3.300   3.865  10.051  0.1680 -0.3594 -0.3831
  735MOL0     C96925   3.291   3.874   9.895  1.0129 -0.3601  0.2299
  735MOL0     C96926   3.178   3.976   9.873  0.1840 -0.3746  0.2207
  735MOL0     C96927   3.145   3.970   9.728 -0.2446 -0.7520  0.5049
  735MOL0     C96928   3.040   4.067   9.690 -0.1239 -0.0300  0.6921
  735MOL0     C96929   3.091   4.211   9.664  0.6858  0.3951  0.2417
  735MOL0     C96930   2.991   4.289   9.582 -0.6077  0.0958  0.1304
  735MOL0     C96931   3.015   4.441   9.565  1.1087  0.0344 -0.6081
  735MOL0    Cl96932   2.883   4.510   9.464 -0.3098 -0.2886  0.2229
  735MOL0     C96933   3.613   3.695  10.001  0.8347  0.0730 -0.4532
  735MOL0     C96934   3.740   3.716   9.961  0.5114  0.8489  0.0630
  735MOL0     O96935   3.811   3.859   9.709 -0.0779  0.8110  0.0813
  735MOL0     C96936   4.052   3.803   9.560  0.2676  0.0369 -0.0143
  735MOL0     C96937   4.165   3.821   9.484  0.0753  0.1357  0.1850
  735MOL0     N96938   4.915   3.752   9.451  0.7355 -1.0230 -0.2469
  735MOL0     N96939   4.928   3.675   9.356  0.2371  0.0212  0.1087
  735MOL0     C96940   4.791   2.360   9.365  0.3480  0.4531 -0.0788
  735MOL0     C96941   4.741   2.230   9.381 -0.6091 -0.0360  0.1799
  735MOL0     C96942   4.490   1.854   9.372  0.3936 -0.6406  0.5508
  735MOL0     C96943   4.538   1.720   9.343  0.1928 -0.2901 -0.5132
  735MOL0     C96944   4.461   1.611   9.374  0.0408  1.0950 -0.6037
  735MOL0     C96945   4.336   1.617   9.440  0.3017 -0.1784  0.2934
  735MOL0     O96946   4.269   1.509   9.488  0.5198  0.2198  0.3916
  735MOL0     C96947   4.348   1.387   9.526  0.0503  0.0885 -0.2267
  735MOL0     C96948   4.362   1.279   9.417  0.4283  0.5382 -0.0136
  735MOL0     C96949   4.494   1.188   9.417  0.6017  0.9204 -0.6564
  735MOL0     C96950   4.493   1.082   9.310 -0.2992  0.1351  0.9634
  735MOL0     C96951   4.364   1.025   9.277  1.4235  0.7497 -0.9645
  735MOL0     C96952   4.252   0.971   9.248 -0.4423 -0.0524  1.0744
  735MOL0     C96953   4.286   1.749   9.460  0.0653  0.0455 -0.0545
  735MOL0     C96954   4.355   1.864   9.414 -0.4929 -0.4801 -0.8308
  735MOL0     H96955   4.420   2.308   9.452 -0.0638  0.4895 -0.7758
  735MOL0     H96956   4.517   2.532   9.462  3.1934 -0.1152  1.8514
  735MOL0     H96957   4.979   2.598   9.426 -1.4548 -1.6419  0.4997
  735MOL0     H96958   4.886   2.565   9.574  1.9072  2.4839  1.5949
  735MOL0     H96959   4.972   2.808   9.593 -1.6537  3.3739  0.8548
  735MOL0     H96960   4.803   2.814   9.541  0.0111  1.7604 -2.1135
  735MOL0     H96961   4.883   2.801   9.295 -0.1143 -0.8242  1.1815
  735MOL0     H96962   5.048   2.811   9.357  0.0827 -0.6012 -0.2088
  735MOL0     H96963   4.822   3.017   9.409 -1.8653 -1.6940 -0.7878
  735MOL0     H96964   4.989   3.029   9.464 -0.9270  2.3991 -0.5400
  735MOL0     H96965   4.989   2.999   9.178 -0.9424 -0.5128  0.2327
  735MOL0     H96966   5.091   3.089   9.280  1.4818 -2.0894 -5.3424
  735MOL0     H96967   4.810   3.176   9.199 -0.9160  2.5745  0.4075
  735MOL0     H96968   4.979   3.233   9.145  2.9349 -1.3989  2.2981
  735MOL0     H96969   4.847   3.257   9.418  2.9508 -2.1373  2.6763
  735MOL0     H96970   5.020   3.299   9.371  0.8933 -1.8325 -0.1537
  735MOL0     H96971   4.768   3.436   9.265 -0.9979  0.9227  2.8606
  735MOL0     H96972   4.925   3.454   9.194  1.2290  3.1005  1.5734
  735MOL0     H96973   4.733   3.482   9.533 -0.3277  0.7686 -0.9218
  735MOL0     H96974   4.828   3.833   9.701 -1.2836  2.0884 -2.9331
  735MOL0     H96975   4.774   3.669   9.740 -1.7525  0.1464 -0.8946
  735MOL0     H96976   4.595   3.837   9.724  1.6826  0.3422 -0.0840
  735MOL0     H96977   4.568   3.707   9.618  0.8331  0.8192 -2.1084
  735MOL0     H96978   4.706   3.961   9.535  1.2114  0.3702 -1.8115
  735MOL0     H96979   4.649   3.831   9.420  1.1079  0.4387  0.2233
  735MOL0     H96980   4.511   4.026   9.421  0.5251 -1.1290 -0.9518
  735MOL0     H96981   4.478   4.019   9.596 -0.4080 -0.1407 -0.7001
  735MOL0     H96982   4.366   3.907   9.760 -0.9689 -2.7262  1.9706
  735MOL0     H96983   4.155   3.916   9.858  1.4774  1.7705 -0.8309
  735MOL0     H96984   3.776   4.046  10.046 -2.5885  1.5589 -1.0541
  735MOL0     H96985   3.535   4.012  10.115  1.8234  2.7281 -0.8389
  735MOL0     H96986   3.315   3.966  10.089  1.4002 -0.4552 -0.5724
  735MOL0     H96987   3.205   3.830  10.094  0.4714  1.5175  2.0257
  735MOL0     H96988   3.261   3.773   9.867 -1.4585  0.3775 -0.0349
  735MOL0     H96989   3.384   3.892   9.842  2.4413 -4.7390  0.8196
  735MOL0     H96990   3.217   4.076   9.894 -1.0122  0.7693 -2.4354
  735MOL0     H96991   3.089   3.949   9.929 -0.3937  0.6145 -0.1900
  735MOL0     H96992   3.235   3.978   9.667 -1.6723  1.6140 -1.4909
  735MOL0     H96993   3.106   3.872   9.700 -1.8232  0.1876 -0.7683
  735MOL0     H96994   2.959   4.065   9.763 -0.3694 -1.4633  0.3984
  735MOL0     H96995   2.993   4.023   9.602 -1.1207 -1.4359  1.8961
  735MOL0     H96996   3.187   4.214   9.612  0.4961 -3.5052 -0.6645
  735MOL0     H96997   3.106   4.264   9.758 -0.7378 -2.1610  2.0236
  735MOL0     H96998   2.969   4.252   9.481 -2.3079  4.7556 -1.4650
  735MOL0     H96999   2.904   4.291   9.648 -0.7248  3.0515  0.0343
  735MOL0     H97000   3.116   4.457   9.528  3.0347 -3.1614  2.6396
  735MOL0     H97001   3.018   4.492   9.662  2.2320  0.3933 -0.8173
  735MOL0     H97002   3.564   3.602   9.972  0.0252  0.5213 -0.5460
  735MOL0     H97003   3.792   3.636   9.909  0.9024  1.0340  0.1654
  735MOL0     H97004   3.953   3.792   9.519  0.4514  4.7163 -2.4130
  735MOL0     H97005   4.155   3.808   9.377  0.8535 -0.9258  0.2251
  735MOL0     H97006   4.898   2.372   9.350  0.3456  1.9930  0.9650
  735MOL0     H97007   4.807   2.145   9.369  0.1307  0.7214 -1.3771
  735MOL0     H97008   4.636   1.704   9.299  0.5483  0.4516 -0.0114
  735MOL0     H97009   4.515   1.519   9.356 -0.4059  0.7553 -0.2364
  735MOL0     H97010   4.292   1.354   9.615 -0.6983 -0.1184 -0.7569
  735MOL0     H97011   4.445   1.426   9.557 -1.6650  3.4649  1.3816
  735MOL0     H97012   4.272   1.215   9.420  2.2254 -2.4213 -2.7828
  735MOL0     H97013   4.360   1.338   9.325 -0.0824  1.0596  0.3230
  735MOL0     H97014   4.495   1.141   9.515  0.8410  1.5266 -0.3617
  735MOL0     H97015   4.579   1.256   9.400  0.2330  0.8656 -3.1563
  735MOL0     H97016   4.539   1.113   9.215  0.0675 -2.2220  0.3169
  735MOL0     H97017   4.555   0.996   9.338  1.0549  1.0330  0.8371
  735MOL0     H97018   4.166   0.915   9.220  1.7495 -2.0146 -2.4386
  735MOL0     H97019   4.184   1.771   9.490  0.3092 -0.2821  1.0822
  735MOL0     H97020   4.292   1.951   9.432  1.1366  0.4046  1.0266
  736MOL0     O97021   2.399   0.606   2.313 -0.6253 -0.7788  0.1101
  736MOL0     C97022   2.344   0.646   2.208 -0.6765 -0.5143 -0.8262
  736MOL0     O97023   2.336   0.772   2.159 -0.2213 -0.0117  0.0302
  736MOL0     C97024   2.360   0.872   2.243 -0.2122  0.0362  0.5455
  736MOL0     C97025   2.312   0.872   2.372  1.3867 -0.7580  0.2219
  736MOL0     C97026   2.342   0.976   2.448  0.0429 -1.1173 -0.2557
  736MOL0     C97027   2.426   1.079   2.412 -0.3531  0.1540  1.0674
  736MOL0     O97028   2.457   1.190   2.484  0.8428 -0.1655 -0.0635
  736MOL0     C97029   2.434   1.183   2.627  0.1108  0.0409 -0.6111
  736MOL0     C97030   2.524   1.288   2.703  0.0293  0.5353  0.5085
  736MOL0     C97031   2.491   1.432   2.667  0.2166  1.7908 -0.0872
  736MOL0     C97032   2.552   1.503   2.784 -0.6664  0.5783 -0.8279
  736MOL0     C97033   2.494   1.651   2.777  0.7038  0.4525 -0.1497
  736MOL0     C97034   2.525   1.724   2.910 -0.8236 -0.6541  0.5816
  736MOL0     C97035   2.491   1.876   2.897  0.0129 -0.4512  0.6366
  736MOL0     C97036   2.530   1.942   3.034 -0.1055 -0.2014  0.0485
  736MOL0     N97037   2.670   1.923   3.068 -0.0988 -0.5692 -0.6240
  736MOL0     C97038   2.765   2.007   3.015 -0.8784  0.3388 -0.5741
  736MOL0     C97039   2.878   1.970   3.092  0.2439 -0.7214  1.0223
  736MOL0     C97040   3.008   2.023   3.064 -1.4086 -0.0565  0.0369
  736MOL0     C97041   3.012   2.175   3.064  0.5573  0.9505  0.0188
  736MOL0     C97042   2.964   2.232   3.196  0.1687  0.3058  0.0527
  736MOL0     C97043   3.022   2.182   3.328 -0.2105 -0.4714 -0.9257
  736MOL0     O97044   3.165   2.202   3.318  0.9513 -0.2033 -1.0758
  736MOL0     C97045   3.221   2.320   3.363  0.3585  0.1204 -0.1962
  736MOL0     C97046   3.310   2.386   3.276  0.2852  0.4667 -0.1720
  736MOL0     C97047   3.385   2.498   3.324  0.6600 -0.1548  0.2533
  736MOL0     C97048   3.377   2.541   3.452  0.4762 -0.4973  0.4700
  736MOL0     C97049   3.471   2.643   3.505 -0.6990  0.2806 -0.5476
  736MOL0     O97050   3.424   2.723   3.613 -0.3349  0.7932  0.5852
  736MOL0     C97051   3.506   2.836   3.639 -0.6934  0.2141 -0.5457
  736MOL0     C97052   3.552   2.933   3.541  1.0280 -0.2366  0.5488
  736MOL0     C97053   3.625   3.046   3.587  0.3012 -0.3792 -0.0764
  736MOL0     C97054   3.648   3.063   3.717 -1.2425  0.3380 -0.1856
  736MOL0     O97055   3.703   3.172   3.777 -0.1964  0.5006  0.1564
  736MOL0     C97056   3.775   3.271   3.695  0.6205  0.3187 -0.1584
  736MOL0     C97057   3.853   3.371   3.768  0.5408 -0.1175  0.4507
  736MOL0     C97058   3.962   3.296   3.846  0.8805 -0.2427 -0.0885
  736MOL0     C97059   4.066   3.391   3.911  0.6129  0.1694  0.4491
  736MOL0     C97060   4.025   3.455   4.050 -0.2843  0.4522  0.1848
  736MOL0     C97061   4.128   3.445   4.155 -1.4071 -0.4142 -0.7635
  736MOL0     C97062   4.166   3.300   4.199 -0.0790  1.1505  0.8467
  736MOL0     C97063   4.309   3.309   4.266  0.2025 -0.8722  0.6453
  736MOL0    Cl97064   4.287   3.379   4.427 -0.5949 -0.1931 -0.0913
  736MOL0     C97065   3.616   2.961   3.811 -0.2561 -0.6516  0.5594
  736MOL0     C97066   3.534   2.856   3.775 -0.4949  0.3332  0.4858
  736MOL0     O97067   3.582   2.651   3.446  0.1581 -0.0583  0.0801
  736MOL0     C97068   3.289   2.473   3.534 -0.0373  1.0039 -0.1200
  736MOL0     C97069   3.204   2.372   3.491 -0.8093  0.2280  0.5666
  736MOL0     N97070   2.848   1.873   3.191  0.1081  0.9481 -0.1573
  736MOL0     N97071   2.724   1.842   3.170  0.1920  0.6179  0.3812
  736MOL0     C97072   2.468   1.089   2.279  0.0790 -0.4286  0.2403
  736MOL0     C97073   2.427   0.984   2.189  0.6533 -0.1277  1.0610
  736MOL0     C97074   2.276   0.550   2.129  0.4179  0.4010 -0.6519
  736MOL0     C97075   2.286   0.409   2.157 -0.2013 -0.0734  0.6017
  736MOL0     C97076   2.235   0.321   2.056 -0.0954  0.5476  0.1182
  736MOL0     C97077   2.160   0.360   1.943 -0.5965 -0.1705 -0.5984
  736MOL0     O97078   2.116   0.255   1.871 -0.3465  0.6350  0.0294
  736MOL0     C97079   2.027   0.298   1.769  0.3711  0.7003  0.6771
  736MOL0     C97080   1.957   0.173   1.701 -0.0260  0.4927 -0.1316
  736MOL0     C97081   1.822   0.225   1.657  0.4181 -0.1754 -0.5617
  736MOL0     C97082   1.819   0.334   1.550  0.4743  0.0120 -0.6239
  736MOL0     C97083   1.768   0.459   1.610 -1.0779  0.5398 -0.5241
  736MOL0     C97084   1.734   0.557   1.670  1.6576 -0.1003 -0.2085
  736MOL0     C97085   2.147   0.497   1.915 -0.4028 -0.5964 -0.2394
  736MOL0     C97086   2.209   0.588   2.010 -0.2753  0.5969  1.1655
  736MOL0     H97087   2.252   0.793   2.417  2.6584 -0.6309  2.2580
  736MOL0     H97088   2.304   0.974   2.550  0.4162 -5.0431 -0.0427
  736MOL0     H97089   2.467   1.083   2.656 -0.3828  0.0951  0.1610
  736MOL0     H97090   2.327   1.197   2.645 -0.4172 -2.0495 -1.7666
  736MOL0     H97091   2.628   1.269   2.675  0.1025 -0.2172  1.2683
  736MOL0     H97092   2.517   1.263   2.809  0.4106 -3.1342 -0.2110
  736MOL0     H97093   2.383   1.448   2.674 -0.7149 -3.0204  0.6921
  736MOL0     H97094   2.534   1.472   2.575 -0.7774  1.0744 -0.8937
  736MOL0     H97095   2.532   1.464   2.884  0.2496 -0.1549 -0.9167
  736MOL0     H97096   2.661   1.499   2.769 -0.6988 -0.8428 -0.9056
  736MOL0     H97097   2.385   1.650   2.766  0.4511  0.2145  1.9212
  736MOL0     H97098   2.525   1.709   2.690 -3.1907 -1.4685 -3.1089
  736MOL0     H97099   2.627   1.702   2.942 -1.3861  0.3751  3.4826
  736MOL0     H97100   2.464   1.687   2.993  0.4694 -1.7411  1.0754
  736MOL0     H97101   2.553   1.917   2.816 -0.6833 -0.5389  0.0547
  736MOL0     H97102   2.383   1.888   2.886  0.0372  0.3047  1.1292
  736MOL0     H97103   2.467   1.909   3.117 -0.7856  3.5467  1.2107
  736MOL0     H97104   2.509   2.049   3.023 -3.2425 -0.8301 -1.3561
  736MOL0     H97105   2.763   2.081   2.936 -0.7960 -1.8956 -2.7886
  736MOL0     H97106   3.048   1.978   2.973 -0.0601 -2.0369  1.5115
  736MOL0     H97107   3.078   1.984   3.139 -3.2361 -2.8840  0.4562
  736MOL0     H97108   2.949   2.213   2.982  1.1452 -0.5111 -1.1606
  736MOL0     H97109   3.117   2.201   3.047  1.7311 -2.9811  0.3156
  736MOL0     H97110   2.978   2.340   3.187 -2.8858  0.6564 -2.0697
  736MOL0     H97111   2.855   2.232   3.195  0.1252  0.2683  1.5526
  736MOL0     H97112   2.989   2.080   3.350  1.1691 -0.7083  0.1508
  736MOL0     H97113   2.975   2.240   3.408  0.9904  0.7833 -1.0777
  736MOL0     H97114   3.329   2.351   3.175  3.7861  0.6989  0.2900
  736MOL0     H97115   3.449   2.543   3.249  0.8540  0.0710  0.5534
  736MOL0     H97116   3.518   2.932   3.438  1.3380  2.9717  0.3042
  736MOL0     H97117   3.665   3.112   3.510  1.1332  0.1131  0.7535
  736MOL0     H97118   3.699   3.323   3.635  1.8900  1.3777 -0.9042
  736MOL0     H97119   3.847   3.219   3.631 -0.2631  2.2115 -2.8690
  736MOL0     H97120   3.780   3.419   3.833  0.4568 -0.1309  0.3661
  736MOL0     H97121   3.905   3.446   3.707 -0.6740  0.7536  0.4546
  736MOL0     H97122   4.013   3.240   3.766 -2.9404 -2.5417 -1.1970
  736MOL0     H97123   3.922   3.232   3.925  1.7182  0.7410  1.1652
  736MOL0     H97124   4.158   3.335   3.926  1.9883  1.9349 -0.9912
  736MOL0     H97125   4.078   3.478   3.847 -1.5991  0.7684  0.7408
  736MOL0     H97126   3.930   3.406   4.074 -0.0570 -1.1091 -1.8652
  736MOL0     H97127   3.998   3.560   4.032  0.2293  0.7721  1.1975
  736MOL0     H97128   4.106   3.513   4.237  0.3907  1.8964 -2.0762
  736MOL0     H97129   4.220   3.479   4.107  0.4337 -1.5045  1.7992
  736MOL0     H97130   4.081   3.248   4.244 -0.6215  1.6730  0.4515
  736MOL0     H97131   4.186   3.239   4.110  3.9997 -0.3715  2.5583
  736MOL0     H97132   4.377   3.363   4.200 -0.7640  0.2308  0.4975
  736MOL0     H97133   4.351   3.209   4.275  2.1116 -0.1320  0.4903
  736MOL0     H97134   3.621   2.978   3.918  1.4619  2.9938  0.0743
  736MOL0     H97135   3.497   2.781   3.844  0.1560 -1.2459 -0.8328
  736MOL0     H97136   3.291   2.498   3.640  2.5365 -0.4198  0.2572
  736MOL0     H97137   3.138   2.328   3.564 -0.5435  1.5458  1.6565
  736MOL0     H97138   2.500   1.185   2.241  0.8302 -1.5293 -2.0910
  736MOL0     H97139   2.446   0.984   2.082 -2.8478  1.8922  0.2773
  736MOL0     H97140   2.344   0.376   2.242  2.6390  2.2070 -0.2843
  736MOL0     H97141   2.266   0.218   2.072  1.7807  1.5489  5.0355
  736MOL0     H97142   2.077   0.358   1.692  1.1521 -1.2580 -0.4260
  736MOL0     H97143   1.950   0.367   1.803  1.3448  1.1927  1.9696
  736MOL0     H97144   2.019   0.130   1.621 -0.3042  1.7028 -1.0220
  736MOL0     H97145   1.963   0.093   1.775  2.2328  1.8511  1.2851
  736MOL0     H97146   1.765   0.266   1.740  1.6555 -1.4792  0.9908
  736MOL0     H97147   1.767   0.138   1.622 -2.2261  0.5011  1.5753
  736MOL0     H97148   1.917   0.350   1.504 -0.1556  4.4124 -0.8885
  736MOL0     H97149   1.749   0.305   1.472 -1.1459  0.3607  0.6445
  736MOL0     H97150   1.701   0.642   1.725 -4.0405 -3.0985  1.9245
  736MOL0     H97151   2.104   0.546   1.828 -3.3248  2.2200  2.4812
  736MOL0     H97152   2.203   0.694   1.991 -0.1266  0.1055 -2.2810
  737MOL0     O97153   3.616   0.386  10.322 -0.6570 -0.2892 -0.1152
  737MOL0     C97154   3.505   0.424  10.276  0.2140  0.5481 -0.7023
  737MOL0     O97155   3.401   0.459  10.356  0.3157  0.5355  0.8091
  737MOL0     C97156   3.410   0.528  10.470 -0.7323 -0.4913 -0.7232
  737MOL0     C97157   3.532   0.582  10.535  0.1738 -0.8139 -0.2726
  737MOL0     C97158   3.518   0.659  10.657 -0.0413 -0.5653 -0.4412
  737MOL0     C97159   3.393   0.703  10.701  0.1216  0.1942  0.1680
  737MOL0     O97160   3.385   0.780  10.810  0.4136  0.2064  0.2600
  737MOL0     C97161   3.349   0.910  10.770 -0.3623  0.2337  0.6932
  737MOL0     C97162   3.248   0.964  10.868  0.5637 -0.0331 -0.0105
  737MOL0     C97163   3.220   1.109  10.844 -0.0350  0.1748 -0.5329
  737MOL0     C97164   3.103   1.162  10.936  0.1935 -0.2046  0.0914
  737MOL0     C97165   3.050   1.304  10.914 -0.4430  0.4328 -0.6817
  737MOL0     C97166   2.963   1.327  10.789 -1.1946  1.0772 -0.7903
  737MOL0     C97167   2.885   1.462  10.809 -1.1467  0.3336 -0.2476
  737MOL0     C97168   2.848   1.529  10.683  1.3104  0.2729  0.8494
  737MOL0     N97169   2.950   1.543  10.576  0.3984 -0.0181  0.6477
  737MOL0     C97170   2.955   1.478  10.454 -0.0403 -0.1550 -1.1109
  737MOL0     C97171   3.088   1.497  10.416  0.5901 -0.3052  0.7515
  737MOL0     C97172   3.140   1.451  10.283 -0.5296 -0.5023 -0.3434
  737MOL0     C97173   3.273   1.373  10.302  0.5237  0.2237  0.1048
  737MOL0     C97174   3.241   1.227  10.314 -0.4863  0.5185 -0.5460
  737MOL0     C97175   3.380   1.144  10.324  0.0216  0.3520 -0.7202
  737MOL0     O97176   3.342   1.002  10.323  1.4318 -0.2742  0.4926
  737MOL0     C97177   3.448   0.913  10.319 -0.4784  0.5160  0.1188
  737MOL0     C97178   3.457   0.829  10.206  0.6442  0.7994 -0.0216
  737MOL0     C97179   3.580   0.756  10.176  0.7196 -0.1013  0.4607
  737MOL0     C97180   3.696   0.786  10.245  0.2506  0.1505 -0.4514
  737MOL0     C97181   3.823   0.731  10.191  0.6576 -0.0235 -0.7411
  737MOL0     O97182   3.820   0.631  10.094 -0.0690 -0.3049 -0.4434
  737MOL0     C97183   3.936   0.560  10.081  0.0209  0.2017 -0.7996
  737MOL0     C97184   4.015   0.599   9.968 -1.0700 -1.1143  0.9636
  737MOL0     C97185   4.142   0.540   9.951  0.0667 -0.1938  0.1486
  737MOL0     C97186   4.189   0.451  10.046 -0.4007 -0.1435 -0.0860
  737MOL0     O97187   4.320   0.405  10.054 -0.3544 -0.7171  0.5352
  737MOL0     C97188   4.428   0.460   9.972  1.2013  1.1680 -0.1451
  737MOL0     C97189   4.438   0.369   9.851  0.2577 -0.1260  0.0679
  737MOL0     C97190   4.478   0.226   9.872 -0.2827 -0.3770 -0.6848
  737MOL0     C97191   4.479   0.153   9.746  0.1336 -0.1601  0.9140
  737MOL0     C97192   4.502   0.002   9.778 -0.1460 -0.7087  0.2903
  737MOL0     C97193   4.644  -0.064   9.775  0.1597  0.4762  0.0870
  737MOL0     C97194   4.643  -0.207   9.827 -1.4857  0.4693  0.2025
  737MOL0     C97195   4.768  -0.288   9.785  0.1824 -0.3236 -0.6705
  737MOL0    Cl97196   4.742  -0.387   9.627  0.2636  0.0735  0.1476
  737MOL0     C97197   4.118   0.427  10.162  0.5238  0.2709 -0.6034
  737MOL0     C97198   3.982   0.469  10.177  0.5798 -0.2844  0.6062
  737MOL0     O97199   3.927   0.781  10.232  1.2042 -0.4710 -0.2022
  737MOL0     C97200   3.689   0.862  10.361  0.7105 -0.2023  0.3629
  737MOL0     C97201   3.566   0.921  10.399  0.0624 -1.1807 -0.4437
  737MOL0     N97202   3.148   1.588  10.501 -1.0823 -0.0393 -0.5372
  737MOL0     N97203   3.071   1.612  10.599  0.1809 -0.4871 -0.0719
  737MOL0     C97204   3.278   0.660  10.629  0.3604  0.0817 -0.2150
  737MOL0     C97205   3.288   0.565  10.526 -0.5166 -0.2891 -0.0071
  737MOL0     C97206   3.474   0.419  10.134  0.4510  0.7394 -0.2676
  737MOL0     C97207   3.359   0.471  10.084 -0.1034  0.6342 -0.1636
  737MOL0     C97208   3.353   0.483   9.947  0.0281 -0.9099  0.1092
  737MOL0     C97209   3.455   0.448   9.860 -0.6151  0.1621  0.0659
  737MOL0     O97210   3.426   0.481   9.727 -0.5811  0.0433 -0.4548
  737MOL0     C97211   3.525   0.454   9.626  1.4692  0.2172 -0.7234
  737MOL0     C97212   3.490   0.317   9.566  0.2736 -0.1265  0.2011
  737MOL0     C97213   3.598   0.297   9.462  0.5217 -0.0037 -0.0305
  737MOL0     C97214   3.578   0.157   9.385 -0.6086 -0.1389  0.0680
  737MOL0     C97215   3.651   0.153   9.255 -0.0275 -1.3936  0.2356
  737MOL0     C97216   3.730   0.147   9.160 -0.3066 -0.1896 -0.4006
  737MOL0     C97217   3.575   0.404   9.912  0.3639  0.6277 -0.5263
  737MOL0     C97218   3.584   0.381  10.052 -0.3788  0.4890 -0.6471
  737MOL0     H97219   3.631   0.562  10.496  1.1863  1.3907  0.9823
  737MOL0     H97220   3.608   0.681  10.712 -1.4738 -0.1811  1.8891
  737MOL0     H97221   3.327   0.922  10.664  2.1254 -2.0938 -0.1859
  737MOL0     H97222   3.436   0.977  10.766 -1.3871  1.6705  1.3823
  737MOL0     H97223   3.290   0.945  10.968 -2.1226  1.3829  1.4933
  737MOL0     H97224   3.157   0.907  10.850  1.1356 -0.7753 -0.6476
  737MOL0     H97225   3.180   1.116  10.743  2.4981 -0.3545 -1.6429
  737MOL0     H97226   3.306   1.172  10.867 -0.1493  0.1858 -0.1324
  737MOL0     H97227   3.013   1.101  10.923 -0.2655  0.5938 -0.6165
  737MOL0     H97228   3.142   1.144  11.037  0.0974 -1.3098 -0.0556
  737MOL0     H97229   3.138   1.368  10.927  0.4007 -1.0829  1.4793
  737MOL0     H97230   2.978   1.329  10.992  1.0817 -1.3637  1.3931
  737MOL0     H97231   2.888   1.248  10.789 -1.7948  1.5750  1.2921
  737MOL0     H97232   3.029   1.331  10.702  1.1553 -0.7181  0.7904
  737MOL0     H97233   2.793   1.449  10.867 -1.3598  1.2824 -0.3627
  737MOL0     H97234   2.948   1.536  10.860  2.7010 -0.9626 -2.7246
  737MOL0     H97235   2.821   1.631  10.710  2.2904  1.1552 -1.3018
  737MOL0     H97236   2.761   1.481  10.638  1.6702  1.4541 -1.2393
  737MOL0     H97237   2.877   1.412  10.416  1.4237 -2.2543 -0.6654
  737MOL0     H97238   3.166   1.535  10.217  0.8793 -0.8768 -0.3111
  737MOL0     H97239   3.074   1.382  10.230 -1.6165 -1.1979  1.8272
  737MOL0     H97240   3.331   1.408  10.389  1.1596 -1.0244  0.2118
  737MOL0     H97241   3.333   1.380  10.211 -0.3276  0.9142 -0.4076
  737MOL0     H97242   3.198   1.207  10.413  2.3962 -0.1777  0.6691
  737MOL0     H97243   3.166   1.192  10.243 -2.7325 -0.6155  2.1715
  737MOL0     H97244   3.440   1.159  10.415  1.8346 -2.3332 -1.3583
  737MOL0     H97245   3.456   1.160  10.248  0.9207  1.2668  0.3371
  737MOL0     H97246   3.373   0.810  10.141 -0.4565  0.3706  1.4685
  737MOL0     H97247   3.569   0.687  10.093 -1.1759 -0.2704  0.8184
  737MOL0     H97248   3.986   0.665   9.886  4.8618 -0.0061 -0.7364
  737MOL0     H97249   4.200   0.561   9.862 -0.7007 -1.5782 -0.7278
  737MOL0     H97250   4.521   0.445  10.026  0.1419 -1.7650  1.0533
  737MOL0     H97251   4.419   0.565   9.942 -1.2398  0.0639 -3.9861
  737MOL0     H97252   4.500   0.423   9.778 -2.0669  1.0603 -1.1491
  737MOL0     H97253   4.343   0.363   9.797  0.2134 -0.3676  0.1731
  737MOL0     H97254   4.421   0.174   9.949  3.0853 -1.6342  1.1632
  737MOL0     H97255   4.580   0.222   9.910 -0.0853 -3.1719 -1.3323
  737MOL0     H97256   4.384   0.172   9.694  0.7714  0.9720  0.1140
  737MOL0     H97257   4.557   0.191   9.679 -0.1587  0.4134  0.8918
  737MOL0     H97258   4.444  -0.052   9.702  0.5905  0.2846 -1.0180
  737MOL0     H97259   4.453  -0.025   9.873 -2.1426 -1.8243 -0.9779
  737MOL0     H97260   4.708  -0.005   9.843  0.1920  4.6792 -3.1854
  737MOL0     H97261   4.685  -0.086   9.677  2.1530 -5.5045  1.8501
  737MOL0     H97262   4.639  -0.216   9.936 -5.4141 -0.3601  0.1580
  737MOL0     H97263   4.562  -0.275   9.798  0.6074 -2.3987  0.7436
  737MOL0     H97264   4.781  -0.359   9.867  3.2142  1.5228  0.6346
  737MOL0     H97265   4.862  -0.231   9.784 -0.0701  0.1423  0.2136
  737MOL0     H97266   4.156   0.364  10.243 -2.5464 -1.7032 -0.5158
  737MOL0     H97267   3.921   0.446  10.263  3.4691  0.9107  3.1466
  737MOL0     H97268   3.771   0.883  10.428  2.1124 -1.9485 -0.7392
  737MOL0     H97269   3.568   0.981  10.489 -1.4300  0.2744 -1.3299
  737MOL0     H97270   3.180   0.692  10.663  0.1020 -2.1558  1.3704
  737MOL0     H97271   3.204   0.534  10.464 -0.0559  0.1305 -0.8464
  737MOL0     H97272   3.274   0.500  10.145 -2.0801 -3.4458 -0.6623
  737MOL0     H97273   3.266   0.521   9.894  0.7782 -0.1109 -0.5680
  737MOL0     H97274   3.627   0.454   9.666  0.7192 -4.5255  1.8955
  737MOL0     H97275   3.513   0.533   9.551  1.7549  1.5801  0.6000
  737MOL0     H97276   3.509   0.239   9.641  0.3196  0.3208  0.6601
  737MOL0     H97277   3.386   0.313   9.534 -0.0938  0.1602  1.3251
  737MOL0     H97278   3.702   0.302   9.496  0.9780 -0.7976 -1.2435
  737MOL0     H97279   3.576   0.368   9.382 -0.2510  0.0593  0.2305
  737MOL0     H97280   3.632   0.085   9.447 -0.0273 -0.9963 -1.4040
  737MOL0     H97281   3.484   0.109   9.355  0.3666 -1.3921 -1.0529
  737MOL0     H97282   3.792   0.131   9.074 -1.9822 -2.8952 -1.2214
  737MOL0     H97283   3.668   0.401   9.858 -0.6203  0.9954 -2.3181
  737MOL0     H97284   3.678   0.341  10.088 -0.0821  0.4512 -1.4363
  738MOL0     O97285   4.910   5.769   1.639 -0.0151  0.0013  0.7413
  738MOL0     C97286   4.963   5.880   1.641 -0.0711  0.5410  0.7763
  738MOL0     O97287   4.900   6.000   1.665  0.2635  0.1909  0.4517
  738MOL0     C97288   4.767   6.004   1.704 -0.1153 -1.3143 -0.3003
  738MOL0     C97289   4.709   5.929   1.809  0.9257 -0.9218  0.3103
  738MOL0     C97290   4.581   5.963   1.848  0.3142 -0.3487 -0.3553
  738MOL0     C97291   4.515   6.073   1.792  0.3627  0.4851  0.0831
  738MOL0     O97292   4.416   6.138   1.853  0.3569  0.2973 -0.4198
  738MOL0     C97293   4.284   6.079   1.852  0.0508  0.7021  0.9356
  738MOL0     C97294   4.191   6.196   1.884 -0.4918 -0.0111 -0.4564
  738MOL0     C97295   4.036   6.155   1.907  0.2751 -0.4167  0.5362
  738MOL0     C97296   3.944   6.278   1.916 -0.4067  0.4427  0.5125
  738MOL0     C97297   3.799   6.232   1.949  0.8873  0.8618 -0.0242
  738MOL0     C97298   3.699   6.329   1.888 -0.3549  0.0246  0.8700
  738MOL0     C97299   3.696   6.470   1.965 -0.5583  0.1998  0.4493
  738MOL0     C97300   3.604   6.453   2.089 -0.5966 -0.1394 -0.7793
  738MOL0     N97301   3.605   6.569   2.175  0.3429  0.3315  0.0349
  738MOL0     C97302   3.612   6.704   2.141  0.9250 -0.0485  0.6513
  738MOL0     C97303   3.599   6.781   2.256  0.7166  0.1632  0.6920
  738MOL0     C97304   3.606   6.933   2.263 -0.4197 -0.1247  0.7467
  738MOL0     C97305   3.751   7.003   2.273 -0.3341  0.0118 -0.9274
  738MOL0     C97306   3.758   7.141   2.341 -0.6080 -0.5800  0.6269
  738MOL0     C97307   3.663   7.241   2.265  0.5428 -0.5545 -0.5283
  738MOL0     O97308   3.694   7.244   2.123 -0.5363 -1.7956 -0.2536
  738MOL0     C97309   3.637   7.342   2.041 -0.5577 -0.3553 -0.4510
  738MOL0     C97310   3.554   7.446   2.084 -0.3583 -0.3014 -0.6106
  738MOL0     C97311   3.491   7.534   1.998 -1.5410  1.7751 -0.3849
  738MOL0     C97312   3.513   7.520   1.862  0.2301  0.1696  1.0988
  738MOL0     C97313   3.482   7.629   1.759 -0.6554  0.5252  0.4571
  738MOL0     O97314   3.541   7.623   1.630 -0.5045  0.3857  0.4765
  738MOL0     C97315   3.530   7.734   1.547 -0.6658  0.3936 -0.4781
  738MOL0     C97316   3.399   7.797   1.528  0.0679 -0.5911 -0.4253
  738MOL0     C97317   3.382   7.884   1.416 -0.1874 -0.8830 -1.0315
  738MOL0     C97318   3.480   7.906   1.327 -0.8495  0.0841  0.1509
  738MOL0     O97319   3.472   7.977   1.204 -0.2238  0.1802 -0.1633
  738MOL0     C97320   3.379   8.085   1.215  0.4807 -0.5609 -0.1810
  738MOL0     C97321   3.418   8.209   1.138 -0.0141 -0.3440  0.2332
  738MOL0     C97322   3.432   8.186   0.990 -0.3826 -0.3400  0.1666
  738MOL0     C97323   3.483   8.302   0.907  0.6329 -0.3296  0.3497
  738MOL0     C97324   3.390   8.316   0.779  1.3523  0.3786 -0.0419
  738MOL0     C97325   3.469   8.394   0.667  0.3923 -0.8661 -0.1191
  738MOL0     C97326   3.573   8.295   0.602  0.6999  0.4875 -1.0162
  738MOL0     C97327   3.627   8.343   0.472  0.1382  0.4607 -0.3736
  738MOL0    Cl97328   3.775   8.421   0.499 -0.1798 -0.0196  0.1404
  738MOL0     C97329   3.603   7.844   1.354  0.0840 -0.2381  0.1912
  738MOL0     C97330   3.630   7.771   1.463  0.4003 -0.1553 -0.1457
  738MOL0     O97331   3.412   7.714   1.802 -0.0606 -0.0404 -0.1219
  738MOL0     C97332   3.588   7.401   1.821 -0.6053 -0.6692  0.0050
  738MOL0     C97333   3.650   7.315   1.911 -0.3735  0.8702  0.9247
  738MOL0     N97334   3.599   6.687   2.365 -0.4125 -0.3046  1.0005
  738MOL0     N97335   3.604   6.565   2.312  0.7752 -0.2571  0.2763
  738MOL0     C97336   4.573   6.168   1.702 -0.3178  0.2320  1.2618
  738MOL0     C97337   4.698   6.117   1.656  0.3117 -0.4998  0.2992
  738MOL0     C97338   5.103   5.878   1.602  0.1417 -0.2616 -0.3087
  738MOL0     C97339   5.175   5.762   1.580 -0.2914 -0.0234 -0.6690
  738MOL0     C97340   5.306   5.765   1.533 -0.7811  1.0783 -0.5520
  738MOL0     C97341   5.373   5.878   1.507 -0.4815  0.1525  0.4990
  738MOL0     O97342   5.498   5.859   1.464  0.2056  0.5141 -0.4384
  738MOL0     C97343   5.570   5.954   1.387 -0.9980  0.2533  1.0127
  738MOL0     C97344   5.494   6.007   1.271  0.4783 -0.2138 -1.1318
  738MOL0     C97345   5.522   6.155   1.231  0.1537 -0.5964  0.0875
  738MOL0     C97346   5.442   6.197   1.109  0.8680 -0.8469 -0.5241
  738MOL0     C97347   5.501   6.158   0.985 -0.6974 -0.2228  0.3561
  738MOL0     C97348   5.544   6.118   0.884 -1.1650 -0.0847  0.1432
  738MOL0     C97349   5.309   5.998   1.519  0.8431 -0.0868  0.0913
  738MOL0     C97350   5.174   6.002   1.578 -0.3235 -0.0373  0.4181
  738MOL0     H97351   4.766   5.847   1.852  0.5035 -1.1541  0.4352
  738MOL0     H97352   4.536   5.902   1.925  2.6399  0.4035  1.7478
  738MOL0     H97353   4.273   6.002   1.929 -0.6860  0.0222  0.1795
  738MOL0     H97354   4.269   6.043   1.749  0.5018 -1.9957  1.7212
  738MOL0     H97355   4.199   6.275   1.808  1.0362  1.4814  1.1637
  738MOL0     H97356   4.222   6.244   1.977  2.7183 -2.8004  0.1224
  738MOL0     H97357   4.036   6.106   2.004  0.2395 -1.8665 -0.1637
  738MOL0     H97358   4.001   6.075   1.841 -1.6545 -0.1785  1.2095
  738MOL0     H97359   3.982   6.354   1.985 -0.1089 -1.2904  2.3648
  738MOL0     H97360   3.944   6.316   1.814 -2.4031  0.7749  0.5969
  738MOL0     H97361   3.788   6.221   2.058 -1.5274 -0.0073 -0.2837
  738MOL0     H97362   3.770   6.131   1.920  0.3899  0.9419  0.1717
  738MOL0     H97363   3.600   6.288   1.866 -0.3845  1.4439 -2.1376
  738MOL0     H97364   3.736   6.368   1.793 -0.4545 -2.2098 -0.1311
  738MOL0     H97365   3.786   6.520   2.003 -0.4028 -0.5397  1.1020
  738MOL0     H97366   3.647   6.540   1.897 -1.2397 -1.6320 -1.0432
  738MOL0     H97367   3.644   6.367   2.143 -0.6805 -0.0639 -0.5970
  738MOL0     H97368   3.506   6.428   2.047 -1.1988  0.7590  0.0374
  738MOL0     H97369   3.607   6.734   2.037  0.1602 -0.0634  0.6734
  738MOL0     H97370   3.548   6.988   2.337  2.5254  1.5282  1.9934
  738MOL0     H97371   3.565   6.966   2.167 -3.0918  1.4729  2.3087
  738MOL0     H97372   3.798   7.010   2.175  3.2591  2.9131  0.8039
  738MOL0     H97373   3.813   6.941   2.338  0.1523  1.4760  0.0500
  738MOL0     H97374   3.734   7.150   2.447  2.1497 -1.1357  1.3701
  738MOL0     H97375   3.861   7.176   2.330  0.6700 -4.2894 -0.7188
  738MOL0     H97376   3.679   7.336   2.317 -0.6526 -1.0900  0.8894
  738MOL0     H97377   3.554   7.230   2.274 -0.0643  2.8880 -1.8540
  738MOL0     H97378   3.537   7.453   2.191 -0.5605 -1.4221 -0.5557
  738MOL0     H97379   3.428   7.610   2.043 -1.9851  1.3155 -0.2231
  738MOL0     H97380   3.314   7.776   1.591 -1.0814 -3.0760 -2.6338
  738MOL0     H97381   3.283   7.927   1.403 -0.4310 -1.0715  0.0990
  738MOL0     H97382   3.367   8.102   1.322  0.8059 -3.5281  0.4334
  738MOL0     H97383   3.288   8.039   1.176 -1.8112  0.8481  3.1195
  738MOL0     H97384   3.506   8.260   1.177 -0.5344  1.3828 -0.7147
  738MOL0     H97385   3.334   8.279   1.147 -1.1303 -1.5165 -0.6681
  738MOL0     H97386   3.329   8.185   0.953  0.1634 -0.0871 -1.4154
  738MOL0     H97387   3.475   8.088   0.967  0.1039 -0.0288 -0.2717
  738MOL0     H97388   3.471   8.391   0.970 -0.3675  0.7271 -1.2705
  738MOL0     H97389   3.588   8.287   0.878  0.4601 -1.5763  0.3297
  738MOL0     H97390   3.300   8.371   0.807 -1.5966 -3.8824 -0.3010
  738MOL0     H97391   3.367   8.218   0.737 -0.7597 -0.7772  3.4022
  738MOL0     H97392   3.522   8.478   0.711  1.3231 -1.6543  0.3031
  738MOL0     H97393   3.406   8.443   0.592  0.5259  0.7797  0.7956
  738MOL0     H97394   3.658   8.275   0.668  1.0905 -0.5101 -1.8078
  738MOL0     H97395   3.508   8.210   0.578 -0.2565  0.2935  1.8494
  738MOL0     H97396   3.558   8.403   0.411 -2.5328 -3.0400 -1.1028
  738MOL0     H97397   3.645   8.265   0.398 -1.6024  1.1590 -1.6123
  738MOL0     H97398   3.690   7.849   1.289 -1.6724  0.5354 -2.2625
  738MOL0     H97399   3.731   7.735   1.480  0.4502  0.3543  0.6804
  738MOL0     H97400   3.625   7.380   1.721  4.5109 -1.0808  1.7235
  738MOL0     H97401   3.705   7.226   1.883 -1.2098  0.1354  1.5384
  738MOL0     H97402   4.524   6.260   1.672  0.5778  0.5547  0.7345
  738MOL0     H97403   4.739   6.176   1.575  2.0115  0.4052  1.7502
  738MOL0     H97404   5.124   5.667   1.586 -0.7344  0.2644  0.4336
  738MOL0     H97405   5.348   5.668   1.511 -0.3785  1.4406 -1.4595
  738MOL0     H97406   5.657   5.908   1.340 -2.8145 -0.6782 -1.6198
  738MOL0     H97407   5.600   6.036   1.454 -2.2171  1.5594  0.0082
  738MOL0     H97408   5.522   5.936   1.193  0.1473 -1.6884  0.0475
  738MOL0     H97409   5.388   5.985   1.288  1.1055 -1.3409  1.8485
  738MOL0     H97410   5.631   6.159   1.216 -0.0659 -1.7690 -2.3445
  738MOL0     H97411   5.500   6.226   1.310 -1.6657 -0.0264 -0.8918
  738MOL0     H97412   5.340   6.157   1.117  0.0477  0.6145 -2.7267
  738MOL0     H97413   5.429   6.304   1.091  0.7304 -0.3815  1.9274
  738MOL0     H97414   5.568   6.075   0.789 -1.0977 -2.3700  1.1356
  738MOL0     H97415   5.356   6.095   1.507 -0.1357  0.3395 -0.3977
  738MOL0     H97416   5.137   6.100   1.606 -0.1163 -0.2704  1.5819
  739MOL0     O97417   1.261   5.320   0.418  0.2010  0.8243 -0.5507
  739MOL0     C97418   1.306   5.395   0.501 -0.3400 -0.4196  0.7492
  739MOL0     O97419   1.439   5.381   0.544  0.0419 -0.3382 -0.6836
  739MOL0     C97420   1.526   5.290   0.486  0.5918 -0.0994  0.5522
  739MOL0     C97421   1.589   5.188   0.559  0.0596  0.3508  0.0718
  739MOL0     C97422   1.690   5.109   0.502 -0.1542  0.5438 -0.5759
  739MOL0     C97423   1.728   5.121   0.369 -0.2369 -0.4808 -0.6585
  739MOL0     O97424   1.830   5.036   0.327  0.3293  0.6740  0.0480
  739MOL0     C97425   1.861   5.021   0.183 -0.3993 -0.0087 -0.6137
  739MOL0     C97426   1.938   4.886   0.159  0.4939  0.7917  0.7013
  739MOL0     C97427   2.057   4.911   0.061 -1.5104  1.1759 -1.2473
  739MOL0     C97428   2.144   4.790   0.035  0.9901 -0.0754  0.3631
  739MOL0     C97429   2.086   4.690  -0.068  0.1256  0.2044  0.1425
  739MOL0     C97430   2.036   4.741  -0.207 -0.1810  0.0103 -0.9228
  739MOL0     C97431   1.952   4.638  -0.285 -0.0452  0.4845 -0.1699
  739MOL0     C97432   2.029   4.517  -0.337  0.2533  0.1290  0.2956
  739MOL0     N97433   1.937   4.405  -0.362 -0.1369  0.1523  0.7167
  739MOL0     C97434   1.841   4.375  -0.461 -0.6095 -0.7127 -0.9298
  739MOL0     C97435   1.759   4.285  -0.407  1.2385 -0.2795  0.5401
  739MOL0     C97436   1.644   4.233  -0.480 -0.5567  0.6414 -0.3352
  739MOL0     C97437   1.518   4.223  -0.393 -0.0845  0.0386  0.5051
  739MOL0     C97438   1.496   4.344  -0.309  0.4255  0.4146  0.7406
  739MOL0     C97439   1.371   4.322  -0.233 -0.7912  0.5390  0.6986
  739MOL0     O97440   1.344   4.443  -0.156  0.0162 -1.1206 -1.2354
  739MOL0     C97441   1.277   4.438  -0.036 -0.1077  0.7490  1.1725
  739MOL0     C97442   1.289   4.545   0.055  0.6230 -0.1466 -0.1194
  739MOL0     C97443   1.225   4.528   0.177  0.4663  0.4257 -0.1047
  739MOL0     C97444   1.128   4.426   0.203  0.0352  0.7522 -0.6276
  739MOL0     C97445   1.056   4.410   0.326  0.7472 -0.2015  0.2677
  739MOL0     O97446   0.954   4.334   0.320 -0.1049 -0.1375  0.2092
  739MOL0     C97447   0.882   4.307   0.435 -0.1778  0.5016 -0.9933
  739MOL0     C97448   0.751   4.275   0.413 -0.2486  0.3637  0.3092
  739MOL0     C97449   0.671   4.225   0.513  0.2235  0.5811 -0.1474
  739MOL0     C97450   0.712   4.206   0.640  0.3440  0.1120 -0.1147
  739MOL0     O97451   0.646   4.156   0.752  0.2555  0.3741  0.4952
  739MOL0     C97452   0.515   4.110   0.741 -0.0336  0.3940 -0.0095
  739MOL0     C97453   0.454   4.068   0.871  0.0548  0.4238 -0.0946
  739MOL0     C97454   0.306   4.033   0.846  0.4512 -0.0099 -0.5168
  739MOL0     C97455   0.247   3.964   0.974 -0.3755  0.4734  0.7522
  739MOL0     C97456   0.216   4.071   1.073  0.3945  0.4902 -0.5121
  739MOL0     C97457   0.138   4.017   1.192 -0.4422  0.4210 -0.9482
  739MOL0     C97458   0.108   4.137   1.286  1.8868  0.1890 -0.2977
  739MOL0     C97459   0.218   4.155   1.390  0.4401 -0.5244 -0.0993
  739MOL0    Cl97460   0.254   4.040   1.517  0.5466 -0.0478  0.2451
  739MOL0     C97461   0.839   4.248   0.660  0.1442 -0.1619 -0.5315
  739MOL0     C97462   0.925   4.290   0.566 -0.8075 -0.6852  0.2099
  739MOL0     O97463   1.095   4.473   0.419 -0.2492  0.2561 -0.8369
  739MOL0     C97464   1.105   4.336   0.102 -0.1442  0.5021 -0.0695
  739MOL0     C97465   1.180   4.338  -0.021  0.6901 -0.5253 -0.1497
  739MOL0     N97466   1.800   4.255  -0.283 -1.4021  0.2020 -0.2092
  739MOL0     N97467   1.907   4.313  -0.259 -0.5764 -0.2550  1.0654
  739MOL0     C97468   1.665   5.223   0.295 -0.0012 -0.6385  0.2374
  739MOL0     C97469   1.565   5.308   0.355 -0.0841 -0.8415  0.4169
  739MOL0     C97470   1.244   5.516   0.552 -0.6942  0.4311  0.7220
  739MOL0     C97471   1.318   5.601   0.636  0.5666  0.9387  0.4842
  739MOL0     C97472   1.250   5.703   0.703 -0.3985  0.3018  0.4154
  739MOL0     C97473   1.111   5.728   0.683  0.5213 -0.7120 -0.1097
  739MOL0     O97474   1.039   5.829   0.732  1.3454  0.0707 -0.5423
  739MOL0     C97475   1.106   5.948   0.750 -0.8881  0.5722 -0.4927
  739MOL0     C97476   1.015   6.070   0.767  0.1769 -0.4953 -0.1566
  739MOL0     C97477   1.055   6.206   0.705 -0.2250 -0.3685 -0.2830
  739MOL0     C97478   1.039   6.215   0.539 -1.4499  0.0808 -0.0208
  739MOL0     C97479   1.168   6.191   0.483  0.6869  0.2337  0.0133
  739MOL0     C97480   1.277   6.150   0.440  0.6324 -0.0338 -0.0766
  739MOL0     C97481   1.038   5.643   0.595  0.4252  0.1921  0.1266
  739MOL0     C97482   1.107   5.540   0.527 -0.1252  0.0104  0.0717
  739MOL0     H97483   1.569   5.178   0.666  0.7556 -2.8227  0.0121
  739MOL0     H97484   1.744   5.035   0.561 -0.6363 -0.3701 -1.2439
  739MOL0     H97485   1.921   5.112   0.165 -1.0372  1.2047  2.7313
  739MOL0     H97486   1.776   5.022   0.115 -0.3686  2.2386 -0.7162
  739MOL0     H97487   1.860   4.816   0.130  2.5644 -3.2544  3.8076
  739MOL0     H97488   1.973   4.849   0.256  2.8857  1.2570  0.0906
  739MOL0     H97489   2.124   4.987   0.102 -0.7884 -0.0681 -0.0414
  739MOL0     H97490   2.030   4.958  -0.034  0.1275 -1.6681 -3.2622
  739MOL0     H97491   2.230   4.844  -0.005 -1.5543  3.4026 -0.9599
  739MOL0     H97492   2.172   4.735   0.125 -1.6228 -1.1249  0.6245
  739MOL0     H97493   2.002   4.638  -0.021  1.1261 -0.3581  1.3657
  739MOL0     H97494   2.149   4.601  -0.070 -1.3420 -0.9446  1.7836
  739MOL0     H97495   2.120   4.777  -0.267  0.2086 -1.4254 -1.2817
  739MOL0     H97496   1.976   4.831  -0.190 -1.8862 -1.2331 -0.0953
  739MOL0     H97497   1.874   4.595  -0.221 -0.0023 -0.6991 -0.8702
  739MOL0     H97498   1.897   4.693  -0.363  1.6554  2.3158 -0.1310
  739MOL0     H97499   2.099   4.480  -0.262 -0.9810 -3.6003 -0.1667
  739MOL0     H97500   2.078   4.548  -0.430  2.4107 -0.9540  1.0041
  739MOL0     H97501   1.825   4.417  -0.560 -1.9809 -0.9558 -0.8260
  739MOL0     H97502   1.675   4.136  -0.520  1.9856 -0.6698  4.1542
  739MOL0     H97503   1.621   4.311  -0.552  0.8374  1.8056  0.4497
  739MOL0     H97504   1.532   4.132  -0.334  0.6911  0.4800  1.0190
  739MOL0     H97505   1.434   4.212  -0.463  0.5145 -2.4766  0.0683
  739MOL0     H97506   1.578   4.352  -0.237  0.4970  0.8388  0.6141
  739MOL0     H97507   1.506   4.432  -0.372  3.6666 -0.5362 -0.2834
  739MOL0     H97508   1.384   4.238  -0.164  1.3780 -0.8141 -1.2068
  739MOL0     H97509   1.299   4.278  -0.302 -0.6091  1.3088  0.0103
  739MOL0     H97510   1.350   4.635   0.042  0.3166 -0.3109 -3.7028
  739MOL0     H97511   1.248   4.578   0.271 -1.7298  1.2481  0.0778
  739MOL0     H97512   0.709   4.291   0.314  3.1233 -3.9658 -2.2031
  739MOL0     H97513   0.568   4.205   0.485  0.5144 -0.6592 -0.3960
  739MOL0     H97514   0.505   4.021   0.680 -0.2368  1.0008 -0.8790
  739MOL0     H97515   0.469   4.193   0.687 -0.9564  1.5780  2.4359
  739MOL0     H97516   0.456   4.157   0.935 -5.1448  0.4135  0.5328
  739MOL0     H97517   0.511   3.987   0.919 -0.4132 -0.6950 -1.3682
  739MOL0     H97518   0.308   3.965   0.760  1.1933  0.6208 -1.0061
  739MOL0     H97519   0.254   4.124   0.816 -1.5062 -0.1009  2.1983
  739MOL0     H97520   0.148   3.924   0.949 -0.5501  0.6040  1.2087
  739MOL0     H97521   0.312   3.882   1.007  0.1923 -0.1391 -1.6789
  739MOL0     H97522   0.160   4.155   1.030  1.3065  1.5317  0.3072
  739MOL0     H97523   0.313   4.100   1.114 -0.1967  0.4957  0.9291
  739MOL0     H97524   0.195   3.942   1.247  2.9570  2.8735 -0.7770
  739MOL0     H97525   0.041   3.971   1.170 -1.5300  1.5903  1.1281
  739MOL0     H97526   0.092   4.235   1.239  2.2828  1.8441  2.7325
  739MOL0     H97527   0.016   4.106   1.336  2.9595  2.1407  3.2276
  739MOL0     H97528   0.207   4.246   1.450  2.2929 -1.0479  1.1553
  739MOL0     H97529   0.308   4.160   1.328 -1.0737  0.0336 -2.3681
  739MOL0     H97530   0.879   4.244   0.761 -0.4801  0.0257 -0.2681
  739MOL0     H97531   1.022   4.320   0.603 -2.1586  3.3558  0.9190
  739MOL0     H97532   1.049   4.245   0.120  1.2274 -0.4275 -0.3086
  739MOL0     H97533   1.168   4.252  -0.086 -1.1018  0.0005 -0.5626
  739MOL0     H97534   1.711   5.258   0.204  0.9428  1.6881  1.5177
  739MOL0     H97535   1.511   5.368   0.282  0.7604 -2.2081 -1.4141
  739MOL0     H97536   1.417   5.584   0.676 -0.4075  0.1557  2.7730
  739MOL0     H97537   1.313   5.749   0.779  1.4203 -0.7965 -0.3642
  739MOL0     H97538   1.166   5.971   0.662  0.1491  0.2169  0.0877
  739MOL0     H97539   1.167   5.934   0.841 -1.5770  0.2172 -0.0773
  739MOL0     H97540   0.914   6.048   0.732 -0.9035  1.2985  1.6032
  739MOL0     H97541   1.012   6.081   0.875 -3.6212 -1.3850 -0.0338
  739MOL0     H97542   1.154   6.239   0.736 -0.4145  1.0537 -1.1410
  739MOL0     H97543   0.998   6.289   0.747 -0.5792 -1.5341  1.6835
  739MOL0     H97544   0.964   6.146   0.500 -0.3593 -1.5223  0.6078
  739MOL0     H97545   1.021   6.317   0.503  1.5858  0.5725 -0.4083
  739MOL0     H97546   1.373   6.106   0.423  0.6208  0.2602 -0.9309
  739MOL0     H97547   0.938   5.674   0.567  0.6985  2.5058  1.5174
  739MOL0     H97548   1.052   5.471   0.464 -2.5797 -0.0826  2.1118
  740MOL0     O97549   9.238   4.883   5.428 -0.3290 -0.2357 -0.4904
  740MOL0     C97550   9.123   4.850   5.456  0.4168 -0.1315  0.0544
  740MOL0     O97551   9.019   4.854   5.370 -0.4945 -0.0405  0.2263
  740MOL0     C97552   9.000   4.933   5.260  0.0300 -0.0669 -0.1025
  740MOL0     C97553   9.045   5.067   5.271 -0.1764  1.1728  0.2408
  740MOL0     C97554   9.029   5.151   5.164  0.8970 -1.4798  0.3019
  740MOL0     C97555   8.959   5.114   5.051 -0.0807 -0.7781  0.1955
  740MOL0     O97556   8.939   5.200   4.949 -0.9829 -0.1288  0.3444
  740MOL0     C97557   8.974   5.342   4.967  0.3407 -0.2556 -0.5006
  740MOL0     C97558   8.924   5.430   4.855  0.3850  0.0378 -0.8002
  740MOL0     C97559   8.768   5.431   4.835 -0.2251  0.8626  0.5574
  740MOL0     C97560   8.742   5.514   4.711  0.6252 -0.1493  0.5245
  740MOL0     C97561   8.585   5.513   4.695 -0.7038  0.0032  0.7586
  740MOL0     C97562   8.546   5.662   4.660 -0.0563  0.6090 -0.2940
  740MOL0     C97563   8.397   5.658   4.643  0.3515 -0.2815  0.0082
  740MOL0     C97564   8.350   5.794   4.577  0.2028  0.3924  0.1059
  740MOL0     N97565   8.344   5.788   4.431  0.2359  0.1930  0.2486
  740MOL0     C97566   8.271   5.696   4.367  0.9639  0.3355  0.3281
  740MOL0     C97567   8.301   5.723   4.236  0.4817 -0.0571  0.8261
  740MOL0     C97568   8.275   5.643   4.123  0.5734  0.6639 -0.2157
  740MOL0     C97569   8.139   5.662   4.053 -0.2839 -0.2763 -0.4650
  740MOL0     C97570   8.025   5.685   4.163  0.0347  0.9819 -1.0251
  740MOL0     C97571   7.889   5.657   4.108  0.1779  0.4009  0.3205
  740MOL0     O97572   7.804   5.694   4.223 -0.1762 -0.5815 -0.0404
  740MOL0     C97573   7.696   5.619   4.245 -0.1897  0.5241 -1.0625
  740MOL0     C97574   7.634   5.632   4.371  0.2218  0.1126  0.1099
  740MOL0     C97575   7.518   5.562   4.404  0.5023  0.0966  0.0432
  740MOL0     C97576   7.457   5.488   4.300  0.7606 -0.1024  0.3141
  740MOL0     C97577   7.336   5.403   4.321 -0.9035 -0.4120  0.1541
  740MOL0     O97578   7.281   5.345   4.207  0.0759  0.1272 -0.1732
  740MOL0     C97579   7.171   5.279   4.235  0.3936 -0.1611  0.0496
  740MOL0     C97580   7.156   5.145   4.186 -0.2604  0.6243  0.1328
  740MOL0     C97581   7.030   5.072   4.206 -0.1052  0.4281 -0.1071
  740MOL0     C97582   6.917   5.134   4.266  0.3691 -1.3566  0.6091
  740MOL0     O97583   6.801   5.065   4.295  0.0257 -0.7233 -0.6549
  740MOL0     C97584   6.674   5.128   4.345  0.1607 -0.8706 -0.2074
  740MOL0     C97585   6.576   5.027   4.390 -0.0439 -0.3392 -0.1271
  740MOL0     C97586   6.474   5.084   4.486 -0.4243  0.2887 -0.5837
  740MOL0     C97587   6.370   4.973   4.527 -0.3610 -0.4092 -1.4018
  740MOL0     C97588   6.243   5.023   4.608  0.3584 -0.2216 -0.2726
  740MOL0     C97589   6.152   5.115   4.529 -0.4026 -0.6738 -0.1231
  740MOL0     C97590   6.019   5.152   4.598 -0.2063  0.2255  0.2019
  740MOL0     C97591   5.953   5.259   4.512  0.6298 -0.0325  0.2214
  740MOL0    Cl97592   6.048   5.412   4.521 -0.0184 -0.4558 -0.0032
  740MOL0     C97593   6.931   5.275   4.304 -0.1355 -0.7363  0.3570
  740MOL0     C97594   7.057   5.339   4.290 -0.8012  0.3234  0.0290
  740MOL0     O97595   7.310   5.378   4.442  0.0075  0.1497 -0.5740
  740MOL0     C97596   7.515   5.484   4.173 -0.0369  0.1830  0.0586
  740MOL0     C97597   7.635   5.539   4.150  1.1375  0.1046 -0.5668
  740MOL0     N97598   8.411   5.804   4.237 -0.1520 -0.9201  0.2995
  740MOL0     N97599   8.427   5.857   4.345 -1.4384  0.4251  0.4516
  740MOL0     C97600   8.923   4.981   5.039 -0.5486  0.1956  0.4457
  740MOL0     C97601   8.936   4.888   5.145 -0.7480  0.7110  0.0966
  740MOL0     C97602   9.105   4.812   5.601  0.3005  0.0133  0.9042
  740MOL0     C97603   9.207   4.804   5.699  0.6335 -0.7290 -0.0947
  740MOL0     C97604   9.169   4.800   5.830  0.6039  0.5278  0.3740
  740MOL0     C97605   9.032   4.808   5.868 -1.1270  0.5675  0.2934
  740MOL0     O97606   9.021   4.805   6.000 -0.9708  0.4432  0.1319
  740MOL0     C97607   8.889   4.815   6.053  0.3875  0.2259 -0.3690
  740MOL0     C97608   8.829   4.676   6.096 -0.4614  0.3628 -0.1326
  740MOL0     C97609   8.747   4.670   6.224  0.3099 -0.2827  0.9134
  740MOL0     C97610   8.641   4.788   6.243  0.9628  0.4180 -0.0649
  740MOL0     C97611   8.545   4.801   6.125 -0.3074 -0.4500 -0.7081
  740MOL0     C97612   8.487   4.825   6.015 -0.1200  0.6030  0.1694
  740MOL0     C97613   8.934   4.788   5.774 -0.1393  0.5834  0.4144
  740MOL0     C97614   8.968   4.787   5.642  0.0039 -0.4600  0.3417
  740MOL0     H97615   9.078   5.105   5.367 -0.0724  2.1483 -0.1730
  740MOL0     H97616   9.060   5.252   5.187  0.1976 -1.8719  3.4276
  740MOL0     H97617   9.083   5.356   4.968  0.0982  1.8933 -0.2906
  740MOL0     H97618   8.929   5.377   5.060 -0.6764  0.8056 -1.3583
  740MOL0     H97619   8.983   5.385   4.775  2.9262 -0.0354  1.0005
  740MOL0     H97620   8.956   5.535   4.863 -0.1797  0.2017 -0.6232
  740MOL0     H97621   8.707   5.462   4.920 -1.6623 -0.6669  0.1359
  740MOL0     H97622   8.744   5.327   4.809  0.6757  0.7752  0.0270
  740MOL0     H97623   8.784   5.615   4.712 -0.5280  0.3580 -0.2910
  740MOL0     H97624   8.792   5.469   4.626 -0.6835 -1.3560  0.3520
  740MOL0     H97625   8.533   5.480   4.785 -0.3459  1.7308  1.6511
  740MOL0     H97626   8.562   5.443   4.614 -1.2853  0.3355  0.6308
  740MOL0     H97627   8.592   5.708   4.573 -1.3439 -2.5191 -2.8459
  740MOL0     H97628   8.564   5.719   4.752 -3.1515 -1.0084  1.5151
  740MOL0     H97629   8.363   5.570   4.587  0.5250  0.8385 -1.9401
  740MOL0     H97630   8.341   5.652   4.737 -1.2084  1.3674 -0.7613
  740MOL0     H97631   8.413   5.876   4.612  0.2090  0.0751  0.8549
  740MOL0     H97632   8.244   5.811   4.603 -0.3073  0.3439 -1.8177
  740MOL0     H97633   8.199   5.631   4.416  1.5492  0.5949  1.5406
  740MOL0     H97634   8.283   5.538   4.152  4.4435  1.0248  0.6107
  740MOL0     H97635   8.359   5.660   4.055  0.1872  1.0636 -0.6013
  740MOL0     H97636   8.117   5.568   4.001 -0.2304  0.2134 -1.3853
  740MOL0     H97637   8.145   5.745   3.982 -2.4093  0.6139  0.2906
  740MOL0     H97638   8.033   5.613   4.245 -1.0766  1.9111 -0.0574
  740MOL0     H97639   8.035   5.780   4.217 -3.8327  2.5194 -2.6356
  740MOL0     H97640   7.871   5.556   4.071  1.2205  1.3915 -3.2251
  740MOL0     H97641   7.870   5.713   4.016 -1.2654 -3.5201 -2.0534
  740MOL0     H97642   7.683   5.683   4.453 -2.5174 -2.2130  3.4758
  740MOL0     H97643   7.472   5.566   4.503 -1.5666  0.7673 -0.8893
  740MOL0     H97644   7.234   5.085   4.140  1.3201  2.2420  0.5748
  740MOL0     H97645   7.028   4.966   4.183  2.4655  0.0499  1.0061
  740MOL0     H97646   6.638   5.185   4.259  2.8643  0.0950 -0.7949
  740MOL0     H97647   6.694   5.197   4.427 -0.6372 -0.0214 -0.7127
  740MOL0     H97648   6.624   4.946   4.446 -0.8832  0.0438  1.1975
  740MOL0     H97649   6.522   4.974   4.311 -1.0806 -1.2967  1.1679
  740MOL0     H97650   6.425   5.158   4.422  1.6321 -2.4950 -5.9539
  740MOL0     H97651   6.517   5.121   4.580 -2.6226  0.4366  0.4298
  740MOL0     H97652   6.344   4.923   4.433  1.9709 -0.6910 -1.9612
  740MOL0     H97653   6.410   4.893   4.590  0.3030 -0.1950 -1.5403
  740MOL0     H97654   6.284   5.058   4.703 -2.3529 -1.0789  1.3004
  740MOL0     H97655   6.180   4.942   4.646  0.4663  0.6144  1.8169
  740MOL0     H97656   6.136   5.069   4.431  1.9906 -1.9361  0.0157
  740MOL0     H97657   6.209   5.207   4.513 -1.5754  0.0633 -0.1676
  740MOL0     H97658   5.956   5.067   4.624  0.9899 -1.1841 -1.2543
  740MOL0     H97659   6.042   5.191   4.697  0.8599  0.1014  0.0205
  740MOL0     H97660   5.853   5.282   4.549  1.0773 -1.4072  2.4379
  740MOL0     H97661   5.939   5.239   4.405 -1.9862  0.8504  0.3137
  740MOL0     H97662   6.845   5.331   4.338  0.4684 -0.7604  2.0133
  740MOL0     H97663   7.065   5.443   4.320  1.3167  0.7226 -1.6465
  740MOL0     H97664   7.465   5.431   4.092 -1.4811 -1.2311  1.8092
  740MOL0     H97665   7.673   5.542   4.048  1.0356 -2.3377 -0.7269
  740MOL0     H97666   8.867   4.954   4.950 -1.1189  2.4827  0.0558
  740MOL0     H97667   8.893   4.788   5.146 -1.4164  0.9261 -1.9975
  740MOL0     H97668   9.312   4.811   5.672  0.6957 -0.1810  0.2773
  740MOL0     H97669   9.253   4.785   5.897  2.2542  1.1973 -1.4623
  740MOL0     H97670   8.823   4.862   5.979  1.1407  1.6465 -0.1677
  740MOL0     H97671   8.902   4.880   6.140  2.4643  1.4371 -1.5045
  740MOL0     H97672   8.756   4.650   6.019 -0.2692 -0.1830 -0.1402
  740MOL0     H97673   8.904   4.596   6.102 -0.4195  0.3362 -0.9372
  740MOL0     H97674   8.823   4.679   6.302  0.6533  1.3031  0.4510
  740MOL0     H97675   8.689   4.578   6.225 -0.4749  0.2105  1.9109
  740MOL0     H97676   8.582   4.767   6.332 -0.2557  0.0821 -0.9232
  740MOL0     H97677   8.698   4.877   6.271  0.2918  1.2142 -1.1611
  740MOL0     H97678   8.438   4.847   5.922  0.5456  4.6204  0.5810
  740MOL0     H97679   8.830   4.768   5.797  0.2678 -0.1300  1.7733
  740MOL0     H97680   8.880   4.789   5.580  0.7200  0.2902 -0.6757
  741MOL0     O97681   2.253  10.926   0.179  0.2748  0.2675 -0.3557
  741MOL0     C97682   2.172  10.846   0.232 -0.8027  0.0377 -0.6553
  741MOL0     O97683   2.055  10.807   0.182  1.0668  0.6221 -0.5980
  741MOL0     C97684   1.981  10.879   0.094 -0.1647  0.2770 -0.1524
  741MOL0     C97685   2.037  10.974   0.000  0.0764 -0.1435 -0.2595
  741MOL0     C97686   1.944  11.031  -0.092  0.0976  0.8089  0.5638
  741MOL0     C97687   1.804  11.017  -0.081 -0.1754  0.7142 -0.4360
  741MOL0     O97688   1.710  11.077  -0.157 -0.6639  0.8274  1.0020
  741MOL0     C97689   1.746  11.186  -0.249 -0.4799  0.2489 -0.3195
  741MOL0     C97690   1.623  11.273  -0.285 -0.3476  1.2226  0.5381
  741MOL0     C97691   1.509  11.186  -0.344  0.3144  1.0334 -0.0793
  741MOL0     C97692   1.382  11.266  -0.355  0.6494 -0.4912  0.2774
  741MOL0     C97693   1.259  11.178  -0.356  0.2992  1.1564 -0.1713
  741MOL0     C97694   1.132  11.265  -0.332 -0.4050  0.6093 -0.3655
  741MOL0     C97695   0.999  11.188  -0.322  1.1664 -0.3782 -0.1448
  741MOL0     C97696   0.875  11.281  -0.331 -0.1471  0.1955 -1.0143
  741MOL0     N97697   0.851  11.322  -0.473 -0.0684 -0.7492  0.8060
  741MOL0     C97698   0.818  11.234  -0.574  1.1756  0.4765 -0.3605
  741MOL0     C97699   0.821  11.315  -0.684 -0.2306 -0.1729  0.1614
  741MOL0     C97700   0.789  11.258  -0.820 -0.2365 -0.1028 -1.0667
  741MOL0     C97701   0.639  11.265  -0.857  0.0900 -0.9879 -0.2287
  741MOL0     C97702   0.553  11.150  -0.817  0.8109 -0.8998 -0.1105
  741MOL0     C97703   0.408  11.167  -0.855  0.3811  0.1776 -0.1847
  741MOL0     O97704   0.391  11.256  -0.966 -0.4800 -0.2228 -0.0071
  741MOL0     C97705   0.267  11.250  -1.017 -0.5379  0.5876  0.3313
  741MOL0     C97706   0.246  11.298  -1.149  1.2263  0.1698  0.0585
  741MOL0     C97707   0.118  11.288  -1.213 -0.5175 -0.1041 -0.4370
  741MOL0     C97708   0.004  11.244  -1.147 -0.9271  0.6536 -0.4119
  741MOL0     C97709  -0.133  11.269  -1.206 -1.2533 -0.3494 -0.4795
  741MOL0     O97710  -0.240  11.287  -1.129  0.9353  0.2736 -1.2374
  741MOL0     C97711  -0.230  11.371  -1.011  0.1914 -0.1019  0.6948
  741MOL0     C97712  -0.325  11.365  -0.908 -0.0014  0.4434  0.4939
  741MOL0     C97713  -0.318  11.455  -0.801 -0.9926 -1.2051  0.1783
  741MOL0     C97714  -0.223  11.549  -0.791 -0.2134 -0.4564 -0.2462
  741MOL0     O97715  -0.204  11.631  -0.683  0.5490 -0.6089  0.7919
  741MOL0     C97716  -0.299  11.655  -0.578  0.5880  0.0401  0.1397
  741MOL0     C97717  -0.228  11.765  -0.506 -0.2646 -0.1645 -0.2099
  741MOL0     C97718  -0.305  11.835  -0.394 -0.7178  0.0314 -0.4647
  741MOL0     C97719  -0.208  11.936  -0.321  0.4936  0.0522 -0.0485
  741MOL0     C97720  -0.265  11.960  -0.185  0.5107  0.3487  0.7892
  741MOL0     C97721  -0.390  12.037  -0.176  0.0083  0.0137  0.1287
  741MOL0     C97722  -0.429  12.048  -0.023  0.3379  0.2101  0.0126
  741MOL0     C97723  -0.497  11.912   0.023  1.5315  0.2234 -0.0225
  741MOL0    Cl97724  -0.524  11.933   0.199 -0.0655 -0.4514 -0.3048
  741MOL0     C97725  -0.140  11.566  -0.909 -0.4324 -0.4465  0.2197
  741MOL0     C97726  -0.140  11.473  -1.004 -0.5817  0.3611  0.1438
  741MOL0     O97727  -0.141  11.224  -1.324  0.4326  0.5683 -0.3594
  741MOL0     C97728   0.022  11.199  -1.015 -0.0428 -0.2026  0.3204
  741MOL0     C97729   0.150  11.197  -0.952 -0.4367  0.1213  0.4520
  741MOL0     N97730   0.826  11.448  -0.644 -0.5870  1.1063 -0.0719
  741MOL0     N97731   0.853  11.451  -0.527 -0.1813 -0.7690 -0.0458
  741MOL0     C97732   1.763  10.919   0.004  0.3666 -0.8624  0.5675
  741MOL0     C97733   1.838  10.848   0.095 -0.2379 -0.7307  0.0491
  741MOL0     C97734   2.210  10.767   0.356  0.7583 -1.1089  0.2103
  741MOL0     C97735   2.129  10.655   0.402  0.2536 -0.7332  0.6680
  741MOL0     C97736   2.177  10.578   0.497 -0.3841  0.1505  0.2264
  741MOL0     C97737   2.303  10.584   0.546 -0.8042  0.0345  0.6904
  741MOL0     O97738   2.346  10.475   0.615 -0.8142 -0.0830  0.5562
  741MOL0     C97739   2.478  10.472   0.677 -0.3037 -0.3468  0.1432
  741MOL0     C97740   2.486  10.342   0.760  0.0862  0.5180 -0.0193
  741MOL0     C97741   2.476  10.355   0.904  0.3972 -0.2367  0.0967
  741MOL0     C97742   2.617  10.383   0.977  0.3074 -0.1571  0.3155
  741MOL0     C97743   2.594  10.414   1.120 -0.0357  0.6093  0.2949
  741MOL0     C97744   2.573  10.470   1.221 -1.5947  0.0981 -0.1594
  741MOL0     C97745   2.383  10.690   0.504  0.5033 -0.5886 -0.4780
  741MOL0     C97746   2.342  10.777   0.404  0.0670  0.0164 -0.6178
  741MOL0     H97747   2.139  11.009  -0.011  0.4302 -1.7735 -2.8826
  741MOL0     H97748   1.977  11.107  -0.162  0.5389 -0.4729 -0.6903
  741MOL0     H97749   1.780  11.133  -0.338  0.1622 -1.0041  0.6457
  741MOL0     H97750   1.821  11.253  -0.206 -2.0398  2.2601 -0.5628
  741MOL0     H97751   1.652  11.345  -0.363  2.3698  0.2258  0.5097
  741MOL0     H97752   1.599  11.316  -0.188  0.8531  0.8782  1.0093
  741MOL0     H97753   1.487  11.107  -0.271 -0.5691  1.8872  0.6063
  741MOL0     H97754   1.536  11.152  -0.444 -0.1005 -0.8899  0.4106
  741MOL0     H97755   1.374  11.331  -0.268  2.8475 -1.7585  1.5462
  741MOL0     H97756   1.388  11.314  -0.453  2.0187 -1.6469 -0.2483
  741MOL0     H97757   1.261  11.107  -0.273 -1.4726  1.2089 -0.0470
  741MOL0     H97758   1.246  11.106  -0.437  0.6019  0.9291 -0.0165
  741MOL0     H97759   1.132  11.337  -0.414  0.3138 -1.5961 -2.4164
  741MOL0     H97760   1.143  11.317  -0.237  2.9217  2.1638 -1.4527
  741MOL0     H97761   0.985  11.104  -0.391  0.8938  0.3716 -1.0251
  741MOL0     H97762   0.995  11.133  -0.228  0.1653  0.4814  0.3511
  741MOL0     H97763   0.880  11.365  -0.261 -2.2175  0.3372 -0.9875
  741MOL0     H97764   0.793  11.226  -0.284 -2.0031  3.0419 -0.6903
  741MOL0     H97765   0.820  11.129  -0.549  2.2425  0.8014  1.0415
  741MOL0     H97766   0.846  11.166  -0.830 -0.4094 -0.5573  1.5623
  741MOL0     H97767   0.844  11.328  -0.884  2.7099  1.7589  3.0557
  741MOL0     H97768   0.631  11.279  -0.965 -0.1450 -0.3751 -0.1380
  741MOL0     H97769   0.603  11.355  -0.806 -1.4833 -0.6439 -1.8438
  741MOL0     H97770   0.587  11.056  -0.861 -1.3987 -2.2306  0.8788
  741MOL0     H97771   0.557  11.141  -0.708 -1.6138  0.1117  0.1067
  741MOL0     H97772   0.355  11.224  -0.778 -0.4728 -0.1208 -0.5294
  741MOL0     H97773   0.344  11.080  -0.874 -2.6667  2.5760 -2.1651
  741MOL0     H97774   0.307  11.361  -1.213  1.3032  0.5363  0.4850
  741MOL0     H97775   0.108  11.303  -1.320 -3.2701  0.3396 -0.1953
  741MOL0     H97776  -0.404  11.291  -0.916  0.0156  0.4208  0.5406
  741MOL0     H97777  -0.390  11.453  -0.720 -2.2782  0.5472 -0.8349
  741MOL0     H97778  -0.308  11.573  -0.506  3.9461  2.6207  3.9230
  741MOL0     H97779  -0.398  11.683  -0.615  0.8962 -2.7960 -3.4948
  741MOL0     H97780  -0.197  11.834  -0.585  1.8592  0.1480  0.8211
  741MOL0     H97781  -0.133  11.737  -0.459  0.4443  1.3848 -0.6525
  741MOL0     H97782  -0.336  11.759  -0.322  1.4838 -0.1713  0.3471
  741MOL0     H97783  -0.398  11.882  -0.426  0.1458  2.1694  0.0065
  741MOL0     H97784  -0.111  11.889  -0.302  0.5898 -0.3662 -1.4080
  741MOL0     H97785  -0.194  12.031  -0.374  3.0039  0.6054  1.4245
  741MOL0     H97786  -0.180  12.002  -0.132  2.9860 -4.2656  0.9737
  741MOL0     H97787  -0.277  11.862  -0.139 -3.9181 -1.0369 -2.5827
  741MOL0     H97788  -0.462  11.976  -0.231 -0.4269 -1.9876  2.7557
  741MOL0     H97789  -0.373  12.138  -0.216 -1.4185  0.1755 -0.1217
  741MOL0     H97790  -0.334  12.069   0.027  0.4661 -1.7008  0.6723
  741MOL0     H97791  -0.494  12.135  -0.019  0.0869  0.5186 -4.6157
  741MOL0     H97792  -0.441  11.824  -0.008  2.2521  0.4682  0.5659
  741MOL0     H97793  -0.598  11.911  -0.019  2.1350  2.2487 -1.7129
  741MOL0     H97794  -0.065  11.643  -0.893 -1.6022  0.7097  0.3484
  741MOL0     H97795  -0.069  11.493  -1.084  0.0487 -0.3801  0.5065
  741MOL0     H97796  -0.063  11.159  -0.961  0.2968 -1.9017 -0.3416
  741MOL0     H97797   0.171  11.147  -0.859 -2.1356 -1.2583  0.1413
  741MOL0     H97798   1.662  10.884  -0.015  1.2154 -2.2514 -1.8879
  741MOL0     H97799   1.800  10.785   0.175  0.8709 -0.5370  0.7501
  741MOL0     H97800   2.027  10.631   0.373  0.0975 -3.8206  3.1680
  741MOL0     H97801   2.110  10.511   0.549 -1.0253  0.9526  0.4660
  741MOL0     H97802   2.501  10.549   0.752  0.5426  0.8826 -1.3085
  741MOL0     H97803   2.559  10.471   0.603 -1.6515 -0.8636 -1.3932
  741MOL0     H97804   2.423  10.259   0.726  2.6454 -1.4788 -0.1732
  741MOL0     H97805   2.586  10.301   0.739 -0.5318 -1.2682  0.3125
  741MOL0     H97806   2.422  10.274   0.954 -1.2836  1.0854  0.4804
  741MOL0     H97807   2.401  10.433   0.920 -0.3261 -0.6971 -0.9604
  741MOL0     H97808   2.679  10.294   0.964  4.9378  2.9099 -1.3054
  741MOL0     H97809   2.661  10.468   0.923  2.3177 -0.5720  1.1996
  741MOL0     H97810   2.550  10.536   1.302  1.3839  0.1371  0.7791
  741MOL0     H97811   2.480  10.703   0.549  0.1385  0.0522  0.1496
  741MOL0     H97812   2.399  10.865   0.375  0.2040  0.6621  1.4211
  742MOL0     O97813  11.173   2.508   8.661  0.2456 -0.7411  0.2112
  742MOL0     C97814  11.189   2.461   8.550 -0.7644  0.1164  0.5226
  742MOL0     O97815  11.301   2.444   8.479 -0.4933 -0.4728 -0.2130
  742MOL0     C97816  11.421   2.475   8.549 -0.3585 -0.1856 -1.1132
  742MOL0     C97817  11.470   2.423   8.675  1.0557  1.1039  0.6835
  742MOL0     C97818  11.583   2.476   8.732  1.4169 -0.8309 -0.3345
  742MOL0     C97819  11.639   2.594   8.675  0.7709  0.1891 -0.5476
  742MOL0     O97820  11.768   2.642   8.716 -0.5079  0.0751  0.2829
  742MOL0     C97821  11.825   2.577   8.823  0.0248 -0.3949 -0.0118
  742MOL0     C97822  11.967   2.642   8.824 -0.6766  0.2142 -0.4891
  742MOL0     C97823  12.057   2.628   8.696  0.2455  0.0586  0.0431
  742MOL0     C97824  12.087   2.484   8.650  0.8842 -0.3777  0.9530
  742MOL0     C97825  12.105   2.490   8.502  0.0471 -0.0559 -0.2528
  742MOL0     C97826  12.190   2.614   8.445 -0.3138 -0.2884 -0.3552
  742MOL0     C97827  12.214   2.588   8.294  0.4037  0.1572  0.8007
  742MOL0     C97828  12.082   2.560   8.218  0.6662  0.3958  0.3345
  742MOL0     N97829  12.001   2.683   8.209 -0.3678 -1.0881  0.0861
  742MOL0     C97830  11.906   2.731   8.296  0.5803 -0.4674 -0.0245
  742MOL0     C97831  11.848   2.828   8.228 -0.5551 -0.3147 -0.8883
  742MOL0     C97832  11.736   2.918   8.289  0.7921 -0.0527 -0.1038
  742MOL0     C97833  11.595   2.871   8.255  0.1705  0.8639 -1.2870
  742MOL0     C97834  11.489   2.956   8.337  0.6831  0.3329 -0.0561
  742MOL0     C97835  11.349   2.936   8.283 -0.4154 -0.1067 -0.6706
  742MOL0     O97836  11.276   3.044   8.327  0.5621  0.7656  0.2884
  742MOL0     C97837  11.238   3.039   8.457 -0.2497 -1.5984 -0.0805
  742MOL0     C97838  11.215   2.934   8.540  0.0562  0.2908  0.4742
  742MOL0     C97839  11.158   2.949   8.665 -0.0382 -0.4716 -0.5077
  742MOL0     C97840  11.104   3.070   8.695 -0.3561 -0.3948  0.7998
  742MOL0     C97841  11.068   3.085   8.831  1.0923  0.5835  0.4533
  742MOL0     O97842  11.005   2.985   8.893  0.2453  0.1935 -0.5182
  742MOL0     C97843  10.967   2.991   9.026  0.6261  1.4336  0.1029
  742MOL0     C97844  10.967   2.859   9.091  0.5817  0.2856  0.1229
  742MOL0     C97845  10.915   2.851   9.216  0.8640  0.1867  0.3139
  742MOL0     C97846  10.849   2.958   9.282  0.4839 -0.0913 -0.5908
  742MOL0     O97847  10.788   2.959   9.407 -0.0264 -0.8276  0.8648
  742MOL0     C97848  10.755   2.830   9.470 -0.8577 -0.7233  0.2087
  742MOL0     C97849  10.870   2.769   9.543 -0.1167 -0.0279 -0.3682
  742MOL0     C97850  10.897   2.849   9.677  0.1570 -0.0654  0.6797
  742MOL0     C97851  11.018   2.815   9.761  0.4940 -0.2122  0.4538
  742MOL0     C97852  11.156   2.846   9.683 -0.3661 -0.6797  0.4727
  742MOL0     C97853  11.215   2.715   9.622 -0.3485  0.8235  0.6180
  742MOL0     C97854  11.322   2.744   9.515  0.6530  0.3559  0.4845
  742MOL0     C97855  11.394   2.617   9.470  0.4520  0.7522 -0.7705
  742MOL0    Cl97856  11.461   2.517   9.604  0.2695 -0.1504 -0.8452
  742MOL0     C97857  10.856   3.082   9.220  0.2999 -0.9880  0.8318
  742MOL0     C97858  10.907   3.099   9.092 -0.0283 -0.1285  0.5996
  742MOL0     O97859  11.090   3.193   8.886 -1.4569  0.7494  0.1258
  742MOL0     C97860  11.117   3.175   8.612  0.7409 -0.0950 -0.9280
  742MOL0     C97861  11.182   3.156   8.495  0.0762 -1.5507  0.1518
  742MOL0     N97862  11.913   2.848   8.106  0.4512 -0.8358 -0.3001
  742MOL0     N97863  12.002   2.764   8.095  0.4208 -0.7338  0.9892
  742MOL0     C97864  11.576   2.657   8.568  0.2293 -0.4301 -0.1022
  742MOL0     C97865  11.473   2.592   8.498 -0.2180  0.2727 -0.1116
  742MOL0     C97866  11.066   2.428   8.470  0.5197 -0.2552 -0.7240
  742MOL0     C97867  10.952   2.509   8.480 -0.2713 -0.0833  0.6848
  742MOL0     C97868  10.838   2.479   8.399  0.2139  0.0989  0.2332
  742MOL0     C97869  10.839   2.376   8.308 -0.3905  0.6381  0.2041
  742MOL0     O97870  10.719   2.347   8.245  0.1877  0.5207  0.2233
  742MOL0     C97871  10.714   2.220   8.176 -0.4886  0.0765  0.2066
  742MOL0     C97872  10.579   2.181   8.116  0.1196 -1.1091 -0.8039
  742MOL0     C97873  10.495   2.301   8.067  0.2402 -0.9524 -0.3259
  742MOL0     C97874  10.349   2.257   8.059 -0.6045 -0.1816 -0.2916
  742MOL0     C97875  10.332   2.146   7.961  0.1855 -0.2668  0.0433
  742MOL0     C97876  10.344   2.069   7.868  0.1077  1.4030 -0.9045
  742MOL0     C97877  10.954   2.303   8.292 -0.5081 -0.1060  0.2418
  742MOL0     C97878  11.061   2.326   8.379  0.5271 -0.7237  0.0990
  742MOL0     H97879  11.411   2.344   8.720  1.4797  0.6898  0.5220
  742MOL0     H97880  11.609   2.436   8.830 -3.4110 -3.4167  0.1560
  742MOL0     H97881  11.838   2.468   8.814  5.3376 -0.5281  4.4912
  742MOL0     H97882  11.772   2.607   8.914 -1.6831  0.6164 -1.2693
  742MOL0     H97883  12.030   2.607   8.906  1.9772  3.5876 -0.8620
  742MOL0     H97884  11.950   2.746   8.854  0.6677  0.9054 -2.0241
  742MOL0     H97885  12.150   2.681   8.720  2.0601 -2.4555 -1.0026
  742MOL0     H97886  12.001   2.677   8.616  0.2987 -0.9290 -0.6173
  742MOL0     H97887  12.184   2.447   8.686  0.6891 -3.2447 -1.1680
  742MOL0     H97888  12.013   2.416   8.694 -3.7285  4.3612  1.5338
  742MOL0     H97889  12.008   2.489   8.453 -0.0333 -2.0665 -0.1338
  742MOL0     H97890  12.143   2.391   8.474 -3.6359 -1.8665  0.5737
  742MOL0     H97891  12.279   2.636   8.505 -0.3220  1.2466 -0.8567
  742MOL0     H97892  12.146   2.713   8.455  1.2220  0.3231  0.6369
  742MOL0     H97893  12.258   2.674   8.243 -0.3974 -0.2698 -0.6526
  742MOL0     H97894  12.277   2.499   8.282 -1.3398 -1.3394  2.2204
  742MOL0     H97895  12.029   2.476   8.263  1.2858 -0.6106 -0.7652
  742MOL0     H97896  12.116   2.524   8.121 -1.6702  0.8248 -0.7032
  742MOL0     H97897  11.885   2.690   8.394  1.2644 -0.3246  0.1837
  742MOL0     H97898  11.739   3.021   8.254 -1.2058  1.1791  2.8959
  742MOL0     H97899  11.751   2.925   8.397  1.6842  0.7683 -0.2734
  742MOL0     H97900  11.577   2.764   8.268  0.0558  0.9531 -0.6601
  742MOL0     H97901  11.573   2.876   8.148 -1.1655 -1.2955 -1.1750
  742MOL0     H97902  11.513   2.928   8.440  0.1989  0.8862  0.2075
  742MOL0     H97903  11.522   3.058   8.318 -0.1633  0.1657 -2.9351
  742MOL0     H97904  11.316   2.834   8.303 -0.8336  0.3117  0.9464
  742MOL0     H97905  11.360   2.955   8.176  4.1621 -1.8248 -0.7064
  742MOL0     H97906  11.253   2.836   8.513 -1.4442 -0.0314 -0.6047
  742MOL0     H97907  11.152   2.867   8.737  1.1531 -0.5959 -0.5212
  742MOL0     H97908  10.986   2.768   9.035 -5.7592 -1.1848 -0.3501
  742MOL0     H97909  10.894   2.754   9.259  0.3539  1.1329  2.3240
  742MOL0     H97910  10.721   2.756   9.396 -1.8051 -1.1329  1.0318
  742MOL0     H97911  10.677   2.855   9.542  1.8222  3.1122  2.1160
  742MOL0     H97912  10.955   2.776   9.475  0.0697  0.6336 -0.0692
  742MOL0     H97913  10.848   2.666   9.572  0.3773  0.2142  0.9363
  742MOL0     H97914  10.811   2.842   9.744 -0.2358 -0.7426  0.1109
  742MOL0     H97915  10.903   2.956   9.654 -0.7976 -0.5875 -2.5506
  742MOL0     H97916  11.030   2.869   9.855  2.1239 -2.6888  1.7799
  742MOL0     H97917  11.010   2.710   9.788  3.0420 -0.8320 -0.8195
  742MOL0     H97918  11.234   2.879   9.751  1.5579 -0.6028 -1.6385
  742MOL0     H97919  11.128   2.916   9.604 -3.6097  1.6786  3.4127
  742MOL0     H97920  11.140   2.654   9.572  1.5668 -0.4714 -0.8195
  742MOL0     H97921  11.261   2.657   9.703 -1.9910 -1.4977  0.0035
  742MOL0     H97922  11.265   2.793   9.435  1.0423 -0.8672 -0.5671
  742MOL0     H97923  11.401   2.807   9.557  0.6998 -1.2951  3.1250
  742MOL0     H97924  11.477   2.641   9.402  1.7808 -0.6921  0.2616
  742MOL0     H97925  11.332   2.543   9.418  2.2681 -4.0316  3.0508
  742MOL0     H97926  10.818   3.170   9.272 -0.6502 -0.2674 -0.9949
  742MOL0     H97927  10.896   3.195   9.043 -0.5758  0.3830  1.6839
  742MOL0     H97928  11.055   3.263   8.626 -2.6827 -2.4102 -0.0713
  742MOL0     H97929  11.194   3.243   8.431 -0.5867 -2.1080 -0.7513
  742MOL0     H97930  11.612   2.750   8.523 -2.4978  0.3915 -0.7646
  742MOL0     H97931  11.429   2.642   8.413  0.3867  1.1438  0.0656
  742MOL0     H97932  10.952   2.590   8.553 -0.2784  0.3080  0.2535
  742MOL0     H97933  10.745   2.535   8.409 -0.3506 -0.0079 -3.1543
  742MOL0     H97934  10.747   2.148   8.251  1.5298 -0.8740 -1.5020
  742MOL0     H97935  10.786   2.215   8.094  1.3258 -4.2835  1.7932
  742MOL0     H97936  10.589   2.106   8.037 -0.1783 -1.1311 -0.8224
  742MOL0     H97937  10.524   2.134   8.198  0.0023 -1.5038 -1.1030
  742MOL0     H97938  10.531   2.325   7.967  1.2206 -1.2046 -0.0453
  742MOL0     H97939  10.512   2.388   8.131  2.1850  0.8015 -3.0584
  742MOL0     H97940  10.326   2.222   8.160 -0.9852 -0.7529 -0.5749
  742MOL0     H97941  10.287   2.340   8.025 -0.4379 -0.7193 -1.9723
  742MOL0     H97942  10.374   1.997   7.794  1.0277  0.0896  0.6872
  742MOL0     H97943  10.967   2.220   8.224 -1.8417 -0.2286  0.1134
  742MOL0     H97944  11.160   2.281   8.373  0.0691 -1.7381  0.0004
  743MOL0     O97945   1.416   7.278   4.050 -0.2120 -0.2309  0.2988
  743MOL0     C97946   1.348   7.357   3.978 -0.7420 -0.2450 -0.1147
  743MOL0     O97947   1.282   7.328   3.855  0.2373 -0.6945  0.6155
  743MOL0     C97948   1.329   7.224   3.793  0.3673 -0.0682 -0.2357
  743MOL0     C97949   1.243   7.116   3.765 -0.1507  0.1133 -0.4728
  743MOL0     C97950   1.295   6.988   3.728 -0.4015 -0.2977 -0.3959
  743MOL0     C97951   1.420   6.980   3.672  0.1553 -0.9699 -0.0339
  743MOL0     O97952   1.459   6.868   3.612 -0.1367 -0.6205  0.2512
  743MOL0     C97953   1.599   6.850   3.563  0.3085  0.4106 -0.4792
  743MOL0     C97954   1.637   6.703   3.546 -0.8896 -0.9623  0.1082
  743MOL0     C97955   1.785   6.702   3.522 -1.1114  0.2359 -0.5961
  743MOL0     C97956   1.830   6.744   3.382  0.3222 -0.5042  1.2248
  743MOL0     C97957   1.963   6.685   3.345  0.3635 -0.2134  0.6661
  743MOL0     C97958   2.023   6.720   3.201 -0.6287 -0.5951  0.7259
  743MOL0     C97959   2.064   6.874   3.187  0.0763  0.4980  0.1400
  743MOL0     C97960   2.190   6.900   3.092  0.0915 -0.4204  0.6364
  743MOL0     N97961   2.145   6.916   2.951 -0.1244 -1.1840 -0.5250
  743MOL0     C97962   2.107   7.036   2.894 -0.7952 -0.3357 -0.0582
  743MOL0     C97963   2.019   7.001   2.797 -0.0191 -0.9299  0.4186
  743MOL0     C97964   1.957   7.095   2.697 -0.2049 -0.0640  1.6112
  743MOL0     C97965   1.979   7.038   2.556 -0.5954 -0.0339 -0.2998
  743MOL0     C97966   1.918   7.130   2.452 -0.3660  0.1748  0.2506
  743MOL0     C97967   2.008   7.133   2.327  0.2097  0.4379  0.7288
  743MOL0     O97968   1.956   7.195   2.210  0.0152 -0.0073  0.5167
  743MOL0     C97969   2.021   7.191   2.087  0.2017  1.4876  0.5314
  743MOL0     C97970   2.133   7.116   2.055  0.4618  0.4405 -0.3660
  743MOL0     C97971   2.179   7.108   1.923 -0.5931 -0.3832  0.6030
  743MOL0     C97972   2.113   7.178   1.817 -0.0299 -0.8443 -0.6113
  743MOL0     C97973   2.169   7.172   1.677  0.9157 -0.8879  0.3784
  743MOL0     O97974   2.123   7.264   1.584  0.1615 -0.3434  0.2628
  743MOL0     C97975   2.140   7.226   1.454  0.4041  0.3156 -0.4621
  743MOL0     C97976   2.078   7.108   1.412 -0.6284 -0.2072 -0.0640
  743MOL0     C97977   2.081   7.064   1.271  0.3750  0.3035 -0.3262
  743MOL0     C97978   2.156   7.139   1.183 -0.3202  0.1170 -0.7157
  743MOL0     O97979   2.179   7.101   1.056  0.9919 -0.2248  0.1271
  743MOL0     C97980   2.068   7.061   0.962 -0.5584  0.3197 -0.2984
  743MOL0     C97981   2.129   7.013   0.830  0.0959  0.3928  1.1453
  743MOL0     C97982   2.031   6.954   0.723 -0.7887 -0.5415  0.0923
  743MOL0     C97983   2.110   6.899   0.603 -0.0126  0.3041 -0.0095
  743MOL0     C97984   2.025   6.842   0.486 -0.1909 -1.0997 -0.7323
  743MOL0     C97985   2.079   6.709   0.422  0.0432  0.3540 -0.0764
  743MOL0     C97986   2.047   6.692   0.270  0.6057 -0.4728 -0.1285
  743MOL0     C97987   1.891   6.684   0.260 -0.3344  0.2598 -0.0157
  743MOL0    Cl97988   1.836   6.702   0.090 -0.0824 -0.1128  0.6560
  743MOL0     C97989   2.217   7.261   1.229  0.1373  0.0408 -1.3118
  743MOL0     C97990   2.209   7.305   1.359  1.0437 -0.5790  0.3528
  743MOL0     O97991   2.251   7.091   1.657  0.3763 -0.4087  0.0189
  743MOL0     C97992   1.989   7.247   1.848  0.5816 -0.0702  0.7974
  743MOL0     C97993   1.952   7.261   1.982  0.8429  1.0211  0.6201
  743MOL0     N97994   1.987   6.865   2.811  0.1255  0.1784 -0.3473
  743MOL0     N97995   2.073   6.816   2.895 -0.3032  0.6680  0.2491
  743MOL0     C97996   1.503   7.094   3.701 -0.2700  0.9913  0.1811
  743MOL0     C97997   1.461   7.209   3.762 -0.6471  0.1346 -0.0081
  743MOL0     C97998   1.314   7.490   4.045  0.1733 -0.2448 -0.4097
  743MOL0     C97999   1.387   7.543   4.159  0.3358 -0.1429  0.7687
  743MOL0     C98000   1.355   7.669   4.219 -0.9335  0.9778  0.3057
  743MOL0     C98001   1.254   7.743   4.150 -0.2190 -0.6276  0.1989
  743MOL0     O98002   1.214   7.856   4.208  0.3826 -0.4335  0.4013
  743MOL0     C98003   1.207   7.980   4.132 -0.5502  0.1438  0.1812
  743MOL0     C98004   1.298   7.995   4.010  0.3975 -0.3299  0.5801
  743MOL0     C98005   1.444   8.027   4.053  0.1701 -0.4846  0.4922
  743MOL0     C98006   1.528   8.075   3.937  0.4154  0.3318 -0.1783
  743MOL0     C98007   1.538   7.974   3.827 -0.0204 -0.8748  0.1775
  743MOL0     C98008   1.541   7.890   3.744  0.4986 -0.7222  0.0948
  743MOL0     C98009   1.188   7.706   4.032  0.7022  0.1948 -0.0496
  743MOL0     C98010   1.226   7.583   3.977  0.3391 -0.3233 -0.9789
  743MOL0     H98011   1.137   7.129   3.785 -0.0190 -0.1362  0.4096
  743MOL0     H98012   1.236   6.898   3.713  0.2638 -0.7795 -0.1648
  743MOL0     H98013   1.667   6.891   3.638 -1.1637  2.0351  0.0219
  743MOL0     H98014   1.619   6.907   3.472  4.0850  1.7136  1.0046
  743MOL0     H98015   1.583   6.653   3.466  0.2979 -0.9844 -0.7048
  743MOL0     H98016   1.621   6.646   3.639  1.4595 -2.6137 -0.4065
  743MOL0     H98017   1.817   6.598   3.534 -1.2923  0.1218 -1.0756
  743MOL0     H98018   1.837   6.771   3.588 -1.6000  2.8582 -2.7559
  743MOL0     H98019   1.756   6.713   3.307  2.2812  4.3379 -3.3224
  743MOL0     H98020   1.845   6.852   3.375  1.4157 -0.7297 -3.4685
  743MOL0     H98021   1.949   6.577   3.346 -5.0262  0.0868 -2.6339
  743MOL0     H98022   2.033   6.716   3.424 -1.1934 -0.7886  2.3236
  743MOL0     H98023   1.955   6.693   3.120 -0.8151 -2.5747  1.4996
  743MOL0     H98024   2.113   6.659   3.199 -1.3925 -1.7507  0.6021
  743MOL0     H98025   1.973   6.929   3.160  0.0271 -0.8102 -2.6520
  743MOL0     H98026   2.093   6.901   3.289 -4.4219  1.2486  1.4161
  743MOL0     H98027   2.261   6.817   3.099  0.3020 -0.2849  0.1701
  743MOL0     H98028   2.245   6.989   3.122 -0.5070  0.5610 -1.0489
  743MOL0     H98029   2.153   7.134   2.904  0.1468 -0.7783  0.0144
  743MOL0     H98030   2.008   7.191   2.699  2.1061 -1.1822  0.2112
  743MOL0     H98031   1.851   7.111   2.720  0.3061  2.9371  2.2215
  743MOL0     H98032   1.937   6.937   2.557 -1.2046  0.0457 -3.9250
  743MOL0     H98033   2.086   7.030   2.534  0.3141  3.8531  1.7693
  743MOL0     H98034   1.818   7.097   2.425 -1.2783  1.6200  1.6699
  743MOL0     H98035   1.901   7.225   2.503 -0.3903 -0.3275  1.1991
  743MOL0     H98036   2.024   7.028   2.301 -1.3461  0.5592 -0.8684
  743MOL0     H98037   2.107   7.173   2.351  0.1504  3.5674 -3.2048
  743MOL0     H98038   2.187   7.061   2.131 -0.4870  1.6714  1.2816
  743MOL0     H98039   2.279   7.066   1.911 -0.7863 -0.5769 -0.4066
  743MOL0     H98040   2.029   7.033   1.473 -1.4541 -0.2232 -0.7215
  743MOL0     H98041   2.029   6.976   1.235  1.0846 -0.0044 -0.6289
  743MOL0     H98042   2.037   7.164   0.940  5.4072  2.0943 -2.4421
  743MOL0     H98043   1.997   6.995   1.013 -0.9997  1.3807  0.4899
  743MOL0     H98044   2.203   6.934   0.850  0.0530 -0.2444 -0.9740
  743MOL0     H98045   2.174   7.099   0.779 -0.0776 -0.4308 -0.4661
  743MOL0     H98046   1.960   7.027   0.683  0.5398 -0.4251 -2.2270
  743MOL0     H98047   1.969   6.887   0.784 -4.1630  2.2852  0.0800
  743MOL0     H98048   2.182   6.971   0.565 -2.1230  1.3724 -2.1928
  743MOL0     H98049   2.168   6.819   0.651  0.1388 -0.2104 -1.0257
  743MOL0     H98050   2.013   6.919   0.410 -0.3604  1.0777  1.3935
  743MOL0     H98051   1.925   6.830   0.529  1.0127 -0.1351  2.6362
  743MOL0     H98052   2.029   6.623   0.469  0.7934 -0.5370 -0.8721
  743MOL0     H98053   2.186   6.711   0.442  0.3248  0.1433 -1.4347
  743MOL0     H98054   2.098   6.769   0.212  1.8134  0.3593  1.9350
  743MOL0     H98055   2.095   6.598   0.239  1.6171 -0.3219  0.9139
  743MOL0     H98056   1.833   6.753   0.324 -2.0329  1.0415 -2.2656
  743MOL0     H98057   1.867   6.580   0.285  0.5518 -1.1735 -4.3375
  743MOL0     H98058   2.274   7.309   1.150  2.3796 -1.9843 -1.0355
  743MOL0     H98059   2.239   7.404   1.390  1.1016 -0.3448 -0.4329
  743MOL0     H98060   1.936   7.290   1.764 -0.5828  0.5578  1.8246
  743MOL0     H98061   1.861   7.316   2.004 -1.4549 -2.0163 -0.5368
  743MOL0     H98062   1.601   7.102   3.656  1.3412  5.1794  3.6990
  743MOL0     H98063   1.545   7.274   3.785 -0.0526  0.5384 -2.9387
  743MOL0     H98064   1.462   7.478   4.203  0.0693 -0.9492  0.0703
  743MOL0     H98065   1.395   7.692   4.317  0.3759 -0.6312  0.1873
  743MOL0     H98066   1.229   8.068   4.194 -1.6259 -0.2516  1.1737
  743MOL0     H98067   1.103   7.975   4.098 -1.8641 -0.6237  3.8032
  743MOL0     H98068   1.291   7.913   3.938 -1.1615  0.6437 -0.4347
  743MOL0     H98069   1.253   8.081   3.960 -0.6884 -0.0242  2.0296
  743MOL0     H98070   1.492   7.934   4.084 -0.5673 -1.3606 -0.8883
  743MOL0     H98071   1.439   8.103   4.131 -0.4595 -3.1160  3.1530
  743MOL0     H98072   1.496   8.172   3.898 -1.2096 -0.0950  0.0079
  743MOL0     H98073   1.628   8.101   3.974  1.4286  0.0866 -2.5885
  743MOL0     H98074   1.547   7.823   3.660  3.0278  0.1217 -0.4876
  743MOL0     H98075   1.116   7.773   3.988  0.2633  0.1424  0.5706
  743MOL0     H98076   1.199   7.547   3.878  1.7801  1.0606 -1.9320
  744MOL0     O98077   8.993   7.521   3.528 -0.0621  0.4393 -0.6504
  744MOL0     C98078   8.872   7.526   3.513 -0.3116 -0.1162  1.0723
  744MOL0     O98079   8.813   7.555   3.389 -0.4506 -0.9228  0.3008
  744MOL0     C98080   8.884   7.562   3.268 -1.0960 -0.1773  0.0433
  744MOL0     C98081   9.023   7.524   3.246 -0.2825  0.0450 -0.5823
  744MOL0     C98082   9.077   7.527   3.113 -0.0223 -0.0369  0.1622
  744MOL0     C98083   9.002   7.583   3.007 -0.3928 -0.0170 -0.6521
  744MOL0     O98084   9.062   7.597   2.886 -0.4293 -0.0463 -0.6063
  744MOL0     C98085   8.982   7.571   2.771 -0.3985 -0.3719 -0.3259
  744MOL0     C98086   9.077   7.499   2.665 -0.6605  0.0665 -0.0414
  744MOL0     C98087   9.033   7.517   2.513  0.0704 -0.6970 -0.7387
  744MOL0     C98088   9.106   7.426   2.419 -0.6472 -0.8682 -0.8461
  744MOL0     C98089   9.130   7.498   2.281 -0.0913  0.4970 -0.4896
  744MOL0     C98090   9.255   7.577   2.273 -1.4939  0.5113  0.9094
  744MOL0     C98091   9.374   7.489   2.223 -0.4336  0.2551 -0.1944
  744MOL0     C98092   9.474   7.430   2.330  0.8308  0.2680 -0.4728
  744MOL0     N98093   9.598   7.396   2.266 -0.0114  0.0175  1.1108
  744MOL0     C98094   9.711   7.474   2.263 -0.2216  0.1346  0.7163
  744MOL0     C98095   9.810   7.407   2.202 -0.3368  0.5807  0.5353
  744MOL0     C98096   9.947   7.459   2.184 -0.8205 -0.1373  0.0798
  744MOL0     C98097  10.004   7.467   2.041 -0.3227  0.1938  0.2823
  744MOL0     C98098  10.160   7.514   2.055  0.1923 -0.1501  0.2929
  744MOL0     C98099  10.161   7.665   2.062 -0.2447  0.3090 -0.0441
  744MOL0     O98100  10.192   7.730   1.936  0.6946 -0.0739 -0.6068
  744MOL0     C98101  10.101   7.722   1.832 -0.7074  0.5316 -0.3965
  744MOL0     C98102  10.013   7.820   1.810  0.2442 -0.1308 -0.1205
  744MOL0     C98103   9.945   7.836   1.690  0.0105  1.7976 -1.0669
  744MOL0     C98104   9.953   7.735   1.590 -0.0724 -0.6847  0.4720
  744MOL0     C98105   9.882   7.758   1.467 -0.5636  0.4126  0.3037
  744MOL0     O98106   9.900   7.665   1.374 -0.3973 -0.2269 -0.3964
  744MOL0     C98107   9.861   7.658   1.239  0.4897  0.2168 -0.4082
  744MOL0     C98108   9.906   7.546   1.168  0.5124 -0.1648  0.0274
  744MOL0     C98109   9.848   7.534   1.040  0.7318  0.3190 -0.4429
  744MOL0     C98110   9.771   7.628   0.975  0.8902 -1.3364 -0.1591
  744MOL0     O98111   9.749   7.620   0.840 -0.5732 -0.0991  0.3598
  744MOL0     C98112   9.634   7.681   0.784  0.0166  0.5778 -0.3033
  744MOL0     C98113   9.499   7.620   0.821 -0.4831 -1.1804 -0.5868
  744MOL0     C98114   9.404   7.571   0.716  0.5846  1.0583 -0.6093
  744MOL0     C98115   9.326   7.454   0.776 -0.1098 -0.1524  0.6942
  744MOL0     C98116   9.215   7.394   0.676  0.0331 -1.0524 -0.0006
  744MOL0     C98117   9.129   7.502   0.605 -0.0598 -0.1257  0.1120
  744MOL0     C98118   9.052   7.438   0.488  0.9036  0.2330  0.3204
  744MOL0     C98119   8.973   7.539   0.403  0.5693 -0.0410  0.3203
  744MOL0    Cl98120   8.823   7.581   0.502  0.3163  0.2924  0.1277
  744MOL0     C98121   9.735   7.740   1.048  0.0036  0.5772  0.6158
  744MOL0     C98122   9.776   7.754   1.181 -0.4141  0.6446 -0.0234
  744MOL0     O98123   9.801   7.847   1.450  0.8418  0.4859  0.1761
  744MOL0     C98124  10.032   7.626   1.618  0.1818  0.6169 -0.1401
  744MOL0     C98125  10.113   7.623   1.738  0.6486  0.0265  0.0898
  744MOL0     N98126   9.755   7.287   2.159 -0.6146  0.0370  0.9649
  744MOL0     N98127   9.627   7.284   2.207 -0.9154  0.0049 -0.1144
  744MOL0     C98128   8.870   7.615   3.026  0.6889 -0.1515  0.3347
  744MOL0     C98129   8.818   7.616   3.158  0.6798 -0.2632  0.0632
  744MOL0     C98130   8.794   7.517   3.633  0.4221 -0.3159 -0.3375
  744MOL0     C98131   8.657   7.533   3.617  0.2117 -0.5753  0.4980
  744MOL0     C98132   8.577   7.521   3.731 -0.5847 -0.2489  1.0557
  744MOL0     C98133   8.637   7.511   3.856  0.0153  1.1152 -0.2450
  744MOL0     O98134   8.563   7.532   3.974 -0.4580 -0.2216  1.2721
  744MOL0     C98135   8.542   7.668   3.999  0.3718 -0.4560 -0.1524
  744MOL0     C98136   8.499   7.698   4.149  0.4196 -0.5669  0.2944
  744MOL0     C98137   8.358   7.653   4.175 -0.8635  0.3581  0.9575
  744MOL0     C98138   8.302   7.715   4.298  0.0396 -0.3071  0.8460
  744MOL0     C98139   8.318   7.640   4.422  0.6627 -0.7242 -0.9623
  744MOL0     C98140   8.342   7.603   4.539 -1.0622 -0.3307  0.7230
  744MOL0     C98141   8.768   7.491   3.865  0.1463  1.2052 -0.7174
  744MOL0     C98142   8.854   7.497   3.758  0.2234  0.2447 -0.3690
  744MOL0     H98143   9.088   7.487   3.325 -1.3320 -0.9752 -0.1696
  744MOL0     H98144   9.178   7.489   3.100  0.2633  0.7719 -0.0199
  744MOL0     H98145   8.941   7.664   2.731 -0.1670  0.8429  2.0728
  744MOL0     H98146   8.900   7.500   2.786  0.3652 -0.9354  1.4638
  744MOL0     H98147   9.070   7.394   2.696  2.6077 -0.1849  0.1478
  744MOL0     H98148   9.178   7.538   2.675  0.2331 -1.0782 -3.2861
  744MOL0     H98149   9.049   7.622   2.486  2.0489 -0.7075  0.1480
  744MOL0     H98150   8.924   7.518   2.511 -0.0450  2.1458  1.0903
  744MOL0     H98151   9.204   7.414   2.466 -0.2685  1.3796 -0.9538
  744MOL0     H98152   9.051   7.332   2.410 -1.0811 -0.4777 -2.7999
  744MOL0     H98153   9.053   7.570   2.252 -0.3941 -0.7370 -2.9648
  744MOL0     H98154   9.131   7.421   2.203  0.7072  1.1763 -1.1677
  744MOL0     H98155   9.286   7.616   2.370  1.9823 -1.2531  0.6606
  744MOL0     H98156   9.234   7.660   2.205  2.0771  0.8510  0.0302
  744MOL0     H98157   9.339   7.410   2.155  1.3890  0.8977 -1.9631
  744MOL0     H98158   9.432   7.559   2.162  1.1268  0.2462  1.2166
  744MOL0     H98159   9.434   7.333   2.362  2.7087 -2.2356 -4.8805
  744MOL0     H98160   9.500   7.493   2.416  1.2305 -0.4256 -0.0707
  744MOL0     H98161   9.706   7.575   2.302 -0.7877  0.4180 -0.0563
  744MOL0     H98162  10.020   7.401   2.241  0.2824  1.5740  0.4744
  744MOL0     H98163   9.956   7.556   2.233 -2.1668 -0.2183  0.5324
  744MOL0     H98164   9.947   7.536   1.978  0.3127  1.2972  0.8804
  744MOL0     H98165  10.004   7.368   1.995  0.0063  0.6964 -0.8158
  744MOL0     H98166  10.222   7.474   2.136 -1.5463  2.3880  3.0973
  744MOL0     H98167  10.221   7.494   1.967 -0.5470 -3.2740  0.3830
  744MOL0     H98168  10.241   7.690   2.131 -0.2520 -3.0625  1.3570
  744MOL0     H98169  10.070   7.695   2.114 -0.5258  0.7488 -0.7760
  744MOL0     H98170   9.992   7.894   1.887 -0.9995 -4.2430  3.9350
  744MOL0     H98171   9.890   7.926   1.666  0.2931  1.4696 -3.1688
  744MOL0     H98172   9.978   7.484   1.220 -0.5449  1.1236  3.2042
  744MOL0     H98173   9.874   7.464   0.961 -0.5895  0.8353 -1.3864
  744MOL0     H98174   9.638   7.678   0.674 -1.7844  2.2583 -0.4796
  744MOL0     H98175   9.636   7.789   0.798  2.2366  0.5916 -0.4373
  744MOL0     H98176   9.442   7.685   0.889  3.2156  1.1006  0.6145
  744MOL0     H98177   9.520   7.536   0.887  1.0613  0.8711  1.7063
  744MOL0     H98178   9.452   7.553   0.620  1.2431 -0.6591 -0.0009
  744MOL0     H98179   9.332   7.650   0.696 -0.4778  0.2507 -0.0754
  744MOL0     H98180   9.402   7.380   0.802  1.1390  1.3961  1.6048
  744MOL0     H98181   9.286   7.486   0.873  1.4400  1.1693  0.9496
  744MOL0     H98182   9.152   7.333   0.741  1.0705 -1.9785  0.1725
  744MOL0     H98183   9.266   7.343   0.593 -0.1091 -0.2906 -0.5588
  744MOL0     H98184   9.189   7.586   0.568 -2.4783  1.2183 -1.0175
  744MOL0     H98185   9.062   7.541   0.682 -5.0917 -5.6924 -0.7738
  744MOL0     H98186   9.123   7.385   0.424 -1.2150 -2.4955  0.0310
  744MOL0     H98187   8.988   7.371   0.547  2.4363 -0.4142  1.3013
  744MOL0     H98188   8.941   7.488   0.312  1.4472  0.3847 -0.2473
  744MOL0     H98189   9.021   7.628   0.360 -1.6163  0.5766 -1.0341
  744MOL0     H98190   9.675   7.821   1.009  1.3559  1.7959  0.9777
  744MOL0     H98191   9.734   7.844   1.225 -1.4786  1.0336 -1.7067
  744MOL0     H98192  10.036   7.548   1.543 -0.1804  1.0891 -0.6560
  744MOL0     H98193  10.185   7.543   1.749  0.4915 -0.4809 -2.0145
  744MOL0     H98194   8.803   7.653   2.949  1.2638  1.7834  0.7248
  744MOL0     H98195   8.714   7.649   3.159  0.6818 -0.1736 -1.0782
  744MOL0     H98196   8.609   7.546   3.521  1.4052 -3.2629 -0.5765
  744MOL0     H98197   8.474   7.555   3.722 -1.1250 -1.6420  1.8148
  744MOL0     H98198   8.466   7.716   3.937 -1.3041 -1.3042  1.1476
  744MOL0     H98199   8.631   7.731   3.990  0.1439  0.0441  0.9227
  744MOL0     H98200   8.567   7.651   4.221 -0.9300 -0.4591  1.6953
  744MOL0     H98201   8.510   7.804   4.175 -1.7111  0.2803 -1.8636
  744MOL0     H98202   8.346   7.545   4.186 -0.0974 -0.3118 -3.1737
  744MOL0     H98203   8.300   7.685   4.088  0.0715 -3.0852 -1.1059
  744MOL0     H98204   8.355   7.810   4.315  1.6045 -1.0523  0.3445
  744MOL0     H98205   8.195   7.738   4.291  0.1763  0.3782  0.9175
  744MOL0     H98206   8.378   7.576   4.636 -0.8950  1.8052  1.2905
  744MOL0     H98207   8.816   7.487   3.962  1.0449  0.5600 -1.1684
  744MOL0     H98208   8.962   7.488   3.765  0.2074  1.2057  1.7581
  745MOL0     O98209   2.348   9.485   8.172  0.2415 -0.1885  0.6874
  745MOL0     C98210   2.235   9.481   8.123  0.3778  0.8042 -0.0246
  745MOL0     O98211   2.116   9.489   8.194 -0.2493  0.7162 -0.3440
  745MOL0     C98212   2.112   9.509   8.329 -0.1093  0.2348  0.1973
  745MOL0     C98213   2.002   9.447   8.391  0.1179 -0.4053 -0.0945
  745MOL0     C98214   1.990   9.467   8.533 -0.1947  0.2845  0.2849
  745MOL0     C98215   2.086   9.529   8.611 -0.1283 -0.5457  0.5522
  745MOL0     O98216   2.073   9.555   8.742 -0.0391 -0.0546 -0.3746
  745MOL0     C98217   1.968   9.653   8.782  0.3843 -0.0847 -0.6693
  745MOL0     C98218   2.031   9.749   8.890 -0.1782  0.8678 -0.1612
  745MOL0     C98219   1.929   9.839   8.954 -1.4086  0.8616 -0.4422
  745MOL0     C98220   1.860   9.753   9.062  0.4096  0.6032  0.0860
  745MOL0     C98221   1.750   9.842   9.129 -0.1351 -0.6301 -0.3481
  745MOL0     C98222   1.722   9.808   9.273  0.1534  0.1315 -0.5733
  745MOL0     C98223   1.655   9.666   9.278 -0.5082 -1.1053 -0.9258
  745MOL0     C98224   1.501   9.667   9.242  0.4485 -0.2119  0.8084
  745MOL0     N98225   1.420   9.754   9.327 -0.6957  1.1331 -0.3755
  745MOL0     C98226   1.395   9.718   9.463  0.4416 -0.0837  0.2016
  745MOL0     C98227   1.327   9.827   9.513  0.5062  0.2868 -0.3445
  745MOL0     C98228   1.275   9.836   9.656 -0.0816 -0.7149 -0.1368
  745MOL0     C98229   1.310   9.721   9.749 -0.3980  0.6090  1.2306
  745MOL0     C98230   1.461   9.723   9.780  0.4865 -0.1897 -1.0187
  745MOL0     C98231   1.489   9.589   9.845 -0.2184  0.5975  0.3627
  745MOL0     O98232   1.622   9.595   9.916  0.5661 -0.3029 -0.5462
  745MOL0     C98233   1.726   9.616   9.835 -0.4232 -0.3589  1.3416
  745MOL0     C98234   1.737   9.544   9.720  0.0165 -0.6163  0.1337
  745MOL0     C98235   1.842   9.565   9.631 -0.1049  0.2308 -0.7605
  745MOL0     C98236   1.943   9.660   9.660 -0.0824  0.8872  0.5282
  745MOL0     C98237   2.056   9.666   9.558  0.2510 -0.3241 -0.5704
  745MOL0     O98238   2.150   9.769   9.579 -0.3348  0.0144  0.4274
  745MOL0     C98239   2.224   9.790   9.462 -0.0235 -0.3582  0.5845
  745MOL0     C98240   2.362   9.776   9.453  0.2231  0.0291 -1.0247
  745MOL0     C98241   2.434   9.800   9.342  0.1680 -0.3252  0.2011
  745MOL0     C98242   2.376   9.858   9.226 -0.2285 -1.2300 -0.6555
  745MOL0     O98243   2.443   9.898   9.111  0.1679 -0.2023 -0.1355
  745MOL0     C98244   2.586   9.865   9.099 -1.0376 -0.4413 -1.4057
  745MOL0     C98245   2.647   9.912   8.964  0.3040  0.2313 -0.1671
  745MOL0     C98246   2.567   9.860   8.842 -0.8151  0.8647  0.0731
  745MOL0     C98247   2.644   9.880   8.709  0.1274 -0.3105 -0.7964
  745MOL0     C98248   2.554   9.868   8.586 -1.0797 -0.0410  0.2343
  745MOL0     C98249   2.624   9.829   8.454 -1.0690  0.9497  0.2131
  745MOL0     C98250   2.743   9.926   8.413 -0.0656  0.4910  0.5493
  745MOL0     C98251   2.689  10.057   8.360 -0.8369  0.4185  0.5632
  745MOL0    Cl98252   2.819  10.161   8.311 -0.0865  0.0412  0.1223
  745MOL0     C98253   2.236   9.874   9.233  0.0554  1.3958 -0.0906
  745MOL0     C98254   2.163   9.848   9.353  0.6191  0.5735  0.8149
  745MOL0     O98255   2.060   9.593   9.461  0.0482  0.4036 -0.1430
  745MOL0     C98256   1.922   9.747   9.776  0.4312  0.5157 -0.1768
  745MOL0     C98257   1.815   9.725   9.865  0.1801  0.4215 -0.9036
  745MOL0     N98258   1.342   9.919   9.413  0.8215 -0.7053  0.1228
  745MOL0     N98259   1.398   9.881   9.306 -0.4326 -0.7063  0.1157
  745MOL0     C98260   2.194   9.588   8.547 -0.6307 -0.6138 -0.6449
  745MOL0     C98261   2.205   9.581   8.410 -0.4069 -0.2585  0.2192
  745MOL0     C98262   2.224   9.487   7.976  0.2320 -0.9802  0.3150
  745MOL0     C98263   2.108   9.450   7.904 -1.6776  0.8309 -0.1731
  745MOL0     C98264   2.105   9.463   7.760 -0.5251 -0.5310 -0.4800
  745MOL0     C98265   2.213   9.503   7.682 -0.9101 -0.7111 -0.7865
  745MOL0     O98266   2.207   9.503   7.547  0.6440  0.0758  0.5933
  745MOL0     C98267   2.325   9.488   7.472 -0.4642 -0.0869 -1.2482
  745MOL0     C98268   2.276   9.482   7.328 -0.3367 -0.0570 -0.5703
  745MOL0     C98269   2.203   9.349   7.300  0.0126 -0.4926  0.0617
  745MOL0     C98270   2.165   9.340   7.151 -0.0936  0.8846 -0.2182
  745MOL0     C98271   2.063   9.439   7.092 -1.1877  0.2008  0.0619
  745MOL0     C98272   1.975   9.510   7.054 -0.5876 -0.3870  0.4079
  745MOL0     C98273   2.324   9.541   7.763 -0.0032 -0.2169 -0.4043
  745MOL0     C98274   2.329   9.533   7.901  0.5208 -0.2197 -0.3464
  745MOL0     H98275   1.935   9.383   8.335  1.3464 -4.0252  2.2343
  745MOL0     H98276   1.898   9.434   8.580  0.6509 -0.9983  1.1057
  745MOL0     H98277   1.875   9.604   8.813  1.0170 -0.3876  0.8121
  745MOL0     H98278   1.945   9.718   8.697  2.9331  1.5595 -0.2136
  745MOL0     H98279   2.100   9.826   8.853 -0.3287  0.8992 -0.3717
  745MOL0     H98280   2.098   9.694   8.957 -0.1592 -2.0353 -2.3906
  745MOL0     H98281   1.858   9.873   8.877  1.8315  0.8483 -3.7214
  745MOL0     H98282   1.969   9.924   9.011  1.8025 -0.5494 -0.3840
  745MOL0     H98283   1.830   9.656   9.022  0.0925  0.9648 -0.5719
  745MOL0     H98284   1.934   9.719   9.135 -0.4723  0.1402  0.7756
  745MOL0     H98285   1.663   9.817   9.068 -0.9547 -1.9879  1.3062
  745MOL0     H98286   1.783   9.946   9.115  1.6729 -1.1340 -0.1814
  745MOL0     H98287   1.670   9.890   9.324  0.3515 -1.5531  2.6309
  745MOL0     H98288   1.816   9.810   9.330 -0.1784  0.7380 -0.0324
  745MOL0     H98289   1.713   9.597   9.215  0.8568 -1.8470  1.0568
  745MOL0     H98290   1.669   9.630   9.380  0.9881  0.0507 -0.6926
  745MOL0     H98291   1.458   9.567   9.252 -2.1738  0.7670  0.2652
  745MOL0     H98292   1.490   9.691   9.136 -1.8327 -0.3029  0.9813
  745MOL0     H98293   1.407   9.623   9.515  1.0515  0.0094  0.2346
  745MOL0     H98294   1.167   9.851   9.647  0.0040  0.4779  0.6539
  745MOL0     H98295   1.306   9.933   9.695 -1.8122 -0.4766  0.7761
  745MOL0     H98296   1.287   9.626   9.698 -2.4064  1.5251  0.3409
  745MOL0     H98297   1.258   9.737   9.843  0.2999  1.0042  1.5512
  745MOL0     H98298   1.516   9.738   9.687 -1.6112  1.4947 -2.0851
  745MOL0     H98299   1.478   9.800   9.856 -0.2251  1.0281 -2.0595
  745MOL0     H98300   1.485   9.503   9.778 -0.1888 -0.0199  1.1374
  745MOL0     H98301   1.427   9.562   9.932 -1.9422 -0.0589 -1.0121
  745MOL0     H98302   1.661   9.472   9.691 -0.4924  0.6603 -1.9444
  745MOL0     H98303   1.839   9.508   9.538 -0.5612  0.8803 -1.1502
  745MOL0     H98304   2.410   9.741   9.544 -0.6626  0.7714 -0.2628
  745MOL0     H98305   2.540   9.780   9.349  0.8191  0.8740 -3.6939
  745MOL0     H98306   2.593   9.759   9.124 -0.4033 -0.2481 -0.7015
  745MOL0     H98307   2.640   9.921   9.177  0.8477 -1.3394 -2.0134
  745MOL0     H98308   2.749   9.874   8.957  0.2675 -0.0667  0.8442
  745MOL0     H98309   2.648  10.022   8.963  0.5918  0.2403 -1.6330
  745MOL0     H98310   2.471   9.911   8.832  0.6593  3.3950 -2.3798
  745MOL0     H98311   2.546   9.754   8.861 -1.9947  1.7146  5.1673
  745MOL0     H98312   2.679   9.982   8.728 -2.8367  0.6058  0.3258
  745MOL0     H98313   2.717   9.798   8.703  1.1899  0.5906 -0.4862
  745MOL0     H98314   2.507   9.965   8.565  0.1701 -0.3355 -5.6479
  745MOL0     H98315   2.478   9.794   8.610  2.6695 -3.9556  1.3359
  745MOL0     H98316   2.562   9.821   8.364  2.0227  1.1075 -2.1029
  745MOL0     H98317   2.668   9.731   8.474 -1.5624  0.5525 -0.5887
  745MOL0     H98318   2.816   9.948   8.492 -1.1032 -2.8643  2.6372
  745MOL0     H98319   2.798   9.873   8.334  0.3092  2.9303 -0.9150
  745MOL0     H98320   2.625  10.101   8.437 -2.3539 -0.6509 -0.0241
  745MOL0     H98321   2.640  10.037   8.265 -0.4499  1.2295  0.1813
  745MOL0     H98322   2.181   9.891   9.141 -1.4644 -4.2675 -0.5786
  745MOL0     H98323   2.055   9.855   9.354  0.5331 -0.4507  0.4594
  745MOL0     H98324   1.990   9.828   9.801  2.3328 -1.7614  2.6687
  745MOL0     H98325   1.781   9.779   9.953 -0.5383 -0.8930 -0.3399
  745MOL0     H98326   2.264   9.637   8.614 -1.2693  0.9094 -1.0397
  745MOL0     H98327   2.291   9.629   8.365  2.5626 -1.1406  4.4338
  745MOL0     H98328   2.022   9.416   7.960 -0.7046  0.0163  0.8870
  745MOL0     H98329   2.025   9.432   7.693 -0.8072  0.7223 -0.7519
  745MOL0     H98330   2.394   9.408   7.500 -0.9202  0.3219  1.2473
  745MOL0     H98331   2.384   9.579   7.488 -0.2170 -0.4252 -0.1351
  745MOL0     H98332   2.215   9.569   7.301  0.0474 -0.0214 -1.3726
  745MOL0     H98333   2.369   9.470   7.271 -1.4989  1.2910 -2.9068
  745MOL0     H98334   2.112   9.346   7.362  0.1840 -0.6542  0.3036
  745MOL0     H98335   2.269   9.269   7.334  2.4223  0.1869 -2.6673
  745MOL0     H98336   2.258   9.338   7.092 -0.3496 -0.0201 -0.6107
  745MOL0     H98337   2.122   9.241   7.136  0.8820  0.6315 -1.4725
  745MOL0     H98338   1.891   9.558   7.007 -1.8210 -1.7212  1.1600
  745MOL0     H98339   2.411   9.570   7.704  0.8536 -1.3769  0.2426
  745MOL0     H98340   2.419   9.573   7.946 -0.5869  0.1275  1.6832
  746MOL0     O98341   5.046   7.220   7.726  0.1884  0.2404  0.1886
  746MOL0     C98342   5.115   7.144   7.791 -0.3931  0.3807 -0.3529
  746MOL0     O98343   5.074   7.056   7.886  0.0252 -1.3586 -1.0610
  746MOL0     C98344   4.959   7.089   7.951  0.5184  0.2130  0.7363
  746MOL0     C98345   4.955   7.165   8.065 -0.0092  1.2000 -0.3615
  746MOL0     C98346   4.831   7.198   8.123  0.6207 -0.1994  0.5897
  746MOL0     C98347   4.709   7.154   8.063 -0.1117  0.7833 -0.3269
  746MOL0     O98348   4.588   7.171   8.121 -0.5613 -0.0747 -0.0177
  746MOL0     C98349   4.489   7.071   8.102 -0.1057 -0.6561 -1.2473
  746MOL0     C98350   4.392   7.126   8.000 -0.7232  0.1413  1.0251
  746MOL0     C98351   4.274   7.036   7.977 -0.2087  0.3978  0.4290
  746MOL0     C98352   4.310   6.899   7.927 -0.7023  0.1192  0.4163
  746MOL0     C98353   4.181   6.811   7.911 -0.0047 -0.5364 -0.2661
  746MOL0     C98354   4.109   6.793   8.051 -0.0608 -0.0567  1.1785
  746MOL0     C98355   4.003   6.687   8.051  0.4619  1.2739  0.3652
  746MOL0     C98356   4.047   6.549   8.097 -0.3038 -0.8102  0.2495
  746MOL0     N98357   4.055   6.542   8.243  0.4527  0.1474 -0.4072
  746MOL0     C98358   4.175   6.500   8.302 -0.2538  0.4253  0.3899
  746MOL0     C98359   4.152   6.533   8.439 -0.8874 -0.4583 -1.5972
  746MOL0     C98360   4.242   6.508   8.553 -0.0538 -0.0808 -0.8380
  746MOL0     C98361   4.355   6.412   8.531  0.3439  0.8361 -0.2073
  746MOL0     C98362   4.325   6.261   8.541  0.3084  0.4178 -0.3489
  746MOL0     C98363   4.246   6.206   8.412 -0.0854 -1.0206 -0.7063
  746MOL0     O98364   4.325   6.225   8.296 -1.4525  0.3469 -0.1734
  746MOL0     C98365   4.454   6.162   8.276  0.3520  0.1469  0.6522
  746MOL0     C98366   4.542   6.229   8.188  0.3333  0.3546 -0.3417
  746MOL0     C98367   4.655   6.159   8.150 -0.1245  0.6511 -0.1035
  746MOL0     C98368   4.701   6.032   8.199  0.4435 -0.4470  0.8441
  746MOL0     C98369   4.823   5.969   8.145 -0.5432 -0.1379 -0.8214
  746MOL0     O98370   4.872   6.002   8.024  0.1499 -0.8590  0.2557
  746MOL0     C98371   4.986   5.940   7.972  0.0689  0.3418  0.2617
  746MOL0     C98372   5.088   5.874   8.046  0.1419  0.3765 -0.4015
  746MOL0     C98373   5.196   5.827   7.967 -0.6914  0.9379 -0.8011
  746MOL0     C98374   5.199   5.821   7.828 -0.3123  0.2846 -0.2634
  746MOL0     O98375   5.312   5.786   7.764 -0.0926 -1.0944  0.1445
  746MOL0     C98376   5.315   5.726   7.633  0.2737  0.5248 -1.0202
  746MOL0     C98377   5.407   5.608   7.635 -0.2057  0.4830  0.7527
  746MOL0     C98378   5.382   5.523   7.517 -0.1657 -0.3715  0.6437
  746MOL0     C98379   5.507   5.430   7.495 -0.8070  0.2830 -0.0516
  746MOL0     C98380   5.489   5.323   7.385  0.4633  0.2240  0.4897
  746MOL0     C98381   5.619   5.230   7.362 -0.0932 -1.2595  0.0814
  746MOL0     C98382   5.620   5.134   7.476  0.4845  0.4496 -0.3929
  746MOL0     C98383   5.745   5.049   7.476 -0.4268 -0.2485 -0.0219
  746MOL0    Cl98384   5.747   4.942   7.328 -0.5994 -0.1782 -0.0842
  746MOL0     C98385   5.084   5.871   7.764 -0.7183 -0.4320 -0.3815
  746MOL0     C98386   4.979   5.929   7.836 -0.6103  0.2977  0.6330
  746MOL0     O98387   4.843   5.863   8.205 -0.5183  0.2932 -0.1398
  746MOL0     C98388   4.607   5.970   8.287  0.0541  0.0783 -0.0122
  746MOL0     C98389   4.489   6.037   8.326  0.5894 -1.3214  0.2239
  746MOL0     N98390   4.014   6.569   8.453  0.3064  0.7027 -0.7336
  746MOL0     N98391   3.969   6.590   8.340  0.1170 -0.9926 -0.0404
  746MOL0     C98392   4.719   7.090   7.942  1.3807 -0.8193  0.4931
  746MOL0     C98393   4.838   7.054   7.887 -0.2922 -0.7104  0.1171
  746MOL0     C98394   5.261   7.148   7.772 -0.6186 -0.2016  0.3142
  746MOL0     C98395   5.339   7.054   7.836 -0.3149  0.1969 -0.0370
  746MOL0     C98396   5.478   7.037   7.806 -0.4111  0.2072  0.2785
  746MOL0     C98397   5.532   7.120   7.702  1.1397  0.1367  0.0448
  746MOL0     O98398   5.665   7.124   7.662 -0.3544 -0.4019  0.0446
  746MOL0     C98399   5.702   7.098   7.526  0.7489 -0.2973  0.5041
  746MOL0     C98400   5.672   6.955   7.481 -0.3483  0.3334  0.5517
  746MOL0     C98401   5.743   6.845   7.571 -0.0746  0.7144 -0.2353
  746MOL0     C98402   5.730   6.692   7.532 -0.3839  0.2038  0.9911
  746MOL0     C98403   5.778   6.671   7.387  1.0945 -0.4407  0.4491
  746MOL0     C98404   5.820   6.635   7.278 -0.5454 -0.3490 -0.1853
  746MOL0     C98405   5.458   7.229   7.663  0.4058 -0.1823 -0.9218
  746MOL0     C98406   5.325   7.234   7.687  0.5571  0.2459  0.3166
  746MOL0     H98407   5.051   7.189   8.110 -0.1651  1.8832 -0.3847
  746MOL0     H98408   4.847   7.232   8.225  0.6365  2.2933 -0.1791
  746MOL0     H98409   4.437   7.070   8.199 -1.6826  1.5307 -1.9656
  746MOL0     H98410   4.527   6.969   8.088  2.3282 -0.1328  0.8747
  746MOL0     H98411   4.440   7.135   7.902 -1.4349 -1.2465  0.5189
  746MOL0     H98412   4.360   7.224   8.036  2.5305  1.4360  0.7571
  746MOL0     H98413   4.216   7.089   7.901 -0.0984  2.0280  1.4268
  746MOL0     H98414   4.219   7.032   8.072  1.7736  3.1699  1.8260
  746MOL0     H98415   4.372   6.899   7.837  0.6223 -0.0439  1.2999
  746MOL0     H98416   4.373   6.840   7.994 -1.1214 -3.6496 -2.1971
  746MOL0     H98417   4.214   6.714   7.871 -2.3009 -1.2181 -0.6775
  746MOL0     H98418   4.114   6.843   7.831 -1.1427 -1.7818  0.1345
  746MOL0     H98419   4.060   6.885   8.083 -0.5190  0.6271 -1.2366
  746MOL0     H98420   4.182   6.774   8.130  0.4225  2.4223  1.4190
  746MOL0     H98421   3.928   6.722   8.122 -0.0034 -1.9657  1.6288
  746MOL0     H98422   3.954   6.673   7.954  0.2041 -6.3227  1.0229
  746MOL0     H98423   4.143   6.531   8.047  1.5205  0.2432  3.0974
  746MOL0     H98424   3.975   6.476   8.058  1.1686 -2.0232 -0.3133
  746MOL0     H98425   4.267   6.464   8.257  0.3058  0.1239  1.7502
  746MOL0     H98426   4.185   6.469   8.638  2.5875 -0.4898  0.8531
  746MOL0     H98427   4.274   6.606   8.589 -2.8703  0.5036  0.3346
  746MOL0     H98428   4.433   6.440   8.602  0.3620  1.4137 -0.4485
  746MOL0     H98429   4.390   6.427   8.428  0.2824  0.5856 -0.2673
  746MOL0     H98430   4.417   6.204   8.555  0.1538 -0.7336 -3.2696
  746MOL0     H98431   4.249   6.240   8.618 -1.0974 -4.9944 -2.7048
  746MOL0     H98432   4.147   6.252   8.414 -1.5177 -3.9094 -0.5254
  746MOL0     H98433   4.232   6.099   8.428 -1.6892 -0.6141  0.8407
  746MOL0     H98434   4.516   6.323   8.143  0.7032  0.3434 -0.5864
  746MOL0     H98435   4.718   6.222   8.087  0.0332  2.5093  1.8139
  746MOL0     H98436   5.106   5.867   8.153  0.5164  0.3719 -0.4631
  746MOL0     H98437   5.287   5.783   8.007 -0.4717  1.5090 -0.6719
  746MOL0     H98438   5.360   5.804   7.570  0.3451 -1.3119 -3.3766
  746MOL0     H98439   5.221   5.696   7.587  1.7298 -2.4824 -2.2995
  746MOL0     H98440   5.387   5.535   7.714  0.2639  0.4905  0.8803
  746MOL0     H98441   5.509   5.639   7.660 -0.9772  1.8329  2.3494
  746MOL0     H98442   5.377   5.589   7.430 -3.0259  1.1552  1.8515
  746MOL0     H98443   5.283   5.477   7.524 -1.0809  1.0347 -1.7780
  746MOL0     H98444   5.599   5.484   7.469 -0.5142  0.7244  1.7381
  746MOL0     H98445   5.527   5.378   7.590  0.0478  0.6646 -0.0129
  746MOL0     H98446   5.458   5.364   7.289  0.4223 -2.9301 -1.0005
  746MOL0     H98447   5.400   5.263   7.406 -0.6303  0.9788 -1.6903
  746MOL0     H98448   5.704   5.298   7.373 -0.8011 -0.5537  1.5775
  746MOL0     H98449   5.609   5.185   7.263 -1.3631 -0.3796 -0.2213
  746MOL0     H98450   5.610   5.178   7.576 -0.0390 -2.4681  0.9511
  746MOL0     H98451   5.533   5.072   7.456 -1.1774  2.9178 -1.2813
  746MOL0     H98452   5.743   4.982   7.562  3.1849 -1.4606 -0.6756
  746MOL0     H98453   5.836   5.108   7.493 -0.1290 -0.0066 -2.1450
  746MOL0     H98454   5.075   5.876   7.656 -0.4659 -0.0495 -0.3878
  746MOL0     H98455   4.900   5.979   7.781  1.1540  1.6645 -0.8148
  746MOL0     H98456   4.626   5.869   8.322  0.9768 -0.1005 -0.9742
  746MOL0     H98457   4.437   5.974   8.396  1.9462 -0.3692  2.1778
  746MOL0     H98458   4.625   7.067   7.893  1.2064 -0.1785  0.5173
  746MOL0     H98459   4.842   6.994   7.796  0.3362  1.2518 -1.1971
  746MOL0     H98460   5.291   6.988   7.908 -1.6548  1.6590  0.4786
  746MOL0     H98461   5.540   6.968   7.861  0.8760  2.6715  2.0953
  746MOL0     H98462   5.810   7.112   7.516  1.4661 -2.0301  4.0707
  746MOL0     H98463   5.644   7.169   7.467  0.6013  2.2097  3.4353
  746MOL0     H98464   5.564   6.951   7.499 -0.2366  1.2319  1.5137
  746MOL0     H98465   5.697   6.945   7.375 -0.3091 -1.9991  0.7327
  746MOL0     H98466   5.711   6.846   7.676  0.7780 -0.7248  0.0551
  746MOL0     H98467   5.850   6.869   7.568 -0.1981  1.2932 -0.2169
  746MOL0     H98468   5.792   6.634   7.601  2.0550  1.1978 -0.2263
  746MOL0     H98469   5.624   6.664   7.540 -0.2148 -1.0032 -0.4580
  746MOL0     H98470   5.858   6.616   7.180  2.0634  2.4903  0.1039
  746MOL0     H98471   5.514   7.308   7.613 -0.7763 -0.9982 -3.7625
  746MOL0     H98472   5.280   7.327   7.652  1.8705  0.1108 -1.9085
  747MOL0     O98473   7.839   1.174   3.765 -0.4807  0.0490 -0.5068
  747MOL0     C98474   7.752   1.148   3.685  0.6549  0.3839 -0.3628
  747MOL0     O98475   7.690   1.028   3.673 -0.0016 -0.2521 -0.4503
  747MOL0     C98476   7.688   0.947   3.787 -0.3092  0.1058  0.7040
  747MOL0     C98477   7.617   0.993   3.891  0.3528 -0.7480 -0.7728
  747MOL0     C98478   7.605   0.914   4.003  0.7894 -0.3941  0.6822
  747MOL0     C98479   7.658   0.788   4.007  0.4333  0.5898 -0.3431
  747MOL0     O98480   7.642   0.715   4.122  0.1176 -0.7044  0.0264
  747MOL0     C98481   7.697   0.581   4.141  0.2254  0.5052  0.3864
  747MOL0     C98482   7.838   0.589   4.192 -1.4248  0.4852 -0.4604
  747MOL0     C98483   7.905   0.454   4.234  0.9068 -0.1400  0.7790
  747MOL0     C98484   7.834   0.382   4.351 -0.4872 -0.7922  0.5386
  747MOL0     C98485   7.915   0.260   4.411  0.1180 -0.2363 -0.4267
  747MOL0     C98486   7.856   0.200   4.539 -0.9333 -0.0744 -0.4096
  747MOL0     C98487   7.867   0.042   4.557  0.4168  0.2596  0.1600
  747MOL0     C98488   8.004  -0.005   4.609 -0.1877 -0.2689  0.0480
  747MOL0     N98489   8.004  -0.150   4.634 -0.3932 -0.5959 -0.0039
  747MOL0     C98490   7.893  -0.235   4.640 -0.5120  0.0244  0.1884
  747MOL0     C98491   7.936  -0.349   4.705 -0.9980 -0.4087  0.8141
  747MOL0     C98492   7.856  -0.472   4.729 -0.0976 -0.4715 -0.3934
  747MOL0     C98493   7.941  -0.587   4.786 -0.5874  0.2474 -0.1503
  747MOL0     C98494   7.953  -0.562   4.943 -0.1363 -0.1507  1.7354
  747MOL0     C98495   8.033  -0.691   4.995 -0.1596 -0.6082  0.0382
  747MOL0     O98496   8.168  -0.702   4.939 -0.1448 -0.0119 -0.7896
  747MOL0     C98497   8.267  -0.636   5.011  1.3550  0.5608 -0.4373
  747MOL0     C98498   8.291  -0.506   4.976 -0.9340 -0.4612  0.2623
  747MOL0     C98499   8.381  -0.424   5.043 -0.1132  0.1153 -0.3657
  747MOL0     C98500   8.455  -0.481   5.152 -0.8609 -0.4286  0.0186
  747MOL0     C98501   8.561  -0.393   5.229  1.0755  0.1577 -0.0711
  747MOL0     O98502   8.522  -0.264   5.218 -0.7068  0.0512 -0.0886
  747MOL0     C98503   8.603  -0.178   5.278  0.7442 -0.1513  0.5898
  747MOL0     C98504   8.719  -0.122   5.210  1.0650  0.8185 -0.0310
  747MOL0     C98505   8.808  -0.036   5.272  0.1892 -0.5766  0.6161
  747MOL0     C98506   8.792  -0.004   5.413  0.4582  0.3327  0.2207
  747MOL0     O98507   8.886   0.077   5.473 -0.2507  0.0301  0.6312
  747MOL0     C98508   8.935   0.021   5.594 -0.1468  0.9457  0.3014
  747MOL0     C98509   9.077   0.059   5.620 -0.8482 -0.1531 -0.4714
  747MOL0     C98510   9.090   0.200   5.679  0.0828 -0.6744 -0.6517
  747MOL0     C98511   9.212   0.194   5.761 -0.0451 -0.4419 -0.0500
  747MOL0     C98512   9.213   0.294   5.867 -0.2576  0.9952 -0.2493
  747MOL0     C98513   9.342   0.260   5.950 -0.1054 -0.1789  0.2609
  747MOL0     C98514   9.312   0.148   6.061  0.0666 -0.5981  1.5678
  747MOL0     C98515   9.413   0.026   6.035  1.1394 -0.1064  0.3724
  747MOL0    Cl98516   9.349  -0.065   5.901 -0.2794 -0.0766  0.6471
  747MOL0     C98517   8.685  -0.059   5.476  0.9888  0.4778 -0.2002
  747MOL0     C98518   8.592  -0.145   5.409  0.3288  0.7624  0.9199
  747MOL0     O98519   8.645  -0.442   5.305 -0.0268  0.7651  0.0300
  747MOL0     C98520   8.441  -0.617   5.182 -0.2604  0.3967  0.3258
  747MOL0     C98521   8.340  -0.693   5.117 -0.0713  0.0801  0.2675
  747MOL0     N98522   8.072  -0.333   4.731  0.0770  0.2072  0.1170
  747MOL0     N98523   8.116  -0.214   4.691 -0.2732  0.3124 -0.5659
  747MOL0     C98524   7.716   0.732   3.895 -0.7285 -0.0557  0.9259
  747MOL0     C98525   7.735   0.813   3.786  0.6652 -0.4675  0.0673
  747MOL0     C98526   7.739   1.244   3.578 -1.2757  1.7032  0.4851
  747MOL0     C98527   7.774   1.382   3.591  1.6259 -0.4297 -0.6935
  747MOL0     C98528   7.748   1.469   3.490 -0.5892 -0.2289 -0.6731
  747MOL0     C98529   7.698   1.422   3.368  0.1300 -0.4127 -0.6078
  747MOL0     O98530   7.661   1.514   3.278 -1.0730 -0.5704 -0.6452
  747MOL0     C98531   7.577   1.495   3.161  0.3076  1.4568  0.5961
  747MOL0     C98532   7.554   1.624   3.070  0.1826 -0.0856  0.1579
  747MOL0     C98533   7.608   1.598   2.923 -0.2140  0.2398  0.2469
  747MOL0     C98534   7.513   1.517   2.835  0.0655  1.0666 -0.3574
  747MOL0     C98535   7.585   1.452   2.709  0.2105  1.0720 -0.4770
  747MOL0     C98536   7.647   1.409   2.617 -0.1330  0.0228 -0.4902
  747MOL0     C98537   7.677   1.287   3.350  0.0924  0.0239 -0.0910
  747MOL0     C98538   7.696   1.197   3.458 -1.2484 -0.7235  0.5049
  747MOL0     H98539   7.553   1.080   3.885 -1.1385 -1.8889 -1.9022
  747MOL0     H98540   7.534   0.956   4.073  1.4041  0.6134  0.7223
  747MOL0     H98541   7.685   0.514   4.055 -1.8455  0.9346  0.2948
  747MOL0     H98542   7.640   0.527   4.217 -1.1097 -0.3498 -1.1595
  747MOL0     H98543   7.844   0.650   4.282  3.1489  0.4672 -0.5322
  747MOL0     H98544   7.908   0.640   4.126  0.9252 -0.3116  1.2913
  747MOL0     H98545   8.013   0.467   4.238  1.3642 -0.7988 -3.9079
  747MOL0     H98546   7.882   0.377   4.159 -1.8613  0.0225  1.3636
  747MOL0     H98547   7.827   0.470   4.416  1.4023  1.3824 -1.9796
  747MOL0     H98548   7.733   0.349   4.324 -0.1187 -3.6530  2.2248
  747MOL0     H98549   8.021   0.280   4.428  0.2951 -0.5582 -1.0903
  747MOL0     H98550   7.921   0.177   4.340  2.9471 -1.5503  1.1943
  747MOL0     H98551   7.754   0.233   4.560 -1.5348 -1.9676 -0.1530
  747MOL0     H98552   7.922   0.245   4.614  2.1247 -0.4344 -2.6803
  747MOL0     H98553   7.788   0.014   4.627  1.2934  1.7094  1.8157
  747MOL0     H98554   7.858  -0.012   4.463  0.1521  0.6771 -0.0598
  747MOL0     H98555   8.030   0.058   4.695  2.2364  0.3449 -1.0363
  747MOL0     H98556   8.081   0.021   4.535 -0.8305  1.1599 -0.1501
  747MOL0     H98557   7.792  -0.223   4.601 -0.9130  1.9899  1.6853
  747MOL0     H98558   7.802  -0.503   4.639 -1.8736  0.2228  0.3877
  747MOL0     H98559   7.782  -0.448   4.806  2.0673 -0.6965  1.8974
  747MOL0     H98560   8.037  -0.584   4.734 -0.1310  0.5092  0.6831
  747MOL0     H98561   7.889  -0.677   4.753  0.3038 -0.0173 -0.8848
  747MOL0     H98562   8.016  -0.483   4.985  4.9929 -3.0245  0.4361
  747MOL0     H98563   7.853  -0.562   4.988 -0.7067 -0.2724  0.5023
  747MOL0     H98564   7.984  -0.784   4.966 -0.6991 -0.4150  0.3154
  747MOL0     H98565   8.039  -0.683   5.104  0.4481  4.9545 -0.1001
  747MOL0     H98566   8.238  -0.452   4.898  2.1014  2.2627 -0.1013
  747MOL0     H98567   8.386  -0.319   5.013 -1.3162 -0.2916 -2.1306
  747MOL0     H98568   8.742  -0.151   5.109  2.2906 -3.2724  1.2374
  747MOL0     H98569   8.899   0.001   5.227 -0.5157  0.3252 -0.0967
  747MOL0     H98570   8.947  -0.087   5.586 -1.6258  0.7025  1.1549
  747MOL0     H98571   8.870   0.035   5.681 -1.0368 -1.1060  0.0081
  747MOL0     H98572   9.129   0.073   5.524 -0.6143  0.6590 -0.2399
  747MOL0     H98573   9.123  -0.022   5.677  0.1348  1.4568  1.1304
  747MOL0     H98574   9.009   0.243   5.739  1.4884  1.5841 -0.2339
  747MOL0     H98575   9.097   0.277   5.602  1.1441  0.3854  0.4554
  747MOL0     H98576   9.203   0.102   5.820 -0.1110 -0.8831 -0.7301
  747MOL0     H98577   9.308   0.206   5.711  0.3305 -1.1117  0.4933
  747MOL0     H98578   9.122   0.303   5.927 -0.3576  1.1419 -0.4203
  747MOL0     H98579   9.225   0.388   5.811  1.1836 -0.0795 -1.8450
  747MOL0     H98580   9.369   0.357   5.993 -0.5442  0.1783 -0.2572
  747MOL0     H98581   9.427   0.241   5.884 -0.8897  1.4667 -1.3051
  747MOL0     H98582   9.327   0.183   6.164  0.9601 -0.5289  1.4179
  747MOL0     H98583   9.212   0.105   6.073  0.2713 -0.4482  4.4287
  747MOL0     H98584   9.404  -0.032   6.128 -1.1463  3.6459  2.7622
  747MOL0     H98585   9.516   0.061   6.028  1.1479 -0.5142 -3.5354
  747MOL0     H98586   8.675  -0.038   5.583  3.3839 -3.3569  0.9683
  747MOL0     H98587   8.521  -0.198   5.471 -2.0991  1.8450 -0.7808
  747MOL0     H98588   8.510  -0.672   5.247 -1.8773 -3.3536 -0.8496
  747MOL0     H98589   8.315  -0.790   5.158  1.5509  0.1714  1.5698
  747MOL0     H98590   7.776   0.642   3.893  1.4507  1.3309  0.3083
  747MOL0     H98591   7.792   0.778   3.701  3.2269  0.2220  1.3541
  747MOL0     H98592   7.813   1.412   3.688  3.6980 -1.4233 -1.1731
  747MOL0     H98593   7.774   1.574   3.499  1.6008 -0.8258  5.9444
  747MOL0     H98594   7.480   1.453   3.191  0.7030  0.2991  0.3284
  747MOL0     H98595   7.619   1.411   3.105  2.2179  1.7933  1.4507
  747MOL0     H98596   7.448   1.651   3.079  0.4853  1.7725 -1.3414
  747MOL0     H98597   7.605   1.705   3.122  1.0839 -0.9497  0.6548
  747MOL0     H98598   7.705   1.548   2.924 -1.0674 -1.5795 -1.2205
  747MOL0     H98599   7.636   1.688   2.867  0.1577 -1.0035 -1.6687
  747MOL0     H98600   7.454   1.442   2.889  0.6524  1.3819  0.7601
  747MOL0     H98601   7.439   1.585   2.792 -3.5272 -0.2635  3.1081
  747MOL0     H98602   7.712   1.386   2.536  1.0467 -2.2208  0.9844
  747MOL0     H98603   7.638   1.245   3.258  1.1288 -4.9085  1.4366
  747MOL0     H98604   7.657   1.098   3.438 -0.1050 -1.1159  0.1161
  748MOL0     O98605   1.941   2.363   4.179  0.3307  0.3749  0.2009
  748MOL0     C98606   1.980   2.280   4.100 -0.7737 -0.1326  0.1042
  748MOL0     O98607   2.078   2.288   4.016 -0.4120  0.0041  0.0607
  748MOL0     C98608   2.160   2.405   4.011 -0.2165  0.1953 -0.3181
  748MOL0     C98609   2.112   2.539   4.011  0.3655 -0.1021  0.1242
  748MOL0     C98610   2.197   2.652   4.006  0.1186 -0.6525 -0.1082
  748MOL0     C98611   2.334   2.630   4.006 -0.0868 -0.1445 -1.0146
  748MOL0     O98612   2.435   2.723   4.005  0.0740 -0.0739 -0.7768
  748MOL0     C98613   2.411   2.863   4.006  0.0952 -0.0848  0.1716
  748MOL0     C98614   2.545   2.920   4.020  0.0839  0.6121  0.3533
  748MOL0     C98615   2.553   3.067   4.036  0.8156 -0.1126  0.7861
  748MOL0     C98616   2.693   3.096   4.095  0.2121  0.1381  0.2015
  748MOL0     C98617   2.708   3.248   4.095  0.3442 -0.8904 -0.8643
  748MOL0     C98618   2.845   3.297   4.127 -0.2522  0.7275  0.2544
  748MOL0     C98619   2.825   3.451   4.164  0.2862 -0.3121 -0.7222
  748MOL0     C98620   2.953   3.520   4.179  0.7760  0.7059  0.1331
  748MOL0     N98621   2.923   3.626   4.271  1.0241  0.5345 -0.7486
  748MOL0     C98622   2.858   3.744   4.243 -0.0951 -0.9043  0.1334
  748MOL0     C98623   2.869   3.814   4.358 -0.6372  0.2836  0.2964
  748MOL0     C98624   2.802   3.947   4.381  0.5750 -0.3981  0.0861
  748MOL0     C98625   2.896   4.062   4.430 -0.1854  0.3530 -0.1458
  748MOL0     C98626   3.031   4.084   4.357 -0.3351 -0.3055  0.3841
  748MOL0     C98627   3.081   4.234   4.340  0.3791 -0.0230 -0.1870
  748MOL0     O98628   3.039   4.287   4.210 -0.6975  0.3657 -0.0216
  748MOL0     C98629   2.915   4.309   4.170  0.3263 -0.1915  1.4521
  748MOL0     C98630   2.900   4.315   4.036  0.5119  0.2830  0.1926
  748MOL0     C98631   2.768   4.347   3.987 -0.0086 -0.3043 -0.7681
  748MOL0     C98632   2.653   4.363   4.064 -0.5889  0.3539 -0.1322
  748MOL0     C98633   2.520   4.390   4.026  0.3110  0.1312  0.7297
  748MOL0     O98634   2.494   4.472   3.918 -0.5921  0.6196  0.3982
  748MOL0     C98635   2.357   4.500   3.907  0.3308  0.2070  0.3473
  748MOL0     C98636   2.294   4.419   3.818 -0.1782  0.3946 -0.0960
  748MOL0     C98637   2.162   4.435   3.779  0.6233  0.0710  1.0276
  748MOL0     C98638   2.092   4.541   3.836  0.8000 -0.6779 -0.4081
  748MOL0     O98639   1.957   4.552   3.822  0.3960  0.1627 -0.7115
  748MOL0     C98640   1.890   4.517   3.706 -0.4155 -0.2619  0.2567
  748MOL0     C98641   1.756   4.575   3.746  0.1257  0.3042  0.4471
  748MOL0     C98642   1.641   4.509   3.658 -1.0223 -0.4514 -1.0807
  748MOL0     C98643   1.634   4.592   3.535 -0.0996  0.2087 -0.3974
  748MOL0     C98644   1.485   4.626   3.489 -0.4301  0.6138  0.4742
  748MOL0     C98645   1.470   4.697   3.357  0.8712  0.4669 -0.2009
  748MOL0     C98646   1.327   4.679   3.311  0.0472 -0.0822 -0.3570
  748MOL0     C98647   1.290   4.545   3.247 -0.1701 -0.2642  0.1360
  748MOL0    Cl98648   1.386   4.522   3.096  0.3102 -0.1094 -0.2606
  748MOL0     C98649   2.153   4.635   3.924 -0.6511  0.0377  0.4087
  748MOL0     C98650   2.287   4.609   3.959  0.0584 -0.2021 -0.4153
  748MOL0     O98651   2.434   4.326   4.090 -0.0334  0.1889 -0.0697
  748MOL0     C98652   2.673   4.358   4.201  0.2483  1.2496  0.0352
  748MOL0     C98653   2.806   4.337   4.251 -0.0757  0.3305  0.1155
  748MOL0     N98654   2.932   3.735   4.452  0.0706 -0.4771  0.9804
  748MOL0     N98655   2.967   3.618   4.401  0.6583  0.1477  0.7899
  748MOL0     C98656   2.389   2.502   4.023  0.3933 -0.2921 -0.0402
  748MOL0     C98657   2.300   2.392   4.031 -0.4871 -0.6250  0.0119
  748MOL0     C98658   1.907   2.144   4.117 -0.5469  0.0405  0.9330
  748MOL0     C98659   1.876   2.072   3.996  0.4440  0.1446  0.3787
  748MOL0     C98660   1.792   1.967   4.004 -1.0466  0.6041 -0.1026
  748MOL0     C98661   1.729   1.930   4.124 -0.1022  0.1996  0.5106
  748MOL0     O98662   1.641   1.827   4.138  0.7517 -0.3000 -0.6342
  748MOL0     C98663   1.648   1.714   4.051 -0.1177  0.6836 -0.0605
  748MOL0     C98664   1.587   1.588   4.113  0.4102 -0.0793  0.5826
  748MOL0     C98665   1.447   1.617   4.157 -0.0599  0.2057 -0.4896
  748MOL0     C98666   1.379   1.478   4.197  0.6689  0.2171 -0.1558
  748MOL0     C98667   1.253   1.499   4.275  0.0211  0.4476 -0.3982
  748MOL0     C98668   1.149   1.520   4.334  0.0856 -0.2366 -0.3789
  748MOL0     C98669   1.760   2.007   4.234  0.3457  0.7149 -0.9733
  748MOL0     C98670   1.854   2.110   4.238  0.2396  0.3957  0.7061
  748MOL0     H98671   2.004   2.554   4.012  0.1656 -1.1166 -1.4222
  748MOL0     H98672   2.153   2.751   4.005 -0.4104 -0.8884 -0.7329
  748MOL0     H98673   2.353   2.906   4.087  1.6715  2.7478 -0.0584
  748MOL0     H98674   2.370   2.894   3.909  0.3601 -0.4528 -0.0604
  748MOL0     H98675   2.618   2.878   3.951  0.7362 -2.0567  2.4774
  748MOL0     H98676   2.581   2.871   4.111 -2.4792 -1.5316  0.3438
  748MOL0     H98677   2.466   3.108   4.089 -0.4631  0.0911 -1.3640
  748MOL0     H98678   2.554   3.109   3.935 -2.5004 -0.9149  0.3170
  748MOL0     H98679   2.704   3.064   4.199  0.1300  0.2667  0.2505
  748MOL0     H98680   2.773   3.049   4.038 -0.4169  0.8969 -1.3690
  748MOL0     H98681   2.649   3.288   4.178  1.2014 -2.1309  0.3924
  748MOL0     H98682   2.670   3.299   4.006 -1.5205  1.2573  1.0116
  748MOL0     H98683   2.920   3.279   4.049 -1.7864  1.1116 -1.3833
  748MOL0     H98684   2.883   3.243   4.214 -0.2020  3.1276  1.8187
  748MOL0     H98685   2.756   3.506   4.100 -0.9725 -1.2024 -0.1825
  748MOL0     H98686   2.778   3.444   4.263 -0.8317 -1.5977 -1.3065
  748MOL0     H98687   2.982   3.569   4.086  0.0491  0.0833 -0.4352
  748MOL0     H98688   3.037   3.462   4.219 -1.4625 -3.3138 -0.4993
  748MOL0     H98689   2.818   3.785   4.151  2.6328 -3.4427 -2.4034
  748MOL0     H98690   2.714   3.934   4.444  2.4377 -0.1747  2.8899
  748MOL0     H98691   2.759   3.985   4.287  0.7331 -1.2438 -0.3363
  748MOL0     H98692   2.928   4.044   4.533 -1.3516 -2.3701 -0.1744
  748MOL0     H98693   2.837   4.154   4.432  1.0420  1.1532  0.5628
  748MOL0     H98694   3.120   4.034   4.397 -0.4792 -3.0398 -2.3216
  748MOL0     H98695   3.006   4.037   4.261 -0.3140 -0.8816  0.6570
  748MOL0     H98696   3.190   4.237   4.346  0.3806  0.5175 -0.4385
  748MOL0     H98697   3.048   4.300   4.421  2.7753  0.5011  0.4435
  748MOL0     H98698   2.985   4.312   3.968 -0.8576  2.4355 -1.7569
  748MOL0     H98699   2.743   4.368   3.883 -3.5374  2.8168  0.4875
  748MOL0     H98700   2.354   4.333   3.790 -0.5793 -0.0967  0.5411
  748MOL0     H98701   2.107   4.364   3.717 -1.5247  0.8850  1.8894
  748MOL0     H98702   1.888   4.409   3.691 -1.5395 -0.2715  0.4032
  748MOL0     H98703   1.925   4.572   3.618  1.0328 -0.3545  0.7510
  748MOL0     H98704   1.754   4.685   3.743 -1.1670  0.3454 -3.7030
  748MOL0     H98705   1.723   4.541   3.844 -0.5547  1.2058  0.5487
  748MOL0     H98706   1.547   4.507   3.713  0.5477  1.9835  1.9581
  748MOL0     H98707   1.667   4.410   3.620  1.0957 -0.0324 -0.8833
  748MOL0     H98708   1.700   4.678   3.520  1.2033 -0.5559  0.7050
  748MOL0     H98709   1.665   4.529   3.451 -1.2154  2.1375 -2.3474
  748MOL0     H98710   1.450   4.689   3.571  0.2971  1.6209  0.0253
  748MOL0     H98711   1.434   4.529   3.485 -0.0851  0.4345  0.3723
  748MOL0     H98712   1.545   4.669   3.283  1.5510 -0.1203  0.6892
  748MOL0     H98713   1.481   4.802   3.386 -1.2065  0.8047 -0.4416
  748MOL0     H98714   1.272   4.698   3.404 -1.8217  0.3136 -1.4756
  748MOL0     H98715   1.300   4.755   3.237 -0.4656 -2.0544 -2.3055
  748MOL0     H98716   1.185   4.540   3.214  0.3208  1.7048 -1.9892
  748MOL0     H98717   1.310   4.463   3.316 -2.8944 -0.6782  0.5547
  748MOL0     H98718   2.095   4.707   3.981  0.2995  1.0500  0.1390
  748MOL0     H98719   2.353   4.661   4.028 -0.4002  0.3752 -0.4123
  748MOL0     H98720   2.593   4.354   4.275  0.3788 -0.8396  0.1162
  748MOL0     H98721   2.814   4.342   4.359 -0.0041 -2.9722  0.3846
  748MOL0     H98722   2.496   2.498   4.039  0.4325 -1.0760 -0.4499
  748MOL0     H98723   2.334   2.291   4.055  2.3076  0.8060  2.6978
  748MOL0     H98724   1.910   2.096   3.895 -2.2967  2.5733 -0.1279
  748MOL0     H98725   1.762   1.919   3.912  1.1122 -0.4982 -0.2967
  748MOL0     H98726   1.756   1.702   4.036 -0.0542  0.3126  0.6366
  748MOL0     H98727   1.608   1.721   3.950  0.1911 -2.1486 -0.4578
  748MOL0     H98728   1.582   1.514   4.033 -0.3746  2.8032 -2.2649
  748MOL0     H98729   1.639   1.545   4.199  1.1641  2.4181  1.4524
  748MOL0     H98730   1.393   1.675   4.081  0.1670 -1.3461 -1.9004
  748MOL0     H98731   1.454   1.668   4.253 -1.4738 -0.3547 -0.0708
  748MOL0     H98732   1.338   1.419   4.114  1.4332 -2.0545  0.9861
  748MOL0     H98733   1.442   1.414   4.260  0.2184  2.8392  3.2381
  748MOL0     H98734   1.049   1.521   4.370 -0.7740  1.6231 -2.5393
  748MOL0     H98735   1.705   1.976   4.322  0.2755 -2.4224 -1.9815
  748MOL0     H98736   1.885   2.173   4.320  5.1005 -1.8504  0.9250
  749MOL0     O98737   1.800   3.754   0.108 -0.0261 -0.2269  0.4994
  749MOL0     C98738   1.840   3.850   0.047  0.4985  0.4218  0.5849
  749MOL0     O98739   1.902   3.949   0.106  0.0168 -0.8528 -0.0406
  749MOL0     C98740   1.919   3.969   0.234  0.6946 -0.0807 -0.6885
  749MOL0     C98741   2.042   3.946   0.302  0.0772  0.5433  1.0126
  749MOL0     C98742   2.050   3.964   0.440  0.5774 -0.6365  0.5763
  749MOL0     C98743   1.945   4.014   0.513  0.3488 -0.4645 -0.0666
  749MOL0     O98744   1.958   4.031   0.646  0.3767 -0.6486  0.0023
  749MOL0     C98745   1.845   4.048   0.735  0.4070  0.7016 -0.2240
  749MOL0     C98746   1.875   4.075   0.880 -0.6831 -0.0978 -0.5392
  749MOL0     C98747   1.735   4.097   0.955  0.9397 -0.2970  0.2238
  749MOL0     C98748   1.686   4.244   0.955  0.8671 -0.2957 -1.5671
  749MOL0     C98749   1.540   4.249   0.994  0.4985 -0.0805 -0.0190
  749MOL0     C98750   1.471   4.389   1.014  0.4913 -1.5407  1.0281
  749MOL0     C98751   1.471   4.462   0.882 -0.3837  0.6665 -0.6165
  749MOL0     C98752   1.359   4.426   0.790  0.5093 -0.7449  0.4253
  749MOL0     N98753   1.263   4.536   0.776 -0.7235  0.4057  0.5743
  749MOL0     C98754   1.240   4.603   0.652  0.3653  0.1835 -0.7191
  749MOL0     C98755   1.135   4.679   0.681  0.6320 -0.4026 -0.0536
  749MOL0     C98756   1.072   4.776   0.588  0.5609 -0.7440  0.3750
  749MOL0     C98757   1.048   4.908   0.659  0.2399 -1.3241  0.4974
  749MOL0     C98758   1.010   5.029   0.566  0.9060  0.3700 -0.3180
  749MOL0     C98759   0.990   5.157   0.658 -0.1242  0.4640  0.4707
  749MOL0     O98760   1.106   5.203   0.726 -0.2720 -0.8929 -0.4456
  749MOL0     C98761   1.086   5.307   0.814 -0.7122 -0.1236 -0.8553
  749MOL0     C98762   0.971   5.376   0.847 -0.3625 -0.9655  0.0559
  749MOL0     C98763   0.969   5.474   0.942  0.1998 -0.6923 -0.3620
  749MOL0     C98764   1.085   5.513   1.010  0.2004  0.6215  0.0791
  749MOL0     C98765   1.081   5.622   1.104 -0.0533  0.0330 -0.9748
  749MOL0     O98766   0.970   5.690   1.130 -0.4094 -0.6943 -0.7454
  749MOL0     C98767   0.966   5.805   1.209 -0.2250  0.6905  0.4954
  749MOL0     C98768   0.850   5.830   1.282  0.8504 -0.1198  0.9775
  749MOL0     C98769   0.823   5.964   1.319  0.5533  0.0443  0.7009
  749MOL0     C98770   0.918   6.059   1.297  0.1657 -0.5251  0.2527
  749MOL0     O98771   0.892   6.182   1.352 -0.7085  0.6013 -0.6187
  749MOL0     C98772   0.943   6.301   1.293 -0.9595 -0.1668 -0.2781
  749MOL0     C98773   0.872   6.429   1.332 -0.5193 -0.7803  0.5814
  749MOL0     C98774   0.918   6.490   1.469  0.8260  0.3514 -0.5245
  749MOL0     C98775   0.848   6.627   1.502 -0.8156 -0.6216 -0.1103
  749MOL0     C98776   0.924   6.719   1.594  0.6622  0.3077  0.2283
  749MOL0     C98777   0.843   6.840   1.659 -0.4450  0.0292  0.2282
  749MOL0     C98778   0.713   6.806   1.713  0.1009 -0.3696  0.3656
  749MOL0     C98779   0.639   6.937   1.747 -1.0789 -1.2333  0.4713
  749MOL0    Cl98780   0.596   7.032   1.599 -0.6774  0.1176 -0.3599
  749MOL0     C98781   1.040   6.031   1.245 -0.6961 -0.1663 -0.6688
  749MOL0     C98782   1.068   5.905   1.191 -1.3523  1.1702  0.0358
  749MOL0     O98783   1.190   5.644   1.150 -0.3556  0.2277 -0.9322
  749MOL0     C98784   1.209   5.444   0.984  0.3199  0.1225 -0.0073
  749MOL0     C98785   1.207   5.340   0.878  0.5852  0.1187  0.1525
  749MOL0     N98786   1.094   4.656   0.817  0.3181 -0.0216  0.6397
  749MOL0     N98787   1.177   4.580   0.871 -0.3694 -0.0186 -0.3952
  749MOL0     C98788   1.824   4.012   0.448 -0.7225  0.4436  0.2372
  749MOL0     C98789   1.808   4.002   0.308  0.2790 -0.5569 -0.8824
  749MOL0     C98790   1.852   3.831  -0.102 -0.1046  0.6731 -0.4622
  749MOL0     C98791   1.908   3.923  -0.186  0.7682  0.9682 -0.7164
  749MOL0     C98792   1.929   3.913  -0.320 -0.0133 -0.0094 -0.7192
  749MOL0     C98793   1.889   3.791  -0.381 -0.1794 -0.0883 -0.3738
  749MOL0     O98794   1.908   3.768  -0.517 -1.0627  0.1964 -0.0316
  749MOL0     C98795   1.888   3.875  -0.612 -0.3995  0.1718 -0.4704
  749MOL0     C98796   1.740   3.870  -0.628  0.9533 -0.4417 -0.1537
  749MOL0     C98797   1.677   3.733  -0.663  0.2691  0.1042  0.5079
  749MOL0     C98798   1.524   3.735  -0.674  0.3654  0.2580 -0.1784
  749MOL0     C98799   1.450   3.702  -0.552  0.5174  0.0068  0.5333
  749MOL0     C98800   1.403   3.641  -0.458  0.1172  1.0190 -0.1922
  749MOL0     C98801   1.840   3.684  -0.303 -0.0184 -0.2408  0.5070
  749MOL0     C98802   1.824   3.709  -0.166  0.9307 -0.0057 -0.1505
  749MOL0     H98803   2.133   3.909   0.256  2.6345  2.9190  3.6631
  749MOL0     H98804   2.122   3.928   0.512 -0.3254 -1.4204  1.1135
  749MOL0     H98805   1.778   3.962   0.727 -3.6693  3.1136  3.6430
  749MOL0     H98806   1.794   4.138   0.699 -0.2663  1.5937  2.7018
  749MOL0     H98807   1.944   4.160   0.889 -0.9904  0.0368  0.6934
  749MOL0     H98808   1.935   3.990   0.914 -1.3945 -0.5050 -0.2843
  749MOL0     H98809   1.748   4.057   1.056 -3.2690 -1.9847  0.3001
  749MOL0     H98810   1.671   4.028   0.900  0.7208 -0.2587  0.4321
  749MOL0     H98811   1.742   4.311   1.020 -2.6412  0.9206  0.4364
  749MOL0     H98812   1.696   4.285   0.854  0.5765 -1.4894 -2.1095
  749MOL0     H98813   1.521   4.201   1.091 -0.6846 -1.0110 -0.6911
  749MOL0     H98814   1.492   4.189   0.917  1.1963  0.7438 -1.1298
  749MOL0     H98815   1.531   4.443   1.088 -1.5942  0.0964  1.6214
  749MOL0     H98816   1.367   4.386   1.048 -0.0014 -0.0829 -0.2416
  749MOL0     H98817   1.458   4.569   0.902 -0.5871  0.7343 -1.1125
  749MOL0     H98818   1.566   4.453   0.830 -0.4053  2.8629 -1.1334
  749MOL0     H98819   1.316   4.342   0.845 -2.0091 -0.1592 -0.5113
  749MOL0     H98820   1.390   4.390   0.691 -1.0361 -3.5437  0.8348
  749MOL0     H98821   1.295   4.584   0.560 -2.4396  0.0167 -2.4588
  749MOL0     H98822   0.970   4.751   0.556 -1.2609 -0.0745  4.8992
  749MOL0     H98823   1.131   4.793   0.498  1.3800 -0.2545  0.9938
  749MOL0     H98824   1.145   4.922   0.708  0.7776 -0.3708 -0.7728
  749MOL0     H98825   0.972   4.890   0.736  0.7457 -0.6840  1.1586
  749MOL0     H98826   1.084   5.051   0.489  0.6588  1.9073 -0.1530
  749MOL0     H98827   0.918   5.010   0.510  1.3525  1.3225 -1.4072
  749MOL0     H98828   0.905   5.133   0.723  0.0896  0.5178  0.7689
  749MOL0     H98829   0.943   5.236   0.598 -0.4413  0.1242  0.2646
  749MOL0     H98830   0.879   5.346   0.797 -1.5589 -1.0482  2.1913
  749MOL0     H98831   0.882   5.532   0.971  3.1775  5.2296 -1.6048
  749MOL0     H98832   0.773   5.761   1.313 -0.8684  0.8640 -0.8855
  749MOL0     H98833   0.732   5.978   1.377 -0.6767  0.2440 -1.1796
  749MOL0     H98834   0.918   6.296   1.187 -3.8321  0.8475  0.2592
  749MOL0     H98835   1.051   6.315   1.308 -0.5553 -1.1162 -2.0061
  749MOL0     H98836   0.764   6.409   1.339 -0.6831  0.3240  1.6741
  749MOL0     H98837   0.903   6.505   1.260  2.0958 -2.8973 -0.6969
  749MOL0     H98838   1.025   6.507   1.455  0.9693 -1.1274 -1.3966
  749MOL0     H98839   0.906   6.418   1.550  4.0904 -1.1983 -1.2196
  749MOL0     H98840   0.832   6.684   1.410  0.4062 -1.5620 -0.9407
  749MOL0     H98841   0.752   6.594   1.541 -1.2450  1.6011  0.8869
  749MOL0     H98842   1.014   6.762   1.549  0.2100  0.9597 -0.0551
  749MOL0     H98843   0.979   6.660   1.669  1.4329 -0.6315 -1.0201
  749MOL0     H98844   0.830   6.916   1.581  1.2450  0.8076  0.6535
  749MOL0     H98845   0.912   6.878   1.735 -0.7262 -1.9161  1.5368
  749MOL0     H98846   0.657   6.742   1.644  1.4079 -2.6513  1.2984
  749MOL0     H98847   0.732   6.750   1.805  0.2818 -0.9998 -0.0521
  749MOL0     H98848   0.696   7.004   1.812  0.8010 -2.6230  0.3322
  749MOL0     H98849   0.551   6.913   1.807 -2.0055  1.5668  0.3782
  749MOL0     H98850   1.115   6.107   1.227 -2.0345  1.0062 -1.5758
  749MOL0     H98851   1.153   5.892   1.125 -0.7824  2.3678  0.4971
  749MOL0     H98852   1.300   5.462   1.042 -1.0752  1.3644  1.8989
  749MOL0     H98853   1.298   5.287   0.853  1.8510  1.8991  0.7220
  749MOL0     H98854   1.737   4.047   0.503 -2.2308  1.8389 -2.8136
  749MOL0     H98855   1.713   4.006   0.255  0.3050  1.0540 -0.8492
  749MOL0     H98856   1.923   4.021  -0.141 -2.5767  0.0197  3.0821
  749MOL0     H98857   1.970   3.993  -0.380  1.0482  0.2537  0.3210
  749MOL0     H98858   1.919   3.851  -0.714 -2.8829  0.8095 -1.4452
  749MOL0     H98859   1.928   3.974  -0.589  0.0512 -0.2161  0.4952
  749MOL0     H98860   1.696   3.917  -0.540 -0.6319  0.8540 -1.5761
  749MOL0     H98861   1.712   3.942  -0.706  0.4673 -2.8021 -2.2727
  749MOL0     H98862   1.700   3.659  -0.586 -1.9099  0.4995  1.6202
  749MOL0     H98863   1.725   3.714  -0.759  1.2961 -0.3337  1.0855
  749MOL0     H98864   1.487   3.825  -0.723  1.5599  0.5270 -0.6208
  749MOL0     H98865   1.512   3.656  -0.750  2.2175  0.0248 -0.2689
  749MOL0     H98866   1.362   3.575  -0.384  2.3667 -2.0496 -1.4717
  749MOL0     H98867   1.808   3.594  -0.355  0.5628 -1.4026  2.0685
  749MOL0     H98868   1.778   3.623  -0.119 -1.9418 -1.7392 -5.3041
  750MOL0     O98869   5.507   2.694   6.672  0.1601 -0.0715 -0.0996
  750MOL0     C98870   5.426   2.720   6.763  0.4352  0.3506  0.1457
  750MOL0     O98871   5.384   2.846   6.794  0.2032 -0.0491 -0.5947
  750MOL0     C98872   5.403   2.951   6.709 -0.3851 -0.1283 -0.2849
  750MOL0     C98873   5.326   3.065   6.741 -0.1953  1.0132 -0.1146
  750MOL0     C98874   5.348   3.187   6.689 -0.3122 -0.2286  0.0332
  750MOL0     C98875   5.436   3.210   6.580 -0.8123  0.9052 -0.3499
  750MOL0     O98876   5.441   3.336   6.539  0.4832 -0.2927 -0.5141
  750MOL0     C98877   5.507   3.344   6.415  0.2116  0.2327 -0.5890
  750MOL0     C98878   5.445   3.468   6.334  0.2295 -0.7833  0.2582
  750MOL0     C98879   5.495   3.601   6.389  0.1231  0.1648  0.4584
  750MOL0     C98880   5.406   3.699   6.314 -0.1269  0.6243  0.5295
  750MOL0     C98881   5.420   3.834   6.378 -0.8266 -0.3159  0.7650
  750MOL0     C98882   5.368   3.944   6.290 -0.2726  0.1664 -0.3447
  750MOL0     C98883   5.305   4.064   6.372 -0.2444  0.2920  0.3391
  750MOL0     C98884   5.275   4.187   6.278  0.0114 -0.2249 -0.2385
  750MOL0     N98885   5.125   4.205   6.277  0.9793 -0.4000 -0.0465
  750MOL0     C98886   5.031   4.213   6.171 -1.2893 -0.6143 -0.6964
  750MOL0     C98887   4.913   4.254   6.224 -0.7907  0.1579  0.3175
  750MOL0     C98888   4.794   4.297   6.141  0.7125  0.4340 -1.0889
  750MOL0     C98889   4.830   4.404   6.048  0.2611 -0.4885  0.1931
  750MOL0     C98890   4.715   4.489   5.985 -0.9230 -0.3702 -0.7699
  750MOL0     C98891   4.762   4.596   5.885 -1.0603  0.6141  0.1309
  750MOL0     O98892   4.838   4.706   5.946  0.4893  0.5684 -0.2242
  750MOL0     C98893   4.776   4.802   6.019  0.6880 -0.6278 -0.7985
  750MOL0     C98894   4.854   4.892   6.078 -0.3894 -0.5409  0.6235
  750MOL0     C98895   4.797   4.989   6.166 -0.1383 -0.6155  0.9312
  750MOL0     C98896   4.656   4.982   6.196 -0.5635 -0.7403 -0.3770
  750MOL0     C98897   4.593   5.067   6.305  0.6397 -0.2037  0.5736
  750MOL0     O98898   4.649   5.186   6.336 -0.1414  0.3721 -0.1855
  750MOL0     C98899   4.571   5.295   6.372  0.0635  0.2958 -0.9459
  750MOL0     C98900   4.474   5.349   6.295 -0.7531  0.4363  0.0212
  750MOL0     C98901   4.403   5.463   6.337 -0.0775  0.2555 -0.9751
  750MOL0     C98902   4.444   5.541   6.446 -0.3784  0.2487  0.1639
  750MOL0     O98903   4.366   5.649   6.476 -0.3858 -0.6471 -0.3734
  750MOL0     C98904   4.366   5.683   6.613  0.6980  1.4714 -0.2426
  750MOL0     C98905   4.260   5.789   6.618 -0.2198 -0.3580  0.5951
  750MOL0     C98906   4.117   5.742   6.594  0.1774 -0.2392 -0.4404
  750MOL0     C98907   4.044   5.679   6.716  0.5656  0.5888  1.0429
  750MOL0     C98908   4.057   5.767   6.847  0.0799  0.2660 -0.2345
  750MOL0     C98909   3.983   5.901   6.845 -0.8134  1.1041  0.5387
  750MOL0     C98910   4.022   6.005   6.942  0.8322  0.1949 -0.6445
  750MOL0     C98911   3.969   6.156   6.914  0.4184 -0.8254  0.1087
  750MOL0    Cl98912   4.053   6.269   7.018  0.3068  0.2577  0.0249
  750MOL0     C98913   4.549   5.480   6.528  0.1488  0.2628  0.3275
  750MOL0     C98914   4.605   5.353   6.491  1.1279  0.6090 -0.3574
  750MOL0     O98915   4.488   5.032   6.349  0.3007 -0.4660 -0.1971
  750MOL0     C98916   4.580   4.881   6.130 -0.2455 -0.8800 -0.1113
  750MOL0     C98917   4.636   4.798   6.036 -0.8584  0.4209  0.0540
  750MOL0     N98918   4.942   4.273   6.359  0.2025  0.4264  0.5657
  750MOL0     N98919   5.057   4.234   6.390  0.2123  0.5189 -0.3086
  750MOL0     C98920   5.520   3.105   6.549 -0.6155  0.2454 -0.5908
  750MOL0     C98921   5.506   2.980   6.613  0.9197  0.1901 -0.0253
  750MOL0     C98922   5.369   2.615   6.853  0.2662  0.3429  0.5871
  750MOL0     C98923   5.443   2.496   6.867  0.6164 -0.0897  0.7537
  750MOL0     C98924   5.392   2.392   6.950  0.6136  1.0753 -1.6508
  750MOL0     C98925   5.261   2.412   7.008  0.2530  0.0325  0.3505
  750MOL0     O98926   5.210   2.321   7.100 -0.2720 -0.6399 -0.3691
  750MOL0     C98927   5.246   2.183   7.097  0.3570 -0.2806  0.8371
  750MOL0     C98928   5.150   2.095   7.177 -0.5304 -0.1524 -0.4799
  750MOL0     C98929   5.185   1.939   7.186 -0.0350  0.0257  0.1455
  750MOL0     C98930   5.084   1.851   7.254  0.3969  0.3221 -0.1499
  750MOL0     C98931   4.953   1.844   7.190 -0.2321  0.6605  0.5253
  750MOL0     C98932   4.859   1.820   7.110  0.0575 -0.7545  0.3061
  750MOL0     C98933   5.198   2.532   6.994  0.4830 -1.1532  0.3988
  750MOL0     C98934   5.241   2.625   6.901 -0.5477 -0.3416 -0.8315
  750MOL0     H98935   5.259   3.052   6.825  0.6098 -0.1647  0.3759
  750MOL0     H98936   5.281   3.262   6.729 -0.4258 -0.8590  1.0620
  750MOL0     H98937   5.486   3.257   6.352  0.5829  0.5046 -1.1003
  750MOL0     H98938   5.611   3.360   6.443 -0.4734  2.2745  1.0180
  750MOL0     H98939   5.335   3.465   6.336  0.2546 -1.6434  1.8609
  750MOL0     H98940   5.468   3.452   6.229 -0.6995 -2.7897  0.3069
  750MOL0     H98941   5.599   3.606   6.354 -0.5085 -1.9483 -2.0411
  750MOL0     H98942   5.486   3.611   6.497  2.4949 -0.7851  0.8038
  750MOL0     H98943   5.447   3.697   6.212  1.0706 -0.0680  1.0102
  750MOL0     H98944   5.299   3.678   6.308  0.2256 -0.9920 -1.6821
  750MOL0     H98945   5.527   3.855   6.390 -0.0284 -2.0719 -2.3028
  750MOL0     H98946   5.360   3.831   6.470 -2.2074  1.7075  0.0124
  750MOL0     H98947   5.296   3.906   6.217  0.5772  1.7707 -2.1332
  750MOL0     H98948   5.453   3.972   6.226  0.3789 -0.7280  0.1017
  750MOL0     H98949   5.226   4.023   6.435  1.6443  0.6765  3.1188
  750MOL0     H98950   5.388   4.091   6.438 -1.7537  2.5191  1.4572
  750MOL0     H98951   5.317   4.167   6.179  3.6321  1.4062  0.7710
  750MOL0     H98952   5.326   4.280   6.308  2.3557 -1.0781 -1.3372
  750MOL0     H98953   5.057   4.181   6.071  2.2442  1.2854 -0.5382
  750MOL0     H98954   4.724   4.338   6.215  2.4973  0.8992  0.4415
  750MOL0     H98955   4.752   4.212   6.086  2.1959 -2.5864  2.0684
  750MOL0     H98956   4.882   4.360   5.962  1.8313  3.3395 -1.0622
  750MOL0     H98957   4.901   4.478   6.086 -2.8380  2.1934  1.2079
  750MOL0     H98958   4.648   4.424   5.927  1.9912 -1.7569 -2.8465
  750MOL0     H98959   4.660   4.543   6.062 -0.8783 -2.2484  0.6658
  750MOL0     H98960   4.680   4.636   5.824 -1.3440  1.0818  0.8074
  750MOL0     H98961   4.834   4.551   5.816 -3.0517 -2.3312 -0.2099
  750MOL0     H98962   4.962   4.888   6.066  0.0661 -3.2546  4.0390
  750MOL0     H98963   4.853   5.068   6.215  0.8074  1.1049 -2.5589
  750MOL0     H98964   4.444   5.307   6.200 -2.4409  3.3484 -0.8668
  750MOL0     H98965   4.305   5.480   6.293 -1.0389 -0.9151  0.6100
  750MOL0     H98966   4.467   5.710   6.644  0.1692  1.9633  1.0984
  750MOL0     H98967   4.334   5.590   6.662  0.5956  2.5871  1.9288
  750MOL0     H98968   4.276   5.869   6.545 -0.8608  0.2176  1.0740
  750MOL0     H98969   4.273   5.831   6.718 -1.6020  0.0407  0.6336
  750MOL0     H98970   4.112   5.677   6.506  0.8697  0.3370 -0.9192
  750MOL0     H98971   4.057   5.831   6.577 -0.6270 -0.3868  1.3517
  750MOL0     H98972   3.940   5.666   6.685  0.8977 -0.2351  0.2368
  750MOL0     H98973   4.090   5.582   6.738  2.3465  1.6118  2.0454
  750MOL0     H98974   4.164   5.777   6.869  0.2948 -1.8824 -0.0634
  750MOL0     H98975   4.014   5.705   6.926 -1.5050  0.3126 -1.0395
  750MOL0     H98976   3.874   5.888   6.849 -0.7018  0.4268  2.2538
  750MOL0     H98977   3.996   5.962   6.755 -0.4922  2.3040  1.3772
  750MOL0     H98978   3.987   5.960   7.035  2.1499 -1.6572 -0.9864
  750MOL0     H98979   4.130   6.012   6.954  0.6678  3.7689 -0.1650
  750MOL0     H98980   3.861   6.159   6.931  0.0051 -0.9211 -2.1363
  750MOL0     H98981   3.984   6.189   6.810  2.7093  1.2044  0.9736
  750MOL0     H98982   4.573   5.541   6.615 -3.5650  0.0665  1.6524
  750MOL0     H98983   4.674   5.301   6.556  0.0687  0.0058  0.3162
  750MOL0     H98984   4.473   4.868   6.140 -0.2909 -1.0946 -0.7666
  750MOL0     H98985   4.571   4.729   5.984 -1.9960  1.7555 -0.3689
  750MOL0     H98986   5.605   3.122   6.483  0.3940  0.1893  0.6636
  750MOL0     H98987   5.581   2.905   6.590 -0.2413 -1.0291  0.0230
  750MOL0     H98988   5.537   2.483   6.815  1.3709  0.4604  1.9277
  750MOL0     H98989   5.445   2.304   6.983 -1.8521  1.0362  3.0111
  750MOL0     H98990   5.349   2.167   7.131  1.4054 -0.0960 -1.9737
  750MOL0     H98991   5.247   2.149   6.994  0.2157  0.5142  0.5643
  750MOL0     H98992   5.151   2.137   7.278  1.1728  1.2573 -1.0435
  750MOL0     H98993   5.052   2.107   7.130 -0.0557  2.2855 -0.9571
  750MOL0     H98994   5.282   1.937   7.237  0.3463  4.1752 -0.1364
  750MOL0     H98995   5.213   1.906   7.085 -3.3298 -0.0668 -0.8520
  750MOL0     H98996   5.126   1.751   7.267 -2.0161 -0.5706  1.4386
  750MOL0     H98997   5.068   1.883   7.357 -0.4049  0.9230 -0.4515
  750MOL0     H98998   4.772   1.808   7.048 -0.2478  3.3738 -0.3326
  750MOL0     H98999   5.101   2.546   7.042  0.7669  0.2616  0.6135
  750MOL0     H99000   5.190   2.720   6.889  0.5357 -0.0437 -3.7074
  751MOL0     O99001   1.089   7.467   0.027 -0.0183 -0.2782 -0.3622
  751MOL0     C99002   1.064   7.479   0.143 -0.5556 -0.8604 -0.3313
  751MOL0     O99003   1.005   7.387   0.226 -0.5028  0.0118  0.5795
  751MOL0     C99004   0.922   7.283   0.192 -0.1737 -0.0938 -0.2268
  751MOL0     C99005   0.889   7.258   0.063  0.1382  0.2531  0.1487
  751MOL0     C99006   0.791   7.154   0.034 -0.1205 -0.1258 -0.1086
  751MOL0     C99007   0.736   7.080   0.130 -0.2575 -0.2893 -0.2432
  751MOL0     O99008   0.643   6.985   0.087  0.0968  0.1865 -0.1946
  751MOL0     C99009   0.603   6.875   0.171  0.3703  0.2485  0.7381
  751MOL0     C99010   0.509   6.772   0.105  0.1634  0.2278  0.8238
  751MOL0     C99011   0.361   6.803   0.142  0.0111  0.3303  0.0892
  751MOL0     C99012   0.307   6.757   0.277 -1.3205  0.4400 -0.5528
  751MOL0     C99013   0.185   6.827   0.325  0.0708  0.1709  0.1854
  751MOL0     C99014   0.165   6.818   0.477 -0.6252 -0.0463 -0.6060
  751MOL0     C99015   0.077   6.941   0.529  0.6041  0.0133  0.2978
  751MOL0     C99016   0.151   7.000   0.652 -0.2506  1.0004  0.2741
  751MOL0     N99017   0.086   7.091   0.748 -0.1121  0.1473 -0.0627
  751MOL0     C99018  -0.046   7.083   0.790 -0.2430  0.2433  0.1992
  751MOL0     C99019  -0.068   7.191   0.865  0.1484  0.3095 -0.1614
  751MOL0     C99020  -0.200   7.235   0.930  0.2752  0.3254  0.3389
  751MOL0     C99021  -0.254   7.356   0.858  0.6237 -0.3292 -0.8870
  751MOL0     C99022  -0.408   7.374   0.896  0.0023  0.0114 -0.4465
  751MOL0     C99023  -0.489   7.482   0.831  0.2199 -0.5024  0.0188
  751MOL0     O99024  -0.622   7.478   0.881  0.4973 -0.6095  0.3544
  751MOL0     C99025  -0.682   7.598   0.893 -0.2243  0.2430 -0.0544
  751MOL0     C99026  -0.712   7.675   0.772 -0.1866  0.7589 -0.4455
  751MOL0     C99027  -0.777   7.790   0.791 -1.6136 -0.5196 -0.3405
  751MOL0     C99028  -0.796   7.846   0.919 -0.7159  0.1420 -0.2421
  751MOL0     C99029  -0.836   7.987   0.920 -0.7550  0.0698  0.1144
  751MOL0     O99030  -0.788   8.055   1.028 -0.2363  0.0815  0.4027
  751MOL0     C99031  -0.814   8.192   1.017 -0.5937  0.4338 -0.4018
  751MOL0     C99032  -0.725   8.289   0.952  0.0647 -0.5518 -0.7001
  751MOL0     C99033  -0.760   8.424   0.946 -0.3346 -0.5854  0.6180
  751MOL0     C99034  -0.873   8.472   1.017  0.1573  0.8131 -0.0304
  751MOL0     O99035  -0.928   8.597   0.994  0.0068 -0.4896 -0.7823
  751MOL0     C99036  -0.831   8.706   0.991  0.1726 -0.9285  0.2274
  751MOL0     C99037  -0.831   8.791   1.115  0.2337  0.5275  0.5783
  751MOL0     C99038  -0.966   8.793   1.188  0.7488 -0.0170 -0.3010
  751MOL0     C99039  -1.085   8.870   1.127  0.4483  0.4746  0.7881
  751MOL0     C99040  -1.062   9.024   1.122  0.1416  0.0363 -0.5734
  751MOL0     C99041  -1.146   9.090   1.026  0.2997 -0.3741  0.4392
  751MOL0     C99042  -1.115   9.241   1.014 -0.3999  0.1514  0.1564
  751MOL0     C99043  -1.113   9.316   1.149 -0.1228  0.0143  0.5608
  751MOL0    Cl99044  -1.260   9.303   1.254 -0.7089 -0.2264 -0.2738
  751MOL0     C99045  -0.956   8.383   1.094 -0.1529 -0.3497 -0.5403
  751MOL0     C99046  -0.926   8.254   1.084 -0.0904  0.8312 -1.3061
  751MOL0     O99047  -0.903   8.029   0.829  0.1097  0.1171 -0.3674
  751MOL0     C99048  -0.754   7.775   1.031 -0.1147 -0.8070  0.4352
  751MOL0     C99049  -0.708   7.649   1.018  0.0238  0.0333 -0.3693
  751MOL0     N99050   0.053   7.268   0.868 -0.0716 -0.0197 -0.6635
  751MOL0     N99051   0.138   7.205   0.796  0.0274 -0.3671  0.4970
  751MOL0     C99052   0.778   7.104   0.261  0.4995  1.4677 -1.5537
  751MOL0     C99053   0.865   7.206   0.295  0.8398  0.5460 -0.4621
  751MOL0     C99054   1.105   7.600   0.210  0.2517  0.6897  0.2181
  751MOL0     C99055   1.036   7.638   0.321  1.1825 -0.2595 -0.6277
  751MOL0     C99056   1.071   7.757   0.396 -0.5515 -0.7648 -0.3989
  751MOL0     C99057   1.184   7.837   0.349 -0.1477  0.8699 -0.1487
  751MOL0     O99058   1.240   7.954   0.398 -0.6353 -0.0353 -0.5303
  751MOL0     C99059   1.199   7.986   0.527  0.2950  0.0148  0.3288
  751MOL0     C99060   1.293   8.094   0.595  0.0614  0.4841  0.5565
  751MOL0     C99061   1.419   8.032   0.663  0.7669 -0.7961  0.3592
  751MOL0     C99062   1.525   8.141   0.683  0.1650  0.2794  0.6895
  751MOL0     C99063   1.489   8.248   0.780  0.6244  0.5318 -0.6878
  751MOL0     C99064   1.476   8.345   0.852  0.5516 -0.7659  0.7341
  751MOL0     C99065   1.262   7.778   0.244  0.1280 -0.7304 -0.4307
  751MOL0     C99066   1.224   7.662   0.178  0.0879  0.9288  0.1262
  751MOL0     H99067   0.930   7.312  -0.022  3.4542  1.1233  2.0957
  751MOL0     H99068   0.764   7.135  -0.069 -0.7877  1.7966 -0.3236
  751MOL0     H99069   0.547   6.926   0.250  1.3383  2.2669  0.2038
  751MOL0     H99070   0.687   6.828   0.223 -0.8202 -0.7326  1.8419
  751MOL0     H99071   0.536   6.670   0.132  0.8888 -0.5481 -2.4684
  751MOL0     H99072   0.510   6.773  -0.004 -1.8701  1.1605  0.7710
  751MOL0     H99073   0.292   6.767   0.065 -1.0954 -0.6030  1.4698
  751MOL0     H99074   0.347   6.912   0.144 -0.8597  0.2768 -1.3522
  751MOL0     H99075   0.302   6.648   0.280 -4.4259  0.5316  1.6684
  751MOL0     H99076   0.386   6.784   0.347 -1.9577  1.5458 -0.2314
  751MOL0     H99077   0.097   6.794   0.268 -0.1342 -1.0718  1.1875
  751MOL0     H99078   0.214   6.931   0.303 -0.5568  0.1089 -1.0057
  751MOL0     H99079   0.259   6.820   0.533 -0.2920  1.5935 -1.1883
  751MOL0     H99080   0.116   6.724   0.505 -0.4870  0.9954  3.8252
  751MOL0     H99081   0.071   7.025   0.459  2.0777 -0.0629  0.0577
  751MOL0     H99082  -0.023   6.906   0.559 -0.1840  1.3447 -0.6919
  751MOL0     H99083   0.244   7.048   0.618  1.2819 -1.4739  0.7260
  751MOL0     H99084   0.195   6.918   0.710  0.6426  0.8118 -0.6481
  751MOL0     H99085  -0.123   7.014   0.757 -1.4676  1.8106 -0.3798
  751MOL0     H99086  -0.185   7.257   1.036 -0.0527 -0.2982  0.5208
  751MOL0     H99087  -0.278   7.159   0.935  1.5126 -0.9682  0.6354
  751MOL0     H99088  -0.237   7.343   0.751 -1.6789  0.3368 -1.3784
  751MOL0     H99089  -0.192   7.443   0.884  1.0122 -0.3963 -1.5509
  751MOL0     H99090  -0.461   7.284   0.864 -3.2648  1.5176  0.2816
  751MOL0     H99091  -0.422   7.399   1.002 -0.5058  3.3443 -1.2000
  751MOL0     H99092  -0.478   7.469   0.723 -2.2524  0.0606 -0.3466
  751MOL0     H99093  -0.440   7.576   0.859  1.5927 -1.5779  1.4751
  751MOL0     H99094  -0.694   7.637   0.671 -3.6177  0.5046 -1.0863
  751MOL0     H99095  -0.809   7.850   0.706 -3.0191 -1.8636 -0.7978
  751MOL0     H99096  -0.641   8.250   0.895 -0.2385 -0.8158 -0.9700
  751MOL0     H99097  -0.697   8.497   0.896 -0.5473 -0.5803  0.3536
  751MOL0     H99098  -0.852   8.766   0.901 -2.9268 -0.9473  0.8122
  751MOL0     H99099  -0.728   8.671   0.983 -0.0352 -1.3528 -0.8785
  751MOL0     H99100  -0.797   8.893   1.095  2.5831 -0.8240 -3.6536
  751MOL0     H99101  -0.760   8.750   1.187  1.0850  0.6766 -0.1613
  751MOL0     H99102  -0.948   8.831   1.289 -1.2763 -1.2091  0.5619
  751MOL0     H99103  -0.988   8.688   1.207  3.1916 -0.6478 -0.6026
  751MOL0     H99104  -1.106   8.832   1.026 -4.2253  0.6711  1.4643
  751MOL0     H99105  -1.185   8.848   1.166 -0.7768  0.1827 -2.1940
  751MOL0     H99106  -0.953   9.030   1.108  1.1751 -2.9148  4.1143
  751MOL0     H99107  -1.081   9.067   1.220 -1.7436 -1.8587 -0.0518
  751MOL0     H99108  -1.254   9.078   1.039 -0.7716  1.4843 -4.5570
  751MOL0     H99109  -1.135   9.041   0.929  0.4773 -1.7949  1.1418
  751MOL0     H99110  -1.019   9.248   0.963  1.0558 -1.0921  2.5453
  751MOL0     H99111  -1.198   9.281   0.955 -0.0531  2.5806  1.2074
  751MOL0     H99112  -1.100   9.424   1.131 -0.9579 -0.0864 -0.8328
  751MOL0     H99113  -1.024   9.281   1.202  0.9975  0.7786 -0.7407
  751MOL0     H99114  -1.057   8.393   1.132 -0.4489 -0.8800 -1.1646
  751MOL0     H99115  -0.999   8.189   1.131 -0.5063  2.5040  0.4790
  751MOL0     H99116  -0.767   7.820   1.129  1.1399 -0.6810  0.5665
  751MOL0     H99117  -0.683   7.593   1.108  0.1972 -3.7277 -2.5854
  751MOL0     H99118   0.727   7.039   0.332 -0.4952  4.4628  0.7334
  751MOL0     H99119   0.888   7.222   0.399  1.7382  3.7008 -1.0606
  751MOL0     H99120   0.955   7.577   0.359  0.3495  0.1338 -1.7361
  751MOL0     H99121   1.025   7.784   0.490  0.8506 -0.0477  0.1061
  751MOL0     H99122   1.189   7.897   0.589  1.4347  0.7257  1.5711
  751MOL0     H99123   1.098   8.026   0.515  0.0727  0.3593  2.8205
  751MOL0     H99124   1.324   8.161   0.514 -0.9638 -2.0423 -2.0869
  751MOL0     H99125   1.239   8.155   0.668  0.8620  3.6026 -1.2828
  751MOL0     H99126   1.455   7.959   0.589 -1.8556 -2.2783  0.4274
  751MOL0     H99127   1.384   7.985   0.755 -3.1333 -0.3035 -0.7136
  751MOL0     H99128   1.627   8.106   0.702  0.4111 -0.7626 -2.1776
  751MOL0     H99129   1.532   8.197   0.589  4.5775  0.9754  1.1941
  751MOL0     H99130   1.448   8.433   0.906 -3.7957  0.0067 -2.2361
  751MOL0     H99131   1.358   7.822   0.217  2.1324 -2.4432  3.1229
  751MOL0     H99132   1.285   7.616   0.101 -0.2161 -2.4252  1.7423
  752MOL0     O99133   8.127   4.231   1.066  0.2548  0.1271 -0.6409
  752MOL0     C99134   8.224   4.295   1.028  0.5488  0.0113 -0.4570
  752MOL0     O99135   8.303   4.264   0.929  0.4149  0.4775  0.2203
  752MOL0     C99136   8.289   4.143   0.861  0.4608 -1.2628  0.7444
  752MOL0     C99137   8.397   4.064   0.822 -0.1725  0.2514  1.2253
  752MOL0     C99138   8.391   3.955   0.729 -0.6201  0.2362  0.3797
  752MOL0     C99139   8.266   3.921   0.671 -0.1630  0.3647  1.0170
  752MOL0     O99140   8.247   3.814   0.584 -0.4600  0.3772 -0.9345
  752MOL0     C99141   8.305   3.821   0.458  0.1763 -0.4990 -0.1065
  752MOL0     C99142   8.207   3.754   0.355 -0.4407 -0.2937 -0.9759
  752MOL0     C99143   8.170   3.850   0.239  0.0132  0.0794  1.1030
  752MOL0     C99144   8.069   3.954   0.288  0.3677  0.7172  0.4244
  752MOL0     C99145   8.012   4.042   0.177  0.2888  0.4312 -0.7161
  752MOL0     C99146   7.939   4.167   0.219 -0.6971  1.0939 -0.5470
  752MOL0     C99147   7.838   4.223   0.123  0.0006 -0.4068  0.3605
  752MOL0     C99148   7.693   4.183   0.165 -0.1136 -0.3536 -0.0542
  752MOL0     N99149   7.608   4.177   0.042  0.0292 -0.4808 -0.4541
  752MOL0     C99150   7.575   4.290  -0.044 -0.0219  0.8853  0.2307
  752MOL0     C99151   7.522   4.231  -0.160  0.2127 -0.7444 -0.1625
  752MOL0     C99152   7.462   4.300  -0.281 -0.2637  0.5748  0.1312
  752MOL0     C99153   7.557   4.284  -0.403 -0.0738  0.2051 -0.1801
  752MOL0     C99154   7.686   4.385  -0.407  0.8859  0.7859  0.1918
  752MOL0     C99155   7.701   4.473  -0.526  0.4168 -0.1534  0.5824
  752MOL0     O99156   7.594   4.573  -0.515  0.3180 -0.4684  0.1047
  752MOL0     C99157   7.575   4.668  -0.615  0.3280  0.0618 -0.3846
  752MOL0     C99158   7.471   4.754  -0.605  0.4085  0.2699 -0.5151
  752MOL0     C99159   7.439   4.841  -0.707  0.8223 -0.3759  0.2140
  752MOL0     C99160   7.516   4.843  -0.826 -0.4890  0.1732  0.1356
  752MOL0     C99161   7.472   4.918  -0.946 -1.5385  0.2948  1.2873
  752MOL0     O99162   7.569   4.946  -1.038  1.0067  0.1838 -0.3281
  752MOL0     C99163   7.547   5.005  -1.159  0.8553 -0.3395  1.5934
  752MOL0     C99164   7.658   5.067  -1.225  0.4633 -0.2917 -0.0773
  752MOL0     C99165   7.660   5.108  -1.361 -0.4976  0.1993 -0.7616
  752MOL0     C99166   7.555   5.073  -1.444 -0.0583  0.1021  0.5330
  752MOL0     O99167   7.542   5.092  -1.576  0.7712 -0.5974  0.3610
  752MOL0     C99168   7.649   5.153  -1.647  0.2274  0.1817 -0.8223
  752MOL0     C99169   7.648   5.298  -1.625  0.1156  0.5237 -0.0570
  752MOL0     C99170   7.524   5.363  -1.697  0.0210 -0.4036  0.8368
  752MOL0     C99171   7.515   5.511  -1.673 -0.4071  0.2356 -1.1302
  752MOL0     C99172   7.395   5.582  -1.739  1.2382  0.8051 -0.4806
  752MOL0     C99173   7.400   5.735  -1.721  0.2807  0.2692 -1.3416
  752MOL0     C99174   7.285   5.808  -1.784  0.2955  0.2729  0.4044
  752MOL0     C99175   7.152   5.802  -1.714 -0.7951 -0.2951  1.2550
  752MOL0    Cl99176   7.029   5.862  -1.834 -0.3177 -0.2073 -0.0439
  752MOL0     C99177   7.443   5.018  -1.382 -0.6568 -0.1541 -0.2139
  752MOL0     C99178   7.435   4.986  -1.244  0.6382  0.3368 -0.5302
  752MOL0     O99179   7.362   4.963  -0.952  0.5368 -0.1856 -0.4094
  752MOL0     C99180   7.629   4.763  -0.835 -0.7183 -0.0103 -0.5392
  752MOL0     C99181   7.661   4.673  -0.727 -0.3781 -0.5583  0.3611
  752MOL0     N99182   7.523   4.094  -0.127 -0.9332 -0.1422  0.7592
  752MOL0     N99183   7.573   4.062  -0.020 -0.7015 -0.2375 -0.2286
  752MOL0     C99184   8.158   3.999   0.697 -0.5975 -0.0237  0.4656
  752MOL0     C99185   8.174   4.109   0.785  0.4855  0.1348  0.9998
  752MOL0     C99186   8.268   4.409   1.117 -0.2151  0.1069 -0.3121
  752MOL0     C99187   8.203   4.442   1.239 -0.2533  0.9389  0.7772
  752MOL0     C99188   8.250   4.541   1.328  0.5031 -0.9481  0.8632
  752MOL0     C99189   8.356   4.624   1.288 -0.2582  0.6179  0.3477
  752MOL0     O99190   8.399   4.742   1.343 -0.2892  0.3113  0.3253
  752MOL0     C99191   8.351   4.798   1.461 -0.6360 -0.3877  0.5729
  752MOL0     C99192   8.457   4.893   1.505 -0.0841  0.6658 -0.6298
  752MOL0     C99193   8.460   4.929   1.658  0.6556  0.6575 -0.5684
  752MOL0     C99194   8.495   4.818   1.763 -0.5459  0.4923 -0.5937
  752MOL0     C99195   8.584   4.868   1.875 -0.5606  0.5408  0.2783
  752MOL0     C99196   8.659   4.897   1.958 -0.2317 -0.0472 -0.8041
  752MOL0     C99197   8.431   4.584   1.181  0.1878 -0.7935  0.2481
  752MOL0     C99198   8.380   4.477   1.092 -0.2857  0.3690  0.3624
  752MOL0     H99199   8.491   4.109   0.854  1.5188 -1.4313 -1.0131
  752MOL0     H99200   8.473   3.893   0.694 -0.7600 -0.0349  0.5356
  752MOL0     H99201   8.394   3.759   0.470  2.0625  2.3909  2.1644
  752MOL0     H99202   8.326   3.923   0.426  0.6303  0.6390  3.4041
  752MOL0     H99203   8.115   3.719   0.403  0.5297 -1.7941 -0.1108
  752MOL0     H99204   8.242   3.656   0.319 -1.8007 -1.3809  0.5143
  752MOL0     H99205   8.138   3.788   0.155  1.1060 -1.7548  1.9807
  752MOL0     H99206   8.268   3.888   0.209 -1.0656  0.5420 -2.2386
  752MOL0     H99207   7.993   3.894   0.338 -0.2748  0.0894 -1.2268
  752MOL0     H99208   8.120   4.007   0.369  1.0628  0.2245  0.3172
  752MOL0     H99209   7.942   3.980   0.120  1.4306  2.9060 -5.3092
  752MOL0     H99210   8.095   4.066   0.110  2.1068  1.3876  1.7171
  752MOL0     H99211   8.021   4.238   0.232  0.6601 -0.3101 -1.1049
  752MOL0     H99212   7.899   4.159   0.321  1.2362 -1.2447  0.1155
  752MOL0     H99213   7.856   4.330   0.113 -0.9380 -0.3767 -1.3530
  752MOL0     H99214   7.867   4.164   0.035  2.7160  0.2503  0.7083
  752MOL0     H99215   7.655   4.256   0.237  1.2545  0.4216 -0.0878
  752MOL0     H99216   7.702   4.077   0.191  1.5636 -0.9476 -2.6662
  752MOL0     H99217   7.592   4.394  -0.017 -6.2615  2.1858  0.7879
  752MOL0     H99218   7.463   4.409  -0.267  0.8668  0.8985 -2.0648
  752MOL0     H99219   7.360   4.264  -0.301  0.0903 -0.1627 -0.3472
  752MOL0     H99220   7.488   4.282  -0.487 -0.4480  1.8112  0.0626
  752MOL0     H99221   7.601   4.184  -0.403  0.4972  0.4472 -0.7352
  752MOL0     H99222   7.675   4.447  -0.318 -1.6216  0.0364  0.4786
  752MOL0     H99223   7.784   4.338  -0.399  0.0992 -1.3709 -1.5536
  752MOL0     H99224   7.686   4.427  -0.624  1.8547  0.0521  0.2553
  752MOL0     H99225   7.804   4.508  -0.523  0.6230  0.0604 -3.2450
  752MOL0     H99226   7.418   4.750  -0.511  1.5950 -0.6135  0.1452
  752MOL0     H99227   7.349   4.900  -0.713  1.8332  1.1101 -1.1772
  752MOL0     H99228   7.745   5.084  -1.163  1.2181 -3.4916 -0.0531
  752MOL0     H99229   7.740   5.171  -1.401  0.3801 -1.0053 -0.9696
  752MOL0     H99230   7.631   5.140  -1.755  3.6319 -1.9439 -1.3032
  752MOL0     H99231   7.746   5.107  -1.624 -0.1176 -2.0983 -3.3276
  752MOL0     H99232   7.743   5.331  -1.667  1.2643  0.9550  2.6517
  752MOL0     H99233   7.654   5.328  -1.519  1.5554 -2.6769  0.8996
  752MOL0     H99234   7.433   5.316  -1.660  1.8051 -4.4616  0.6574
  752MOL0     H99235   7.529   5.346  -1.805 -1.4463  1.1219  0.4819
  752MOL0     H99236   7.512   5.518  -1.564  2.1234  0.1547 -1.0042
  752MOL0     H99237   7.612   5.546  -1.708  0.2586 -1.5107 -1.1181
  752MOL0     H99238   7.304   5.542  -1.692  1.4651  1.6062  0.6800
  752MOL0     H99239   7.394   5.555  -1.845  0.0018  1.3470 -0.6218
  752MOL0     H99240   7.498   5.768  -1.759  0.3164  1.1707 -0.4803
  752MOL0     H99241   7.390   5.757  -1.615 -0.9090 -2.6663 -0.7480
  752MOL0     H99242   7.326   5.908  -1.798  3.2316 -0.8421  0.3021
  752MOL0     H99243   7.275   5.768  -1.886  3.1612 -0.4306  0.3010
  752MOL0     H99244   7.141   5.857  -1.621 -1.3239 -1.1186  1.6948
  752MOL0     H99245   7.128   5.698  -1.687  0.1366 -1.4090 -1.7226
  752MOL0     H99246   7.363   4.998  -1.453 -1.7962 -0.4439  1.1111
  752MOL0     H99247   7.350   4.924  -1.218 -0.7024  1.7316 -1.4403
  752MOL0     H99248   7.693   4.758  -0.923  1.1163  1.1148  0.6594
  752MOL0     H99249   7.755   4.619  -0.736  1.2636  2.1541  0.1589
  752MOL0     H99250   8.065   3.974   0.647  0.2662 -2.1385 -0.1972
  752MOL0     H99251   8.095   4.180   0.802 -0.2198 -0.3847 -0.0007
  752MOL0     H99252   8.102   4.406   1.255  0.0511 -0.1456  0.3332
  752MOL0     H99253   8.203   4.575   1.419  2.6101  0.9531  1.3551
  752MOL0     H99254   8.354   4.722   1.540  1.1284  2.2672  3.2297
  752MOL0     H99255   8.248   4.834   1.455 -0.1277  1.2881  1.4096
  752MOL0     H99256   8.559   4.866   1.473  0.1777 -0.3519  0.9631
  752MOL0     H99257   8.433   4.990   1.460  0.6110  1.6968  1.1566
  752MOL0     H99258   8.357   4.965   1.673  0.4384 -0.5363  1.0544
  752MOL0     H99259   8.531   5.012   1.665  1.8096 -0.2355 -1.3330
  752MOL0     H99260   8.400   4.775   1.796  0.1081 -1.2574 -0.8439
  752MOL0     H99261   8.541   4.731   1.714 -1.8587 -0.3775 -0.3210
  752MOL0     H99262   8.738   4.916   2.028 -3.0098  2.7845  1.8370
  752MOL0     H99263   8.526   4.625   1.148 -0.5114 -0.9736 -2.2700
  752MOL0     H99264   8.450   4.443   1.017 -1.2541  0.2858 -0.5327
  753MOL0     O99265   7.778   9.976   3.781  0.3771  0.0944  0.5552
  753MOL0     C99266   7.875  10.052   3.765 -0.0600 -0.2309  1.0497
  753MOL0     O99267   7.913  10.150   3.861  0.6283  0.1367  0.2706
  753MOL0     C99268   7.813  10.172   3.958 -0.0262 -0.4754  0.2217
  753MOL0     C99269   7.842  10.146   4.090  0.1036  0.7156 -0.2347
  753MOL0     C99270   7.760  10.189   4.193 -0.1768  0.5599  0.3973
  753MOL0     C99271   7.644  10.263   4.158 -0.5180 -0.2764 -0.0817
  753MOL0     O99272   7.567  10.306   4.266  0.0281  0.5207  0.0187
  753MOL0     C99273   7.429  10.287   4.255  0.2565  0.5085  0.1473
  753MOL0     C99274   7.388  10.130   4.254  0.0497  0.1278  0.7243
  753MOL0     C99275   7.251  10.102   4.309 -0.3857  0.4346  0.1470
  753MOL0     C99276   7.133  10.164   4.232  0.3408  0.6009  0.4930
  753MOL0     C99277   7.000  10.140   4.305  0.5974  0.3445 -0.7364
  753MOL0     C99278   6.966   9.991   4.336  1.0080 -0.5037 -0.2412
  753MOL0     C99279   6.951   9.890   4.212  0.6161 -0.4058 -0.6914
  753MOL0     C99280   6.836   9.939   4.118 -0.3244  0.0193 -1.1021
  753MOL0     N99281   6.780   9.819   4.046  0.2054 -0.6879 -0.4964
  753MOL0     C99282   6.646   9.805   4.000  0.0769 -0.4088 -0.6529
  753MOL0     C99283   6.654   9.699   3.920  0.7868 -0.9993 -0.6056
  753MOL0     C99284   6.532   9.648   3.837  0.0490 -0.8724 -0.4141
  753MOL0     C99285   6.565   9.511   3.783 -0.3108 -0.7876  0.2339
  753MOL0     C99286   6.451   9.456   3.723  0.3189  0.3586  0.2671
  753MOL0     C99287   6.449   9.300   3.703  0.0695  1.3858  0.5120
  753MOL0     O99288   6.411   9.228   3.817 -0.1435 -0.3283 -0.1100
  753MOL0     C99289   6.416   9.092   3.810 -0.2730 -0.4694  1.7399
  753MOL0     C99290   6.533   9.015   3.815  0.9970  0.3841 -0.8008
  753MOL0     C99291   6.530   8.875   3.823  0.1072  0.8824  0.0623
  753MOL0     C99292   6.399   8.822   3.816  0.0487  0.0469 -0.8204
  753MOL0     C99293   6.373   8.671   3.838 -0.6284  0.3137  0.3100
  753MOL0     O99294   6.253   8.623   3.809  0.7580  0.6739  0.7550
  753MOL0     C99295   6.242   8.485   3.810  0.4848  0.3019 -0.4564
  753MOL0     C99296   6.301   8.395   3.907 -0.5739 -1.0907 -0.3645
  753MOL0     C99297   6.270   8.262   3.906 -0.0251 -0.0111 -0.3696
  753MOL0     C99298   6.192   8.213   3.803 -0.5423 -0.0134 -1.2041
  753MOL0     O99299   6.166   8.072   3.791  0.3091  0.6216 -0.4155
  753MOL0     C99300   6.129   7.999   3.911 -1.0843  0.3944  1.0250
  753MOL0     C99301   6.001   7.909   3.909 -0.0052 -0.6142 -0.3154
  753MOL0     C99302   5.881   8.000   3.893 -0.1896 -1.0897 -1.3815
  753MOL0     C99303   5.761   7.926   3.834  0.4672 -0.6349 -1.7416
  753MOL0     C99304   5.648   7.939   3.945  0.0903  1.2944  0.2874
  753MOL0     C99305   5.578   7.804   3.980  0.5588  0.2238  0.3927
  753MOL0     C99306   5.667   7.708   4.047 -0.0193  0.6608  0.7317
  753MOL0     C99307   5.697   7.735   4.194 -0.3767  0.4225  1.6991
  753MOL0    Cl99308   5.630   7.592   4.289  0.0250 -0.4946  0.2202
  753MOL0     C99309   6.143   8.293   3.704  0.1502 -0.4106  0.7218
  753MOL0     C99310   6.164   8.431   3.712  0.3092  0.4637  0.2645
  753MOL0     O99311   6.472   8.610   3.881  0.4083 -0.4203 -0.1003
  753MOL0     C99312   6.275   8.900   3.806 -0.4198  0.2140  0.5089
  753MOL0     C99313   6.289   9.036   3.801  0.4542 -0.8459  0.2054
  753MOL0     N99314   6.786   9.652   3.909 -0.3534  0.3351  0.0886
  753MOL0     N99315   6.855   9.737   3.990 -0.7614 -0.4142  0.6510
  753MOL0     C99316   7.607  10.285   4.028 -0.5737 -0.0907  0.1346
  753MOL0     C99317   7.694  10.239   3.927  0.4769  0.0806  1.0087
  753MOL0     C99318   7.948  10.032   3.637 -0.0399 -0.4913 -0.0318
  753MOL0     C99319   7.881   9.976   3.522  0.7921  1.4238 -1.0774
  753MOL0     C99320   7.936   9.962   3.394 -0.5033  0.4839  0.7090
  753MOL0     C99321   8.057  10.026   3.378  0.4207  0.2094 -0.0504
  753MOL0     O99322   8.125   9.987   3.261  0.4062 -0.1240  0.8130
  753MOL0     C99323   8.253  10.044   3.232  0.4521  0.1691  1.3705
  753MOL0     C99324   8.317  10.014   3.089 -0.5311 -0.4643  0.0273
  753MOL0     C99325   8.227  10.024   2.965  1.0249 -1.3078 -0.2231
  753MOL0     C99326   8.200  10.157   2.929  0.8489 -0.2109  0.6512
  753MOL0     C99327   8.097  10.160   2.819 -0.0694 -0.3487  0.0207
  753MOL0     C99328   8.015  10.137   2.723 -0.0552 -1.2774  0.5582
  753MOL0     C99329   8.123  10.091   3.485  0.1616  0.2651  0.1788
  753MOL0     C99330   8.071  10.093   3.614  0.6698 -0.4053  0.1997
  753MOL0     H99331   7.935  10.092   4.110 -0.0432 -0.0668 -1.5532
  753MOL0     H99332   7.782  10.177   4.299 -2.4094 -0.7549  0.7869
  753MOL0     H99333   7.391  10.357   4.181  3.0036  1.4084 -0.5042
  753MOL0     H99334   7.386  10.326   4.347  0.6894  0.5075  0.3528
  753MOL0     H99335   7.472  10.077   4.300 -0.6498 -2.6437 -0.9286
  753MOL0     H99336   7.399  10.090   4.153  5.2970  1.6013  0.4301
  753MOL0     H99337   7.246  10.119   4.417  0.6284 -0.8716  0.4262
  753MOL0     H99338   7.240   9.995   4.290 -1.9376  0.3114  1.5083
  753MOL0     H99339   7.149  10.272   4.224 -1.2467  0.8838  0.7563
  753MOL0     H99340   7.121  10.132   4.128 -0.8574 -1.0931  1.1059
  753MOL0     H99341   6.922  10.192   4.248  1.4329  1.3091 -1.0320
  753MOL0     H99342   7.005  10.193   4.401 -1.5139 -0.2265 -0.2665
  753MOL0     H99343   6.873   9.993   4.393  2.2401 -2.5188  1.9722
  753MOL0     H99344   7.041   9.961   4.410  5.7428  5.4033 -1.8148
  753MOL0     H99345   7.044   9.864   4.161  1.8404 -1.5515  1.9164
  753MOL0     H99346   6.921   9.793   4.254 -1.2122 -0.1618 -1.3431
  753MOL0     H99347   6.866  10.013   4.043  1.9664 -0.6310 -0.8768
  753MOL0     H99348   6.754   9.976   4.181 -0.7277 -3.8911  0.9536
  753MOL0     H99349   6.569   9.877   4.028 -2.0723 -1.6984 -2.7917
  753MOL0     H99350   6.507   9.718   3.757  2.1598  4.6067  3.1380
  753MOL0     H99351   6.442   9.657   3.899  1.0378  3.4139  0.7394
  753MOL0     H99352   6.596   9.451   3.869  2.8607 -0.3621 -0.4845
  753MOL0     H99353   6.647   9.510   3.711  0.2400 -2.4572  0.8194
  753MOL0     H99354   6.354   9.469   3.771  0.0622 -1.2894  0.2731
  753MOL0     H99355   6.451   9.504   3.624 -0.1686  0.1473  0.1619
  753MOL0     H99356   6.555   9.274   3.686 -0.3368 -0.2190  0.2171
  753MOL0     H99357   6.388   9.275   3.616  1.3714  1.6539 -0.5236
  753MOL0     H99358   6.626   9.069   3.801  2.7022 -2.2893 -0.5714
  753MOL0     H99359   6.625   8.823   3.832 -0.1587  0.2342 -0.8684
  753MOL0     H99360   6.365   8.428   3.989  1.4997  0.4145 -2.4639
  753MOL0     H99361   6.325   8.194   3.969  0.0340  0.4501  0.0843
  753MOL0     H99362   6.118   8.072   3.992 -2.4741  1.2206  0.1317
  753MOL0     H99363   6.210   7.932   3.940 -0.1394  0.3813 -1.3683
  753MOL0     H99364   5.977   7.879   4.012  1.2436  0.6027  0.3668
  753MOL0     H99365   6.003   7.834   3.830 -1.0616  0.6884 -1.6500
  753MOL0     H99366   5.914   8.085   3.833 -1.0396  2.2899  2.4658
  753MOL0     H99367   5.864   8.059   3.983 -0.3495  0.3638 -2.3360
  753MOL0     H99368   5.726   7.976   3.743  2.9766 -0.6036 -2.7869
  753MOL0     H99369   5.785   7.823   3.806 -0.5459 -0.5494 -2.9878
  753MOL0     H99370   5.578   8.016   3.915 -2.0612 -2.1085 -4.7964
  753MOL0     H99371   5.691   7.972   4.040  0.7053 -0.1741  0.5534
  753MOL0     H99372   5.535   7.757   3.891  3.5671 -1.6422 -0.2234
  753MOL0     H99373   5.491   7.828   4.042  0.6409  1.3302  0.0991
  753MOL0     H99374   5.621   7.609   4.043 -0.1014  0.7342 -1.2104
  753MOL0     H99375   5.752   7.699   3.979 -1.7390 -1.2661 -1.2936
  753MOL0     H99376   5.658   7.832   4.224  1.6000  1.3162  1.5730
  753MOL0     H99377   5.804   7.755   4.209 -0.2939  1.6253 -0.2318
  753MOL0     H99378   6.083   8.260   3.620  2.7427  1.9550 -2.3205
  753MOL0     H99379   6.128   8.499   3.636 -1.3506 -1.1634 -0.4433
  753MOL0     H99380   6.171   8.870   3.800 -0.3788  0.3027 -1.0875
  753MOL0     H99381   6.199   9.095   3.791  0.6677 -0.0290  2.5766
  753MOL0     H99382   7.525  10.352   4.005  1.5329  2.9712  0.8353
  753MOL0     H99383   7.663  10.248   3.823  2.5521  0.4241  0.3616
  753MOL0     H99384   7.777   9.948   3.542  1.0840  1.3427  0.4953
  753MOL0     H99385   7.871   9.919   3.319  2.2166 -0.0188 -1.5480
  753MOL0     H99386   8.329  10.003   3.300  2.4997  1.7215  0.1121
  753MOL0     H99387   8.254  10.151   3.256  2.9969  0.5203  0.0566
  753MOL0     H99388   8.405  10.075   3.068 -1.5170  0.4948 -1.4990
  753MOL0     H99389   8.350   9.911   3.082  2.0813  0.3318 -0.2700
  753MOL0     H99390   8.137   9.965   2.983 -0.8862  1.2989 -0.7301
  753MOL0     H99391   8.281   9.979   2.881  0.6074 -3.1943  0.4691
  753MOL0     H99392   8.160  10.211   3.015 -1.4982  0.4003 -0.7226
  753MOL0     H99393   8.289  10.214   2.902 -1.3449  3.2047 -0.0785
  753MOL0     H99394   7.950  10.110   2.641 -1.9861  0.3517  1.4457
  753MOL0     H99395   8.226  10.125   3.473  1.4703 -2.6346  2.0553
  753MOL0     H99396   8.135  10.145   3.684  1.9271 -0.1795 -1.0821
  754MOL0     O99397   3.672   4.055   1.196 -0.0124  0.1985  0.2624
  754MOL0     C99398   3.609   4.156   1.175  0.4276  0.6137  0.0173
  754MOL0     O99399   3.671   4.278   1.137 -0.8419  0.2046 -0.7000
  754MOL0     C99400   3.811   4.282   1.137  1.0552  0.1946  0.8916
  754MOL0     C99401   3.875   4.310   1.249 -1.0075  0.0276 -0.7073
  754MOL0     C99402   4.014   4.308   1.260 -0.6569  0.3248  0.0267
  754MOL0     C99403   4.084   4.283   1.143  0.2423  0.2839 -0.2501
  754MOL0     O99404   4.215   4.314   1.151 -0.5101  0.7650  0.4382
  754MOL0     C99405   4.292   4.203   1.114  0.2002  0.1896  0.7113
  754MOL0     C99406   4.424   4.211   1.185  0.6204  0.0161 -0.1808
  754MOL0     C99407   4.420   4.261   1.337  0.6235  0.2885  0.6857
  754MOL0     C99408   4.389   4.149   1.443  0.2754 -0.1405  0.4485
  754MOL0     C99409   4.488   4.171   1.558 -0.1912  0.5904  0.8874
  754MOL0     C99410   4.475   4.073   1.674  0.3900  1.5452 -0.4555
  754MOL0     C99411   4.566   4.109   1.794 -0.5324  0.2248 -0.4989
  754MOL0     C99412   4.548   4.042   1.936  0.4410 -0.1191  1.2053
  754MOL0     N99413   4.579   3.902   1.925  0.3490  0.7085  0.4600
  754MOL0     C99414   4.479   3.808   1.895  0.1171 -0.2954  0.4988
  754MOL0     C99415   4.545   3.691   1.877  0.3120 -0.6277 -0.2929
  754MOL0     C99416   4.493   3.563   1.827 -0.2570  1.0245 -0.2829
  754MOL0     C99417   4.402   3.553   1.699  0.3978  0.8195 -0.2272
  754MOL0     C99418   4.432   3.667   1.597 -0.5522 -0.5671 -0.1907
  754MOL0     C99419   4.374   3.635   1.459 -0.4006  0.2191 -0.2233
  754MOL0     O99420   4.236   3.591   1.472  0.3440  0.2283  0.5712
  754MOL0     C99421   4.171   3.533   1.366 -0.1270  0.1965  0.5182
  754MOL0     C99422   4.066   3.445   1.395 -0.3255 -0.1829  0.5007
  754MOL0     C99423   4.002   3.373   1.298  0.0032 -0.4245  0.8580
  754MOL0     C99424   4.024   3.400   1.160 -0.0537 -0.0745 -0.2463
  754MOL0     C99425   3.942   3.333   1.052 -0.1354  0.4979  0.1858
  754MOL0     O99426   3.848   3.239   1.086 -0.1682 -0.3015 -0.0496
  754MOL0     C99427   3.773   3.180   0.979 -0.2436  0.1432  1.1500
  754MOL0     C99428   3.794   3.042   0.959  0.9063 -0.0392 -0.1362
  754MOL0     C99429   3.739   2.973   0.850  0.6046 -0.3689 -1.1938
  754MOL0     C99430   3.657   3.050   0.765 -0.3651 -0.2972 -0.2085
  754MOL0     O99431   3.613   2.986   0.658 -0.3631  0.7715 -0.3019
  754MOL0     C99432   3.476   3.007   0.617 -0.1553  0.3141 -0.5132
  754MOL0     C99433   3.469   3.078   0.480  0.7188  0.0570 -0.9010
  754MOL0     C99434   3.319   3.088   0.456  1.9385 -0.5910 -1.1473
  754MOL0     C99435   3.291   3.120   0.312 -0.4145  0.1065 -0.2367
  754MOL0     C99436   3.147   3.174   0.281 -0.2290  0.6001 -0.2146
  754MOL0     C99437   3.148   3.273   0.169 -0.2642 -0.0709 -0.1764
  754MOL0     C99438   3.208   3.226   0.031 -0.0526 -0.4948 -0.4347
  754MOL0     C99439   3.216   3.345  -0.062 -0.0435 -0.2758  0.0433
  754MOL0    Cl99440   3.201   3.285  -0.226 -0.1090 -0.0343 -0.5015
  754MOL0     C99441   3.626   3.184   0.783  0.0380  0.5684 -0.0604
  754MOL0     C99442   3.692   3.249   0.888  0.3034 -0.5339  0.4909
  754MOL0     O99443   3.970   3.373   0.938 -0.1816 -0.8860  0.3784
  754MOL0     C99444   4.139   3.482   1.136 -0.5524 -0.6947  0.7628
  754MOL0     C99445   4.209   3.544   1.229 -0.4352 -0.6119 -0.3261
  754MOL0     N99446   4.676   3.721   1.897  0.2783  0.4601 -0.9227
  754MOL0     N99447   4.698   3.845   1.922 -0.6791  1.0811 -0.1743
  754MOL0     C99448   4.026   4.264   1.024  0.5487  0.4311  0.9562
  754MOL0     C99449   3.879   4.262   1.017  0.0367 -0.3413 -0.1199
  754MOL0     C99450   3.458   4.166   1.208 -0.6027  0.4754  0.3292
  754MOL0     C99451   3.394   4.296   1.204 -0.8870  0.2655 -0.6150
  754MOL0     C99452   3.254   4.310   1.218  0.0738  0.5134 -0.4116
  754MOL0     C99453   3.182   4.193   1.240 -0.1093  0.1732  0.2202
  754MOL0     O99454   3.047   4.178   1.257 -0.1978 -0.4661 -0.8342
  754MOL0     C99455   2.962   4.268   1.185  0.4143 -0.1892  0.4172
  754MOL0     C99456   2.823   4.197   1.210  0.8165 -0.1049 -0.3431
  754MOL0     C99457   2.706   4.215   1.100 -0.6690  0.4017 -0.1721
  754MOL0     C99458   2.739   4.141   0.972 -0.3516  0.6559 -0.4955
  754MOL0     C99459   2.774   4.002   0.991  0.8137  1.2633 -0.1583
  754MOL0     C99460   2.808   3.884   0.984  0.6622  0.3029  1.2687
  754MOL0     C99461   3.243   4.077   1.266 -0.2406 -0.6104 -0.2832
  754MOL0     C99462   3.377   4.056   1.248 -0.7482  0.7387  0.3477
  754MOL0     H99463   3.819   4.340   1.337  0.3115  2.0985 -0.5175
  754MOL0     H99464   4.061   4.341   1.352 -0.2385 -2.5711  0.9422
  754MOL0     H99465   4.305   4.185   1.007  1.6443 -0.6944  1.0073
  754MOL0     H99466   4.259   4.104   1.146  0.3300 -0.8119 -2.0531
  754MOL0     H99467   4.485   4.281   1.127  2.5145 -0.5655  1.0079
  754MOL0     H99468   4.472   4.112   1.186 -0.8554 -0.7242  0.9407
  754MOL0     H99469   4.354   4.348   1.344 -0.3880 -0.5306  1.9742
  754MOL0     H99470   4.522   4.288   1.366  0.8576 -1.0613  1.2112
  754MOL0     H99471   4.286   4.152   1.479 -0.5108  1.8517 -1.6957
  754MOL0     H99472   4.412   4.058   1.388  0.2589  1.4431 -2.3794
  754MOL0     H99473   4.467   4.275   1.587  2.8202  1.5213  0.1098
  754MOL0     H99474   4.594   4.160   1.535 -0.4531 -2.2163  0.7503
  754MOL0     H99475   4.506   3.975   1.637 -0.6023  1.1948 -0.3868
  754MOL0     H99476   4.372   4.068   1.709  1.2740 -2.4522  2.2991
  754MOL0     H99477   4.669   4.091   1.761  0.4285  1.6216  1.5233
  754MOL0     H99478   4.567   4.218   1.806 -2.4554  0.2657 -0.3600
  754MOL0     H99479   4.444   4.044   1.972 -0.9171  0.5974 -2.3003
  754MOL0     H99480   4.617   4.091   2.006 -2.5069  1.2540  3.3818
  754MOL0     H99481   4.377   3.842   1.881  0.0402 -1.0118 -0.7123
  754MOL0     H99482   4.446   3.507   1.908 -1.3867  1.8048 -0.3800
  754MOL0     H99483   4.583   3.504   1.809 -0.3097  0.9163 -0.1910
  754MOL0     H99484   4.297   3.553   1.731  0.0793 -0.1132 -1.2147
  754MOL0     H99485   4.423   3.457   1.651 -2.0078 -0.2340  0.6671
  754MOL0     H99486   4.379   3.756   1.630 -1.8694 -1.3510 -0.1445
  754MOL0     H99487   4.541   3.666   1.589 -0.4048 -0.5747  1.4439
  754MOL0     H99488   4.431   3.554   1.413  0.8778 -0.9916  3.1482
  754MOL0     H99489   4.386   3.726   1.400  1.0494 -0.0235 -0.3261
  754MOL0     H99490   4.061   3.420   1.501  4.7869 -4.3465  0.1644
  754MOL0     H99491   3.933   3.298   1.337  1.2715 -0.9113  2.2562
  754MOL0     H99492   3.875   2.986   1.004  1.4800 -1.9686 -3.2935
  754MOL0     H99493   3.765   2.869   0.840  2.4772 -0.2707  1.6056
  754MOL0     H99494   3.418   3.069   0.686  0.0443  1.2931 -1.1959
  754MOL0     H99495   3.426   2.910   0.615 -0.8013  0.6462 -3.0149
  754MOL0     H99496   3.516   3.015   0.404  0.8265 -0.2200 -0.6061
  754MOL0     H99497   3.511   3.178   0.494  1.5703 -0.5138  0.9265
  754MOL0     H99498   3.269   3.156   0.526  1.1506 -1.3690 -0.9408
  754MOL0     H99499   3.274   2.992   0.482  1.0607  0.2997  0.8264
  754MOL0     H99500   3.369   3.189   0.277 -2.2962  1.8086 -1.2671
  754MOL0     H99501   3.313   3.024   0.263  1.3996  1.8726 -3.1732
  754MOL0     H99502   3.104   3.226   0.367 -0.6113 -2.5448  1.6506
  754MOL0     H99503   3.089   3.090   0.242  1.1850 -0.6106  0.2269
  754MOL0     H99504   3.202   3.365   0.191 -1.2145  0.4172  0.1474
  754MOL0     H99505   3.044   3.303   0.154  0.1970  3.0023  1.9156
  754MOL0     H99506   3.299   3.169   0.052  0.3502  0.3158  0.0574
  754MOL0     H99507   3.149   3.154  -0.026  0.0931 -2.1351  1.3908
  754MOL0     H99508   3.317   3.384  -0.049  0.3275 -0.5202 -1.7843
  754MOL0     H99509   3.137   3.418  -0.047 -0.5768 -0.3056 -2.2519
  754MOL0     H99510   3.560   3.240   0.717  0.8604  2.1067  0.3653
  754MOL0     H99511   3.694   3.354   0.914  3.9540 -0.2677 -0.3108
  754MOL0     H99512   4.167   3.497   1.032 -3.1232 -1.6400 -0.1612
  754MOL0     H99513   4.292   3.606   1.194 -0.4158  1.4201  2.8956
  754MOL0     H99514   4.075   4.243   0.929  0.8336 -2.8916  1.6993
  754MOL0     H99515   3.835   4.256   0.918 -2.0395  0.7678  0.6826
  754MOL0     H99516   3.455   4.383   1.182  1.0536 -1.0545 -0.6017
  754MOL0     H99517   3.206   4.407   1.210 -0.1468  0.3609 -0.9485
  754MOL0     H99518   2.989   4.277   1.079 -0.7263  1.0109  0.1979
  754MOL0     H99519   2.961   4.369   1.226 -2.6065 -0.7220  1.8793
  754MOL0     H99520   2.844   4.094   1.240  0.1958 -0.4046 -0.9225
  754MOL0     H99521   2.776   4.233   1.302 -1.1478  0.6580 -1.5765
  754MOL0     H99522   2.697   4.323   1.082  0.6297  1.0199  2.4068
  754MOL0     H99523   2.620   4.172   1.151 -1.2779 -1.8521 -2.8159
  754MOL0     H99524   2.644   4.142   0.917 -0.5252  0.0384 -0.2105
  754MOL0     H99525   2.818   4.195   0.919 -0.7034  1.9106  0.1855
  754MOL0     H99526   2.818   3.778   0.969  0.4519  0.4864 -0.3402
  754MOL0     H99527   3.178   3.993   1.288 -2.1078  0.8669  0.0850
  754MOL0     H99528   3.408   3.952   1.239 -0.7466  0.9208 -2.6693
  755MOL0     O99529   0.045   4.277   6.377 -0.2732 -0.9163 -0.2347
  755MOL0     C99530   0.069   4.159   6.390 -0.1657  0.4085 -0.7569
  755MOL0     O99531   0.087   4.076   6.283 -0.3140 -0.1454 -0.3024
  755MOL0     C99532   0.039   4.109   6.159 -0.2185 -0.4547 -0.3616
  755MOL0     C99533   0.122   4.067   6.056  0.5056 -0.3716 -0.7401
  755MOL0     C99534   0.067   4.080   5.923  0.1259  0.3520 -0.3753
  755MOL0     C99535  -0.068   4.112   5.906 -1.5394  0.1213  0.8552
  755MOL0     O99536  -0.111   4.125   5.776  0.5004 -0.0859  0.4116
  755MOL0     C99537  -0.242   4.070   5.746 -0.1389  0.0950 -0.4716
  755MOL0     C99538  -0.276   4.058   5.599  0.0798 -0.1377  0.0591
  755MOL0     C99539  -0.272   4.206   5.527  0.1667 -0.6026  0.8811
  755MOL0     C99540  -0.339   4.213   5.385  0.3470 -0.3135  0.1220
  755MOL0     C99541  -0.309   4.101   5.286 -0.1877  0.3047 -0.4704
  755MOL0     C99542  -0.359   4.139   5.144  0.1921 -0.8501  0.8935
  755MOL0     C99543  -0.277   4.241   5.064  1.1667  0.1989  0.4743
  755MOL0     C99544  -0.126   4.252   5.090  1.0574  0.1090  0.2863
  755MOL0     N99545  -0.045   4.129   5.055  0.6935  0.6636  0.3642
  755MOL0     C99546  -0.001   4.087   4.922 -0.1139  0.2407  0.5933
  755MOL0     C99547   0.028   3.961   4.944 -0.3199 -0.1485  0.0166
  755MOL0     C99548   0.029   3.845   4.841 -0.6297  0.8431  0.9407
  755MOL0     C99549  -0.084   3.842   4.742 -0.1906 -0.2376  0.5540
  755MOL0     C99550  -0.076   3.712   4.662 -0.2864 -0.2765 -0.3687
  755MOL0     C99551   0.042   3.693   4.570 -0.5188 -0.7326 -0.1901
  755MOL0     O99552   0.066   3.549   4.565 -0.0173 -0.7641  0.5804
  755MOL0     C99553   0.030   3.485   4.445  0.1089 -0.9980 -0.2995
  755MOL0     C99554   0.111   3.404   4.376  0.1149 -0.2595  0.0349
  755MOL0     C99555   0.080   3.352   4.243  0.0730  0.5109  0.3117
  755MOL0     C99556  -0.042   3.386   4.184 -1.4448  0.5841  0.0713
  755MOL0     C99557  -0.060   3.344   4.043  0.0353  0.5717  0.4460
  755MOL0     O99558   0.041   3.270   3.980  0.8556 -0.2281 -0.1378
  755MOL0     C99559   0.015   3.225   3.855 -0.6027  0.1784  0.4382
  755MOL0     C99560   0.124   3.203   3.775 -0.4082 -0.0726  0.1941
  755MOL0     C99561   0.125   3.147   3.645 -0.1975  0.8067 -0.4424
  755MOL0     C99562  -0.001   3.121   3.593  0.3012  0.1492  0.0804
  755MOL0     O99563  -0.024   3.064   3.465 -0.6321  0.4236  0.7750
  755MOL0     C99564   0.090   3.015   3.382 -0.1257  0.0135  0.0689
  755MOL0     C99565   0.143   2.881   3.442  0.2004 -0.6430  0.6446
  755MOL0     C99566   0.032   2.781   3.446 -0.0186 -0.7793  1.1686
  755MOL0     C99567   0.091   2.646   3.478  0.7280  0.0821  0.2878
  755MOL0     C99568  -0.013   2.532   3.479 -0.0345  0.3393  0.3552
  755MOL0     C99569  -0.037   2.489   3.337 -0.7898  0.0213  0.7132
  755MOL0     C99570  -0.141   2.377   3.346 -0.6390  0.1546  0.0681
  755MOL0     C99571  -0.182   2.342   3.203 -0.5307  0.0391  0.6276
  755MOL0    Cl99572  -0.325   2.217   3.223 -0.5093  0.1875  0.0056
  755MOL0     C99573  -0.117   3.149   3.675 -0.0878 -0.2502 -0.3497
  755MOL0     C99574  -0.110   3.198   3.803 -0.2516 -0.1917  0.3020
  755MOL0     O99575  -0.162   3.390   3.990 -0.1308 -0.8985 -0.7037
  755MOL0     C99576  -0.142   3.446   4.270 -0.2108  0.0699  0.3186
  755MOL0     C99577  -0.099   3.498   4.394  0.3070  0.6118  0.6917
  755MOL0     N99578   0.031   3.941   5.079  1.0258 -0.6440 -0.6884
  755MOL0     N99579  -0.007   4.042   5.148  0.2169 -0.9488 -0.8915
  755MOL0     C99580  -0.139   4.161   6.015  1.0762  0.8555  0.0318
  755MOL0     C99581  -0.088   4.169   6.143 -1.1406  0.5637  0.2797
  755MOL0     C99582   0.071   4.107   6.532 -0.2698  0.7148  0.6129
  755MOL0     C99583   0.051   4.188   6.641 -0.2511 -0.6165 -0.1227
  755MOL0     C99584   0.073   4.133   6.774 -0.4553 -1.2213 -0.3953
  755MOL0     C99585   0.115   4.009   6.797 -0.4449 -0.1950 -0.3927
  755MOL0     O99586   0.148   3.957   6.920 -0.4245  0.0123  0.6325
  755MOL0     C99587   0.120   4.030   7.037 -0.9075 -1.0933  0.0558
  755MOL0     C99588   0.107   3.932   7.152  0.7881 -0.3510  0.4562
  755MOL0     C99589   0.109   3.990   7.291  0.1589 -1.0571  0.9425
  755MOL0     C99590   0.002   3.933   7.380  0.6775  0.1601 -0.4069
  755MOL0     C99591   0.026   3.806   7.447 -1.6170  0.5110  0.0942
  755MOL0     C99592   0.067   3.704   7.501  0.8704  0.6931  0.2544
  755MOL0     C99593   0.114   3.922   6.690  0.4100 -0.7544 -0.0798
  755MOL0     C99594   0.096   3.978   6.562  0.2952 -0.3095 -0.1276
  755MOL0     H99595   0.222   4.030   6.075  0.5322 -2.0736 -3.5911
  755MOL0     H99596   0.123   4.060   5.833 -0.1159  3.3071 -1.2869
  755MOL0     H99597  -0.319   4.123   5.803 -1.0796 -4.8434  3.6192
  755MOL0     H99598  -0.252   3.966   5.778 -2.0378 -0.8774 -3.7636
  755MOL0     H99599  -0.380   4.027   5.591  0.9670 -3.1028 -1.3334
  755MOL0     H99600  -0.205   3.987   5.554 -0.1343 -0.1528 -0.2563
  755MOL0     H99601  -0.167   4.237   5.526  0.1445 -0.4152 -2.0015
  755MOL0     H99602  -0.338   4.266   5.591 -3.4645 -1.6713 -1.5370
  755MOL0     H99603  -0.447   4.214   5.403  0.6892 -1.8597  2.7055
  755MOL0     H99604  -0.296   4.305   5.345  1.7002 -0.6058  0.8663
  755MOL0     H99605  -0.340   4.002   5.321  5.7597 -1.5038  0.8296
  755MOL0     H99606  -0.204   4.072   5.291  0.0311  0.9865 -1.0081
  755MOL0     H99607  -0.460   4.179   5.159  1.2513  1.1670  3.6668
  755MOL0     H99608  -0.361   4.045   5.090 -0.0219  1.1127 -2.8330
  755MOL0     H99609  -0.296   4.224   4.958  2.4901 -1.1799  0.4220
  755MOL0     H99610  -0.310   4.340   5.095  4.8939  2.3317 -1.6581
  755MOL0     H99611  -0.096   4.273   5.193  2.0041  2.9329 -0.4908
  755MOL0     H99612  -0.097   4.335   5.026 -0.1112 -2.4777 -4.0177
  755MOL0     H99613  -0.017   4.138   4.828 -2.7338  2.7756  2.2330
  755MOL0     H99614   0.044   3.754   4.899 -2.1358  1.2298  1.9772
  755MOL0     H99615   0.123   3.863   4.787  0.4438 -3.6283  0.9003
  755MOL0     H99616  -0.070   3.930   4.679 -1.0056 -1.0497 -0.8296
  755MOL0     H99617  -0.183   3.863   4.783 -1.4975 -2.4523 -1.1673
  755MOL0     H99618  -0.071   3.630   4.734 -0.8851 -1.2811 -1.4485
  755MOL0     H99619  -0.170   3.703   4.607 -0.1238  1.3139 -0.9698
  755MOL0     H99620   0.137   3.726   4.614 -2.8831  3.3650  2.4950
  755MOL0     H99621   0.015   3.735   4.473 -0.6525 -1.0354 -0.2853
  755MOL0     H99622   0.207   3.384   4.422 -0.6556 -2.6888  0.7285
  755MOL0     H99623   0.157   3.289   4.199 -2.9150 -5.0912  2.1618
  755MOL0     H99624   0.218   3.240   3.814 -0.6154 -1.2824  1.9793
  755MOL0     H99625   0.218   3.137   3.589 -0.8638  1.1802 -1.6495
  755MOL0     H99626   0.165   3.095   3.381  1.6734 -1.4453  3.1257
  755MOL0     H99627   0.066   3.003   3.276  1.3633  1.4027 -0.4623
  755MOL0     H99628   0.191   2.886   3.541 -2.6316  0.6606  2.0561
  755MOL0     H99629   0.215   2.850   3.366 -1.9812  1.0751 -2.3381
  755MOL0     H99630  -0.008   2.767   3.345 -0.6430 -2.9922  1.6508
  755MOL0     H99631  -0.050   2.817   3.509 -1.2331 -0.5170 -0.5035
  755MOL0     H99632   0.162   2.610   3.402  0.8552  1.1791 -0.1374
  755MOL0     H99633   0.149   2.647   3.570  1.8036  0.1876 -0.3715
  755MOL0     H99634  -0.107   2.574   3.517 -0.3676  1.3768 -1.5058
  755MOL0     H99635   0.026   2.454   3.545  1.4723  0.3674 -0.4521
  755MOL0     H99636   0.055   2.441   3.302 -0.8508 -1.5488  2.5507
  755MOL0     H99637  -0.069   2.572   3.273  0.4703  0.3896  0.5388
  755MOL0     H99638  -0.086   2.293   3.390  0.9157 -1.1463 -3.9235
  755MOL0     H99639  -0.233   2.412   3.394 -1.0142  2.8048 -2.3511
  755MOL0     H99640  -0.099   2.309   3.141 -1.6827 -0.0086 -0.9503
  755MOL0     H99641  -0.215   2.430   3.148  0.9376  0.9252  1.1327
  755MOL0     H99642  -0.218   3.141   3.638  0.4459 -0.9150 -1.7380
  755MOL0     H99643  -0.201   3.197   3.862 -1.1229  0.4044 -1.0022
  755MOL0     H99644  -0.241   3.467   4.228  0.1335 -1.3859 -1.3405
  755MOL0     H99645  -0.164   3.562   4.452 -0.0374  1.3500 -0.4924
  755MOL0     H99646  -0.243   4.193   6.012  1.0373  0.7841 -3.5931
  755MOL0     H99647  -0.141   4.217   6.224 -2.2205 -1.3809  0.7741
  755MOL0     H99648   0.012   4.289   6.632 -1.8143 -0.8282  2.8795
  755MOL0     H99649   0.054   4.204   6.853 -1.4536 -3.0304  1.0760
  755MOL0     H99650   0.034   4.098   7.038 -0.6727 -0.7415  2.4348
  755MOL0     H99651   0.208   4.086   7.070 -0.8503  0.1944 -2.1250
  755MOL0     H99652   0.022   3.865   7.141  1.2779 -0.8254 -0.6023
  755MOL0     H99653   0.189   3.859   7.149 -0.1185 -1.4854  1.8360
  755MOL0     H99654   0.086   4.096   7.279  1.3941 -0.7248  1.3528
  755MOL0     H99655   0.214   3.982   7.321  0.2409  1.4487  1.5763
  755MOL0     H99656  -0.025   4.008   7.455  0.7879  0.4783 -0.6820
  755MOL0     H99657  -0.091   3.912   7.327 -0.2289 -1.5327  1.6869
  755MOL0     H99658   0.106   3.620   7.554 -0.3487  2.1848  3.8886
  755MOL0     H99659   0.138   3.818   6.709 -0.2712 -0.3673  3.4888
  755MOL0     H99660   0.099   3.908   6.479  1.7978 -0.4758  0.0412
  756MOL0     O99661   1.243   0.598   3.073  0.0494  0.5365  0.1395
  756MOL0     C99662   1.337   0.659   3.031  0.7014  0.4210  0.6232
  756MOL0     O99663   1.348   0.797   3.022  0.5995  0.1847  0.1055
  756MOL0     C99664   1.242   0.878   3.060  0.6617 -0.0921  2.0179
  756MOL0     C99665   1.223   0.995   3.001  0.2400  0.6286  0.4604
  756MOL0     C99666   1.130   1.099   3.040 -0.9501  0.5456  0.1262
  756MOL0     C99667   1.041   1.071   3.143 -0.5664  0.7550 -0.1489
  756MOL0     O99668   0.943   1.154   3.181  0.8236 -0.0281 -0.2507
  756MOL0     C99669   0.935   1.185   3.326  0.3998 -0.3438  0.5194
  756MOL0     C99670   0.819   1.101   3.393 -0.7725 -0.0328  0.7892
  756MOL0     C99671   0.820   1.101   3.544 -0.2083 -0.3623  0.4881
  756MOL0     C99672   0.807   1.253   3.593 -0.4570 -0.3423  0.2991
  756MOL0     C99673   0.820   1.256   3.742 -0.0246 -0.2671 -0.1307
  756MOL0     C99674   0.798   1.391   3.808 -0.4380  0.1403  0.0432
  756MOL0     C99675   0.655   1.464   3.796 -0.6147  0.0549  0.5251
  756MOL0     C99676   0.548   1.395   3.876 -0.2189 -0.1622 -0.1405
  756MOL0     N99677   0.420   1.459   3.835 -0.5661 -0.5415  0.1623
  756MOL0     C99678   0.300   1.397   3.814  0.3093 -0.9028 -0.8828
  756MOL0     C99679   0.207   1.488   3.779 -0.2155 -0.1183  0.4007
  756MOL0     C99680   0.061   1.451   3.755 -0.2123 -0.2088  0.1292
  756MOL0     C99681   0.032   1.381   3.624 -0.1414  0.5420 -0.2809
  756MOL0     C99682  -0.001   1.495   3.509 -0.2336 -0.2087  0.7584
  756MOL0     C99683  -0.041   1.435   3.379 -0.2194 -0.5507  0.6065
  756MOL0     O99684  -0.155   1.350   3.394  0.5055  0.3706  0.0633
  756MOL0     C99685  -0.280   1.401   3.389 -0.1513 -0.3151  0.9367
  756MOL0     C99686  -0.323   1.511   3.313  0.4129 -0.0648  1.4092
  756MOL0     C99687  -0.461   1.546   3.303 -0.1304 -0.5793 -0.5386
  756MOL0     C99688  -0.550   1.478   3.395  0.1751 -0.6606 -0.1193
  756MOL0     C99689  -0.691   1.512   3.400  0.5398 -0.4705  0.5884
  756MOL0     O99690  -0.734   1.588   3.295  0.3674 -0.8006 -0.2786
  756MOL0     C99691  -0.867   1.629   3.288 -0.9398  0.6277 -0.1859
  756MOL0     C99692  -0.973   1.545   3.300 -0.3739 -0.7639  1.2008
  756MOL0     C99693  -1.098   1.601   3.302 -0.5969 -0.0080  0.1291
  756MOL0     C99694  -1.126   1.734   3.274  0.4162 -0.0824  0.4954
  756MOL0     O99695  -1.254   1.770   3.253 -0.1052  0.2619 -0.5090
  756MOL0     C99696  -1.319   1.797   3.381 -1.3786 -0.7278  0.1604
  756MOL0     C99697  -1.308   1.944   3.414 -0.3189  0.2757  1.0718
  756MOL0     C99698  -1.183   1.993   3.476 -0.2052 -1.1699  0.0880
  756MOL0     C99699  -1.149   1.931   3.618 -0.0190  0.0629  0.8093
  756MOL0     C99700  -1.008   1.978   3.662  0.7994 -0.9740 -0.4099
  756MOL0     C99701  -0.898   1.946   3.567  0.7655  0.5451  1.0834
  756MOL0     C99702  -0.771   1.964   3.652 -0.8349 -1.1478 -0.4659
  756MOL0     C99703  -0.640   2.000   3.590 -0.9083 -0.4700 -0.1490
  756MOL0    Cl99704  -0.572   1.875   3.463 -0.1508  0.6842  0.2989
  756MOL0     C99705  -1.014   1.824   3.234 -0.4948  0.8420 -0.4926
  756MOL0     C99706  -0.885   1.770   3.259  0.2099  0.0506 -0.6504
  756MOL0     O99707  -0.760   1.475   3.493  0.1186 -0.1817  0.8872
  756MOL0     C99708  -0.494   1.373   3.475  0.4152 -0.1035 -1.5106
  756MOL0     C99709  -0.360   1.340   3.470 -1.0450 -0.1521 -0.3405
  756MOL0     N99710   0.271   1.613   3.768 -0.3526  0.6429 -0.6950
  756MOL0     N99711   0.396   1.593   3.804 -0.7114 -0.2687  0.4055
  756MOL0     C99712   1.061   0.947   3.207  1.0745 -1.3622 -0.3330
  756MOL0     C99713   1.156   0.853   3.160 -0.0016 -0.3514  0.2208
  756MOL0     C99714   1.457   0.576   2.998  0.6029  0.0139 -0.1004
  756MOL0     C99715   1.462   0.438   2.988 -0.2057  0.0297  0.4515
  756MOL0     C99716   1.578   0.362   2.957  0.7635 -0.4279 -0.5460
  756MOL0     C99717   1.693   0.434   2.921 -1.6148  0.4350  0.6860
  756MOL0     O99718   1.817   0.383   2.895  0.2695  0.2620 -0.3470
  756MOL0     C99719   1.847   0.244   2.918 -0.3036 -0.4785  0.1736
  756MOL0     C99720   1.998   0.237   2.943 -0.3856  1.0087  0.1584
  756MOL0     C99721   2.041   0.329   3.058  0.9886  0.5347 -0.3535
  756MOL0     C99722   2.195   0.324   3.096 -0.9563  0.4161 -0.2173
  756MOL0     C99723   2.284   0.359   2.979 -0.1760 -0.5188 -0.7691
  756MOL0     C99724   2.359   0.394   2.889 -1.6507 -0.4452 -0.0287
  756MOL0     C99725   1.689   0.574   2.918  0.1664 -0.0252  0.2589
  756MOL0     C99726   1.569   0.641   2.945  0.9859 -0.3576  0.1018
  756MOL0     H99727   1.294   1.023   2.924  0.5893 -2.6795 -0.5469
  756MOL0     H99728   1.131   1.195   2.989 -2.2056  1.3671  1.5529
  756MOL0     H99729   0.910   1.290   3.340  0.0010 -0.5017  1.0035
  756MOL0     H99730   1.028   1.171   3.382  2.3749  1.4221 -2.1141
  756MOL0     H99731   0.826   0.999   3.356 -2.8564  1.3833 -4.2527
  756MOL0     H99732   0.727   1.128   3.342 -1.3077 -1.5123  0.9484
  756MOL0     H99733   0.910   1.053   3.582 -0.4204  0.3102  1.8888
  756MOL0     H99734   0.727   1.050   3.573 -1.1917 -0.4790 -2.4986
  756MOL0     H99735   0.878   1.322   3.545  1.1885 -1.7467  0.6081
  756MOL0     H99736   0.709   1.292   3.565  0.6935  2.6476  0.0023
  756MOL0     H99737   0.922   1.230   3.773  0.3941 -0.3318 -1.4962
  756MOL0     H99738   0.753   1.186   3.793  0.0124 -2.7595 -3.1983
  756MOL0     H99739   0.876   1.450   3.759  1.3701 -3.1280 -1.2802
  756MOL0     H99740   0.804   1.388   3.917  1.2295 -0.3713 -0.0373
  756MOL0     H99741   0.680   1.563   3.836 -1.0264  1.1580 -1.7772
  756MOL0     H99742   0.630   1.480   3.691  2.2063  1.4289 -0.0457
  756MOL0     H99743   0.566   1.393   3.984 -1.6232 -0.8827  0.1028
  756MOL0     H99744   0.550   1.291   3.843  0.5776 -0.6229  1.2351
  756MOL0     H99745   0.273   1.292   3.815  0.5245 -0.9883 -2.2981
  756MOL0     H99746   0.002   1.542   3.767  1.7960  1.1588  0.1423
  756MOL0     H99747   0.038   1.383   3.837  4.1061  0.1184  1.8783
  756MOL0     H99748  -0.057   1.319   3.633  0.6898 -0.3678  2.9604
  756MOL0     H99749   0.118   1.317   3.599 -1.2303 -0.7036 -0.9640
  756MOL0     H99750  -0.084   1.562   3.531  1.0560  3.2640 -3.4450
  756MOL0     H99751   0.096   1.544   3.493 -0.7526  1.8216  3.2103
  756MOL0     H99752   0.029   1.367   3.328  0.3301  1.8674 -2.1337
  756MOL0     H99753  -0.049   1.511   3.301 -0.0141  0.0514  1.1606
  756MOL0     H99754  -0.262   1.573   3.248 -0.6182  0.9895  1.4149
  756MOL0     H99755  -0.489   1.632   3.243 -2.2738  0.2032  1.4844
  756MOL0     H99756  -0.973   1.439   3.323  1.5579 -1.0393  0.2069
  756MOL0     H99757  -1.178   1.530   3.322 -1.3635  0.9984  0.7209
  756MOL0     H99758  -1.282   1.739   3.465 -0.9269  1.1122  1.3018
  756MOL0     H99759  -1.426   1.774   3.370 -1.5733  0.3808 -0.5335
  756MOL0     H99760  -1.388   1.958   3.486 -0.5338  1.8157  0.5835
  756MOL0     H99761  -1.349   2.008   3.335  2.5346  1.4043  0.3662
  756MOL0     H99762  -1.187   2.101   3.492 -2.9597 -1.3043  0.9552
  756MOL0     H99763  -1.101   1.974   3.406  0.5449 -0.2148  0.6862
  756MOL0     H99764  -1.233   1.955   3.684 -1.9146 -0.5783 -1.2260
  756MOL0     H99765  -1.167   1.823   3.611 -3.1182  0.5841 -1.3619
  756MOL0     H99766  -0.994   1.933   3.761 -0.6077  3.6145  2.1297
  756MOL0     H99767  -1.003   2.087   3.669 -1.1123 -0.8754 -0.0666
  756MOL0     H99768  -0.885   2.013   3.482  2.1388 -0.2093  0.6708
  756MOL0     H99769  -0.904   1.847   3.522  0.0686  0.5769  1.0861
  756MOL0     H99770  -0.776   2.017   3.748  4.0129  0.9322 -1.0213
  756MOL0     H99771  -0.734   1.867   3.685  1.7557  1.6846  7.5692
  756MOL0     H99772  -0.555   2.003   3.660 -0.0996  0.4750 -1.1327
  756MOL0     H99773  -0.642   2.096   3.538 -0.6231 -0.5613 -0.3335
  756MOL0     H99774  -1.037   1.928   3.217 -2.4450  0.8510  1.6488
  756MOL0     H99775  -0.800   1.837   3.266 -0.2513  0.4822  2.8267
  756MOL0     H99776  -0.555   1.312   3.541  0.9993  0.7709 -0.1153
  756MOL0     H99777  -0.306   1.257   3.513  1.9476  0.9860 -1.5914
  756MOL0     H99778   0.999   0.908   3.288  2.8187 -1.3393  1.0615
  756MOL0     H99779   1.158   0.763   3.220 -2.7399 -0.4367  0.3413
  756MOL0     H99780   1.378   0.379   3.023 -0.1515 -0.3602 -0.0672
  756MOL0     H99781   1.578   0.254   2.953  0.2632 -0.3904 -1.9271
  756MOL0     H99782   1.811   0.182   2.835 -1.4635 -1.5947  1.4567
  756MOL0     H99783   1.785   0.206   3.000 -0.0696  0.8949  1.0238
  756MOL0     H99784   2.022   0.133   2.969  1.5366  1.2555 -0.4009
  756MOL0     H99785   2.059   0.273   2.859 -3.3975  1.3925 -2.0140
  756MOL0     H99786   1.978   0.316   3.146  0.1706  1.7422 -0.7278
  756MOL0     H99787   2.012   0.431   3.033 -3.9409 -1.0751 -2.5152
  756MOL0     H99788   2.211   0.401   3.172  0.2878  1.8008 -1.7920
  756MOL0     H99789   2.231   0.234   3.146 -0.1483 -0.4844 -2.3242
  756MOL0     H99790   2.432   0.422   2.816  0.6858  0.5646  2.5265
  756MOL0     H99791   1.777   0.626   2.881 -1.3443  1.4900 -1.4458
  756MOL0     H99792   1.575   0.750   2.948  4.0872 -0.3274 -1.8757
  757MOL0     O99793   0.294   6.573   9.227 -0.3870  0.7124 -0.0298
  757MOL0     C99794   0.351   6.472   9.192 -0.0829  0.3684 -0.0466
  757MOL0     O99795   0.291   6.374   9.110 -0.0523 -0.0837  0.5670
  757MOL0     C99796   0.177   6.398   9.041  0.2662 -0.2727 -0.4313
  757MOL0     C99797   0.057   6.422   9.103  0.1653 -0.8329  0.2806
  757MOL0     C99798  -0.065   6.409   9.044 -1.2280  0.4167  1.1916
  757MOL0     C99799  -0.067   6.371   8.913  0.4779 -0.1870 -0.1411
  757MOL0     O99800  -0.198   6.381   8.861  0.5877  0.2605 -1.0272
  757MOL0     C99801  -0.220   6.337   8.731 -0.1412 -0.7969 -0.3345
  757MOL0     C99802  -0.360   6.294   8.693  1.0565  0.6387  0.3190
  757MOL0     C99803  -0.448   6.417   8.680  0.5766  0.4935 -0.0791
  757MOL0     C99804  -0.597   6.393   8.658 -0.4231 -0.6104 -0.6295
  757MOL0     C99805  -0.673   6.524   8.642  0.4510 -0.2227  0.9834
  757MOL0     C99806  -0.656   6.590   8.504  0.0228 -0.3042  0.2193
  757MOL0     C99807  -0.769   6.694   8.485  0.6193 -0.6365  0.6165
  757MOL0     C99808  -0.769   6.764   8.347  0.4358 -0.1443 -0.4286
  757MOL0     N99809  -0.892   6.841   8.327 -0.0578 -0.3121 -0.0099
  757MOL0     C99810  -0.908   6.920   8.214  0.2746 -0.8796  0.1490
  757MOL0     C99811  -1.041   6.959   8.214  0.1948  0.0833  0.3226
  757MOL0     C99812  -1.115   7.018   8.101  0.4497 -0.2569  0.1242
  757MOL0     C99813  -1.134   6.926   7.979 -0.1829 -0.7352  0.3187
  757MOL0     C99814  -1.256   6.831   7.990 -0.0343 -0.5648 -0.1213
  757MOL0     C99815  -1.284   6.759   7.864 -0.0765 -0.0570  0.7056
  757MOL0     O99816  -1.163   6.702   7.807 -0.3690 -0.1367  0.6539
  757MOL0     C99817  -1.131   6.734   7.684 -0.5110  0.0082 -0.5197
  757MOL0     C99818  -1.042   6.841   7.654  0.0613 -0.1187  0.0464
  757MOL0     C99819  -0.990   6.859   7.525  0.0128  0.1468 -0.7844
  757MOL0     C99820  -1.047   6.796   7.409  0.3577  0.1505  0.0623
  757MOL0     C99821  -0.983   6.820   7.283  0.6779 -0.2029 -0.0030
  757MOL0     O99822  -0.906   6.936   7.269 -0.1073  0.0239  0.3777
  757MOL0     C99823  -0.793   6.930   7.195 -0.2458 -1.0375 -0.2070
  757MOL0     C99824  -0.671   6.941   7.258 -0.0003 -0.1548  0.0118
  757MOL0     C99825  -0.548   6.935   7.187 -0.2736 -0.5497  0.2542
  757MOL0     C99826  -0.549   6.934   7.042  0.5201  0.0796 -0.3370
  757MOL0     O99827  -0.436   6.933   6.967 -0.1771  0.0207  0.2899
  757MOL0     C99828  -0.311   6.974   7.015 -0.2973 -0.1371 -0.5501
  757MOL0     C99829  -0.231   7.009   6.885  0.2852  0.2422  0.5294
  757MOL0     C99830  -0.087   7.031   6.931  0.3023 -0.1014 -0.4233
  757MOL0     C99831  -0.000   7.076   6.806  0.1079 -0.3489  0.3374
  757MOL0     C99832   0.136   7.100   6.854 -0.1054  1.0235 -0.6874
  757MOL0     C99833   0.227   6.975   6.843  0.4334  0.5506  0.4917
  757MOL0     C99834   0.361   6.987   6.932  0.0705  0.0702  0.0334
  757MOL0     C99835   0.443   7.112   6.894  0.1489  0.2032  0.0105
  757MOL0    Cl99836   0.499   7.108   6.716 -0.2051 -0.0098  0.0925
  757MOL0     C99837  -0.669   6.913   6.977  0.0009  0.1685  0.6982
  757MOL0     C99838  -0.791   6.911   7.051 -0.2232 -0.0997  0.1537
  757MOL0     O99839  -0.973   6.727   7.210  0.0409 -0.7079  0.6037
  757MOL0     C99840  -1.142   6.697   7.432  0.0858 -0.1010  0.0002
  757MOL0     C99841  -1.172   6.658   7.565 -0.8805 -1.1779 -0.7156
  757MOL0     N99842  -1.104   6.893   8.318 -0.5815  0.6516  0.1021
  757MOL0     N99843  -1.014   6.830   8.396 -0.5665 -0.0912  0.1612
  757MOL0     C99844   0.044   6.349   8.841  0.0537  0.6607 -0.5894
  757MOL0     C99845   0.166   6.365   8.906 -0.0883  0.2824 -0.6680
  757MOL0     C99846   0.489   6.448   9.236  0.9843  0.0890 -0.0984
  757MOL0     C99847   0.537   6.517   9.342  0.9484 -0.2139  0.9786
  757MOL0     C99848   0.675   6.515   9.372 -0.7630 -0.2369 -0.3092
  757MOL0     C99849   0.760   6.431   9.304 -0.0737 -0.7773  0.1548
  757MOL0     O99850   0.884   6.425   9.348  0.1182  0.2663  0.0339
  757MOL0     C99851   0.998   6.369   9.277 -0.3690  0.5758 -0.0467
  757MOL0     C99852   1.118   6.385   9.380  0.1878 -0.3225  0.2387
  757MOL0     C99853   1.259   6.368   9.320 -0.1542  0.0166 -0.1061
  757MOL0     C99854   1.372   6.390   9.423 -0.3400  0.0646 -0.9447
  757MOL0     C99855   1.501   6.336   9.378 -1.0289 -0.0490 -0.1246
  757MOL0     C99856   1.610   6.295   9.347 -0.7123 -0.0452 -0.1804
  757MOL0     C99857   0.706   6.357   9.203  0.2742 -0.4203 -1.0819
  757MOL0     C99858   0.567   6.367   9.162 -0.4080  0.2041  0.5615
  757MOL0     H99859   0.060   6.453   9.207  0.4903  2.7749 -0.6679
  757MOL0     H99860  -0.156   6.441   9.094 -4.7832 -1.5761 -3.2364
  757MOL0     H99861  -0.162   6.245   8.720 -1.0583 -1.2485 -1.6485
  757MOL0     H99862  -0.191   6.400   8.647  0.4091 -0.0113  0.4264
  757MOL0     H99863  -0.411   6.240   8.773 -0.8895 -0.0684 -1.3492
  757MOL0     H99864  -0.348   6.229   8.606  1.6210 -0.2739  1.0554
  757MOL0     H99865  -0.413   6.494   8.611 -2.8517  3.0697  0.8204
  757MOL0     H99866  -0.443   6.469   8.776 -1.2476  2.4423 -0.9605
  757MOL0     H99867  -0.612   6.320   8.578  0.3283 -0.9177 -0.4948
  757MOL0     H99868  -0.641   6.347   8.747 -1.6044 -0.1940 -0.9792
  757MOL0     H99869  -0.638   6.605   8.707  1.4934  0.5649 -0.4773
  757MOL0     H99870  -0.777   6.506   8.668  0.1985 -1.5348 -0.7952
  757MOL0     H99871  -0.682   6.514   8.429 -0.1362  0.9450 -1.0305
  757MOL0     H99872  -0.556   6.633   8.493 -0.7604  1.7130  0.5994
  757MOL0     H99873  -0.867   6.646   8.489  0.3255 -0.2458 -1.0767
  757MOL0     H99874  -0.763   6.760   8.572 -1.7109  0.4207  0.0529
  757MOL0     H99875  -0.754   6.692   8.265 -1.5109 -2.0301  0.7705
  757MOL0     H99876  -0.686   6.834   8.364 -1.1257  1.2489  2.1874
  757MOL0     H99877  -0.829   6.964   8.154 -0.1584  1.7193  1.3410
  757MOL0     H99878  -1.053   7.106   8.081 -0.2142  1.1473  3.5632
  757MOL0     H99879  -1.208   7.058   8.142 -0.6644 -0.7997 -1.7504
  757MOL0     H99880  -1.041   6.872   7.965  0.8205  1.0634 -0.2129
  757MOL0     H99881  -1.152   6.985   7.889 -2.8678  0.5002  1.5214
  757MOL0     H99882  -1.232   6.761   8.071  0.7924  0.4180  0.5124
  757MOL0     H99883  -1.353   6.875   8.016 -0.4816  0.5163 -3.1899
  757MOL0     H99884  -1.344   6.816   7.793  3.2018  2.0674 -0.6110
  757MOL0     H99885  -1.338   6.672   7.902  1.7545 -1.1410  0.9601
  757MOL0     H99886  -1.015   6.913   7.731  1.1076  0.1146 -0.5172
  757MOL0     H99887  -0.894   6.909   7.531  0.3286 -0.6248  2.8469
  757MOL0     H99888  -0.666   6.952   7.366 -2.4491  0.5767  0.1271
  757MOL0     H99889  -0.454   6.945   7.242 -1.5138 -0.5397  2.4823
  757MOL0     H99890  -0.262   6.898   7.077  3.9038  2.5054 -0.2053
  757MOL0     H99891  -0.313   7.066   7.074 -0.3390 -0.2457 -0.3813
  757MOL0     H99892  -0.261   7.096   6.826  3.8552 -1.0317 -3.7429
  757MOL0     H99893  -0.231   6.921   6.821 -1.6173 -0.6434  1.6529
  757MOL0     H99894  -0.039   6.940   6.967 -0.1045 -1.3697 -2.8878
  757MOL0     H99895  -0.098   7.110   7.007 -0.9917 -0.2927 -0.3876
  757MOL0     H99896   0.001   6.999   6.728 -0.7205 -0.7328  0.6842
  757MOL0     H99897  -0.025   7.171   6.758  1.5908  0.6913  1.5422
  757MOL0     H99898   0.130   7.132   6.959 -1.4184 -3.6789  0.9333
  757MOL0     H99899   0.178   7.180   6.792  1.9576  0.7870  0.3048
  757MOL0     H99900   0.243   6.952   6.737  1.9613  1.3802  0.5133
  757MOL0     H99901   0.163   6.892   6.873  0.0999  0.7391  0.2971
  757MOL0     H99902   0.340   6.991   7.040 -0.3005  0.0673 -0.0368
  757MOL0     H99903   0.408   6.889   6.920 -0.0989  0.0987 -0.9431
  757MOL0     H99904   0.532   7.101   6.958 -0.7260 -4.0284  0.7819
  757MOL0     H99905   0.413   7.213   6.924  2.7581  0.4039  2.4024
  757MOL0     H99906  -0.685   6.908   6.870  0.4030 -0.0612  0.6488
  757MOL0     H99907  -0.886   6.898   7.001  0.9093 -2.2141 -1.6343
  757MOL0     H99908  -1.200   6.656   7.350  1.5105 -0.0985 -1.0600
  757MOL0     H99909  -1.235   6.571   7.579 -0.7526 -1.5681 -2.3137
  757MOL0     H99910   0.042   6.321   8.736 -0.5722  0.5930 -0.5658
  757MOL0     H99911   0.258   6.346   8.851 -0.3206 -0.7433 -0.7081
  757MOL0     H99912   0.465   6.582   9.391 -1.9056 -0.2830 -2.6983
  757MOL0     H99913   0.703   6.579   9.455  2.5166 -3.7702  1.6145
  757MOL0     H99914   1.010   6.410   9.176  1.2904  3.8411  1.3173
  757MOL0     H99915   0.971   6.264   9.262 -1.2212  0.8067 -0.1571
  757MOL0     H99916   1.123   6.485   9.423 -0.0179 -0.7481  1.2754
  757MOL0     H99917   1.103   6.308   9.456 -0.2029 -0.4395  0.0461
  757MOL0     H99918   1.284   6.430   9.233  0.3145 -2.9147 -2.1845
  757MOL0     H99919   1.254   6.266   9.283  1.7311  0.3239 -1.3558
  757MOL0     H99920   1.383   6.498   9.432  0.5802 -0.0415 -0.6143
  757MOL0     H99921   1.339   6.353   9.521 -1.2978  4.1971  0.4976
  757MOL0     H99922   1.713   6.269   9.335 -0.3007  0.9073  1.1114
  757MOL0     H99923   0.766   6.280   9.156  1.7375  1.8198 -3.1111
  757MOL0     H99924   0.534   6.301   9.082  1.7408 -1.1764  0.7389
  758MOL0     O99925   1.123   3.992   9.731 -1.5090 -0.4057 -0.5302
  758MOL0     C99926   1.189   3.892   9.779  0.1823  0.5918  0.9842
  758MOL0     O99927   1.214   3.882   9.906 -0.6040  0.4180  0.4003
  758MOL0     C99928   1.132   3.946  10.001  0.1977  0.0182 -1.0504
  758MOL0     C99929   0.998   3.906  10.022 -0.1426 -0.8080 -0.1395
  758MOL0     C99930   0.928   3.955  10.134  0.1775 -0.7045 -0.8774
  758MOL0     C99931   0.995   4.015  10.244  0.8234  0.2556  0.7975
  758MOL0     O99932   0.928   4.080  10.343  1.2804  0.1613  0.2411
  758MOL0     C99933   0.788   4.050  10.363  0.0770  0.1865 -0.1848
  758MOL0     C99934   0.745   4.078  10.508 -0.4281  0.1083 -0.8977
  758MOL0     C99935   0.808   3.986  10.610  0.0055 -0.1892  0.3196
  758MOL0     C99936   0.773   4.037  10.748 -0.1102  0.4785  0.7724
  758MOL0     C99937   0.790   3.924  10.848  0.8667 -0.6743  0.1691
  758MOL0     C99938   0.925   3.847  10.835  0.5208  0.5299  0.0800
  758MOL0     C99939   0.950   3.744  10.947 -0.8770  0.0955  0.6176
  758MOL0     C99940   1.070   3.649  10.928  1.0881  0.0327  0.3855
  758MOL0     N99941   1.042   3.540  10.836 -0.0971  0.1712  0.2061
  758MOL0     C99942   0.945   3.454  10.843  0.2515  0.6670  0.2251
  758MOL0     C99943   0.964   3.360  10.741  0.2986  0.0927  0.1692
  758MOL0     C99944   0.889   3.240  10.705 -0.2355 -0.1778  0.1239
  758MOL0     C99945   0.963   3.117  10.762 -0.8822  0.5846 -0.1839
  758MOL0     C99946   0.882   2.990  10.715  0.0823  0.3792  0.0927
  758MOL0     C99947   0.920   2.856  10.781  0.4314  0.2965 -0.3664
  758MOL0     O99948   1.054   2.809  10.738 -0.7158 -0.2234 -0.8172
  758MOL0     C99949   1.131   2.732  10.817 -0.3486 -0.1740  0.4142
  758MOL0     C99950   1.271   2.731  10.784 -1.4869 -0.4346  0.1430
  758MOL0     C99951   1.358   2.664  10.862 -0.9088  0.0148 -0.2448
  758MOL0     C99952   1.304   2.595  10.978 -0.5442 -0.5848  0.7267
  758MOL0     C99953   1.391   2.509  11.069  0.4019 -0.2006  1.2496
  758MOL0     O99954   1.531   2.518  11.052  0.0085 -0.6096  0.6052
  758MOL0     C99955   1.609   2.453  11.151 -0.0703 -0.6551  0.8152
  758MOL0     C99956   1.618   2.315  11.163  0.2695  0.3070  0.0602
  758MOL0     C99957   1.718   2.247  11.238  0.0743  0.3881 -0.0534
  758MOL0     C99958   1.801   2.321  11.321  0.5328 -0.6090 -0.0646
  758MOL0     O99959   1.888   2.268  11.414  0.3064 -0.2048 -0.7993
  758MOL0     C99960   1.830   2.223  11.533 -0.4577 -0.5622  0.3051
  758MOL0     C99961   1.759   2.079  11.547 -0.4362 -0.7324  0.3083
  758MOL0     C99962   1.847   1.954  11.503  0.1457 -0.6697  0.2620
  758MOL0     C99963   1.968   1.941  11.589 -0.1573 -0.0526 -0.7009
  758MOL0     C99964   2.056   1.823  11.546 -0.4466 -0.4139  0.8788
  758MOL0     C99965   2.100   1.825  11.404 -0.9220 -0.3539  0.6807
  758MOL0     C99966   2.193   1.702  11.374  0.0218  0.6429 -0.7928
  758MOL0     C99967   2.274   1.719  11.249 -0.9522  0.3111  0.4800
  758MOL0    Cl99968   2.414   1.842  11.258 -0.1956  0.2603 -0.3520
  758MOL0     C99969   1.797   2.466  11.306  0.0067  0.9955 -0.5734
  758MOL0     C99970   1.699   2.530  11.228  0.1635  0.9239  0.0935
  758MOL0     O99971   1.337   2.442  11.156  0.8449  0.2285 -0.6942
  758MOL0     C99972   1.169   2.589  11.010  0.8106 -0.5254  0.7144
  758MOL0     C99973   1.083   2.672  10.937 -0.4549 -0.3378 -0.2701
  758MOL0     N99974   1.080   3.412  10.668  0.3053 -0.5032  0.2428
  758MOL0     N99975   1.126   3.510  10.739  0.5593 -0.2387 -0.1288
  758MOL0     C99976   1.132   4.030  10.229 -0.6321 -0.4221 -0.2625
  758MOL0     C99977   1.192   4.009  10.107 -0.0539 -0.6955 -1.0162
  758MOL0     C99978   1.260   3.802   9.683  0.4515  0.1313  0.5365
  758MOL0     C99979   1.300   3.669   9.721 -0.1049  0.2659  0.0857
  758MOL0     C99980   1.371   3.589   9.630  0.4015  0.6624 -0.2958
  758MOL0     C99981   1.417   3.634   9.507  0.7379 -0.5495 -0.2218
  758MOL0     O99982   1.502   3.572   9.419  0.1149  0.2188  0.0200
  758MOL0     C99983   1.610   3.506   9.488  0.3849  0.2573 -0.3485
  758MOL0     C99984   1.698   3.433   9.392 -0.3125  0.2106  0.2472
  758MOL0     C99985   1.770   3.314   9.473 -0.6172 -1.5096  0.0559
  758MOL0     C99986   1.797   3.200   9.380 -0.2945 -0.5948 -0.3379
  758MOL0     C99987   1.901   3.242   9.275  0.6570  0.6063 -0.2483
  758MOL0     C99988   1.992   3.290   9.206 -0.2282  0.3861 -0.0372
  758MOL0     C99989   1.374   3.762   9.466  0.3256  0.4252 -0.3538
  758MOL0     C99990   1.295   3.848   9.558  0.4667 -0.6555  0.7510
  758MOL0     H99991   0.956   3.842   9.945  0.7250 -4.3205  2.0752
  758MOL0     H99992   0.820   3.965  10.136  0.4074  5.1278  0.2377
  758MOL0     H99993   0.775   3.944  10.337  1.4147  0.3236 -1.5677
  758MOL0     H99994   0.722   4.106  10.297 -1.4791  0.6964  1.7126
  758MOL0     H99995   0.636   4.074  10.517 -0.4420  0.2424 -1.0055
  758MOL0     H99996   0.779   4.180  10.526 -0.9576  0.2148 -0.5039
  758MOL0     H99997   0.918   3.988  10.617 -0.0046  0.5642  0.3162
  758MOL0     H99998   0.782   3.883  10.585  1.2953 -0.2264 -0.9948
  758MOL0     H99999   0.836   4.124  10.767  3.2150 -1.6389  0.1583
  758MOL0     H    0   0.666   4.062  10.754  0.2680  3.6908 -2.2239
  758MOL0     H    1   0.719   3.844  10.823  0.0271 -0.6022  2.1719
  758MOL0     H    2   0.781   3.960  10.950  0.9184  2.6234 -0.8837
  758MOL0     H    3   1.001   3.925  10.830  1.3688 -0.3682 -3.5804
  758MOL0     H    4   0.945   3.794  10.742  2.5724  1.5178 -0.0815
  758MOL0     H    5   0.965   3.801  11.039  0.8642  0.5551  0.0749
  758MOL0     H    6   0.857   3.688  10.959 -1.7421  1.6056  1.3087
  758MOL0     H    7   1.107   3.599  11.018 -0.1773 -1.9217 -0.0952
  758MOL0     H    8   1.154   3.714  10.905  1.2901 -0.1420  0.6341
  758MOL0     H    9   0.861   3.446  10.911  0.7044  0.0905  0.7337
  758MOL0     H   10   0.867   3.235  10.598 -1.3274  0.4949  0.2935
  758MOL0     H   11   0.790   3.244  10.751 -1.0133 -4.0092 -0.8840
  758MOL0     H   12   0.968   3.120  10.871  4.5475 -0.2705 -0.1583
  758MOL0     H   13   1.066   3.112  10.726 -1.8378  0.7610 -3.2439
  758MOL0     H   14   0.776   3.003  10.739 -1.4912 -0.6178 -4.9565
  758MOL0     H   15   0.890   2.975  10.607  0.4763 -1.7313  0.3909
  758MOL0     H   16   0.857   2.771  10.751  0.0620 -0.3732  2.0161
  758MOL0     H   17   0.916   2.859  10.891 -1.3956  1.0936 -0.4282
  758MOL0     H   18   1.308   2.782  10.696  0.7454 -1.1009  0.6467
  758MOL0     H   19   1.464   2.665  10.840 -1.0323  2.1553 -0.8928
  758MOL0     H   20   1.548   2.255  11.106  1.1347  0.9390 -1.7451
  758MOL0     H   21   1.722   2.138  11.245 -0.0424  0.3739 -0.2058
  758MOL0     H   22   1.744   2.283  11.564 -2.8635 -3.0013 -1.2596
  758MOL0     H   23   1.906   2.229  11.612 -0.9849 -0.8965  0.8420
  758MOL0     H   24   1.666   2.071  11.489  0.6235  0.7117 -1.7139
  758MOL0     H   25   1.727   2.073  11.651  0.7475 -2.2917  0.6094
  758MOL0     H   26   1.882   1.988  11.406  2.2469  3.7579  2.3088
  758MOL0     H   27   1.785   1.863  11.500 -0.5196 -0.2329  0.5549
  758MOL0     H   28   2.037   2.026  11.590  0.1361 -0.2888  0.6609
  758MOL0     H   29   1.932   1.929  11.691 -0.1987 -1.7533 -0.8798
  758MOL0     H   30   1.999   1.732  11.569 -2.6124  0.6599  0.0953
  758MOL0     H   31   2.135   1.805  11.618  2.6206  0.1238 -2.1063
  758MOL0     H   32   2.160   1.916  11.401 -1.8938  0.3094  1.0634
  758MOL0     H   33   2.023   1.841  11.328  0.0731 -1.2474 -0.5635
  758MOL0     H   34   2.251   1.685  11.465 -3.4783 -1.4387  1.2662
  758MOL0     H   35   2.135   1.610  11.361  1.6107 -0.1624 -2.6454
  758MOL0     H   36   2.214   1.760  11.168  1.5953  0.6894 -1.3266
  758MOL0     H   37   2.317   1.621  11.227 -0.9610  0.3331  0.3682
  758MOL0     H   38   1.862   2.528  11.367 -2.9487  1.3160  2.5665
  758MOL0     H   39   1.713   2.637  11.224  1.3739  0.7791 -0.0618
  758MOL0     H   40   1.138   2.524  11.091  3.6184 -0.6159  1.8262
  758MOL0     H   41   0.975   2.679  10.949 -0.2830  1.3358  0.5419
  758MOL0     H   42   1.195   4.075  10.305  1.3027 -1.2479 -1.3036
  758MOL0     H   43   1.300   4.021  10.110 -0.2879  1.6505 -0.3229
  758MOL0     H   44   1.287   3.638   9.824 -0.0169  1.3846  0.4419
  758MOL0     H   45   1.400   3.488   9.658 -0.9604  0.3211 -0.0455
  758MOL0     H   46   1.564   3.433   9.554 -0.8379  0.2555 -1.1726
  758MOL0     H   47   1.674   3.575   9.545  0.1786  0.1418  0.0203
  758MOL0     H   48   1.643   3.383   9.311  1.8906 -0.1486 -1.0966
  758MOL0     H   49   1.759   3.506   9.339 -0.3137 -1.5346 -2.3478
  758MOL0     H   50   1.713   3.271   9.556 -1.5421 -2.2064 -0.9156
  758MOL0     H   51   1.868   3.351   9.505  0.5943 -3.2216 -1.4344
  758MOL0     H   52   1.839   3.116   9.437  0.4805 -0.2954 -0.4601
  758MOL0     H   53   1.708   3.165   9.328 -1.0451  1.7533 -0.7422
  758MOL0     H   54   2.076   3.331   9.154 -0.0944  0.7714  0.4822
  758MOL0     H   55   1.405   3.800   9.369  0.0105 -2.2911 -1.6128
  758MOL0     H   56   1.274   3.950   9.528  0.1586 -1.7203 -3.2482
  759MOL0     O   57   9.381   6.570   4.282  0.5572  0.3477  0.8493
  759MOL0     C   58   9.420   6.469   4.219  0.1452  0.3918  1.5828
  759MOL0     O   59   9.526   6.395   4.268  0.5545  0.1067  0.6631
  759MOL0     C   60   9.576   6.384   4.395 -0.4753 -0.1288 -1.2398
  759MOL0     C   61   9.670   6.284   4.417 -0.1811  0.1858  0.0556
  759MOL0     C   62   9.713   6.236   4.545 -0.4126 -0.0124  1.4538
  759MOL0     C   63   9.655   6.308   4.662 -0.3891 -0.8289  0.4265
  759MOL0     O   64   9.678   6.285   4.790  0.2305 -0.1335  0.1644
  759MOL0     C   65   9.779   6.191   4.808 -0.5926  0.0680 -0.4794
  759MOL0     C   66   9.803   6.194   4.964  0.3664  0.5016  0.0301
  759MOL0     C   67   9.698   6.122   5.050  0.3822 -0.5625  0.4881
  759MOL0     C   68   9.777   6.068   5.170  0.2220 -0.1138 -0.8189
  759MOL0     C   69   9.682   5.999   5.261  0.4621  0.1881 -0.1747
  759MOL0     C   70   9.749   5.911   5.357  0.7741 -0.6044  0.0616
  759MOL0     C   71   9.635   5.843   5.454 -0.6848 -0.6474  0.3684
  759MOL0     C   72   9.686   5.785   5.588  0.0526 -0.2620  0.1379
  759MOL0     N   73   9.717   5.644   5.580  0.3254 -0.4221  0.0069
  759MOL0     C   74   9.628   5.550   5.533 -1.1186  0.4492 -0.3701
  759MOL0     C   75   9.706   5.440   5.539 -0.4687  0.0431 -1.4011
  759MOL0     C   76   9.656   5.299   5.522 -0.6195 -0.1491 -0.2289
  759MOL0     C   77   9.733   5.226   5.410 -0.7232 -0.3854 -0.0421
  759MOL0     C   78   9.702   5.077   5.394 -0.3947 -0.9302  0.2983
  759MOL0     C   79   9.637   5.039   5.261 -0.3069  0.4541 -0.5518
  759MOL0     O   80   9.530   5.135   5.233 -0.9079  0.3494 -0.4938
  759MOL0     C   81   9.508   5.178   5.104 -0.0254  0.5140  0.4522
  759MOL0     C   82   9.603   5.229   5.019  0.0265  0.3028 -0.0797
  759MOL0     C   83   9.576   5.252   4.881  1.7298 -0.6703 -0.8424
  759MOL0     C   84   9.442   5.235   4.842 -0.3793 -0.0468 -0.7766
  759MOL0     C   85   9.398   5.275   4.705 -0.3856  0.7686  0.2997
  759MOL0     O   86   9.267   5.247   4.667 -0.2659  0.2271  0.1861
  759MOL0     C   87   9.235   5.236   4.538  1.6706  0.2725 -0.4303
  759MOL0     C   88   9.118   5.298   4.476 -0.4471 -0.2174 -0.5332
  759MOL0     C   89   9.100   5.286   4.330  0.0057  0.5920 -0.2567
  759MOL0     C   90   9.191   5.212   4.255 -0.1624 -0.1423 -0.1224
  759MOL0     O   91   9.191   5.199   4.119  0.1680  0.0270 -0.3681
  759MOL0     C   92   9.073   5.230   4.045 -1.0923 -0.1895 -0.0381
  759MOL0     C   93   9.077   5.162   3.918  0.2904 -0.4997  1.5505
  759MOL0     C   94   9.140   5.257   3.807 -0.0253  0.2188  0.8875
  759MOL0     C   95   9.126   5.203   3.668  0.9679  0.5916 -0.1669
  759MOL0     C   96   9.203   5.291   3.567  0.1612  0.8606  0.2445
  759MOL0     C   97   9.247   5.215   3.439 -0.8833  0.8240  0.1456
  759MOL0     C   98   9.126   5.169   3.354 -0.6977 -1.1351  0.0525
  759MOL0     C   99   9.151   5.204   3.212  0.4515 -0.2403  0.3927
  759MOL0    Cl  100   8.993   5.146   3.127 -0.1869 -0.3768  0.2295
  759MOL0     C  101   9.294   5.147   4.321  0.8275  0.5447  0.6264
  759MOL0     C  102   9.303   5.148   4.452 -0.2207  0.2797  0.2833
  759MOL0     O  103   9.484   5.318   4.627  0.4286  0.3263 -0.1912
  759MOL0     C  104   9.343   5.187   4.929 -0.5020  0.1654 -0.3658
  759MOL0     C  105   9.381   5.159   5.060 -0.2593 -0.1813 -0.5693
  759MOL0     N  106   9.839   5.478   5.578 -0.9642 -0.4872 -0.3385
  759MOL0     N  107   9.847   5.602   5.590  0.1321  0.0093 -0.5215
  759MOL0     C  108   9.562   6.411   4.635 -0.0852 -0.0943  0.3308
  759MOL0     C  109   9.521   6.443   4.502  0.4509 -0.4760 -0.2606
  759MOL0     C  110   9.366   6.435   4.086  0.9324  0.5109  0.2311
  759MOL0     C  111   9.432   6.330   4.010 -0.3450 -0.9622  0.4747
  759MOL0     C  112   9.384   6.299   3.880  0.2968 -0.1012 -0.2136
  759MOL0     C  113   9.278   6.368   3.823  0.3893  0.9280  0.3592
  759MOL0     O  114   9.215   6.331   3.704  0.2550 -0.4086  0.2350
  759MOL0     C  115   9.306   6.296   3.593  0.0437  0.2375 -0.5558
  759MOL0     C  116   9.248   6.255   3.458 -1.0254 -0.1826 -1.0368
  759MOL0     C  117   9.163   6.129   3.475 -1.0052  1.0556 -0.1849
  759MOL0     C  118   9.111   6.076   3.342 -1.1771 -0.0743  0.3776
  759MOL0     C  119   9.037   6.173   3.250  0.4946 -0.4242  0.1955
  759MOL0     C  120   8.981   6.252   3.172  0.3293 -0.5681 -0.4822
  759MOL0     C  121   9.218   6.473   3.893 -0.2450 -0.4450 -0.8041
  759MOL0     C  122   9.262   6.510   4.025  0.4991 -0.9350 -0.2586
  759MOL0     H  123   9.704   6.232   4.328  0.5414  0.4761  0.1548
  759MOL0     H  124   9.780   6.150   4.550 -0.6435 -0.2931  0.0689
  759MOL0     H  125   9.869   6.223   4.755  1.7252 -1.1598  2.3960
  759MOL0     H  126   9.767   6.092   4.764 -0.8484  1.3673 -3.5261
  759MOL0     H  127   9.812   6.299   4.995  0.2140  0.0206  1.7898
  759MOL0     H  128   9.901   6.145   4.964  1.5991  2.4397 -3.9907
  759MOL0     H  129   9.637   6.038   5.015  0.2684 -1.2287  2.2000
  759MOL0     H  130   9.640   6.210   5.081 -0.5569 -1.4264  1.2456
  759MOL0     H  131   9.856   6.001   5.134 -0.1127 -0.3463 -1.1222
  759MOL0     H  132   9.817   6.156   5.222 -0.4255  0.7813 -1.7884
  759MOL0     H  133   9.611   5.940   5.203  2.4708 -1.7877 -0.7843
  759MOL0     H  134   9.618   6.066   5.319 -2.2441 -3.8843  2.0468
  759MOL0     H  135   9.820   5.963   5.423 -0.9678  0.8896  0.8273
  759MOL0     H  136   9.812   5.838   5.306 -0.5780 -0.1888 -2.3259
  759MOL0     H  137   9.562   5.919   5.485  1.5235  0.8090  2.3984
  759MOL0     H  138   9.589   5.762   5.398 -0.0832 -1.8540  1.5707
  759MOL0     H  139   9.621   5.809   5.672  2.5707 -1.5426  2.6299
  759MOL0     H  140   9.780   5.833   5.618 -1.0457  0.3636  2.8727
  759MOL0     H  141   9.524   5.575   5.515 -1.6696  0.5033  2.4766
  759MOL0     H  142   9.550   5.304   5.495 -0.6162  1.1516 -0.0757
  759MOL0     H  143   9.657   5.239   5.614 -2.0736  0.8613  0.5075
  759MOL0     H  144   9.837   5.233   5.444 -0.5692 -2.4388  0.0243
  759MOL0     H  145   9.716   5.275   5.313 -0.1631 -2.4448 -1.2592
  759MOL0     H  146   9.790   5.013   5.410  1.8816  2.5270  3.1114
  759MOL0     H  147   9.616   5.050   5.454 -2.7666  1.1495 -1.9045
  759MOL0     H  148   9.602   4.935   5.262  4.1242 -1.2705 -0.7816
  759MOL0     H  149   9.717   5.041   5.187  0.3689 -0.4438  0.1276
  759MOL0     H  150   9.705   5.230   5.055 -0.5506 -3.0955  1.9764
  759MOL0     H  151   9.645   5.287   4.805  1.0639 -1.7854 -2.0090
  759MOL0     H  152   9.048   5.348   4.543 -0.2694  0.5104 -0.8817
  759MOL0     H  153   9.026   5.353   4.287 -0.7080 -1.0482 -1.6609
  759MOL0     H  154   9.077   5.337   4.025 -0.4842 -0.4705 -1.5410
  759MOL0     H  155   8.980   5.207   4.098 -2.0811  1.4720 -0.9901
  759MOL0     H  156   8.973   5.142   3.890  0.1464  1.9236  0.0777
  759MOL0     H  157   9.124   5.064   3.911 -1.4945 -1.4960  2.6925
  759MOL0     H  158   9.246   5.265   3.831  0.3912  0.0167 -0.8013
  759MOL0     H  159   9.099   5.358   3.805  2.3098  1.2153 -1.1787
  759MOL0     H  160   9.175   5.106   3.675  0.5992  0.2504 -1.8223
  759MOL0     H  161   9.021   5.182   3.643  1.4955  0.4350 -2.4911
  759MOL0     H  162   9.297   5.338   3.599  1.4569 -0.5186 -1.3725
  759MOL0     H  163   9.130   5.369   3.540 -1.4579  0.3481  2.8213
  759MOL0     H  164   9.298   5.124   3.470 -0.7962  0.9150  0.2696
  759MOL0     H  165   9.319   5.276   3.382  2.0827 -0.8042  1.8958
  759MOL0     H  166   9.103   5.062   3.348 -2.0870 -0.7711 -1.9660
  759MOL0     H  167   9.035   5.216   3.391 -0.5558  0.3245 -1.3494
  759MOL0     H  168   9.227   5.138   3.169 -0.6242 -2.2535  1.3994
  759MOL0     H  169   9.162   5.311   3.197  4.7197 -0.3224  1.6334
  759MOL0     H  170   9.372   5.094   4.266  1.6577  1.7030  0.6565
  759MOL0     H  171   9.382   5.088   4.497  1.8178  1.2573 -1.7738
  759MOL0     H  172   9.242   5.165   4.896 -0.6079 -3.0218  1.5797
  759MOL0     H  173   9.314   5.131   5.141  2.6661 -4.3038  0.7966
  759MOL0     H  174   9.514   6.473   4.711  0.4991  0.4405  0.2682
  759MOL0     H  175   9.454   6.528   4.499  0.6001 -0.3393  0.2396
  759MOL0     H  176   9.517   6.276   4.052  1.0992  0.3825 -0.5732
  759MOL0     H  177   9.435   6.222   3.822 -1.9627 -1.4426 -0.5385
  759MOL0     H  178   9.368   6.210   3.620 -0.4660  0.0131 -0.0994
  759MOL0     H  179   9.375   6.380   3.577  3.0592 -2.2173 -1.4149
  759MOL0     H  180   9.198   6.336   3.403 -0.6247  1.9404  1.5479
  759MOL0     H  181   9.343   6.235   3.408  0.5884 -2.4729  2.6097
  759MOL0     H  182   9.078   6.156   3.539  0.5508  0.8626  2.0711
  759MOL0     H  183   9.217   6.051   3.530  0.7817  1.9921 -0.5343
  759MOL0     H  184   9.194   6.024   3.293 -1.0871 -0.6774  1.1443
  759MOL0     H  185   9.042   5.993   3.359 -1.9229  1.1815  4.7312
  759MOL0     H  186   8.937   6.308   3.093 -0.8813  2.0319  1.8780
  759MOL0     H  187   9.137   6.528   3.845  2.6164  3.1502 -1.9510
  759MOL0     H  188   9.213   6.585   4.086 -0.9028 -4.6371  3.6412
  760MOL0     O  189  10.922   3.373   6.108  0.3283  0.0526  0.2841
  760MOL0     C  190  11.037   3.367   6.078  0.6999 -0.4947 -0.6007
  760MOL0     O  191  11.138   3.347   6.173  0.0389 -0.3202 -0.5256
  760MOL0     C  192  11.109   3.348   6.311 -0.3717  0.4591 -0.3231
  760MOL0     C  193  11.175   3.245   6.391  0.3875  0.6292  1.0818
  760MOL0     C  194  11.123   3.226   6.520  0.9165  0.5421  1.1219
  760MOL0     C  195  11.029   3.313   6.585  0.4942  0.1341 -0.0996
  760MOL0     O  196  10.982   3.307   6.711 -0.0367  0.1542  0.2212
  760MOL0     C  197  11.084   3.303   6.812  0.3547  0.3430  0.4668
  760MOL0     C  198  11.015   3.373   6.924 -0.1797 -0.0674 -0.1112
  760MOL0     C  199  11.117   3.451   7.008 -0.7671 -0.8970 -0.6207
  760MOL0     C  200  11.051   3.488   7.141  1.1453 -0.6826  0.0001
  760MOL0     C  201  11.155   3.526   7.243 -0.5258 -0.7854 -0.5323
  760MOL0     C  202  11.077   3.550   7.373  0.4655 -0.3886 -0.1860
  760MOL0     C  203  11.172   3.607   7.483 -0.2810  0.0021  0.8353
  760MOL0     C  204  11.130   3.591   7.629 -0.6055  0.0548 -0.9981
  760MOL0     N  205  11.185   3.481   7.717 -0.3413 -1.4831 -0.4719
  760MOL0     C  206  11.160   3.355   7.675  0.1267  0.4493  0.8580
  760MOL0     C  207  11.222   3.288   7.771 -0.2881 -0.6213  0.4442
  760MOL0     C  208  11.216   3.135   7.793 -0.1151  0.0850 -0.6030
  760MOL0     C  209  11.157   3.059   7.668 -0.1644 -0.4861  0.7824
  760MOL0     C  210  11.175   2.906   7.674  0.5818  0.6154 -0.1221
  760MOL0     C  211  11.098   2.846   7.795 -0.0921 -0.6966 -1.2532
  760MOL0     O  212  10.958   2.891   7.816 -0.2306  0.4311 -0.5596
  760MOL0     C  213  10.867   2.862   7.716 -0.6350 -0.4410 -0.6488
  760MOL0     C  214  10.755   2.942   7.719 -0.1645 -0.2387 -0.2169
  760MOL0     C  215  10.647   2.920   7.642 -0.2482  0.2877  1.1515
  760MOL0     C  216  10.649   2.810   7.548  0.1458 -0.5818 -0.3941
  760MOL0     C  217  10.531   2.787   7.465  0.2169 -0.1315 -0.6157
  760MOL0     O  218  10.526   2.675   7.401  0.5098  0.3198  0.3235
  760MOL0     C  219  10.433   2.659   7.304 -0.2007 -0.5881  0.1954
  760MOL0     C  220  10.288   2.645   7.328  0.7858  0.0521 -0.2894
  760MOL0     C  221  10.195   2.640   7.225  1.0518 -0.2692 -0.7867
  760MOL0     C  222  10.237   2.633   7.093  0.3789 -0.3040 -1.2913
  760MOL0     O  223  10.148   2.616   6.998 -0.2492 -0.6414  0.4158
  760MOL0     C  224  10.142   2.718   6.888  0.1759  0.1171  0.0352
  760MOL0     C  225  10.113   2.859   6.946 -0.4930  0.2801  0.5603
  760MOL0     C  226   9.965   2.884   7.000  0.6036  0.5547 -0.2847
  760MOL0     C  227   9.928   2.798   7.113 -0.9423  1.4277  0.1122
  760MOL0     C  228   9.784   2.838   7.167 -0.0475  0.5108  0.4213
  760MOL0     C  229   9.727   2.744   7.268  0.6475  0.0400 -0.1555
  760MOL0     C  230   9.575   2.740   7.263 -0.1546 -0.3856  1.4615
  760MOL0     C  231   9.511   2.645   7.361  0.1791 -0.5905 -0.0369
  760MOL0    Cl  232   9.329   2.667   7.383  0.3993 -0.0332 -0.2625
  760MOL0     C  233  10.373   2.646   7.062 -1.3944 -0.0980  1.0996
  760MOL0     C  234  10.465   2.658   7.160 -0.3033  0.5367 -1.1948
  760MOL0     O  235  10.448   2.878   7.462  0.0777  0.6805 -0.0848
  760MOL0     C  236  10.763   2.729   7.543 -0.3017 -0.7052  0.2075
  760MOL0     C  237  10.876   2.750   7.632  0.7596 -0.4850  0.2213
  760MOL0     N  238  11.281   3.377   7.867  0.2475 -0.7440  1.0887
  760MOL0     N  239  11.264   3.498   7.830 -1.1238  0.1107  0.1858
  760MOL0     C  240  10.972   3.417   6.508 -1.0968 -0.8398  0.4586
  760MOL0     C  241  11.013   3.429   6.372 -0.5468 -0.0073  0.0776
  760MOL0     C  242  11.076   3.353   5.939  0.1852  0.7254  0.3643
  760MOL0     C  243  10.983   3.316   5.846 -0.1036 -0.2839 -0.4545
  760MOL0     C  244  11.017   3.272   5.716  0.9501  0.4643  0.9265
  760MOL0     C  245  11.144   3.289   5.672  0.3284  0.6947 -0.3692
  760MOL0     O  246  11.183   3.256   5.553 -0.2169  0.6067  0.9510
  760MOL0     C  247  11.091   3.237   5.439  0.4844 -0.2091 -0.1816
  760MOL0     C  248  11.045   3.090   5.413 -0.2112  0.6093  0.1556
  760MOL0     C  249  11.165   2.998   5.430  0.7264  0.1996  0.0324
  760MOL0     C  250  11.108   2.842   5.417 -1.3947 -0.4875  0.2669
  760MOL0     C  251  11.042   2.792   5.542  0.1143  0.7160  0.0359
  760MOL0     C  252  11.001   2.753   5.654  0.6050  0.5222  0.4935
  760MOL0     C  253  11.244   3.333   5.757 -0.0914  0.3284 -0.4368
  760MOL0     C  254  11.211   3.363   5.888  0.4091  0.2026 -0.0301
  760MOL0     H  255  11.239   3.167   6.351  0.5506  0.2666  2.0316
  760MOL0     H  256  11.155   3.132   6.564 -0.1443 -0.0582  0.6578
  760MOL0     H  257  11.175   3.356   6.783 -0.8533  0.2281 -4.3227
  760MOL0     H  258  11.121   3.202   6.832  0.3968  0.1310 -0.6265
  760MOL0     H  259  10.963   3.292   6.977  2.9599 -0.1404  3.2714
  760MOL0     H  260  10.944   3.448   6.890 -0.0618  0.2408  0.3083
  760MOL0     H  261  11.136   3.544   6.955 -3.5830  0.6216  0.7865
  760MOL0     H  262  11.208   3.392   7.019 -1.2339 -1.7942 -1.4544
  760MOL0     H  263  10.983   3.572   7.126  1.6044 -0.7323 -2.9759
  760MOL0     H  264  10.991   3.400   7.167  0.5227 -1.6988 -4.0869
  760MOL0     H  265  11.215   3.613   7.214  2.0582 -2.2157  0.3058
  760MOL0     H  266  11.227   3.447   7.261  1.3559  1.2342  1.3834
  760MOL0     H  267  11.026   3.459   7.408 -0.7302  0.5392  0.5421
  760MOL0     H  268  10.999   3.623   7.357  0.9824  0.4194  0.8348
  760MOL0     H  269  11.268   3.554   7.477 -1.4336 -2.8380  4.2224
  760MOL0     H  270  11.189   3.715   7.472 -5.6988  1.2579  2.0765
  760MOL0     H  271  11.021   3.592   7.644 -0.5562 -0.8253 -0.5110
  760MOL0     H  272  11.169   3.686   7.668  0.2940  0.1515 -2.0794
  760MOL0     H  273  11.104   3.325   7.587 -1.6929 -1.1797  2.4586
  760MOL0     H  274  11.150   3.115   7.878  1.6647  0.9153  1.0755
  760MOL0     H  275  11.316   3.108   7.826  1.0118  2.9306 -1.3449
  760MOL0     H  276  11.203   3.095   7.575 -0.4724 -1.5166  0.2103
  760MOL0     H  277  11.057   3.100   7.651  0.7210  2.2424  1.6739
  760MOL0     H  278  11.134   2.860   7.583 -0.0069  0.4395  0.2264
  760MOL0     H  279  11.280   2.882   7.657 -0.3428 -2.5817 -2.4211
  760MOL0     H  280  11.146   2.891   7.883  2.2201  0.0491 -2.7813
  760MOL0     H  281  11.107   2.737   7.804  3.2258 -0.4113  0.6272
  760MOL0     H  282  10.744   3.011   7.802 -4.2619  0.4711 -1.1346
  760MOL0     H  283  10.554   2.972   7.664 -1.6449 -1.3953 -0.4397
  760MOL0     H  284  10.257   2.657   7.431 -1.2209  0.9717 -0.9583
  760MOL0     H  285  10.090   2.634   7.251  1.2494 -1.6269 -0.1939
  760MOL0     H  286  10.059   2.692   6.822  1.8907  2.8058 -3.5278
  760MOL0     H  287  10.229   2.721   6.821  1.9582  0.9792  2.2433
  760MOL0     H  288  10.132   2.926   6.861 -1.4020 -1.7200 -1.3133
  760MOL0     H  289  10.190   2.874   7.022  0.0635 -2.7596  0.6961
  760MOL0     H  290   9.901   2.865   6.914 -1.4131  0.3884  1.1721
  760MOL0     H  291   9.941   2.989   7.016 -0.7719  0.1671  0.3450
  760MOL0     H  292   9.923   2.694   7.081 -4.4817  0.5911  2.8760
  760MOL0     H  293   9.999   2.810   7.195  0.7156  3.0144 -1.4467
  760MOL0     H  294   9.729   2.835   7.072  0.9710 -1.2120 -0.1623
  760MOL0     H  295   9.792   2.942   7.199 -0.1374  1.0927 -1.3132
  760MOL0     H  296   9.741   2.776   7.371 -0.5849 -2.7425  0.9872
  760MOL0     H  297   9.773   2.645   7.256  1.4435 -0.0858  3.1623
  760MOL0     H  298   9.523   2.835   7.277  0.3238 -0.3989  3.6774
  760MOL0     H  299   9.551   2.706   7.162  4.0140 -1.7401  0.7017
  760MOL0     H  300   9.558   2.666   7.457 -0.0081 -2.5230  0.5148
  760MOL0     H  301   9.547   2.544   7.341  7.0518  1.4334 -0.5918
  760MOL0     H  302  10.408   2.640   6.960  0.9379  1.8227  1.6817
  760MOL0     H  303  10.571   2.660   7.139  0.1129 -2.0462  0.2183
  760MOL0     H  304  10.757   2.632   7.493  0.2911  1.1724 -3.8802
  760MOL0     H  305  10.960   2.685   7.653  2.4197  1.4160 -0.2028
  760MOL0     H  306  10.907   3.498   6.539  2.0166  3.3175 -2.6390
  760MOL0     H  307  10.978   3.512   6.312  0.8454 -0.0597 -0.8678
  760MOL0     H  308  10.878   3.303   5.870 -1.6042  0.0499 -5.5622
  760MOL0     H  309  10.936   3.233   5.656 -1.2615  1.8516  2.8226
  760MOL0     H  310  11.143   3.262   5.346  1.1390  0.4377  0.3458
  760MOL0     H  311  11.009   3.309   5.446  1.3586  0.6692  1.5665
  760MOL0     H  312  10.956   3.052   5.463 -1.4832  1.3844 -1.4063
  760MOL0     H  313  11.018   3.088   5.307 -1.8428  0.4066  0.5442
  760MOL0     H  314  11.230   3.015   5.517  2.4024 -0.6904 -0.9844
  760MOL0     H  315  11.244   3.020   5.356 -0.6636 -0.8164 -1.8309
  760MOL0     H  316  11.046   2.845   5.327  1.2420  2.8964 -1.7486
  760MOL0     H  317  11.194   2.781   5.387  1.3807  2.8612  0.6918
  760MOL0     H  318  10.940   2.737   5.741 -3.4920  1.8882 -1.8122
  760MOL0     H  319  11.344   3.355   5.720  0.2311 -0.1133  0.1763
  760MOL0     H  320  11.294   3.400   5.946 -0.2050  1.4605  0.0857
  761MOL0     O  321  10.082   5.225   6.688 -0.4181 -1.0186  0.0735
  761MOL0     C  322  10.132   5.272   6.586 -0.5298 -0.3137 -0.3046
  761MOL0     O  323  10.260   5.320   6.572 -0.4040 -0.0483 -0.6402
  761MOL0     C  324  10.345   5.374   6.670  0.2839 -0.4444  0.1254
  761MOL0     C  325  10.423   5.492   6.644 -0.7415 -0.1866  0.7621
  761MOL0     C  326  10.537   5.522   6.727  0.4806 -0.9405  0.2888
  761MOL0     C  327  10.556   5.443   6.840  0.1001 -0.6660 -0.2180
  761MOL0     O  328  10.667   5.479   6.912  0.2977 -0.0288 -0.0970
  761MOL0     C  329  10.726   5.390   7.004 -0.1515  0.1864 -0.4954
  761MOL0     C  330  10.670   5.414   7.148  0.5839  0.1283 -0.3577
  761MOL0     C  331  10.763   5.370   7.265 -0.0513 -0.6994 -0.3928
  761MOL0     C  332  10.696   5.383   7.398 -0.4514 -0.3215 -1.1910
  761MOL0     C  333  10.778   5.308   7.522 -0.2428 -0.3519  1.0501
  761MOL0     C  334  10.751   5.166   7.526 -0.0648  0.5068  0.0703
  761MOL0     C  335  10.846   5.093   7.621  0.0735  0.0247 -0.0792
  761MOL0     C  336  10.802   4.951   7.650  0.1558 -0.0755  0.4685
  761MOL0     N  337  10.704   4.929   7.761 -0.7918 -0.4155  0.5294
  761MOL0     C  338  10.567   4.947   7.761  0.8004  0.1843 -0.3022
  761MOL0     C  339  10.527   4.937   7.892  0.1112 -0.1958  1.2794
  761MOL0     C  340  10.383   4.907   7.931  1.0112  0.7234  0.0578
  761MOL0     C  341  10.363   4.755   7.943 -0.0064  0.7764  0.7358
  761MOL0     C  342  10.217   4.723   7.908 -0.2604  0.0996  0.8711
  761MOL0     C  343  10.195   4.576   7.926 -0.4455  0.3314 -0.5105
  761MOL0     O  344  10.283   4.506   7.839 -0.2027 -0.7698  1.0976
  761MOL0     C  345  10.219   4.428   7.754  0.2286  0.5242  0.4737
  761MOL0     C  346  10.215   4.480   7.626  0.5073 -0.1870  1.0964
  761MOL0     C  347  10.141   4.415   7.516 -0.4321  0.9864 -0.7078
  761MOL0     C  348  10.076   4.299   7.561  0.8669  1.4607 -0.4033
  761MOL0     C  349   9.986   4.221   7.471 -1.0961  0.0784  0.9860
  761MOL0     O  350   9.976   4.275   7.351  0.6419 -0.6296 -0.5556
  761MOL0     C  351   9.932   4.201   7.239  0.3416 -0.1985 -0.5671
  761MOL0     C  352   9.882   4.277   7.123 -0.5480 -0.1006 -0.4110
  761MOL0     C  353   9.852   4.206   7.008  0.0563  0.8101  0.3345
  761MOL0     C  354   9.853   4.060   7.005 -0.7438 -1.0718 -0.8484
  761MOL0     O  355   9.838   3.991   6.884  0.0642 -0.6312 -0.8690
  761MOL0     C  356   9.971   3.988   6.827 -0.6502 -0.2268  0.2147
  761MOL0     C  357   9.975   4.045   6.685 -0.0329 -0.3992  0.6402
  761MOL0     C  358   9.880   3.980   6.588 -0.2779  0.0368  0.9801
  761MOL0     C  359   9.845   4.082   6.475 -0.5388  1.2766  0.6566
  761MOL0     C  360   9.784   4.025   6.349  0.2567 -0.0892  0.4636
  761MOL0     C  361   9.871   3.924   6.274 -0.3142  0.8445 -0.1890
  761MOL0     C  362   9.827   3.908   6.133  0.1354 -1.0703  0.3565
  761MOL0     C  363   9.865   3.785   6.051 -0.4658  0.2776  0.3249
  761MOL0    Cl  364   9.785   3.787   5.906  0.3566  0.1036  0.1142
  761MOL0     C  365   9.909   3.995   7.118  0.1904 -0.0463 -0.4309
  761MOL0     C  366   9.947   4.063   7.227  0.4355 -0.8407 -0.1179
  761MOL0     O  367   9.934   4.118   7.506  0.1479  0.2425 -0.2781
  761MOL0     C  368  10.075   4.258   7.692  0.7765  0.1801  0.4974
  761MOL0     C  369  10.147   4.319   7.788  0.2645  0.3540 -0.2661
  761MOL0     N  370  10.641   4.906   7.973 -0.2313  0.4130  0.5827
  761MOL0     N  371  10.743   4.919   7.896  0.5291  0.1052 -0.1130
  761MOL0     C  372  10.471   5.331   6.868 -0.9634 -0.4581  0.1667
  761MOL0     C  373  10.362   5.298   6.786 -0.8231  0.1129  0.4342
  761MOL0     C  374  10.065   5.248   6.467  1.2136  0.7344  0.3997
  761MOL0     C  375  10.083   5.321   6.346 -1.5133  0.0831  0.5149
  761MOL0     C  376  10.017   5.286   6.228  0.3307  1.0253  0.1089
  761MOL0     C  377   9.943   5.171   6.218  0.2724  0.2683  0.9672
  761MOL0     O  378   9.890   5.168   6.087 -0.4486 -0.0134 -0.3768
  761MOL0     C  379   9.785   5.085   6.060  0.1669 -0.0160  0.6503
  761MOL0     C  380   9.767   5.063   5.916  0.2219  0.5122  0.6556
  761MOL0     C  381   9.763   4.914   5.891 -0.4918  0.1314  0.6061
  761MOL0     C  382   9.751   4.887   5.741  0.3534  0.1142  0.9714
  761MOL0     C  383   9.877   4.915   5.665  0.9261  0.4232 -0.6492
  761MOL0     C  384   9.984   4.942   5.612  0.8146  0.0559  1.0862
  761MOL0     C  385   9.915   5.097   6.336 -0.2977 -0.0837 -0.5512
  761MOL0     C  386   9.976   5.138   6.465  1.0167  0.4060  0.2198
  761MOL0     H  387  10.408   5.535   6.545  2.8407 -1.3907 -0.4692
  761MOL0     H  388  10.593   5.614   6.716 -2.2011  0.8828  0.7652
  761MOL0     H  389  10.834   5.393   6.990 -0.4363  1.2411 -2.7542
  761MOL0     H  390  10.708   5.284   6.982  0.0562  0.0884 -0.2072
  761MOL0     H  391  10.564   5.385   7.155  0.2204  0.7359 -2.6730
  761MOL0     H  392  10.668   5.522   7.166 -2.8921  0.1122  0.1789
  761MOL0     H  393  10.854   5.431   7.272 -2.7730  3.7400 -0.1988
  761MOL0     H  394  10.785   5.265   7.244  0.1880 -0.9080  0.8206
  761MOL0     H  395  10.678   5.487   7.428  0.5053 -0.7235  1.0048
  761MOL0     H  396  10.597   5.336   7.395 -0.6662 -0.7027  3.7511
  761MOL0     H  397  10.749   5.353   7.618 -1.7409  2.8953 -0.7431
  761MOL0     H  398  10.881   5.340   7.505 -0.5178 -1.0916 -3.1530
  761MOL0     H  399  10.783   5.125   7.430  1.9711  1.7625  0.1465
  761MOL0     H  400  10.645   5.146   7.543 -0.5341  0.9430 -2.0487
  761MOL0     H  401  10.951   5.094   7.589  0.0832 -0.8664 -0.1036
  761MOL0     H  402  10.845   5.149   7.715 -0.0323 -1.4111  0.8137
  761MOL0     H  403  10.897   4.899   7.665 -1.1480 -2.4587  1.1203
  761MOL0     H  404  10.758   4.916   7.556 -1.4485  2.0361  0.3606
  761MOL0     H  405  10.504   4.948   7.673  1.6879  0.1136 -0.9511
  761MOL0     H  406  10.316   4.953   7.857 -0.2760  0.2701  0.8935
  761MOL0     H  407  10.364   4.960   8.025  0.8452 -1.3577  1.2436
  761MOL0     H  408  10.383   4.728   8.047  2.1821  2.2085  0.7456
  761MOL0     H  409  10.431   4.701   7.877 -0.5173  1.5521 -0.4592
  761MOL0     H  410  10.157   4.793   7.968 -1.8990  2.6495 -3.3225
  761MOL0     H  411  10.209   4.744   7.801  0.0853 -2.1178  0.3675
  761MOL0     H  412  10.088   4.554   7.919 -1.2065  3.5882 -0.8928
  761MOL0     H  413  10.216   4.562   8.032 -0.7845  2.6397 -0.0927
  761MOL0     H  414  10.281   4.565   7.613 -0.0002  0.5441  2.8392
  761MOL0     H  415  10.140   4.447   7.412  0.2345  0.6245 -0.8347
  761MOL0     H  416   9.883   4.385   7.116 -2.2980 -0.1461 -3.0156
  761MOL0     H  417   9.807   4.265   6.929 -1.8941  0.7830  1.3681
  761MOL0     H  418  10.018   3.890   6.834  1.8083  0.6152 -2.4814
  761MOL0     H  419  10.045   4.046   6.883  1.3838 -2.3313 -0.1547
  761MOL0     H  420  10.075   4.020   6.648  0.8413 -0.5512  2.9663
  761MOL0     H  421   9.959   4.153   6.688 -1.6826 -0.4811 -2.1168
  761MOL0     H  422   9.793   3.956   6.651  0.1619  0.4515  1.7628
  761MOL0     H  423   9.927   3.889   6.550 -0.4693  0.3874 -0.1146
  761MOL0     H  424   9.776   4.160   6.510 -2.1876  0.6372 -1.0177
  761MOL0     H  425   9.941   4.121   6.440 -1.3725  1.3079 -1.7180
  761MOL0     H  426   9.769   4.115   6.289 -0.6779  0.7987  1.9634
  761MOL0     H  427   9.683   3.986   6.361 -0.4522  0.4871 -2.7661
  761MOL0     H  428   9.882   3.828   6.325 -1.9521  0.5597 -0.2991
  761MOL0     H  429   9.976   3.955   6.273  1.4246 -3.9622  1.6685
  761MOL0     H  430   9.719   3.917   6.120  0.5871  2.5267 -3.0020
  761MOL0     H  431   9.862   3.998   6.080  1.7021  0.7971  4.1841
  761MOL0     H  432   9.825   3.701   6.108  1.1795  1.6603  3.7935
  761MOL0     H  433   9.974   3.787   6.045 -0.2049  2.2956  3.2754
  761MOL0     H  434   9.924   3.888   7.117 -1.2361 -0.2661 -0.1623
  761MOL0     H  435  10.001   4.005   7.301 -0.0317 -2.1176 -0.7383
  761MOL0     H  436  10.010   4.176   7.719  1.4315 -0.6689 -0.4040
  761MOL0     H  437  10.160   4.270   7.884  0.7860  2.3743  0.7397
  761MOL0     H  438  10.490   5.262   6.949 -1.0568 -0.2736  0.3454
  761MOL0     H  439  10.292   5.218   6.807 -2.8371  1.8730  0.8078
  761MOL0     H  440  10.141   5.412   6.357 -0.1401 -0.8117  0.9187
  761MOL0     H  441  10.050   5.340   6.140  4.9765 -0.6485  0.5465
  761MOL0     H  442   9.697   5.142   6.090 -1.9138 -2.7476  0.0474
  761MOL0     H  443   9.781   4.994   6.121 -3.5101 -0.4279  0.0004
  761MOL0     H  444   9.669   5.107   5.896  0.2216  1.4218  2.4565
  761MOL0     H  445   9.849   5.101   5.855  0.1157 -2.2900 -1.4755
  761MOL0     H  446   9.675   4.869   5.938 -0.8219 -2.6988 -2.3457
  761MOL0     H  447   9.857   4.876   5.932  0.1315 -0.4190 -1.2629
  761MOL0     H  448   9.712   4.788   5.716 -1.2105  0.7290  0.8770
  761MOL0     H  449   9.678   4.955   5.696 -1.1681  1.4619  5.0445
  761MOL0     H  450  10.070   4.972   5.557  1.6321  1.3720  3.0024
  761MOL0     H  451   9.861   5.003   6.330 -2.1432  0.5829  2.8341
  761MOL0     H  452   9.955   5.088   6.559 -0.5542 -0.5525 -0.5891
  762MOL0     O  453   5.685   0.452   3.027 -0.0179 -0.2725  0.2414
  762MOL0     C  454   5.705   0.567   3.084 -0.1866 -0.2795 -0.1984
  762MOL0     O  455   5.627   0.678   3.076 -0.2430  0.3380 -0.2925
  762MOL0     C  456   5.523   0.698   2.989 -0.7601  0.1019  0.2867
  762MOL0     C  457   5.451   0.816   3.011  0.3097  0.3670  0.1865
  762MOL0     C  458   5.334   0.849   2.934 -0.9673 -0.0074  0.4954
  762MOL0     C  459   5.303   0.760   2.835  0.8414  0.8516 -0.1467
  762MOL0     O  460   5.200   0.787   2.752  0.2009 -0.4114 -0.3012
  762MOL0     C  461   5.082   0.869   2.804 -1.4974  0.8968  0.5532
  762MOL0     C  462   4.966   0.850   2.714  1.0196  0.5981  0.5599
  762MOL0     C  463   4.927   0.699   2.702 -0.4390 -0.7376  0.5941
  762MOL0     C  464   4.793   0.698   2.622  0.4758 -0.4780 -0.0123
  762MOL0     C  465   4.755   0.556   2.570 -0.6572 -0.2949  0.6984
  762MOL0     C  466   4.602   0.520   2.576  0.1797  0.0773 -0.4874
  762MOL0     C  467   4.543   0.398   2.488 -0.2323 -0.6559 -1.2501
  762MOL0     C  468   4.553   0.434   2.338 -0.4416  0.1086 -0.2275
  762MOL0     N  469   4.503   0.320   2.257  0.2589 -1.3829 -0.5570
  762MOL0     C  470   4.370   0.273   2.255 -0.0054  0.0365 -0.7153
  762MOL0     C  471   4.374   0.151   2.190  1.5535 -0.8936  0.3379
  762MOL0     C  472   4.261   0.047   2.159  1.6662 -1.0116  0.3415
  762MOL0     C  473   4.297  -0.047   2.033  0.1215  0.1774 -0.3314
  762MOL0     C  474   4.184  -0.144   2.019 -0.3485  0.1262  0.4284
  762MOL0     C  475   4.171  -0.188   1.877 -0.7842  0.1660 -0.3487
  762MOL0     O  476   4.128  -0.324   1.882 -0.4171  0.7628 -0.5222
  762MOL0     C  477   4.086  -0.383   1.769 -0.2378  0.5084  0.1714
  762MOL0     C  478   4.021  -0.510   1.774 -0.0307  0.1636 -0.7689
  762MOL0     C  479   3.998  -0.573   1.656  0.4940  0.3269  0.6053
  762MOL0     C  480   4.019  -0.525   1.526 -0.8666 -0.0292 -0.0245
  762MOL0     C  481   3.985  -0.610   1.414  0.1005 -0.1288 -0.2822
  762MOL0     O  482   4.050  -0.586   1.301  0.5030 -0.2280 -0.0682
  762MOL0     C  483   4.038  -0.670   1.192 -0.8103  0.4223  0.5275
  762MOL0     C  484   3.915  -0.726   1.145 -0.7252 -0.3069 -0.9176
  762MOL0     C  485   3.925  -0.806   1.032  1.1037  0.8652 -0.2607
  762MOL0     C  486   4.045  -0.835   0.967 -0.3982  0.0278  0.2303
  762MOL0     O  487   4.045  -0.894   0.845  0.1063  0.0206 -0.4350
  762MOL0     C  488   3.975  -1.027   0.853  0.5447 -0.1270 -0.9311
  762MOL0     C  489   4.033  -1.125   0.759 -0.3793  0.4639  0.5132
  762MOL0     C  490   4.183  -1.143   0.792 -0.0050  0.4485  0.9948
  762MOL0     C  491   4.236  -1.251   0.699  0.3842  0.2059  0.4386
  762MOL0     C  492   4.377  -1.297   0.742 -0.2775  0.4054 -0.8299
  762MOL0     C  493   4.379  -1.383   0.867  0.1800 -0.6175 -0.0273
  762MOL0     C  494   4.522  -1.394   0.913 -0.7457 -1.0156 -0.2976
  762MOL0     C  495   4.567  -1.257   0.978 -0.8363  0.1519  0.2913
  762MOL0    Cl  496   4.727  -1.295   1.019  0.0398 -0.1308  0.0623
  762MOL0     C  497   4.169  -0.778   1.014  1.2092  0.3916 -0.3181
  762MOL0     C  498   4.164  -0.709   1.131 -0.2120 -0.7158  0.5495
  762MOL0     O  499   3.906  -0.703   1.429 -0.2434  1.2782 -0.2885
  762MOL0     C  500   4.073  -0.394   1.507  1.2888  0.5804  0.3058
  762MOL0     C  501   4.104  -0.326   1.633  0.2523 -0.4515 -1.2839
  762MOL0     N  502   4.502   0.127   2.162 -0.0172  0.8251 -0.5075
  762MOL0     N  503   4.583   0.215   2.222 -0.2722  0.4276 -0.6595
  762MOL0     C  504   5.378   0.645   2.810  0.3420 -0.3092  0.5160
  762MOL0     C  505   5.484   0.610   2.883 -0.7023 -0.2748  0.2457
  762MOL0     C  506   5.829   0.573   3.164 -0.3707  0.6577 -0.3218
  762MOL0     C  507   5.884   0.703   3.206  0.2628 -0.0116  0.1354
  762MOL0     C  508   5.999   0.709   3.278 -0.2233  0.9906  0.0288
  762MOL0     C  509   6.083   0.604   3.287 -0.5758  0.7598  0.0191
  762MOL0     O  510   6.206   0.604   3.356  0.6580 -0.9982 -0.1150
  762MOL0     C  511   6.281   0.725   3.359 -0.4557 -0.7564 -0.1271
  762MOL0     C  512   6.320   0.750   3.212  0.0094  0.1637  0.2190
  762MOL0     C  513   6.364   0.626   3.133  0.6586 -0.6997 -0.2650
  762MOL0     C  514   6.467   0.532   3.214 -0.0633  0.7538  0.5428
  762MOL0     C  515   6.550   0.440   3.134 -0.1838 -1.1917  0.0862
  762MOL0     C  516   6.632   0.361   3.080  0.0384 -0.6408  0.1076
  762MOL0     C  517   6.039   0.475   3.243 -0.2753  0.7691  0.1206
  762MOL0     C  518   5.917   0.460   3.182  1.0019  0.2774  0.5690
  762MOL0     H  519   5.487   0.879   3.091  1.0937  0.5730 -0.3147
  762MOL0     H  520   5.285   0.945   2.930  0.9728  1.0595  0.8741
  762MOL0     H  521   5.102   0.977   2.799 -0.0021  0.6389  0.7112
  762MOL0     H  522   5.076   0.843   2.910  0.9684  1.3819  0.8708
  762MOL0     H  523   4.987   0.887   2.613  0.8738  1.5025  0.8520
  762MOL0     H  524   4.878   0.910   2.739  0.9741  2.5195 -3.3895
  762MOL0     H  525   4.905   0.666   2.804 -4.5237 -0.2935  0.0232
  762MOL0     H  526   4.998   0.650   2.635 -1.8748  0.0670 -1.6223
  762MOL0     H  527   4.718   0.721   2.698  0.9709 -3.3657  1.4859
  762MOL0     H  528   4.792   0.752   2.527 -3.5418 -2.1142 -1.0625
  762MOL0     H  529   4.811   0.476   2.619 -1.3054 -1.3457 -0.2158
  762MOL0     H  530   4.792   0.557   2.467 -1.5648 -1.7945  0.3139
  762MOL0     H  531   4.551   0.610   2.539 -0.7913 -0.7391 -1.1973
  762MOL0     H  532   4.573   0.499   2.679 -1.0793  0.5311 -0.7202
  762MOL0     H  533   4.603   0.311   2.514 -1.1035 -1.0307 -0.4286
  762MOL0     H  534   4.439   0.397   2.523  1.1460  3.1713  4.3973
  762MOL0     H  535   4.653   0.461   2.303 -1.5790  3.9265 -1.0790
  762MOL0     H  536   4.502   0.529   2.317  0.0672  0.9766  2.2275
  762MOL0     H  537   4.284   0.324   2.299  0.2700  0.4538 -0.6630
  762MOL0     H  538   4.168   0.104   2.150  2.7509  0.9674  1.0352
  762MOL0     H  539   4.253  -0.023   2.242 -0.9884 -0.8444  0.3185
  762MOL0     H  540   4.391  -0.102   2.037 -0.6763 -1.1310  1.4447
  762MOL0     H  541   4.306   0.017   1.944  2.0198 -2.0849 -1.9046
  762MOL0     H  542   4.217  -0.234   2.072 -1.1019  0.0339  0.7420
  762MOL0     H  543   4.087  -0.108   2.054  0.0214 -1.3661  3.3443
  762MOL0     H  544   4.271  -0.193   1.833  0.3113 -2.6306  2.0987
  762MOL0     H  545   4.099  -0.128   1.820 -3.5494 -0.8409  1.8881
  762MOL0     H  546   4.005  -0.569   1.863  0.8119 -2.8692 -2.4890
  762MOL0     H  547   3.964  -0.676   1.664  0.9060  0.1281 -0.0360
  762MOL0     H  548   3.822  -0.712   1.199  1.2407 -1.9874  3.3886
  762MOL0     H  549   3.829  -0.848   1.006  0.4215  1.4634  1.1577
  762MOL0     H  550   3.866  -1.018   0.850  0.1145 -3.8567 -0.9422
  762MOL0     H  551   3.999  -1.075   0.948  2.5207  1.1654 -0.7238
  762MOL0     H  552   4.034  -1.083   0.659  1.2540 -0.0839  0.2723
  762MOL0     H  553   3.988  -1.225   0.756  1.7372 -0.5363 -0.0109
  762MOL0     H  554   4.196  -1.172   0.897 -0.2129 -1.4150  0.5377
  762MOL0     H  555   4.243  -1.051   0.793  0.3899  0.2320  3.0534
  762MOL0     H  556   4.172  -1.339   0.707  3.8827 -2.9276 -2.1878
  762MOL0     H  557   4.256  -1.219   0.596 -0.3291 -0.1296  0.1839
  762MOL0     H  558   4.432  -1.205   0.758 -0.8879  0.6008  0.2387
  762MOL0     H  559   4.435  -1.350   0.665 -2.1827 -1.8923 -0.8230
  762MOL0     H  560   4.330  -1.478   0.846  1.6060 -0.7338 -3.4795
  762MOL0     H  561   4.321  -1.347   0.953  0.1705 -2.6911  0.8917
  762MOL0     H  562   4.541  -1.477   0.981  5.1742 -1.1920 -1.6039
  762MOL0     H  563   4.593  -1.426   0.837 -1.6863 -0.8250 -1.2892
  762MOL0     H  564   4.509  -1.223   1.064 -0.7062  0.4390  0.2693
  762MOL0     H  565   4.578  -1.177   0.904  2.9287  0.3087  0.7996
  762MOL0     H  566   4.261  -0.808   0.964 -0.4569 -2.1576 -2.0773
  762MOL0     H  567   4.248  -0.661   1.180 -2.2778  3.2786  0.5989
  762MOL0     H  568   4.085  -0.357   1.406 -2.2263 -2.6125 -1.5009
  762MOL0     H  569   4.112  -0.218   1.625  4.2501 -0.6792 -2.5112
  762MOL0     H  570   5.343   0.586   2.726  0.7372  1.7809 -1.2112
  762MOL0     H  571   5.535   0.522   2.847 -2.2086 -0.3824 -1.7374
  762MOL0     H  572   5.826   0.793   3.187 -0.6280 -0.0135  2.4532
  762MOL0     H  573   6.018   0.810   3.313  1.5623  0.3118  1.1416
  762MOL0     H  574   6.371   0.701   3.416 -1.6554 -1.6534  1.4911
  762MOL0     H  575   6.226   0.813   3.393  0.0545 -0.5935  0.2845
  762MOL0     H  576   6.238   0.800   3.160  1.1444 -2.5260 -4.9046
  762MOL0     H  577   6.396   0.829   3.208  0.9607 -0.5779  2.1159
  762MOL0     H  578   6.400   0.665   3.037  0.9026 -0.3163 -0.0161
  762MOL0     H  579   6.267   0.577   3.123  0.3329 -0.3288  0.9934
  762MOL0     H  580   6.526   0.578   3.293 -1.5293 -2.1739  3.5814
  762MOL0     H  581   6.403   0.462   3.269  2.1353  0.9777  3.6533
  762MOL0     H  582   6.697   0.287   3.040  0.3704  0.2024 -0.9807
  762MOL0     H  583   6.099   0.389   3.270 -1.3826  0.1240  0.5842
  762MOL0     H  584   5.894   0.359   3.150  2.8321 -0.6393  1.9376
  763MOL0     O  585   7.356   8.211   8.471  0.3407 -1.0358  0.2143
  763MOL0     C  586   7.305   8.326   8.461 -0.6001 -0.3570  0.5768
  763MOL0     O  587   7.345   8.425   8.375 -0.9775 -0.0891  0.8201
  763MOL0     C  588   7.419   8.410   8.264 -0.0688  1.1943 -0.4547
  763MOL0     C  589   7.403   8.516   8.174  0.6028 -0.1565  0.1428
  763MOL0     C  590   7.465   8.511   8.044  0.5928  0.3439  0.7511
  763MOL0     C  591   7.534   8.395   8.004 -1.2288  0.4047  0.8130
  763MOL0     O  592   7.602   8.384   7.891  0.0753  0.1164  0.4223
  763MOL0     C  593   7.545   8.299   7.794  0.9984 -0.2482 -0.0824
  763MOL0     C  594   7.577   8.345   7.656  0.6276 -0.3833  0.1960
  763MOL0     C  595   7.557   8.498   7.645 -0.0478 -0.2139  0.7511
  763MOL0     C  596   7.527   8.554   7.499 -0.4801 -0.1385  0.4922
  763MOL0     C  597   7.533   8.702   7.506  0.5720 -0.7257 -0.4043
  763MOL0     C  598   7.422   8.761   7.592  0.0458  0.3272 -0.6279
  763MOL0     C  599   7.427   8.917   7.598  0.0947  0.0396 -0.4679
  763MOL0     C  600   7.312   8.968   7.689  0.7963  0.1946  1.1620
  763MOL0     N  601   7.334   8.947   7.832 -0.4181 -0.4556  0.5784
  763MOL0     C  602   7.438   9.007   7.907 -0.0798  0.7164  0.6929
  763MOL0     C  603   7.424   8.946   8.031  0.5947  0.4676 -0.0924
  763MOL0     C  604   7.516   8.969   8.146  0.0118 -0.2839  0.4065
  763MOL0     C  605   7.633   8.869   8.137 -0.2018  0.4954  0.3522
  763MOL0     C  606   7.682   8.835   8.278 -0.4795 -0.4183  0.1091
  763MOL0     C  607   7.819   8.779   8.275  0.8065 -0.2993  0.1199
  763MOL0     O  608   7.782   8.656   8.203  0.6374 -0.9717  0.5392
  763MOL0     C  609   7.879   8.561   8.185 -0.4830  0.4600  0.2900
  763MOL0     C  610   7.856   8.461   8.092  0.8059  0.7925 -0.0324
  763MOL0     C  611   7.954   8.365   8.065 -1.2230  0.0534 -0.0265
  763MOL0     C  612   8.079   8.359   8.123 -0.4823 -0.1207 -0.6084
  763MOL0     C  613   8.180   8.253   8.086  0.0003 -0.5801 -0.0532
  763MOL0     O  614   8.147   8.178   7.981 -0.4436 -0.8897  0.9385
  763MOL0     C  615   8.192   8.055   7.957  0.0182 -0.0061  0.1957
  763MOL0     C  616   8.233   8.018   7.826 -0.0293 -0.0217  0.5849
  763MOL0     C  617   8.300   7.900   7.806  1.7225 -0.0546 -0.4509
  763MOL0     C  618   8.335   7.811   7.913 -0.2846 -0.0910  1.2079
  763MOL0     O  619   8.401   7.685   7.908  0.5826 -0.5400 -0.4733
  763MOL0     C  620   8.463   7.649   7.778 -0.4249 -0.5578  0.1814
  763MOL0     C  621   8.538   7.516   7.808 -0.6429  0.9910 -0.4042
  763MOL0     C  622   8.611   7.509   7.941  0.0310  0.2085 -0.0555
  763MOL0     C  623   8.695   7.384   7.980  0.1735  0.8022 -0.0254
  763MOL0     C  624   8.611   7.306   8.083 -0.5445  0.3072 -1.1382
  763MOL0     C  625   8.688   7.174   8.123  0.4998 -0.3747  1.2270
  763MOL0     C  626   8.662   7.053   8.029  0.0793  0.1397  0.2084
  763MOL0     C  627   8.554   6.953   8.078  1.1310 -0.3104 -0.7723
  763MOL0    Cl  628   8.617   6.849   8.197  0.4159 -0.0735  0.0246
  763MOL0     C  629   8.296   7.858   8.039  0.1173  0.8294 -0.4702
  763MOL0     C  630   8.222   7.969   8.061 -0.5113 -0.8626  0.3501
  763MOL0     O  631   8.278   8.233   8.159  0.6002  0.2194  0.2781
  763MOL0     C  632   8.093   8.446   8.234 -0.0324  0.2543  0.1446
  763MOL0     C  633   7.996   8.547   8.267  0.3939 -0.1400 -0.2788
  763MOL0     N  634   7.321   8.852   8.026  0.1561  0.3988  0.0912
  763MOL0     N  635   7.275   8.848   7.902  0.0329  0.8286 -1.0598
  763MOL0     C  636   7.559   8.297   8.097 -0.5021  0.1992  0.3141
  763MOL0     C  637   7.495   8.304   8.228 -0.9482  0.4118  0.8828
  763MOL0     C  638   7.190   8.372   8.542 -0.1792 -0.5652 -0.2053
  763MOL0     C  639   7.127   8.284   8.636  0.8242  0.4478  0.2449
  763MOL0     C  640   7.011   8.329   8.713 -0.2241  0.5294  0.2450
  763MOL0     C  641   6.972   8.461   8.697  0.0479 -1.1624 -0.3872
  763MOL0     O  642   6.881   8.523   8.770  0.4717  1.1125 -0.3669
  763MOL0     C  643   6.817   8.463   8.889  0.0866  0.3165  0.4566
  763MOL0     C  644   6.690   8.393   8.853  0.4132  0.1267  0.8964
  763MOL0     C  645   6.591   8.481   8.768 -0.4682  0.2410 -0.5004
  763MOL0     C  646   6.507   8.580   8.842 -0.2465 -0.4713  1.5848
  763MOL0     C  647   6.430   8.521   8.955  0.0881  0.2389  0.4116
  763MOL0     C  648   6.350   8.483   9.031 -0.2753  0.6127 -1.4272
  763MOL0     C  649   7.040   8.552   8.619  1.2330  0.1590  0.5843
  763MOL0     C  650   7.146   8.505   8.539 -0.9309 -0.0325  0.3031
  763MOL0     H  651   7.356   8.610   8.203  2.0226 -0.0141  2.1737
  763MOL0     H  652   7.464   8.596   7.976 -0.2436  1.6192  2.2931
  763MOL0     H  653   7.437   8.293   7.802  0.8943  1.7750  0.4367
  763MOL0     H  654   7.586   8.198   7.803  0.1835 -0.4103  2.4049
  763MOL0     H  655   7.525   8.297   7.572 -0.6407 -1.9457  1.8065
  763MOL0     H  656   7.681   8.324   7.630  0.6517 -0.4431  0.3414
  763MOL0     H  657   7.651   8.548   7.669 -1.1580  3.5431 -1.8114
  763MOL0     H  658   7.478   8.518   7.718  0.6122  0.2565  1.3518
  763MOL0     H  659   7.604   8.514   7.432 -0.4881  1.4073 -0.4932
  763MOL0     H  660   7.434   8.509   7.464 -0.3895  0.4698 -0.5492
  763MOL0     H  661   7.528   8.743   7.404 -3.7820  1.0319  0.3004
  763MOL0     H  662   7.630   8.735   7.544  0.4990 -0.5393 -0.3793
  763MOL0     H  663   7.423   8.732   7.698 -2.0194  4.2803  0.6760
  763MOL0     H  664   7.319   8.743   7.558 -0.4981  0.1658  0.9995
  763MOL0     H  665   7.523   8.954   7.635 -1.0728 -0.4151  3.4424
  763MOL0     H  666   7.409   8.962   7.500 -1.0336  0.6032 -0.0276
  763MOL0     H  667   7.221   8.917   7.658  0.8668  0.6904  0.1009
  763MOL0     H  668   7.299   9.075   7.668  0.1959  0.2053  1.5704
  763MOL0     H  669   7.512   9.078   7.873 -0.8970  1.4395  0.3801
  763MOL0     H  670   7.467   8.953   8.243  2.0612  2.0051  1.9331
  763MOL0     H  671   7.530   9.077   8.146 -2.0297  0.0855  3.0201
  763MOL0     H  672   7.712   8.917   8.079  0.4371  0.6903  1.3576
  763MOL0     H  673   7.592   8.777   8.094 -0.9361  0.8593  0.2529
  763MOL0     H  674   7.689   8.926   8.339 -2.9736 -0.4403  0.5405
  763MOL0     H  675   7.613   8.770   8.334  0.3810  0.3169  2.1442
  763MOL0     H  676   7.847   8.756   8.378  3.2160  0.2937 -0.3343
  763MOL0     H  677   7.897   8.835   8.222 -0.3865 -1.9628 -3.7931
  763MOL0     H  678   7.763   8.459   8.036 -0.7645 -4.4025  2.1834
  763MOL0     H  679   7.940   8.293   7.986  0.2738  0.1426 -0.4096
  763MOL0     H  680   8.231   8.084   7.739  1.7634 -2.1396 -1.2115
  763MOL0     H  681   8.315   7.882   7.700  0.9068  1.2072 -0.7916
  763MOL0     H  682   8.531   7.727   7.742 -2.4498  0.4163 -1.8851
  763MOL0     H  683   8.380   7.625   7.711  1.2368 -2.4283 -1.3215
  763MOL0     H  684   8.613   7.502   7.730 -0.3917 -0.7601  0.1213
  763MOL0     H  685   8.473   7.429   7.794  0.2082  0.6211 -2.3103
  763MOL0     H  686   8.540   7.527   8.022 -1.4836  0.6193 -1.4180
  763MOL0     H  687   8.675   7.598   7.938 -1.3928  1.2311 -1.1453
  763MOL0     H  688   8.722   7.310   7.904 -3.2549 -1.6703  0.8925
  763MOL0     H  689   8.788   7.424   8.021  0.4570  0.6613 -0.5180
  763MOL0     H  690   8.512   7.268   8.057 -1.5293  0.3296  2.1219
  763MOL0     H  691   8.594   7.368   8.171 -2.3809 -1.8020  0.0817
  763MOL0     H  692   8.668   7.143   8.226 -0.1759  2.1817  1.9472
  763MOL0     H  693   8.792   7.204   8.133  0.8783 -0.2949 -2.0706
  763MOL0     H  694   8.618   7.090   7.936  1.8947  2.8328  0.2890
  763MOL0     H  695   8.759   7.010   8.002  1.1312  2.5925 -0.2897
  763MOL0     H  696   8.524   6.889   7.994 -2.3423  0.2241 -0.1243
  763MOL0     H  697   8.460   6.991   8.121  2.3303  3.0445 -0.8005
  763MOL0     H  698   8.328   7.803   8.127  0.2086 -1.8538 -2.0443
  763MOL0     H  699   8.198   8.001   8.162  0.0395  0.7867 -0.0069
  763MOL0     H  700   8.179   8.426   8.298  0.6236 -1.6095 -1.2411
  763MOL0     H  701   8.025   8.601   8.356 -0.3550 -0.0357 -0.0876
  763MOL0     H  702   7.635   8.221   8.086 -1.1930 -0.7127  1.5993
  763MOL0     H  703   7.512   8.226   8.301 -1.8961 -0.0580  0.6137
  763MOL0     H  704   7.159   8.181   8.626 -0.6266  0.0925 -1.1348
  763MOL0     H  705   6.977   8.258   8.788  2.4121 -3.6091 -2.0540
  763MOL0     H  706   6.784   8.541   8.958 -1.0723 -0.4862  0.8378
  763MOL0     H  707   6.882   8.392   8.940  0.6121  0.9460  0.6767
  763MOL0     H  708   6.717   8.306   8.792  1.4591  1.3759 -0.5238
  763MOL0     H  709   6.650   8.357   8.948  1.7216  3.0974  2.7216
  763MOL0     H  710   6.533   8.423   8.695 -0.5457  2.3656 -2.2585
  763MOL0     H  711   6.656   8.547   8.709 -1.4413  1.9862  0.3301
  763MOL0     H  712   6.586   8.647   8.873  0.3886  0.6879 -2.0649
  763MOL0     H  713   6.450   8.649   8.779  2.5968  0.4819 -0.1359
  763MOL0     H  714   6.263   8.451   9.085  0.3686 -0.0608 -0.7489
  763MOL0     H  715   7.016   8.658   8.613  1.1265  0.1652  1.0539
  763MOL0     H  716   7.195   8.578   8.475 -0.8070  0.5294  1.0267
  764MOL0     O  717  11.263   9.803   0.985  0.2620 -0.0924 -0.5537
  764MOL0     C  718  11.340   9.883   0.928 -0.1569 -1.3044 -0.5452
  764MOL0     O  719  11.445   9.859   0.851  0.2318  0.7963  0.0715
  764MOL0     C  720  11.447   9.730   0.788  0.2686 -0.9770 -0.1211
  764MOL0     C  721  11.328   9.655   0.754 -0.5617 -0.1632  0.6115
  764MOL0     C  722  11.344   9.539   0.677 -0.0793  0.7475 -1.0961
  764MOL0     C  723  11.463   9.481   0.635 -0.4662  0.0791 -0.1257
  764MOL0     O  724  11.464   9.358   0.567 -0.8147  0.4075  0.3870
  764MOL0     C  725  11.591   9.287   0.554  0.8016  0.6847  0.2964
  764MOL0     C  726  11.587   9.137   0.554  0.6301 -0.1795  0.4162
  764MOL0     C  727  11.478   9.096   0.439 -0.5459  0.0302 -0.3385
  764MOL0     C  728  11.450   8.954   0.463 -0.2394  0.5879  0.6426
  764MOL0     C  729  11.346   8.931   0.573  0.2424 -0.7861 -0.6835
  764MOL0     C  730  11.314   8.783   0.576  0.5334  0.0610 -0.2725
  764MOL0     C  731  11.265   8.733   0.709 -0.2769 -1.0005 -0.0975
  764MOL0     C  732  11.211   8.587   0.703  0.5982 -0.6487 -0.0661
  764MOL0     N  733  11.066   8.592   0.680 -0.5072  0.6384  0.0367
  764MOL0     C  734  10.984   8.703   0.638  0.0174  0.9112  0.5346
  764MOL0     C  735  10.857   8.647   0.643  1.2170 -0.4345  0.0613
  764MOL0     C  736  10.731   8.728   0.615 -0.2041 -0.1462  0.5237
  764MOL0     C  737  10.669   8.693   0.487 -0.3138  0.1492  0.6436
  764MOL0     C  738  10.761   8.665   0.367  0.1584  0.1014 -0.2953
  764MOL0     C  739  10.687   8.608   0.253 -0.1597  0.9594  1.0904
  764MOL0     O  740  10.575   8.689   0.217  0.6504 -1.0744  0.0972
  764MOL0     C  741  10.500   8.655   0.109  0.9382 -0.3011  0.5637
  764MOL0     C  742  10.403   8.761   0.075 -0.1896  0.3207  0.3068
  764MOL0     C  743  10.310   8.744  -0.030 -0.0387  0.4377  0.4619
  764MOL0     C  744  10.298   8.621  -0.083  0.0903  0.7070  0.4006
  764MOL0     C  745  10.192   8.601  -0.179 -0.4395  0.4250 -0.1126
  764MOL0     O  746  10.190   8.685  -0.283  0.1440 -0.0905  0.0874
  764MOL0     C  747  10.127   8.644  -0.402  0.0492 -0.3699 -0.7867
  764MOL0     C  748  10.216   8.612  -0.500  0.7614  1.4259  0.0638
  764MOL0     C  749  10.177   8.556  -0.619  0.8117 -0.5952 -0.0981
  764MOL0     C  750  10.040   8.536  -0.650  0.6172 -0.2943  0.4564
  764MOL0     O  751  10.015   8.468  -0.777  0.1036  0.9282  0.1069
  764MOL0     C  752   9.916   8.364  -0.771 -0.0819 -0.7149 -1.2961
  764MOL0     C  753   9.970   8.250  -0.851  0.2460 -0.0326  0.6446
  764MOL0     C  754  10.000   8.295  -0.997  0.9163  0.1970 -0.1698
  764MOL0     C  755   9.865   8.322  -1.070 -0.2086  0.7892 -0.1059
  764MOL0     C  756   9.885   8.309  -1.222 -0.4558  0.0194  1.1221
  764MOL0     C  757   9.762   8.343  -1.304 -0.3826  0.0050 -0.7207
  764MOL0     C  758   9.812   8.351  -1.454  0.0367 -0.2139  0.3632
  764MOL0     C  759   9.876   8.216  -1.507  0.0969 -0.0915 -0.2998
  764MOL0    Cl  760   9.926   8.235  -1.690 -0.0613  0.0990 -0.4745
  764MOL0     C  761   9.947   8.574  -0.547 -1.0318  0.1159  0.7409
  764MOL0     C  762   9.988   8.631  -0.424  0.2753  0.0643  0.3883
  764MOL0     O  763  10.116   8.505  -0.169 -0.4636  0.5715 -0.7532
  764MOL0     C  764  10.393   8.519  -0.061  0.0994  0.8168 -0.2054
  764MOL0     C  765  10.505   8.540   0.032  0.2371 -0.2378 -0.5749
  764MOL0     N  766  10.874   8.515   0.682  0.3509  0.1723 -0.7658
  764MOL0     N  767  10.988   8.491   0.721 -0.6106 -0.1707 -0.3684
  764MOL0     C  768  11.574   9.559   0.651 -0.4808  0.4577 -0.5116
  764MOL0     C  769  11.568   9.680   0.725 -0.1218  0.0955  1.1168
  764MOL0     C  770  11.331  10.032   0.952 -0.0311 -1.7721 -0.5377
  764MOL0     C  771  11.414  10.131   0.895 -1.1561 -0.4211 -0.3426
  764MOL0     C  772  11.398  10.268   0.934 -0.4045  0.7231  0.3949
  764MOL0     C  773  11.298  10.301   1.029 -0.4763 -0.1146  0.2884
  764MOL0     O  774  11.270  10.433   1.066 -0.3915  0.0470  0.9242
  764MOL0     C  775  11.360  10.543   1.023 -0.8852 -0.1601  1.0639
  764MOL0     C  776  11.295  10.683   1.038 -0.3911 -0.1142  0.7700
  764MOL0     C  777  11.378  10.780   0.959  0.9655 -0.2558 -0.5452
  764MOL0     C  778  11.352  10.924   1.006  0.5106 -0.4326  0.1862
  764MOL0     C  779  11.423  11.014   0.909 -0.4640  0.8859 -0.0735
  764MOL0     C  780  11.488  11.084   0.845 -0.0006 -0.5896  0.6739
  764MOL0     C  781  11.223  10.211   1.085 -0.1379  0.3202 -0.3655
  764MOL0     C  782  11.239  10.073   1.051  0.3026 -1.1712  0.9714
  764MOL0     H  783  11.233   9.689   0.794 -0.2684  1.6697 -0.1430
  764MOL0     H  784  11.247   9.490   0.671 -2.2121  4.6046 -1.4750
  764MOL0     H  785  11.661   9.306   0.636  5.9142  1.9769 -3.8147
  764MOL0     H  786  11.636   9.317   0.459 -1.6482  0.5149 -1.0016
  764MOL0     H  787  11.563   9.099   0.654  0.2669 -2.6060 -0.5131
  764MOL0     H  788  11.678   9.081   0.531 -0.6353 -2.9262  1.6101
  764MOL0     H  789  11.528   9.122   0.345 -0.8849  0.8524 -0.3027
  764MOL0     H  790  11.380   9.144   0.434 -0.9625 -0.8427 -0.8456
  764MOL0     H  791  11.399   8.916   0.374  2.7687 -0.7391 -0.6436
  764MOL0     H  792  11.535   8.890   0.487 -1.0676 -0.6617  0.3410
  764MOL0     H  793  11.259   8.993   0.548  1.1661  0.4199 -1.0091
  764MOL0     H  794  11.380   8.956   0.674 -2.1075  1.6046 -0.3633
  764MOL0     H  795  11.402   8.722   0.555 -0.3507 -0.4622 -2.8167
  764MOL0     H  796  11.245   8.761   0.494 -0.2073  2.0396 -0.2329
  764MOL0     H  797  11.352   8.741   0.775 -1.0080  0.8493  0.7250
  764MOL0     H  798  11.194   8.807   0.748  0.7851  0.2972 -0.5528
  764MOL0     H  799  11.220   8.542   0.803 -3.5913 -0.6666  0.4727
  764MOL0     H  800  11.266   8.532   0.626  0.5054  0.9433 -1.3071
  764MOL0     H  801  11.019   8.801   0.609  0.3713  0.2833 -1.2650
  764MOL0     H  802  10.753   8.835   0.614 -1.8918  0.2323 -0.7360
  764MOL0     H  803  10.655   8.714   0.693 -1.9155  0.9159 -0.8905
  764MOL0     H  804  10.600   8.772   0.458 -0.6221  0.7260  2.7728
  764MOL0     H  805  10.617   8.598   0.503 -2.1241  0.9615 -0.1070
  764MOL0     H  806  10.793   8.765   0.334 -1.4832  1.4445  1.9396
  764MOL0     H  807  10.841   8.597   0.398  0.9848  0.3524 -1.7620
  764MOL0     H  808  10.664   8.504   0.276  3.1089 -0.0599  0.3116
  764MOL0     H  809  10.753   8.600   0.166 -0.7009 -0.6204  0.7849
  764MOL0     H  810  10.416   8.855   0.127  0.3742  0.7272 -0.5527
  764MOL0     H  811  10.247   8.826  -0.062  1.0282  1.4643  0.9146
  764MOL0     H  812  10.322   8.624  -0.476  0.9375 -0.7960  0.5832
  764MOL0     H  813  10.247   8.531  -0.699 -1.2674 -1.1422 -1.8523
  764MOL0     H  814   9.821   8.399  -0.812 -0.5959 -0.5400 -0.0077
  764MOL0     H  815   9.916   8.329  -0.667  5.1513 -2.9960 -1.7614
  764MOL0     H  816   9.893   8.173  -0.851 -0.2752  0.4788  0.1852
  764MOL0     H  817  10.067   8.215  -0.815  0.8965 -2.0845 -2.6928
  764MOL0     H  818  10.054   8.211  -1.041  2.4859  1.4212 -0.7000
  764MOL0     H  819  10.066   8.383  -1.005 -0.5298  1.2359 -1.2307
  764MOL0     H  820   9.790   8.249  -1.037 -2.5791  2.8575 -0.6231
  764MOL0     H  821   9.823   8.419  -1.043 -2.7090 -0.3119  0.2469
  764MOL0     H  822   9.912   8.205  -1.242 -1.6400 -0.2899  1.0745
  764MOL0     H  823   9.966   8.381  -1.242 -0.7668  0.0612 -0.0615
  764MOL0     H  824   9.703   8.424  -1.261 -2.4893 -2.9292  2.4724
  764MOL0     H  825   9.689   8.262  -1.292 -1.3768  0.7516 -1.5380
  764MOL0     H  826   9.726   8.377  -1.516 -0.4871  3.2233  2.2656
  764MOL0     H  827   9.884   8.433  -1.469  1.5126 -1.3002  1.2594
  764MOL0     H  828   9.798   8.140  -1.505  1.3353 -1.4346 -0.9698
  764MOL0     H  829   9.967   8.204  -1.447  0.7316  3.8694 -0.1747
  764MOL0     H  830   9.842   8.548  -0.553 -0.7524 -0.7970 -0.7127
  764MOL0     H  831   9.922   8.667  -0.346  2.3315  2.1562  1.2893
  764MOL0     H  832  10.366   8.424  -0.108 -1.2026  1.5730 -1.0403
  764MOL0     H  833  10.574   8.459   0.051 -0.6488 -0.9095 -0.1470
  764MOL0     H  834  11.667   9.526   0.606 -1.7817 -4.4942 -0.0787
  764MOL0     H  835  11.663   9.732   0.734  1.0469 -1.3531 -1.5875
  764MOL0     H  836  11.491  10.097   0.826 -0.7420  1.0262 -0.6202
  764MOL0     H  837  11.470  10.337   0.892 -1.2072  1.4707  0.2000
  764MOL0     H  838  11.391  10.534   0.919 -0.0711  1.6136  1.1214
  764MOL0     H  839  11.449  10.535   1.087 -0.8206 -1.9493  0.7976
  764MOL0     H  840  11.193  10.671   0.998  0.9741 -1.0812 -2.7645
  764MOL0     H  841  11.297  10.704   1.145  1.7225  1.9519  0.4009
  764MOL0     H  842  11.349  10.770   0.854  2.0333  0.5138 -0.9319
  764MOL0     H  843  11.485  10.764   0.974  0.9914  0.5038  0.1434
  764MOL0     H  844  11.248  10.955   1.019  0.7235  1.6462 -2.1850
  764MOL0     H  845  11.403  10.946   1.100 -1.4774  3.1233  0.6114
  764MOL0     H  846  11.548  11.156   0.791  3.6231 -1.7183  2.8527
  764MOL0     H  847  11.138  10.242   1.145  0.1574 -0.3276  0.4005
  764MOL0     H  848  11.176   9.997   1.098 -0.4064 -1.3510 -0.2429
  765MOL0     O  849   9.211   2.098  10.006  0.8023 -0.5146 -1.0569
  765MOL0     C  850   9.112   2.129  10.082 -0.4980 -0.4634  0.0807
  765MOL0     O  851   8.987   2.075  10.077 -0.1063 -0.5790 -0.9350
  765MOL0     C  852   8.952   1.973   9.997 -0.2296  0.7471  0.0011
  765MOL0     C  853   9.031   1.859   9.973 -0.2405  0.1786 -0.3207
  765MOL0     C  854   9.000   1.770   9.872  0.0128 -0.1233  0.0920
  765MOL0     C  855   8.890   1.789   9.793  0.4146 -0.3581 -0.5807
  765MOL0     O  856   8.859   1.690   9.707 -0.8355  0.9958 -0.2011
  765MOL0     C  857   8.744   1.608   9.743  1.1800  0.0457  0.3418
  765MOL0     C  858   8.720   1.470   9.659  0.1192  0.2098 -0.5612
  765MOL0     C  859   8.836   1.370   9.676  0.0871 -0.2796  0.1669
  765MOL0     C  860   8.798   1.239   9.601 -0.7175  0.1263 -0.4457
  765MOL0     C  861   8.873   1.116   9.656  0.7230  0.4508 -0.2984
  765MOL0     C  862   9.029   1.125   9.645 -0.1499 -0.2874 -0.0611
  765MOL0     C  863   9.082   1.138   9.506  0.4727  0.6417  0.3207
  765MOL0     C  864   9.092   1.017   9.414 -0.6410 -0.4550 -1.2160
  765MOL0     N  865   8.978   0.999   9.328 -0.1348  0.4657  0.7553
  765MOL0     C  866   8.902   0.891   9.323  0.3294 -0.3563  0.1904
  765MOL0     C  867   8.810   0.923   9.235 -0.2323  0.9157  0.3522
  765MOL0     C  868   8.686   0.838   9.204  0.3667  0.2521  0.1772
  765MOL0     C  869   8.558   0.923   9.211 -0.5429  0.6380 -0.3780
  765MOL0     C  870   8.436   0.835   9.175 -0.2590 -0.2546  0.2055
  765MOL0     C  871   8.424   0.797   9.024 -0.2246  0.0012  0.0351
  765MOL0     O  872   8.381   0.910   8.944  0.8827 -0.7548 -0.6277
  765MOL0     C  873   8.329   0.887   8.826 -0.1483  1.2174  0.7664
  765MOL0     C  874   8.219   0.968   8.782 -0.2632  0.6009 -0.6574
  765MOL0     C  875   8.165   0.959   8.657 -0.3261  0.5315  0.6216
  765MOL0     C  876   8.233   0.869   8.567  0.8884  0.7700 -0.0550
  765MOL0     C  877   8.165   0.861   8.435  1.4953 -0.0251 -0.9582
  765MOL0     O  878   8.041   0.922   8.425 -0.6439 -0.1644 -0.1902
  765MOL0     C  879   7.961   0.893   8.318 -0.9380  0.7311  0.1910
  765MOL0     C  880   7.829   0.868   8.329  0.0220 -0.0193  0.4944
  765MOL0     C  881   7.742   0.865   8.216 -0.2880  0.1564 -0.5930
  765MOL0     C  882   7.797   0.862   8.092  0.4078 -0.0027  0.3092
  765MOL0     O  883   7.706   0.821   7.998 -0.4687 -0.0514  0.8047
  765MOL0     C  884   7.744   0.822   7.856 -0.1084  0.0460  1.8564
  765MOL0     C  885   7.634   0.777   7.770  0.1013  0.0531 -1.3996
  765MOL0     C  886   7.667   0.773   7.619 -0.0074  0.3609  0.2738
  765MOL0     C  887   7.788   0.674   7.586 -0.0231  0.2946 -0.3969
  765MOL0     C  888   7.787   0.633   7.442 -0.2646 -0.4471  0.7093
  765MOL0     C  889   7.852   0.747   7.356 -0.3132  0.6986 -0.5861
  765MOL0     C  890   7.857   0.715   7.207  0.9985 -0.5714  0.2289
  765MOL0     C  891   7.877   0.855   7.126  0.2774  0.6091  0.0803
  765MOL0    Cl  892   7.733   0.954   7.161 -0.3165 -0.0344 -0.1835
  765MOL0     C  893   7.931   0.886   8.077  1.1194 -0.3373 -0.2537
  765MOL0     C  894   8.013   0.913   8.187  0.2527 -0.7981  0.6222
  765MOL0     O  895   8.218   0.796   8.348 -0.3664  0.1536 -0.6365
  765MOL0     C  896   8.337   0.788   8.605 -1.0386  0.9688 -0.8127
  765MOL0     C  897   8.386   0.801   8.733 -0.3969  1.4332  0.2536
  765MOL0     N  898   8.843   1.052   9.181  0.3440 -0.3846 -0.3296
  765MOL0     N  899   8.945   1.089   9.246 -0.0938  0.1559  0.7975
  765MOL0     C  900   8.811   1.899   9.810  0.1740  0.3318 -0.4159
  765MOL0     C  901   8.850   1.994   9.908  0.5462  0.3806  0.3301
  765MOL0     C  902   9.150   2.207  10.200  0.6543 -1.0340 -0.0573
  765MOL0     C  903   9.069   2.206  10.318  0.4012 -0.1841  0.5434
  765MOL0     C  904   9.101   2.280  10.431 -0.8595  0.0290  0.9954
  765MOL0     C  905   9.211   2.355  10.436  0.3188 -1.3021  0.2720
  765MOL0     O  906   9.237   2.430  10.545 -0.2348 -0.8035 -0.1304
  765MOL0     C  907   9.347   2.387  10.620  0.7168  0.4876 -0.1295
  765MOL0     C  908   9.293   2.325  10.751  0.2340  0.2503 -0.8253
  765MOL0     C  909   9.232   2.429  10.854  0.9035 -0.1577  0.5550
  765MOL0     C  910   9.310   2.555  10.860  0.3883  0.0722 -0.0736
  765MOL0     C  911   9.274   2.621  10.987  0.4364 -0.5837  0.4295
  765MOL0     C  912   9.248   2.665  11.099 -0.1299  0.0104 -0.4213
  765MOL0     C  913   9.294   2.350  10.328 -0.1658  0.5742 -0.5238
  765MOL0     C  914   9.264   2.291  10.202 -0.2774 -0.1394 -1.2306
  765MOL0     H  915   9.117   1.860  10.039  0.9910  1.1076 -1.8703
  765MOL0     H  916   9.039   1.672   9.845 -2.6883 -0.8641 -1.6050
  765MOL0     H  917   8.657   1.673   9.738 -0.7616 -2.4750 -1.1587
  765MOL0     H  918   8.760   1.577   9.847  1.0331 -1.3082 -0.0245
  765MOL0     H  919   8.704   1.493   9.553  5.3357  1.2521 -1.3971
  765MOL0     H  920   8.634   1.419   9.703  0.6904 -1.0620 -0.8753
  765MOL0     H  921   8.848   1.347   9.782  0.1444 -0.3912  0.1369
  765MOL0     H  922   8.929   1.410   9.633  0.6205 -0.9825  0.6424
  765MOL0     H  923   8.689   1.231   9.601 -0.6116 -2.3307 -2.1380
  765MOL0     H  924   8.820   1.254   9.495 -1.4084 -0.1367 -0.6349
  765MOL0     H  925   8.836   1.021   9.617 -3.7348  0.9463  2.0857
  765MOL0     H  926   8.844   1.104   9.761 -1.7108  1.6739 -0.7755
  765MOL0     H  927   9.061   1.031   9.691  0.0842 -0.4202 -0.4867
  765MOL0     H  928   9.062   1.202   9.715 -5.3199  1.7853  0.5160
  765MOL0     H  929   9.031   1.223   9.459 -0.7143  0.3103  0.9872
  765MOL0     H  930   9.187   1.155   9.531  1.6193 -0.8211 -2.9227
  765MOL0     H  931   9.099   0.929   9.479 -2.5972  0.9427  1.0634
  765MOL0     H  932   9.185   1.032   9.359  1.8174  3.0601  3.1855
  765MOL0     H  933   8.916   0.802   9.384 -0.5401 -1.1267 -0.7093
  765MOL0     H  934   8.681   0.755   9.274  1.9277  1.2315  1.5226
  765MOL0     H  935   8.690   0.809   9.098 -0.4572  0.9803 -0.0689
  765MOL0     H  936   8.561   1.000   9.133 -1.7218  1.2076  0.1030
  765MOL0     H  937   8.544   0.975   9.306  1.2237 -0.0461  0.3018
  765MOL0     H  938   8.429   0.748   9.242  0.3227  1.9713  3.3650
  765MOL0     H  939   8.344   0.890   9.196 -0.0273  0.7111 -1.1645
  765MOL0     H  940   8.356   0.711   9.018  1.1194 -1.0057 -1.6053
  765MOL0     H  941   8.519   0.750   9.001  0.4781  0.5608  1.6496
  765MOL0     H  942   8.196   1.048   8.852  0.5820  0.0329  0.3042
  765MOL0     H  943   8.090   1.031   8.626 -1.6800 -0.7264  0.8819
  765MOL0     H  944   7.790   0.874   8.430  0.7725  0.4223  0.7605
  765MOL0     H  945   7.637   0.839   8.227 -0.6717  1.3864 -1.1915
  765MOL0     H  946   7.834   0.764   7.835  0.1249  0.8016  0.6785
  765MOL0     H  947   7.766   0.927   7.835 -0.3661 -0.4682 -1.5018
  765MOL0     H  948   7.543   0.834   7.796 -0.7343 -2.8931  3.3394
  765MOL0     H  949   7.597   0.683   7.813  0.1989  0.6643  0.1199
  765MOL0     H  950   7.685   0.872   7.576  3.3595 -0.8608 -1.4134
  765MOL0     H  951   7.578   0.733   7.569  2.1441 -0.8275 -2.8435
  765MOL0     H  952   7.885   0.709   7.622 -0.6954 -1.3861  3.6574
  765MOL0     H  953   7.760   0.588   7.649 -0.7439  1.2441  0.6247
  765MOL0     H  954   7.684   0.620   7.407 -0.4983 -1.2145  1.6423
  765MOL0     H  955   7.838   0.538   7.427  1.5398  0.5084  0.5730
  765MOL0     H  956   7.950   0.775   7.396 -0.3404  0.1676 -0.1385
  765MOL0     H  957   7.798   0.839   7.381  2.4602  2.5443 -0.9263
  765MOL0     H  958   7.937   0.647   7.177  3.2461  1.6789  0.7364
  765MOL0     H  959   7.762   0.666   7.188  1.6198 -1.6477 -0.1879
  765MOL0     H  960   7.892   0.827   7.022 -3.5351 -2.4123  0.0948
  765MOL0     H  961   7.967   0.906   7.161  2.1867 -1.4539 -1.5449
  765MOL0     H  962   7.958   0.894   7.973  0.7005  1.2809 -0.2592
  765MOL0     H  963   8.114   0.946   8.167  0.0110 -1.4111 -2.0427
  765MOL0     H  964   8.365   0.704   8.542 -1.1916  1.5611 -1.6944
  765MOL0     H  965   8.471   0.741   8.763  0.3716  1.2050 -2.1775
  765MOL0     H  966   8.727   1.909   9.742 -0.9517  1.9757  1.1418
  765MOL0     H  967   8.796   2.088   9.909  4.7435  3.1104 -1.9136
  765MOL0     H  968   8.978   2.148  10.329  0.9586 -0.6511  3.8780
  765MOL0     H  969   9.038   2.282  10.520 -0.5280  5.3369  1.4784
  765MOL0     H  970   9.415   2.465  10.656 -1.4905  1.3882  2.5057
  765MOL0     H  971   9.412   2.334  10.550  0.8758 -0.3496  0.6368
  765MOL0     H  972   9.208   2.257  10.738  1.8357 -1.8818 -0.6715
  765MOL0     H  973   9.378   2.275  10.799 -1.3766  0.0159  2.0631
  765MOL0     H  974   9.224   2.375  10.948  0.6227 -1.1427 -0.0222
  765MOL0     H  975   9.131   2.463  10.827  0.8113  0.6498  1.8362
  765MOL0     H  976   9.419   2.539  10.860  0.3415 -0.2511 -0.1610
  765MOL0     H  977   9.286   2.632  10.786 -1.3687  0.1219  0.5024
  765MOL0     H  978   9.234   2.680  11.204 -0.7980  0.7907 -0.6164
  765MOL0     H  979   9.393   2.394  10.333  0.5775 -1.0037 -0.6793
  765MOL0     H  980   9.340   2.287  10.124  1.2192 -1.8083  0.2208
  766MOL0     O  981   4.063   7.372   3.945  0.0964 -0.1543 -0.5533
  766MOL0     C  982   3.967   7.326   4.004 -0.2268  0.2120  0.1981
  766MOL0     O  983   3.931   7.362   4.125 -0.5130  0.1476  0.7918
  766MOL0     C  984   4.001   7.460   4.202  0.1401  0.0571  0.3765
  766MOL0     C  985   4.062   7.409   4.313 -0.9815 -0.2642 -0.1598
  766MOL0     C  986   4.140   7.489   4.393 -0.0570  0.0953  0.3454
  766MOL0     C  987   4.148   7.628   4.372  0.1128 -0.0453  0.4624
  766MOL0     O  988   4.229   7.693   4.460 -0.0496  0.1487  0.3034
  766MOL0     C  989   4.321   7.780   4.401  0.6264  0.4479 -0.6066
  766MOL0     C  990   4.457   7.782   4.465 -0.3109  0.6172 -0.5750
  766MOL0     C  991   4.530   7.644   4.478  0.5701 -0.9071 -0.3513
  766MOL0     C  992   4.657   7.652   4.557 -1.0324 -0.1491 -0.2465
  766MOL0     C  993   4.779   7.665   4.464 -0.2475  0.0520  0.1370
  766MOL0     C  994   4.917   7.686   4.538  0.0931  0.4449  0.7908
  766MOL0     C  995   4.937   7.819   4.614  0.3992  0.0296  0.7143
  766MOL0     C  996   4.935   7.938   4.523  0.0829  0.2871  0.2164
  766MOL0     N  997   4.940   8.062   4.600  0.8354  0.1924  0.5029
  766MOL0     C  998   4.839   8.095   4.688  0.0052 -0.6877  0.2142
  766MOL0     C  999   4.882   8.209   4.741  0.1540 -0.3348 -0.8884
  766MOL0     C 1000   4.828   8.294   4.844  0.5010 -0.5734 -0.6151
  766MOL0     C 1001   4.808   8.232   4.979  0.0307  0.0828 -0.1117
  766MOL0     C 1002   4.699   8.307   5.064  0.4257 -0.1629  0.7785
  766MOL0     C 1003   4.651   8.206   5.175 -0.1329 -1.1315  0.1749
  766MOL0     O 1004   4.545   8.269   5.240  0.2824  0.2648  0.2694
  766MOL0     C 1005   4.488   8.226   5.357 -0.2525 -0.4519 -0.3531
  766MOL0     C 1006   4.490   8.092   5.392 -0.2560 -0.6626 -0.0162
  766MOL0     C 1007   4.435   8.050   5.511  1.5364  0.4726 -0.4722
  766MOL0     C 1008   4.357   8.140   5.592  0.1882 -0.1972 -0.2407
  766MOL0     C 1009   4.295   8.101   5.722  0.5666  0.2644 -0.3113
  766MOL0     O 1010   4.337   7.973   5.768 -0.5664 -0.1697 -0.4618
  766MOL0     C 1011   4.277   7.919   5.883  0.5275  0.0923  0.4724
  766MOL0     C 1012   4.348   7.822   5.962 -0.4555  0.0630 -1.1519
  766MOL0     C 1013   4.305   7.763   6.081 -0.4333  0.5864  0.5034
  766MOL0     C 1014   4.181   7.802   6.128 -0.2628 -0.8329  0.4474
  766MOL0     O 1015   4.139   7.737   6.243  0.4544 -0.2318 -0.6627
  766MOL0     C 1016   4.182   7.803   6.361  0.1308  0.3903  0.2037
  766MOL0     C 1017   4.082   7.916   6.401  0.0410  0.1697 -0.6029
  766MOL0     C 1018   3.965   7.859   6.476  0.2111  0.3637 -0.7819
  766MOL0     C 1019   3.856   7.954   6.533 -0.2342 -0.6743  0.8123
  766MOL0     C 1020   3.717   7.903   6.579 -0.4116 -0.5434  1.2222
  766MOL0     C 1021   3.738   7.808   6.691  0.2546  1.5884  0.2402
  766MOL0     C 1022   3.626   7.699   6.704  0.2648 -0.2800 -0.5224
  766MOL0     C 1023   3.664   7.621   6.832  0.1639 -0.0707  0.0285
  766MOL0    Cl 1024   3.621   7.711   6.981  0.1121 -0.7887 -0.8524
  766MOL0     C 1025   4.103   7.895   6.054 -0.0770  0.3695 -0.4687
  766MOL0     C 1026   4.147   7.945   5.929 -0.7124 -1.4848  0.1434
  766MOL0     O 1027   4.234   8.185   5.792 -0.7212  0.3677  0.1247
  766MOL0     C 1028   4.347   8.278   5.537  0.1768  0.5314 -1.0563
  766MOL0     C 1029   4.408   8.315   5.424 -0.1925 -0.3680  0.5326
  766MOL0     N 1030   5.005   8.247   4.697 -0.5990  0.4529  0.1242
  766MOL0     N 1031   5.038   8.158   4.613 -0.8591 -0.0745  0.6189
  766MOL0     C 1032   4.069   7.687   4.270  0.2579 -1.2498 -0.3713
  766MOL0     C 1033   3.999   7.601   4.177  0.3883  1.2256 -0.6252
  766MOL0     C 1034   3.884   7.232   3.930  0.7577 -0.3272 -0.6393
  766MOL0     C 1035   3.902   7.218   3.790 -0.1045 -0.3176  0.9283
  766MOL0     C 1036   3.829   7.137   3.708  0.1153 -0.0995  0.6575
  766MOL0     C 1037   3.719   7.076   3.761 -0.0643  0.0737  0.2517
  766MOL0     O 1038   3.633   7.001   3.683  0.0452  0.0529  0.1816
  766MOL0     C 1039   3.661   6.864   3.677  0.1199  1.1783 -1.1222
  766MOL0     C 1040   3.767   6.826   3.572  0.1772 -0.8261  0.3004
  766MOL0     C 1041   3.752   6.891   3.437 -0.8820 -0.6536 -1.3135
  766MOL0     C 1042   3.609   6.860   3.384 -0.6314  0.5306 -1.0008
  766MOL0     C 1043   3.586   6.898   3.241  0.2240 -0.5759 -0.3660
  766MOL0     C 1044   3.583   6.932   3.126  0.2625  0.0273 -0.3772
  766MOL0     C 1045   3.696   7.085   3.902  0.1625 -0.7024 -0.6346
  766MOL0     C 1046   3.763   7.173   3.979  0.2678  0.2552  0.4247
  766MOL0     H 1047   4.042   7.306   4.340 -1.7011 -0.5322 -1.6298
  766MOL0     H 1048   4.199   7.433   4.465  0.7745  1.5618  0.8525
  766MOL0     H 1049   4.280   7.882   4.404 -1.3285 -0.3063  0.0407
  766MOL0     H 1050   4.345   7.756   4.297  2.1784 -1.9053  0.2330
  766MOL0     H 1051   4.440   7.825   4.565 -0.0821 -0.4858 -0.0462
  766MOL0     H 1052   4.524   7.849   4.411 -2.7950  2.8458 -1.0866
  766MOL0     H 1053   4.543   7.599   4.380  0.2074  0.7897 -1.2177
  766MOL0     H 1054   4.464   7.591   4.548  0.1655 -0.8182 -0.6617
  766MOL0     H 1055   4.658   7.738   4.624  0.3969 -1.2024  1.1666
  766MOL0     H 1056   4.667   7.557   4.612 -0.5332 -0.7992 -1.4188
  766MOL0     H 1057   4.756   7.734   4.382  2.2115 -0.5703 -1.1952
  766MOL0     H 1058   4.784   7.566   4.418 -0.0785 -0.5058  1.3221
  766MOL0     H 1059   4.993   7.678   4.460 -0.9425 -1.6677 -0.0797
  766MOL0     H 1060   4.941   7.609   4.611  4.2502  1.0579  0.3355
  766MOL0     H 1061   4.865   7.834   4.695  0.2818 -0.6064  0.7280
  766MOL0     H 1062   5.035   7.822   4.662 -0.5383 -0.3766  2.7394
  766MOL0     H 1063   4.851   7.935   4.453  0.3092  0.3572 -0.0610
  766MOL0     H 1064   5.029   7.949   4.467 -0.0393  0.3316  0.0201
  766MOL0     H 1065   4.740   8.055   4.708 -0.4747  1.4112  2.4829
  766MOL0     H 1066   4.742   8.348   4.803  2.0366  0.6439 -2.4399
  766MOL0     H 1067   4.893   8.380   4.862 -4.6791  3.8305 -0.3148
  766MOL0     H 1068   4.907   8.227   5.026  0.1271  0.6364 -0.2495
  766MOL0     H 1069   4.767   8.133   4.958  1.9709 -0.2270 -2.9885
  766MOL0     H 1070   4.736   8.398   5.113  1.6128  0.0817 -0.4983
  766MOL0     H 1071   4.614   8.338   5.003  0.0536  0.0881  1.4176
  766MOL0     H 1072   4.722   8.177   5.253  1.2565 -0.9948 -0.9886
  766MOL0     H 1073   4.631   8.118   5.113 -2.3108 -2.2939  2.3685
  766MOL0     H 1074   4.559   8.023   5.345  1.5125 -0.2982  1.9051
  766MOL0     H 1075   4.465   7.950   5.542  0.0020 -0.2892 -1.3156
  766MOL0     H 1076   4.451   7.798   5.936 -0.4353 -3.0893  1.3120
  766MOL0     H 1077   4.363   7.685   6.130 -0.6572  1.2845  1.9390
  766MOL0     H 1078   4.275   7.860   6.352 -2.8146  5.5829 -1.3364
  766MOL0     H 1079   4.200   7.732   6.442  2.7309  0.5870 -0.1220
  766MOL0     H 1080   4.059   7.966   6.306  1.4455  1.2274 -0.3994
  766MOL0     H 1081   4.140   7.989   6.458 -1.3089  0.4235  0.5045
  766MOL0     H 1082   4.002   7.801   6.560  0.2004 -0.1701 -1.1404
  766MOL0     H 1083   3.914   7.791   6.407  0.4380 -1.6943  1.0055
  766MOL0     H 1084   3.900   8.000   6.622  0.4186 -1.5831  0.9685
  766MOL0     H 1085   3.849   8.032   6.457  1.7670 -1.9416 -0.7788
  766MOL0     H 1086   3.669   7.859   6.492 -1.3458  0.6650  1.1021
  766MOL0     H 1087   3.666   7.991   6.621 -0.6040 -0.1543  0.2041
  766MOL0     H 1088   3.751   7.864   6.784  0.2087  0.0067  1.2312
  766MOL0     H 1089   3.839   7.767   6.685 -0.4229 -0.3628  1.3089
  766MOL0     H 1090   3.532   7.747   6.735 -0.1726  0.2082 -2.4948
  766MOL0     H 1091   3.606   7.637   6.617 -1.4881 -0.8227  0.2288
  766MOL0     H 1092   3.773   7.608   6.827  0.4733  2.0512  0.1373
  766MOL0     H 1093   3.604   7.529   6.831 -0.1277  0.0376  2.1120
  766MOL0     H 1094   4.006   7.916   6.099 -1.1111  0.1146 -2.4433
  766MOL0     H 1095   4.089   8.017   5.873  0.0450  1.2239  2.6278
  766MOL0     H 1096   4.294   8.355   5.592  1.9289  1.5940 -0.8015
  766MOL0     H 1097   4.399   8.420   5.400 -2.5249 -0.4811  0.6702
  766MOL0     H 1098   4.051   7.793   4.254 -1.0197 -1.2233  1.0160
  766MOL0     H 1099   3.928   7.649   4.110 -0.7498  0.8187  0.2478
  766MOL0     H 1100   3.986   7.276   3.753  1.0852 -1.3506  1.9569
  766MOL0     H 1101   3.856   7.146   3.604 -2.9737 -2.4508 -0.4990
  766MOL0     H 1102   3.567   6.812   3.655 -1.1139  3.0659 -0.5020
  766MOL0     H 1103   3.694   6.824   3.773 -4.7699  1.0233  0.7565
  766MOL0     H 1104   3.864   6.863   3.603 -0.0310 -0.5505  0.6221
  766MOL0     H 1105   3.776   6.717   3.561 -2.5136 -1.0374 -0.8514
  766MOL0     H 1106   3.829   6.866   3.365 -0.2907  1.0816 -1.3250
  766MOL0     H 1107   3.766   6.997   3.462  0.7410 -1.5353  2.0472
  766MOL0     H 1108   3.582   6.754   3.389 -1.7701  0.8750  1.0611
  766MOL0     H 1109   3.542   6.910   3.454  1.3876 -1.0280  2.2441
  766MOL0     H 1110   3.576   6.946   3.020 -2.7238 -1.5366 -0.5103
  766MOL0     H 1111   3.622   7.022   3.950  0.8423 -0.6296  0.5405
  766MOL0     H 1112   3.743   7.183   4.085  1.9640 -1.5699  0.9915
  767MOL0     O 1113   6.108   3.212   2.132 -0.2589 -0.1468  0.1915
  767MOL0     C 1114   5.985   3.218   2.121  0.2950  0.3108 -0.2060
  767MOL0     O 1115   5.907   3.328   2.149 -1.3738 -0.4379 -0.1707
  767MOL0     C 1116   5.972   3.452   2.148 -0.3323  0.6911 -1.0909
  767MOL0     C 1117   5.974   3.516   2.271 -0.4295 -0.1926 -0.0431
  767MOL0     C 1118   6.035   3.648   2.273 -0.5180 -0.3036  0.0299
  767MOL0     C 1119   6.101   3.695   2.165 -0.8782 -0.4805 -0.0705
  767MOL0     O 1120   6.149   3.825   2.155  0.3041 -0.2084  0.6429
  767MOL0     C 1121   6.153   3.907   2.276  0.9028 -0.9223  0.0311
  767MOL0     C 1122   6.219   4.042   2.263  0.1185  0.0536  0.4438
  767MOL0     C 1123   6.363   4.026   2.208 -0.0379  0.6034 -0.9149
  767MOL0     C 1124   6.436   4.156   2.187  0.3892 -0.4421  0.2715
  767MOL0     C 1125   6.469   4.260   2.304 -0.2614 -0.6219 -0.0839
  767MOL0     C 1126   6.553   4.373   2.263  0.6717  0.6892  0.3062
  767MOL0     C 1127   6.547   4.487   2.363  0.4632 -0.5385 -0.0090
  767MOL0     C 1128   6.625   4.611   2.320 -0.6850 -0.7447  0.8597
  767MOL0     N 1129   6.737   4.611   2.407 -1.2341  0.1542 -0.1218
  767MOL0     C 1130   6.854   4.530   2.393 -0.8582  0.1018 -0.5469
  767MOL0     C 1131   6.941   4.580   2.479 -0.3267  0.0942 -0.0305
  767MOL0     C 1132   7.093   4.540   2.488 -0.1189 -0.1777  0.4192
  767MOL0     C 1133   7.178   4.627   2.399 -0.3848  0.5115  0.3786
  767MOL0     C 1134   7.317   4.580   2.415 -0.5075  0.6511  0.2601
  767MOL0     C 1135   7.412   4.657   2.327  0.1192 -0.6998 -0.9177
  767MOL0     O 1136   7.535   4.587   2.321 -0.6862  1.0904 -0.0040
  767MOL0     C 1137   7.569   4.503   2.213  1.2571  0.7744 -0.4401
  767MOL0     C 1138   7.479   4.408   2.165  0.6782  1.2511 -0.1985
  767MOL0     C 1139   7.521   4.311   2.060  0.5420 -0.8032 -0.9337
  767MOL0     C 1140   7.657   4.316   2.017 -0.0279 -0.0010 -1.1250
  767MOL0     C 1141   7.693   4.223   1.915  0.2671 -0.1392 -0.5426
  767MOL0     O 1142   7.597   4.136   1.865 -0.0211 -0.2750  0.0112
  767MOL0     C 1143   7.649   4.045   1.774 -0.3532 -0.2660 -0.0618
  767MOL0     C 1144   7.708   3.928   1.831  1.0060  1.0515  0.8798
  767MOL0     C 1145   7.742   3.821   1.749 -0.4502 -0.1222  0.3600
  767MOL0     C 1146   7.751   3.839   1.609 -0.1654 -0.2309 -0.6140
  767MOL0     O 1147   7.800   3.727   1.535  0.0902  0.0606 -0.4910
  767MOL0     C 1148   7.741   3.603   1.558  0.7124  0.9584 -0.2021
  767MOL0     C 1149   7.705   3.535   1.423  0.1510  0.0280  0.2198
  767MOL0     C 1150   7.833   3.502   1.342  0.2814 -0.0726  0.1299
  767MOL0     C 1151   7.831   3.494   1.189  0.0298  0.4874  0.5850
  767MOL0     C 1152   7.752   3.377   1.140  0.1908  0.1226 -0.1527
  767MOL0     C 1153   7.681   3.400   1.007  0.7044  0.3819  0.1811
  767MOL0     C 1154   7.772   3.437   0.888  0.0490 -0.1569  0.1302
  767MOL0     C 1155   7.800   3.311   0.796  0.2423 -0.4263 -1.0247
  767MOL0    Cl 1156   7.964   3.231   0.839 -0.2068  0.4069  0.2877
  767MOL0     C 1157   7.697   3.954   1.550  0.7471 -0.5443  0.1099
  767MOL0     C 1158   7.643   4.056   1.631  0.1333  0.3106 -0.2971
  767MOL0     O 1159   7.808   4.228   1.875  1.0607  0.3589  0.0467
  767MOL0     C 1160   7.742   4.415   2.070 -0.3706  0.7571  0.5157
  767MOL0     C 1161   7.699   4.503   2.167  0.6489  0.4765 -0.0201
  767MOL0     N 1162   6.885   4.687   2.549 -0.8079 -0.1510  0.2725
  767MOL0     N 1163   6.771   4.711   2.499  0.2081 -0.6170  0.2106
  767MOL0     C 1164   6.097   3.629   2.041  0.4342 -0.6148 -0.2350
  767MOL0     C 1165   6.035   3.512   2.033  0.2820  0.2680 -0.3584
  767MOL0     C 1166   5.910   3.100   2.066  0.0865  0.1944 -0.1363
  767MOL0     C 1167   5.976   2.982   2.029  0.4479  0.5747 -0.6173
  767MOL0     C 1168   5.915   2.881   1.962 -0.0226  1.2657 -0.4663
  767MOL0     C 1169   5.778   2.896   1.937  0.4190 -0.6461  0.9622
  767MOL0     O 1170   5.708   2.800   1.871  0.2381 -0.1960  0.1717
  767MOL0     C 1171   5.736   2.791   1.734  0.3987 -0.4911 -0.2956
  767MOL0     C 1172   5.596   2.775   1.667  0.4320  0.2227 -0.2015
  767MOL0     C 1173   5.508   2.900   1.651  0.0631  0.1906 -0.3617
  767MOL0     C 1174   5.355   2.883   1.616 -0.8166 -0.4884  0.0980
  767MOL0     C 1175   5.350   2.830   1.482  0.2600  0.8501  0.7166
  767MOL0     C 1176   5.360   2.802   1.362 -0.6204 -0.9072 -0.0866
  767MOL0     C 1177   5.708   3.017   1.975  0.1564  0.5727  0.0655
  767MOL0     C 1178   5.771   3.111   2.043  1.2501  0.4291  0.4143
  767MOL0     H 1179   5.935   3.470   2.361  1.4655 -0.4728  0.6829
  767MOL0     H 1180   6.031   3.704   2.366  2.9866 -2.4311  1.6733
  767MOL0     H 1181   6.185   3.864   2.371  2.2752  2.0150  0.9931
  767MOL0     H 1182   6.050   3.931   2.305  1.4036 -0.7017  1.7258
  767MOL0     H 1183   6.220   4.089   2.362 -0.8243  1.1066 -0.0249
  767MOL0     H 1184   6.164   4.110   2.198 -1.1888 -0.6114  0.8106
  767MOL0     H 1185   6.376   3.953   2.127 -0.9352 -1.8890  1.0570
  767MOL0     H 1186   6.412   3.985   2.296 -0.7375  0.5338 -0.5473
  767MOL0     H 1187   6.533   4.126   2.146  2.1463  1.1854  2.9345
  767MOL0     H 1188   6.381   4.214   2.112  3.6204  2.8776  0.1581
  767MOL0     H 1189   6.495   4.210   2.397  0.9025 -0.5135 -0.3374
  767MOL0     H 1190   6.366   4.297   2.309 -0.7288 -1.9700  0.5527
  767MOL0     H 1191   6.535   4.412   2.163  3.6390  1.0732 -0.1755
  767MOL0     H 1192   6.654   4.329   2.262 -0.2327 -1.5531  0.4488
  767MOL0     H 1193   6.445   4.528   2.363  2.0401  3.9527 -0.4204
  767MOL0     H 1194   6.573   4.448   2.462 -0.3153 -0.6718  0.1484
  767MOL0     H 1195   6.568   4.703   2.338  0.4750 -0.3936  2.9208
  767MOL0     H 1196   6.645   4.608   2.212 -0.2298 -1.6709  0.9647
  767MOL0     H 1197   6.883   4.460   2.316 -0.1958 -0.2883  0.0528
  767MOL0     H 1198   7.110   4.434   2.463  2.7543  0.6480 -1.7021
  767MOL0     H 1199   7.119   4.546   2.594 -1.8168 -1.4395  0.9573
  767MOL0     H 1200   7.175   4.734   2.424  1.3773  0.8435 -0.7060
  767MOL0     H 1201   7.148   4.609   2.295 -0.0770  1.1842  0.1645
  767MOL0     H 1202   7.349   4.600   2.518  0.4761  2.7837 -0.4013
  767MOL0     H 1203   7.324   4.471   2.405  2.3486  0.6189  1.6569
  767MOL0     H 1204   7.433   4.760   2.357 -2.1070 -1.2182  3.0244
  767MOL0     H 1205   7.364   4.667   2.229  2.2872 -0.1215 -1.9943
  767MOL0     H 1206   7.378   4.398   2.201  1.1723 -0.1926  0.8768
  767MOL0     H 1207   7.455   4.227   2.040  0.6982 -1.5258  1.2718
  767MOL0     H 1208   7.718   3.918   1.939  1.1588  1.7631  0.9402
  767MOL0     H 1209   7.776   3.729   1.795 -0.2338 -1.5626 -2.4953
  767MOL0     H 1210   7.642   3.606   1.605  0.7487  0.5520 -0.0909
  767MOL0     H 1211   7.800   3.531   1.616 -0.8234 -0.4240 -0.2823
  767MOL0     H 1212   7.639   3.601   1.366 -0.9840 -2.4231 -1.5441
  767MOL0     H 1213   7.653   3.441   1.445  0.1798 -0.2057 -0.6545
  767MOL0     H 1214   7.878   3.410   1.380  1.0003  0.1387 -0.1910
  767MOL0     H 1215   7.914   3.571   1.369  1.3155 -1.5915  1.0567
  767MOL0     H 1216   7.792   3.585   1.142  0.8864 -0.2758 -1.7808
  767MOL0     H 1217   7.929   3.501   1.140 -1.8162  3.1775 -3.2827
  767MOL0     H 1218   7.675   3.349   1.213 -0.4297 -2.5932 -1.6919
  767MOL0     H 1219   7.819   3.293   1.120 -0.0840 -0.1334 -0.0069
  767MOL0     H 1220   7.599   3.471   1.022 -0.3288 -0.5539 -0.8046
  767MOL0     H 1221   7.627   3.309   0.977  1.7665 -1.4380  3.3052
  767MOL0     H 1222   7.716   3.505   0.823  0.0474 -0.6446 -0.3917
  767MOL0     H 1223   7.860   3.494   0.920 -2.4140  2.2184  3.2602
  767MOL0     H 1224   7.789   3.339   0.691 -1.7713  1.1288 -0.4509
  767MOL0     H 1225   7.723   3.236   0.819  3.3978 -3.0347  2.0236
  767MOL0     H 1226   7.708   3.965   1.443  1.4459 -2.3126 -0.0381
  767MOL0     H 1227   7.578   4.139   1.606 -1.1761 -0.2572  0.9965
  767MOL0     H 1228   7.844   4.419   2.035 -0.6472  2.4199 -0.2207
  767MOL0     H 1229   7.770   4.567   2.220  1.3890 -0.7904  0.5724
  767MOL0     H 1230   6.158   3.677   1.965  2.6467  0.7328  2.1933
  767MOL0     H 1231   6.042   3.461   1.938  1.3704  1.1812 -0.7845
  767MOL0     H 1232   6.084   2.976   2.037  0.2881  0.0335  3.3296
  767MOL0     H 1233   5.969   2.804   1.908  2.5283  0.4584  2.9000
  767MOL0     H 1234   5.798   2.703   1.713  0.5095  0.1993 -3.3154
  767MOL0     H 1235   5.776   2.881   1.688  1.4942 -0.7463  0.1304
  767MOL0     H 1236   5.621   2.730   1.571  3.2285  0.5305  0.2924
  767MOL0     H 1237   5.546   2.694   1.720  1.7370 -3.0298 -3.5009
  767MOL0     H 1238   5.560   2.973   1.589  0.3461  1.1081  0.9256
  767MOL0     H 1239   5.497   2.944   1.750 -0.5871 -3.3746  1.3060
  767MOL0     H 1240   5.308   2.808   1.681  0.2374 -0.3774  1.0134
  767MOL0     H 1241   5.295   2.973   1.632 -0.4613 -0.7662  4.1820
  767MOL0     H 1242   5.375   2.775   1.260  0.7578  2.4844 -0.9185
  767MOL0     H 1243   5.602   3.020   1.948  0.2898  3.8042 -0.4277
  767MOL0     H 1244   5.715   3.194   2.085  0.9652  0.0969  0.6975
  768MOL0     O 1245   0.523   1.675   1.175 -0.4273  0.0056 -0.1641
  768MOL0     C 1246   0.622   1.723   1.125  0.8729 -0.0121 -0.2246
  768MOL0     O 1247   0.719   1.657   1.047 -0.5257  0.0859  0.2623
  768MOL0     C 1248   0.674   1.540   0.979  0.5973 -1.3973  0.9778
  768MOL0     C 1249   0.695   1.525   0.842  0.6622 -0.0450  0.2051
  768MOL0     C 1250   0.679   1.404   0.775  0.0730  0.0788  0.4873
  768MOL0     C 1251   0.631   1.293   0.839 -0.1868  0.7333 -0.5493
  768MOL0     O 1252   0.625   1.170   0.770 -0.1313 -0.8242  0.5326
  768MOL0     C 1253   0.531   1.073   0.821 -0.6659  0.5213  0.9296
  768MOL0     C 1254   0.525   0.934   0.750 -0.0462 -0.4207  0.3053
  768MOL0     C 1255   0.486   0.927   0.607  0.2799  0.0036 -0.3518
  768MOL0     C 1256   0.433   0.780   0.583  0.0284 -0.7426 -0.5167
  768MOL0     C 1257   0.337   0.783   0.462 -0.3488  0.1048 -0.3444
  768MOL0     C 1258   0.420   0.805   0.334  1.2221  0.3686  0.0276
  768MOL0     C 1259   0.328   0.802   0.209  0.3588  0.3821  0.4857
  768MOL0     C 1260   0.195   0.877   0.212  0.8881 -0.4063  0.1738
  768MOL0     N 1261   0.118   0.886   0.087  0.2064  0.4603 -0.1664
  768MOL0     C 1262   0.142   0.816  -0.033  0.5411 -0.1517  0.0273
  768MOL0     C 1263   0.037   0.853  -0.112 -0.0309  0.4805  0.6768
  768MOL0     C 1264   0.031   0.805  -0.258  0.8719  0.2762  0.0242
  768MOL0     C 1265   0.138   0.872  -0.347 -1.0585 -1.0863 -0.0707
  768MOL0     C 1266   0.110   1.022  -0.378 -0.1353 -0.7701 -0.2064
  768MOL0     C 1267   0.225   1.077  -0.462  0.5116  0.2617 -0.5221
  768MOL0     O 1268   0.179   1.077  -0.600 -0.0878  0.1576 -0.4286
  768MOL0     C 1269   0.279   1.096  -0.693 -0.1858  0.0144 -1.6051
  768MOL0     C 1270   0.252   1.044  -0.821 -0.2609 -0.0074 -0.0552
  768MOL0     C 1271   0.354   1.041  -0.916  0.0545  0.8114 -0.9191
  768MOL0     C 1272   0.484   1.097  -0.891  0.6021 -0.0372 -0.7933
  768MOL0     C 1273   0.586   1.098  -1.001  0.3286  0.7149  0.3798
  768MOL0     O 1274   0.536   1.021  -1.105  0.0127 -0.2947 -0.0788
  768MOL0     C 1275   0.609   0.990  -1.210  0.3704  0.4608 -0.3750
  768MOL0     C 1276   0.543   0.917  -1.308  0.2802  0.6167  0.1226
  768MOL0     C 1277   0.617   0.850  -1.404  0.5902  0.1185  1.2099
  768MOL0     C 1278   0.754   0.870  -1.427 -0.7244 -0.1413 -0.9793
  768MOL0     O 1279   0.810   0.798  -1.521  0.1128  0.6695  0.6227
  768MOL0     C 1280   0.901   0.867  -1.602  0.0077 -0.3660 -0.4337
  768MOL0     C 1281   0.879   0.837  -1.749  0.8720 -0.2685  0.3999
  768MOL0     C 1282   0.907   0.699  -1.804 -0.0442  0.4208  0.1209
  768MOL0     C 1283   0.878   0.686  -1.957  0.4575  1.1116  0.9605
  768MOL0     C 1284   0.872   0.530  -1.992 -0.0594 -0.1896 -0.5567
  768MOL0     C 1285   0.836   0.514  -2.143 -0.5650 -0.2179 -0.5893
  768MOL0     C 1286   0.694   0.517  -2.182 -0.0940  0.0795 -0.2576
  768MOL0     C 1287   0.623   0.376  -2.178 -0.0621 -0.3348  0.4639
  768MOL0    Cl 1288   0.586   0.335  -2.007 -0.0475 -0.1119  0.1206
  768MOL0     C 1289   0.820   0.954  -1.335 -0.2934  0.2938  0.3477
  768MOL0     C 1290   0.748   1.006  -1.235  0.0259  0.5445 -0.0545
  768MOL0     O 1291   0.689   1.157  -0.990 -0.1189 -0.5330 -0.5548
  768MOL0     C 1292   0.516   1.144  -0.765  1.1498  1.3321 -0.0628
  768MOL0     C 1293   0.414   1.142  -0.669 -0.0033 -0.2862 -0.2157
  768MOL0     N 1294  -0.040   0.938  -0.047 -0.7519  0.2526 -0.7063
  768MOL0     N 1295   0.004   0.954   0.072  0.1096 -0.0861 -0.8179
  768MOL0     C 1296   0.595   1.310   0.978  0.0053 -0.5886  0.4726
  768MOL0     C 1297   0.616   1.433   1.048 -0.3328 -1.1066 -0.0651
  768MOL0     C 1298   0.647   1.868   1.147 -0.0160  0.9947  0.1897
  768MOL0     C 1299   0.769   1.920   1.116 -0.8696 -0.5421 -0.4004
  768MOL0     C 1300   0.811   2.056   1.146  0.0003  0.5061 -1.0079
  768MOL0     C 1301   0.726   2.145   1.209 -0.2103  0.4823 -0.8681
  768MOL0     O 1302   0.747   2.272   1.256  0.3619 -0.1337  0.2991
  768MOL0     C 1303   0.873   2.347   1.224 -0.1482 -0.6131 -0.5835
  768MOL0     C 1304   0.836   2.471   1.138  0.7175  1.2305 -0.3735
  768MOL0     C 1305   0.947   2.567   1.155  0.1488  0.4007 -0.9053
  768MOL0     C 1306   0.923   2.710   1.088 -0.2488 -0.4583  0.5562
  768MOL0     C 1307   1.031   2.802   1.116 -0.7758 -0.2352  0.3930
  768MOL0     C 1308   1.132   2.879   1.123  0.5454  0.1813 -0.1403
  768MOL0     C 1309   0.591   2.090   1.227 -0.2457  1.0276  0.2078
  768MOL0     C 1310   0.554   1.958   1.202 -0.7157 -0.5102  1.0419
  768MOL0     H 1311   0.754   1.605   0.799  1.9294 -0.6977  0.6614
  768MOL0     H 1312   0.707   1.402   0.671 -1.3128 -1.5223  0.0934
  768MOL0     H 1313   0.429   1.112   0.813 -1.5384 -1.0984  3.1173
  768MOL0     H 1314   0.553   1.052   0.926 -1.6233  1.0734  1.2564
  768MOL0     H 1315   0.464   0.868   0.811  0.4193 -1.5515 -0.4147
  768MOL0     H 1316   0.624   0.887   0.756  0.2737 -0.0717 -1.5447
  768MOL0     H 1317   0.574   0.937   0.544 -1.4456  0.4364 -2.8388
  768MOL0     H 1318   0.413   1.007   0.593 -0.7323 -0.7421  0.4198
  768MOL0     H 1319   0.519   0.713   0.574 -0.2274 -0.8825 -2.3449
  768MOL0     H 1320   0.373   0.744   0.666  0.0605 -1.1056 -0.6479
  768MOL0     H 1321   0.268   0.867   0.467 -2.1125 -1.1655 -1.7574
  768MOL0     H 1322   0.279   0.690   0.458 -2.4024  1.2857  0.5598
  768MOL0     H 1323   0.500   0.731   0.323 -0.1771 -1.1546 -0.4257
  768MOL0     H 1324   0.462   0.905   0.343 -0.8220  1.2459  0.4327
  768MOL0     H 1325   0.388   0.840   0.126 -0.8927 -0.0315 -0.6289
  768MOL0     H 1326   0.302   0.699   0.184 -0.4904  1.1458 -2.0519
  768MOL0     H 1327   0.211   0.976   0.257 -0.2738  0.1139 -0.5217
  768MOL0     H 1328   0.127   0.843   0.291  1.0103  2.3036  1.5853
  768MOL0     H 1329   0.232   0.760  -0.057  0.3135 -1.9845  2.9640
  768MOL0     H 1330  -0.065   0.842  -0.296  0.8630  2.0220  1.5860
  768MOL0     H 1331   0.035   0.696  -0.271  1.9143  0.0662  1.8714
  768MOL0     H 1332   0.137   0.827  -0.447 -3.3130 -0.4290 -0.4091
  768MOL0     H 1333   0.238   0.857  -0.306  0.8555  0.7572 -3.5318
  768MOL0     H 1334   0.011   1.039  -0.420  0.2072  0.5665 -0.5296
  768MOL0     H 1335   0.109   1.087  -0.290  0.5662  2.3391 -2.3348
  768MOL0     H 1336   0.314   1.017  -0.442 -0.8908 -2.4728 -1.8401
  768MOL0     H 1337   0.259   1.174  -0.427  0.5638  0.8248 -2.0516
  768MOL0     H 1338   0.155   1.001  -0.845 -1.6688  1.4566  2.4706
  768MOL0     H 1339   0.320   0.981  -1.000 -2.0733  0.0471  0.4064
  768MOL0     H 1340   0.435   0.908  -1.303  0.1113  2.8500  1.6836
  768MOL0     H 1341   0.556   0.790  -1.471 -2.0986  3.3345  0.5310
  768MOL0     H 1342   1.005   0.846  -1.578 -0.3409 -3.4675 -1.1802
  768MOL0     H 1343   0.881   0.974  -1.594 -0.3060 -0.5472  1.9334
  768MOL0     H 1344   0.932   0.906  -1.815  0.3826 -0.7815 -0.5692
  768MOL0     H 1345   0.773   0.858  -1.766  0.4585 -3.3331 -1.6132
  768MOL0     H 1346   0.864   0.620  -1.742  0.0023  1.4284  1.4930
  768MOL0     H 1347   1.015   0.687  -1.790 -0.1123  0.4171  0.6831
  768MOL0     H 1348   0.792   0.746  -1.987  0.5470  1.1716  0.8166
  768MOL0     H 1349   0.960   0.721  -2.021 -2.3767  1.7873 -2.6544
  768MOL0     H 1350   0.794   0.478  -1.934 -0.2090 -2.2979 -2.4894
  768MOL0     H 1351   0.964   0.475  -1.970 -0.2935  0.7829  3.5804
  768MOL0     H 1352   0.868   0.416  -2.180 -1.1042  0.3950 -2.8095
  768MOL0     H 1353   0.894   0.588  -2.199  2.2784 -1.6471  0.2577
  768MOL0     H 1354   0.633   0.577  -2.114  0.0698 -0.3771  0.2929
  768MOL0     H 1355   0.687   0.544  -2.288 -0.6538  0.4289 -0.1350
  768MOL0     H 1356   0.681   0.303  -2.235  0.1300 -0.2881  0.5975
  768MOL0     H 1357   0.526   0.378  -2.229  0.3195 -2.1147 -0.4242
  768MOL0     H 1358   0.927   0.969  -1.345 -0.8394  3.0974 -3.6802
  768MOL0     H 1359   0.815   1.049  -1.162  3.9489 -4.6121  0.0278
  768MOL0     H 1360   0.612   1.193  -0.758  2.2975 -0.9931  1.4470
  768MOL0     H 1361   0.446   1.181  -0.573 -0.4133 -0.0244 -0.1880
  768MOL0     H 1362   0.569   1.220   1.032  1.8397 -0.7762  1.1147
  768MOL0     H 1363   0.597   1.441   1.155 -1.3120 -1.0885 -0.2400
  768MOL0     H 1364   0.841   1.852   1.071 -2.0534 -2.7164  0.8022
  768MOL0     H 1365   0.908   2.090   1.110 -0.8164  1.0981 -2.7815
  768MOL0     H 1366   0.945   2.283   1.172 -1.4918 -2.2662 -0.5049
  768MOL0     H 1367   0.919   2.372   1.321 -0.3229 -2.9367  0.1738
  768MOL0     H 1368   0.833   2.442   1.032  0.8985  1.0236 -0.3245
  768MOL0     H 1369   0.740   2.513   1.170  0.9797  2.7346 -1.4756
  768MOL0     H 1370   1.039   2.529   1.108 -1.1069  0.1980 -3.3536
  768MOL0     H 1371   0.966   2.584   1.261  0.3685  2.7473 -1.2776
  768MOL0     H 1372   0.920   2.691   0.981  1.6925 -0.3404  0.4446
  768MOL0     H 1373   0.832   2.755   1.128  0.1172 -1.0241  2.0933
  768MOL0     H 1374   1.222   2.935   1.132  0.5985  0.4161 -1.8049
  768MOL0     H 1375   0.510   2.148   1.270 -0.5012 -0.5765  2.0292
  768MOL0     H 1376   0.454   1.920   1.221 -0.3933 -2.2561 -0.4695
  769MOL0     O 1377   4.791  10.321   5.866 -0.0469 -0.8270  0.6743
  769MOL0     C 1378   4.875  10.415   5.883  0.4323 -0.3615  0.5462
  769MOL0     O 1379   4.960  10.424   5.985  0.1531 -0.0924  0.3394
  769MOL0     C 1380   4.988  10.318   6.072 -0.3493  0.2162  0.2881
  769MOL0     C 1381   4.984  10.183   6.040 -0.5496 -0.7533 -0.2411
  769MOL0     C 1382   5.056  10.086   6.120 -0.5070  0.1263 -0.2851
  769MOL0     C 1383   5.104  10.132   6.247 -0.5748 -0.1558  0.1048
  769MOL0     O 1384   5.173  10.046   6.330  0.0555  0.6919 -0.0271
  769MOL0     C 1385   5.095   9.950   6.404  0.0049  0.6266  1.4780
  769MOL0     C 1386   5.167   9.807   6.406  0.5908 -0.5920  1.1450
  769MOL0     C 1387   5.067   9.704   6.456 -0.7077 -0.4621 -0.4111
  769MOL0     C 1388   4.957   9.663   6.351  0.0913  0.3737  0.1469
  769MOL0     C 1389   4.895   9.522   6.383 -0.1416 -0.1399 -0.5038
  769MOL0     C 1390   4.782   9.492   6.293 -0.2849 -0.1934  0.1572
  769MOL0     C 1391   4.738   9.354   6.332 -0.1781 -0.3975  0.4094
  769MOL0     C 1392   4.586   9.340   6.300 -0.5667  0.0323 -0.1897
  769MOL0     N 1393   4.565   9.335   6.153 -0.2085 -0.8558  0.3666
  769MOL0     C 1394   4.499   9.438   6.094  0.3026 -0.8725 -0.1374
  769MOL0     C 1395   4.451   9.385   5.982  1.3453 -0.0288  0.6821
  769MOL0     C 1396   4.354   9.455   5.891 -0.0279 -0.0489 -0.0053
  769MOL0     C 1397   4.403   9.482   5.749 -0.6212 -0.5603  0.8280
  769MOL0     C 1398   4.478   9.611   5.752  0.2972  0.2656  0.0754
  769MOL0     C 1399   4.521   9.644   5.607 -0.2401  0.4943 -0.6804
  769MOL0     O 1400   4.642   9.734   5.612 -0.3758  1.2518 -0.9701
  769MOL0     C 1401   4.635   9.846   5.546  0.5199  0.9227 -0.1870
  769MOL0     C 1402   4.554   9.884   5.433  0.4343  0.3403  0.4900
  769MOL0     C 1403   4.562  10.009   5.375 -0.2264 -0.3003  0.1148
  769MOL0     C 1404   4.637  10.111   5.434 -0.3520  0.5914 -1.0336
  769MOL0     C 1405   4.667  10.225   5.359  0.4279  0.0244 -0.3721
  769MOL0     O 1406   4.643  10.227   5.226  0.5694 -0.2488 -0.0175
  769MOL0     C 1407   4.631  10.344   5.155  0.1518 -0.5727  0.9928
  769MOL0     C 1408   4.727  10.445   5.159  0.2217 -0.4101 -0.8729
  769MOL0     C 1409   4.705  10.560   5.080 -1.1107  0.6674 -0.3072
  769MOL0     C 1410   4.596  10.580   5.001 -0.0661  0.1459  0.4556
  769MOL0     O 1411   4.606  10.705   4.930  0.7756 -0.6268 -1.0622
  769MOL0     C 1412   4.507  10.745   4.835 -0.4258  0.2064 -0.1943
  769MOL0     C 1413   4.550  10.831   4.716  0.4152 -0.9621 -0.1765
  769MOL0     C 1414   4.527  10.983   4.756  0.0069  0.8941 -1.5113
  769MOL0     C 1415   4.513  11.083   4.641 -0.3906  1.1246  0.7089
  769MOL0     C 1416   4.647  11.121   4.593 -0.6212  0.7725  0.7028
  769MOL0     C 1417   4.650  11.228   4.485  0.7904  0.5103 -0.1255
  769MOL0     C 1418   4.782  11.302   4.466  0.8620 -0.0143 -0.5753
  769MOL0     C 1419   4.760  11.415   4.364  0.0613  0.7573  0.0140
  769MOL0    Cl 1420   4.893  11.527   4.358 -0.1777 -0.2685  0.2196
  769MOL0     C 1421   4.492  10.484   5.002 -0.8544 -0.2569  0.1250
  769MOL0     C 1422   4.514  10.372   5.086 -0.1168  0.5362  0.6148
  769MOL0     O 1423   4.722  10.313   5.423  0.2825 -0.5321 -0.4915
  769MOL0     C 1424   4.709  10.083   5.547  0.5179  0.1268  0.3625
  769MOL0     C 1425   4.707   9.954   5.598 -0.6924 -0.0038  1.0290
  769MOL0     N 1426   4.516   9.266   5.963 -0.2838  0.5030  0.6132
  769MOL0     N 1427   4.586   9.239   6.066 -0.5687 -0.3061 -0.6764
  769MOL0     C 1428   5.099  10.265   6.280 -0.2529 -0.9789 -0.4539
  769MOL0     C 1429   5.055  10.353   6.190  0.3667 -1.3790 -0.4342
  769MOL0     C 1430   4.856  10.536   5.801  0.7988  0.1118  0.7429
  769MOL0     C 1431   4.940  10.648   5.815 -0.9493 -0.5271 -0.1808
  769MOL0     C 1432   4.921  10.763   5.734 -0.3617  0.1554 -0.0001
  769MOL0     C 1433   4.830  10.764   5.630  0.0045  0.5440  0.4156
  769MOL0     O 1434   4.803  10.886   5.568  0.2702  0.3819  0.4123
  769MOL0     C 1435   4.759  10.882   5.433  1.6027 -0.3457  0.4743
  769MOL0     C 1436   4.763  11.022   5.371  0.7246  0.6914  0.0452
  769MOL0     C 1437   4.780  11.007   5.216 -0.3941  0.2844  0.6183
  769MOL0     C 1438   4.920  11.001   5.160 -0.6868 -0.0037  0.4271
  769MOL0     C 1439   4.982  11.133   5.156 -0.5356  0.8480  1.1477
  769MOL0     C 1440   5.029  11.240   5.190 -1.3832  1.0748  1.1172
  769MOL0     C 1441   4.751  10.652   5.607  0.1782 -1.0798  0.5368
  769MOL0     C 1442   4.762  10.537   5.692 -0.0303  0.8469 -1.0258
  769MOL0     H 1443   4.938  10.144   5.949 -2.7005 -0.7275  0.7973
  769MOL0     H 1444   5.060   9.980   6.096 -1.8096 -0.3895  1.5592
  769MOL0     H 1445   4.995   9.952   6.361  0.8327  0.4097 -0.6173
  769MOL0     H 1446   5.101   9.976   6.510 -0.7069 -1.7952  2.1797
  769MOL0     H 1447   5.256   9.801   6.470  1.7570 -0.7262 -0.4435
  769MOL0     H 1448   5.208   9.790   6.306 -1.0916  2.5368 -0.2581
  769MOL0     H 1449   5.023   9.727   6.554 -1.5508 -0.9971 -0.6543
  769MOL0     H 1450   5.130   9.618   6.477  1.1745  0.7385 -0.9079
  769MOL0     H 1451   4.881   9.740   6.333 -1.3602 -1.3729 -1.7066
  769MOL0     H 1452   5.015   9.637   6.262 -0.9189  0.4487 -0.5504
  769MOL0     H 1453   4.858   9.530   6.486 -1.7191  0.1098 -1.0551
  769MOL0     H 1454   4.970   9.444   6.372  0.0116 -0.4398  1.9589
  769MOL0     H 1455   4.810   9.488   6.187  0.3578 -0.1635  0.3197
  769MOL0     H 1456   4.705   9.569   6.305 -1.1584 -0.9480 -0.5151
  769MOL0     H 1457   4.792   9.280   6.272  1.1143 -0.0207  1.0650
  769MOL0     H 1458   4.747   9.326   6.438 -1.6220 -1.7527  0.2167
  769MOL0     H 1459   4.532   9.423   6.347  0.2267 -0.3999  1.5664
  769MOL0     H 1460   4.545   9.243   6.331  0.2329 -0.9221 -1.9882
  769MOL0     H 1461   4.456   9.531   6.128  1.8507  0.6536 -2.1176
  769MOL0     H 1462   4.326   9.551   5.933 -0.2180 -0.0115 -0.2157
  769MOL0     H 1463   4.267   9.390   5.880 -0.6386  0.7845 -0.1772
  769MOL0     H 1464   4.314   9.497   5.687 -1.7103 -0.4630  2.3327
  769MOL0     H 1465   4.461   9.398   5.711 -0.4410  1.0377 -2.7752
  769MOL0     H 1466   4.415   9.690   5.792 -1.5368 -1.6680  1.2187
  769MOL0     H 1467   4.576   9.596   5.800  0.6066  2.9950  0.4683
  769MOL0     H 1468   4.435   9.683   5.552 -2.1778 -3.9928 -1.2738
  769MOL0     H 1469   4.543   9.548   5.560 -1.7961 -1.0237  1.4832
  769MOL0     H 1470   4.490   9.811   5.386  2.0183  0.9980 -3.0372
  769MOL0     H 1471   4.514  10.022   5.278 -0.1162 -0.9243 -0.0268
  769MOL0     H 1472   4.808  10.443   5.232 -2.3636  1.6414  2.3405
  769MOL0     H 1473   4.778  10.640   5.077 -0.3114  0.0748  1.8891
  769MOL0     H 1474   4.432  10.803   4.890 -0.1018  0.2270  0.2283
  769MOL0     H 1475   4.453  10.656   4.801  0.6012 -0.9352  1.0019
  769MOL0     H 1476   4.484  10.814   4.631  1.6495 -0.6059 -1.2314
  769MOL0     H 1477   4.654  10.805   4.697 -0.9741 -4.6158 -4.6147
  769MOL0     H 1478   4.600  11.014   4.832  0.6136  0.1182 -1.7605
  769MOL0     H 1479   4.433  10.993   4.810  0.3820  0.0712 -0.6620
  769MOL0     H 1480   4.452  11.039   4.562  1.7827 -0.8573  0.0201
  769MOL0     H 1481   4.463  11.172   4.681  1.0600  1.4033  2.0330
  769MOL0     H 1482   4.691  11.032   4.545 -1.5652  0.5497  0.2182
  769MOL0     H 1483   4.711  11.138   4.679  2.6164  2.4456 -1.8214
  769MOL0     H 1484   4.569  11.294   4.519  0.1312  0.3474 -1.3073
  769MOL0     H 1485   4.621  11.180   4.391  1.5457 -1.1714  0.4592
  769MOL0     H 1486   4.823  11.351   4.555 -1.3340  1.8886 -0.5143
  769MOL0     H 1487   4.855  11.229   4.429 -0.4196 -2.8994  2.2284
  769MOL0     H 1488   4.670  11.461   4.405  0.0606 -0.0817  0.9940
  769MOL0     H 1489   4.746  11.361   4.270  5.9638  0.3670 -1.0345
  769MOL0     H 1490   4.396  10.481   4.951 -0.6450 -0.7034 -0.2566
  769MOL0     H 1491   4.434  10.299   5.093 -1.2936  1.6647 -0.6344
  769MOL0     H 1492   4.765  10.157   5.603 -1.2164 -0.2556  2.7608
  769MOL0     H 1493   4.763   9.934   5.689  1.6270  4.2274  0.7534
  769MOL0     H 1494   5.140  10.313   6.369  2.2054 -3.0865 -0.3282
  769MOL0     H 1495   5.059  10.459   6.214 -0.1397 -1.7931  1.6185
  769MOL0     H 1496   5.019  10.648   5.889  4.0782  3.1723 -4.7622
  769MOL0     H 1497   5.000  10.837   5.741 -0.6012  0.7140 -2.2205
  769MOL0     H 1498   4.657  10.843   5.428  2.2657 -2.0204 -0.3213
  769MOL0     H 1499   4.821  10.812   5.377  0.5769 -1.3629  0.5609
  769MOL0     H 1500   4.677  11.089   5.384 -0.0634  0.0608 -1.5303
  769MOL0     H 1501   4.844  11.076   5.420  2.1415 -0.1259 -1.3213
  769MOL0     H 1502   4.725  11.089   5.169 -0.1995  0.6740  1.0690
  769MOL0     H 1503   4.731  10.913   5.188 -2.7569  2.4051 -3.1448
  769MOL0     H 1504   4.987  10.931   5.211 -0.2899  1.0019  1.2982
  769MOL0     H 1505   4.910  10.967   5.056 -0.1086 -0.3246  0.4724
  769MOL0     H 1506   5.071  11.336   5.213 -0.3554  1.3281 -1.4082
  769MOL0     H 1507   4.690  10.646   5.518  1.2491 -2.4259 -0.1435
  769MOL0     H 1508   4.703  10.450   5.666 -1.0885  0.0910  3.1274
  770MOL0     O 1509   3.628   8.026   4.308  0.1175  0.2004  0.6012
  770MOL0     C 1510   3.640   8.074   4.418  0.3810  0.0455 -1.3643
  770MOL0     O 1511   3.676   8.001   4.526  0.0041  0.0927  0.7409
  770MOL0     C 1512   3.668   7.865   4.520  0.3049  0.1983  0.1409
  770MOL0     C 1513   3.771   7.785   4.462 -0.0813 -0.0039  0.0908
  770MOL0     C 1514   3.755   7.646   4.449  1.1455 -1.0163 -0.0928
  770MOL0     C 1515   3.629   7.594   4.486 -0.4219 -0.0062  0.1785
  770MOL0     O 1516   3.599   7.458   4.473  0.1396 -0.0295  0.6101
  770MOL0     C 1517   3.681   7.384   4.383  0.2052 -0.0102  0.8273
  770MOL0     C 1518   3.768   7.279   4.456  1.5313 -0.5487 -0.0027
  770MOL0     C 1519   3.673   7.167   4.514  0.4586  0.1394 -0.5266
  770MOL0     C 1520   3.630   7.079   4.412  0.5168  0.2539 -0.5841
  770MOL0     C 1521   3.549   6.960   4.459  0.0694  0.4933  0.3680
  770MOL0     C 1522   3.499   6.889   4.329  0.0070  0.7583 -0.0601
  770MOL0     C 1523   3.447   6.752   4.365  0.0090  0.8614  0.3474
  770MOL0     C 1524   3.376   6.668   4.248  0.2225 -0.5959 -0.6342
  770MOL0     N 1525   3.318   6.756   4.147 -0.0683  0.3007  0.0594
  770MOL0     C 1526   3.370   6.774   4.016 -0.1270  0.7456  0.3635
  770MOL0     C 1527   3.272   6.823   3.942  0.6993  0.0263  0.2955
  770MOL0     C 1528   3.276   6.849   3.791 -0.0423  0.1480 -0.0596
  770MOL0     C 1529   3.321   6.993   3.762  0.5887 -0.4153 -0.5227
  770MOL0     C 1530   3.207   7.092   3.804 -0.8419 -0.6256 -0.2889
  770MOL0     C 1531   3.251   7.232   3.789  1.0449  0.3060 -0.5883
  770MOL0     O 1532   3.328   7.256   3.676 -0.5767 -0.2505 -0.4814
  770MOL0     C 1533   3.273   7.256   3.550  0.0885 -0.3304 -0.0044
  770MOL0     C 1534   3.154   7.313   3.510  0.6427  0.2954 -0.2997
  770MOL0     C 1535   3.113   7.314   3.376 -1.0244 -0.7253  0.4890
  770MOL0     C 1536   3.199   7.274   3.271 -0.1085 -0.4813 -0.3050
  770MOL0     C 1537   3.141   7.273   3.137 -0.3247  0.2775  0.4388
  770MOL0     O 1538   2.998   7.273   3.127  0.5966 -0.5604 -0.0110
  770MOL0     C 1539   2.956   7.291   3.005  0.5737 -0.3542  0.6499
  770MOL0     C 1540   2.951   7.184   2.913  0.3851 -0.7681  0.2339
  770MOL0     C 1541   2.899   7.213   2.787 -0.1643 -0.2254 -0.2228
  770MOL0     C 1542   2.857   7.340   2.750 -0.4258 -0.0482 -0.9857
  770MOL0     O 1543   2.813   7.360   2.625  0.7050 -0.3862  0.1656
  770MOL0     C 1544   2.843   7.471   2.548  0.2044 -0.1851 -0.2004
  770MOL0     C 1545   2.999   7.482   2.518  0.0889 -0.9774 -0.5042
  770MOL0     C 1546   3.027   7.557   2.391  0.1867  0.1669 -0.4208
  770MOL0     C 1547   2.973   7.481   2.259  0.4506  0.3041 -0.2317
  770MOL0     C 1548   3.048   7.540   2.146  0.4716  0.5724 -0.1713
  770MOL0     C 1549   2.997   7.490   2.012 -0.3075  0.8233  0.2023
  770MOL0     C 1550   3.059   7.559   1.887 -0.3609  0.7535 -0.8732
  770MOL0     C 1551   3.058   7.470   1.759 -0.1988 -0.8287 -0.1750
  770MOL0    Cl 1552   3.112   7.583   1.632  0.6523  0.0045 -0.2595
  770MOL0     C 1553   2.864   7.440   2.846  0.7744 -0.1968 -0.8261
  770MOL0     C 1554   2.914   7.420   2.968 -0.4263  0.4822  0.0455
  770MOL0     O 1555   3.223   7.271   3.045 -0.5886 -0.6570 -0.1713
  770MOL0     C 1556   3.321   7.216   3.311  0.7832  0.7212 -0.6084
  770MOL0     C 1557   3.353   7.214   3.448  0.3410  0.7826  0.2378
  770MOL0     N 1558   3.165   6.841   4.033  0.2198 -0.0219  0.1027
  770MOL0     N 1559   3.188   6.792   4.149  1.1548  0.4420 -0.1072
  770MOL0     C 1560   3.530   7.673   4.535  0.9525  1.1980  0.3449
  770MOL0     C 1561   3.545   7.803   4.551  0.8255  0.0980 -0.1457
  770MOL0     C 1562   3.638   8.220   4.433  0.1138 -0.2882 -0.2126
  770MOL0     C 1563   3.655   8.272   4.567  0.1111  0.4265  0.4007
  770MOL0     C 1564   3.681   8.409   4.580  0.1888 -0.8138  0.4895
  770MOL0     C 1565   3.682   8.495   4.466  0.3088 -0.1515  0.6911
  770MOL0     O 1566   3.722   8.624   4.476 -0.5618 -0.0943  0.2598
  770MOL0     C 1567   3.751   8.710   4.366 -0.8053  0.0118  0.1990
  770MOL0     C 1568   3.811   8.832   4.420  0.2347 -0.3733  0.2493
  770MOL0     C 1569   3.933   8.809   4.508 -0.3654 -0.5629 -0.0460
  770MOL0     C 1570   4.055   8.714   4.469  0.1459 -0.9080 -0.6965
  770MOL0     C 1571   4.049   8.563   4.466 -0.1560 -0.4913  0.0272
  770MOL0     C 1572   4.053   8.440   4.444  0.0364  1.4275  0.2582
  770MOL0     C 1573   3.639   8.445   4.338 -0.3840 -0.6658 -0.3758
  770MOL0     C 1574   3.631   8.310   4.329 -0.3287 -1.0710 -0.0829
  770MOL0     H 1575   3.852   7.836   4.411 -2.1652  2.2631 -1.1442
  770MOL0     H 1576   3.846   7.593   4.422  2.2902  0.6922  0.2838
  770MOL0     H 1577   3.742   7.443   4.314  1.6108 -2.6738 -0.3474
  770MOL0     H 1578   3.611   7.344   4.309 -0.3348 -1.9722  2.2850
  770MOL0     H 1579   3.826   7.324   4.537  1.0402 -2.9067  1.7736
  770MOL0     H 1580   3.821   7.246   4.366  1.5470 -0.5916  0.0227
  770MOL0     H 1581   3.579   7.208   4.552  1.8826  1.3971  1.8553
  770MOL0     H 1582   3.715   7.111   4.598 -4.1858 -0.9184  1.4092
  770MOL0     H 1583   3.571   7.143   4.345 -1.2005  0.4172  0.9852
  770MOL0     H 1584   3.717   7.036   4.361 -0.6794 -1.3126 -1.4049
  770MOL0     H 1585   3.465   6.992   4.521  1.5587  1.5108  1.9566
  770MOL0     H 1586   3.633   6.912   4.511  2.4648 -1.1943 -4.4760
  770MOL0     H 1587   3.577   6.866   4.255  2.2609  1.9670  1.8265
  770MOL0     H 1588   3.429   6.964   4.292  0.2511  0.9182 -0.2037
  770MOL0     H 1589   3.517   6.694   4.425  1.0868  2.7464  1.0104
  770MOL0     H 1590   3.375   6.774   4.444 -1.2382 -2.3925  0.2323
  770MOL0     H 1591   3.285   6.626   4.292  0.3863  1.8846  2.4031
  770MOL0     H 1592   3.443   6.595   4.202  0.5470 -1.3698  0.9720
  770MOL0     H 1593   3.469   6.744   3.984 -0.3627  1.8670 -1.5746
  770MOL0     H 1594   3.176   6.826   3.755 -0.7760  1.1992  1.2180
  770MOL0     H 1595   3.344   6.776   3.745  3.8611  3.0509  0.5540
  770MOL0     H 1596   3.328   7.010   3.654 -4.6297  1.7097 -0.8094
  770MOL0     H 1597   3.421   7.010   3.804  0.1457  0.2596  0.3039
  770MOL0     H 1598   3.119   7.076   3.741  0.4198 -0.7275 -2.1047
  770MOL0     H 1599   3.191   7.090   3.912 -0.7666  0.4341 -0.2506
  770MOL0     H 1600   3.298   7.270   3.880 -0.6163 -0.1192  0.4803
  770MOL0     H 1601   3.159   7.291   3.785  0.0679 -0.7938  2.8393
  770MOL0     H 1602   3.087   7.365   3.577  0.2878  0.3484 -0.6918
  770MOL0     H 1603   3.011   7.345   3.357 -1.0680 -2.1481 -2.0329
  770MOL0     H 1604   2.973   7.085   2.951 -0.0076 -0.1495  2.1862
  770MOL0     H 1605   2.884   7.141   2.707  1.8661 -0.0891 -0.7971
  770MOL0     H 1606   2.797   7.559   2.593  0.4186  1.0964 -2.3413
  770MOL0     H 1607   2.793   7.445   2.454  2.9695  0.1404 -1.8761
  770MOL0     H 1608   3.028   7.379   2.496 -3.3635 -2.2231  0.1740
  770MOL0     H 1609   3.063   7.525   2.595 -0.7505  1.0211 -0.8343
  770MOL0     H 1610   3.136   7.548   2.384  0.0184 -6.0152 -0.2206
  770MOL0     H 1611   2.990   7.660   2.399  2.3934  0.9937 -0.0125
  770MOL0     H 1612   2.998   7.376   2.276  1.6116  0.6471  0.3170
  770MOL0     H 1613   2.864   7.490   2.252  0.6146  1.7911 -1.3564
  770MOL0     H 1614   3.150   7.506   2.166  0.7726  0.5628 -1.5925
  770MOL0     H 1615   3.057   7.648   2.154 -0.6475  0.5795  1.2678
  770MOL0     H 1616   2.890   7.508   1.996  0.2469  3.5172 -0.9201
  770MOL0     H 1617   3.000   7.381   2.009 -1.2918  0.7954 -0.0762
  770MOL0     H 1618   3.013   7.655   1.862  1.1433  2.0657  1.0796
  770MOL0     H 1619   3.164   7.575   1.912 -0.4387 -1.3640  1.0740
  770MOL0     H 1620   2.956   7.433   1.745 -0.2298 -2.2507  2.8626
  770MOL0     H 1621   3.128   7.387   1.748 -2.1059 -2.4177 -1.0360
  770MOL0     H 1622   2.824   7.538   2.819 -0.2424 -0.3180  0.1755
  770MOL0     H 1623   2.926   7.509   3.029 -1.6657  0.3715  0.4883
  770MOL0     H 1624   3.391   7.172   3.240  0.3074 -0.6398 -0.2652
  770MOL0     H 1625   3.447   7.172   3.483  1.6414  2.1070 -1.4188
  770MOL0     H 1626   3.433   7.626   4.545  2.0662 -1.6512 -1.2378
  770MOL0     H 1627   3.475   7.876   4.590  3.5254  4.0170 -1.9986
  770MOL0     H 1628   3.665   8.203   4.650  0.6198  0.2694  0.2159
  770MOL0     H 1629   3.696   8.465   4.672  2.1087 -0.9727  0.3024
  770MOL0     H 1630   3.662   8.733   4.306 -0.0855 -1.8834 -1.7335
  770MOL0     H 1631   3.826   8.667   4.299  0.1368  1.0658  0.5500
  770MOL0     H 1632   3.846   8.900   4.342  4.0293  0.6019  2.4981
  770MOL0     H 1633   3.736   8.881   4.482  1.2803 -0.8958  2.0033
  770MOL0     H 1634   3.896   8.759   4.598 -1.4693 -4.2298 -2.3258
  770MOL0     H 1635   3.973   8.909   4.525 -0.9514 -0.5243  1.2925
  770MOL0     H 1636   4.089   8.735   4.367  1.6721 -0.7769 -0.1951
  770MOL0     H 1637   4.146   8.722   4.530  2.2993 -2.8342 -3.3670
  770MOL0     H 1638   4.060   8.333   4.439  2.7337  1.2120  4.2918
  770MOL0     H 1639   3.643   8.505   4.247  1.0019 -3.6315 -2.4218
  770MOL0     H 1640   3.635   8.268   4.229  1.0714  0.3681 -0.6691
  771MOL0     O 1641   5.997   7.194   9.718  0.1720  0.3851  0.5457
  771MOL0     C 1642   5.920   7.259   9.789 -0.1331  0.3824  0.4568
  771MOL0     O 1643   5.956   7.311   9.903 -0.3929 -0.1820 -0.7591
  771MOL0     C 1644   6.086   7.317   9.945  0.4973 -0.2087 -0.3838
  771MOL0     C 1645   6.129   7.239  10.054  1.0600 -0.7035 -0.1386
  771MOL0     C 1646   6.253   7.261  10.111 -0.4030  1.2702 -0.2233
  771MOL0     C 1647   6.335   7.352  10.049 -0.1280 -0.1967  0.4702
  771MOL0     O 1648   6.470   7.376  10.082 -0.5726  0.0607  0.5782
  771MOL0     C 1649   6.537   7.262  10.149 -0.2977  0.5323  0.7163
  771MOL0     C 1650   6.594   7.163  10.042  0.2703 -0.2871  0.8909
  771MOL0     C 1651   6.684   7.068  10.135  0.1900  0.2048  0.3562
  771MOL0     C 1652   6.746   6.955  10.052 -0.3485  0.3523 -0.8643
  771MOL0     C 1653   6.839   6.884  10.152  0.0731 -0.8611  0.6032
  771MOL0     C 1654   6.900   6.773  10.078 -0.1812 -0.0894  0.7081
  771MOL0     C 1655   7.055   6.785  10.071 -0.0556 -0.0194 -0.0338
  771MOL0     C 1656   7.123   6.645  10.074  0.3048 -0.0121 -0.7611
  771MOL0     N 1657   7.158   6.597  10.208 -0.0138 -0.9543  0.2554
  771MOL0     C 1658   7.070   6.555  10.299  0.0827 -0.9062  0.0794
  771MOL0     C 1659   7.139   6.516  10.415  0.3926  0.2513  0.2520
  771MOL0     C 1660   7.093   6.446  10.534 -0.0487 -0.5222 -0.3796
  771MOL0     C 1661   6.963   6.369  10.494  0.5486  0.6911 -0.6837
  771MOL0     C 1662   6.925   6.278  10.600  0.7265 -0.2141 -0.6144
  771MOL0     C 1663   6.786   6.224  10.560  0.6785  0.3142 -0.1826
  771MOL0     O 1664   6.781   6.094  10.624 -0.0877  0.1858  1.2421
  771MOL0     C 1665   6.695   5.999  10.572 -0.0672 -0.6819  0.2207
  771MOL0     C 1666   6.626   6.008  10.447 -0.8894 -0.1561 -0.3731
  771MOL0     C 1667   6.550   5.902  10.405 -0.0971 -0.5803  0.3711
  771MOL0     C 1668   6.541   5.776  10.469 -0.4080 -0.3592  0.4018
  771MOL0     C 1669   6.469   5.663  10.415 -0.5772 -0.3575 -0.1278
  771MOL0     O 1670   6.522   5.536  10.447 -0.3370 -1.2631 -0.3704
  771MOL0     C 1671   6.460   5.436  10.376  0.0031 -1.0348  0.0554
  771MOL0     C 1672   6.502   5.401  10.242  1.1074 -0.5649 -0.6215
  771MOL0     C 1673   6.435   5.296  10.180  0.1962 -0.4452 -0.3540
  771MOL0     C 1674   6.322   5.233  10.240  0.8052  0.0363  0.5059
  771MOL0     O 1675   6.258   5.152  10.154 -0.2617  0.6670  0.7294
  771MOL0     C 1676   6.175   5.048  10.212 -0.5537 -0.6729 -0.7577
  771MOL0     C 1677   6.112   4.962  10.098 -0.5285 -0.2196  0.1821
  771MOL0     C 1678   5.973   4.914  10.147 -0.4615 -0.1767 -0.2877
  771MOL0     C 1679   5.893   4.836  10.042 -0.7811 -0.2024 -0.6095
  771MOL0     C 1680   5.750   4.807  10.080 -0.6544 -0.1530 -0.1285
  771MOL0     C 1681   5.659   4.934  10.090  0.6039  0.6446 -0.3148
  771MOL0     C 1682   5.510   4.902  10.074 -0.0186 -0.1888  0.5199
  771MOL0     C 1683   5.430   4.869  10.210 -0.7437 -0.5285  0.6012
  771MOL0    Cl 1684   5.477   4.716  10.285 -0.0059  0.2635 -0.3969
  771MOL0     C 1685   6.283   5.268  10.367  0.3737 -0.3549 -0.8801
  771MOL0     C 1686   6.353   5.371  10.440  0.5377  0.1205 -0.3209
  771MOL0     O 1687   6.380   5.681  10.335 -0.6032 -0.2757 -0.4313
  771MOL0     C 1688   6.608   5.771  10.594 -0.2749 -0.3295 -0.1287
  771MOL0     C 1689   6.688   5.878  10.637 -0.7220 -0.0273 -0.2227
  771MOL0     N 1690   7.270   6.557  10.394  0.0821 -0.1425  0.2477
  771MOL0     N 1691   7.280   6.606  10.279 -0.3446  0.5249 -0.0860
  771MOL0     C 1692   6.294   7.436   9.942  0.0851  0.6202  0.1206
  771MOL0     C 1693   6.166   7.416   9.887  0.1600 -0.0071 -1.1557
  771MOL0     C 1694   5.784   7.283   9.734  0.0259  0.0825  0.0410
  771MOL0     C 1695   5.679   7.349   9.810  0.2965 -0.4158 -0.2146
  771MOL0     C 1696   5.550   7.364   9.750  0.3925 -0.2595 -0.2078
  771MOL0     C 1697   5.526   7.327   9.616  0.7234 -0.5010  0.0955
  771MOL0     O 1698   5.399   7.347   9.571 -0.3646 -0.1175 -0.1634
  771MOL0     C 1699   5.306   7.250   9.610 -0.3831  0.8330  0.2095
  771MOL0     C 1700   5.198   7.310   9.707 -0.7552  0.1131  0.2506
  771MOL0     C 1701   5.128   7.437   9.647 -0.1465 -0.4370  0.3554
  771MOL0     C 1702   5.069   7.412   9.511 -0.0974  0.0462  0.4336
  771MOL0     C 1703   4.980   7.522   9.476  0.4103  0.1074  0.0372
  771MOL0     C 1704   4.889   7.600   9.451  0.2014 -0.7032  0.9036
  771MOL0     C 1705   5.630   7.269   9.545 -1.2010  0.0737  0.6140
  771MOL0     C 1706   5.752   7.239   9.611 -0.1287 -0.9050  0.2836
  771MOL0     H 1707   6.062   7.168  10.103  2.8130  0.5127  4.5645
  771MOL0     H 1708   6.286   7.195  10.191  3.5219  0.2200 -2.4158
  771MOL0     H 1709   6.473   7.206  10.217 -3.1837  3.9647  1.1173
  771MOL0     H 1710   6.620   7.305  10.206 -0.0292  0.0753  0.6713
  771MOL0     H 1711   6.661   7.216   9.973  0.3900 -2.7948 -1.0865
  771MOL0     H 1712   6.530   7.106   9.973 -0.0707  2.4739 -1.2477
  771MOL0     H 1713   6.611   7.029  10.206  1.2213  0.3033  1.4951
  771MOL0     H 1714   6.759   7.130  10.186 -0.6932  1.4507  0.1934
  771MOL0     H 1715   6.663   6.896  10.012  1.9926 -4.0958  0.1165
  771MOL0     H 1716   6.810   6.993   9.972 -1.4048  2.0748 -0.9426
  771MOL0     H 1717   6.778   6.849  10.236  0.5501 -0.8769  0.9432
  771MOL0     H 1718   6.913   6.955  10.189 -0.5514 -2.2102  4.9348
  771MOL0     H 1719   6.873   6.763   9.972 -1.6462 -1.6694  1.1798
  771MOL0     H 1720   6.865   6.687  10.136 -0.7997 -1.2821 -1.2982
  771MOL0     H 1721   7.068   6.827   9.971 -0.8883  3.3549  1.1266
  771MOL0     H 1722   7.090   6.852  10.151 -0.1573  0.9862 -0.8127
  771MOL0     H 1723   7.216   6.652  10.017  1.2004 -0.2893  0.6199
  771MOL0     H 1724   7.061   6.574  10.018 -0.2120  0.0926 -0.3317
  771MOL0     H 1725   6.966   6.542  10.269 -0.7215  1.4436  1.6166
  771MOL0     H 1726   7.064   6.526  10.602  1.3306 -0.4993  0.2140
  771MOL0     H 1727   7.164   6.369  10.568 -0.9346 -0.3514  2.0593
  771MOL0     H 1728   6.971   6.319  10.397 -3.3653 -3.1728  0.6309
  771MOL0     H 1729   6.888   6.448  10.486 -3.0522 -2.4825 -1.0437
  771MOL0     H 1730   6.998   6.197  10.611  0.8325  0.2658  3.9028
  771MOL0     H 1731   6.916   6.328  10.696 -0.3428 -2.6529  0.6326
  771MOL0     H 1732   6.783   6.217  10.451  0.3505 -1.5851 -0.0964
  771MOL0     H 1733   6.711   6.290  10.603  0.8948  1.0237 -0.8723
  771MOL0     H 1734   6.629   6.105  10.398 -2.5554 -0.3478 -0.9069
  771MOL0     H 1735   6.491   5.921  10.316 -1.6801  0.3744  1.5765
  771MOL0     H 1736   6.572   5.464  10.188  0.3904  1.8361  1.0694
  771MOL0     H 1737   6.448   5.261  10.078 -0.3388 -1.6590 -0.0236
  771MOL0     H 1738   6.092   5.086  10.273  0.3218  2.6692 -1.4345
  771MOL0     H 1739   6.232   4.976  10.272 -0.6059 -1.2605 -1.4035
  771MOL0     H 1740   6.169   4.873  10.070  0.1137  0.0603  0.5919
  771MOL0     H 1741   6.100   5.027  10.012  1.3403 -0.7642 -0.5276
  771MOL0     H 1742   5.913   5.001  10.177  0.6596  1.3590 -2.2862
  771MOL0     H 1743   5.983   4.845  10.232 -2.4150  0.9643  0.9795
  771MOL0     H 1744   5.894   4.892   9.948 -4.0928 -0.5298 -0.9582
  771MOL0     H 1745   5.943   4.739  10.033 -1.0283 -0.1812 -2.9036
  771MOL0     H 1746   5.742   4.752  10.174 -2.2450 -0.3211 -0.3290
  771MOL0     H 1747   5.723   4.741   9.997  0.9593 -2.1341  0.8398
  771MOL0     H 1748   5.681   5.020  10.026 -4.0080  1.7561 -0.7699
  771MOL0     H 1749   5.660   4.974  10.192 -1.5075 -3.2381  1.4557
  771MOL0     H 1750   5.463   4.989  10.027 -0.4678 -1.6714 -1.9796
  771MOL0     H 1751   5.487   4.829   9.996  2.0990 -0.7726  0.3897
  771MOL0     H 1752   5.322   4.871  10.188 -1.3216  2.0811  3.0152
  771MOL0     H 1753   5.457   4.954  10.274  1.3045 -1.9495  1.7005
  771MOL0     H 1754   6.197   5.219  10.411  1.7199 -2.1983 -0.1517
  771MOL0     H 1755   6.319   5.390  10.541  3.3106  1.4536  0.4574
  771MOL0     H 1756   6.593   5.684  10.656 -2.5797  0.0742 -0.0319
  771MOL0     H 1757   6.736   5.881  10.734 -1.2859 -0.4108  0.0704
  771MOL0     H 1758   6.375   7.495   9.900 -2.0902  3.4911 -0.3668
  771MOL0     H 1759   6.121   7.461   9.799 -0.7975 -0.2075 -0.7728
  771MOL0     H 1760   5.689   7.378   9.914 -2.9210  2.5219 -0.5503
  771MOL0     H 1761   5.477   7.401   9.821  1.2762  1.3118 -0.0808
  771MOL0     H 1762   5.355   7.175   9.673  1.1387  3.9185  3.0257
  771MOL0     H 1763   5.263   7.204   9.520 -1.3466  2.7405 -0.3398
  771MOL0     H 1764   5.121   7.236   9.728 -0.7408 -0.4002 -1.3998
  771MOL0     H 1765   5.243   7.338   9.803 -0.1807 -2.4972  0.8282
  771MOL0     H 1766   5.195   7.523   9.634 -3.1706  1.7204 -2.7856
  771MOL0     H 1767   5.051   7.460   9.721 -0.6217  2.1890 -0.8256
  771MOL0     H 1768   5.154   7.408   9.442  0.8236  3.2488  1.2152
  771MOL0     H 1769   5.031   7.310   9.515  0.6454 -0.2079  3.2605
  771MOL0     H 1770   4.820   7.675   9.420  2.2266  1.4730  1.3847
  771MOL0     H 1771   5.618   7.227   9.446  0.6423  1.5269 -0.2870
  771MOL0     H 1772   5.831   7.193   9.553  2.2941  2.4906  0.5962
  772MOL0     O 1773   3.209   5.603   1.843 -0.1009 -0.3740 -0.3810
  772MOL0     C 1774   3.322   5.606   1.895 -0.0385 -0.3037 -0.9415
  772MOL0     O 1775   3.356   5.541   2.013 -0.4931 -0.5687  0.0098
  772MOL0     C 1776   3.281   5.435   2.050 -0.8671  0.2979 -0.6814
  772MOL0     C 1777   3.337   5.302   2.063  0.7088 -0.4577  0.9422
  772MOL0     C 1778   3.242   5.197   2.100 -0.5557 -0.6854 -0.2408
  772MOL0     C 1779   3.110   5.221   2.132 -0.8858 -0.6869  0.3303
  772MOL0     O 1780   3.010   5.127   2.160 -0.7481  0.0886  0.0368
  772MOL0     C 1781   3.019   4.993   2.113  0.2272 -0.5406 -0.1912
  772MOL0     C 1782   3.076   4.910   2.226 -0.0505 -0.8713  0.3604
  772MOL0     C 1783   2.973   4.892   2.338  0.7499 -0.2850  0.8069
  772MOL0     C 1784   3.027   4.816   2.448  0.4030  0.9876 -0.1876
  772MOL0     C 1785   2.919   4.786   2.551 -0.0067 -0.0272  0.1821
  772MOL0     C 1786   2.908   4.637   2.553  1.5370 -0.2034 -0.4010
  772MOL0     C 1787   2.798   4.598   2.653 -0.5363  0.4552  0.0189
  772MOL0     C 1788   2.771   4.439   2.651 -0.4878 -1.0810  0.2821
  772MOL0     N 1789   2.658   4.400   2.729 -0.2919  0.2772 -0.8376
  772MOL0     C 1790   2.527   4.376   2.693  0.8164 -1.4840 -0.1808
  772MOL0     C 1791   2.471   4.322   2.808 -0.6135 -0.3193 -0.8143
  772MOL0     C 1792   2.326   4.281   2.843 -0.4863 -0.1375  0.0102
  772MOL0     C 1793   2.238   4.395   2.814  0.4022 -0.5817  0.0299
  772MOL0     C 1794   2.221   4.496   2.930  0.0022 -0.0496  0.4160
  772MOL0     C 1795   2.343   4.585   2.939 -0.0565  0.9138  0.8052
  772MOL0     O 1796   2.308   4.716   2.984  0.1278  0.2995 -0.2870
  772MOL0     C 1797   2.394   4.809   3.035  0.1115  0.2813  0.1911
  772MOL0     C 1798   2.360   4.915   3.122 -0.5164  1.1561  0.3339
  772MOL0     C 1799   2.458   5.016   3.158  0.1406 -1.3182 -0.5438
  772MOL0     C 1800   2.589   5.003   3.119 -0.5116  0.3121 -0.0426
  772MOL0     C 1801   2.697   5.096   3.168  0.0607 -0.0278  0.6150
  772MOL0     O 1802   2.815   5.063   3.114 -0.3578  0.1891 -0.0619
  772MOL0     C 1803   2.921   5.143   3.139  0.0216  0.6691 -0.0000
  772MOL0     C 1804   3.000   5.186   3.031  0.0268  0.1580 -0.4172
  772MOL0     C 1805   3.118   5.244   3.053 -0.9878 -0.4389  0.5863
  772MOL0     C 1806   3.167   5.266   3.184 -0.5289 -0.3138 -0.0674
  772MOL0     O 1807   3.295   5.325   3.200 -0.0983  0.0477 -1.2429
  772MOL0     C 1808   3.366   5.309   3.322  0.1625 -0.6835 -0.4207
  772MOL0     C 1809   3.484   5.402   3.323 -0.3263 -0.6394 -0.3805
  772MOL0     C 1810   3.431   5.548   3.332 -0.3750 -0.2996 -0.2107
  772MOL0     C 1811   3.548   5.645   3.313  0.7454 -0.0533 -0.3707
  772MOL0     C 1812   3.630   5.620   3.191 -0.1720 -0.5269  1.2140
  772MOL0     C 1813   3.715   5.750   3.177  1.0186  0.9814  1.1224
  772MOL0     C 1814   3.635   5.861   3.105 -0.1927  0.5061 -0.1289
  772MOL0     C 1815   3.718   5.987   3.071  0.0961  0.3654 -0.2767
  772MOL0    Cl 1816   3.816   6.026   3.210  0.4898  0.0806  0.6334
  772MOL0     C 1817   3.086   5.234   3.297  0.2334 -0.4186  0.2954
  772MOL0     C 1818   2.968   5.161   3.276  0.3037 -0.3154 -0.3572
  772MOL0     O 1819   2.670   5.185   3.247  0.4341 -0.2478 -0.1141
  772MOL0     C 1820   2.620   4.891   3.046 -0.3074 -0.7677  0.7579
  772MOL0     C 1821   2.524   4.796   2.998 -0.3489 -1.1642 -0.8019
  772MOL0     N 1822   2.572   4.315   2.897 -0.4437 -0.0611 -0.0292
  772MOL0     N 1823   2.677   4.372   2.854 -1.1379 -0.1409  0.2381
  772MOL0     C 1824   3.069   5.358   2.146 -0.0807  0.6018 -0.5574
  772MOL0     C 1825   3.150   5.458   2.096 -0.5397 -0.3693 -0.5469
  772MOL0     C 1826   3.410   5.717   1.840  1.1469  0.2433 -0.5602
  772MOL0     C 1827   3.380   5.784   1.720  0.9942  0.5462 -0.9336
  772MOL0     C 1828   3.456   5.896   1.676 -0.1158 -0.1552 -0.0240
  772MOL0     C 1829   3.562   5.927   1.752 -0.6698 -0.2869 -0.8584
  772MOL0     O 1830   3.659   6.016   1.708  0.7761 -0.4331 -0.2647
  772MOL0     C 1831   3.633   6.098   1.590  0.0705  0.0713  0.2694
  772MOL0     C 1832   3.766   6.163   1.551 -0.4720  0.3659 -1.2387
  772MOL0     C 1833   3.867   6.063   1.495 -0.3087  0.6963  0.5575
  772MOL0     C 1834   3.977   6.126   1.421  0.1577  1.9823 -0.3818
  772MOL0     C 1835   3.939   6.179   1.285  0.4625  0.0638 -0.3866
  772MOL0     C 1836   3.909   6.192   1.164 -0.2088  0.5814 -0.5212
  772MOL0     C 1837   3.605   5.858   1.861  0.5488 -0.4018 -1.0194
  772MOL0     C 1838   3.529   5.753   1.910  0.5097 -1.2285 -0.1285
  772MOL0     H 1839   3.434   5.284   2.017  0.7707 -0.2759  0.9984
  772MOL0     H 1840   3.288   5.098   2.098  1.1970  0.0883  0.0781
  772MOL0     H 1841   3.077   4.975   2.022 -0.9393 -0.4899 -0.9697
  772MOL0     H 1842   2.916   4.960   2.095 -0.0896 -0.4336  1.2777
  772MOL0     H 1843   3.163   4.970   2.255 -0.1172  0.0312 -1.1747
  772MOL0     H 1844   3.096   4.813   2.179 -0.8673 -1.6545  1.5661
  772MOL0     H 1845   2.884   4.846   2.294  1.4111 -0.4927 -0.3433
  772MOL0     H 1846   2.929   4.987   2.371 -0.2956 -0.7386  0.7619
  772MOL0     H 1847   3.092   4.730   2.431  0.8779  0.0919  4.6721
  772MOL0     H 1848   3.100   4.880   2.498  0.7264  0.6985 -0.2861
  772MOL0     H 1849   2.825   4.834   2.522  0.5545  1.4644  0.7241
  772MOL0     H 1850   2.951   4.835   2.644  2.8598  0.5706 -1.0072
  772MOL0     H 1851   3.004   4.595   2.581  1.6212 -0.5538 -1.1782
  772MOL0     H 1852   2.876   4.599   2.455  0.1739 -0.5111  0.1385
  772MOL0     H 1853   2.833   4.620   2.754 -0.9122 -1.9522  0.7165
  772MOL0     H 1854   2.710   4.663   2.646  0.7155  2.7128  3.0635
  772MOL0     H 1855   2.860   4.390   2.691  1.2638  2.1921  0.7155
  772MOL0     H 1856   2.763   4.405   2.548  2.2565  0.2296 -0.4533
  772MOL0     H 1857   2.479   4.401   2.600  2.2930  2.3445 -0.1086
  772MOL0     H 1858   2.308   4.251   2.947  1.1362  0.0948  0.3892
  772MOL0     H 1859   2.295   4.193   2.788 -0.5835  0.2653 -0.5871
  772MOL0     H 1860   2.141   4.350   2.790 -0.2755  0.5435  0.5564
  772MOL0     H 1861   2.273   4.444   2.722  1.3491 -0.3189  0.5231
  772MOL0     H 1862   2.131   4.546   2.894  1.7178  1.3484 -2.2219
  772MOL0     H 1863   2.189   4.450   3.024 -0.5741  0.5868  0.5391
  772MOL0     H 1864   2.379   4.598   2.837 -1.9912 -1.7541 -0.3264
  772MOL0     H 1865   2.419   4.521   2.985  0.3298 -1.7387 -3.1032
  772MOL0     H 1866   2.259   4.919   3.160 -1.1779  0.0627 -1.2256
  772MOL0     H 1867   2.421   5.095   3.222 -1.6277 -1.3540 -1.4671
  772MOL0     H 1868   2.959   5.173   2.931 -3.4060  1.3511  0.6784
  772MOL0     H 1869   3.179   5.276   2.969 -2.6269  0.8329 -0.1713
  772MOL0     H 1870   3.395   5.204   3.331 -0.8948 -1.1096 -1.5356
  772MOL0     H 1871   3.303   5.327   3.410  2.2308  1.8112  0.6574
  772MOL0     H 1872   3.537   5.382   3.230 -1.8520  2.4078 -2.0557
  772MOL0     H 1873   3.548   5.388   3.410  2.4974  1.5743 -1.9184
  772MOL0     H 1874   3.374   5.564   3.424 -0.0526 -1.0469  0.1276
  772MOL0     H 1875   3.358   5.561   3.251 -1.0685 -0.3265  0.4029
  772MOL0     H 1876   3.510   5.747   3.310  0.7036 -0.0890 -1.8606
  772MOL0     H 1877   3.607   5.641   3.405  0.6527 -1.2957 -0.3446
  772MOL0     H 1878   3.566   5.624   3.102 -0.0617 -0.1441  1.1513
  772MOL0     H 1879   3.699   5.535   3.185  2.2299  1.3815 -2.2369
  772MOL0     H 1880   3.808   5.733   3.123  1.7825  5.0443  0.8245
  772MOL0     H 1881   3.752   5.770   3.278  1.4501 -0.1673  1.2040
  772MOL0     H 1882   3.603   5.821   3.008  2.3858 -0.7004 -0.5754
  772MOL0     H 1883   3.557   5.899   3.172 -0.3018 -1.3752  0.9008
  772MOL0     H 1884   3.648   6.071   3.065 -0.0329  0.1689 -3.6639
  772MOL0     H 1885   3.778   5.968   2.981  0.0908 -1.8116  0.1330
  772MOL0     H 1886   3.111   5.254   3.400  0.2475  0.9481  0.0409
  772MOL0     H 1887   2.895   5.131   3.351 -0.1856  1.4110 -0.1096
  772MOL0     H 1888   2.718   4.860   3.012 -0.9609  0.2086 -2.3289
  772MOL0     H 1889   2.552   4.714   2.932 -0.3525  1.0089 -3.7329
  772MOL0     H 1890   2.967   5.371   2.179 -0.6637 -2.6290 -0.7475
  772MOL0     H 1891   3.120   5.562   2.092 -0.9969 -0.5343 -1.8843
  772MOL0     H 1892   3.288   5.759   1.667  0.9436 -3.5667  0.6803
  772MOL0     H 1893   3.422   5.943   1.584 -0.2418  0.1898  0.1964
  772MOL0     H 1894   3.560   6.173   1.621 -2.7111 -1.9930 -0.7927
  772MOL0     H 1895   3.587   6.041   1.509 -1.1222  0.9903  0.2702
  772MOL0     H 1896   3.751   6.243   1.478 -1.0797 -0.7971 -2.4167
  772MOL0     H 1897   3.807   6.217   1.637 -0.7370  0.0724 -0.9239
  772MOL0     H 1898   3.805   5.994   1.437  1.1746 -2.6306  2.6097
  772MOL0     H 1899   3.910   6.001   1.575 -0.6362 -0.7783 -0.3757
  772MOL0     H 1900   4.033   6.191   1.489 -1.2924 -1.3222  4.4050
  772MOL0     H 1901   4.054   6.050   1.403  2.7406  3.8628  1.8872
  772MOL0     H 1902   3.884   6.192   1.060 -1.2688  0.6904 -0.2750
  772MOL0     H 1903   3.702   5.871   1.908  1.3335  0.9703 -2.8962
  772MOL0     H 1904   3.565   5.688   1.988 -0.4462  0.7223  2.0456
  773MOL0     O 1905   8.928   8.451   9.412  0.3151  0.1092  0.7664
  773MOL0     C 1906   8.861   8.514   9.492 -0.0771 -1.1513 -0.6574
  773MOL0     O 1907   8.885   8.641   9.537  0.5343 -0.6385 -0.3112
  773MOL0     C 1908   9.005   8.714   9.501  1.1054  0.5928 -0.9047
  773MOL0     C 1909   9.045   8.809   9.597  0.0854 -0.2845 -0.4519
  773MOL0     C 1910   9.164   8.883   9.589 -0.2471 -0.0576  0.3269
  773MOL0     C 1911   9.241   8.876   9.471  0.1909  0.9643 -0.5574
  773MOL0     O 1912   9.347   8.957   9.451  1.0491  0.2084 -0.0265
  773MOL0     C 1913   9.468   8.894   9.479 -0.6230  0.2272 -0.2281
  773MOL0     C 1914   9.595   8.954   9.417  0.1193  0.0173  0.0156
  773MOL0     C 1915   9.722   8.877   9.445  0.5959 -0.0172 -0.8682
  773MOL0     C 1916   9.854   8.960   9.414  0.4111 -0.2982 -0.3483
  773MOL0     C 1917   9.972   8.872   9.420 -0.8088  0.1371 -0.0830
  773MOL0     C 1918  10.097   8.934   9.363 -0.1350  0.1707 -0.4089
  773MOL0     C 1919  10.138   9.072   9.430 -0.6581  0.5974  0.2664
  773MOL0     C 1920  10.164   9.061   9.585 -0.1742 -0.3596  0.1672
  773MOL0     N 1921  10.211   9.201   9.625  0.5019 -0.2381  0.4694
  773MOL0     C 1922  10.140   9.305   9.696 -0.0153  1.6783 -1.1872
  773MOL0     C 1923  10.241   9.383   9.735 -0.0473  0.1335  0.0116
  773MOL0     C 1924  10.237   9.517   9.804 -0.8818 -0.6537 -0.9321
  773MOL0     C 1925  10.342   9.611   9.730 -1.1396  0.1551 -0.5023
  773MOL0     C 1926  10.362   9.750   9.800 -0.3414 -1.4079 -0.7528
  773MOL0     C 1927  10.218   9.815   9.818  0.5254  0.9572 -0.1478
  773MOL0     O 1928  10.222   9.960   9.845 -0.1285 -0.5653 -0.0570
  773MOL0     C 1929  10.121   9.996   9.928 -0.2898 -0.0857 -0.3544
  773MOL0     C 1930   9.985   9.973   9.909  0.3622  1.8382  0.5076
  773MOL0     C 1931   9.889  10.040   9.995  0.3904 -0.7585  0.1207
  773MOL0     C 1932   9.935  10.103  10.112 -1.3636 -0.4029  0.1270
  773MOL0     C 1933   9.837  10.166  10.205 -0.7557  0.1544 -1.4217
  773MOL0     O 1934   9.721  10.091  10.211 -0.3809 -0.0322 -0.4042
  773MOL0     C 1935   9.609  10.162  10.247  0.5307  0.3464  0.1161
  773MOL0     C 1936   9.503  10.166  10.156 -0.4368  0.4836 -0.3658
  773MOL0     C 1937   9.383  10.225  10.190 -0.1408  0.3198  0.4620
  773MOL0     C 1938   9.352  10.267  10.318  0.4369 -0.0564  0.1909
  773MOL0     O 1939   9.231  10.331  10.344 -0.5302  0.0471  0.0375
  773MOL0     C 1940   9.145  10.277  10.445 -0.9944  0.7849 -0.5562
  773MOL0     C 1941   9.012  10.351  10.463  0.7629 -0.7124  0.6460
  773MOL0     C 1942   8.931  10.371  10.326 -0.1673  0.0020 -0.7563
  773MOL0     C 1943   8.808  10.445  10.347 -0.6340  0.2123  0.0083
  773MOL0     C 1944   8.735  10.462  10.215  0.0148 -0.1103  0.4005
  773MOL0     C 1945   8.673  10.608  10.223 -0.3097  0.6358 -0.1997
  773MOL0     C 1946   8.557  10.627  10.325 -0.6391  0.4481 -0.2675
  773MOL0     C 1947   8.522  10.773  10.352 -0.3894  0.0137  0.1668
  773MOL0    Cl 1948   8.379  10.749  10.441 -0.1244 -0.2162  0.5814
  773MOL0     C 1949   9.461  10.269  10.403 -0.0599  0.4635 -0.5848
  773MOL0     C 1950   9.587  10.218  10.377 -0.0518  0.0382  0.6621
  773MOL0     O 1951   9.863  10.267  10.275  0.1574  0.6596  0.3356
  773MOL0     C 1952  10.076  10.138  10.123 -0.3234  0.1540  0.0348
  773MOL0     C 1953  10.159  10.080  10.036 -0.8538  0.0102 -1.1730
  773MOL0     N 1954  10.362   9.331   9.696 -0.0233  0.4030  0.7631
  773MOL0     N 1955  10.339   9.222   9.637 -0.4457 -0.4109 -1.0936
  773MOL0     C 1956   9.200   8.785   9.366 -0.3372  0.3739 -0.8658
  773MOL0     C 1957   9.072   8.709   9.379 -0.0461  0.7069  0.4597
  773MOL0     C 1958   8.735   8.456   9.532  0.7149 -0.9239  0.1501
  773MOL0     C 1959   8.677   8.359   9.455 -0.7074  0.2620 -0.9898
  773MOL0     C 1960   8.537   8.331   9.473 -0.3191  0.4848 -0.5492
  773MOL0     C 1961   8.467   8.381   9.582 -0.1309 -0.4293 -0.3479
  773MOL0     O 1962   8.330   8.359   9.591 -0.0799  1.1703 -0.4082
  773MOL0     C 1963   8.309   8.216   9.596 -0.0123 -0.3737  0.3379
  773MOL0     C 1964   8.189   8.195   9.682  0.4825 -0.9163 -0.1085
  773MOL0     C 1965   8.211   8.208   9.835  0.2174 -1.1975 -0.5583
  773MOL0     C 1966   8.242   8.346   9.891 -0.0109 -0.9157  1.6935
  773MOL0     C 1967   8.232   8.353  10.037  0.9101  0.5289 -0.1347
  773MOL0     C 1968   8.211   8.360  10.159 -0.1371  0.2365  0.5607
  773MOL0     C 1969   8.523   8.478   9.667 -0.0692 -0.0983 -0.4361
  773MOL0     C 1970   8.664   8.502   9.645  0.4713 -0.4047 -0.3347
  773MOL0     H 1971   8.990   8.811   9.691  1.4325 -2.2435  0.4443
  773MOL0     H 1972   9.187   8.954   9.667 -1.1392  1.7439 -0.9802
  773MOL0     H 1973   9.482   8.791   9.446  3.3499  0.1918  0.9797
  773MOL0     H 1974   9.496   8.896   9.585  5.3292  3.4119 -1.4001
  773MOL0     H 1975   9.609   9.059   9.445  1.0078 -0.1556  0.2758
  773MOL0     H 1976   9.593   8.964   9.308 -0.6146  3.4483  0.2356
  773MOL0     H 1977   9.710   8.782   9.392  0.2290 -1.8079  2.1805
  773MOL0     H 1978   9.718   8.868   9.554 -3.6693  3.2425 -0.4636
  773MOL0     H 1979   9.857   9.013   9.318  2.1163 -0.5042 -0.4343
  773MOL0     H 1980   9.871   9.036   9.490 -0.0637 -0.9924  0.4725
  773MOL0     H 1981   9.952   8.780   9.363  1.1644  1.0047 -2.3198
  773MOL0     H 1982  10.002   8.837   9.519 -0.9929 -3.1543 -1.0504
  773MOL0     H 1983  10.082   8.937   9.255 -4.1365 -2.6634 -0.1396
  773MOL0     H 1984  10.179   8.862   9.374 -1.3530 -1.3949 -1.2696
  773MOL0     H 1985  10.234   9.101   9.387 -0.0232  2.8522  2.9436
  773MOL0     H 1986  10.060   9.147   9.415  0.5137  1.2509 -3.7872
  773MOL0     H 1987  10.242   8.988   9.606 -0.0542 -0.3869 -0.3486
  773MOL0     H 1988  10.075   9.035   9.644  0.3241  0.0263  1.1113
  773MOL0     H 1989  10.033   9.303   9.715  0.4588 -0.5756  2.0832
  773MOL0     H 1990  10.282   9.497   9.903  3.4563 -0.9200 -2.7131
  773MOL0     H 1991  10.135   9.555   9.802 -0.9614 -0.8944 -1.4100
  773MOL0     H 1992  10.303   9.632   9.630 -0.9254 -1.2274 -0.8971
  773MOL0     H 1993  10.441   9.565   9.725 -1.8049 -1.5428  0.6699
  773MOL0     H 1994  10.426   9.757   9.889 -0.1285  1.6397 -1.0359
  773MOL0     H 1995  10.409   9.820   9.730  0.1660  0.1502  1.0559
  773MOL0     H 1996  10.164   9.765   9.898  0.8177 -0.2401 -0.6864
  773MOL0     H 1997  10.161   9.786   9.729  2.4330 -3.2161 -0.2119
  773MOL0     H 1998   9.970   9.909   9.823 -0.4553 -0.6662  2.3763
  773MOL0     H 1999   9.785  10.016   9.976  0.9385 -3.5975  0.2401
  773MOL0     H 2000   9.526  10.131  10.056 -1.5721  0.0805 -0.4989
  773MOL0     H 2001   9.306  10.250  10.118 -0.4545  1.9168  1.3130
  773MOL0     H 2002   9.203  10.278  10.538  0.6237  0.4726 -1.5360
  773MOL0     H 2003   9.118  10.172  10.430 -1.6582  0.7083  0.9997
  773MOL0     H 2004   9.036  10.453  10.494 -0.3813  0.5230 -2.1554
  773MOL0     H 2005   8.951  10.290  10.531 -0.2758 -3.8953 -2.7905
  773MOL0     H 2006   8.910  10.274  10.281  4.5529 -0.5036 -2.4926
  773MOL0     H 2007   8.995  10.431  10.260  0.5424  1.8042  1.4388
  773MOL0     H 2008   8.744  10.395  10.420  1.0473  0.7303  1.9095
  773MOL0     H 2009   8.843  10.540  10.388 -0.2330  0.6319 -1.2675
  773MOL0     H 2010   8.655  10.388  10.222  1.2073 -1.5112 -0.2784
  773MOL0     H 2011   8.800  10.452  10.128 -0.6222  0.8432 -0.2003
  773MOL0     H 2012   8.638  10.618  10.119  5.5314  1.5272 -2.4331
  773MOL0     H 2013   8.745  10.688  10.233 -0.1838  0.7995 -1.9546
  773MOL0     H 2014   8.463  10.584  10.290 -1.4815 -0.1626  2.4559
  773MOL0     H 2015   8.574  10.577  10.421  0.2713  2.2305  0.5648
  773MOL0     H 2016   8.520  10.835  10.262  0.0106  0.7633  0.6689
  773MOL0     H 2017   8.605  10.811  10.412 -0.5454  1.4278 -0.4850
  773MOL0     H 2018   9.455  10.306  10.505 -2.0430  0.1357 -0.5344
  773MOL0     H 2019   9.666  10.218  10.452 -0.1956 -1.2544  0.8386
  773MOL0     H 2020  10.105  10.213  10.196 -0.3670  1.5479 -1.3183
  773MOL0     H 2021  10.263  10.111  10.048 -1.7735  2.8360  0.6312
  773MOL0     H 2022   9.249   8.771   9.269 -0.4838 -0.1447 -0.8663
  773MOL0     H 2023   9.036   8.650   9.295  0.4462 -1.0354  1.4265
  773MOL0     H 2024   8.727   8.307   9.373 -1.6628 -1.8863 -0.3050
  773MOL0     H 2025   8.502   8.245   9.416  0.6271 -1.7782  2.0227
  773MOL0     H 2026   8.390   8.160   9.643  0.3626  1.3527  1.8767
  773MOL0     H 2027   8.293   8.181   9.494 -0.9529  0.0570  0.3292
  773MOL0     H 2028   8.119   8.270   9.646  3.2570  1.3241 -1.2861
  773MOL0     H 2029   8.154   8.094   9.657 -2.4211 -0.8015  2.7562
  773MOL0     H 2030   8.295   8.145   9.864  1.7255  0.4271 -1.2498
  773MOL0     H 2031   8.119   8.171   9.881  0.3223 -0.4074  0.2974
  773MOL0     H 2032   8.345   8.362   9.858 -0.5315  1.1975  0.9091
  773MOL0     H 2033   8.184   8.428   9.846 -0.7752 -3.2374 -1.9408
  773MOL0     H 2034   8.183   8.359  10.263  0.4056 -2.4174  0.7499
  773MOL0     H 2035   8.462   8.514   9.749 -2.3710  1.4531 -2.6915
  773MOL0     H 2036   8.721   8.572   9.706 -1.2688  0.7907 -0.0140
  774MOL0     O 2037   9.862   8.840   5.187 -0.6205 -0.1931  0.3193
  774MOL0     C 2038   9.750   8.802   5.228  0.5667  0.4733 -0.8782
  774MOL0     O 2039   9.627   8.844   5.180  0.1573  0.0655  0.4517
  774MOL0     C 2040   9.631   8.938   5.076  0.2922  0.0632 -0.3534
  774MOL0     C 2041   9.719   8.935   4.957 -0.8827  0.3441 -0.8266
  774MOL0     C 2042   9.692   9.026   4.855  0.1174 -0.4969  0.2618
  774MOL0     C 2043   9.593   9.130   4.867 -0.1526  0.4182 -0.4951
  774MOL0     O 2044   9.571   9.234   4.785  0.9374  0.2099  0.3638
  774MOL0     C 2045   9.617   9.235   4.646 -0.0322  0.7651 -0.7080
  774MOL0     C 2046   9.512   9.149   4.561 -0.2610 -0.4633 -1.3239
  774MOL0     C 2047   9.507   9.194   4.415 -1.0300 -1.1759 -0.1806
  774MOL0     C 2048   9.398   9.121   4.333 -1.3018 -0.1996  0.2459
  774MOL0     C 2049   9.436   8.976   4.312 -0.0835 -1.2848  1.1275
  774MOL0     C 2050   9.315   8.900   4.250 -0.3058 -0.4886  0.5453
  774MOL0     C 2051   9.356   8.758   4.195 -0.0226 -0.2083  0.1115
  774MOL0     C 2052   9.414   8.662   4.301 -0.5417 -0.0051 -1.2222
  774MOL0     N 2053   9.464   8.541   4.227  0.3952  0.4545  0.3010
  774MOL0     C 2054   9.599   8.518   4.211 -0.5267 -0.5183 -0.0113
  774MOL0     C 2055   9.604   8.402   4.152 -0.2082  0.0012  0.5966
  774MOL0     C 2056   9.731   8.328   4.124  0.1822 -0.9239 -0.5155
  774MOL0     C 2057   9.738   8.246   3.994  0.1816  0.7513 -0.3100
  774MOL0     C 2058   9.871   8.175   3.982 -0.2128  0.3114  0.3660
  774MOL0     C 2059   9.899   8.062   4.083 -0.0997 -0.0784  0.0815
  774MOL0     O 2060  10.024   7.985   4.044  0.4217  0.4117  0.0702
  774MOL0     C 2061  10.093   7.910   4.144  0.4645 -0.2105  1.3505
  774MOL0     C 2062  10.166   7.802   4.094 -0.8232  0.1207 -0.1383
  774MOL0     C 2063  10.245   7.735   4.183 -0.9587 -0.5918  0.2568
  774MOL0     C 2064  10.246   7.758   4.317 -0.0452  0.3423  0.6561
  774MOL0     C 2065  10.329   7.673   4.399 -1.2084 -0.1802  0.4165
  774MOL0     O 2066  10.437   7.607   4.342 -0.4934  0.1427 -0.0687
  774MOL0     C 2067  10.496   7.508   4.421  0.0006  0.9356  0.8201
  774MOL0     C 2068  10.627   7.525   4.469 -0.5178 -0.2731  1.1906
  774MOL0     C 2069  10.683   7.430   4.551 -0.2722 -0.2462 -0.3770
  774MOL0     C 2070  10.610   7.310   4.586 -0.1518 -0.5899  0.5338
  774MOL0     O 2071  10.664   7.240   4.693 -0.1094  0.1220 -0.3088
  774MOL0     C 2072  10.617   7.113   4.729 -0.2332  0.5811 -0.4352
  774MOL0     C 2073  10.684   7.060   4.850 -0.0803 -0.0637  0.3265
  774MOL0     C 2074  10.835   7.026   4.821 -0.3221 -0.3208 -0.5282
  774MOL0     C 2075  10.896   6.965   4.939  0.8745  0.2343  0.0291
  774MOL0     C 2076  11.056   6.947   4.953  0.0637 -0.3818  0.5602
  774MOL0     C 2077  11.117   6.835   4.862  1.0759 -0.4335 -0.3455
  774MOL0     C 2078  11.269   6.834   4.876 -0.9021 -0.2011 -0.0077
  774MOL0     C 2079  11.348   6.931   4.790  0.9350  0.8741 -0.1474
  774MOL0    Cl 2080  11.509   6.898   4.797 -0.0731  0.1192 -0.0211
  774MOL0     C 2081  10.491   7.287   4.520  0.4842  0.9574 -0.3483
  774MOL0     C 2082  10.431   7.391   4.443 -0.1806 -0.6544  0.5894
  774MOL0     O 2083  10.300   7.676   4.522  0.0426  0.1810  0.7492
  774MOL0     C 2084  10.145   7.842   4.371  0.0641  0.0412  1.2103
  774MOL0     C 2085  10.069   7.924   4.288  0.3336  0.0845 -0.0256
  774MOL0     N 2086   9.467   8.364   4.125 -0.0961 -0.5480 -0.2801
  774MOL0     N 2087   9.387   8.444   4.172 -0.3395 -0.2165 -0.3406
  774MOL0     C 2088   9.511   9.134   4.977 -0.1610  0.0411  0.7430
  774MOL0     C 2089   9.533   9.036   5.080  0.3338  0.0440  0.1978
  774MOL0     C 2090   9.736   8.693   5.328  0.2577  0.0920 -0.2732
  774MOL0     C 2091   9.846   8.658   5.419  0.5554 -0.0387 -0.6536
  774MOL0     C 2092   9.835   8.546   5.507 -0.6917  0.2561  0.1612
  774MOL0     C 2093   9.717   8.477   5.524  0.2081  0.4084  0.3602
  774MOL0     O 2094   9.726   8.366   5.605  0.2036  0.1749  0.2159
  774MOL0     C 2095   9.716   8.238   5.544 -0.4117  0.5920  0.4077
  774MOL0     C 2096   9.819   8.202   5.444 -0.3156 -0.1198 -0.4297
  774MOL0     C 2097   9.964   8.232   5.488 -0.7214 -0.6426  0.3545
  774MOL0     C 2098  10.014   8.169   5.620  0.9001 -0.6623 -0.0087
  774MOL0     C 2099  10.153   8.212   5.646 -0.2171  0.4493 -1.4310
  774MOL0     C 2100  10.275   8.217   5.655 -0.3242 -0.0807 -0.3578
  774MOL0     C 2101   9.607   8.508   5.435 -0.3175 -0.3256 -0.2448
  774MOL0     C 2102   9.622   8.613   5.341  0.2587  0.4803  0.1425
  774MOL0     H 2103   9.785   8.849   4.956  1.2511  1.8659  0.6729
  774MOL0     H 2104   9.755   9.023   4.766 -1.3082  0.1392 -0.8181
  774MOL0     H 2105   9.719   9.194   4.642  0.2033  1.0442  1.2675
  774MOL0     H 2106   9.606   9.341   4.621  0.5528  1.5223  1.9244
  774MOL0     H 2107   9.416   9.181   4.602 -0.3823 -0.3862 -1.6681
  774MOL0     H 2108   9.523   9.040   4.572 -0.6339 -0.5377 -1.6838
  774MOL0     H 2109   9.599   9.178   4.360 -1.6506  1.1624 -2.0945
  774MOL0     H 2110   9.477   9.298   4.435 -1.5602 -2.0400  4.8801
  774MOL0     H 2111   9.311   9.128   4.399 -0.3680 -0.3727  1.5483
  774MOL0     H 2112   9.376   9.177   4.242  0.1894  0.5648  0.3216
  774MOL0     H 2113   9.471   8.929   4.405 -2.5973  0.2624  2.9774
  774MOL0     H 2114   9.520   8.982   4.242 -1.1299 -1.5876 -0.1889
  774MOL0     H 2115   9.262   8.961   4.175  1.5836  0.6867  0.1087
  774MOL0     H 2116   9.251   8.873   4.334 -0.8400 -2.8075 -0.5154
  774MOL0     H 2117   9.264   8.710   4.160  2.4360 -2.2625 -4.3345
  774MOL0     H 2118   9.427   8.763   4.112  0.0357 -3.0816 -0.1006
  774MOL0     H 2119   9.340   8.622   4.372 -0.9797  1.8543 -0.5787
  774MOL0     H 2120   9.503   8.712   4.339 -0.3157 -0.5528 -1.0159
  774MOL0     H 2121   9.690   8.571   4.240 -0.9285 -1.5320  3.6273
  774MOL0     H 2122   9.740   8.263   4.211 -2.6164 -0.6563  0.0749
  774MOL0     H 2123   9.812   8.401   4.119 -0.0862 -0.7173 -2.6380
  774MOL0     H 2124   9.718   8.315   3.911 -1.4381 -0.9739 -1.4357
  774MOL0     H 2125   9.666   8.163   3.996  0.8303  0.0557 -2.6763
  774MOL0     H 2126   9.878   8.135   3.880  1.2917  0.4600  0.3908
  774MOL0     H 2127   9.951   8.248   3.994  0.8511 -1.0005  1.6489
  774MOL0     H 2128   9.817   7.990   4.086  0.4191 -0.7771 -1.3966
  774MOL0     H 2129   9.920   8.109   4.179 -0.9994 -3.1019  1.9184
  774MOL0     H 2130  10.169   7.775   3.989  0.4640  1.5949 -0.5123
  774MOL0     H 2131  10.310   7.657   4.143  0.1477  1.3875 -2.0872
  774MOL0     H 2132  10.663   7.626   4.459  1.3784 -0.9124  1.2105
  774MOL0     H 2133  10.782   7.443   4.593  0.1356 -1.5656 -0.8985
  774MOL0     H 2134  10.620   7.047   4.641 -0.2619 -2.7945  1.8815
  774MOL0     H 2135  10.513   7.129   4.759 -0.0416  0.9357  0.0428
  774MOL0     H 2136  10.631   6.982   4.906 -1.6470  0.5158 -0.2825
  774MOL0     H 2137  10.687   7.141   4.924 -1.0307  1.5119 -1.2889
  774MOL0     H 2138  10.896   7.111   4.790  1.1547 -0.7675  1.0348
  774MOL0     H 2139  10.831   6.944   4.749  3.1173 -1.7190  0.6771
  774MOL0     H 2140  10.868   7.031   5.021 -0.1011 -1.9652  1.5653
  774MOL0     H 2141  10.846   6.869   4.953  0.0902  0.4258 -1.2743
  774MOL0     H 2142  11.086   6.929   5.057  0.5401  0.2488  0.5383
  774MOL0     H 2143  11.104   7.041   4.921  0.3630 -0.4523  0.7971
  774MOL0     H 2144  11.084   6.859   4.760  0.3086 -1.1010 -0.2658
  774MOL0     H 2145  11.074   6.736   4.878 -1.5765  0.4506 -1.3236
  774MOL0     H 2146  11.309   6.833   4.978  1.2238  3.9828 -0.5800
  774MOL0     H 2147  11.301   6.739   4.833  2.3316  0.6252  0.3494
  774MOL0     H 2148  11.337   7.033   4.827 -0.1293  0.6405  0.2254
  774MOL0     H 2149  11.317   6.945   4.685  2.9250  0.7165 -0.7866
  774MOL0     H 2150  10.434   7.195   4.531  0.6212  0.9592  0.4095
  774MOL0     H 2151  10.338   7.374   4.389  0.2342  3.0640 -1.6333
  774MOL0     H 2152  10.153   7.843   4.479  3.1383 -1.4683  1.1049
  774MOL0     H 2153   9.997   7.995   4.329 -1.1124 -1.3002 -0.0730
  774MOL0     H 2154   9.444   9.219   4.987 -0.5968  0.0707 -1.7531
  774MOL0     H 2155   9.466   9.042   5.165 -2.0053  1.3408 -1.6282
  774MOL0     H 2156   9.941   8.709   5.406  1.3649 -1.3178  0.0348
  774MOL0     H 2157   9.922   8.525   5.569  1.3403  0.2743 -2.4908
  774MOL0     H 2158   9.627   8.219   5.484 -0.9651 -2.1270  1.9348
  774MOL0     H 2159   9.714   8.163   5.623  0.5582  1.3040  1.1410
  774MOL0     H 2160   9.806   8.096   5.420  0.8824 -0.5479  0.6664
  774MOL0     H 2161   9.803   8.258   5.352 -0.6545 -3.2780 -2.4434
  774MOL0     H 2162   9.987   8.339   5.481 -2.9462 -0.2360 -3.7551
  774MOL0     H 2163  10.031   8.195   5.410  0.6007  3.0385 -0.4812
  774MOL0     H 2164   9.952   8.215   5.698  3.2529  4.1451 -0.6115
  774MOL0     H 2165  10.001   8.061   5.605 -1.6363 -0.4053 -0.0790
  774MOL0     H 2166  10.379   8.214   5.678 -0.3928  1.7037  0.3477
  774MOL0     H 2167   9.525   8.436   5.431  0.2597 -1.1248  1.4667
  774MOL0     H 2168   9.554   8.616   5.256  1.4429  0.6407 -0.8324
  775MOL0     O 2169   7.420   4.102   2.913 -0.4218  0.1082  0.0014
  775MOL0     C 2170   7.432   3.993   2.857  0.5879  0.9916  0.2743
  775MOL0     O 2171   7.337   3.893   2.870  0.5205  0.0360 -0.3000
  775MOL0     C 2172   7.215   3.917   2.932  0.0120 -0.9119  0.8911
  775MOL0     C 2173   7.125   4.021   2.903  0.2262 -0.5507 -0.2531
  775MOL0     C 2174   7.003   4.030   2.975  0.4061 -0.5516  0.9503
  775MOL0     C 2175   6.979   3.937   3.078 -0.8620 -0.0874  0.2557
  775MOL0     O 2176   6.881   3.937   3.176 -0.2813 -0.2330 -0.5214
  775MOL0     C 2177   6.764   4.013   3.158 -0.0954 -0.4518  0.2769
  775MOL0     C 2178   6.669   3.995   3.281  0.7357 -0.6532 -0.0040
  775MOL0     C 2179   6.561   4.107   3.307 -0.1918 -0.3498 -0.4975
  775MOL0     C 2180   6.572   4.157   3.451  0.1132 -0.1749 -1.0463
  775MOL0     C 2181   6.453   4.247   3.491 -0.3008  0.3121  0.1562
  775MOL0     C 2182   6.497   4.393   3.519  0.3911  0.0302 -0.3632
  775MOL0     C 2183   6.577   4.397   3.649  0.6185 -0.4288 -0.1382
  775MOL0     C 2184   6.571   4.531   3.731 -0.4186 -0.0994  0.0645
  775MOL0     N 2185   6.628   4.640   3.652  0.1838  0.2933 -0.3929
  775MOL0     C 2186   6.704   4.654   3.536 -0.1977  0.8734  0.3361
  775MOL0     C 2187   6.695   4.775   3.496 -0.6287  0.9414  0.1312
  775MOL0     C 2188   6.748   4.830   3.364 -0.1894 -0.2575 -0.2143
  775MOL0     C 2189   6.895   4.827   3.357 -0.3532  0.5792  0.0960
  775MOL0     C 2190   6.960   4.962   3.406  0.9205  1.3681  0.0248
  775MOL0     C 2191   7.107   4.971   3.424 -0.3893  0.0887  0.0268
  775MOL0     O 2192   7.187   4.939   3.309  0.2508 -0.3350  0.1687
  775MOL0     C 2193   7.319   4.940   3.310 -0.1393 -0.3771 -0.0361
  775MOL0     C 2194   7.401   4.990   3.409 -0.9465  0.6785  0.0156
  775MOL0     C 2195   7.540   4.985   3.392  0.0562  0.4162 -0.4231
  775MOL0     C 2196   7.603   4.932   3.280 -0.4117  0.7947 -0.4085
  775MOL0     C 2197   7.747   4.940   3.262 -0.3846  0.5874 -0.6405
  775MOL0     O 2198   7.797   4.896   3.134 -0.1950  0.2938 -1.0413
  775MOL0     C 2199   7.931   4.849   3.137 -0.0290  0.5940  0.3507
  775MOL0     C 2200   8.026   4.905   3.048 -1.3374 -0.6908 -0.1782
  775MOL0     C 2201   8.155   4.853   3.052  0.1209 -0.4392 -0.9676
  775MOL0     C 2202   8.194   4.747   3.137 -0.1683  0.0967  0.6622
  775MOL0     O 2203   8.323   4.712   3.124 -0.0319 -0.4457 -0.1367
  775MOL0     C 2204   8.362   4.583   3.167 -0.4392  0.2213  0.1096
  775MOL0     C 2205   8.505   4.535   3.126 -0.2532  0.1807  0.1681
  775MOL0     C 2206   8.518   4.503   2.977 -0.1005  1.2135 -1.1559
  775MOL0     C 2207   8.648   4.430   2.956  0.4528  0.8510  0.2774
  775MOL0     C 2208   8.678   4.423   2.805  0.2943  0.5099  0.0885
  775MOL0     C 2209   8.800   4.349   2.775  0.7809 -1.2910 -0.4023
  775MOL0     C 2210   8.805   4.222   2.849 -0.4614 -0.0657 -0.0846
  775MOL0     C 2211   8.898   4.129   2.777  0.4038 -0.1402  0.5454
  775MOL0    Cl 2212   8.943   3.981   2.860  0.0770  0.0296  0.1955
  775MOL0     C 2213   8.102   4.698   3.227  0.2672  0.3099  0.2820
  775MOL0     C 2214   7.974   4.756   3.231  0.2598  0.7184  0.3897
  775MOL0     O 2215   7.820   4.973   3.354 -0.6226  0.1235 -1.2384
  775MOL0     C 2216   7.515   4.873   3.188 -0.0855 -0.0114  0.8632
  775MOL0     C 2217   7.380   4.884   3.198  0.5600  0.0492  0.1544
  775MOL0     N 2218   6.612   4.846   3.580  0.0641 -0.1124 -0.6034
  775MOL0     N 2219   6.574   4.764   3.675 -0.0871  0.0435  1.2119
  775MOL0     C 2220   7.065   3.838   3.109 -0.0209  0.3216 -0.2259
  775MOL0     C 2221   7.183   3.825   3.033  0.6294  0.0252 -0.1253
  775MOL0     C 2222   7.555   3.959   2.777  0.7101 -0.1249 -1.7028
  775MOL0     C 2223   7.596   3.834   2.756  0.7662  0.5413  0.3894
  775MOL0     C 2224   7.714   3.804   2.700  0.4104 -0.4177  0.0438
  775MOL0     C 2225   7.803   3.912   2.661  0.9507 -0.9400  0.4146
  775MOL0     O 2226   7.924   3.872   2.608  0.2748  0.7506  0.3957
  775MOL0     C 2227   8.030   3.971   2.568 -0.1762  0.4458 -1.6888
  775MOL0     C 2228   8.034   3.995   2.419 -0.3455 -0.9361  0.1863
  775MOL0     C 2229   8.137   4.089   2.376 -0.5659  0.1926  0.1975
  775MOL0     C 2230   8.127   4.124   2.232 -0.4168 -1.0180  0.2943
  775MOL0     C 2231   8.139   4.012   2.137  0.3687  0.2599 -0.0163
  775MOL0     C 2232   8.154   3.919   2.066 -0.5336  0.9540  0.1579
  775MOL0     C 2233   7.753   4.043   2.672 -0.2698 -0.4887  0.0650
  775MOL0     C 2234   7.630   4.066   2.736  0.2835  0.3434  0.3017
  775MOL0     H 2235   7.154   4.106   2.842 -2.0542  0.1112 -0.5449
  775MOL0     H 2236   6.938   4.114   2.952  0.6084 -0.8254 -0.7052
  775MOL0     H 2237   6.715   3.981   3.065  1.0708 -0.4119 -0.3664
  775MOL0     H 2238   6.790   4.118   3.144 -2.3578 -0.0446 -1.4312
  775MOL0     H 2239   6.737   4.015   3.364 -1.4847 -2.4905  2.4736
  775MOL0     H 2240   6.631   3.892   3.288  0.8498 -0.8106 -1.4045
  775MOL0     H 2241   6.460   4.066   3.295  0.4204 -2.0652 -0.1032
  775MOL0     H 2242   6.580   4.184   3.232 -1.5210 -1.9635 -2.5857
  775MOL0     H 2243   6.570   4.068   3.515  1.1694  1.2658  1.1212
  775MOL0     H 2244   6.676   4.185   3.472  0.6470 -3.7554  2.4461
  775MOL0     H 2245   6.409   4.193   3.575  0.7881  0.1017  0.6103
  775MOL0     H 2246   6.382   4.245   3.408  1.7555  1.3426 -1.7369
  775MOL0     H 2247   6.406   4.454   3.525 -1.2284 -2.3596  0.9462
  775MOL0     H 2248   6.560   4.421   3.434  1.9233  1.1832  1.0609
  775MOL0     H 2249   6.537   4.323   3.719  0.5966  0.9977  1.4214
  775MOL0     H 2250   6.682   4.382   3.621  0.6741  0.8046 -0.6890
  775MOL0     H 2251   6.635   4.501   3.814 -0.2168 -2.4675 -0.8840
  775MOL0     H 2252   6.475   4.545   3.781 -0.5657  0.0073 -0.2411
  775MOL0     H 2253   6.746   4.565   3.490 -0.8852  0.3726  0.6453
  775MOL0     H 2254   6.704   4.930   3.355 -0.6129 -0.4047  0.2032
  775MOL0     H 2255   6.695   4.780   3.282  0.2759 -1.0470 -0.0521
  775MOL0     H 2256   6.912   4.812   3.250 -0.3034 -3.5857  0.5424
  775MOL0     H 2257   6.934   4.740   3.410  0.2479 -0.0022 -1.2455
  775MOL0     H 2258   6.912   5.044   3.351  2.5755  0.8350 -2.3964
  775MOL0     H 2259   6.924   4.974   3.509  0.1347 -0.9801  0.0965
  775MOL0     H 2260   7.146   4.910   3.506  1.4638  1.8776  0.5555
  775MOL0     H 2261   7.120   5.078   3.439 -0.2746 -0.0932  1.3490
  775MOL0     H 2262   7.366   5.044   3.497 -0.1519  1.6157 -0.2300
  775MOL0     H 2263   7.598   5.005   3.482  0.7596 -3.7740  0.2620
  775MOL0     H 2264   8.004   4.991   2.986  3.3877  0.1633 -1.0650
  775MOL0     H 2265   8.225   4.897   2.982  0.0996  0.9928 -0.1413
  775MOL0     H 2266   8.289   4.513   3.126 -1.8623  2.2860 -1.1059
  775MOL0     H 2267   8.363   4.586   3.276 -1.0817  0.2258  0.1150
  775MOL0     H 2268   8.531   4.450   3.189 -2.5090  2.6625  4.9939
  775MOL0     H 2269   8.577   4.613   3.153  0.7943 -0.4874 -0.6356
  775MOL0     H 2270   8.511   4.597   2.923 -1.2471  0.6676 -2.0116
  775MOL0     H 2271   8.438   4.431   2.954  1.8622  0.0266 -5.1527
  775MOL0     H 2272   8.739   4.467   3.005  3.5308 -2.4035 -2.3780
  775MOL0     H 2273   8.628   4.340   3.017 -0.4766  1.3239  0.6945
  775MOL0     H 2274   8.673   4.525   2.767  1.5895  0.3255 -0.6373
  775MOL0     H 2275   8.612   4.357   2.749  0.4626  0.3832  0.0377
  775MOL0     H 2276   8.885   4.413   2.803 -0.9185 -0.2596  3.0137
  775MOL0     H 2277   8.811   4.335   2.668  0.4250 -0.1033 -0.6083
  775MOL0     H 2278   8.836   4.246   2.951 -2.7804  2.5262  0.1368
  775MOL0     H 2279   8.712   4.166   2.850 -0.4024 -0.2781  2.9480
  775MOL0     H 2280   8.990   4.179   2.747 -1.0572  0.9821 -2.4799
  775MOL0     H 2281   8.846   4.109   2.683  1.4542  0.4328 -0.1680
  775MOL0     H 2282   8.146   4.624   3.294  2.6264  0.0442 -1.4264
  775MOL0     H 2283   7.900   4.732   3.306  0.8299  0.9015  1.0255
  775MOL0     H 2284   7.562   4.822   3.104  0.7157 -0.8644  1.8091
  775MOL0     H 2285   7.312   4.834   3.130  0.5566  0.9983 -0.5761
  775MOL0     H 2286   7.041   3.768   3.188  1.1004  0.5702  0.3586
  775MOL0     H 2287   7.254   3.749   3.067 -0.1158 -0.7904 -0.3495
  775MOL0     H 2288   7.537   3.746   2.778 -1.0139  0.8723 -2.4914
  775MOL0     H 2289   7.739   3.699   2.690 -0.3085 -0.6100  0.2247
  775MOL0     H 2290   8.127   3.929   2.596 -0.2146  0.0742 -2.0956
  775MOL0     H 2291   8.021   4.058   2.633 -1.1680 -2.0506  1.7777
  775MOL0     H 2292   8.046   3.895   2.376  0.9350 -1.3546  1.4474
  775MOL0     H 2293   7.939   4.037   2.385 -0.3790 -1.0533  0.1352
  775MOL0     H 2294   8.236   4.046   2.391  1.0185  4.3058  3.5500
  775MOL0     H 2295   8.133   4.182   2.434  0.0429  0.2569  0.1344
  775MOL0     H 2296   8.036   4.183   2.217  1.0533  1.5440  0.8186
  775MOL0     H 2297   8.204   4.198   2.208 -1.2130  0.1541  1.2448
  775MOL0     H 2298   8.182   3.828   2.017  0.8893  1.3779  0.1585
  775MOL0     H 2299   7.814   4.131   2.653 -0.9117 -0.3685 -1.6046
  775MOL0     H 2300   7.599   4.169   2.750  0.4425  0.2572  1.3338
  776MOL0     O 2301   3.547   2.016   5.897 -0.0485  0.6205  0.1818
  776MOL0     C 2302   3.448   1.964   5.952 -0.8207  0.3755 -0.6835
  776MOL0     O 2303   3.372   2.028   6.045  0.4710 -0.3937 -0.1697
  776MOL0     C 2304   3.433   2.132   6.110  0.8806  0.0305 -0.9076
  776MOL0     C 2305   3.479   2.120   6.241 -0.1875 -0.2890  0.7537
  776MOL0     C 2306   3.564   2.214   6.292 -0.3147 -0.0799  0.1717
  776MOL0     C 2307   3.604   2.333   6.229 -0.9928  0.2110 -0.1389
  776MOL0     O 2308   3.699   2.421   6.273 -0.2866 -0.4613  0.0253
  776MOL0     C 2309   3.716   2.427   6.418  0.3275 -0.0868 -0.8543
  776MOL0     C 2310   3.604   2.522   6.483 -0.2828  0.6653  0.6416
  776MOL0     C 2311   3.598   2.514   6.632  0.2032  1.1378 -0.7198
  776MOL0     C 2312   3.723   2.550   6.704  1.0929 -0.0365  0.6684
  776MOL0     C 2313   3.680   2.556   6.850  0.0922  0.2729 -0.5331
  776MOL0     C 2314   3.793   2.608   6.945 -0.2592  0.5313 -0.3785
  776MOL0     C 2315   3.745   2.603   7.086  0.6270  0.3741  0.1423
  776MOL0     C 2316   3.832   2.647   7.197 -1.0372  0.1609 -0.0583
  776MOL0     N 2317   3.953   2.556   7.211 -0.2964 -0.2298 -0.0890
  776MOL0     C 2318   3.966   2.445   7.282  1.1399  0.0953  0.3753
  776MOL0     C 2319   4.095   2.418   7.291 -0.5614  0.6421 -0.1563
  776MOL0     C 2320   4.163   2.311   7.372 -0.5728 -0.1394 -0.2453
  776MOL0     C 2321   4.091   2.281   7.502 -0.4397 -0.1094  0.2306
  776MOL0     C 2322   4.057   2.398   7.594  0.8221 -1.4383 -0.5433
  776MOL0     C 2323   4.027   2.353   7.743 -0.2524 -0.9599  0.7566
  776MOL0     O 2324   3.904   2.278   7.744  0.2846 -0.3348  0.2379
  776MOL0     C 2325   3.792   2.339   7.792  0.2753  0.4876  0.1075
  776MOL0     C 2326   3.776   2.477   7.814 -0.2356  0.2277 -0.1778
  776MOL0     C 2327   3.655   2.517   7.869 -0.2199 -0.2752  0.2051
  776MOL0     C 2328   3.562   2.428   7.919 -0.3436 -0.5971 -0.1196
  776MOL0     C 2329   3.437   2.467   7.994 -0.0417  0.2123 -0.7059
  776MOL0     O 2330   3.372   2.384   8.078  0.1356  0.3258  0.5369
  776MOL0     C 2331   3.291   2.452   8.163  0.3373 -0.2075  0.6894
  776MOL0     C 2332   3.345   2.529   8.275  0.3171  0.3298 -0.2176
  776MOL0     C 2333   3.253   2.611   8.360  1.0344 -0.4460  0.5120
  776MOL0     C 2334   3.118   2.606   8.336  0.3874 -0.5691 -0.1266
  776MOL0     O 2335   3.034   2.683   8.414  0.0565  1.0488 -0.3959
  776MOL0     C 2336   3.075   2.738   8.540 -1.2035  0.6590 -0.0753
  776MOL0     C 2337   2.967   2.776   8.630 -0.3600 -0.0802 -0.8515
  776MOL0     C 2338   2.873   2.664   8.676 -0.1357  0.4238 -0.9129
  776MOL0     C 2339   2.777   2.721   8.779 -0.0304  0.8740 -0.5011
  776MOL0     C 2340   2.661   2.630   8.823  0.3451  1.2895 -0.1366
  776MOL0     C 2341   2.607   2.654   8.956  0.2166 -0.8007  0.0651
  776MOL0     C 2342   2.492   2.565   8.989 -0.0009  0.6946 -0.2788
  776MOL0     C 2343   2.440   2.597   9.129 -1.1845 -0.0543  0.3428
  776MOL0    Cl 2344   2.322   2.472   9.182  0.0267  0.0320 -0.0843
  776MOL0     C 2345   3.064   2.528   8.231 -0.2519 -0.1272  0.5354
  776MOL0     C 2346   3.150   2.453   8.151 -0.2258  0.3212 -0.1310
  776MOL0     O 2347   3.400   2.579   7.959  0.1067  0.3511  0.1852
  776MOL0     C 2348   3.586   2.293   7.904 -0.3272  0.0716  0.1510
  776MOL0     C 2349   3.709   2.249   7.840  0.8628  0.2733  0.1982
  776MOL0     N 2350   4.164   2.511   7.213  0.3693  0.0666  0.8269
  776MOL0     N 2351   4.076   2.604   7.180 -0.4630  0.4407 -0.1795
  776MOL0     C 2352   3.557   2.344   6.097  0.0831 -0.8871  0.1092
  776MOL0     C 2353   3.479   2.246   6.033  0.1574  1.1250 -0.4677
  776MOL0     C 2354   3.399   1.825   5.934  0.0684 -0.4044  0.4892
  776MOL0     C 2355   3.319   1.757   6.016 -0.5869  0.1577 -0.5147
  776MOL0     C 2356   3.274   1.629   5.973 -0.3660  0.2585 -1.6880
  776MOL0     C 2357   3.283   1.588   5.840 -0.7652  0.4107  0.4331
  776MOL0     O 2358   3.232   1.469   5.823 -1.3700 -0.3063  0.2977
  776MOL0     C 2359   3.234   1.416   5.692  0.2983  0.2714 -0.6491
  776MOL0     C 2360   3.176   1.280   5.712  1.4094 -0.2972 -0.8736
  776MOL0     C 2361   3.128   1.211   5.590 -0.1112  0.4397 -0.6085
  776MOL0     C 2362   3.089   1.065   5.628  0.0454  0.3742 -0.8037
  776MOL0     C 2363   3.071   0.983   5.509 -0.2474 -0.3751 -0.2855
  776MOL0     C 2364   3.082   0.934   5.396 -0.0540  0.6122 -0.6859
  776MOL0     C 2365   3.357   1.664   5.751  0.2897  0.3603 -0.2263
  776MOL0     C 2366   3.421   1.774   5.806  0.5693 -0.7146  0.0411
  776MOL0     H 2367   3.460   2.032   6.302  1.0697 -0.4983  0.8756
  776MOL0     H 2368   3.611   2.200   6.388  0.3154  0.5889 -0.0264
  776MOL0     H 2369   3.807   2.477   6.450 -0.7307  2.1426 -1.1439
  776MOL0     H 2370   3.722   2.332   6.473  1.2296  1.4774  1.9016
  776MOL0     H 2371   3.507   2.490   6.445 -0.5986  1.3506  0.8566
  776MOL0     H 2372   3.624   2.626   6.456  2.1873  0.2405  0.6182
  776MOL0     H 2373   3.568   2.416   6.670  1.4348  1.1058  0.2480
  776MOL0     H 2374   3.518   2.582   6.665  0.3869 -0.8475  4.9504
  776MOL0     H 2375   3.800   2.472   6.697  0.5014 -0.5054 -1.0205
  776MOL0     H 2376   3.764   2.641   6.660  1.2743  0.3922  1.7074
  776MOL0     H 2377   3.645   2.457   6.879 -0.2407  0.3618 -0.6302
  776MOL0     H 2378   3.600   2.629   6.866  1.7661  2.5849 -1.9884
  776MOL0     H 2379   3.812   2.713   6.920 -0.3732  0.2467 -1.7496
  776MOL0     H 2380   3.892   2.567   6.923 -0.2780  1.3865 -2.3040
  776MOL0     H 2381   3.653   2.661   7.096 -1.5378 -3.1142  2.5916
  776MOL0     H 2382   3.707   2.508   7.124 -0.3017  0.9323  0.6371
  776MOL0     H 2383   3.775   2.634   7.289 -1.5698  0.1866 -0.3846
  776MOL0     H 2384   3.878   2.746   7.189 -0.1984  0.0747  2.6891
  776MOL0     H 2385   3.889   2.401   7.345  1.0343  1.3741  1.1841
  776MOL0     H 2386   4.259   2.357   7.396 -1.7262  1.9321  0.6459
  776MOL0     H 2387   4.174   2.222   7.308 -0.7663 -0.0641 -0.3843
  776MOL0     H 2388   4.151   2.209   7.558  3.1662  1.6698 -1.0408
  776MOL0     H 2389   4.004   2.226   7.465  0.6716 -2.5202  0.9963
  776MOL0     H 2390   4.148   2.459   7.601  0.3400 -0.6971 -0.5492
  776MOL0     H 2391   3.980   2.463   7.553  0.2163 -0.6134  1.7313
  776MOL0     H 2392   4.029   2.445   7.801  0.6622  3.0966 -4.8262
  776MOL0     H 2393   4.109   2.292   7.783  2.0212  1.1925 -0.3518
  776MOL0     H 2394   3.851   2.547   7.778 -0.4652  1.1374  1.0345
  776MOL0     H 2395   3.630   2.623   7.873 -0.1055 -0.1639 -1.2980
  776MOL0     H 2396   3.450   2.532   8.303  1.7349 -1.1321 -4.5362
  776MOL0     H 2397   3.304   2.680   8.426  1.2458  1.7923 -1.8207
  776MOL0     H 2398   3.140   2.825   8.527 -2.3084  1.7334  1.1823
  776MOL0     H 2399   3.134   2.668   8.601  0.5027 -1.3459 -3.6887
  776MOL0     H 2400   2.918   2.858   8.577 -1.3496  0.0521  0.2282
  776MOL0     H 2401   3.019   2.811   8.720 -0.7020 -2.0104  0.1636
  776MOL0     H 2402   2.931   2.579   8.713 -3.4022 -0.7904  2.0875
  776MOL0     H 2403   2.813   2.625   8.594  0.1513  0.0131 -0.9290
  776MOL0     H 2404   2.831   2.758   8.867  0.9166  2.8306 -1.8261
  776MOL0     H 2405   2.732   2.799   8.716 -0.8705  0.6274 -0.2295
  776MOL0     H 2406   2.674   2.524   8.797 -1.4029  0.6982  1.1997
  776MOL0     H 2407   2.580   2.656   8.754  0.0847  0.4610 -0.1587
  776MOL0     H 2408   2.577   2.759   8.963  2.7445  0.0133 -0.3445
  776MOL0     H 2409   2.691   2.642   9.025 -0.7776 -0.5275  1.3483
  776MOL0     H 2410   2.414   2.561   8.913 -0.7897  1.5579  0.4567
  776MOL0     H 2411   2.538   2.466   8.995 -0.2191  0.6777  3.9569
  776MOL0     H 2412   2.384   2.689   9.109  1.4452  2.1216  2.2943
  776MOL0     H 2413   2.528   2.606   9.193  0.8565 -0.9193 -2.1407
  776MOL0     H 2414   2.957   2.532   8.214 -0.0021 -0.3154 -1.3324
  776MOL0     H 2415   3.105   2.402   8.066 -0.3385 -2.0940  1.2865
  776MOL0     H 2416   3.528   2.221   7.960  1.7269  0.1522  2.5125
  776MOL0     H 2417   3.722   2.143   7.824  0.3663  0.7605 -6.7229
  776MOL0     H 2418   3.587   2.429   6.037 -3.8425  0.9724  0.4803
  776MOL0     H 2419   3.440   2.260   5.933  0.5919 -0.3684 -0.8735
  776MOL0     H 2420   3.307   1.795   6.117  0.3284 -1.2424  0.1621
  776MOL0     H 2421   3.226   1.566   6.048  0.5700  3.6584  2.1713
  776MOL0     H 2422   3.323   1.414   5.629  0.0998 -2.2389 -0.9603
  776MOL0     H 2423   3.156   1.470   5.638  2.2876  0.2544 -3.7387
  776MOL0     H 2424   3.243   1.223   5.778  1.8061  1.4040  0.2647
  776MOL0     H 2425   3.095   1.290   5.785  3.4335  1.4110  1.3208
  776MOL0     H 2426   3.207   1.199   5.514 -3.1125 -4.4926 -3.5277
  776MOL0     H 2427   3.046   1.257   5.535 -1.1894 -1.0409 -0.3159
  776MOL0     H 2428   3.160   1.011   5.690 -1.5892 -3.5181 -2.0192
  776MOL0     H 2429   2.998   1.067   5.689  1.4085 -0.0254  1.3286
  776MOL0     H 2430   3.087   0.904   5.294  0.0921 -1.5803 -0.0897
  776MOL0     H 2431   3.384   1.623   5.654 -0.5744 -2.9110  0.7555
  776MOL0     H 2432   3.475   1.828   5.729  0.6631 -1.9280 -0.7668
  777MOL0     O 2433  10.366   7.480   6.538  0.0630  0.7646 -0.0221
  777MOL0     C 2434  10.284   7.405   6.487 -0.0461 -0.9814 -0.5691
  777MOL0     O 2435  10.186   7.351   6.552  0.4970  0.1466 -0.2637
  777MOL0     C 2436  10.130   7.404   6.667 -0.4493  0.3026  0.9922
  777MOL0     C 2437  10.016   7.349   6.720 -0.4851 -0.6054 -0.1864
  777MOL0     C 2438   9.947   7.404   6.822  1.5817  0.1298 -0.0711
  777MOL0     C 2439   9.973   7.524   6.870 -0.1237 -0.3266  0.0348
  777MOL0     O 2440   9.903   7.594   6.962  0.4067  0.1380  0.4938
  777MOL0     C 2441   9.761   7.600   6.953  0.3149  0.3164 -0.5584
  777MOL0     C 2442   9.704   7.702   7.047  0.2610 -0.7449 -0.0178
  777MOL0     C 2443   9.619   7.810   6.983  0.5195 -0.9585  0.2593
  777MOL0     C 2444   9.542   7.895   7.075 -0.5057 -0.3147 -0.9547
  777MOL0     C 2445   9.460   8.005   7.004 -0.1521 -0.9189  0.0248
  777MOL0     C 2446   9.338   7.962   6.920 -0.1362  0.0523  0.4132
  777MOL0     C 2447   9.237   7.867   6.999 -0.5445 -0.3480 -0.5837
  777MOL0     C 2448   9.174   7.943   7.123  0.3425 -0.1348  0.7442
  777MOL0     N 2449   9.075   7.861   7.201  0.1139 -0.4686  0.6659
  777MOL0     C 2450   8.989   7.920   7.296 -0.1605  0.8833  0.0134
  777MOL0     C 2451   8.946   7.817   7.371  0.1264 -0.0798 -0.1801
  777MOL0     C 2452   8.846   7.842   7.473 -0.5656 -0.3949  0.0602
  777MOL0     C 2453   8.920   7.858   7.603 -0.1239  1.1976 -0.2250
  777MOL0     C 2454   8.838   7.877   7.729 -0.0336  0.7875 -0.0970
  777MOL0     C 2455   8.931   7.950   7.831  0.0644  0.3813 -0.3984
  777MOL0     O 2456   9.031   7.860   7.896 -0.8446  0.3512 -0.7945
  777MOL0     C 2457   9.138   7.919   7.956 -0.0172  0.3652 -0.9767
  777MOL0     C 2458   9.205   8.031   7.897 -0.2548 -0.7067 -0.5053
  777MOL0     C 2459   9.318   8.082   7.954  0.5323  0.3302 -0.9546
  777MOL0     C 2460   9.372   8.028   8.080  0.4288  0.3347  0.7451
  777MOL0     C 2461   9.499   8.068   8.146  0.2911 -0.4472 -0.4702
  777MOL0     O 2462   9.527   8.022   8.274 -0.1279  0.3123 -0.0179
  777MOL0     C 2463   9.655   8.009   8.321 -0.2202 -0.1787  0.0454
  777MOL0     C 2464   9.772   7.989   8.237  1.0456 -0.8149  0.1761
  777MOL0     C 2465   9.901   7.981   8.294  0.3044 -0.2586  0.0455
  777MOL0     C 2466   9.923   7.977   8.426  0.2327  0.0632  0.4674
  777MOL0     O 2467  10.060   7.982   8.464 -0.6926 -0.1741  0.5481
  777MOL0     C 2468  10.089   8.018   8.599  0.6960  0.4880  0.1518
  777MOL0     C 2469  10.248   8.057   8.592 -0.1066 -1.2530 -0.0324
  777MOL0     C 2470  10.348   7.951   8.558 -0.3445 -0.8421  0.6485
  777MOL0     C 2471  10.486   8.009   8.523 -0.2176  0.6051 -0.4374
  777MOL0     C 2472  10.612   7.910   8.523 -0.1784  0.1926  0.0339
  777MOL0     C 2473  10.599   7.769   8.462  0.4471 -0.1545 -0.6001
  777MOL0     C 2474  10.728   7.689   8.474 -0.5952  0.0905 -0.0807
  777MOL0     C 2475  10.857   7.718   8.397  0.8609 -1.3447 -1.2178
  777MOL0    Cl 2476  10.968   7.574   8.392 -0.1222  0.1730 -0.4981
  777MOL0     C 2477   9.806   7.991   8.511 -0.3332  0.2915  0.9349
  777MOL0     C 2478   9.682   8.014   8.454  0.0694 -0.7385 -0.2720
  777MOL0     O 2479   9.566   8.151   8.087  0.0530 -0.0933 -0.5899
  777MOL0     C 2480   9.303   7.911   8.137 -0.7805 -0.6150  0.3521
  777MOL0     C 2481   9.184   7.865   8.077 -0.2152  0.8650 -1.0196
  777MOL0     N 2482   9.015   7.699   7.340  0.7645 -0.8926  0.6628
  777MOL0     N 2483   9.086   7.725   7.237 -0.2606 -0.5666 -0.1497
  777MOL0     C 2484  10.093   7.573   6.841 -0.4697  0.1887 -0.4969
  777MOL0     C 2485  10.173   7.517   6.740  0.7052 -0.5404 -0.0525
  777MOL0     C 2486  10.301   7.362   6.347  0.2223  0.0946 -0.4846
  777MOL0     C 2487  10.193   7.309   6.276  0.7968  0.0203  0.7851
  777MOL0     C 2488  10.205   7.284   6.139  0.0132 -0.2882  0.1810
  777MOL0     C 2489  10.324   7.299   6.074 -0.6445 -1.1478 -1.1048
  777MOL0     O 2490  10.318   7.281   5.943 -0.0811  0.3441 -0.4548
  777MOL0     C 2491  10.428   7.310   5.861 -0.3327 -0.5153 -0.9663
  777MOL0     C 2492  10.396   7.223   5.739 -0.6997  0.0933  0.3205
  777MOL0     C 2493  10.473   7.265   5.605  0.1753 -1.3723 -0.0820
  777MOL0     C 2494  10.458   7.173   5.487  0.4276  1.2756  0.2140
  777MOL0     C 2495  10.495   7.032   5.529 -1.1324 -0.9699 -0.9573
  777MOL0     C 2496  10.515   6.918   5.563  0.5357  1.3120  0.5146
  777MOL0     C 2497  10.432   7.334   6.156 -0.1797 -0.6323  0.3849
  777MOL0     C 2498  10.421   7.365   6.288  0.1453  0.0509  0.5454
  777MOL0     H 2499   9.977   7.253   6.686  0.1499 -0.8950 -0.1017
  777MOL0     H 2500   9.854   7.355   6.845  2.0727 -1.6831 -1.6570
  777MOL0     H 2501   9.709   7.507   6.979  1.0532 -0.9542 -3.2779
  777MOL0     H 2502   9.741   7.605   6.846  1.4503  3.2031 -0.7135
  777MOL0     H 2503   9.782   7.752   7.106  0.0729  0.7974 -1.0237
  777MOL0     H 2504   9.642   7.648   7.120 -0.0347  0.1408  0.4031
  777MOL0     H 2505   9.547   7.762   6.917  2.3741 -4.7579  0.6871
  777MOL0     H 2506   9.683   7.866   6.915 -1.9534  0.0783 -1.3417
  777MOL0     H 2507   9.484   7.836   7.146  1.5071 -0.6428  0.5317
  777MOL0     H 2508   9.612   7.944   7.144  0.9638 -1.6294 -1.4459
  777MOL0     H 2509   9.529   8.056   6.936 -1.8077  0.5049 -0.6740
  777MOL0     H 2510   9.413   8.076   7.073 -1.5947 -0.7377 -1.0975
  777MOL0     H 2511   9.373   7.922   6.825 -0.9589  2.0248 -0.7698
  777MOL0     H 2512   9.296   8.057   6.886  1.5132  0.2407 -1.2119
  777MOL0     H 2513   9.146   7.848   6.940 -1.3805 -0.8486  0.8375
  777MOL0     H 2514   9.297   7.778   7.020  0.8580  0.8065  0.4895
  777MOL0     H 2515   9.125   8.038   7.097  1.5383  0.3072  0.0116
  777MOL0     H 2516   9.265   7.959   7.182  1.4011  2.1544 -1.3130
  777MOL0     H 2517   8.963   8.025   7.308 -0.4391  0.8106  0.0625
  777MOL0     H 2518   8.775   7.759   7.478 -3.4875  1.9144 -0.3031
  777MOL0     H 2519   8.782   7.926   7.443 -0.5799  0.0748  1.3392
  777MOL0     H 2520   8.976   7.952   7.607  1.8002  0.0628  0.7949
  777MOL0     H 2521   8.990   7.775   7.616  0.4179  1.6964  0.1106
  777MOL0     H 2522   8.755   7.948   7.720  0.9801  2.2706  1.4716
  777MOL0     H 2523   8.806   7.778   7.762 -1.0349  0.4625 -1.9300
  777MOL0     H 2524   8.861   7.994   7.902 -1.4408 -0.8065 -1.0895
  777MOL0     H 2525   8.976   8.043   7.795  1.3446  0.5544  1.4681
  777MOL0     H 2526   9.179   8.069   7.798  0.4995  0.6886 -0.1872
  777MOL0     H 2527   9.371   8.165   7.907  1.3617 -0.8198 -2.1035
  777MOL0     H 2528   9.756   7.993   8.130  1.2113  2.0313  0.1968
  777MOL0     H 2529   9.988   7.972   8.229  0.2138 -1.9119  0.1239
  777MOL0     H 2530  10.066   7.931   8.661  1.0361 -0.0627 -0.4716
  777MOL0     H 2531  10.021   8.098   8.626 -2.1517 -1.6023 -0.4025
  777MOL0     H 2532  10.272   8.102   8.689  0.9242 -1.6135 -0.1058
  777MOL0     H 2533  10.255   8.135   8.516  1.3718 -0.5154  0.8007
  777MOL0     H 2534  10.302   7.901   8.472  0.3371  1.8317 -1.4182
  777MOL0     H 2535  10.357   7.878   8.639  2.2637 -0.8065  0.4680
  777MOL0     H 2536  10.476   8.043   8.419 -1.7177 -1.1067 -0.9136
  777MOL0     H 2537  10.520   8.089   8.589  3.1862 -2.2099  1.5259
  777MOL0     H 2538  10.623   7.896   8.631  1.2432  1.0432  0.0284
  777MOL0     H 2539  10.701   7.965   8.490  1.1144 -0.8015  1.6903
  777MOL0     H 2540  10.559   7.780   8.360 -1.6055  1.4623  0.2886
  777MOL0     H 2541  10.520   7.714   8.514  0.2739 -1.5745 -2.2525
  777MOL0     H 2542  10.747   7.683   8.581  1.4676 -1.6177 -0.4676
  777MOL0     H 2543  10.698   7.585   8.455 -2.8822  0.7445 -0.3746
  777MOL0     H 2544  10.902   7.801   8.452 -4.5055  0.6625  0.7611
  777MOL0     H 2545  10.832   7.761   8.299  1.8437 -0.9239 -1.2956
  777MOL0     H 2546   9.819   7.981   8.618  1.1041  1.0349  0.8478
  777MOL0     H 2547   9.596   8.021   8.520  0.4626  0.7873  0.1192
  777MOL0     H 2548   9.344   7.869   8.228  0.9996  1.6652  0.6984
  777MOL0     H 2549   9.126   7.791   8.132  2.1822  0.3950  1.0779
  777MOL0     H 2550  10.139   7.641   6.912  5.0680 -1.0634 -2.3159
  777MOL0     H 2551  10.268   7.567   6.727 -1.4048  3.0919 -3.6608
  777MOL0     H 2552  10.099   7.298   6.330  1.1427  0.7843  1.5668
  777MOL0     H 2553  10.126   7.241   6.079  0.0327 -2.1054  1.3684
  777MOL0     H 2554  10.527   7.290   5.903  1.7892  0.9740 -4.6930
  777MOL0     H 2555  10.411   7.415   5.835 -0.6173 -0.5953 -1.0998
  777MOL0     H 2556  10.415   7.122   5.778  0.3490  0.4678  0.8115
  777MOL0     H 2557  10.290   7.246   5.724 -0.3823  2.1800  0.9756
  777MOL0     H 2558  10.580   7.279   5.625 -0.4854  2.6906  1.6125
  777MOL0     H 2559  10.431   7.361   5.575 -2.3711 -0.9475  4.0227
  777MOL0     H 2560  10.351   7.176   5.462  0.8550 -1.7427 -2.6384
  777MOL0     H 2561  10.523   7.203   5.404 -0.7461 -0.1836 -1.3204
  777MOL0     H 2562  10.537   6.816   5.589 -2.2575  1.3594  3.7242
  777MOL0     H 2563  10.538   7.336   6.130 -0.0865 -0.7363  0.7554
  777MOL0     H 2564  10.516   7.394   6.330  1.1267  0.5093 -1.7919
  778MOL0     O 2565   9.924  10.497   3.967 -0.3089  0.1549 -0.1705
  778MOL0     C 2566   9.984  10.488   4.081  0.2897 -0.5668  0.8372
  778MOL0     O 2567  10.040  10.376   4.131  1.0219  0.1369  0.6582
  778MOL0     C 2568  10.053  10.269   4.051 -0.6221 -0.5437 -0.1614
  778MOL0     C 2569  10.060  10.151   4.135 -1.1488  0.0988  0.7092
  778MOL0     C 2570  10.091  10.029   4.071 -0.4372  0.6344  0.7854
  778MOL0     C 2571  10.087  10.011   3.926 -0.2868  0.1666  0.1257
  778MOL0     O 2572  10.096   9.888   3.869 -0.0780  0.1368 -0.0269
  778MOL0     C 2573  10.094   9.772   3.954 -0.3251  0.5330 -0.2318
  778MOL0     C 2574  10.100   9.644   3.860 -0.4385 -0.1325  0.1879
  778MOL0     C 2575  10.063   9.521   3.940  0.2138 -0.9124 -0.8126
  778MOL0     C 2576  10.191   9.459   4.011 -0.2799 -1.1240 -0.4822
  778MOL0     C 2577  10.172   9.324   4.079  0.6147 -0.2027 -0.1707
  778MOL0     C 2578  10.064   9.351   4.189  0.1475  0.3152 -0.7875
  778MOL0     C 2579  10.057   9.232   4.280  0.3573 -0.0998  0.5644
  778MOL0     C 2580  10.025   9.268   4.424 -1.0496 -0.2122  0.2304
  778MOL0     N 2581  10.042   9.155   4.517 -1.2441  0.7730 -0.4538
  778MOL0     C 2582  10.091   9.163   4.640  0.5957 -1.1729  0.9551
  778MOL0     C 2583  10.029   9.070   4.723 -0.3622 -0.1271 -0.8242
  778MOL0     C 2584  10.052   9.046   4.869 -0.9790 -0.7544  0.0396
  778MOL0     C 2585  10.116   8.907   4.902  0.3749  1.2043  0.5470
  778MOL0     C 2586  10.267   8.890   4.860  0.6674  0.6824 -0.4171
  778MOL0     C 2587  10.280   8.798   4.733 -0.3806 -0.6624 -0.3514
  778MOL0     O 2588  10.419   8.794   4.723  0.3847 -0.6615  0.3434
  778MOL0     C 2589  10.473   8.732   4.616  0.3783 -0.2495 -0.1617
  778MOL0     C 2590  10.397   8.662   4.527  0.0562  0.1678 -0.4702
  778MOL0     C 2591  10.453   8.602   4.418  0.7615  0.1305 -0.4842
  778MOL0     C 2592  10.589   8.603   4.392 -0.7199 -0.2629  0.9152
  778MOL0     C 2593  10.645   8.550   4.261  0.0740 -0.2147  0.3402
  778MOL0     O 2594  10.559   8.536   4.154 -0.7154 -0.6501 -0.5633
  778MOL0     C 2595  10.615   8.506   4.032 -0.1335  0.4885 -0.7671
  778MOL0     C 2596  10.561   8.568   3.918  0.4041  0.4415 -0.1726
  778MOL0     C 2597  10.605   8.537   3.786 -0.3130 -1.5933 -0.2549
  778MOL0     C 2598  10.704   8.434   3.766  0.7275  0.8004 -0.1264
  778MOL0     O 2599  10.740   8.401   3.635 -0.8398 -0.0300  0.3542
  778MOL0     C 2600  10.747   8.260   3.600 -0.1928  1.1945  0.5328
  778MOL0     C 2601  10.696   8.246   3.452 -0.0219 -0.3099  1.0465
  778MOL0     C 2602  10.676   8.103   3.390 -0.5904 -0.5111  0.1525
  778MOL0     C 2603  10.583   8.013   3.456  0.0765 -1.1930 -0.5129
  778MOL0     C 2604  10.441   8.058   3.461  0.0839 -0.5815 -0.5609
  778MOL0     C 2605  10.388   8.067   3.604  1.2479  0.6516  0.0530
  778MOL0     C 2606  10.260   8.160   3.609 -0.4089 -0.9828 -0.2877
  778MOL0     C 2607  10.194   8.155   3.750  0.4898  0.3359  0.0916
  778MOL0    Cl 2608  10.304   8.153   3.887  0.3434  0.2099 -0.6263
  778MOL0     C 2609  10.754   8.372   3.880 -1.0708  1.1796 -0.4743
  778MOL0     C 2610  10.712   8.408   4.009 -0.0631 -0.1179 -0.1206
  778MOL0     O 2611  10.768   8.553   4.250 -1.2298 -0.2568 -0.3126
  778MOL0     C 2612  10.666   8.676   4.482 -0.1729 -0.6374  0.6695
  778MOL0     C 2613  10.616   8.736   4.598 -0.0494 -0.2998  0.7437
  778MOL0     N 2614   9.967   8.990   4.635  0.5122 -1.0140 -0.1883
  778MOL0     N 2615   9.962   9.039   4.514  0.0632 -1.1123 -0.7143
  778MOL0     C 2616  10.081  10.122   3.848 -0.5369 -0.2680  0.4338
  778MOL0     C 2617  10.068  10.254   3.912  0.4265  0.3639 -0.1189
  778MOL0     C 2618   9.991  10.614   4.156 -0.7582 -0.1098 -0.5513
  778MOL0     C 2619  10.026  10.614   4.293 -0.9125 -0.8848 -0.9101
  778MOL0     C 2620  10.041  10.737   4.363  0.9919  0.1130  0.4106
  778MOL0     C 2621  10.028  10.859   4.300 -0.1530  0.2125 -0.3381
  778MOL0     O 2622  10.040  10.984   4.348  0.3615  0.4240 -0.2231
  778MOL0     C 2623  10.112  10.993   4.475 -0.5593  0.8202 -0.0248
  778MOL0     C 2624  10.003  11.007   4.583 -0.0342 -0.0715  0.5843
  778MOL0     C 2625  10.050  11.027   4.725  0.0782 -0.5650  0.2150
  778MOL0     C 2626  10.139  10.921   4.772 -1.4580 -0.0788 -0.3402
  778MOL0     C 2627  10.079  10.783   4.765  0.6412  0.2570 -0.1528
  778MOL0     C 2628  10.019  10.678   4.748  0.0992 -0.5764 -0.1566
  778MOL0     C 2629   9.993  10.858   4.169  0.1649 -0.0945  0.8980
  778MOL0     C 2630   9.970  10.737   4.092 -0.4778  0.3752 -2.0892
  778MOL0     H 2631  10.070  10.153   4.243  1.6868 -1.2136  0.5719
  778MOL0     H 2632  10.114   9.947   4.138 -0.3991 -0.3668 -0.4158
  778MOL0     H 2633  10.015   9.760   4.029  0.3610 -1.9893  0.1881
  778MOL0     H 2634  10.186   9.776   4.014 -0.3748  4.0264 -0.1954
  778MOL0     H 2635  10.202   9.635   3.823 -0.5968 -1.3295  0.0259
  778MOL0     H 2636  10.036   9.653   3.773 -2.0163  0.2490  1.3423
  778MOL0     H 2637  10.024   9.442   3.875 -1.7092 -1.3740  0.7929
  778MOL0     H 2638   9.985   9.535   4.016 -2.0556  1.1831 -3.3121
  778MOL0     H 2639  10.268   9.454   3.934  0.3701  1.4957 -0.0959
  778MOL0     H 2640  10.241   9.525   4.082  0.7430 -0.0730 -2.1423
  778MOL0     H 2641  10.269   9.279   4.105  0.8580  0.7619  0.6600
  778MOL0     H 2642  10.124   9.245   4.021 -0.8059  0.1458  0.4755
  778MOL0     H 2643   9.961   9.365   4.154 -1.5430  0.0958  3.4204
  778MOL0     H 2644  10.086   9.435   4.256 -1.4260  0.0773  0.0860
  778MOL0     H 2645   9.983   9.165   4.233  0.4106  0.1713  0.0914
  778MOL0     H 2646  10.155   9.184   4.287  0.9019  0.7194 -1.1459
  778MOL0     H 2647   9.925   9.309   4.442 -0.9930 -0.4360  1.1042
  778MOL0     H 2648  10.094   9.351   4.436 -2.3341  1.4028 -2.5193
  778MOL0     H 2649  10.155   9.244   4.674 -1.4068  1.2380 -0.6966
  778MOL0     H 2650   9.959   9.067   4.923 -1.2122 -3.1763  0.7385
  778MOL0     H 2651  10.122   9.120   4.908 -0.6656 -0.7937 -0.4389
  778MOL0     H 2652  10.051   8.831   4.859  1.1155 -0.1448  1.7341
  778MOL0     H 2653  10.117   8.891   5.010 -2.3142 -3.0532  0.1365
  778MOL0     H 2654  10.318   8.985   4.841  0.4088  0.4956 -2.2374
  778MOL0     H 2655  10.308   8.841   4.949 -0.3996 -2.9094 -1.7295
  778MOL0     H 2656  10.247   8.852   4.644  1.9478  1.8463  0.1856
  778MOL0     H 2657  10.231   8.700   4.740 -2.1104  0.2644  2.3361
  778MOL0     H 2658  10.289   8.652   4.531  0.2199 -2.1664 -0.0195
  778MOL0     H 2659  10.386   8.562   4.342  2.7890 -2.7855 -0.9206
  778MOL0     H 2660  10.480   8.639   3.933  1.1645  2.3091 -3.6626
  778MOL0     H 2661  10.560   8.581   3.698  0.5578  0.5226  0.2950
  778MOL0     H 2662  10.671   8.217   3.666  0.1542  4.1656  3.0921
  778MOL0     H 2663  10.840   8.204   3.618 -1.4705 -1.6974 -1.1000
  778MOL0     H 2664  10.744   8.306   3.375  0.9467 -0.9537  1.1148
  778MOL0     H 2665  10.592   8.277   3.461 -0.4824 -1.3913 -0.2538
  778MOL0     H 2666  10.778   8.063   3.385  0.9341  2.8914  0.9705
  778MOL0     H 2667  10.640   8.117   3.287  2.0182 -2.6753 -1.1741
  778MOL0     H 2668  10.573   7.917   3.405 -1.7962 -1.9682  1.1785
  778MOL0     H 2669  10.611   7.995   3.560 -5.3075 -0.2403  1.4759
  778MOL0     H 2670  10.381   7.990   3.400  1.6351 -0.7361 -1.9887
  778MOL0     H 2671  10.431   8.154   3.408 -3.8831 -0.9546 -0.7976
  778MOL0     H 2672  10.462   8.120   3.665  1.0591  0.9923 -0.0102
  778MOL0     H 2673  10.363   7.965   3.632 -0.5860  1.7512  2.8642
  778MOL0     H 2674  10.296   8.259   3.580  1.1769  0.3036  4.9068
  778MOL0     H 2675  10.187   8.133   3.532 -1.7876  4.0600 -1.1277
  778MOL0     H 2676  10.123   8.072   3.755  2.2253 -1.3593 -1.8605
  778MOL0     H 2677  10.123   8.238   3.758 -0.3269 -0.3590  0.1562
  778MOL0     H 2678  10.837   8.303   3.870 -1.7140  0.5132 -1.4209
  778MOL0     H 2679  10.750   8.354   4.096  3.9253  1.4053 -0.6795
  778MOL0     H 2680  10.768   8.702   4.457  0.8490 -1.4917  3.4457
  778MOL0     H 2681  10.687   8.775   4.669 -0.8463 -1.6408  2.3516
  778MOL0     H 2682  10.091  10.118   3.740  0.1332 -3.5959  0.5007
  778MOL0     H 2683  10.076  10.338   3.844  1.6896  1.6226  1.5192
  778MOL0     H 2684  10.040  10.525   4.353  3.3582  1.3832  2.1066
  778MOL0     H 2685  10.064  10.740   4.470 -0.8042  1.7610  0.8061
  778MOL0     H 2686  10.166  11.087   4.490 -1.9845  2.0055 -1.8795
  778MOL0     H 2687  10.178  10.909   4.495 -2.4657 -0.8924 -0.5935
  778MOL0     H 2688   9.940  11.095   4.571  0.4464  0.5307  2.2370
  778MOL0     H 2689   9.933  10.923   4.574 -0.5747  0.4686 -0.4390
  778MOL0     H 2690   9.957  11.041   4.780  0.2844 -0.0418  0.4339
  778MOL0     H 2691  10.108  11.119   4.727  0.2662 -0.6519  3.1180
  778MOL0     H 2692  10.232  10.925   4.715 -0.3158  3.1924  1.4895
  778MOL0     H 2693  10.165  10.950   4.874 -1.5200 -1.0580 -0.0326
  778MOL0     H 2694   9.961  10.588   4.740  0.2254 -0.7765  1.0017
  778MOL0     H 2695   9.985  10.951   4.113 -1.2649 -1.1028 -0.6548
  778MOL0     H 2696   9.937  10.730   3.989 -3.2434 -3.1032 -1.1267
  779MOL0     O 2697   4.572   5.599   0.300  0.5605 -0.2988  0.0484
  779MOL0     C 2698   4.613   5.486   0.289 -1.4127  0.8245 -0.3457
  779MOL0     O 2699   4.730   5.439   0.352  0.4786 -0.5613 -0.4097
  779MOL0     C 2700   4.795   5.530   0.433  0.0880  0.0419  0.4827
  779MOL0     C 2701   4.749   5.610   0.533  0.7502 -0.0561  0.4682
  779MOL0     C 2702   4.828   5.689   0.615  1.2503  0.1850  0.7914
  779MOL0     C 2703   4.966   5.691   0.586 -0.0124 -0.1154  0.2190
  779MOL0     O 2704   5.041   5.775   0.661 -0.1529 -0.1120 -0.3554
  779MOL0     C 2705   5.160   5.827   0.606 -0.0535 -0.4793  0.1602
  779MOL0     C 2706   5.236   5.908   0.703 -0.0722  0.8834 -0.7952
  779MOL0     C 2707   5.310   5.840   0.813 -0.0162 -0.0011 -0.4814
  779MOL0     C 2708   5.445   5.794   0.755 -0.6421  0.7087 -0.0869
  779MOL0     C 2709   5.501   5.680   0.835 -0.7345  0.5975 -0.3809
  779MOL0     C 2710   5.659   5.674   0.849  0.5600  0.6948 -0.5421
  779MOL0     C 2711   5.724   5.786   0.930 -0.4035 -0.8346  0.0239
  779MOL0     C 2712   5.874   5.757   0.942 -1.2167  0.1700  0.0204
  779MOL0     N 2713   5.896   5.644   1.035 -0.6752 -0.0635 -0.5528
  779MOL0     C 2714   5.928   5.515   1.004 -1.0927 -0.5328  0.0555
  779MOL0     C 2715   5.932   5.453   1.126 -0.2776 -0.9329  0.1534
  779MOL0     C 2716   5.966   5.312   1.163 -0.3053 -0.0411  0.6263
  779MOL0     C 2717   6.113   5.269   1.162 -0.3534 -0.0775 -0.4981
  779MOL0     C 2718   6.173   5.284   1.018 -1.0553  0.6749  0.3407
  779MOL0     C 2719   6.303   5.216   0.985  0.3664  0.9193  0.1438
  779MOL0     O 2720   6.280   5.080   0.952  0.1109  0.0611  0.9664
  779MOL0     C 2721   6.237   5.049   0.827 -0.1342  0.0329 -0.7763
  779MOL0     C 2722   6.301   5.094   0.713 -0.2885  0.4454 -0.5546
  779MOL0     C 2723   6.261   5.055   0.591  0.5583 -0.8577  0.8751
  779MOL0     C 2724   6.156   4.977   0.572  0.6146 -0.4495 -0.1186
  779MOL0     C 2725   6.100   4.963   0.437  0.0138 -0.6181 -0.1758
  779MOL0     O 2726   6.076   5.081   0.367  0.3994  0.4488 -0.1028
  779MOL0     C 2727   6.032   5.070   0.239  0.1313 -0.5597 -0.8927
  779MOL0     C 2728   6.042   4.968   0.142  0.0823  0.3730 -0.9227
  779MOL0     C 2729   5.971   4.972   0.030 -0.3797 -1.0810 -0.2879
  779MOL0     C 2730   5.900   5.090  -0.003 -0.4951  0.1872  0.2894
  779MOL0     O 2731   5.842   5.125  -0.121  0.1704  0.5839  0.4575
  779MOL0     C 2732   5.869   5.040  -0.239  0.0761 -0.6530  0.2587
  779MOL0     C 2733   5.832   5.114  -0.367  0.5406 -0.1654 -0.6455
  779MOL0     C 2734   5.797   5.016  -0.480  0.2234 -0.5423 -0.6345
  779MOL0     C 2735   5.751   5.086  -0.613  0.0579  0.5355 -0.0428
  779MOL0     C 2736   5.684   5.232  -0.601  0.6262  0.7398  0.6307
  779MOL0     C 2737   5.656   5.301  -0.731  0.7046 -0.0786 -0.9069
  779MOL0     C 2738   5.532   5.254  -0.801  1.0734  0.2161  0.1587
  779MOL0     C 2739   5.564   5.137  -0.904  0.1934  0.5381 -0.2330
  779MOL0    Cl 2740   5.646   5.177  -1.057 -0.4693 -0.7295  0.0077
  779MOL0     C 2741   5.889   5.196   0.088  0.4838  0.1860  0.0146
  779MOL0     C 2742   5.959   5.187   0.204 -1.0551 -0.5848 -0.1267
  779MOL0     O 2743   6.078   4.852   0.402  0.0186 -0.1976  0.3283
  779MOL0     C 2744   6.089   4.920   0.688 -0.0752  0.7577  0.9257
  779MOL0     C 2745   6.135   4.956   0.813  0.5296  0.0836  0.5236
  779MOL0     N 2746   5.910   5.548   1.225 -0.4360 -0.0716 -0.5105
  779MOL0     N 2747   5.901   5.662   1.173  0.1485 -0.0256  0.2845
  779MOL0     C 2748   5.026   5.617   0.484  0.3889 -0.3275  0.0640
  779MOL0     C 2749   4.932   5.540   0.412 -0.1210 -0.5021  1.4633
  779MOL0     C 2750   4.547   5.390   0.203 -0.8181 -0.3776 -0.5992
  779MOL0     C 2751   4.484   5.430   0.083  0.6765 -0.2854 -0.4414
  779MOL0     C 2752   4.427   5.327  -0.000  1.1884 -0.8107  0.3066
  779MOL0     C 2753   4.425   5.196   0.028 -0.3544  0.3154 -0.5084
  779MOL0     O 2754   4.358   5.107  -0.054 -0.6830  0.3113 -0.5013
  779MOL0     C 2755   4.346   4.966  -0.013 -0.3059 -0.6191  0.9483
  779MOL0     C 2756   4.282   4.885  -0.128 -0.3121  0.7826 -0.4849
  779MOL0     C 2757   4.139   4.938  -0.159 -0.4780 -0.1156 -0.2302
  779MOL0     C 2758   4.055   4.829  -0.217 -0.8080 -0.8371 -0.2668
  779MOL0     C 2759   4.021   4.724  -0.113 -0.3649 -0.2592  0.3363
  779MOL0     C 2760   3.978   4.636  -0.039 -0.4301 -0.5557  0.2853
  779MOL0     C 2761   4.491   5.156   0.152  0.0056 -0.3223 -0.4034
  779MOL0     C 2762   4.557   5.251   0.230 -0.0335 -0.2974  0.6939
  779MOL0     H 2763   4.644   5.609   0.559  0.6319  1.0869  0.0536
  779MOL0     H 2764   4.771   5.745   0.688 -1.5676 -1.9214  0.3914
  779MOL0     H 2765   5.136   5.874   0.510  0.7981 -0.2622  0.0467
  779MOL0     H 2766   5.212   5.731   0.602 -0.1511 -0.7201  2.8288
  779MOL0     H 2767   5.160   5.975   0.743 -2.0589 -0.3910 -2.2530
  779MOL0     H 2768   5.300   5.975   0.644 -1.3154  3.4890  0.6431
  779MOL0     H 2769   5.242   5.758   0.840 -0.5858  0.5299 -0.2658
  779MOL0     H 2770   5.331   5.896   0.904 -1.2076 -1.1865  0.5662
  779MOL0     H 2771   5.435   5.748   0.656 -0.0634 -1.3179  0.7230
  779MOL0     H 2772   5.512   5.880   0.752 -2.1111  1.9130  0.7281
  779MOL0     H 2773   5.461   5.590   0.787  0.7156  0.2599 -0.9911
  779MOL0     H 2774   5.455   5.681   0.935  1.0092 -0.3914  0.4812
  779MOL0     H 2775   5.719   5.651   0.760  0.3849 -1.2093 -0.2214
  779MOL0     H 2776   5.682   5.584   0.909  2.9868  3.3821  3.0183
  779MOL0     H 2777   5.709   5.881   0.877 -0.0596 -0.7035  0.1557
  779MOL0     H 2778   5.685   5.798   1.031  1.8025  1.1894  0.7334
  779MOL0     H 2779   5.908   5.850   0.989 -3.2709  0.2174  1.6114
  779MOL0     H 2780   5.926   5.744   0.847  0.1168 -1.6412  0.9328
  779MOL0     H 2781   5.957   5.466   0.912  1.2265  0.2146  0.3152
  779MOL0     H 2782   5.909   5.248   1.093 -2.2475  2.6464 -0.4342
  779MOL0     H 2783   5.938   5.288   1.266  0.5318  1.9044  1.3409
  779MOL0     H 2784   6.114   5.163   1.186  0.4633  0.0963  0.3194
  779MOL0     H 2785   6.173   5.325   1.235 -1.9125  2.2401 -0.8903
  779MOL0     H 2786   6.095   5.246   0.952 -1.6191  2.9736 -0.4280
  779MOL0     H 2787   6.181   5.389   0.989 -1.6659 -0.1751 -3.4254
  779MOL0     H 2788   6.357   5.227   1.080  0.9826 -1.1660  0.0844
  779MOL0     H 2789   6.353   5.268   0.903 -2.0450  0.0550 -2.0187
  779MOL0     H 2790   6.387   5.159   0.728  0.1728  0.4814 -3.0270
  779MOL0     H 2791   6.315   5.110   0.514 -0.6227 -0.8748  0.0072
  779MOL0     H 2792   6.113   4.889   0.163 -1.3145 -1.3140 -2.2606
  779MOL0     H 2793   5.990   4.893  -0.043  1.5496 -0.2954 -0.7184
  779MOL0     H 2794   5.813   4.947  -0.244 -0.8094 -0.0630 -1.4389
  779MOL0     H 2795   5.977   5.027  -0.240  0.3218  0.9855  1.2090
  779MOL0     H 2796   5.917   5.177  -0.395 -1.2370  2.2589 -0.9146
  779MOL0     H 2797   5.738   5.167  -0.351 -0.4374 -1.9082 -0.4169
  779MOL0     H 2798   5.729   4.942  -0.439  1.2784  0.6594  3.9120
  779MOL0     H 2799   5.891   4.970  -0.512  1.5229  1.5900 -0.1155
  779MOL0     H 2800   5.840   5.108  -0.672 -1.1866  1.9092 -1.5028
  779MOL0     H 2801   5.695   5.016  -0.675  1.1033  1.8441 -2.6166
  779MOL0     H 2802   5.735   5.300  -0.533 -1.1721  2.5217  0.2737
  779MOL0     H 2803   5.588   5.209  -0.555 -0.3278 -0.9989 -1.9214
  779MOL0     H 2804   5.741   5.304  -0.801  1.8479 -0.3803  0.4241
  779MOL0     H 2805   5.636   5.403  -0.698  0.4870  0.9804 -3.9424
  779MOL0     H 2806   5.467   5.209  -0.726  2.6966  0.5310  1.8362
  779MOL0     H 2807   5.480   5.341  -0.842 -0.5979 -0.4450  0.7905
  779MOL0     H 2808   5.486   5.076  -0.948  3.5600 -1.7638 -3.5478
  779MOL0     H 2809   5.638   5.070  -0.859 -0.4178  1.1305  1.7880
  779MOL0     H 2810   5.843   5.288   0.054 -0.2956 -1.1687 -2.8708
  779MOL0     H 2811   5.931   5.272   0.265 -1.3906  1.0809 -2.4468
  779MOL0     H 2812   5.997   4.865   0.676 -0.0051  1.0920 -1.7038
  779MOL0     H 2813   6.110   4.906   0.906  0.8227  0.5614  0.8652
  779MOL0     H 2814   5.132   5.614   0.461  0.3211  4.4138 -2.1431
  779MOL0     H 2815   4.961   5.479   0.327 -0.8806  1.2539 -0.1260
  779MOL0     H 2816   4.463   5.536   0.069 -2.3506 -0.3154  2.5138
  779MOL0     H 2817   4.372   5.350  -0.091 -1.0715  0.7014  1.9543
  779MOL0     H 2818   4.284   4.956   0.077 -0.5486  1.1315  1.0143
  779MOL0     H 2819   4.442   4.925   0.017 -0.4541 -2.2566 -0.6298
  779MOL0     H 2820   4.354   4.886  -0.211  2.7056  4.4487  1.8027
  779MOL0     H 2821   4.278   4.788  -0.078  0.9915  2.0039  2.1878
  779MOL0     H 2822   4.131   5.030  -0.217 -4.6232  0.2424  0.6456
  779MOL0     H 2823   4.094   4.955  -0.061  3.1353 -0.9741  1.8028
  779MOL0     H 2824   3.958   4.868  -0.250 -1.0440 -0.3370  0.9713
  779MOL0     H 2825   4.109   4.789  -0.303  1.2799 -2.3564  1.6267
  779MOL0     H 2826   3.961   4.547   0.017  1.8013 -3.3835 -3.0963
  779MOL0     H 2827   4.494   5.050   0.177  1.8199  0.0728  1.3015
  779MOL0     H 2828   4.604   5.216   0.322  4.1774 -1.3951 -1.6145
  780MOL0     O 2829   9.124   1.901   1.374  0.0794  0.2283  0.8916
  780MOL0     C 2830   9.033   1.822   1.346  0.4405  0.2235 -0.1814
  780MOL0     O 2831   9.058   1.688   1.312  0.7877 -0.0213 -0.9716
  780MOL0     C 2832   9.187   1.645   1.329 -0.3028 -0.1879 -0.3138
  780MOL0     C 2833   9.222   1.550   1.431  0.5943 -0.0877 -0.3087
  780MOL0     C 2834   9.346   1.492   1.440  0.5781  0.3376  1.1073
  780MOL0     C 2835   9.448   1.540   1.351 -0.0718 -0.0006 -0.0617
  780MOL0     O 2836   9.572   1.484   1.381  0.4398  0.4354 -0.6519
  780MOL0     C 2837   9.690   1.557   1.399 -0.4502 -0.3008 -0.0341
  780MOL0     C 2838   9.763   1.515   1.529  0.6644 -0.1963 -0.8193
  780MOL0     C 2839   9.699   1.592   1.651 -0.2807 -0.1899 -0.4130
  780MOL0     C 2840   9.629   1.489   1.743  0.3486  0.5988  0.1574
  780MOL0     C 2841   9.544   1.547   1.856  0.1913 -0.2521  0.3478
  780MOL0     C 2842   9.508   1.445   1.961  0.2999 -0.0578 -0.6236
  780MOL0     C 2843   9.594   1.438   2.084  0.1343 -0.2255  0.4090
  780MOL0     C 2844   9.594   1.567   2.165 -0.1410  1.0152  0.5229
  780MOL0     N 2845   9.466   1.597   2.233 -0.5491 -0.9592 -0.6905
  780MOL0     C 2846   9.444   1.593   2.369  0.4586 -0.4030 -0.3368
  780MOL0     C 2847   9.313   1.634   2.384  0.0942 -0.3848 -0.0742
  780MOL0     C 2848   9.222   1.640   2.501  0.8877  0.0817  0.1700
  780MOL0     C 2849   9.151   1.771   2.536 -0.5673 -0.1812  0.8136
  780MOL0     C 2850   9.232   1.854   2.639  0.3430  0.2493 -1.3288
  780MOL0     C 2851   9.166   1.988   2.664  0.5040  0.3042 -0.3402
  780MOL0     O 2852   9.203   2.081   2.564 -0.1192  0.0945  0.2444
  780MOL0     C 2853   9.319   2.141   2.572 -1.1894  0.8046 -0.7571
  780MOL0     C 2854   9.414   2.127   2.680 -0.0448  0.3911  0.2486
  780MOL0     C 2855   9.547   2.187   2.663 -0.1511 -0.0032 -0.3484
  780MOL0     C 2856   9.578   2.265   2.549 -0.1092  0.8214  0.1894
  780MOL0     C 2857   9.712   2.318   2.523  0.7397  0.0388  0.6997
  780MOL0     O 2858   9.809   2.231   2.561 -0.2614  0.5831 -0.9924
  780MOL0     C 2859   9.943   2.266   2.594  0.3586  0.1851  0.0163
  780MOL0     C 2860  10.025   2.338   2.506  0.7326  0.6976 -0.0183
  780MOL0     C 2861  10.169   2.362   2.536 -0.1853 -0.2014  0.5194
  780MOL0     C 2862  10.224   2.299   2.649 -1.2582 -0.5707  0.3140
  780MOL0     O 2863  10.367   2.305   2.668 -0.0191  0.0328 -0.1493
  780MOL0     C 2864  10.395   2.408   2.764  0.1292  0.6950 -0.5675
  780MOL0     C 2865  10.538   2.453   2.748  0.4028 -0.2500 -0.3730
  780MOL0     C 2866  10.642   2.341   2.735  0.5490 -0.5700  0.4258
  780MOL0     C 2867  10.753   2.397   2.651 -0.8687  0.5542  0.5285
  780MOL0     C 2868  10.868   2.305   2.607 -0.7083 -0.2298  0.2582
  780MOL0     C 2869  10.927   2.206   2.706  0.7532  0.1443 -0.3868
  780MOL0     C 2870  11.023   2.110   2.638 -0.4560 -0.5377  1.5380
  780MOL0     C 2871  10.964   1.986   2.564 -0.7061 -0.9957  0.2184
  780MOL0    Cl 2872  11.095   1.868   2.526  0.0240 -0.0266  0.0054
  780MOL0     C 2873  10.143   2.224   2.733 -0.2760  0.7875 -0.5512
  780MOL0     C 2874   9.998   2.211   2.710  0.0325  1.1264 -1.1235
  780MOL0     O 2875   9.730   2.441   2.493 -0.2313  0.1140  0.0153
  780MOL0     C 2876   9.480   2.279   2.455  0.2823 -0.6992  0.3118
  780MOL0     C 2877   9.354   2.225   2.462  0.2190 -1.0744 -0.3931
  780MOL0     N 2878   9.262   1.662   2.254 -0.2427 -0.9074 -0.0272
  780MOL0     N 2879   9.351   1.641   2.168 -0.5974 -0.3848  0.2982
  780MOL0     C 2880   9.423   1.644   1.261 -0.3105 -0.4008  1.1061
  780MOL0     C 2881   9.289   1.694   1.250 -0.7779  0.2432  0.1819
  780MOL0     C 2882   8.888   1.859   1.365 -0.0776 -0.2177  0.1429
  780MOL0     C 2883   8.787   1.815   1.280 -0.0386  0.3118  0.2662
  780MOL0     C 2884   8.657   1.879   1.284 -0.7284 -0.1811  0.0884
  780MOL0     C 2885   8.625   1.981   1.381 -0.0499  0.0177  0.3056
  780MOL0     O 2886   8.508   2.050   1.388  0.0474 -0.0902  0.0045
  780MOL0     C 2887   8.393   1.977   1.348 -0.7623 -0.2632 -0.5393
  780MOL0     C 2888   8.282   2.023   1.443  0.3501 -0.1216 -0.6184
  780MOL0     C 2889   8.129   1.992   1.407  0.7787 -0.2199  0.1338
  780MOL0     C 2890   8.044   2.016   1.534 -0.9755  0.8168 -0.2544
  780MOL0     C 2891   8.063   1.916   1.643 -0.1213 -0.5062  0.2629
  780MOL0     C 2892   8.045   1.838   1.741  0.6318 -0.9376  0.1478
  780MOL0     C 2893   8.732   2.027   1.462  0.2361 -0.3022 -0.3511
  780MOL0     C 2894   8.857   1.963   1.450 -0.1397 -0.0923 -0.2552
  780MOL0     H 2895   9.145   1.518   1.500 -0.8674 -0.5005 -2.0503
  780MOL0     H 2896   9.382   1.415   1.507  4.0397  0.7811 -0.0574
  780MOL0     H 2897   9.679   1.664   1.381 -1.1196 -0.1885  0.9661
  780MOL0     H 2898   9.764   1.527   1.324 -1.0387  2.5264 -1.9306
  780MOL0     H 2899   9.870   1.532   1.517  0.8823 -0.8368  0.1385
  780MOL0     H 2900   9.739   1.408   1.533 -3.2967  0.5534 -0.2626
  780MOL0     H 2901   9.628   1.671   1.627  0.6336  1.5112  2.0244
  780MOL0     H 2902   9.783   1.646   1.698  0.6378  0.0143 -2.2062
  780MOL0     H 2903   9.559   1.421   1.694 -2.2918  1.0096  3.0562
  780MOL0     H 2904   9.705   1.424   1.789 -0.5529  0.2482  1.2028
  780MOL0     H 2905   9.455   1.591   1.812 -0.3648 -0.7220  0.9883
  780MOL0     H 2906   9.603   1.627   1.904  0.2931  0.1271 -0.4017
  780MOL0     H 2907   9.509   1.352   1.904  2.4391 -1.0724  0.9278
  780MOL0     H 2908   9.406   1.454   2.001  0.2418 -5.2475  1.0332
  780MOL0     H 2909   9.575   1.350   2.146  0.0427 -0.3841  0.1591
  780MOL0     H 2910   9.699   1.433   2.053  0.3846 -1.7263  1.3734
  780MOL0     H 2911   9.621   1.649   2.098 -2.6831  0.4680 -1.3596
  780MOL0     H 2912   9.668   1.563   2.245 -2.6188 -1.5074  2.8986
  780MOL0     H 2913   9.507   1.558   2.451  1.6776  1.6694 -0.3087
  780MOL0     H 2914   9.278   1.602   2.587  0.6500 -1.1366 -0.1937
  780MOL0     H 2915   9.138   1.572   2.485  1.2475  0.0350 -1.7705
  780MOL0     H 2916   9.047   1.752   2.561 -0.7635  1.9954  1.9075
  780MOL0     H 2917   9.135   1.833   2.448  1.3690 -1.4129 -0.4959
  780MOL0     H 2918   9.237   1.799   2.734 -0.0147 -1.8393 -2.4510
  780MOL0     H 2919   9.336   1.869   2.608  0.6799 -2.5166 -1.8389
  780MOL0     H 2920   9.195   2.013   2.766  2.4995 -2.2406 -0.1570
  780MOL0     H 2921   9.057   1.986   2.662  0.4912  0.2388 -2.8058
  780MOL0     H 2922   9.388   2.074   2.771  1.5222  0.1336  0.5713
  780MOL0     H 2923   9.618   2.169   2.744  2.3553  2.0820 -1.9496
  780MOL0     H 2924   9.980   2.366   2.412 -1.5141  1.1531  1.1136
  780MOL0     H 2925  10.230   2.417   2.465 -1.2441  0.5201  0.1414
  780MOL0     H 2926  10.374   2.368   2.864  2.0775  0.0094 -0.4022
  780MOL0     H 2927  10.327   2.494   2.753 -0.6323  0.3933  1.2862
  780MOL0     H 2928  10.555   2.506   2.842 -0.5177 -1.0188  0.2410
  780MOL0     H 2929  10.543   2.521   2.663  3.2518  0.4207  0.2255
  780MOL0     H 2930  10.598   2.245   2.709 -4.6998  1.3427  0.9799
  780MOL0     H 2931  10.684   2.328   2.835 -2.4176 -1.5239  1.6679
  780MOL0     H 2932  10.716   2.431   2.554 -2.0229 -2.9449 -0.4109
  780MOL0     H 2933  10.794   2.482   2.707  0.9126  0.4463 -0.5250
  780MOL0     H 2934  10.950   2.363   2.565 -1.1946  1.4722  1.5653
  780MOL0     H 2935  10.828   2.242   2.527 -2.7420  1.8160 -0.4519
  780MOL0     H 2936  10.848   2.154   2.762  1.0454  3.6105  3.7393
  780MOL0     H 2937  10.975   2.266   2.784  1.6540 -1.1063  0.0723
  780MOL0     H 2938  11.077   2.156   2.556  1.1897 -1.8742  1.8260
  780MOL0     H 2939  11.089   2.072   2.716  2.8304 -0.7305 -1.1366
  780MOL0     H 2940  10.897   2.021   2.485 -1.1446  1.9266  1.7418
  780MOL0     H 2941  10.888   1.940   2.628 -3.7112  4.3885  1.1001
  780MOL0     H 2942  10.187   2.171   2.817 -0.0136  1.5021 -0.2370
  780MOL0     H 2943   9.938   2.154   2.780  1.4183 -1.3532 -1.8415
  780MOL0     H 2944   9.495   2.354   2.378 -0.2619  1.5518  2.2927
  780MOL0     H 2945   9.274   2.245   2.391  1.8386 -0.9224 -2.2444
  780MOL0     H 2946   9.505   1.674   1.197 -1.3219 -0.5207 -0.3065
  780MOL0     H 2947   9.278   1.770   1.173  0.2579 -1.5984 -1.8828
  780MOL0     H 2948   8.808   1.729   1.218  1.6094 -0.3210  1.6310
  780MOL0     H 2949   8.588   1.846   1.208 -0.7116 -0.0325  0.0092
  780MOL0     H 2950   8.400   1.870   1.367  1.6139 -0.0967 -0.2680
  780MOL0     H 2951   8.366   2.004   1.246 -1.7930  1.0221  0.0391
  780MOL0     H 2952   8.301   1.986   1.544 -0.3076 -0.3459 -0.5705
  780MOL0     H 2953   8.295   2.132   1.442  3.5227 -0.3533  1.4612
  780MOL0     H 2954   8.112   1.885   1.389 -0.7127 -0.2627  1.5469
  780MOL0     H 2955   8.099   2.062   1.329 -4.2758  1.8301  3.3852
  780MOL0     H 2956   8.069   2.118   1.564 -1.8790  1.4111 -1.4262
  780MOL0     H 2957   7.944   2.000   1.494  0.1068  0.2977 -3.0420
  780MOL0     H 2958   8.038   1.771   1.824  2.7915  0.0907  1.2537
  780MOL0     H 2959   8.718   2.118   1.519  3.1074  2.1392 -3.1880
  780MOL0     H 2960   8.941   2.011   1.501  2.0243 -3.4470 -0.3552
  781MOL0     O 2961   6.557   6.452   9.274  0.0437 -0.5325 -0.0991
  781MOL0     C 2962   6.519   6.354   9.210 -0.0200 -0.3215  0.3322
  781MOL0     O 2963   6.596   6.262   9.146  0.4916  0.2719  0.5122
  781MOL0     C 2964   6.732   6.263   9.147  0.0123 -0.3387  0.3999
  781MOL0     C 2965   6.796   6.255   9.021 -0.1717 -0.0493  0.7430
  781MOL0     C 2966   6.931   6.263   9.019 -0.7973 -0.8883 -0.2215
  781MOL0     C 2967   7.008   6.268   9.141  0.9071  0.1218  1.2844
  781MOL0     O 2968   7.142   6.269   9.123 -0.0798 -0.3610 -0.1549
  781MOL0     C 2969   7.226   6.245   9.244 -0.2144 -0.1830 -0.2997
  781MOL0     C 2970   7.370   6.265   9.200 -0.4244 -0.0422  0.1084
  781MOL0     C 2971   7.472   6.269   9.315  0.3858 -0.2273 -0.2682
  781MOL0     C 2972   7.619   6.273   9.261 -0.3320 -0.6509 -0.4792
  781MOL0     C 2973   7.655   6.401   9.180  0.0597 -0.0342 -0.0366
  781MOL0     C 2974   7.810   6.408   9.156 -0.4344  0.7055  0.9731
  781MOL0     C 2975   7.861   6.298   9.057  0.7201  0.7430 -0.7256
  781MOL0     C 2976   7.984   6.338   8.981 -0.1154  0.7673  0.1214
  781MOL0     N 2977   8.100   6.328   9.055  0.4460 -0.2368  0.4399
  781MOL0     C 2978   8.152   6.439   9.124  0.0699  0.9914  0.0910
  781MOL0     C 2979   8.213   6.391   9.232 -0.0751  0.4400  0.2020
  781MOL0     C 2980   8.223   6.464   9.365  0.1597 -1.6332  0.2565
  781MOL0     C 2981   8.314   6.585   9.351  0.9343 -0.6861  1.1623
  781MOL0     C 2982   8.326   6.650   9.489  1.2235  0.0171  0.4042
  781MOL0     C 2983   8.408   6.783   9.475 -0.3808  0.4382 -0.5200
  781MOL0     O 2984   8.423   6.831   9.605  0.0411  0.6437 -0.4673
  781MOL0     C 2985   8.547   6.882   9.638  0.7485  0.6205  0.3491
  781MOL0     C 2986   8.614   6.974   9.556  0.7136 -0.7007  1.0527
  781MOL0     C 2987   8.731   7.021   9.592 -0.8128 -0.3716 -0.3930
  781MOL0     C 2988   8.798   6.975   9.706 -1.2028 -0.4231  0.9522
  781MOL0     C 2989   8.924   7.044   9.760 -0.2937 -0.4393  0.4311
  781MOL0     O 2990   8.983   7.127   9.667  0.2200  0.8394 -0.2487
  781MOL0     C 2991   9.102   7.178   9.692 -0.8087 -0.4921 -0.3841
  781MOL0     C 2992   9.193   7.179   9.588 -0.7167  0.3921 -0.1533
  781MOL0     C 2993   9.322   7.230   9.610 -0.4351 -0.0976  0.1709
  781MOL0     C 2994   9.365   7.283   9.731  0.6407 -0.1356  0.2248
  781MOL0     O 2995   9.501   7.324   9.720  0.4833 -0.0282 -0.1673
  781MOL0     C 2996   9.542   7.396   9.833 -0.0254  0.5481 -0.1065
  781MOL0     C 2997   9.696   7.428   9.815 -0.0419  0.9445  0.0593
  781MOL0     C 2998   9.740   7.541   9.710 -0.2978 -0.2572 -0.4400
  781MOL0     C 2999   9.878   7.519   9.644 -0.6098  1.0459  0.3715
  781MOL0     C 3000   9.906   7.613   9.525  0.1702 -1.3177  0.0037
  781MOL0     C 3001   9.918   7.760   9.580 -0.0045  1.1231  0.0170
  781MOL0     C 3002   9.892   7.857   9.470  0.8325 -0.0170 -1.1974
  781MOL0     C 3003  10.020   7.925   9.434 -1.0286  0.4662 -0.6356
  781MOL0    Cl 3004  10.142   7.784   9.403  0.0175  0.4018 -0.1855
  781MOL0     C 3005   9.273   7.299   9.828  0.9137  0.1417  0.4037
  781MOL0     C 3006   9.144   7.247   9.813 -0.3664  0.1055  0.2012
  781MOL0     O 3007   8.957   7.032   9.875 -0.0086  0.2109  0.7559
  781MOL0     C 3008   8.735   6.880   9.788  0.7569 -0.5231  0.3067
  781MOL0     C 3009   8.604   6.838   9.752  0.3954 -0.7103 -0.4909
  781MOL0     N 3010   8.224   6.257   9.222 -0.0466  0.3061 -0.0772
  781MOL0     N 3011   8.149   6.215   9.121 -0.0715  0.7605 -0.8985
  781MOL0     C 3012   6.943   6.274   9.263  0.9954 -0.4486  0.7409
  781MOL0     C 3013   6.802   6.269   9.268  0.3869 -0.2753  0.0776
  781MOL0     C 3014   6.373   6.341   9.194  0.4518 -0.1104  0.4048
  781MOL0     C 3015   6.289   6.456   9.203  0.3823  0.3278 -0.9868
  781MOL0     C 3016   6.152   6.441   9.190 -0.2292 -0.5998 -0.2975
  781MOL0     C 3017   6.093   6.320   9.161  0.1363  0.4003  0.3453
  781MOL0     O 3018   5.966   6.330   9.143  0.2440  0.6084 -0.3201
  781MOL0     C 3019   5.891   6.205   9.104 -0.2023 -0.9137  0.3852
  781MOL0     C 3020   5.745   6.247   9.091 -0.1176 -0.7982 -0.6446
  781MOL0     C 3021   5.659   6.144   9.032  0.5660  0.1784  0.0591
  781MOL0     C 3022   5.513   6.192   9.002 -0.0218 -0.7253  0.4697
  781MOL0     C 3023   5.518   6.244   8.869 -0.2701  0.5934 -0.7412
  781MOL0     C 3024   5.526   6.291   8.765  0.3550 -0.2267  0.7423
  781MOL0     C 3025   6.172   6.204   9.156  0.2589  0.1263 -0.2293
  781MOL0     C 3026   6.310   6.219   9.166  0.3985 -0.1633 -0.0777
  781MOL0     H 3027   6.740   6.256   8.927 -1.5569  2.5804  1.4991
  781MOL0     H 3028   6.995   6.267   8.931 -0.9598  0.6533 -0.2909
  781MOL0     H 3029   7.204   6.139   9.259 -1.5739  0.0725 -0.3553
  781MOL0     H 3030   7.198   6.305   9.331 -2.4806 -1.6074  0.0541
  781MOL0     H 3031   7.385   6.348   9.130  0.3936  0.6261  1.0504
  781MOL0     H 3032   7.402   6.175   9.146  0.8156  0.0143  0.7071
  781MOL0     H 3033   7.453   6.180   9.375 -4.1355  0.7942  0.2037
  781MOL0     H 3034   7.453   6.337   9.399  0.0159  0.0023 -0.5304
  781MOL0     H 3035   7.687   6.260   9.345 -0.1644  1.8651 -0.1655
  781MOL0     H 3036   7.634   6.183   9.201 -0.7489 -0.3832 -0.9926
  781MOL0     H 3037   7.623   6.491   9.232 -6.1109 -2.1314  0.6108
  781MOL0     H 3038   7.609   6.405   9.080  3.0991 -0.8241 -1.6064
  781MOL0     H 3039   7.852   6.392   9.256 -0.7100  0.4703  1.0525
  781MOL0     H 3040   7.844   6.505   9.118 -2.4378  0.1240 -2.7468
  781MOL0     H 3041   7.871   6.201   9.106 -2.0061  0.1517 -1.1746
  781MOL0     H 3042   7.779   6.291   8.985 -3.9320  0.7038  3.9518
  781MOL0     H 3043   7.982   6.444   8.956 -2.2952  0.0211 -3.7569
  781MOL0     H 3044   7.994   6.281   8.887 -1.1388  1.3160 -0.3375
  781MOL0     H 3045   8.123   6.543   9.113 -2.3794  0.5436  1.3501
  781MOL0     H 3046   8.274   6.397   9.435  1.4170  1.0726  2.1178
  781MOL0     H 3047   8.123   6.484   9.406  0.1960 -1.5371  0.3002
  781MOL0     H 3048   8.282   6.657   9.275  1.6100 -1.6456 -0.0938
  781MOL0     H 3049   8.413   6.557   9.315  1.8573  1.5345  1.8201
  781MOL0     H 3050   8.222   6.669   9.516  0.9563 -1.7933  0.7648
  781MOL0     H 3051   8.376   6.581   9.556  0.3229 -0.5997  0.4633
  781MOL0     H 3052   8.354   6.854   9.412  0.6104  0.5291 -1.2819
  781MOL0     H 3053   8.501   6.766   9.421 -0.4657  0.2252 -0.5998
  781MOL0     H 3054   8.570   7.014   9.465 -1.4147  0.3501  2.4537
  781MOL0     H 3055   8.772   7.107   9.539  1.5643 -1.1592  0.0471
  781MOL0     H 3056   9.182   7.143   9.486  0.8077  1.4487 -0.7202
  781MOL0     H 3057   9.385   7.230   9.522 -1.1332 -2.5053 -0.4132
  781MOL0     H 3058   9.517   7.333   9.918 -3.7963 -0.9467 -2.0785
  781MOL0     H 3059   9.478   7.484   9.830  0.9402  1.3355 -4.2197
  781MOL0     H 3060   9.747   7.336   9.784  0.0440  1.1180 -0.3307
  781MOL0     H 3061   9.733   7.466   9.911  0.1358 -0.8567  0.7311
  781MOL0     H 3062   9.740   7.639   9.760  1.5558  0.0202 -0.9120
  781MOL0     H 3063   9.665   7.539   9.630  1.1793  0.7952 -1.9270
  781MOL0     H 3064   9.956   7.527   9.719  0.3249 -4.1264  0.2763
  781MOL0     H 3065   9.883   7.415   9.610 -2.3276  0.2738  2.2816
  781MOL0     H 3066   9.815   7.604   9.465 -1.6397 -0.0785  2.3741
  781MOL0     H 3067   9.993   7.583   9.466  1.2350 -0.5996  1.1491
  781MOL0     H 3068  10.012   7.784   9.630 -0.6051  0.9974  1.2374
  781MOL0     H 3069   9.852   7.769   9.667  4.5632 -0.7483  4.1172
  781MOL0     H 3070   9.838   7.815   9.384 -1.7517 -0.6244  0.6106
  781MOL0     H 3071   9.828   7.937   9.507  1.3804 -0.6436  1.2522
  781MOL0     H 3072  10.074   7.976   9.514 -0.3193  2.3837 -2.2341
  781MOL0     H 3073  10.014   7.998   9.353 -0.2614 -1.1236 -2.2096
  781MOL0     H 3074   9.283   7.346   9.925  0.1470 -1.2792  1.2078
  781MOL0     H 3075   9.074   7.243   9.896 -0.3038  2.1181  0.4138
  781MOL0     H 3076   8.770   6.850   9.886  0.9063 -1.5835 -0.0587
  781MOL0     H 3077   8.565   6.763   9.820  2.0882 -3.1140 -2.0073
  781MOL0     H 3078   6.994   6.274   9.358 -0.1602 -0.2243  1.3838
  781MOL0     H 3079   6.736   6.288   9.352  0.6637 -4.0410  1.3156
  781MOL0     H 3080   6.325   6.557   9.222  0.7907  0.7878 -3.7346
  781MOL0     H 3081   6.095   6.533   9.199  0.6203 -0.1764  1.0940
  781MOL0     H 3082   5.882   6.124   9.177 -0.8429  0.6034  2.0744
  781MOL0     H 3083   5.919   6.159   9.009 -1.5213 -0.7236 -0.1078
  781MOL0     H 3084   5.708   6.274   9.191 -2.2550 -2.5217 -0.9040
  781MOL0     H 3085   5.752   6.335   9.026 -0.2868  2.4733  3.3312
  781MOL0     H 3086   5.651   6.060   9.102  0.4969 -2.5777 -2.9795
  781MOL0     H 3087   5.689   6.095   8.938 -0.9554 -1.1322  0.2090
  781MOL0     H 3088   5.447   6.105   8.997 -2.9417  1.3760 -1.0561
  781MOL0     H 3089   5.480   6.258   9.082  0.7579  0.7743 -0.3995
  781MOL0     H 3090   5.546   6.346   8.676 -2.7829 -1.8968 -1.2124
  781MOL0     H 3091   6.134   6.108   9.120  0.9357 -0.0780 -0.4207
  781MOL0     H 3092   6.371   6.129   9.173 -1.4549 -1.3646  2.0500
  782MOL0     O 3093   0.369  10.113   4.347  0.6038 -0.0682  0.4511
  782MOL0     C 3094   0.278  10.066   4.413 -0.1620  0.2528  0.2542
  782MOL0     O 3095   0.151  10.031   4.365  0.2015  0.6491 -0.8084
  782MOL0     C 3096   0.143  10.065   4.236 -0.7057  0.1739 -0.5221
  782MOL0     C 3097   0.083  10.189   4.198  0.5133 -0.2521 -0.2729
  782MOL0     C 3098   0.071  10.229   4.073  0.7523 -0.3583  0.5595
  782MOL0     C 3099   0.125  10.162   3.966 -0.0268 -0.1506 -0.0575
  782MOL0     O 3100   0.138  10.216   3.838  0.1880  0.0363  1.3310
  782MOL0     C 3101   0.183  10.354   3.814  0.0364  0.0041  1.1125
  782MOL0     C 3102   0.176  10.398   3.666  0.2822 -0.7466 -0.2243
  782MOL0     C 3103   0.303  10.485   3.640  0.9238  0.4856 -0.8046
  782MOL0     C 3104   0.320  10.611   3.722  0.2574 -0.1607 -0.6801
  782MOL0     C 3105   0.455  10.677   3.700 -0.1842  0.3916  0.5014
  782MOL0     C 3106   0.455  10.832   3.716  0.7037  0.4568  0.1078
  782MOL0     C 3107   0.574  10.892   3.805  0.7366  0.1798  0.1118
  782MOL0     C 3108   0.542  10.957   3.933 -0.3610 -0.2900  0.3879
  782MOL0     N 3109   0.503  10.860   4.029  0.9312 -0.8036  0.4001
  782MOL0     C 3110   0.586  10.769   4.089  0.3329 -0.9778 -0.7337
  782MOL0     C 3111   0.493  10.691   4.150 -0.0976 -0.8482 -0.2420
  782MOL0     C 3112   0.513  10.574   4.242  0.1863  0.4014  0.1401
  782MOL0     C 3113   0.576  10.450   4.169  0.6501 -0.6581 -0.6112
  782MOL0     C 3114   0.448  10.368   4.124 -0.0886 -0.0186 -0.0047
  782MOL0     C 3115   0.487  10.239   4.045  0.7186 -0.0747  0.6691
  782MOL0     O 3116   0.569  10.287   3.939 -0.2500 -0.2290 -0.7873
  782MOL0     C 3117   0.570  10.229   3.814 -0.2486  0.4921 -0.4727
  782MOL0     C 3118   0.506  10.108   3.778 -0.7135  0.0529 -0.5369
  782MOL0     C 3119   0.509  10.050   3.649 -0.2185 -0.1303 -1.0872
  782MOL0     C 3120   0.573  10.119   3.544 -0.3856  0.6800 -0.5515
  782MOL0     C 3121   0.589  10.057   3.411 -0.1275 -0.1542 -0.5252
  782MOL0     O 3122   0.521   9.941   3.374  0.4072 -0.4405  0.3922
  782MOL0     C 3123   0.606   9.873   3.286  0.6219 -1.3447  0.8864
  782MOL0     C 3124   0.539   9.801   3.180 -0.4957  0.0830  0.2630
  782MOL0     C 3125   0.601   9.689   3.123  0.0456  0.7610  0.3764
  782MOL0     C 3126   0.715   9.627   3.175  0.8842 -0.2000 -0.9667
  782MOL0     O 3127   0.757   9.511   3.110  0.4709 -0.1283  0.2283
  782MOL0     C 3128   0.829   9.418   3.191 -0.1275  0.0978 -0.4146
  782MOL0     C 3129   0.874   9.305   3.098 -1.0570  0.5328 -0.1556
  782MOL0     C 3130   0.761   9.225   3.052 -0.1025  0.0955 -0.3603
  782MOL0     C 3131   0.794   9.128   2.936  0.7063 -0.1788 -0.4213
  782MOL0     C 3132   0.694   9.034   2.874 -0.5157  0.7050  0.0310
  782MOL0     C 3133   0.595   8.941   2.947  0.6583  0.7753  0.6369
  782MOL0     C 3134   0.481   9.013   3.014  0.1013  0.2138  0.7830
  782MOL0     C 3135   0.386   9.104   2.926 -0.3161  0.3604 -1.0492
  782MOL0    Cl 3136   0.272   9.024   2.811  0.2105  0.1606 -0.0326
  782MOL0     C 3137   0.779   9.684   3.292  0.3858 -0.6464  0.1640
  782MOL0     C 3138   0.728   9.813   3.336  0.0896  0.8981  0.2216
  782MOL0     O 3139   0.673  10.112   3.348 -0.7526 -0.1735  0.7163
  782MOL0     C 3140   0.622  10.244   3.576 -0.0479 -0.3010  0.0320
  782MOL0     C 3141   0.633  10.296   3.703  0.8446 -0.0285 -0.6638
  782MOL0     N 3142   0.365  10.740   4.134  0.1335  0.4137  0.0193
  782MOL0     N 3143   0.374  10.833   4.050  0.2650  0.2139  0.0955
  782MOL0     C 3144   0.189  10.038   3.999 -0.6730  0.1450  0.4303
  782MOL0     C 3145   0.194   9.989   4.129 -0.2224 -0.1636  0.1819
  782MOL0     C 3146   0.299  10.056   4.550 -1.0608  0.5237 -0.8700
  782MOL0     C 3147   0.412  10.117   4.603  0.1404 -0.4312 -0.2763
  782MOL0     C 3148   0.454  10.087   4.730 -0.0067  0.0253 -0.4959
  782MOL0     C 3149   0.382   9.997   4.816  0.5702  0.8820  0.4787
  782MOL0     O 3150   0.426   9.962   4.941  0.0596  0.4468 -0.2909
  782MOL0     C 3151   0.331   9.943   5.046  0.4147 -0.4986 -0.4730
  782MOL0     C 3152   0.343  10.057   5.141  0.5124 -0.2610 -0.0230
  782MOL0     C 3153   0.295  10.187   5.076 -0.1510 -0.9885 -0.2214
  782MOL0     C 3154   0.343  10.319   5.129 -0.4181 -0.2064  0.2011
  782MOL0     C 3155   0.296  10.357   5.264  0.9767 -0.2389 -0.6037
  782MOL0     C 3156   0.255  10.362   5.379  0.0798  0.3071 -0.7325
  782MOL0     C 3157   0.265   9.936   4.764  0.2025  0.0850  0.5444
  782MOL0     C 3158   0.221   9.970   4.634  0.0194 -0.5001  0.9190
  782MOL0     H 3159   0.034  10.260   4.264 -0.9504  0.6604 -2.2163
  782MOL0     H 3160   0.027  10.324   4.045 -1.3897 -0.2296  3.7504
  782MOL0     H 3161   0.287  10.356   3.849 -0.3563  3.1532  2.4204
  782MOL0     H 3162   0.125  10.425   3.874 -2.5200 -2.0705  1.2502
  782MOL0     H 3163   0.080  10.449   3.652  0.7319 -0.1429 -1.1886
  782MOL0     H 3164   0.183  10.321   3.588 -0.4135  0.9640 -2.0593
  782MOL0     H 3165   0.308  10.508   3.533  0.9910 -3.8454 -1.9268
  782MOL0     H 3166   0.386  10.416   3.651  1.3797  0.8637 -1.7211
  782MOL0     H 3167   0.247  10.684   3.687  0.1640  1.5013  2.5999
  782MOL0     H 3168   0.304  10.609   3.830 -2.7477  1.6719 -0.9910
  782MOL0     H 3169   0.488  10.646   3.600 -1.2978 -0.5505  0.4143
  782MOL0     H 3170   0.529  10.642   3.773  1.3354  2.6488  0.1666
  782MOL0     H 3171   0.353  10.856   3.747  0.0449  0.9265 -2.2331
  782MOL0     H 3172   0.473  10.863   3.613  1.0483 -2.8434 -0.9111
  782MOL0     H 3173   0.649  10.816   3.828  0.7136  0.2742  0.4960
  782MOL0     H 3174   0.621  10.968   3.741 -3.8283  2.3062 -1.1082
  782MOL0     H 3175   0.471  11.039   3.927 -3.3749 -2.5321  2.2332
  782MOL0     H 3176   0.636  10.996   3.974  0.2327 -1.5026  0.2562
  782MOL0     H 3177   0.692  10.782   4.111  0.1370  3.9789 -1.5973
  782MOL0     H 3178   0.420  10.547   4.293 -0.2459 -2.0703 -1.7306
  782MOL0     H 3179   0.578  10.600   4.326 -0.7793  1.1685  0.6749
  782MOL0     H 3180   0.642  10.392   4.235  0.0731 -1.4138 -0.6855
  782MOL0     H 3181   0.635  10.484   4.083 -0.1941 -1.9772 -1.7626
  782MOL0     H 3182   0.404  10.341   4.220 -1.1720 -2.5418 -1.1427
  782MOL0     H 3183   0.379  10.432   4.068  1.1425 -1.0168 -2.8950
  782MOL0     H 3184   0.392  10.200   4.007  0.6314  0.5466  0.2398
  782MOL0     H 3185   0.536  10.164   4.108  1.5779 -1.2920 -1.3535
  782MOL0     H 3186   0.451  10.041   3.844 -0.5069 -0.7979 -1.2092
  782MOL0     H 3187   0.466   9.953   3.626  1.0607 -0.8807 -0.4663
  782MOL0     H 3188   0.442   9.831   3.142 -0.1112  0.9375 -0.0698
  782MOL0     H 3189   0.565   9.643   3.031  3.0990  0.3423 -0.7081
  782MOL0     H 3190   0.764   9.393   3.275 -1.5758  6.7937  1.0420
  782MOL0     H 3191   0.912   9.477   3.231 -1.4128 -0.1993  3.0590
  782MOL0     H 3192   0.954   9.251   3.149 -0.9163  2.0362  1.3173
  782MOL0     H 3193   0.921   9.358   3.015 -1.2888 -1.3814 -1.5741
  782MOL0     H 3194   0.675   9.281   3.014 -0.2501 -1.6731 -2.8650
  782MOL0     H 3195   0.727   9.172   3.141 -0.6906  2.1851  0.7069
  782MOL0     H 3196   0.842   9.187   2.858  0.3299 -1.8400 -1.9663
  782MOL0     H 3197   0.880   9.065   2.963 -0.2097 -2.0597 -1.6813
  782MOL0     H 3198   0.755   8.982   2.799 -0.2666  4.4548 -2.7022
  782MOL0     H 3199   0.634   9.099   2.809 -0.0601  0.9648 -0.1403
  782MOL0     H 3200   0.648   8.885   3.025  0.5851  0.9371  0.8021
  782MOL0     H 3201   0.547   8.868   2.881  0.8785  0.7959  0.4500
  782MOL0     H 3202   0.426   8.931   3.061  0.1055 -2.1680 -2.9444
  782MOL0     H 3203   0.526   9.086   3.081 -1.9568  2.4092 -0.1188
  782MOL0     H 3204   0.449   9.171   2.867  1.2423  1.1109  1.3497
  782MOL0     H 3205   0.335   9.157   3.007  1.0297 -0.2565  0.2409
  782MOL0     H 3206   0.867   9.644   3.341  2.7367 -1.5693 -4.2851
  782MOL0     H 3207   0.790   9.858   3.413 -0.1714  1.6518  0.0061
  782MOL0     H 3208   0.672  10.304   3.500  1.1161 -2.2702 -0.8172
  782MOL0     H 3209   0.676  10.395   3.711  1.3068 -0.2102 -0.9104
  782MOL0     H 3210   0.247   9.988   3.921 -1.9507 -0.5064 -0.1275
  782MOL0     H 3211   0.236   9.891   4.151  1.2354  0.2809 -0.5340
  782MOL0     H 3212   0.478  10.180   4.544 -0.8006  2.2628  1.3898
  782MOL0     H 3213   0.541  10.131   4.779 -1.2517 -1.4876  3.5382
  782MOL0     H 3214   0.354   9.855   5.108  1.0321 -0.5809 -0.8080
  782MOL0     H 3215   0.230   9.919   5.012 -0.1243 -2.6816  2.2258
  782MOL0     H 3216   0.274  10.043   5.224  0.4429  0.8965  0.1421
  782MOL0     H 3217   0.444  10.066   5.184  1.3087 -0.6383 -1.7071
  782MOL0     H 3218   0.186  10.181   5.074 -0.3812  1.8845 -0.9786
  782MOL0     H 3219   0.341  10.181   4.977  4.6021 -0.1188  1.6394
  782MOL0     H 3220   0.451  10.305   5.136 -0.3820 -0.2578 -0.3947
  782MOL0     H 3221   0.333  10.386   5.043 -0.6353 -0.4674  0.0227
  782MOL0     H 3222   0.211  10.363   5.477  0.5466  1.8083 -0.5120
  782MOL0     H 3223   0.202   9.872   4.824 -1.1052  2.5527  1.9455
  782MOL0     H 3224   0.127   9.925   4.605 -2.3116  2.6302  2.9072
  783MOL0     O 3225   5.481   4.765   2.879  0.9506 -0.6449 -0.7364
  783MOL0     C 3226   5.592   4.810   2.852  0.8345 -0.1879  0.3034
  783MOL0     O 3227   5.668   4.770   2.746  0.0193  0.1645 -0.5220
  783MOL0     C 3228   5.650   4.658   2.683  0.1034 -0.1152  1.2846
  783MOL0     C 3229   5.604   4.542   2.754 -0.3859  0.9032  0.4302
  783MOL0     C 3230   5.554   4.429   2.688 -0.4512  1.0945 -0.1089
  783MOL0     C 3231   5.569   4.417   2.546  0.9135 -0.6057 -0.1206
  783MOL0     O 3232   5.531   4.309   2.460  0.1753 -0.8003 -0.7830
  783MOL0     C 3233   5.510   4.181   2.523  0.0613 -0.1706 -0.1588
  783MOL0     C 3234   5.655   4.125   2.557  0.9743  0.0681  0.4268
  783MOL0     C 3235   5.750   4.114   2.433  0.0898 -0.8724  0.4883
  783MOL0     C 3236   5.685   4.068   2.295 -0.2286 -0.0909  0.2835
  783MOL0     C 3237   5.691   3.918   2.286  0.5011  0.2706 -0.3572
  783MOL0     C 3238   5.614   3.837   2.393  0.2979  0.6701  0.0501
  783MOL0     C 3239   5.619   3.685   2.370  0.5379  0.0349  0.4710
  783MOL0     C 3240   5.603   3.609   2.508  0.0066  0.1455  0.0018
  783MOL0     N 3241   5.701   3.623   2.611 -0.3123 -0.3660  0.3056
  783MOL0     C 3242   5.820   3.545   2.619  0.2123  0.0866 -0.3231
  783MOL0     C 3243   5.879   3.608   2.725 -1.5924 -0.3335  1.4159
  783MOL0     C 3244   5.991   3.546   2.798  1.0371  0.8821 -0.1046
  783MOL0     C 3245   6.001   3.573   2.951  1.3965  0.3477  0.1739
  783MOL0     C 3246   6.109   3.475   3.008 -0.1885 -0.3186  0.9450
  783MOL0     C 3247   6.150   3.493   3.154  0.2897  0.9532  0.6874
  783MOL0     O 3248   6.243   3.613   3.133  0.4207  0.4098  0.1054
  783MOL0     C 3249   6.309   3.655   3.239 -0.0666 -0.3385 -0.0613
  783MOL0     C 3250   6.416   3.571   3.290 -0.0753 -0.1416 -0.1389
  783MOL0     C 3251   6.479   3.612   3.410 -0.2618  0.0617  0.8293
  783MOL0     C 3252   6.446   3.738   3.462  0.0543 -0.5628 -0.2962
  783MOL0     C 3253   6.525   3.795   3.579 -0.0412  0.9788  0.5152
  783MOL0     O 3254   6.470   3.895   3.662 -0.2720  0.6490 -0.9653
  783MOL0     C 3255   6.546   3.964   3.755  0.2855 -0.1745  0.5637
  783MOL0     C 3256   6.473   4.044   3.850  0.3342 -0.1334  0.2093
  783MOL0     C 3257   6.534   4.134   3.925  0.0853 -0.1874 -0.3405
  783MOL0     C 3258   6.669   4.151   3.931 -0.0464 -0.1790  0.4113
  783MOL0     O 3259   6.717   4.264   3.993 -0.5540 -0.3699 -0.4848
  783MOL0     C 3260   6.856   4.287   4.002  0.1583  0.3587 -0.0512
  783MOL0     C 3261   6.936   4.178   4.094 -0.9189  0.0375 -0.5965
  783MOL0     C 3262   7.066   4.230   4.167  0.6281 -0.1935  0.2062
  783MOL0     C 3263   7.124   4.114   4.251 -0.4919  1.0241 -0.0378
  783MOL0     C 3264   7.173   4.012   4.139 -0.6332 -0.2866  0.3314
  783MOL0     C 3265   7.268   3.906   4.193 -0.1698  0.2608  0.9960
  783MOL0     C 3266   7.326   3.836   4.077 -0.0115  0.4692  0.8588
  783MOL0     C 3267   7.400   3.708   4.125 -0.8111 -0.1350  0.3429
  783MOL0    Cl 3268   7.305   3.562   4.063 -0.3041  0.1981  0.0399
  783MOL0     C 3269   6.746   4.071   3.840 -0.9903 -0.3393  0.1941
  783MOL0     C 3270   6.683   3.977   3.759  0.1977  0.1957  0.5137
  783MOL0     O 3271   6.634   3.748   3.593 -0.1754 -0.1173  0.6275
  783MOL0     C 3272   6.356   3.819   3.402  0.3265 -0.6492  0.3652
  783MOL0     C 3273   6.280   3.774   3.297  0.5645  0.1340  0.6590
  783MOL0     N 3274   5.813   3.721   2.769  0.7626  0.1625 -0.6012
  783MOL0     N 3275   5.701   3.719   2.704  0.9026  0.7572 -0.2838
  783MOL0     C 3276   5.637   4.522   2.482 -0.4621 -0.0353  0.6070
  783MOL0     C 3277   5.671   4.641   2.551 -0.3408 -0.3246  0.0766
  783MOL0     C 3278   5.620   4.934   2.932  0.1457  0.3999  0.4520
  783MOL0     C 3279   5.537   4.968   3.044 -0.1167 -0.8393  0.4630
  783MOL0     C 3280   5.561   5.084   3.118 -0.2289 -0.6791  0.4776
  783MOL0     C 3281   5.675   5.156   3.096  0.7866  0.1167 -0.4686
  783MOL0     O 3282   5.702   5.249   3.194 -0.0829  0.9129  0.0542
  783MOL0     C 3283   5.714   5.383   3.148 -0.4821 -1.0924  0.3647
  783MOL0     C 3284   5.852   5.437   3.135 -0.7069 -0.6518  0.5226
  783MOL0     C 3285   5.941   5.405   3.262 -0.5473 -0.2238  1.2748
  783MOL0     C 3286   6.076   5.477   3.235  0.1213 -0.2298 -1.1656
  783MOL0     C 3287   6.177   5.446   3.334 -0.3849 -0.6064  0.1131
  783MOL0     C 3288   6.257   5.428   3.418  0.2984 -0.8681  0.0504
  783MOL0     C 3289   5.758   5.127   2.984  0.6465  0.6303 -0.7694
  783MOL0     C 3290   5.724   5.016   2.892  0.7804  0.0183 -0.3957
  783MOL0     H 3291   5.594   4.548   2.862 -1.8969  1.5439  0.2919
  783MOL0     H 3292   5.507   4.348   2.741 -1.4830  0.3564 -2.0424
  783MOL0     H 3293   5.456   4.119   2.451  2.1745 -0.5269 -1.5452
  783MOL0     H 3294   5.447   4.190   2.612  0.9129  0.3898  0.4062
  783MOL0     H 3295   5.637   4.030   2.608  2.5338  0.8047  2.5039
  783MOL0     H 3296   5.698   4.183   2.639 -0.6239 -1.6432  2.6089
  783MOL0     H 3297   5.832   4.049   2.466  0.1781 -0.7017  0.6056
  783MOL0     H 3298   5.786   4.216   2.416  0.5583 -0.9587  0.9213
  783MOL0     H 3299   5.587   4.113   2.276 -0.1960  0.1040  0.5612
  783MOL0     H 3300   5.750   4.104   2.215  3.6901 -1.4323  2.5592
  783MOL0     H 3301   5.794   3.882   2.284  0.1009 -0.9626  0.0730
  783MOL0     H 3302   5.641   3.894   2.192 -0.9623  0.0210  0.4494
  783MOL0     H 3303   5.517   3.888   2.390  0.1192  0.7551  3.2677
  783MOL0     H 3304   5.652   3.861   2.493  0.1188 -2.8075  1.0897
  783MOL0     H 3305   5.536   3.647   2.309  0.1618 -1.0665  1.6368
  783MOL0     H 3306   5.711   3.651   2.323  1.4996 -0.1692  2.4212
  783MOL0     H 3307   5.580   3.506   2.480 -1.1210  0.6382 -0.9910
  783MOL0     H 3308   5.509   3.638   2.557 -1.3842 -0.8962 -1.9098
  783MOL0     H 3309   5.853   3.452   2.574  2.6556  0.9138 -0.3859
  783MOL0     H 3310   6.085   3.575   2.750 -0.2380  1.5644 -2.3323
  783MOL0     H 3311   5.988   3.437   2.800 -1.6872  0.8445  2.9958
  783MOL0     H 3312   5.900   3.554   2.989  1.7266 -1.4447  0.2302
  783MOL0     H 3313   6.030   3.677   2.969  1.3945  1.2055 -3.7400
  783MOL0     H 3314   6.068   3.378   2.979 -0.8786  1.0578 -3.4088
  783MOL0     H 3315   6.201   3.494   2.951 -0.8601 -1.5852 -0.6402
  783MOL0     H 3316   6.203   3.404   3.187  0.8929 -0.8827 -4.2957
  783MOL0     H 3317   6.070   3.510   3.226  2.2209 -1.5517  3.6922
  783MOL0     H 3318   6.457   3.486   3.237  1.1967  1.5955 -2.0827
  783MOL0     H 3319   6.549   3.548   3.462  0.9110 -0.7192 -1.5713
  783MOL0     H 3320   6.366   4.022   3.847  1.0164 -4.1883 -2.1088
  783MOL0     H 3321   6.478   4.200   3.990  0.4048  1.1506 -1.3679
  783MOL0     H 3322   6.859   4.383   4.052  3.4596  0.2343  0.1500
  783MOL0     H 3323   6.892   4.291   3.898 -2.2146  0.7635 -0.9264
  783MOL0     H 3324   6.957   4.098   4.023  0.1371 -0.9001  0.7196
  783MOL0     H 3325   6.870   4.138   4.171 -0.6787 -2.3138 -1.5372
  783MOL0     H 3326   7.026   4.310   4.230 -0.2973 -1.9034  1.8985
  783MOL0     H 3327   7.147   4.274   4.108  4.6465 -2.4260  3.5830
  783MOL0     H 3328   7.202   4.153   4.317  0.8255 -0.1200 -0.8799
  783MOL0     H 3329   7.048   4.061   4.308 -0.8975 -1.3818 -2.6042
  783MOL0     H 3330   7.214   4.061   4.050  1.3552 -0.6884  0.9720
  783MOL0     H 3331   7.086   3.961   4.096 -0.7007 -2.0259  2.3303
  783MOL0     H 3332   7.227   3.826   4.255 -0.4160 -0.7730 -0.4499
  783MOL0     H 3333   7.351   3.952   4.248  2.3965  1.5280 -3.3587
  783MOL0     H 3334   7.250   3.810   4.003 -1.7043  2.2051  1.9334
  783MOL0     H 3335   7.400   3.898   4.026 -1.8938  1.3272 -0.9439
  783MOL0     H 3336   7.405   3.704   4.234  0.1624  0.4126  0.3288
  783MOL0     H 3337   7.502   3.714   4.087 -0.2343 -1.3743  1.6036
  783MOL0     H 3338   6.854   4.077   3.839 -0.7341 -2.3810  2.7372
  783MOL0     H 3339   6.740   3.917   3.687  0.8398  1.7195 -0.3043
  783MOL0     H 3340   6.332   3.920   3.433  2.1169 -0.2642  0.5952
  783MOL0     H 3341   6.199   3.835   3.259  0.7771  0.8633  1.3330
  783MOL0     H 3342   5.638   4.505   2.375 -0.9982 -0.8820  0.7264
  783MOL0     H 3343   5.709   4.724   2.494 -0.0192 -0.8776 -0.5262
  783MOL0     H 3344   5.450   4.909   3.069 -1.3268  0.4767 -0.4486
  783MOL0     H 3345   5.500   5.121   3.201  0.7658 -0.1029  0.9698
  783MOL0     H 3346   5.658   5.429   3.230 -3.3444 -1.3994 -1.2760
  783MOL0     H 3347   5.668   5.402   3.050  1.1292 -0.2404 -0.2558
  783MOL0     H 3348   5.900   5.405   3.042 -3.6109  2.2863 -2.2146
  783MOL0     H 3349   5.849   5.546   3.134 -1.3274 -0.6250  2.2350
  783MOL0     H 3350   5.954   5.297   3.260  1.9044  0.0021 -1.0567
  783MOL0     H 3351   5.891   5.432   3.356 -4.6306 -2.4929  0.0025
  783MOL0     H 3352   6.107   5.451   3.134  2.4572 -0.8824 -0.3312
  783MOL0     H 3353   6.052   5.583   3.247  0.9828  0.1812 -2.9093
  783MOL0     H 3354   6.331   5.405   3.492 -0.3694 -3.7363 -0.0587
  783MOL0     H 3355   5.851   5.182   2.969  2.1155 -1.0891  1.3914
  783MOL0     H 3356   5.760   5.001   2.790  0.4907  0.5642 -0.5823
  784MOL0     O 3357   2.789   1.216   7.575 -0.1807 -0.4477  0.2149
  784MOL0     C 3358   2.733   1.116   7.622 -0.0336 -0.9840 -0.6418
  784MOL0     O 3359   2.634   1.035   7.556 -0.7187 -0.5337 -0.2786
  784MOL0     C 3360   2.624   1.059   7.421  0.5673 -0.0018 -0.3793
  784MOL0     C 3361   2.515   1.130   7.378  0.2545 -0.8244  0.2507
  784MOL0     C 3362   2.481   1.144   7.243 -0.0196  0.0201 -0.2444
  784MOL0     C 3363   2.567   1.092   7.147  0.0902  0.0190 -1.2665
  784MOL0     O 3364   2.551   1.138   7.018  0.1307 -0.0668 -0.2565
  784MOL0     C 3365   2.656   1.112   6.920 -0.8727 -0.3249 -0.0384
  784MOL0     C 3366   2.618   1.193   6.794  0.3712 -0.0151  0.4735
  784MOL0     C 3367   2.634   1.343   6.815 -0.1172  0.2125  0.2840
  784MOL0     C 3368   2.780   1.404   6.774 -0.5437  0.4563  0.0749
  784MOL0     C 3369   2.897   1.348   6.842 -0.8169  0.6410  0.9326
  784MOL0     C 3370   2.895   1.378   6.993 -0.3481 -0.2786  1.5042
  784MOL0     C 3371   2.903   1.527   7.030 -0.2252  0.2537  0.1750
  784MOL0     C 3372   3.041   1.581   6.991 -0.3890  0.1399  0.4081
  784MOL0     N 3373   3.054   1.719   7.042 -0.4820  0.4124 -0.6009
  784MOL0     C 3374   3.052   1.747   7.172 -0.3833 -0.1179  0.0492
  784MOL0     C 3375   3.080   1.880   7.174  0.5261  0.0083 -0.1308
  784MOL0     C 3376   3.131   1.967   7.283  0.2797  0.1004 -0.8163
  784MOL0     C 3377   3.054   1.965   7.418 -0.4726 -0.2072 -0.1479
  784MOL0     C 3378   2.934   2.050   7.411 -0.1489 -0.0640  0.0688
  784MOL0     C 3379   2.817   1.976   7.467  0.5088  0.0244 -0.4247
  784MOL0     O 3380   2.703   2.072   7.448  0.0579 -0.4360 -0.4917
  784MOL0     C 3381   2.611   2.078   7.548  0.7563  0.1387 -1.0396
  784MOL0     C 3382   2.564   2.207   7.601 -0.3018 -0.0516  0.6664
  784MOL0     C 3383   2.481   2.212   7.713 -0.2137 -0.2734 -0.4705
  784MOL0     C 3384   2.420   2.093   7.760 -0.5602  0.1984  0.2303
  784MOL0     C 3385   2.319   2.094   7.869  0.8145  0.1910  0.3143
  784MOL0     O 3386   2.258   2.213   7.892 -0.3574 -0.5021 -0.0869
  784MOL0     C 3387   2.160   2.222   7.989  0.5095 -0.6466  0.9388
  784MOL0     C 3388   2.191   2.217   8.130  0.5855 -0.7534  0.2670
  784MOL0     C 3389   2.087   2.231   8.210  0.2481  0.8034  0.6234
  784MOL0     C 3390   1.950   2.254   8.175 -0.2514 -0.4110  0.6047
  784MOL0     O 3391   1.845   2.310   8.253  0.0333  0.3350  0.2182
  784MOL0     C 3392   1.833   2.258   8.383 -0.2249  0.4827 -0.5778
  784MOL0     C 3393   1.697   2.226   8.411  0.5001 -0.3967  0.3434
  784MOL0     C 3394   1.627   2.328   8.502  0.8183 -0.5608 -1.0638
  784MOL0     C 3395   1.481   2.283   8.516  0.3369 -0.1690 -0.3770
  784MOL0     C 3396   1.394   2.373   8.607 -1.0112  0.1501  0.5418
  784MOL0     C 3397   1.269   2.302   8.652 -0.2752  0.1008  0.6959
  784MOL0     C 3398   1.180   2.376   8.742 -1.0273  0.7042  1.1282
  784MOL0     C 3399   1.101   2.477   8.661  0.2604 -0.2138  0.4829
  784MOL0    Cl 3400   1.001   2.412   8.531 -0.3949 -0.1255 -0.1309
  784MOL0     C 3401   1.924   2.258   8.034 -0.5429 -0.5419  0.3360
  784MOL0     C 3402   2.031   2.243   7.942 -0.1556  0.1365  0.4998
  784MOL0     O 3403   2.301   1.991   7.931 -0.5998  0.9436  0.0514
  784MOL0     C 3404   2.470   1.966   7.713  1.2500  0.2488  0.3416
  784MOL0     C 3405   2.554   1.960   7.606 -0.8147  0.2990 -0.3122
  784MOL0     N 3406   3.091   1.932   7.045 -0.1406 -0.3926  0.6759
  784MOL0     N 3407   3.069   1.831   6.972 -0.8426  1.5774 -0.1410
  784MOL0     C 3408   2.679   1.019   7.195  0.2669 -0.1082 -0.5610
  784MOL0     C 3409   2.710   1.005   7.332  0.8994  0.6930 -0.3245
  784MOL0     C 3410   2.756   1.072   7.767  0.6806 -0.2764 -0.3396
  784MOL0     C 3411   2.705   0.950   7.824 -0.8395  0.3083  0.1363
  784MOL0     C 3412   2.729   0.910   7.953 -0.1938 -1.6454 -0.3884
  784MOL0     C 3413   2.780   1.001   8.046 -1.2054 -0.0247 -0.7623
  784MOL0     O 3414   2.784   0.960   8.177  0.2347  0.3198  0.1753
  784MOL0     C 3415   2.808   1.053   8.282 -0.6243 -0.3891  0.5537
  784MOL0     C 3416   2.746   0.999   8.404  0.0536  1.3886 -0.6586
  784MOL0     C 3417   2.755   1.103   8.523  0.1833  0.1105  0.8105
  784MOL0     C 3418   2.730   1.040   8.659 -1.1490 -0.3770  0.5524
  784MOL0     C 3419   2.598   0.986   8.666  0.0785  0.3477 -0.9906
  784MOL0     C 3420   2.496   0.919   8.687  0.3929 -0.3193  0.0236
  784MOL0     C 3421   2.813   1.135   7.997  0.5047  1.0055  0.5655
  784MOL0     C 3422   2.800   1.167   7.860 -0.8480  0.1194  0.6959
  784MOL0     H 3423   2.442   1.168   7.450  0.0685 -0.8852  0.0950
  784MOL0     H 3424   2.395   1.199   7.206 -0.8335 -0.3034  1.0944
  784MOL0     H 3425   2.673   1.004   6.907 -1.7958 -0.2686 -2.1663
  784MOL0     H 3426   2.743   1.157   6.968 -1.9901  0.1787  1.5977
  784MOL0     H 3427   2.518   1.170   6.756  1.0332 -0.2390 -1.1811
  784MOL0     H 3428   2.683   1.155   6.715  0.9815 -0.6264  1.2502
  784MOL0     H 3429   2.610   1.381   6.915 -0.5063 -0.3480  0.4092
  784MOL0     H 3430   2.570   1.383   6.735  0.4600 -3.2290 -2.1464
  784MOL0     H 3431   2.800   1.373   6.671  2.9146 -0.1839  0.8312
  784MOL0     H 3432   2.775   1.514   6.780 -2.3421  0.3717  0.7247
  784MOL0     H 3433   2.987   1.386   6.793 -0.5031  1.3127  1.9983
  784MOL0     H 3434   2.896   1.239   6.833  2.5069  0.5910  0.1715
  784MOL0     H 3435   2.974   1.319   7.040  0.0216 -0.2327  0.9500
  784MOL0     H 3436   2.802   1.346   7.042  1.9616 -0.7292  6.1742
  784MOL0     H 3437   2.818   1.578   6.985 -0.5800  1.4038  2.0525
  784MOL0     H 3438   2.876   1.541   7.135 -0.4283  1.4423 -0.0281
  784MOL0     H 3439   3.051   1.583   6.882 -4.5841 -0.8218 -0.1951
  784MOL0     H 3440   3.109   1.519   7.048 -0.5099  0.3746  0.8115
  784MOL0     H 3441   3.057   1.687   7.263 -1.2134 -1.4640 -0.7598
  784MOL0     H 3442   3.149   2.070   7.250 -2.7570  1.8785  2.4543
  784MOL0     H 3443   3.226   1.919   7.310 -0.8990 -0.7363  2.3169
  784MOL0     H 3444   3.131   1.992   7.491  0.1433  0.0737 -0.8998
  784MOL0     H 3445   3.029   1.864   7.453  0.0544 -0.5088 -0.6358
  784MOL0     H 3446   2.944   2.149   7.456 -2.2014  0.2735 -0.1421
  784MOL0     H 3447   2.912   2.070   7.306  4.9276  3.5737 -0.6890
  784MOL0     H 3448   2.839   1.958   7.573 -3.4692 -1.3561  0.3609
  784MOL0     H 3449   2.797   1.884   7.412 -4.7013  0.5517  0.0486
  784MOL0     H 3450   2.611   2.293   7.553  0.5967 -0.7033  0.3568
  784MOL0     H 3451   2.455   2.311   7.749 -0.6891 -0.9162  1.0205
  784MOL0     H 3452   2.295   2.211   8.159  0.1620 -2.3265  1.6197
  784MOL0     H 3453   2.117   2.243   8.313  4.5606 -2.0189 -0.0523
  784MOL0     H 3454   1.859   2.337   8.453 -0.1103  2.2880 -2.5601
  784MOL0     H 3455   1.897   2.170   8.396 -1.4851 -0.9107 -3.0665
  784MOL0     H 3456   1.694   2.128   8.461  2.5278  0.0120  1.3776
  784MOL0     H 3457   1.636   2.217   8.321 -1.1253 -0.6426  1.4133
  784MOL0     H 3458   1.632   2.433   8.473 -2.7144  0.5460  1.5532
  784MOL0     H 3459   1.679   2.337   8.598  1.7172 -0.7580 -1.5174
  784MOL0     H 3460   1.436   2.273   8.417 -0.3261  0.1311 -0.1135
  784MOL0     H 3461   1.499   2.187   8.565 -0.6782  1.2253  3.0722
  784MOL0     H 3462   1.372   2.472   8.566 -1.6132  0.1838  0.9314
  784MOL0     H 3463   1.462   2.387   8.692 -0.3227 -1.2315  0.2383
  784MOL0     H 3464   1.306   2.210   8.698  0.6742 -0.4705 -1.1150
  784MOL0     H 3465   1.212   2.277   8.562 -0.0385 -1.4441  0.9486
  784MOL0     H 3466   1.114   2.308   8.796 -0.1179  0.3301  1.7911
  784MOL0     H 3467   1.227   2.436   8.820  1.4628 -0.9059  0.9911
  784MOL0     H 3468   1.175   2.545   8.619  2.4292 -2.1122  1.0210
  784MOL0     H 3469   1.040   2.544   8.723 -0.7712  0.4581 -1.1953
  784MOL0     H 3470   1.830   2.303   8.004  0.2052 -0.3634 -1.9981
  784MOL0     H 3471   2.015   2.255   7.835 -2.2077  0.1900  0.7692
  784MOL0     H 3472   2.435   1.876   7.763  1.9256 -2.3655 -3.4000
  784MOL0     H 3473   2.588   1.860   7.579  0.3366  0.4591  0.4341
  784MOL0     H 3474   2.744   0.968   7.126 -1.5660 -2.6209 -0.5411
  784MOL0     H 3475   2.796   0.947   7.365  0.5422 -1.6345 -3.1045
  784MOL0     H 3476   2.644   0.887   7.759 -1.8267 -0.7559  1.9901
  784MOL0     H 3477   2.702   0.808   7.979 -0.1899 -1.4791  0.2867
  784MOL0     H 3478   2.760   1.149   8.262 -1.8908 -0.8594  1.2628
  784MOL0     H 3479   2.913   1.071   8.307  0.6494 -2.7772 -2.3549
  784MOL0     H 3480   2.642   0.983   8.374  0.6275  0.7454 -2.4096
  784MOL0     H 3481   2.787   0.903   8.435 -0.3556  1.2275 -0.6102
  784MOL0     H 3482   2.687   1.187   8.505 -2.8413 -2.4163 -0.5306
  784MOL0     H 3483   2.853   1.151   8.525  0.4596  0.1582 -3.9112
  784MOL0     H 3484   2.800   0.957   8.677 -0.4349 -0.7986 -3.1880
  784MOL0     H 3485   2.755   1.117   8.732 -0.5513 -1.3868  1.4385
  784MOL0     H 3486   2.409   0.859   8.705 -0.3602  0.1157 -1.9209
  784MOL0     H 3487   2.840   1.220   8.059 -1.9050  2.6615 -0.5007
  784MOL0     H 3488   2.826   1.271   7.844  2.2595 -0.9301 -2.2527
  785MOL0     O 3489   1.751   1.410   4.928  0.0549  0.1527  1.1071
  785MOL0     C 3490   1.760   1.455   5.040  0.7430 -0.9656  0.2146
  785MOL0     O 3491   1.841   1.553   5.072  0.0545  0.5253 -0.2833
  785MOL0     C 3492   1.917   1.614   4.979 -0.1507  0.3077 -0.4110
  785MOL0     C 3493   2.024   1.553   4.925 -0.1689  0.2154  0.2861
  785MOL0     C 3494   2.098   1.624   4.829  0.0374  0.3990  1.0800
  785MOL0     C 3495   2.076   1.758   4.791  0.3484  0.5559 -0.0501
  785MOL0     O 3496   2.176   1.826   4.703  0.4191 -0.1084 -0.8264
  785MOL0     C 3497   2.113   1.892   4.598 -0.1372 -0.1356  0.1343
  785MOL0     C 3498   2.200   1.904   4.484 -0.4343  0.4181  0.1704
  785MOL0     C 3499   2.247   1.763   4.437  0.2497 -0.3706  0.7778
  785MOL0     C 3500   2.315   1.770   4.299  0.9865 -0.0633 -0.7161
  785MOL0     C 3501   2.320   1.649   4.210  0.3788  0.2294  0.7216
  785MOL0     C 3502   2.244   1.673   4.077 -0.1698 -0.6651 -0.4225
  785MOL0     C 3503   2.235   1.537   4.012  1.4223  0.5383  0.0566
  785MOL0     C 3504   2.369   1.466   3.983  0.4482  0.7555 -0.2111
  785MOL0     N 3505   2.460   1.537   3.899  1.1013  0.0179 -0.3554
  785MOL0     C 3506   2.414   1.598   3.784  0.1416  0.6097  0.0958
  785MOL0     C 3507   2.532   1.646   3.730  0.6038  0.2061  0.6109
  785MOL0     C 3508   2.536   1.724   3.600  0.7671 -0.3553  0.7724
  785MOL0     C 3509   2.578   1.634   3.476 -0.3640  0.3683  0.8693
  785MOL0     C 3510   2.463   1.549   3.425  0.8777 -0.2664 -0.2760
  785MOL0     C 3511   2.380   1.621   3.320 -0.3716 -0.4014  0.1436
  785MOL0     O 3512   2.250   1.567   3.294  0.3401  0.0980  0.4543
  785MOL0     C 3513   2.232   1.460   3.217 -0.7858 -0.1249 -0.1411
  785MOL0     C 3514   2.337   1.415   3.129  0.1034 -0.2547 -0.5514
  785MOL0     C 3515   2.307   1.322   3.036  1.2901  0.2245 -0.1197
  785MOL0     C 3516   2.184   1.249   3.046 -0.9856 -0.6847 -0.7036
  785MOL0     C 3517   2.158   1.129   2.967 -0.1620  0.6520 -0.8017
  785MOL0     O 3518   2.036   1.075   2.947  0.9479  0.7627  0.3093
  785MOL0     C 3519   2.022   0.949   2.897  0.0476 -0.9383  0.1393
  785MOL0     C 3520   2.056   0.838   2.970  0.8548  0.5806  0.2186
  785MOL0     C 3521   2.070   0.714   2.907  0.0330  0.2883 -0.6223
  785MOL0     C 3522   2.031   0.693   2.776 -0.0167  0.6258  0.2955
  785MOL0     O 3523   2.032   0.561   2.721  0.2651 -0.0267  0.1266
  785MOL0     C 3524   1.971   0.552   2.590 -0.3665 -0.4412  0.0986
  785MOL0     C 3525   1.941   0.405   2.566 -0.2136  1.0665  0.0536
  785MOL0     C 3526   2.076   0.321   2.558  0.0992  0.7623 -0.2230
  785MOL0     C 3527   2.054   0.173   2.528  0.1328 -0.1165  0.0782
  785MOL0     C 3528   2.197   0.118   2.516  0.2354 -0.0500  0.2578
  785MOL0     C 3529   2.245   0.050   2.646  0.6356 -0.6924  1.1408
  785MOL0     C 3530   2.398   0.002   2.630  0.8511 -0.3375  0.0171
  785MOL0     C 3531   2.450  -0.036   2.762  1.2358 -0.7132  0.1295
  785MOL0    Cl 3532   2.443   0.106   2.871  0.0580  0.1758  0.2527
  785MOL0     C 3533   1.992   0.804   2.707  0.0842  0.1923  0.2844
  785MOL0     C 3534   1.979   0.926   2.770  0.2978 -0.6491 -0.1003
  785MOL0     O 3535   2.259   1.082   2.913  0.0520  0.3099 -0.4987
  785MOL0     C 3536   2.086   1.292   3.131  0.1517 -0.5034 -0.7124
  785MOL0     C 3537   2.100   1.404   3.204 -0.2896  0.5699  0.3675
  785MOL0     N 3538   2.636   1.602   3.803  0.0786  0.4066  0.4207
  785MOL0     N 3539   2.593   1.536   3.904  0.8075  0.1432  0.3244
  785MOL0     C 3540   1.974   1.825   4.862  0.7866  0.3040 -0.1198
  785MOL0     C 3541   1.888   1.748   4.947 -0.5543 -0.7012  0.2862
  785MOL0     C 3542   1.672   1.400   5.142 -0.3555 -0.3375 -0.0106
  785MOL0     C 3543   1.604   1.285   5.116  0.3637  0.2424 -0.5148
  785MOL0     C 3544   1.510   1.240   5.203  0.9832  0.2758  0.7684
  785MOL0     C 3545   1.507   1.291   5.335 -1.2275 -0.9165 -1.1715
  785MOL0     O 3546   1.432   1.213   5.422 -1.1246  0.1368  0.7230
  785MOL0     C 3547   1.430   1.233   5.559 -0.1142 -0.0263 -0.0002
  785MOL0     C 3548   1.355   1.101   5.592 -0.5085 -0.2809 -0.2261
  785MOL0     C 3549   1.207   1.110   5.565 -0.0692 -0.0290  0.7615
  785MOL0     C 3550   1.130   1.190   5.669  0.4912  0.0001  0.3713
  785MOL0     C 3551   1.153   1.131   5.802  0.3606  0.4716 -0.9007
  785MOL0     C 3552   1.181   1.113   5.926 -0.0164 -0.0733 -0.1968
  785MOL0     C 3553   1.583   1.415   5.366  0.0331 -1.0015 -0.0872
  785MOL0     C 3554   1.657   1.468   5.266 -0.1266 -0.3346 -0.5980
  785MOL0     H 3555   2.033   1.451   4.961 -0.1512 -0.3066 -1.1102
  785MOL0     H 3556   2.185   1.575   4.787 -2.2072 -2.6663 -0.3444
  785MOL0     H 3557   2.082   1.994   4.625 -1.8302 -0.3367 -0.8966
  785MOL0     H 3558   2.025   1.833   4.572  0.0737  0.2694 -1.6554
  785MOL0     H 3559   2.279   1.973   4.514 -0.1266 -0.5427  1.7195
  785MOL0     H 3560   2.140   1.951   4.406 -0.5123  0.4539  0.2523
  785MOL0     H 3561   2.161   1.696   4.432 -2.6374  3.0920 -2.1166
  785MOL0     H 3562   2.311   1.716   4.512 -3.3364 -1.8315  3.1977
  785MOL0     H 3563   2.270   1.851   4.242  2.8520  1.7698  0.2953
  785MOL0     H 3564   2.419   1.797   4.323  0.0005  2.0187  1.6992
  785MOL0     H 3565   2.270   1.571   4.267  0.1943 -0.5390 -0.4694
  785MOL0     H 3566   2.423   1.625   4.182  0.9479  2.2867  0.8388
  785MOL0     H 3567   2.309   1.732   4.012  0.2141 -2.6185 -1.9184
  785MOL0     H 3568   2.151   1.726   4.098 -0.3897 -1.6215  1.1467
  785MOL0     H 3569   2.173   1.478   4.079  1.5723  1.8689  1.4026
  785MOL0     H 3570   2.185   1.557   3.916  0.6556 -1.4718 -0.0101
  785MOL0     H 3571   2.339   1.378   3.925 -2.9995  2.3777 -1.1684
  785MOL0     H 3572   2.416   1.426   4.073  1.9487 -0.1137 -1.3519
  785MOL0     H 3573   2.311   1.598   3.751  0.1266  0.1532  0.1349
  785MOL0     H 3574   2.603   1.811   3.594  0.3733 -0.1403 -2.1933
  785MOL0     H 3575   2.441   1.773   3.579  0.2370 -1.2301  1.0921
  785MOL0     H 3576   2.663   1.569   3.499  0.6556  2.2019  2.5941
  785MOL0     H 3577   2.608   1.707   3.399 -1.2402 -1.0607 -0.9076
  785MOL0     H 3578   2.498   1.453   3.387  0.2746 -0.1524 -1.1375
  785MOL0     H 3579   2.398   1.526   3.510  1.8964 -3.7236 -0.2747
  785MOL0     H 3580   2.430   1.626   3.222 -0.6428 -1.7086 -0.0772
  785MOL0     H 3581   2.376   1.727   3.344 -1.5463 -0.4884  0.3617
  785MOL0     H 3582   2.437   1.455   3.133 -0.5552  1.3389  1.9711
  785MOL0     H 3583   2.387   1.292   2.969  2.0440 -0.1193  0.9041
  785MOL0     H 3584   2.091   0.849   3.072 -0.9270  1.2794  0.7889
  785MOL0     H 3585   2.105   0.632   2.969 -2.5939  0.8635  1.8012
  785MOL0     H 3586   2.039   0.593   2.515  2.2415 -0.1494  2.4872
  785MOL0     H 3587   1.873   0.600   2.579 -1.5293 -2.8416 -0.8348
  785MOL0     H 3588   1.872   0.390   2.483 -0.0352 -0.2931  0.1297
  785MOL0     H 3589   1.883   0.364   2.650  0.9483 -0.0943  0.3166
  785MOL0     H 3590   2.143   0.332   2.644  0.0604  0.0729 -0.0983
  785MOL0     H 3591   2.128   0.366   2.473 -1.0515  0.8359 -0.9175
  785MOL0     H 3592   1.988   0.126   2.601 -0.5221  0.3619 -0.1960
  785MOL0     H 3593   2.014   0.170   2.426  1.6247 -1.7048 -0.5250
  785MOL0     H 3594   2.276   0.191   2.493 -0.0491 -0.0425 -0.7349
  785MOL0     H 3595   2.200   0.036   2.444 -0.3972 -1.0506  1.3433
  785MOL0     H 3596   2.175  -0.027   2.678  1.1318 -2.6157 -1.9877
  785MOL0     H 3597   2.234   0.128   2.722 -1.6588 -0.7229  0.9050
  785MOL0     H 3598   2.391  -0.092   2.574  1.4016 -0.1552 -0.3581
  785MOL0     H 3599   2.473   0.064   2.579  1.2126  0.7608  1.7874
  785MOL0     H 3600   2.532  -0.107   2.746 -2.0964 -4.8888 -0.0473
  785MOL0     H 3601   2.374  -0.099   2.808 -1.4389  0.5904 -2.1653
  785MOL0     H 3602   1.976   0.799   2.600  1.4872  3.4294 -0.1893
  785MOL0     H 3603   1.944   1.012   2.712  2.9359  2.7411  2.8647
  785MOL0     H 3604   2.002   1.224   3.142 -0.2308  0.1053  0.2225
  785MOL0     H 3605   2.018   1.433   3.269  0.7100  0.1969  1.8399
  785MOL0     H 3606   1.959   1.932   4.845  2.9527  0.3717 -2.1442
  785MOL0     H 3607   1.799   1.796   4.986  1.6177  1.6071  2.8517
  785MOL0     H 3608   1.610   1.235   5.020  0.5653 -0.0736 -0.3379
  785MOL0     H 3609   1.450   1.160   5.161 -1.9112  2.3067  0.7565
  785MOL0     H 3610   1.379   1.321   5.599  1.0437 -1.1311  4.4656
  785MOL0     H 3611   1.530   1.232   5.605 -1.7221 -2.6445  4.0308
  785MOL0     H 3612   1.396   1.022   5.528  1.0843 -0.3142  0.7772
  785MOL0     H 3613   1.389   1.066   5.690  3.4197  1.1348 -0.8835
  785MOL0     H 3614   1.161   1.011   5.564 -0.2453  0.0547  0.5084
  785MOL0     H 3615   1.189   1.155   5.468  1.6980 -0.2773  0.2841
  785MOL0     H 3616   1.155   1.296   5.676 -1.0504  0.4200 -0.1437
  785MOL0     H 3617   1.027   1.178   5.637  0.7950  1.2674 -1.1820
  785MOL0     H 3618   1.200   1.106   6.031 -2.4058 -0.5447  0.2692
  785MOL0     H 3619   1.574   1.461   5.464  0.5340 -3.9086  1.4436
  785MOL0     H 3620   1.694   1.565   5.298 -1.4371 -0.6845  2.2244
  786MOL0     O 3621   1.958   7.491   0.985  0.0385 -0.9317 -0.0533
  786MOL0     C 3622   1.842   7.499   0.986  0.0672  0.6680 -1.1042
  786MOL0     O 3623   1.756   7.548   1.082 -0.0227 -0.3219  0.1430
  786MOL0     C 3624   1.792   7.574   1.213  0.1578 -0.2619  0.8881
  786MOL0     C 3625   1.692   7.616   1.309  0.4520  0.8305 -1.1465
  786MOL0     C 3626   1.715   7.647   1.442  0.4423 -0.3415 -1.0449
  786MOL0     C 3627   1.840   7.631   1.491 -0.0886 -0.2942 -0.0185
  786MOL0     O 3628   1.851   7.651   1.626  1.0347  0.3197  0.1725
  786MOL0     C 3629   1.968   7.588   1.688  0.1959 -0.4097  0.2174
  786MOL0     C 3630   1.937   7.601   1.835  0.6322  0.0748 -1.3205
  786MOL0     C 3631   1.921   7.738   1.891  0.0358 -0.1227 -0.2609
  786MOL0     C 3632   1.923   7.739   2.047 -0.1231 -0.4456  0.4992
  786MOL0     C 3633   1.904   7.894   2.078  0.3884 -0.4969  0.3822
  786MOL0     C 3634   1.868   7.911   2.230  0.1064 -0.9717 -0.1325
  786MOL0     C 3635   1.807   8.050   2.269  0.5017  0.7902  0.6226
  786MOL0     C 3636   1.914   8.161   2.236 -1.2341 -0.8336 -0.0594
  786MOL0     N 3637   2.020   8.164   2.351  0.7369  0.4986 -0.6063
  786MOL0     C 3638   2.029   8.264   2.450  0.3689 -0.0106 -0.1455
  786MOL0     C 3639   2.143   8.239   2.521 -0.5983  0.1012 -0.6900
  786MOL0     C 3640   2.213   8.336   2.619 -0.8385 -0.5233  0.1821
  786MOL0     C 3641   2.352   8.389   2.562 -0.2054 -0.5664 -0.1015
  786MOL0     C 3642   2.335   8.464   2.428 -0.1873  0.1462 -0.3971
  786MOL0     C 3643   2.260   8.599   2.454 -0.2222  0.1285  0.6030
  786MOL0     O 3644   2.241   8.666   2.331  0.4240  0.3136 -0.0418
  786MOL0     C 3645   2.168   8.782   2.327  0.0591  0.2726  0.7125
  786MOL0     C 3646   2.150   8.875   2.435  0.3078  1.2047  0.3077
  786MOL0     C 3647   2.080   8.991   2.426  0.9909  0.0172  0.4543
  786MOL0     C 3648   2.013   9.028   2.303 -0.5349  0.2315 -0.8723
  786MOL0     C 3649   1.930   9.147   2.293  0.5884 -0.4542  0.1811
  786MOL0     O 3650   1.927   9.209   2.417  0.4509 -0.2094  0.6596
  786MOL0     C 3651   1.806   9.276   2.457 -0.0334 -0.0809 -0.1648
  786MOL0     C 3652   1.728   9.226   2.566 -0.3096  0.1315  0.1427
  786MOL0     C 3653   1.610   9.291   2.603 -0.0218  1.2739  0.2365
  786MOL0     C 3654   1.571   9.412   2.545  0.1468 -0.3317 -0.6092
  786MOL0     O 3655   1.448   9.464   2.585 -0.1704  0.2028  0.3593
  786MOL0     C 3656   1.419   9.587   2.525 -0.7615  0.0460  0.0759
  786MOL0     C 3657   1.276   9.625   2.544 -0.0798 -0.0286 -0.6342
  786MOL0     C 3658   1.248   9.759   2.465  0.3620  0.5920 -0.2829
  786MOL0     C 3659   1.178   9.754   2.325  1.1169 -0.7284 -0.2307
  786MOL0     C 3660   1.033   9.689   2.331  0.5985  0.4327  0.2395
  786MOL0     C 3661   0.965   9.679   2.192 -0.9229 -0.9436  0.9364
  786MOL0     C 3662   0.815   9.634   2.191 -0.0364 -0.0884  0.2532
  786MOL0     C 3663   0.779   9.521   2.281  0.3566  0.2224  0.2228
  786MOL0    Cl 3664   0.889   9.372   2.238  0.4179 -0.1977 -0.4583
  786MOL0     C 3665   1.654   9.470   2.447  0.5932 -0.2979 -1.1730
  786MOL0     C 3666   1.763   9.400   2.401 -0.7072  0.3551  0.1460
  786MOL0     O 3667   1.853   9.180   2.201  0.2754  0.3090 -0.5180
  786MOL0     C 3668   2.024   8.935   2.194  1.4001 -1.7987  0.3257
  786MOL0     C 3669   2.102   8.819   2.205  0.1210 -0.0378 -0.1568
  786MOL0     N 3670   2.204   8.129   2.466 -0.3806  0.6587  0.2597
  786MOL0     N 3671   2.141   8.089   2.359  0.4051 -0.5516 -0.9968
  786MOL0     C 3672   1.941   7.591   1.407  0.0836 -0.3701 -0.2251
  786MOL0     C 3673   1.921   7.557   1.271  0.3232  0.1530 -0.2712
  786MOL0     C 3674   1.757   7.429   0.882  0.6321  0.3770  0.6030
  786MOL0     C 3675   1.816   7.351   0.783  0.0254  0.5226  0.0869
  786MOL0     C 3676   1.763   7.291   0.678 -0.3932  0.4797 -0.2200
  786MOL0     C 3677   1.626   7.307   0.657 -0.2846 -0.1389 -0.0816
  786MOL0     O 3678   1.592   7.234   0.551  0.2110 -0.2105  0.3772
  786MOL0     C 3679   1.459   7.188   0.550  0.3397 -0.1536 -0.7916
  786MOL0     C 3680   1.419   7.107   0.426 -0.8652  0.1602  0.2225
  786MOL0     C 3681   1.356   7.192   0.318 -1.1094 -0.9026  0.5831
  786MOL0     C 3682   1.347   7.123   0.185  0.0169  0.2051 -0.0662
  786MOL0     C 3683   1.330   7.222   0.076 -0.0732 -0.1165  0.1636
  786MOL0     C 3684   1.350   7.320   0.005 -0.2932  0.4176  0.0263
  786MOL0     C 3685   1.552   7.394   0.747 -0.2841  1.1257 -0.2436
  786MOL0     C 3686   1.617   7.446   0.859 -0.4428 -0.0881  0.1539
  786MOL0     H 3687   1.589   7.609   1.276  0.2886 -1.5900 -0.3243
  786MOL0     H 3688   1.646   7.695   1.511  3.9326  2.1044  1.0604
  786MOL0     H 3689   2.064   7.638   1.670 -0.4460  0.7208 -0.2375
  786MOL0     H 3690   1.976   7.482   1.662  0.7879 -0.0420 -1.1994
  786MOL0     H 3691   2.020   7.555   1.890 -0.7216  0.6349  1.3569
  786MOL0     H 3692   1.846   7.542   1.846  0.9245  0.0531  2.2743
  786MOL0     H 3693   1.825   7.775   1.854  0.0996  0.8501  0.4899
  786MOL0     H 3694   2.005   7.802   1.861  1.5814 -0.7642  2.3433
  786MOL0     H 3695   1.844   7.675   2.088  1.2821 -3.2494 -0.9035
  786MOL0     H 3696   2.018   7.710   2.091  0.0287 -1.1212 -0.2487
  786MOL0     H 3697   1.815   7.939   2.032  0.6672  5.2078  4.3736
  786MOL0     H 3698   1.987   7.958   2.049 -1.5090  3.3572  2.6986
  786MOL0     H 3699   1.951   7.894   2.300 -0.2504  0.4703  0.6941
  786MOL0     H 3700   1.786   7.839   2.229 -0.4175 -0.3990  0.4606
  786MOL0     H 3701   1.722   8.073   2.204  0.7018  1.4818  0.6022
  786MOL0     H 3702   1.784   8.051   2.376  1.1543  2.5349  0.7671
  786MOL0     H 3703   1.872   8.262   2.231  0.1248 -0.2496 -0.4405
  786MOL0     H 3704   1.953   8.149   2.134 -1.0282  2.7224 -0.5361
  786MOL0     H 3705   1.978   8.359   2.465  0.6057  0.4467 -2.0429
  786MOL0     H 3706   2.232   8.276   2.709  1.5905  3.9533  3.0454
  786MOL0     H 3707   2.142   8.416   2.642 -2.3351 -1.8771  0.4456
  786MOL0     H 3708   2.404   8.294   2.544  0.5247 -0.0430 -0.8506
  786MOL0     H 3709   2.405   8.449   2.637  1.1638  0.2001 -1.6379
  786MOL0     H 3710   2.428   8.480   2.373 -0.9440 -0.3124 -1.8683
  786MOL0     H 3711   2.282   8.397   2.360  1.7872  0.6196 -2.5245
  786MOL0     H 3712   2.317   8.664   2.520  2.5843 -3.2168  1.8042
  786MOL0     H 3713   2.160   8.572   2.488 -1.3277 -1.6106 -3.4040
  786MOL0     H 3714   2.196   8.861   2.532 -3.2352 -2.6879  1.6843
  786MOL0     H 3715   2.078   9.057   2.512 -1.3447 -2.1586  2.2095
  786MOL0     H 3716   1.764   9.136   2.614 -0.3127  0.4283  0.7248
  786MOL0     H 3717   1.555   9.239   2.681 -0.5172 -2.5343 -2.4408
  786MOL0     H 3718   1.429   9.581   2.417  1.4682 -0.6054  0.2741
  786MOL0     H 3719   1.482   9.668   2.563 -1.9957  0.2463  1.8314
  786MOL0     H 3720   1.270   9.653   2.649  3.3142  2.0496 -0.8264
  786MOL0     H 3721   1.205   9.543   2.533 -1.5442  1.1830 -0.5816
  786MOL0     H 3722   1.343   9.802   2.432  2.1321 -1.4395  1.7671
  786MOL0     H 3723   1.203   9.828   2.537 -1.2316 -0.3660 -0.3086
  786MOL0     H 3724   1.168   9.851   2.276 -3.5560 -0.9801 -0.2121
  786MOL0     H 3725   1.246   9.699   2.260  1.3774  0.3686 -0.9173
  786MOL0     H 3726   0.975   9.749   2.402 -2.7908 -0.8701 -1.2574
  786MOL0     H 3727   1.047   9.589   2.372 -1.0257 -0.6542 -1.7391
  786MOL0     H 3728   1.027   9.614   2.130  2.1259 -0.3110  3.0747
  786MOL0     H 3729   0.972   9.781   2.153  4.1736 -0.0079  3.3815
  786MOL0     H 3730   0.753   9.717   2.225 -0.1590 -1.1583  2.8858
  786MOL0     H 3731   0.785   9.613   2.088  0.3420  1.7915 -0.2697
  786MOL0     H 3732   0.677   9.490   2.257  1.8509 -2.5855 -3.3918
  786MOL0     H 3733   0.785   9.559   2.384  0.7967  2.7104 -0.6420
  786MOL0     H 3734   1.633   9.564   2.397 -1.1360 -0.3117 -0.5370
  786MOL0     H 3735   1.840   9.441   2.337  0.4046  1.2209  1.9483
  786MOL0     H 3736   1.989   8.964   2.096 -1.2435  4.4612  2.5988
  786MOL0     H 3737   2.120   8.742   2.130  1.9296 -2.7276  2.7637
  786MOL0     H 3738   2.044   7.581   1.441 -0.3502 -1.8496  0.7320
  786MOL0     H 3739   2.009   7.507   1.231 -0.8011 -0.7243 -1.7523
  786MOL0     H 3740   1.923   7.332   0.788  0.0818  1.1762  1.8253
  786MOL0     H 3741   1.817   7.225   0.611 -3.3582 -1.5313 -0.8246
  786MOL0     H 3742   1.389   7.273   0.560 -1.5385 -1.9243  3.7309
  786MOL0     H 3743   1.445   7.116   0.631  1.2581 -1.9191 -2.1418
  786MOL0     H 3744   1.506   7.056   0.382 -1.4134 -0.3215 -0.3131
  786MOL0     H 3745   1.338   7.037   0.447 -1.4420 -0.0314 -2.3046
  786MOL0     H 3746   1.415   7.283   0.303 -2.1762 -0.0038  1.7019
  786MOL0     H 3747   1.260   7.238   0.341 -0.7951 -0.0323  0.2071
  786MOL0     H 3748   1.435   7.060   0.172  0.5368 -0.4264  4.6268
  786MOL0     H 3749   1.262   7.053   0.187  0.0689  0.1495  1.3024
  786MOL0     H 3750   1.366   7.412  -0.047 -0.6398  1.4336  1.6254
  786MOL0     H 3751   1.443   7.399   0.743 -0.3836 -0.2354  0.0139
  786MOL0     H 3752   1.560   7.510   0.925 -0.5821  1.2025 -1.1655
  787MOL0     O 3753   0.226  10.977   1.447 -0.3707 -0.1441  0.0037
  787MOL0     C 3754   0.128  11.050   1.436 -0.4798  0.8863  0.6853
  787MOL0     O 3755   0.127  11.186   1.414  0.2592  0.0220  0.2483
  787MOL0     C 3756   0.230  11.274   1.416  0.0982  0.1436  0.3061
  787MOL0     C 3757   0.188  11.412   1.390  0.1523  0.3619 -0.8589
  787MOL0     C 3758   0.288  11.510   1.385  0.0693 -0.4726  0.0711
  787MOL0     C 3759   0.429  11.480   1.396 -0.6111 -0.3204  0.2826
  787MOL0     O 3760   0.536  11.571   1.382  0.4279  0.3711  0.3374
  787MOL0     C 3761   0.606  11.530   1.266  0.1519 -0.3632  0.0874
  787MOL0     C 3762   0.683  11.652   1.225 -0.1657  0.3699 -0.4852
  787MOL0     C 3763   0.584  11.761   1.170  0.5376 -0.5412 -0.1086
  787MOL0     C 3764   0.635  11.820   1.036  0.1047 -0.0710  0.3949
  787MOL0     C 3765   0.549  11.923   0.953 -0.1116 -0.6294  0.0476
  787MOL0     C 3766   0.415  11.878   0.918 -1.1746  0.1261 -1.2051
  787MOL0     C 3767   0.344  11.971   0.818  0.3615  0.5812  0.3408
  787MOL0     C 3768   0.197  11.925   0.781  0.3792 -0.2180 -0.0391
  787MOL0     N 3769   0.182  11.778   0.776  0.0120  0.7375  0.0283
  787MOL0     C 3770   0.112  11.700   0.872  0.4034 -0.3764  0.3105
  787MOL0     C 3771   0.132  11.580   0.812 -0.1575 -0.7163 -0.1971
  787MOL0     C 3772   0.070  11.449   0.866 -0.3042  0.7096 -0.0071
  787MOL0     C 3773   0.146  11.386   0.992  0.0780 -0.6669  0.5726
  787MOL0     C 3774   0.282  11.317   0.956 -0.0152  0.7598  0.6020
  787MOL0     C 3775   0.334  11.219   1.077 -0.3212 -0.2705 -0.8165
  787MOL0     O 3776   0.454  11.137   1.046 -0.5380 -0.4270 -0.1114
  787MOL0     C 3777   0.428  11.005   1.003  0.3078 -0.0732 -0.7931
  787MOL0     C 3778   0.469  10.958   0.886 -0.9992  0.5021 -0.0894
  787MOL0     C 3779   0.448  10.824   0.849  0.1989  0.8312 -0.0012
  787MOL0     C 3780   0.376  10.737   0.930  0.8136 -0.5116 -0.7571
  787MOL0     C 3781   0.344  10.605   0.887  0.2159  1.0653 -0.5594
  787MOL0     O 3782   0.403  10.557   0.774 -0.8097 -0.1692  0.0751
  787MOL0     C 3783   0.363  10.437   0.722  0.0743  0.2429 -0.5268
  787MOL0     C 3784   0.269  10.428   0.617 -0.5774 -0.2370  0.5587
  787MOL0     C 3785   0.217  10.313   0.571 -0.7450  0.2475 -0.0150
  787MOL0     C 3786   0.272  10.187   0.620  0.3191  0.2080  0.2075
  787MOL0     O 3787   0.230  10.065   0.578  0.6842  0.8603  0.0486
  787MOL0     C 3788   0.139  10.064   0.461 -0.3402  0.7316  0.0988
  787MOL0     C 3789   0.105   9.917   0.414  0.1091 -0.0272  0.3926
  787MOL0     C 3790   0.232   9.849   0.360  0.5082  0.4938 -0.1687
  787MOL0     C 3791   0.241   9.700   0.340 -0.7266 -0.0244  0.6396
  787MOL0     C 3792   0.133   9.662   0.246  0.0905  1.5695  0.8758
  787MOL0     C 3793   0.112   9.511   0.221 -0.1436  0.0512 -0.1487
  787MOL0     C 3794  -0.018   9.488   0.153  0.7931  0.3537 -1.2818
  787MOL0     C 3795  -0.038   9.343   0.105 -0.0285  0.9545 -0.5741
  787MOL0    Cl 3796  -0.148   9.266   0.222 -0.3348  0.0727 -0.8095
  787MOL0     C 3797   0.358  10.194   0.733 -0.4699 -0.0836 -0.0563
  787MOL0     C 3798   0.411  10.315   0.777  0.4355  0.0257 -1.5115
  787MOL0     O 3799   0.254  10.547   0.950  0.8117  0.4697  0.1668
  787MOL0     C 3800   0.331  10.779   1.054 -0.3673 -0.7629  1.5327
  787MOL0     C 3801   0.355  10.922   1.085  0.0319 -0.2038  1.0341
  787MOL0     N 3802   0.200  11.586   0.687  1.1895  0.5318 -1.4486
  787MOL0     N 3803   0.230  11.711   0.667 -1.0393 -0.3739 -0.5584
  787MOL0     C 3804   0.465  11.343   1.426  0.3750 -0.1733  1.0301
  787MOL0     C 3805   0.363  11.248   1.434 -0.5245 -0.2315 -0.2940
  787MOL0     C 3806   0.003  10.973   1.463 -0.7486  0.9714 -0.6359
  787MOL0     C 3807  -0.109  11.060   1.459 -0.6837  0.7534 -0.1125
  787MOL0     C 3808  -0.239  11.011   1.471  0.5813 -0.0759 -0.4572
  787MOL0     C 3809  -0.266  10.872   1.473 -0.5700 -0.4694 -0.3386
  787MOL0     O 3810  -0.397  10.847   1.501  0.0490 -0.6795  0.4963
  787MOL0     C 3811  -0.427  10.705   1.509 -1.2598  0.0244  0.1091
  787MOL0     C 3812  -0.564  10.693   1.561 -0.3246  0.3940 -0.0642
  787MOL0     C 3813  -0.683  10.744   1.474 -0.1470  1.5940 -0.1054
  787MOL0     C 3814  -0.686  10.664   1.342 -0.1113  0.4917  0.3936
  787MOL0     C 3815  -0.638  10.745   1.231 -0.5059  0.5730 -0.2717
  787MOL0     C 3816  -0.612  10.822   1.144  0.0029  0.6873  1.2817
  787MOL0     C 3817  -0.154  10.782   1.458 -0.1162  0.5849 -0.4376
  787MOL0     C 3818  -0.020  10.837   1.456 -0.9466  0.6910 -0.6547
  787MOL0     H 3819   0.081  11.425   1.381 -0.4116 -0.5574  2.7120
  787MOL0     H 3820   0.269  11.612   1.352  2.3414 -0.9228 -3.0693
  787MOL0     H 3821   0.533  11.505   1.188  0.2503  1.4644 -0.6162
  787MOL0     H 3822   0.673  11.444   1.280  1.2069 -0.1652 -2.9845
  787MOL0     H 3823   0.755  11.628   1.146  0.1618  4.1043 -1.5531
  787MOL0     H 3824   0.736  11.687   1.314  1.1032 -2.6436  0.0593
  787MOL0     H 3825   0.566  11.841   1.242  0.9235 -1.1414  0.6656
  787MOL0     H 3826   0.485  11.723   1.142 -0.6228  2.9527 -1.3372
  787MOL0     H 3827   0.736  11.858   1.056 -0.2752  1.3610 -0.3070
  787MOL0     H 3828   0.658  11.739   0.966  1.9826  0.3712  0.4440
  787MOL0     H 3829   0.613  11.956   0.871  0.1134  0.2612  0.5614
  787MOL0     H 3830   0.528  12.003   1.025 -1.1704  1.1613 -2.1039
  787MOL0     H 3831   0.349  11.868   1.004  0.5890  0.2546  0.2194
  787MOL0     H 3832   0.430  11.777   0.879 -0.3030 -1.4670  2.7649
  787MOL0     H 3833   0.331  12.072   0.857  0.3422  0.6315  0.2011
  787MOL0     H 3834   0.386  11.945   0.720 -1.8148 -5.0435  0.5427
  787MOL0     H 3835   0.147  11.961   0.690 -0.1815 -2.0367 -0.4953
  787MOL0     H 3836   0.143  11.967   0.865  2.8990 -0.8025  1.9965
  787MOL0     H 3837   0.055  11.744   0.953  0.0768 -0.0749 -0.0792
  787MOL0     H 3838   0.055  11.378   0.784 -3.1798 -1.6773  2.3678
  787MOL0     H 3839  -0.032  11.471   0.897 -1.0572  0.6187 -2.2798
  787MOL0     H 3840   0.082  11.311   1.040 -1.2822  0.2620  0.2396
  787MOL0     H 3841   0.169  11.458   1.071  1.0998 -0.9555  0.5647
  787MOL0     H 3842   0.274  11.266   0.860  1.9632  1.1447  0.1889
  787MOL0     H 3843   0.361  11.393   0.947  0.2171  1.1394  4.3215
  787MOL0     H 3844   0.253  11.146   1.089  0.7519 -1.5374 -1.0580
  787MOL0     H 3845   0.348  11.285   1.163  0.1236  1.7978 -2.3993
  787MOL0     H 3846   0.524  11.017   0.813 -1.7645  0.0836 -1.0186
  787MOL0     H 3847   0.481  10.794   0.750 -0.5272  0.5412 -0.1590
  787MOL0     H 3848   0.232  10.522   0.577 -1.8541 -0.3714  1.3744
  787MOL0     H 3849   0.143  10.339   0.496 -2.8205  1.6712  2.3445
  787MOL0     H 3850   0.183  10.126   0.383  0.0170  2.0704  1.3155
  787MOL0     H 3851   0.044  10.107   0.497  0.4753  0.8844  2.2276
  787MOL0     H 3852   0.030   9.928   0.336  1.8116  2.3467 -1.0236
  787MOL0     H 3853   0.063   9.852   0.492 -0.3878 -0.6978 -0.4145
  787MOL0     H 3854   0.312   9.880   0.428  0.0992  1.3898 -0.0860
  787MOL0     H 3855   0.249   9.894   0.262  0.4764 -0.1975 -0.5019
  787MOL0     H 3856   0.336   9.682   0.288 -0.8026  2.4240 -0.5118
  787MOL0     H 3857   0.227   9.638   0.429  3.2399 -0.0658  1.4398
  787MOL0     H 3858   0.140   9.717   0.152  1.4825  2.3762  1.4223
  787MOL0     H 3859   0.037   9.697   0.287 -2.1278  3.9019 -5.2389
  787MOL0     H 3860   0.104   9.461   0.319 -0.9237  1.3756  0.4927
  787MOL0     H 3861   0.193   9.470   0.161 -0.3666 -1.0532  0.2792
  787MOL0     H 3862  -0.101   9.518   0.218  2.6216  0.5910  1.0526
  787MOL0     H 3863  -0.036   9.559   0.072 -0.1829  1.2875 -0.2835
  787MOL0     H 3864   0.058   9.290   0.101  0.3651  1.1407  2.9042
  787MOL0     H 3865  -0.094   9.334   0.012  2.0230 -1.4593 -1.6931
  787MOL0     H 3866   0.399  10.102   0.774  1.6619 -1.4928 -4.6292
  787MOL0     H 3867   0.488  10.309   0.854 -0.3900  3.5926 -0.2199
  787MOL0     H 3868   0.278  10.710   1.118  1.3599 -1.8817  1.8260
  787MOL0     H 3869   0.306  10.951   1.177 -1.4472 -0.8719  0.4948
  787MOL0     H 3870   0.565  11.306   1.451  1.3180  1.0207 -0.7687
  787MOL0     H 3871   0.392  11.146   1.456 -3.1433 -0.5713  2.2301
  787MOL0     H 3872  -0.107  11.168   1.463 -1.3885  0.7350  1.0084
  787MOL0     H 3873  -0.322  11.079   1.486 -0.0390 -1.1165  1.0588
  787MOL0     H 3874  -0.354  10.636   1.553 -0.2283  1.3013  0.4696
  787MOL0     H 3875  -0.418  10.671   1.406  2.3518  0.2879  0.2121
  787MOL0     H 3876  -0.585  10.589   1.588  0.9284  0.8842  3.2699
  787MOL0     H 3877  -0.564  10.741   1.659  1.7300  0.8659 -0.2418
  787MOL0     H 3878  -0.675  10.849   1.445  2.0842  1.0565 -1.6805
  787MOL0     H 3879  -0.772  10.731   1.536  0.7615 -0.6429  0.8330
  787MOL0     H 3880  -0.627  10.572   1.344  2.0949  1.8032 -0.2726
  787MOL0     H 3881  -0.788  10.635   1.316 -0.2327  1.2523 -0.0143
  787MOL0     H 3882  -0.596  10.880   1.055 -0.7523 -1.3786 -0.2951
  787MOL0     H 3883  -0.165  10.675   1.442 -0.3237  0.7033 -1.1289
  787MOL0     H 3884   0.057  10.763   1.435  0.4182  1.9337 -0.2132
  788MOL0     O 3885   7.444   8.667   8.576  0.6679  0.3752  0.2364
  788MOL0     C 3886   7.523   8.694   8.666 -0.8843 -1.0679  0.8303
  788MOL0     O 3887   7.503   8.778   8.783  0.2918 -0.2851 -0.6420
  788MOL0     C 3888   7.367   8.810   8.808 -0.1798 -0.1237 -0.8160
  788MOL0     C 3889   7.321   8.781   8.933  0.6160  0.0767 -0.8702
  788MOL0     C 3890   7.192   8.820   8.978  1.2751  0.0149 -0.0408
  788MOL0     C 3891   7.112   8.895   8.887  1.0540 -0.1371  0.1472
  788MOL0     O 3892   6.993   8.945   8.927  0.2595 -0.0557 -0.6488
  788MOL0     C 3893   6.896   8.838   8.948  0.1714  0.3449  0.5867
  788MOL0     C 3894   6.860   8.813   9.090 -0.4917 -0.6543 -0.1312
  788MOL0     C 3895   6.821   8.943   9.155 -0.3018  0.3245 -0.1833
  788MOL0     C 3896   6.737   8.926   9.284 -0.4850  0.0805 -0.7029
  788MOL0     C 3897   6.736   9.056   9.369  0.4687 -0.3527 -0.1408
  788MOL0     C 3898   6.673   9.044   9.512  0.2687 -0.5339  0.1437
  788MOL0     C 3899   6.621   9.186   9.559 -0.0827  0.6112 -0.3260
  788MOL0     C 3900   6.722   9.296   9.580 -0.3834 -0.5793  0.2377
  788MOL0     N 3901   6.664   9.396   9.676  0.3391  1.0181  0.1919
  788MOL0     C 3902   6.552   9.481   9.646 -1.1104  0.2695 -0.6026
  788MOL0     C 3903   6.547   9.565   9.756 -0.1751  0.0689 -0.5931
  788MOL0     C 3904   6.447   9.674   9.783  0.9934  0.4108 -0.7149
  788MOL0     C 3905   6.323   9.692   9.687  0.2739  1.2087  1.1936
  788MOL0     C 3906   6.238   9.565   9.691 -0.1222  0.5474  1.0004
  788MOL0     C 3907   6.102   9.605   9.630  0.3267  0.0547  0.9094
  788MOL0     O 3908   6.137   9.623   9.486 -0.7701 -0.2675 -0.2096
  788MOL0     C 3909   6.092   9.535   9.388 -0.6803  0.4620  0.2055
  788MOL0     C 3910   6.050   9.585   9.270  0.4765 -0.7246 -0.9152
  788MOL0     C 3911   5.995   9.492   9.179 -0.1988 -0.2987 -0.5925
  788MOL0     C 3912   5.983   9.351   9.201 -0.2613  0.0932  0.3122
  788MOL0     C 3913   5.917   9.267   9.107 -0.3712  0.6365  0.5863
  788MOL0     O 3914   5.895   9.312   8.983  0.0479 -0.2187 -0.3830
  788MOL0     C 3915   5.808   9.246   8.903  0.5158  0.5156  1.1079
  788MOL0     C 3916   5.672   9.268   8.887 -0.0629 -0.3914 -0.3888
  788MOL0     C 3917   5.587   9.191   8.820  0.4475 -0.0010  0.0005
  788MOL0     C 3918   5.644   9.091   8.737  1.2801 -1.2635 -0.3127
  788MOL0     O 3919   5.560   8.997   8.672 -0.3899  0.5077 -0.5153
  788MOL0     C 3920   5.620   8.896   8.594 -0.7084 -0.2701  0.8372
  788MOL0     C 3921   5.522   8.820   8.505 -1.0773 -0.9796 -0.1189
  788MOL0     C 3922   5.422   8.907   8.427 -0.4590  1.1271 -0.0487
  788MOL0     C 3923   5.482   8.991   8.318  0.6325 -0.2243  0.3492
  788MOL0     C 3924   5.387   9.112   8.269 -0.9923  0.3039  0.2998
  788MOL0     C 3925   5.339   9.221   8.377 -0.0873 -0.1118 -0.1083
  788MOL0     C 3926   5.297   9.351   8.311 -0.1289 -1.3022  0.0526
  788MOL0     C 3927   5.239   9.432   8.431 -0.1331 -0.6427  0.5733
  788MOL0    Cl 3928   5.071   9.406   8.463  0.5072 -0.2712  0.2002
  788MOL0     C 3929   5.783   9.078   8.729  0.6071  0.2384  0.6602
  788MOL0     C 3930   5.873   9.158   8.817  0.5309  0.5560  0.6754
  788MOL0     O 3931   5.896   9.153   9.135 -0.4048 -0.0038  0.2733
  788MOL0     C 3932   6.034   9.302   9.326  0.5408  0.8137 -0.4110
  788MOL0     C 3933   6.090   9.394   9.417 -0.1212 -1.0603  0.0339
  788MOL0     N 3934   6.643   9.530   9.846  0.2271 -0.3842 -0.6644
  788MOL0     N 3935   6.710   9.419   9.805  0.4008  0.2057 -0.3117
  788MOL0     C 3936   7.158   8.918   8.765  0.5202 -0.1714  1.2785
  788MOL0     C 3937   7.277   8.873   8.719  0.1664  0.1335 -1.0630
  788MOL0     C 3938   7.643   8.621   8.655 -0.6126  0.5220 -0.0566
  788MOL0     C 3939   7.744   8.617   8.758 -0.8536  0.4393 -0.1960
  788MOL0     C 3940   7.862   8.533   8.760  0.3232 -0.6149 -0.1195
  788MOL0     C 3941   7.888   8.458   8.649 -0.6165 -0.4341  0.0224
  788MOL0     O 3942   7.995   8.372   8.634  0.8628 -0.1194  0.0826
  788MOL0     C 3943   8.100   8.379   8.732  0.2077 -0.2605  0.6459
  788MOL0     C 3944   8.209   8.273   8.706  0.0307 -0.1510  1.2331
  788MOL0     C 3945   8.250   8.266   8.553  0.0605 -0.1978  1.4843
  788MOL0     C 3946   8.338   8.150   8.534 -0.8948 -0.5754  0.9978
  788MOL0     C 3947   8.452   8.142   8.624  0.0452 -0.1239 -0.3265
  788MOL0     C 3948   8.534   8.144   8.712 -0.0947  0.0752  0.7090
  788MOL0     C 3949   7.801   8.466   8.547  0.3578 -0.4358  0.3252
  788MOL0     C 3950   7.682   8.549   8.544 -0.4182  0.0595  0.8122
  788MOL0     H 3951   7.369   8.718   9.007 -1.7681  1.3842  1.9895
  788MOL0     H 3952   7.147   8.799   9.075 -1.1721  1.8325 -0.6583
  788MOL0     H 3953   6.939   8.746   8.908 -0.4866  0.4452 -0.4033
  788MOL0     H 3954   6.805   8.863   8.892 -1.7779 -1.3299  2.8378
  788MOL0     H 3955   6.932   8.754   9.147  0.3074  0.7831  0.4058
  788MOL0     H 3956   6.776   8.743   9.097 -1.0610  0.1720  3.1938
  788MOL0     H 3957   6.755   8.991   9.083 -0.1640 -3.1533 -2.8751
  788MOL0     H 3958   6.901   9.013   9.184 -0.1155  0.8658 -1.8776
  788MOL0     H 3959   6.639   8.882   9.264  0.3006 -1.6519 -0.8703
  788MOL0     H 3960   6.795   8.848   9.334  0.2433  1.6453  0.9882
  788MOL0     H 3961   6.679   9.129   9.311 -0.4994 -1.5742 -0.7685
  788MOL0     H 3962   6.839   9.087   9.390 -0.6689  4.0265  0.0366
  788MOL0     H 3963   6.747   9.004   9.583 -1.1101 -1.6106  1.0199
  788MOL0     H 3964   6.591   8.973   9.504  1.0665 -1.7260  1.8039
  788MOL0     H 3965   6.525   9.213   9.512 -0.5908 -1.1239 -0.3539
  788MOL0     H 3966   6.584   9.164   9.659 -1.2628  1.6151 -0.5131
  788MOL0     H 3967   6.760   9.339   9.487  0.2443 -0.9776  0.3073
  788MOL0     H 3968   6.807   9.254   9.634  0.3667 -1.8598 -1.8155
  788MOL0     H 3969   6.505   9.478   9.548  0.7362  0.8352 -1.5465
  788MOL0     H 3970   6.495   9.773   9.780 -0.1994  1.0363  0.0145
  788MOL0     H 3971   6.416   9.660   9.888  0.2672  0.6222 -0.8953
  788MOL0     H 3972   6.347   9.693   9.580  0.3692 -2.9683  1.0167
  788MOL0     H 3973   6.254   9.770   9.723 -3.7627 -1.5700  0.1622
  788MOL0     H 3974   6.289   9.480   9.645 -0.1012 -0.4233  2.7569
  788MOL0     H 3975   6.222   9.539   9.796  2.9127  3.7783  2.5029
  788MOL0     H 3976   6.063   9.689   9.690  0.7628 -0.1114  1.4290
  788MOL0     H 3977   6.036   9.520   9.647  0.7421  0.1198  3.2486
  788MOL0     H 3978   6.059   9.690   9.245  2.2065 -0.9494 -1.3975
  788MOL0     H 3979   5.963   9.544   9.090  1.0409 -0.5334 -1.2017
  788MOL0     H 3980   5.638   9.337   8.964 -2.2367 -2.6645  0.8621
  788MOL0     H 3981   5.481   9.215   8.821  0.5943  0.7026 -0.2846
  788MOL0     H 3982   5.668   8.814   8.647 -0.6449 -1.6478 -1.2453
  788MOL0     H 3983   5.694   8.944   8.529 -2.6427 -1.6234 -2.6608
  788MOL0     H 3984   5.471   8.746   8.567 -3.6121  2.2717  1.9891
  788MOL0     H 3985   5.591   8.770   8.437  1.1598 -1.7406  2.5360
  788MOL0     H 3986   5.360   8.959   8.501  0.5523  0.4528  1.3258
  788MOL0     H 3987   5.360   8.829   8.381 -0.2293  2.2057 -2.2760
  788MOL0     H 3988   5.569   9.047   8.354 -0.4673  1.3783  0.5969
  788MOL0     H 3989   5.510   8.919   8.240  1.5260  0.2793  0.1854
  788MOL0     H 3990   5.294   9.070   8.228 -0.2165 -0.5227 -0.6653
  788MOL0     H 3991   5.443   9.159   8.187  2.0627 -2.4526  0.6091
  788MOL0     H 3992   5.425   9.236   8.443 -0.6014  1.5606  0.2155
  788MOL0     H 3993   5.257   9.177   8.435 -0.5159 -0.9135 -1.2862
  788MOL0     H 3994   5.377   9.399   8.255  0.9265 -2.0326  0.9016
  788MOL0     H 3995   5.220   9.351   8.233  0.0069  2.4962 -0.2384
  788MOL0     H 3996   5.246   9.541   8.427  0.3106 -0.7075 -2.3704
  788MOL0     H 3997   5.296   9.395   8.517  0.0265 -1.4608  0.1230
  788MOL0     H 3998   5.828   8.984   8.699 -2.2758 -1.9996  2.7887
  788MOL0     H 3999   5.977   9.135   8.835  0.5864  0.5186  0.3083
  788MOL0     H 4000   6.031   9.197   9.353 -2.5034  0.4530 -1.7207
  788MOL0     H 4001   6.136   9.364   9.510 -0.3850  2.3867  1.4224
  788MOL0     H 4002   7.104   8.984   8.697  4.3929  0.0424 -2.0141
  788MOL0     H 4003   7.314   8.908   8.623  2.6975 -1.0857 -0.6212
  788MOL0     H 4004   7.732   8.680   8.846 -1.0519 -1.3019  1.0721
  788MOL0     H 4005   7.931   8.539   8.844  0.2767  1.6890 -0.1795
  788MOL0     H 4006   8.075   8.356   8.836 -0.0641  0.6308  0.7827
  788MOL0     H 4007   8.138   8.481   8.729  0.9518 -0.5533 -1.4744
  788MOL0     H 4008   8.293   8.296   8.774 -1.6869 -0.6841  3.6717
  788MOL0     H 4009   8.166   8.178   8.737 -4.9831  0.7992 -1.6943
  788MOL0     H 4010   8.315   8.351   8.531 -0.6241  0.1623  0.8107
  788MOL0     H 4011   8.165   8.267   8.484  1.8316  2.0640 -0.8755
  788MOL0     H 4012   8.280   8.058   8.520 -2.1788  0.5823 -2.0116
  788MOL0     H 4013   8.393   8.166   8.441 -0.8752 -5.0473  0.0020
  788MOL0     H 4014   8.603   8.149   8.794  2.5006 -2.6443 -1.0894
  788MOL0     H 4015   7.824   8.411   8.456  1.1163  1.3028 -0.5682
  788MOL0     H 4016   7.629   8.551   8.449  2.2641  1.9026 -0.8089
  789MOL0     O 4017   7.722  10.159   6.423  0.6725 -0.1651 -0.8112
  789MOL0     C 4018   7.723  10.057   6.495  0.0176  0.6268 -0.2014
  789MOL0     O 4019   7.742   9.938   6.454  0.3783  0.2304  0.1545
  789MOL0     C 4020   7.757   9.922   6.316  0.1582  1.1168 -0.2841
  789MOL0     C 4021   7.864   9.847   6.268  0.3410 -0.2456  1.5294
  789MOL0     C 4022   7.869   9.833   6.131 -0.2887 -0.0932  0.2743
  789MOL0     C 4023   7.770   9.870   6.044 -0.7116 -0.8998 -1.2371
  789MOL0     O 4024   7.788   9.855   5.909  0.3478  0.1206 -0.1850
  789MOL0     C 4025   7.672   9.807   5.843  0.4309 -0.7404 -0.0674
  789MOL0     C 4026   7.667   9.655   5.850 -1.3330 -0.5126 -0.2136
  789MOL0     C 4027   7.781   9.592   5.764 -0.0167  0.1918 -0.2715
  789MOL0     C 4028   7.823   9.448   5.797 -0.5509  0.7399 -0.7644
  789MOL0     C 4029   7.946   9.427   5.882  0.2005 -0.5885  0.4991
  789MOL0     C 4030   7.939   9.464   6.027  0.0444  0.0361 -0.3406
  789MOL0     C 4031   8.078   9.443   6.100  0.4392 -0.1644  0.6027
  789MOL0     C 4032   8.061   9.484   6.252 -0.5247  0.0652 -0.8934
  789MOL0     N 4033   7.997   9.376   6.328  0.4517  0.0321 -1.3396
  789MOL0     C 4034   8.038   9.241   6.335 -0.8804 -0.8811 -0.5585
  789MOL0     C 4035   7.936   9.177   6.395  0.5059  0.2567  0.2340
  789MOL0     C 4036   7.941   9.031   6.439  1.0898 -0.8157 -0.2576
  789MOL0     C 4037   7.885   8.915   6.357  0.0420 -0.0987  0.4199
  789MOL0     C 4038   7.906   8.793   6.439 -0.1819  0.4715 -0.3962
  789MOL0     C 4039   7.913   8.657   6.365 -0.1838 -0.2345 -0.5755
  789MOL0     O 4040   7.796   8.645   6.281  0.0434  0.0932  0.8843
  789MOL0     C 4041   7.672   8.650   6.335 -0.0470  0.5501  0.1117
  789MOL0     C 4042   7.637   8.615   6.466  0.2478  0.1493  0.2137
  789MOL0     C 4043   7.505   8.622   6.511  0.1380 -0.6455 -0.4671
  789MOL0     C 4044   7.409   8.655   6.416  0.6169  0.7493  0.2756
  789MOL0     C 4045   7.265   8.645   6.448  0.0734  0.4457 -0.7669
  789MOL0     O 4046   7.241   8.666   6.584  0.3749 -0.0086  0.1513
  789MOL0     C 4047   7.117   8.656   6.643  0.3186 -0.5290  0.4950
  789MOL0     C 4048   6.992   8.669   6.576 -0.7532 -0.9659  0.4265
  789MOL0     C 4049   6.878   8.670   6.650 -0.8612 -0.5143 -0.5901
  789MOL0     C 4050   6.884   8.663   6.793  0.6511 -0.3677 -0.5106
  789MOL0     O 4051   6.778   8.671   6.880 -0.2748  0.9386  0.1953
  789MOL0     C 4052   6.645   8.663   6.820  0.0623  0.2284 -0.1762
  789MOL0     C 4053   6.549   8.681   6.935  0.1510 -0.3192  0.4990
  789MOL0     C 4054   6.415   8.742   6.894 -0.5507  0.2612 -0.6124
  789MOL0     C 4055   6.322   8.754   7.018 -0.4326  0.4908 -0.0172
  789MOL0     C 4056   6.354   8.853   7.132 -0.2483 -1.1622  0.9805
  789MOL0     C 4057   6.393   8.995   7.080 -0.5779  0.5101 -0.2451
  789MOL0     C 4058   6.444   9.077   7.202  0.3109 -0.2614  0.6278
  789MOL0     C 4059   6.401   9.226   7.191 -0.3277  0.4121  0.1317
  789MOL0    Cl 4060   6.244   9.247   7.261  0.0430 -0.4614 -0.1919
  789MOL0     C 4061   7.009   8.637   6.850 -0.3387 -0.8621 -0.2855
  789MOL0     C 4062   7.121   8.636   6.779  0.2853 -0.4775  0.2622
  789MOL0     O 4063   7.187   8.605   6.363 -0.0193 -0.4228 -0.2691
  789MOL0     C 4064   7.442   8.679   6.284 -0.4790  0.6032  1.1003
  789MOL0     C 4065   7.571   8.676   6.241  0.2156 -1.4341 -0.0918
  789MOL0     N 4066   7.841   9.271   6.421  0.7704 -0.4984  0.2294
  789MOL0     N 4067   7.877   9.391   6.385  0.9218 -1.0108  0.2482
  789MOL0     C 4068   7.663   9.949   6.096  0.0428 -0.3497 -0.5483
  789MOL0     C 4069   7.659   9.980   6.230  1.0768  0.4390  1.2098
  789MOL0     C 4070   7.691  10.064   6.644 -0.7565 -0.1336  0.1195
  789MOL0     C 4071   7.658  10.188   6.700  0.7529 -0.7228 -0.2713
  789MOL0     C 4072   7.640  10.189   6.840  0.2910  0.6506  0.1478
  789MOL0     C 4073   7.650  10.068   6.923 -0.4739 -0.1244  0.5563
  789MOL0     O 4074   7.631  10.082   7.056 -0.2508 -0.3707 -0.8138
  789MOL0     C 4075   7.539   9.980   7.111  0.6891 -0.9942  0.1756
  789MOL0     C 4076   7.575   9.925   7.250 -0.1443  0.2963 -1.2430
  789MOL0     C 4077   7.512  10.012   7.362 -0.3077 -0.0784 -0.6361
  789MOL0     C 4078   7.483   9.920   7.490  0.1008  1.0868  0.5730
  789MOL0     C 4079   7.375   9.830   7.456 -0.3066  0.8078 -0.4946
  789MOL0     C 4080   7.281   9.766   7.412  0.0127 -0.1198  0.5230
  789MOL0     C 4081   7.692   9.945   6.857 -0.3429 -0.1977  0.6265
  789MOL0     C 4082   7.710   9.949   6.718 -0.4741 -0.1453 -0.9515
  789MOL0     H 4083   7.944   9.809   6.331  3.5607 -0.1393 -2.1561
  789MOL0     H 4084   7.959   9.781   6.099 -0.7018  0.1209 -1.2987
  789MOL0     H 4085   7.689   9.836   5.739 -2.6749 -0.1269 -0.5129
  789MOL0     H 4086   7.578   9.846   5.883 -0.5454 -2.7180 -0.3427
  789MOL0     H 4087   7.576   9.611   5.807 -2.4931  1.3510  0.2193
  789MOL0     H 4088   7.668   9.617   5.952  2.5034  2.2713  1.0204
  789MOL0     H 4089   7.877   9.645   5.767  0.0272  0.1002 -0.0571
  789MOL0     H 4090   7.756   9.589   5.657  1.1888  1.1862 -0.5991
  789MOL0     H 4091   7.736   9.408   5.851  1.3234 -2.4982  0.1802
  789MOL0     H 4092   7.841   9.388   5.707 -1.6080 -1.5820  0.4538
  789MOL0     H 4093   8.031   9.487   5.849  1.1115 -0.9285  2.1160
  789MOL0     H 4094   7.979   9.323   5.882 -1.0947 -1.0386  1.9324
  789MOL0     H 4095   7.879   9.397   6.089 -3.7983  4.6510  1.4894
  789MOL0     H 4096   7.904   9.567   6.029  0.0025  0.1321 -3.0401
  789MOL0     H 4097   8.106   9.337   6.094 -1.3222 -0.7876  2.3848
  789MOL0     H 4098   8.156   9.508   6.060  0.2357 -0.8887 -1.0153
  789MOL0     H 4099   7.990   9.567   6.253  2.0792  2.4980 -2.4721
  789MOL0     H 4100   8.155   9.517   6.298 -0.5352 -2.0065  0.8035
  789MOL0     H 4101   8.132   9.200   6.299  0.2149 -1.7672  2.9508
  789MOL0     H 4102   7.883   9.029   6.531 -1.3194  0.4185 -1.6454
  789MOL0     H 4103   8.047   9.019   6.466  1.0233  2.2675  1.8569
  789MOL0     H 4104   7.942   8.895   6.266  0.0259 -4.3159  1.1219
  789MOL0     H 4105   7.778   8.925   6.337 -0.0017 -3.1147 -1.5425
  789MOL0     H 4106   8.003   8.798   6.489 -0.1372 -2.7054  0.0484
  789MOL0     H 4107   7.837   8.782   6.524  2.2537 -0.3466  1.5810
  789MOL0     H 4108   7.911   8.574   6.437 -3.5524 -1.1275 -1.5061
  789MOL0     H 4109   8.007   8.646   6.311  1.0900  3.6164  0.5441
  789MOL0     H 4110   7.713   8.586   6.538 -0.2356 -6.1726 -1.2286
  789MOL0     H 4111   7.485   8.607   6.616  1.8523 -1.5041 -0.2290
  789MOL0     H 4112   6.991   8.674   6.467  0.9127  2.5148  0.4229
  789MOL0     H 4113   6.780   8.684   6.606 -0.5564 -2.1661 -1.8627
  789MOL0     H 4114   6.623   8.569   6.769 -2.4268  0.9726 -0.6257
  789MOL0     H 4115   6.637   8.750   6.754 -2.2888  3.0395  3.4629
  789MOL0     H 4116   6.600   8.753   7.000  1.4489  0.7753 -1.6173
  789MOL0     H 4117   6.542   8.592   6.998  0.1541 -1.3448 -0.8945
  789MOL0     H 4118   6.374   8.675   6.818  0.9791  0.8662 -2.0441
  789MOL0     H 4119   6.431   8.836   6.840  2.0305 -0.7522 -1.8051
  789MOL0     H 4120   6.232   8.774   6.960 -0.5490  0.0513  0.0052
  789MOL0     H 4121   6.304   8.663   7.078  1.5487  1.2250  1.8188
  789MOL0     H 4122   6.444   8.815   7.181  1.6978 -2.2450 -2.9910
  789MOL0     H 4123   6.277   8.842   7.209 -3.5721 -1.3685 -2.0949
  789MOL0     H 4124   6.304   9.036   7.033 -1.4884  0.0363  1.0253
  789MOL0     H 4125   6.478   8.989   7.010  1.9955 -0.4729  2.7266
  789MOL0     H 4126   6.422   9.034   7.300  0.1240 -1.8289 -0.0612
  789MOL0     H 4127   6.552   9.089   7.213 -0.0046  1.0835  2.7596
  789MOL0     H 4128   6.403   9.275   7.093  0.9911 -2.8750 -1.6369
  789MOL0     H 4129   6.484   9.281   7.236  0.1018 -1.8923  2.3829
  789MOL0     H 4130   7.021   8.630   6.958  2.9823  0.8867 -0.4062
  789MOL0     H 4131   7.222   8.625   6.816  0.5874  1.9505  0.3150
  789MOL0     H 4132   7.362   8.712   6.219 -1.8646  0.1688  2.5131
  789MOL0     H 4133   7.604   8.693   6.139 -0.9540 -0.5227 -0.3287
  789MOL0     H 4134   7.590   9.983   6.024  2.4950  1.2371 -2.4469
  789MOL0     H 4135   7.580  10.047   6.260  1.4191  0.1588  2.8364
  789MOL0     H 4136   7.645  10.277   6.638 -0.8899 -0.0026  1.0314
  789MOL0     H 4137   7.600  10.274   6.893 -1.7196 -2.2977  3.8334
  789MOL0     H 4138   7.521   9.905   7.034  2.1295 -0.2096 -0.9857
  789MOL0     H 4139   7.440  10.025   7.122  1.3109  0.6122 -0.5130
  789MOL0     H 4140   7.539   9.823   7.265 -2.6890  1.2112 -0.5971
  789MOL0     H 4141   7.683   9.910   7.257 -0.3106 -0.7942 -0.8114
  789MOL0     H 4142   7.425  10.068   7.327  1.2496  1.9676 -1.4428
  789MOL0     H 4143   7.584  10.088   7.394  0.7817 -1.2829 -0.1309
  789MOL0     H 4144   7.563   9.854   7.524 -0.3251  0.6742  0.8018
  789MOL0     H 4145   7.457   9.987   7.572 -1.8586  0.6189  0.3954
  789MOL0     H 4146   7.198   9.714   7.368  0.8866  1.3319 -3.1926
  789MOL0     H 4147   7.706   9.856   6.918 -2.5733 -0.8670  0.2718
  789MOL0     H 4148   7.733   9.852   6.675 -2.1697 -0.9113 -0.2257
  790MOL0     O 4149   8.143   6.689   0.090 -0.2178 -0.1859  0.1110
  790MOL0     C 4150   8.225   6.691  -0.003 -0.3130 -0.7076 -0.8215
  790MOL0     O 4151   8.291   6.578  -0.041  0.0080 -0.0444 -0.2847
  790MOL0     C 4152   8.254   6.447  -0.019  0.9168 -0.4520 -1.3492
  790MOL0     C 4153   8.114   6.417  -0.009 -0.2508 -0.1238  0.2151
  790MOL0     C 4154   8.074   6.294   0.046  0.4004 -0.3177  0.2780
  790MOL0     C 4155   8.167   6.189   0.059  0.3677 -0.2093 -0.5648
  790MOL0     O 4156   8.125   6.068   0.099 -0.2537  0.0854  0.0548
  790MOL0     C 4157   8.206   5.948   0.073  0.0932  0.0223 -0.0807
  790MOL0     C 4158   8.146   5.816   0.114  0.4759  0.0660  0.5413
  790MOL0     C 4159   8.264   5.713   0.125 -0.1183  0.9246  0.6021
  790MOL0     C 4160   8.213   5.574   0.191  0.6662  0.4837  0.5852
  790MOL0     C 4161   8.336   5.478   0.184  0.3063  0.1919  0.0939
  790MOL0     C 4162   8.399   5.454   0.046  0.3477 -0.1802 -0.1217
  790MOL0     C 4163   8.487   5.328   0.047  0.7777 -0.0939 -0.7152
  790MOL0     C 4164   8.562   5.309  -0.085 -0.9066  0.4340  0.1047
  790MOL0     N 4165   8.673   5.417  -0.108  1.3509 -0.2387 -0.1699
  790MOL0     C 4166   8.768   5.457  -0.019 -0.0358  0.0906  1.2077
  790MOL0     C 4167   8.854   5.521  -0.106 -0.4592 -0.5190 -0.1391
  790MOL0     C 4168   8.994   5.567  -0.076 -0.4259 -0.1823  0.1189
  790MOL0     C 4169   9.110   5.525  -0.178  0.1710 -0.3241  0.7383
  790MOL0     C 4170   9.112   5.630  -0.298 -0.7020  0.3162  0.2542
  790MOL0     C 4171   9.220   5.606  -0.401 -0.8333  0.5232 -1.0307
  790MOL0     O 4172   9.170   5.508  -0.493  0.0312  1.1611 -0.2429
  790MOL0     C 4173   9.241   5.468  -0.601  0.5449 -0.0194 -0.7783
  790MOL0     C 4174   9.379   5.436  -0.592 -0.0498  0.6539  0.1109
  790MOL0     C 4175   9.444   5.382  -0.708  0.3916  0.5796 -0.8631
  790MOL0     C 4176   9.373   5.364  -0.825 -0.0225 -0.4097 -0.9878
  790MOL0     C 4177   9.445   5.321  -0.947 -0.0189  0.0889 -0.0448
  790MOL0     O 4178   9.586   5.321  -0.945  0.3796 -0.6272 -0.2963
  790MOL0     C 4179   9.667   5.210  -0.912 -0.4034 -0.3961 -0.4876
  790MOL0     C 4180   9.619   5.089  -0.855 -0.1870 -0.1393 -0.0665
  790MOL0     C 4181   9.700   4.978  -0.822  0.0638 -0.7631 -0.7495
  790MOL0     C 4182   9.833   4.972  -0.844 -0.3262 -0.6399  0.4181
  790MOL0     O 4183   9.912   4.858  -0.818  0.1130 -1.2657  0.8006
  790MOL0     C 4184   9.913   4.834  -0.677  0.6290  0.5938  0.0113
  790MOL0     C 4185  10.048   4.864  -0.608 -0.4642 -0.8071  0.1631
  790MOL0     C 4186  10.067   5.009  -0.560 -1.4872 -0.6706 -1.0757
  790MOL0     C 4187  10.219   5.047  -0.538 -0.5886  0.0986 -0.2668
  790MOL0     C 4188  10.259   5.200  -0.526  0.6543  1.1614 -1.1222
  790MOL0     C 4189  10.145   5.283  -0.462 -0.1724  0.4881  0.5201
  790MOL0     C 4190  10.178   5.424  -0.424 -0.4201  0.3111 -0.0206
  790MOL0     C 4191  10.239   5.502  -0.536  0.2446 -0.2820  0.3083
  790MOL0    Cl 4192  10.265   5.672  -0.474 -0.1146  0.0964 -0.2425
  790MOL0     C 4193   9.889   5.080  -0.916 -0.1540  0.1966 -0.2945
  790MOL0     C 4194   9.807   5.203  -0.942 -1.1342 -0.8140  0.2535
  790MOL0     O 4195   9.378   5.281  -1.043  0.0482 -0.7416  0.1617
  790MOL0     C 4196   9.237   5.400  -0.829  0.4114 -0.9999 -0.2028
  790MOL0     C 4197   9.173   5.441  -0.715 -0.0619  0.5924 -0.0050
  790MOL0     N 4198   8.803   5.531  -0.234  0.3400 -0.6029  0.0487
  790MOL0     N 4199   8.688   5.470  -0.231 -0.5055  0.0501 -0.0504
  790MOL0     C 4200   8.308   6.222   0.037  0.2817 -0.5971 -0.0428
  790MOL0     C 4201   8.350   6.344   0.003 -0.4354 -0.2311  0.5922
  790MOL0     C 4202   8.248   6.820  -0.063  1.1086  0.1978  0.2446
  790MOL0     C 4203   8.237   6.940   0.010 -1.2570 -0.4853  0.0992
  790MOL0     C 4204   8.276   7.057  -0.049  0.6045 -0.5271 -0.6404
  790MOL0     C 4205   8.297   7.064  -0.186 -0.3044 -0.6812 -0.0750
  790MOL0     O 4206   8.324   7.193  -0.228  0.4764  0.0717  0.4399
  790MOL0     C 4207   8.345   7.230  -0.367 -0.7929 -0.0611  0.4543
  790MOL0     C 4208   8.209   7.207  -0.449 -0.9960  0.3284  0.1239
  790MOL0     C 4209   8.230   7.218  -0.602  0.3247  0.4931  0.3427
  790MOL0     C 4210   8.305   7.101  -0.670 -0.4685  0.0750 -0.2477
  790MOL0     C 4211   8.351   7.141  -0.800  0.9708 -0.1331  0.9064
  790MOL0     C 4212   8.403   7.183  -0.899 -0.1012  0.4609  0.7701
  790MOL0     C 4213   8.312   6.942  -0.260 -0.6756 -0.2875  0.2722
  790MOL0     C 4214   8.280   6.817  -0.199 -0.8956 -0.5531 -0.9336
  790MOL0     H 4215   8.036   6.490  -0.026  0.1777  0.0871 -0.9192
  790MOL0     H 4216   7.971   6.271   0.071  0.1588 -1.5874 -1.6716
  790MOL0     H 4217   8.301   5.960   0.126  2.2902 -3.1596 -2.8136
  790MOL0     H 4218   8.228   5.953  -0.035  4.2992  3.4921  0.6241
  790MOL0     H 4219   8.075   5.784   0.038 -0.3100  1.2614  0.7411
  790MOL0     H 4220   8.083   5.833   0.202 -2.1632  0.8833 -1.3718
  790MOL0     H 4221   8.351   5.743   0.184 -0.3081  1.0837  0.8030
  790MOL0     H 4222   8.293   5.694   0.021 -0.0382 -2.1659  1.0905
  790MOL0     H 4223   8.169   5.591   0.289 -1.1523  1.9290 -0.4226
  790MOL0     H 4224   8.139   5.534   0.121  1.4436  0.2992 -0.1626
  790MOL0     H 4225   8.305   5.381   0.223  0.9591  0.3840  1.1272
  790MOL0     H 4226   8.406   5.511   0.262  0.9239  1.1443 -0.8321
  790MOL0     H 4227   8.455   5.540   0.009  1.7922 -0.8532  0.4552
  790MOL0     H 4228   8.321   5.443  -0.031  1.1122  0.0312 -0.9415
  790MOL0     H 4229   8.560   5.348   0.126 -1.4286  0.6624  1.2603
  790MOL0     H 4230   8.423   5.242   0.070  1.5144 -0.1226  1.5068
  790MOL0     H 4231   8.492   5.304  -0.169 -0.5048  1.2192 -0.2814
  790MOL0     H 4232   8.613   5.212  -0.088  3.2396  2.4280 -0.1200
  790MOL0     H 4233   8.783   5.427   0.084 -1.0906  0.6868  1.5452
  790MOL0     H 4234   9.011   5.520   0.021 -1.4782  1.9467  1.3907
  790MOL0     H 4235   9.013   5.670  -0.047  1.4095 -1.1855  2.8500
  790MOL0     H 4236   9.102   5.420  -0.207  1.2770 -0.1007 -0.5111
  790MOL0     H 4237   9.202   5.537  -0.120  0.5830  0.8241 -0.1207
  790MOL0     H 4238   9.017   5.628  -0.353  0.5501 -0.5485 -2.0040
  790MOL0     H 4239   9.128   5.727  -0.252  1.2874 -0.6934  1.8553
  790MOL0     H 4240   9.312   5.569  -0.354 -0.3248  1.6045 -1.1589
  790MOL0     H 4241   9.258   5.694  -0.454 -1.0491  2.4723  1.8268
  790MOL0     H 4242   9.438   5.453  -0.503 -2.4182  3.1978  1.3046
  790MOL0     H 4243   9.548   5.351  -0.707 -0.1381 -1.2651 -0.2043
  790MOL0     H 4244   9.517   5.078  -0.820 -0.6831  1.0511 -1.0526
  790MOL0     H 4245   9.669   4.889  -0.769  0.1115  1.1571  2.8263
  790MOL0     H 4246   9.907   4.725  -0.666 -1.1811  0.7078  0.3862
  790MOL0     H 4247   9.833   4.881  -0.619  2.8447  4.9165 -0.0797
  790MOL0     H 4248  10.118   4.847  -0.690 -2.7419  1.0111 -2.3301
  790MOL0     H 4249  10.072   4.792  -0.529  3.2833  1.1079  1.0179
  790MOL0     H 4250  10.016   5.029  -0.465 -0.1749  1.6032 -0.7670
  790MOL0     H 4251  10.020   5.081  -0.628 -2.7051 -1.5169 -1.1487
  790MOL0     H 4252  10.260   5.007  -0.445  0.7447 -0.2943 -0.9886
  790MOL0     H 4253  10.288   5.004  -0.612  2.5608 -1.9798  3.5047
  790MOL0     H 4254  10.272   5.234  -0.629  2.7796  2.9513 -0.3361
  790MOL0     H 4255  10.354   5.212  -0.473  0.2897  0.4774 -0.2995
  790MOL0     H 4256  10.109   5.229  -0.374  1.1429 -2.6770 -0.7343
  790MOL0     H 4257  10.064   5.290  -0.534  1.5066  0.6122 -1.4409
  790MOL0     H 4258  10.086   5.469  -0.387  0.7443 -0.2060  3.9862
  790MOL0     H 4259  10.238   5.429  -0.332  0.5588 -0.4191 -0.6006
  790MOL0     H 4260  10.172   5.510  -0.623  3.1825  2.0517 -1.9922
  790MOL0     H 4261  10.327   5.454  -0.579 -1.5691 -1.8475 -1.9722
  790MOL0     H 4262   9.997   5.082  -0.925 -0.0353 -0.7424  0.7322
  790MOL0     H 4263   9.863   5.280  -0.994 -1.1532 -1.2104 -0.3615
  790MOL0     H 4264   9.186   5.405  -0.925  3.9990  1.7080 -2.2360
  790MOL0     H 4265   9.065   5.449  -0.723 -0.3699 -0.5136  2.3156
  790MOL0     H 4266   8.388   6.156   0.067  3.6035  1.4863 -3.3808
  790MOL0     H 4267   8.458   6.355  -0.003 -0.1862 -2.7506 -0.5887
  790MOL0     H 4268   8.207   6.938   0.115 -1.1712 -1.9409  0.1215
  790MOL0     H 4269   8.284   7.146   0.012  1.1605 -0.2237 -1.1449
  790MOL0     H 4270   8.425   7.177  -0.419 -0.7765  0.5588 -0.1575
  790MOL0     H 4271   8.375   7.335  -0.363 -0.0223 -0.1536 -1.7580
  790MOL0     H 4272   8.161   7.109  -0.437 -2.6619  1.0138 -0.6641
  790MOL0     H 4273   8.156   7.296  -0.415 -0.4321  0.7488 -0.0666
  790MOL0     H 4274   8.283   7.310  -0.626 -0.4357  0.8751  0.0767
  790MOL0     H 4275   8.130   7.224  -0.647  0.1320 -2.5804  0.1344
  790MOL0     H 4276   8.383   7.073  -0.598 -1.8037  0.5000  1.4475
  790MOL0     H 4277   8.239   7.013  -0.671 -0.1616 -0.2471  2.1745
  790MOL0     H 4278   8.456   7.236  -0.975 -0.6368  0.8521  0.6639
  790MOL0     H 4279   8.344   6.948  -0.364 -2.3254  4.2854 -0.2099
  790MOL0     H 4280   8.294   6.721  -0.247 -1.6174 -1.9338  1.5125
  791MOL0     O 4281   9.117  11.221   1.524 -0.0099 -0.6393  0.1864
  791MOL0     C 4282   9.129  11.245   1.400  0.0160 -1.1213 -0.7473
  791MOL0     O 4283   9.074  11.355   1.339 -0.6334 -0.8698 -0.0823
  791MOL0     C 4284   9.038  11.454   1.415  0.7496 -0.5486  0.3606
  791MOL0     C 4285   9.132  11.515   1.510  0.6555 -0.2708 -0.5522
  791MOL0     C 4286   9.092  11.624   1.589 -0.0984 -0.7971 -0.0808
  791MOL0     C 4287   8.962  11.667   1.580 -0.3998  1.1136  0.0728
  791MOL0     O 4288   8.904  11.745   1.675 -0.3729 -0.2116 -0.0872
  791MOL0     C 4289   8.989  11.797   1.784 -0.1590 -0.3712  1.1851
  791MOL0     C 4290   8.928  11.929   1.843  0.2367 -0.9548  0.2730
  791MOL0     C 4291   8.964  12.064   1.779  0.3943 -0.4205  0.1103
  791MOL0     C 4292   8.867  12.105   1.655  0.0397 -0.2468  0.4949
  791MOL0     C 4293   8.905  12.250   1.605  0.2391  0.6109 -1.2844
  791MOL0     C 4294   8.926  12.359   1.717  0.4366  0.1739 -0.2065
  791MOL0     C 4295   8.819  12.369   1.823  0.3207  1.1836  0.0690
  791MOL0     C 4296   8.703  12.466   1.789  0.4652  0.5780 -0.3408
  791MOL0     N 4297   8.618  12.420   1.675  0.4820 -0.2836  0.1957
  791MOL0     C 4298   8.553  12.303   1.655  1.1691 -0.2396  0.0814
  791MOL0     C 4299   8.482  12.318   1.545  0.0380  0.5769  0.4514
  791MOL0     C 4300   8.390  12.232   1.472 -0.1113  0.1483 -0.0550
  791MOL0     C 4301   8.456  12.153   1.367 -0.0738  0.0365 -0.3910
  791MOL0     C 4302   8.568  12.065   1.410 -0.0130  0.6639  0.7747
  791MOL0     C 4303   8.582  11.937   1.323  0.3595 -0.7524 -0.5904
  791MOL0     O 4304   8.468  11.859   1.351  0.0893 -0.3435 -0.5535
  791MOL0     C 4305   8.473  11.728   1.305 -0.0705  0.3965 -0.1222
  791MOL0     C 4306   8.584  11.688   1.225 -0.1235  0.1431 -1.2340
  791MOL0     C 4307   8.591  11.548   1.199  0.1713  0.3673 -0.1825
  791MOL0     C 4308   8.496  11.454   1.231  0.6114 -0.3643  0.3565
  791MOL0     C 4309   8.497  11.310   1.198  0.1447  0.3991  0.2575
  791MOL0     O 4310   8.607  11.259   1.126  0.1958 -0.6020  0.0784
  791MOL0     C 4311   8.615  11.121   1.090 -0.9580  0.0193  0.3222
  791MOL0     C 4312   8.737  11.064   1.134 -0.5536 -0.6949 -1.0962
  791MOL0     C 4313   8.772  10.936   1.080 -0.5754 -0.4609 -0.2206
  791MOL0     C 4314   8.682  10.862   1.003  0.4752  0.1335  0.2997
  791MOL0     O 4315   8.711  10.735   0.978  0.0475 -0.1491 -0.6353
  791MOL0     C 4316   8.653  10.648   1.077  0.2185  0.0834 -0.4153
  791MOL0     C 4317   8.703  10.507   1.058 -0.0111 -0.5420 -0.1372
  791MOL0     C 4318   8.618  10.405   1.131  0.8723  0.2832 -1.6608
  791MOL0     C 4319   8.697  10.286   1.188  0.1079 -0.3289  0.1432
  791MOL0     C 4320   8.781  10.201   1.085 -1.2345  0.1098 -0.6323
  791MOL0     C 4321   8.865  10.091   1.160 -0.5293  0.5059 -0.0826
  791MOL0     C 4322   8.910   9.980   1.064  0.5479  1.2568  0.3354
  791MOL0     C 4323   8.996   9.878   1.133 -0.7474 -0.4857 -0.2579
  791MOL0    Cl 4324   9.073   9.793   0.990  0.1084  0.2239  0.2960
  791MOL0     C 4325   8.555  10.917   0.968 -0.5955 -0.9334  0.1947
  791MOL0     C 4326   8.528  11.051   1.004  0.3618  0.5011  0.0194
  791MOL0     O 4327   8.402  11.242   1.241 -0.0442  0.0061  0.4502
  791MOL0     C 4328   8.389  11.508   1.314  0.4049  0.3375 -0.0172
  791MOL0     C 4329   8.384  11.641   1.350 -0.0907  0.4920  0.1074
  791MOL0     N 4330   8.500  12.444   1.503 -0.5459  0.6601 -0.2358
  791MOL0     N 4331   8.579  12.511   1.590  0.6537  0.0404  0.0924
  791MOL0     C 4332   8.875  11.613   1.477  0.0586 -0.5729 -0.2992
  791MOL0     C 4333   8.911  11.508   1.394  0.0362 -0.8587 -0.7589
  791MOL0     C 4334   9.214  11.155   1.318 -0.3162 -0.0679  1.3019
  791MOL0     C 4335   9.334  11.109   1.369  0.7038  0.5707 -0.3458
  791MOL0     C 4336   9.403  11.023   1.284 -0.3738  0.6472 -0.5050
  791MOL0     C 4337   9.376  10.999   1.140 -0.9742  0.0089  0.2454
  791MOL0     O 4338   9.455  10.914   1.058  0.3285  0.1374  0.5953
  791MOL0     C 4339   9.413  10.882   0.918  0.6108  0.3407  0.5579
  791MOL0     C 4340   9.312  10.777   0.901 -1.1017  0.4087 -0.2886
  791MOL0     C 4341   9.348  10.641   0.950  0.1312  0.4544  0.4075
  791MOL0     C 4342   9.260  10.527   0.892 -0.1899  0.1294  0.5267
  791MOL0     C 4343   9.346  10.418   0.837  0.5911 -0.5798 -0.3822
  791MOL0     C 4344   9.384  10.320   0.781 -0.3784 -0.0767  0.1554
  791MOL0     C 4345   9.265  11.062   1.091  0.3807  0.1348 -0.6436
  791MOL0     C 4346   9.188  11.143   1.179  0.6318  0.5974 -0.0578
  791MOL0     H 4347   9.226  11.467   1.536  0.6129 -0.8091 -1.3386
  791MOL0     H 4348   9.170  11.654   1.659  1.6258 -1.9440 -1.4224
  791MOL0     H 4349   9.084  11.818   1.735 -1.8899  0.5898 -2.0171
  791MOL0     H 4350   9.007  11.719   1.860  2.3782  0.4628  1.5330
  791MOL0     H 4351   8.955  11.943   1.948  0.7921 -3.7398  0.5788
  791MOL0     H 4352   8.818  11.927   1.846 -0.2488  0.2241 -5.2997
  791MOL0     H 4353   9.063  12.060   1.733  0.5167 -0.6957  0.3920
  791MOL0     H 4354   8.964  12.141   1.856 -1.3042 -1.6167  1.3773
  791MOL0     H 4355   8.877  12.039   1.569 -3.5365 -1.6919  1.0103
  791MOL0     H 4356   8.763  12.103   1.688 -0.3480 -0.9717 -0.7140
  791MOL0     H 4357   8.838  12.292   1.530 -1.1375  0.7662 -0.0309
  791MOL0     H 4358   8.999  12.241   1.550  0.6521  0.6012 -0.5887
  791MOL0     H 4359   8.936  12.456   1.667  0.4557  0.4886  0.3892
  791MOL0     H 4360   9.021  12.352   1.771  2.4786 -0.0043 -3.5620
  791MOL0     H 4361   8.777  12.272   1.852 -0.2568  1.0459 -1.1503
  791MOL0     H 4362   8.860  12.414   1.914 -2.7033  2.8591  0.7339
  791MOL0     H 4363   8.749  12.561   1.761  2.7207  0.0140  1.1974
  791MOL0     H 4364   8.641  12.488   1.877  2.2141  1.5136  0.6986
  791MOL0     H 4365   8.570  12.222   1.726  2.1293  1.3988  1.8081
  791MOL0     H 4366   8.311  12.285   1.417 -1.2673 -3.4108 -2.2364
  791MOL0     H 4367   8.340  12.168   1.545  0.5369 -0.3771 -0.0586
  791MOL0     H 4368   8.483  12.221   1.285  1.5575 -0.1219 -0.0196
  791MOL0     H 4369   8.374  12.094   1.325  0.3369 -0.6631 -0.2137
  791MOL0     H 4370   8.663  12.119   1.405  0.3064  0.3830  2.7981
  791MOL0     H 4371   8.545  12.052   1.516 -1.8152  2.8461  0.7190
  791MOL0     H 4372   8.672  11.888   1.361  1.9693  2.2530 -0.2564
  791MOL0     H 4373   8.584  11.965   1.217 -5.3342 -3.1333 -1.6762
  791MOL0     H 4374   8.671  11.739   1.184 -0.6070  2.3468  0.3156
  791MOL0     H 4375   8.675  11.522   1.136  0.4086  3.3519 -1.2310
  791MOL0     H 4376   8.806  11.114   1.202 -2.1860 -1.7381  1.5091
  791MOL0     H 4377   8.858  10.892   1.130 -3.3142 -2.3844  3.3100
  791MOL0     H 4378   8.544  10.655   1.074  0.0998 -1.1475  0.3187
  791MOL0     H 4379   8.678  10.676   1.180  1.4404  0.9666 -0.9301
  791MOL0     H 4380   8.805  10.520   1.093  1.0557  0.3016 -3.2081
  791MOL0     H 4381   8.691  10.481   0.952  0.8362  2.0770 -0.9606
  791MOL0     H 4382   8.535  10.378   1.066  0.2995 -3.0716  0.2527
  791MOL0     H 4383   8.575  10.446   1.223  0.6545 -0.4467 -1.4340
  791MOL0     H 4384   8.762  10.321   1.269 -0.6488 -4.4760  2.8689
  791MOL0     H 4385   8.612  10.229   1.227 -1.6846  1.6000 -0.7294
  791MOL0     H 4386   8.853  10.263   1.030 -0.6266  0.4607  0.5183
  791MOL0     H 4387   8.734  10.148   1.001  2.8045 -0.3784 -2.8322
  791MOL0     H 4388   8.808  10.049   1.244  0.9149  2.1405  1.8167
  791MOL0     H 4389   8.952  10.144   1.200 -0.3250 -0.5873  0.9870
  791MOL0     H 4390   8.822   9.943   1.010  0.9206  2.5806 -1.2592
  791MOL0     H 4391   8.978  10.016   0.987  1.4092  0.6981  0.8182
  791MOL0     H 4392   8.935   9.801   1.182  0.2201 -2.8430 -2.5185
  791MOL0     H 4393   9.068   9.903   1.210 -0.7087 -3.5293  0.8394
  791MOL0     H 4394   8.483  10.860   0.911 -1.3387  1.1503 -1.0533
  791MOL0     H 4395   8.431  11.088   0.971  0.4301  0.2510 -0.4710
  791MOL0     H 4396   8.310  11.444   1.352 -0.3629  1.1940 -0.1103
  791MOL0     H 4397   8.304  11.669   1.417 -1.5655 -0.2847 -1.2698
  791MOL0     H 4398   8.779  11.663   1.475  0.0462 -0.4018  2.2121
  791MOL0     H 4399   8.843  11.476   1.316 -1.8039  1.6877 -0.3453
  791MOL0     H 4400   9.366  11.130   1.471  1.6146  0.9104 -0.6987
  791MOL0     H 4401   9.488  10.968   1.323  0.6890  1.6797 -1.2531
  791MOL0     H 4402   9.503  10.856   0.862  2.8444  1.8544  3.1520
  791MOL0     H 4403   9.384  10.976   0.870 -1.1235 -0.9353 -1.0083
  791MOL0     H 4404   9.228  10.812   0.961  0.6704 -1.4586  3.6756
  791MOL0     H 4405   9.292  10.764   0.794  6.6073  0.9331 -2.3780
  791MOL0     H 4406   9.346  10.633   1.059  0.0979 -3.1581  0.2717
  791MOL0     H 4407   9.453  10.627   0.920  0.7412  3.7165  0.6136
  791MOL0     H 4408   9.187  10.489   0.964 -0.8273 -0.8291 -0.5796
  791MOL0     H 4409   9.199  10.568   0.811 -1.1552 -1.4406  0.4153
  791MOL0     H 4410   9.414  10.227   0.737  0.1250  0.0380  0.2529
  791MOL0     H 4411   9.214  11.049   0.996 -2.8268  1.8904  0.7050
  791MOL0     H 4412   9.092  11.167   1.133 -0.0865 -0.7553  0.6608
  792MOL0     O 4413   3.940   7.076   5.045  0.1314 -0.1015 -0.1671
  792MOL0     C 4414   3.957   7.019   4.937  0.5254 -1.1012 -0.4453
  792MOL0     O 4415   3.899   6.901   4.910  0.5210  0.3145 -0.1386
  792MOL0     C 4416   3.817   6.856   5.004  0.3237  0.3488  0.0616
  792MOL0     C 4417   3.682   6.879   4.985 -0.5275  0.0623 -0.3118
  792MOL0     C 4418   3.589   6.844   5.081  0.8575 -0.5070  0.5707
  792MOL0     C 4419   3.620   6.776   5.196  0.3606 -0.4166  0.6540
  792MOL0     O 4420   3.531   6.740   5.289 -0.2417  0.6500 -0.5483
  792MOL0     C 4421   3.429   6.838   5.326 -1.0534  0.0380 -0.2586
  792MOL0     C 4422   3.461   6.891   5.459  0.0635  0.2858  0.4842
  792MOL0     C 4423   3.349   6.986   5.506 -0.1062  0.0598  0.9585
  792MOL0     C 4424   3.335   7.121   5.431 -0.6184  0.5168  0.5226
  792MOL0     C 4425   3.230   7.201   5.509  0.2069  0.4042  0.0970
  792MOL0     C 4426   3.184   7.313   5.412  0.7279  0.4646  0.2996
  792MOL0     C 4427   3.114   7.416   5.494 -0.5954  0.0674  0.9204
  792MOL0     C 4428   2.999   7.486   5.420  0.4645  0.0145  0.2089
  792MOL0     N 4429   3.040   7.551   5.298 -0.0403  0.2393 -0.0404
  792MOL0     C 4430   2.954   7.578   5.199  0.1787 -0.2743  0.6776
  792MOL0     C 4431   3.008   7.685   5.124 -0.4804  0.5534 -0.7741
  792MOL0     C 4432   2.958   7.760   5.006  0.9987 -0.1862  0.9651
  792MOL0     C 4433   3.030   7.763   4.873  0.0750  0.7993 -0.9777
  792MOL0     C 4434   3.027   7.896   4.793  0.3454  0.7948 -0.3848
  792MOL0     C 4435   3.143   7.877   4.695  0.6892 -0.3201  0.0629
  792MOL0     O 4436   3.102   7.788   4.596  0.6884 -0.2162  0.9182
  792MOL0     C 4437   3.019   7.832   4.487 -0.2616 -0.0253 -1.0607
  792MOL0     C 4438   2.971   7.955   4.470  0.4421  0.0973  0.0191
  792MOL0     C 4439   2.889   7.996   4.371  1.0673  0.0627 -0.0712
  792MOL0     C 4440   2.836   7.897   4.280  0.7389 -0.6203 -0.1326
  792MOL0     C 4441   2.737   7.928   4.186 -0.3323 -0.3267  0.9633
  792MOL0     O 4442   2.723   7.832   4.088 -0.6737  0.7525 -0.0756
  792MOL0     C 4443   2.696   7.867   3.964  0.5397  0.1264  0.3296
  792MOL0     C 4444   2.635   7.763   3.894 -0.3638  0.1041  0.2815
  792MOL0     C 4445   2.613   7.779   3.755  0.0428 -0.4212 -0.8626
  792MOL0     C 4446   2.637   7.899   3.691 -0.5995  0.6261  0.5679
  792MOL0     O 4447   2.608   7.920   3.559  0.1282  0.1154 -0.0807
  792MOL0     C 4448   2.667   7.821   3.461  0.4871 -0.5561 -0.0217
  792MOL0     C 4449   2.813   7.803   3.482  0.3315  0.0196 -0.1129
  792MOL0     C 4450   2.877   7.750   3.358 -0.1195 -0.2153  0.0279
  792MOL0     C 4451   3.029   7.755   3.378 -0.4404 -0.0996 -0.7230
  792MOL0     C 4452   3.128   7.769   3.249 -0.0443 -0.8126 -0.3578
  792MOL0     C 4453   3.188   7.630   3.207 -0.1981 -0.7483  0.6752
  792MOL0     C 4454   3.309   7.656   3.118  0.2938  0.0019 -0.4009
  792MOL0     C 4455   3.295   7.721   2.982 -0.6531 -0.4101 -0.6709
  792MOL0    Cl 4456   3.154   7.655   2.890 -0.7384  0.5198  0.0335
  792MOL0     C 4457   2.695   8.000   3.760  0.8210 -0.0506 -0.0195
  792MOL0     C 4458   2.709   7.988   3.897 -0.8138  0.1684  0.0100
  792MOL0     O 4459   2.695   8.041   4.192  0.1505  0.6535 -0.5542
  792MOL0     C 4460   2.883   7.766   4.301  0.2888  0.4547 -0.2244
  792MOL0     C 4461   2.977   7.740   4.395  0.7061  0.2367 -0.0458
  792MOL0     N 4462   3.128   7.716   5.190  0.0256  0.3009 -0.3579
  792MOL0     N 4463   3.142   7.642   5.285 -0.4893  0.7160  0.1368
  792MOL0     C 4464   3.750   6.746   5.222 -0.2674 -0.6037  0.0471
  792MOL0     C 4465   3.850   6.791   5.129  0.5528  0.0033  0.0528
  792MOL0     C 4466   4.033   7.093   4.835 -0.0953  0.1943  0.3576
  792MOL0     C 4467   4.098   7.217   4.866 -0.1019 -0.3042 -0.4516
  792MOL0     C 4468   4.198   7.269   4.788  0.0618 -0.3531  0.7669
  792MOL0     C 4469   4.227   7.211   4.666  0.6207 -0.7059 -0.1237
  792MOL0     O 4470   4.323   7.280   4.588  0.1235 -0.7252  0.4096
  792MOL0     C 4471   4.418   7.196   4.516  0.3274  0.7458  0.2151
  792MOL0     C 4472   4.522   7.136   4.613  0.3308 -0.4043  0.6910
  792MOL0     C 4473   4.589   7.260   4.683 -1.1734  1.2057 -0.9973
  792MOL0     C 4474   4.732   7.238   4.707 -0.9470  0.5527 -0.3686
  792MOL0     C 4475   4.809   7.225   4.584 -0.4482  0.2344 -0.2079
  792MOL0     C 4476   4.867   7.225   4.484  0.1436  0.1248 -0.4309
  792MOL0     C 4477   4.164   7.083   4.630 -0.4091 -0.1870 -1.2810
  792MOL0     C 4478   4.066   7.029   4.717  0.3333 -0.8550  1.2192
  792MOL0     H 4479   3.644   6.933   4.899 -0.0633 -1.5404 -1.5736
  792MOL0     H 4480   3.485   6.859   5.052  1.2450  3.6158  0.6542
  792MOL0     H 4481   3.335   6.783   5.314 -1.8096  1.3227 -0.4654
  792MOL0     H 4482   3.430   6.920   5.254  1.0074  0.2162 -0.0946
  792MOL0     H 4483   3.553   6.951   5.461 -0.0945  0.6337 -0.9839
  792MOL0     H 4484   3.484   6.805   5.522 -0.1468  0.8785  1.3961
  792MOL0     H 4485   3.366   7.018   5.609  1.1751 -1.9894  1.4435
  792MOL0     H 4486   3.262   6.919   5.506 -0.7753  0.9051  1.2925
  792MOL0     H 4487   3.430   7.175   5.439 -0.7474  0.8637 -0.2319
  792MOL0     H 4488   3.315   7.111   5.324 -2.3838 -0.0071  0.8625
  792MOL0     H 4489   3.265   7.241   5.604 -1.0649  2.4879 -0.2550
  792MOL0     H 4490   3.144   7.137   5.529  0.4420 -0.0124 -0.1907
  792MOL0     H 4491   3.116   7.273   5.336  1.4938  1.3627 -0.8944
  792MOL0     H 4492   3.274   7.354   5.365  1.7182  1.7402  3.1392
  792MOL0     H 4493   3.071   7.370   5.584 -0.7439 -2.8745 -0.5737
  792MOL0     H 4494   3.190   7.485   5.533  0.4431 -0.7003  0.2898
  792MOL0     H 4495   2.952   7.565   5.479 -1.7480 -1.1242  0.0595
  792MOL0     H 4496   2.922   7.409   5.404 -2.2584  1.8179  3.4297
  792MOL0     H 4497   2.852   7.543   5.188  0.7402 -1.7354 -0.0876
  792MOL0     H 4498   2.940   7.864   5.035 -0.9044 -0.7904  2.1972
  792MOL0     H 4499   2.851   7.737   5.000  0.7097  1.1482  0.5909
  792MOL0     H 4500   2.998   7.678   4.811  0.2990 -0.1301  0.1431
  792MOL0     H 4501   3.135   7.747   4.900 -0.1805 -1.3027 -1.0384
  792MOL0     H 4502   2.932   7.920   4.745 -0.4767  1.5194  1.5268
  792MOL0     H 4503   3.056   7.973   4.865  0.8463 -0.5047  0.8344
  792MOL0     H 4504   3.240   7.849   4.736 -0.0681 -1.9886  0.8041
  792MOL0     H 4505   3.165   7.976   4.653  0.4693 -0.0288  0.6324
  792MOL0     H 4506   2.991   8.033   4.542  0.1546  0.0072  0.2033
  792MOL0     H 4507   2.835   8.089   4.377 -0.7516 -0.9800  0.6310
  792MOL0     H 4508   2.605   7.677   3.954 -0.7285  1.3923  2.0442
  792MOL0     H 4509   2.568   7.711   3.684  0.6458  2.2073 -4.0238
  792MOL0     H 4510   2.655   7.856   3.358  2.2896 -2.1568 -0.8513
  792MOL0     H 4511   2.609   7.728   3.461 -1.8567  0.8166  1.6815
  792MOL0     H 4512   2.836   7.730   3.560  1.6060 -0.2252 -0.6985
  792MOL0     H 4513   2.848   7.902   3.513  1.1434  0.3863 -2.0526
  792MOL0     H 4514   2.864   7.817   3.272  2.9986  1.4678  0.7144
  792MOL0     H 4515   2.865   7.643   3.342  2.5473 -0.5909  0.0073
  792MOL0     H 4516   3.052   7.839   3.444  2.9618 -0.3414 -1.4242
  792MOL0     H 4517   3.050   7.664   3.435 -0.5459  0.6874  0.6030
  792MOL0     H 4518   3.212   7.837   3.266  1.0964 -1.8401 -1.6595
  792MOL0     H 4519   3.070   7.811   3.166  2.1999  1.8931 -0.6725
  792MOL0     H 4520   3.114   7.563   3.161  1.8377 -1.1122 -2.3199
  792MOL0     H 4521   3.224   7.582   3.298  2.4011  0.1418  0.1879
  792MOL0     H 4522   3.397   7.704   3.162  0.0131 -0.8027  1.1254
  792MOL0     H 4523   3.340   7.558   3.078  1.6879 -0.4338  1.6036
  792MOL0     H 4524   3.383   7.727   2.918 -1.7379  3.1213 -2.0699
  792MOL0     H 4525   3.271   7.826   3.002  1.6566 -0.3908  2.8711
  792MOL0     H 4526   2.712   8.096   3.713 -1.8450 -1.1485 -3.7361
  792MOL0     H 4527   2.727   8.076   3.958 -3.0755  1.6351 -1.2785
  792MOL0     H 4528   2.836   7.683   4.248  2.3503 -1.5103  0.8509
  792MOL0     H 4529   3.024   7.642   4.400 -0.9792 -0.6403 -0.4739
  792MOL0     H 4530   3.782   6.715   5.320  2.1793  2.5349  0.4324
  792MOL0     H 4531   3.956   6.771   5.144  1.0061  1.4750 -0.9007
  792MOL0     H 4532   4.069   7.275   4.953  0.8921  2.4647 -1.8515
  792MOL0     H 4533   4.241   7.367   4.808  3.5734 -1.5048 -0.3657
  792MOL0     H 4534   4.467   7.269   4.452 -1.6654  1.8367 -0.1518
  792MOL0     H 4535   4.379   7.116   4.453  1.2519  0.7406 -0.3625
  792MOL0     H 4536   4.474   7.069   4.685 -1.9985 -0.2288 -0.5797
  792MOL0     H 4537   4.600   7.089   4.553  0.3253  2.3313 -1.7074
  792MOL0     H 4538   4.539   7.272   4.780  1.0412 -0.1207  0.4072
  792MOL0     H 4539   4.578   7.359   4.639 -0.5111  2.3688  1.2714
  792MOL0     H 4540   4.761   7.326   4.764 -1.9614  2.0353 -2.0333
  792MOL0     H 4541   4.739   7.139   4.753 -1.6682 -1.8055 -4.7700
  792MOL0     H 4542   4.928   7.221   4.396  0.6931  2.6653 -0.2505
  792MOL0     H 4543   4.177   7.029   4.537 -2.2697 -2.4145 -0.3339
  792MOL0     H 4544   4.019   6.932   4.703  1.5582 -1.5395  1.7178
  793MOL0     O 4545   9.388   8.085   9.264  0.2622 -1.0820  0.1831
  793MOL0     C 4546   9.396   8.001   9.347 -0.6861  0.6941  0.0170
  793MOL0     O 4547   9.399   8.016   9.479  0.0010 -0.5811 -0.6655
  793MOL0     C 4548   9.393   8.152   9.522  0.4844 -0.1235  0.4647
  793MOL0     C 4549   9.506   8.204   9.583  1.1068  0.0900 -0.0994
  793MOL0     C 4550   9.512   8.329   9.647  0.1269 -0.7412  0.4164
  793MOL0     C 4551   9.401   8.415   9.632 -0.0971  0.2990 -0.0924
  793MOL0     O 4552   9.416   8.535   9.692 -0.3996  0.3510 -0.2312
  793MOL0     C 4553   9.300   8.601   9.751  0.6363 -0.4748  0.8499
  793MOL0     C 4554   9.350   8.693   9.859 -0.2606  0.0208 -0.3104
  793MOL0     C 4555   9.255   8.762   9.963 -0.7495 -0.0812 -0.8204
  793MOL0     C 4556   9.313   8.883  10.048 -0.3725  0.1875  0.4833
  793MOL0     C 4557   9.212   8.947  10.151 -0.4246  0.3548  1.5565
  793MOL0     C 4558   9.071   8.976  10.104 -1.0319 -0.0330 -0.5472
  793MOL0     C 4559   9.071   9.066   9.985  0.4712 -0.2534 -0.2977
  793MOL0     C 4560   8.927   9.126   9.977  0.3362 -1.4095  0.1454
  793MOL0     N 4561   8.832   9.018   9.943  1.2024 -0.2729  0.1228
  793MOL0     C 4562   8.747   8.959  10.036  0.2227  0.3834  0.2068
  793MOL0     C 4563   8.717   8.843   9.985  0.5339  0.2316 -0.3470
  793MOL0     C 4564   8.642   8.739  10.052  0.5064  0.3708  1.1422
  793MOL0     C 4565   8.669   8.697  10.195  0.3003  0.0096 -0.0551
  793MOL0     C 4566   8.569   8.608  10.257 -0.0931  0.7340 -0.0045
  793MOL0     C 4567   8.438   8.682  10.263 -0.0510  0.4757 -0.3573
  793MOL0     O 4568   8.466   8.812  10.327 -0.0527  0.4703  0.3527
  793MOL0     C 4569   8.354   8.895  10.321 -0.9589  0.5889 -0.0990
  793MOL0     C 4570   8.253   8.861  10.401 -0.5674 -0.5207  0.0891
  793MOL0     C 4571   8.139   8.931  10.405 -0.0348  0.0120  0.7250
  793MOL0     C 4572   8.120   9.042  10.317  0.0417  0.4432 -0.1557
  793MOL0     C 4573   7.995   9.115  10.313 -0.6880 -0.9416  0.2494
  793MOL0     O 4574   7.995   9.230  10.230 -0.3927  0.1234 -0.3043
  793MOL0     C 4575   7.902   9.330  10.252  0.2623  0.0077 -0.4214
  793MOL0     C 4576   7.961   9.459  10.253 -0.3197  0.1468  0.0390
  793MOL0     C 4577   7.877   9.569  10.254 -0.2424  0.5301 -0.3229
  793MOL0     C 4578   7.737   9.563  10.268 -0.3318 -0.1392  0.2827
  793MOL0     O 4579   7.670   9.682  10.300 -0.2207  0.5233  0.1078
  793MOL0     C 4580   7.750   9.780  10.371 -0.5751 -0.1535  0.2830
  793MOL0     C 4581   7.676   9.905  10.423 -0.0163 -0.1180  0.6997
  793MOL0     C 4582   7.576   9.879  10.542 -0.8089 -0.0159 -0.8912
  793MOL0     C 4583   7.505  10.009  10.592  0.4317  0.0140  0.1980
  793MOL0     C 4584   7.422   9.968  10.724  0.5537 -0.4752 -0.0547
  793MOL0     C 4585   7.314  10.071  10.761 -0.6036 -0.7500  0.0562
  793MOL0     C 4586   7.182  10.045  10.671 -0.3816 -0.2183 -0.1143
  793MOL0     C 4587   7.051  10.093  10.739  0.8217 -0.8073 -0.3354
  793MOL0    Cl 4588   6.942   9.955  10.773  0.2999 -0.1639 -0.3345
  793MOL0     C 4589   7.675   9.440  10.270 -0.4369  1.1104 -0.1194
  793MOL0     C 4590   7.764   9.326  10.265  0.9790  0.6739 -0.7630
  793MOL0     O 4591   7.906   9.074  10.381  0.2919 -0.1663 -0.0693
  793MOL0     C 4592   8.234   9.078  10.233  0.6093 -0.1616 -0.6800
  793MOL0     C 4593   8.359   9.006  10.242 -0.6480 -0.1910  0.1422
  793MOL0     N 4594   8.769   8.835   9.854 -0.0542  0.0276 -0.7373
  793MOL0     N 4595   8.837   8.946   9.831 -0.0070  0.4097  0.3722
  793MOL0     C 4596   9.281   8.369   9.573  0.6591 -0.1107 -0.2449
  793MOL0     C 4597   9.279   8.234   9.521  0.0361  0.1947 -0.5200
  793MOL0     C 4598   9.416   7.864   9.289  0.2178  0.3103 -0.7054
  793MOL0     C 4599   9.449   7.835   9.157  0.2988 -0.7460 -0.1643
  793MOL0     C 4600   9.500   7.711   9.119  0.3488 -0.3012 -0.0891
  793MOL0     C 4601   9.508   7.613   9.218 -0.2048  0.2149  0.2790
  793MOL0     O 4602   9.546   7.482   9.182 -0.0627 -0.8316 -0.3425
  793MOL0     C 4603   9.675   7.436   9.215  0.5152 -0.1265 -0.6220
  793MOL0     C 4604   9.664   7.286   9.208  0.4025 -0.3657  1.0808
  793MOL0     C 4605   9.675   7.215   9.076 -0.5399  0.2718  0.7147
  793MOL0     C 4606   9.622   7.078   9.097 -0.1822 -0.9577  0.1890
  793MOL0     C 4607   9.664   6.987   8.984  0.2215 -0.6962  0.4833
  793MOL0     C 4608   9.667   6.924   8.884  0.2450 -0.3369 -0.7483
  793MOL0     C 4609   9.487   7.641   9.351  0.4700 -1.0040 -0.7275
  793MOL0     C 4610   9.432   7.764   9.384  0.0326  0.3387  0.5324
  793MOL0     H 4611   9.593   8.141   9.589  0.9521 -0.0736  0.5342
  793MOL0     H 4612   9.606   8.348   9.697 -1.6286  2.6389  2.7821
  793MOL0     H 4613   9.235   8.525   9.797 -0.9978 -0.6757 -1.6309
  793MOL0     H 4614   9.249   8.656   9.671 -0.1117  1.3285  2.4839
  793MOL0     H 4615   9.397   8.774   9.801  1.8859 -0.8059  0.1712
  793MOL0     H 4616   9.424   8.641   9.921 -2.9526 -1.4014  1.9154
  793MOL0     H 4617   9.214   8.683  10.028 -0.2633 -1.4103 -2.0761
  793MOL0     H 4618   9.174   8.800   9.901  1.4540 -1.4100 -4.8629
  793MOL0     H 4619   9.404   8.849  10.098  0.4006 -2.8821 -2.6466
  793MOL0     H 4620   9.319   8.975   9.989 -2.9873  2.0587  2.8689
  793MOL0     H 4621   9.262   9.038  10.186  2.0877  0.6637 -2.2484
  793MOL0     H 4622   9.199   8.868  10.226  0.1016 -3.1943 -1.7229
  793MOL0     H 4623   9.012   9.016  10.187  0.1060  1.5035 -0.4332
  793MOL0     H 4624   9.033   8.877  10.079 -0.6970 -1.1202  2.6771
  793MOL0     H 4625   9.150   9.139  10.000  1.2637 -0.7478 -1.8520
  793MOL0     H 4626   9.095   9.018   9.889  4.6450 -0.1205  0.5182
  793MOL0     H 4627   8.921   9.184   9.885  0.7483 -0.4958  0.6861
  793MOL0     H 4628   8.903   9.176  10.071  2.4290 -2.1702  1.1505
  793MOL0     H 4629   8.743   8.988  10.141  1.7840 -2.5671  1.1914
  793MOL0     H 4630   8.663   8.653   9.987  4.3151  0.9969  1.3164
  793MOL0     H 4631   8.540   8.776  10.044  0.4236  0.3255  1.9210
  793MOL0     H 4632   8.685   8.782  10.261  0.0895 -0.6662  0.8878
  793MOL0     H 4633   8.763   8.640  10.198 -0.6877 -1.6437  0.5931
  793MOL0     H 4634   8.548   8.518  10.198 -1.5740 -0.4248  2.1608
  793MOL0     H 4635   8.604   8.559  10.348  1.0959 -0.8869 -1.2638
  793MOL0     H 4636   8.367   8.612  10.309  1.1756 -1.7569 -1.6672
  793MOL0     H 4637   8.390   8.705  10.167 -1.1257 -0.5989 -0.1027
  793MOL0     H 4638   8.266   8.771  10.461  0.4789  0.1904  0.9713
  793MOL0     H 4639   8.056   8.895  10.465 -0.6201 -2.8911 -1.5906
  793MOL0     H 4640   8.068   9.474  10.264 -0.4140 -0.9182  5.2357
  793MOL0     H 4641   7.931   9.662  10.238  0.7608 -0.2548 -1.6444
  793MOL0     H 4642   7.819   9.818  10.295 -1.6619  2.9212  0.7145
  793MOL0     H 4643   7.803   9.728  10.451  1.9764 -2.7017 -2.7594
  793MOL0     H 4644   7.616   9.946  10.341 -1.8307 -3.7195  0.0421
  793MOL0     H 4645   7.737   9.990  10.454 -1.7177  1.0547  1.0265
  793MOL0     H 4646   7.632   9.840  10.627 -0.3588  2.3464 -0.0209
  793MOL0     H 4647   7.497   9.807  10.521 -4.0534  2.2456  2.4453
  793MOL0     H 4648   7.576  10.085  10.624  2.4652 -2.6794  2.6497
  793MOL0     H 4649   7.443  10.038  10.507 -2.1602  0.2351  2.0463
  793MOL0     H 4650   7.494   9.953  10.806  1.8413 -1.5156 -1.3076
  793MOL0     H 4651   7.382   9.870  10.697 -0.2811  0.4862 -2.5625
  793MOL0     H 4652   7.351  10.170  10.733  4.1779 -2.5049 -0.7406
  793MOL0     H 4653   7.292  10.070  10.868  1.8499 -1.5526  0.6314
  793MOL0     H 4654   7.190  10.110  10.583 -1.0663  0.3284  0.2091
  793MOL0     H 4655   7.177   9.943  10.635 -2.1118 -0.1282 -0.1982
  793MOL0     H 4656   6.990  10.169  10.690 -0.2592  1.7792  4.3445
  793MOL0     H 4657   7.077  10.153  10.827  1.9769  1.9374 -2.4109
  793MOL0     H 4658   7.569   9.431  10.294 -0.5131 -0.0093 -0.7933
  793MOL0     H 4659   7.715   9.229  10.261  1.8724  0.1631  0.0993
  793MOL0     H 4660   8.234   9.170  10.176  0.5193 -1.1082 -2.2724
  793MOL0     H 4661   8.440   9.038  10.177 -1.3242  1.0524 -0.1347
  793MOL0     H 4662   9.193   8.432   9.567  2.0552  2.0424  0.6748
  793MOL0     H 4663   9.186   8.196   9.480 -0.0097 -0.7235  0.3888
  793MOL0     H 4664   9.451   7.916   9.085 -2.3975  0.0549  0.5390
  793MOL0     H 4665   9.541   7.707   9.019  2.8033 -1.4224  0.8936
  793MOL0     H 4666   9.688   7.455   9.322  1.9527  1.3796 -1.0167
  793MOL0     H 4667   9.755   7.479   9.154  2.0621 -2.3402 -0.2662
  793MOL0     H 4668   9.739   7.254   9.281  0.7652  2.2359  1.9662
  793MOL0     H 4669   9.574   7.266   9.267 -0.5850  4.6830  1.7617
  793MOL0     H 4670   9.783   7.210   9.060 -0.5787  2.1413 -0.3634
  793MOL0     H 4671   9.636   7.279   8.997 -3.1998  2.5286  3.5734
  793MOL0     H 4672   9.658   7.039   9.193 -1.1816 -1.3625  0.4128
  793MOL0     H 4673   9.513   7.093   9.098 -0.5300 -2.8015 -1.7120
  793MOL0     H 4674   9.663   6.863   8.797 -2.9396 -1.1257 -0.1693
  793MOL0     H 4675   9.497   7.556   9.417 -2.1170 -1.8515 -1.3439
  793MOL0     H 4676   9.414   7.789   9.488 -0.8183  2.8979 -0.1453
  794MOL0     O 4677   8.276   1.369   7.981 -0.1550 -0.0558  0.0128
  794MOL0     C 4678   8.157   1.371   8.018  0.7265 -0.3487  0.7296
  794MOL0     O 4679   8.060   1.297   7.957 -0.5170  0.4267  0.9623
  794MOL0     C 4680   8.083   1.198   7.863 -1.0578  0.1805 -0.4645
  794MOL0     C 4681   8.192   1.112   7.874  0.1897  0.3685  1.3080
  794MOL0     C 4682   8.207   1.004   7.792  0.6607  0.6504  0.6699
  794MOL0     C 4683   8.117   0.975   7.691 -0.9357  0.6150  0.9382
  794MOL0     O 4684   8.138   0.879   7.597  0.4480  0.1358  1.0021
  794MOL0     C 4685   8.239   0.787   7.626  0.6358  0.5798 -0.9039
  794MOL0     C 4686   8.252   0.689   7.508  0.0148  0.1631  0.9510
  794MOL0     C 4687   8.360   0.588   7.522  0.1553 -0.4853 -0.5734
  794MOL0     C 4688   8.361   0.490   7.637 -0.8069  0.4975 -0.4981
  794MOL0     C 4689   8.452   0.372   7.603 -0.1551 -0.8436 -0.2873
  794MOL0     C 4690   8.606   0.418   7.595  0.4971  0.5275 -0.3675
  794MOL0     C 4691   8.693   0.296   7.648 -0.1030 -0.9323  0.1687
  794MOL0     C 4692   8.751   0.205   7.533 -0.0133 -0.2155 -0.4325
  794MOL0     N 4693   8.847   0.105   7.578  0.5912  0.0460  0.5408
  794MOL0     C 4694   8.834  -0.025   7.605 -0.6498 -0.6550  0.2683
  794MOL0     C 4695   8.960  -0.064   7.637 -0.0312 -0.1647 -0.3020
  794MOL0     C 4696   9.022  -0.186   7.692  0.1002  0.7587 -1.0013
  794MOL0     C 4697   9.127  -0.245   7.590 -0.2287 -0.1725 -0.8430
  794MOL0     C 4698   9.159  -0.391   7.632 -0.1498  0.0993  0.3582
  794MOL0     C 4699   9.271  -0.446   7.546  0.1350  0.4156  0.1350
  794MOL0     O 4700   9.343  -0.542   7.625  0.3078  0.6101 -0.3536
  794MOL0     C 4701   9.294  -0.674   7.631  0.1299 -0.0602 -0.1103
  794MOL0     C 4702   9.166  -0.720   7.590 -0.6032  0.3340 -0.6150
  794MOL0     C 4703   9.121  -0.847   7.605 -0.3135  0.3262  1.2054
  794MOL0     C 4704   9.212  -0.940   7.661  0.1591 -0.6840 -0.8237
  794MOL0     C 4705   9.182  -1.078   7.652 -0.3262  0.2065  0.0873
  794MOL0     O 4706   9.253  -1.171   7.721 -0.3023  0.2095  0.4474
  794MOL0     C 4707   9.185  -1.298   7.733  0.6165 -0.0064  0.5062
  794MOL0     C 4708   9.068  -1.297   7.813  0.5536 -0.4429 -0.5975
  794MOL0     C 4709   9.013  -1.419   7.844 -0.9745  0.4580 -1.0331
  794MOL0     C 4710   9.071  -1.545   7.802  1.0315  0.6658 -0.9874
  794MOL0     O 4711   9.000  -1.653   7.854 -0.8060 -0.8730 -0.1366
  794MOL0     C 4712   9.007  -1.779   7.782 -0.6710  0.5819 -0.2238
  794MOL0     C 4713   8.876  -1.865   7.792 -0.0356 -0.0756 -0.8924
  794MOL0     C 4714   8.829  -1.959   7.673 -0.5232 -0.4660 -0.1730
  794MOL0     C 4715   8.737  -2.072   7.713  0.2375 -0.4299  0.3623
  794MOL0     C 4716   8.710  -2.164   7.594  0.1977 -0.1310  0.7237
  794MOL0     C 4717   8.584  -2.234   7.623  0.0257  0.2683  0.5448
  794MOL0     C 4718   8.584  -2.313   7.747  0.5214  0.0960  0.0317
  794MOL0     C 4719   8.458  -2.396   7.761  0.7816  0.4765  0.4679
  794MOL0    Cl 4720   8.318  -2.285   7.831  0.3088  0.2299 -0.0385
  794MOL0     C 4721   9.177  -1.545   7.719  1.0003 -0.6866 -0.5765
  794MOL0     C 4722   9.238  -1.423   7.687 -0.1545  0.3320  0.3168
  794MOL0     O 4723   9.094  -1.103   7.572  0.2705  0.5586  0.3918
  794MOL0     C 4724   9.328  -0.896   7.720 -0.1669  0.3288 -0.4706
  794MOL0     C 4725   9.368  -0.768   7.711  0.3451 -0.1809 -0.1654
  794MOL0     N 4726   9.044   0.040   7.612 -0.3297 -0.4674  0.1918
  794MOL0     N 4727   8.979   0.139   7.569 -0.6378  0.2413  0.3833
  794MOL0     C 4728   8.010   1.051   7.677  0.2126  0.3431 -0.4664
  794MOL0     C 4729   7.987   1.161   7.762  0.7359  0.3882  0.1666
  794MOL0     C 4730   8.116   1.477   8.108 -0.5911  0.6152  0.0587
  794MOL0     C 4731   7.984   1.481   8.163 -0.0648 -0.2218  0.2156
  794MOL0     C 4732   7.940   1.590   8.241 -0.4162  0.0016  0.2209
  794MOL0     C 4733   8.033   1.696   8.273 -0.2297  1.0744  0.2068
  794MOL0     O 4734   7.988   1.803   8.349 -0.0546 -0.2048 -0.6830
  794MOL0     C 4735   8.069   1.926   8.349 -0.2997  0.1367  0.7162
  794MOL0     C 4736   8.045   1.999   8.225 -0.0716  0.4622 -0.0396
  794MOL0     C 4737   8.106   2.141   8.218 -1.3252  0.1655  0.5451
  794MOL0     C 4738   8.056   2.208   8.088  0.2367 -0.4004  0.5860
  794MOL0     C 4739   8.133   2.332   8.044 -0.1859  0.5110 -0.5299
  794MOL0     C 4740   8.200   2.429   8.000  0.1121 -0.4271 -0.6433
  794MOL0     C 4741   8.160   1.683   8.222 -0.1947 -0.1688  0.0346
  794MOL0     C 4742   8.201   1.579   8.141 -0.6968  0.2904 -0.7964
  794MOL0     H 4743   8.271   1.129   7.946  0.2317  0.3024  1.2780
  794MOL0     H 4744   8.299   0.947   7.807  0.6973  0.5842  0.2174
  794MOL0     H 4745   8.239   0.742   7.725  2.6293 -0.7323 -1.4462
  794MOL0     H 4746   8.332   0.842   7.612  2.0040 -1.8768 -2.3028
  794MOL0     H 4747   8.280   0.753   7.425  0.3469 -1.3000 -0.1083
  794MOL0     H 4748   8.155   0.640   7.499 -0.6743  1.7752 -0.9752
  794MOL0     H 4749   8.455   0.639   7.506 -1.4380  2.5838 -0.8899
  794MOL0     H 4750   8.332   0.538   7.429 -1.4540 -1.2793  0.2958
  794MOL0     H 4751   8.385   0.548   7.727  0.1751  2.8773 -2.1762
  794MOL0     H 4752   8.259   0.460   7.659 -1.0687 -0.2596 -2.5933
  794MOL0     H 4753   8.407   0.333   7.511 -2.2520  0.7014  0.0181
  794MOL0     H 4754   8.432   0.314   7.693  0.1245  2.9176  2.4370
  794MOL0     H 4755   8.631   0.498   7.665 -0.8122  4.5481 -4.0769
  794MOL0     H 4756   8.634   0.450   7.495  2.0159 -2.4577 -1.0415
  794MOL0     H 4757   8.781   0.335   7.700 -2.1156  0.8981  2.4570
  794MOL0     H 4758   8.640   0.238   7.724  0.3092  0.2026  1.3616
  794MOL0     H 4759   8.791   0.279   7.463 -0.8580  0.9050  0.2477
  794MOL0     H 4760   8.676   0.156   7.469 -1.6443  5.2780 -3.3621
  794MOL0     H 4761   8.746  -0.083   7.631  1.0744 -2.3232  2.8951
  794MOL0     H 4762   8.944  -0.261   7.707  0.4471  0.7677  1.1422
  794MOL0     H 4763   9.073  -0.168   7.787 -1.9119  0.3428  0.2068
  794MOL0     H 4764   9.212  -0.176   7.598 -1.4745  1.2890  0.8345
  794MOL0     H 4765   9.084  -0.232   7.490  2.3501 -1.2586 -2.1934
  794MOL0     H 4766   9.184  -0.394   7.738 -2.0058  1.5425  0.8850
  794MOL0     H 4767   9.074  -0.453   7.602  0.4320  0.2560 -1.7713
  794MOL0     H 4768   9.339  -0.364   7.524 -0.9157  2.0081  2.3545
  794MOL0     H 4769   9.245  -0.480   7.446  1.2268  0.8838 -0.3145
  794MOL0     H 4770   9.101  -0.658   7.529 -2.3379  0.3770  1.1430
  794MOL0     H 4771   9.024  -0.882   7.574 -2.1055  3.1310  3.1811
  794MOL0     H 4772   9.008  -1.209   7.835  1.6130  0.2516 -0.3910
  794MOL0     H 4773   8.935  -1.429   7.919  2.2944  1.9209  2.9036
  794MOL0     H 4774   9.093  -1.837   7.817 -3.1555 -3.1332  0.3638
  794MOL0     H 4775   9.018  -1.749   7.678 -2.1573  0.4091 -0.4582
  794MOL0     H 4776   8.802  -1.793   7.825  0.9127  0.4809  0.0704
  794MOL0     H 4777   8.897  -1.931   7.876 -1.3715 -1.0930 -1.3166
  794MOL0     H 4778   8.916  -2.001   7.623  2.6185  2.9544  1.8998
  794MOL0     H 4779   8.780  -1.894   7.599  2.1660  0.8565 -0.9090
  794MOL0     H 4780   8.772  -2.127   7.801 -2.4098 -0.8400  1.2514
  794MOL0     H 4781   8.642  -2.024   7.738  0.0419 -1.7417  2.3923
  794MOL0     H 4782   8.789  -2.235   7.567 -0.1456  0.6301 -2.7672
  794MOL0     H 4783   8.707  -2.104   7.503  1.0438 -0.2085  0.6421
  794MOL0     H 4784   8.549  -2.302   7.545  0.6339 -2.3009  2.3696
  794MOL0     H 4785   8.502  -2.168   7.650 -3.2173 -2.6052 -1.4681
  794MOL0     H 4786   8.661  -2.391   7.737  2.3974  2.0132 -1.3954
  794MOL0     H 4787   8.600  -2.254   7.838  1.5935  2.2120 -1.4430
  794MOL0     H 4788   8.462  -2.486   7.823 -5.0137 -0.4121  0.1557
  794MOL0     H 4789   8.438  -2.432   7.660 -0.0610  0.4288  0.6411
  794MOL0     H 4790   9.212  -1.636   7.671 -2.1934 -1.1266 -2.3051
  794MOL0     H 4791   9.337  -1.423   7.641 -1.1658  0.1813 -2.0036
  794MOL0     H 4792   9.387  -0.965   7.780 -0.8595  1.3804  1.5016
  794MOL0     H 4793   9.456  -0.728   7.760  0.1221  1.3457 -0.9523
  794MOL0     H 4794   7.953   1.032   7.587 -1.6075  1.9931  0.2677
  794MOL0     H 4795   7.895   1.211   7.735  1.1637  0.1452 -1.9163
  794MOL0     H 4796   7.904   1.411   8.142 -3.2864  3.5679 -1.3776
  794MOL0     H 4797   7.842   1.585   8.288  0.3507  2.4899  2.3026
  794MOL0     H 4798   8.174   1.906   8.372 -0.8160 -0.9881  2.2716
  794MOL0     H 4799   8.016   1.977   8.431 -2.1570 -0.5257 -0.0262
  794MOL0     H 4800   8.067   1.934   8.140 -3.3716  0.5557 -1.0985
  794MOL0     H 4801   7.936   2.006   8.214 -0.0283  0.8608 -0.2074
  794MOL0     H 4802   8.215   2.134   8.223 -1.2729  1.4685  1.9435
  794MOL0     H 4803   8.074   2.190   8.310 -0.5249  1.2828  0.2498
  794MOL0     H 4804   8.053   2.141   8.001 -2.3365  3.3707 -2.5879
  794MOL0     H 4805   7.953   2.240   8.101  0.0844 -1.5653  2.7489
  794MOL0     H 4806   8.263   2.511   7.974 -2.6475  1.5197 -1.6393
  794MOL0     H 4807   8.233   1.763   8.226 -2.1570  1.6848  0.7336
  794MOL0     H 4808   8.305   1.582   8.112  1.5250  1.1098  5.7239
  795MOL0     O 4809   4.243   4.865   4.661  0.3807 -0.6434 -0.0368
  795MOL0     C 4810   4.291   4.833   4.547  0.5806 -0.6362 -0.6354
  795MOL0     O 4811   4.223   4.828   4.431  0.3465 -0.3559  0.4256
  795MOL0     C 4812   4.097   4.869   4.417  1.2120  0.9671 -0.6693
  795MOL0     C 4813   4.030   4.824   4.302 -0.2862 -0.5254 -0.3556
  795MOL0     C 4814   3.899   4.856   4.281 -0.5394  0.2855  0.4189
  795MOL0     C 4815   3.824   4.940   4.375  0.4445  0.5941  0.2752
  795MOL0     O 4816   3.696   4.990   4.349 -0.2715  0.5715  0.3040
  795MOL0     C 4817   3.595   4.893   4.324  0.7880  0.1179  0.2208
  795MOL0     C 4818   3.456   4.952   4.346  0.7418  0.3858 -0.7564
  795MOL0     C 4819   3.407   5.041   4.235  0.4456 -0.4353 -0.2926
  795MOL0     C 4820   3.259   5.040   4.210  0.7868 -0.2767  0.1646
  795MOL0     C 4821   3.202   5.168   4.136 -0.2612  0.6354 -0.3199
  795MOL0     C 4822   3.156   5.271   4.230  0.7031  0.0588 -0.2884
  795MOL0     C 4823   3.049   5.232   4.335 -0.7016  0.8182  0.3034
  795MOL0     C 4824   3.028   5.332   4.441  0.5574 -0.5836 -0.7974
  795MOL0     N 4825   2.900   5.328   4.510 -0.2063 -0.3325 -0.0997
  795MOL0     C 4826   2.775   5.367   4.460 -0.9196 -0.2262  0.0125
  795MOL0     C 4827   2.688   5.380   4.557 -0.9794  0.3395 -0.9061
  795MOL0     C 4828   2.547   5.433   4.554 -0.4369 -0.1155  0.8421
  795MOL0     C 4829   2.522   5.561   4.477 -0.4119 -0.3182  0.3615
  795MOL0     C 4830   2.602   5.687   4.512 -0.3853  0.2419  0.2659
  795MOL0     C 4831   2.618   5.734   4.657  0.3607  0.1707 -0.6208
  795MOL0     O 4832   2.483   5.762   4.694 -0.3327  0.0881  0.2683
  795MOL0     C 4833   2.470   5.789   4.824  1.0074 -0.2925 -0.4054
  795MOL0     C 4834   2.569   5.849   4.901  0.2193 -0.0990  0.1315
  795MOL0     C 4835   2.550   5.844   5.047 -0.3240 -0.6799 -0.0091
  795MOL0     C 4836   2.424   5.824   5.103  0.6376 -0.1536  0.8382
  795MOL0     C 4837   2.401   5.829   5.251  0.2542 -0.1629 -0.1399
  795MOL0     O 4838   2.273   5.800   5.284 -1.2682  0.6466  0.3039
  795MOL0     C 4839   2.256   5.786   5.416  0.0714 -0.2297  0.5515
  795MOL0     C 4840   2.195   5.892   5.498 -0.5597  0.5174 -0.2455
  795MOL0     C 4841   2.168   5.864   5.624  0.1239  0.5410 -0.2772
  795MOL0     C 4842   2.194   5.739   5.692 -0.6386  0.3812  0.1199
  795MOL0     O 4843   2.164   5.716   5.828  0.5781 -0.8221  0.3532
  795MOL0     C 4844   2.109   5.823   5.904  0.6004 -0.5750  0.7485
  795MOL0     C 4845   2.210   5.918   5.958 -0.1208  0.0891  0.2880
  795MOL0     C 4846   2.151   6.010   6.070  0.2803 -0.1166 -0.2142
  795MOL0     C 4847   2.266   6.094   6.137 -0.7855  0.5581  0.9068
  795MOL0     C 4848   2.218   6.181   6.247  0.5596 -0.1812  0.1965
  795MOL0     C 4849   2.202   6.109   6.382  0.5204  0.0856  0.0469
  795MOL0     C 4850   2.082   6.184   6.470 -0.4201 -0.5430 -0.5342
  795MOL0     C 4851   2.069   6.106   6.600 -0.3070 -0.3722 -0.4020
  795MOL0    Cl 4852   2.233   6.095   6.684  0.1173 -0.5248  0.4819
  795MOL0     C 4853   2.258   5.642   5.610  0.3616  0.0017 -0.2869
  795MOL0     C 4854   2.295   5.662   5.479  0.3104 -0.8352 -0.2911
  795MOL0     O 4855   2.493   5.842   5.333 -0.0806 -0.3151  0.2664
  795MOL0     C 4856   2.315   5.786   5.011 -0.2099  0.1191  0.1748
  795MOL0     C 4857   2.337   5.775   4.878  0.5817 -0.5981 -0.0033
  795MOL0     N 4858   2.759   5.349   4.676  0.1115 -0.2145  0.0274
  795MOL0     N 4859   2.882   5.320   4.646 -0.4210 -0.2836 -0.9016
  795MOL0     C 4860   3.888   5.003   4.477 -0.7744 -0.0223  1.3487
  795MOL0     C 4861   4.022   4.965   4.499  0.7768 -0.4549  0.0979
  795MOL0     C 4862   4.440   4.791   4.548 -0.3327  0.4256 -0.2877
  795MOL0     C 4863   4.495   4.728   4.665  0.0657 -0.6383 -0.3596
  795MOL0     C 4864   4.632   4.683   4.663 -0.2502  0.4205  0.2469
  795MOL0     C 4865   4.705   4.678   4.545 -0.2544 -0.4042 -0.5250
  795MOL0     O 4866   4.835   4.630   4.550  0.3881  0.4371 -0.3459
  795MOL0     C 4867   4.918   4.667   4.439 -0.8513  0.2108 -0.4177
  795MOL0     C 4868   5.054   4.642   4.492 -0.5088 -0.7914 -0.1138
  795MOL0     C 4869   5.164   4.672   4.392  0.4726 -0.5047  0.7298
  795MOL0     C 4870   5.301   4.619   4.432  0.2498 -0.2687  0.0593
  795MOL0     C 4871   5.409   4.688   4.357 -0.3147 -0.1216  0.1304
  795MOL0     C 4872   5.496   4.733   4.286 -0.7823  0.2333  0.4900
  795MOL0     C 4873   4.646   4.732   4.425 -0.0606  0.2071 -0.8121
  795MOL0     C 4874   4.520   4.792   4.432  0.7136  1.0129  0.3609
  795MOL0     H 4875   4.090   4.750   4.249  1.5147 -1.3659  2.5863
  795MOL0     H 4876   3.869   4.789   4.201 -0.4085 -0.4869  1.0132
  795MOL0     H 4877   3.612   4.808   4.391  1.9354 -0.1664 -0.4057
  795MOL0     H 4878   3.605   4.852   4.223 -1.1007 -1.5300  0.6384
  795MOL0     H 4879   3.434   4.981   4.449 -0.5153 -0.5121 -0.7414
  795MOL0     H 4880   3.395   4.861   4.341  2.5908 -0.8784 -1.7762
  795MOL0     H 4881   3.447   5.003   4.141  0.5036  0.5033 -0.6539
  795MOL0     H 4882   3.428   5.147   4.248  0.2764 -0.5972  1.6799
  795MOL0     H 4883   3.235   4.955   4.145 -1.0146  0.6878 -0.4838
  795MOL0     H 4884   3.206   5.008   4.300 -0.5293 -4.0366 -1.7146
  795MOL0     H 4885   3.115   5.123   4.087  0.1628 -0.3142 -0.2012
  795MOL0     H 4886   3.272   5.216   4.066 -0.5688  2.2558  0.4262
  795MOL0     H 4887   3.122   5.359   4.175  0.5326  1.0313  1.3099
  795MOL0     H 4888   3.246   5.306   4.282  1.0441  2.3119 -2.2333
  795MOL0     H 4889   2.956   5.206   4.284  0.7462 -2.4081 -1.0229
  795MOL0     H 4890   3.071   5.138   4.386 -1.0916  1.6128  1.9935
  795MOL0     H 4891   3.023   5.432   4.397 -2.0424  0.4776  1.6340
  795MOL0     H 4892   3.117   5.349   4.502 -1.0720 -0.1784  1.6151
  795MOL0     H 4893   2.731   5.382   4.362 -1.6709  1.6130  0.5778
  795MOL0     H 4894   2.516   5.441   4.659  0.4172 -3.0217  1.4276
  795MOL0     H 4895   2.477   5.352   4.527 -2.3140  2.4078 -2.6675
  795MOL0     H 4896   2.414   5.579   4.480 -0.4462 -0.4538  3.6591
  795MOL0     H 4897   2.538   5.546   4.370 -0.8619  1.6849 -0.0270
  795MOL0     H 4898   2.704   5.688   4.472  0.4632  0.8533  2.3392
  795MOL0     H 4899   2.557   5.765   4.450  0.1274  0.0529 -0.3631
  795MOL0     H 4900   2.684   5.820   4.641  0.6038 -0.0097 -0.5998
  795MOL0     H 4901   2.667   5.667   4.728  1.6492 -0.3841 -1.9836
  795MOL0     H 4902   2.671   5.869   4.870  0.5969 -1.7956  0.2075
  795MOL0     H 4903   2.636   5.868   5.109 -0.3908 -0.9501  0.1880
  795MOL0     H 4904   2.161   5.985   5.454  0.2600  1.0903  0.2942
  795MOL0     H 4905   2.123   5.946   5.680 -1.9312 -0.6068 -0.1604
  795MOL0     H 4906   2.066   5.772   5.991  0.9166 -0.9699  0.6717
  795MOL0     H 4907   2.041   5.883   5.842  0.4547  1.1107  2.4256
  795MOL0     H 4908   2.235   5.976   5.869 -1.0925 -2.1521 -1.5325
  795MOL0     H 4909   2.289   5.853   5.997 -0.6826 -1.1135 -0.5190
  795MOL0     H 4910   2.097   5.945   6.138  0.2492  1.2442  1.1099
  795MOL0     H 4911   2.083   6.083   6.023 -0.4656 -0.5418  0.1927
  795MOL0     H 4912   2.334   6.016   6.175 -2.2253 -2.1907 -1.6936
  795MOL0     H 4913   2.329   6.144   6.063 -0.8042 -0.4060  0.2157
  795MOL0     H 4914   2.117   6.211   6.217 -0.2854 -0.9968  2.0780
  795MOL0     H 4915   2.281   6.270   6.255 -0.1393  0.2112  1.6300
  795MOL0     H 4916   2.297   6.112   6.435  0.2258 -0.1948  0.5993
  795MOL0     H 4917   2.153   6.015   6.354 -0.5039  1.1785 -2.0765
  795MOL0     H 4918   2.116   6.284   6.495  0.6061 -1.5315  2.5056
  795MOL0     H 4919   1.987   6.191   6.417 -0.2005 -1.3090 -1.0440
  795MOL0     H 4920   2.034   6.007   6.571  0.1444 -0.6591  0.0205
  795MOL0     H 4921   2.001   6.152   6.671 -0.2153  0.9782 -1.1422
  795MOL0     H 4922   2.271   5.547   5.660 -1.0761  0.6035  1.3211
  795MOL0     H 4923   2.345   5.585   5.420  2.3175  0.2293 -0.0709
  795MOL0     H 4924   2.216   5.764   5.050 -0.1805 -2.8611 -1.2268
  795MOL0     H 4925   2.255   5.751   4.812 -1.5212  2.6907  1.1793
  795MOL0     H 4926   3.848   5.079   4.544 -0.6507 -0.0060  1.4042
  795MOL0     H 4927   4.067   5.017   4.583 -3.8008  2.1203  1.3231
  795MOL0     H 4928   4.443   4.731   4.760  0.5626  5.7750  0.1442
  795MOL0     H 4929   4.676   4.639   4.752 -1.4673 -3.2867 -0.7971
  795MOL0     H 4930   4.898   4.769   4.407  1.6591  0.3393 -1.8479
  795MOL0     H 4931   4.909   4.602   4.352 -2.0495 -0.2846  0.0513
  795MOL0     H 4932   5.069   4.701   4.583 -1.1330  0.2414 -0.6627
  795MOL0     H 4933   5.059   4.538   4.527 -0.4492 -0.0247  2.3845
  795MOL0     H 4934   5.187   4.776   4.369  4.1493 -1.2317  0.3507
  795MOL0     H 4935   5.140   4.622   4.297  2.1503 -1.2651  0.6632
  795MOL0     H 4936   5.304   4.630   4.541  1.2080  0.9713 -0.0776
  795MOL0     H 4937   5.297   4.515   4.397 -1.0835 -0.5235  0.9047
  795MOL0     H 4938   5.572   4.759   4.215 -1.3213 -2.0345 -1.0389
  795MOL0     H 4939   4.686   4.732   4.324  1.1401 -1.7107 -0.3993
  795MOL0     H 4940   4.476   4.820   4.336  0.3445 -0.4865  0.0743
  796MOL0     O 4941   8.847   8.440   5.216 -0.7173 -0.1723 -0.1605
  796MOL0     C 4942   8.798   8.361   5.137 -1.2515  1.1509  0.3444
  796MOL0     O 4943   8.863   8.246   5.090  0.1688  0.2675 -0.6488
  796MOL0     C 4944   8.963   8.202   5.176  0.2080  0.3027  0.7787
  796MOL0     C 4945   9.087   8.268   5.172 -0.3306 -0.2137  0.9808
  796MOL0     C 4946   9.186   8.246   5.266  1.0502 -0.0026  0.4398
  796MOL0     C 4947   9.163   8.147   5.359 -0.7535 -0.8130 -0.5275
  796MOL0     O 4948   9.262   8.130   5.450 -0.2509  0.7858 -0.1387
  796MOL0     C 4949   9.373   8.038   5.429  0.8258 -0.5340  0.8054
  796MOL0     C 4950   9.423   7.986   5.570 -0.0250  0.0315  0.7735
  796MOL0     C 4951   9.525   7.873   5.562  0.0575 -0.4737 -0.2253
  796MOL0     C 4952   9.573   7.830   5.706  0.1992  0.4439  1.0629
  796MOL0     C 4953   9.447   7.813   5.806  0.3171 -0.6949  0.4931
  796MOL0     C 4954   9.493   7.726   5.919 -1.6636 -0.0703  1.2635
  796MOL0     C 4955   9.389   7.690   6.031 -0.5541 -0.6572 -0.0084
  796MOL0     C 4956   9.262   7.614   5.981  0.2024  0.0621 -0.4612
  796MOL0     N 4957   9.307   7.483   5.933 -0.5545 -0.6605 -0.7578
  796MOL0     C 4958   9.341   7.371   6.011 -0.3044 -0.5398 -0.0721
  796MOL0     C 4959   9.369   7.275   5.915 -1.2643 -0.6348  0.1666
  796MOL0     C 4960   9.402   7.139   5.932 -0.0725 -0.0050  0.4379
  796MOL0     C 4961   9.289   7.070   5.997 -1.0340  0.3192  0.2284
  796MOL0     C 4962   9.346   6.930   6.028  0.0281  0.0056 -0.3823
  796MOL0     C 4963   9.237   6.832   6.039  0.4037  0.1411  0.5969
  796MOL0     O 4964   9.154   6.856   6.159  0.2841 -0.4815 -0.6606
  796MOL0     C 4965   9.045   6.762   6.176  0.6871 -0.2771  0.9251
  796MOL0     C 4966   9.022   6.646   6.106 -0.0119  0.0823  0.1479
  796MOL0     C 4967   8.916   6.563   6.136 -0.0294 -0.4610  1.1007
  796MOL0     C 4968   8.820   6.612   6.223 -0.0761 -0.9346  0.3304
  796MOL0     C 4969   8.692   6.540   6.248  0.2475  0.0693 -0.5783
  796MOL0     O 4970   8.616   6.574   6.350  0.0131  0.3166  0.2744
  796MOL0     C 4971   8.483   6.544   6.366  0.3296  0.6592  0.1442
  796MOL0     C 4972   8.394   6.612   6.288  0.2323 -0.5423  0.4927
  796MOL0     C 4973   8.258   6.599   6.308  0.4739  0.6261  0.0001
  796MOL0     C 4974   8.205   6.510   6.406 -0.8087  0.0224  0.3897
  796MOL0     O 4975   8.075   6.499   6.421  0.3559 -0.5632 -0.3986
  796MOL0     C 4976   7.994   6.470   6.308  0.2434 -0.9987  0.6020
  796MOL0     C 4977   7.848   6.454   6.338  0.4207 -0.5577  0.1143
  796MOL0     C 4978   7.777   6.583   6.397  1.2522 -0.5516  0.4462
  796MOL0     C 4979   7.643   6.545   6.463 -0.1283 -0.2153  0.0142
  796MOL0     C 4980   7.575   6.681   6.507 -0.5996  0.1022 -0.1718
  796MOL0     C 4981   7.453   6.665   6.598 -0.4579 -1.0091  0.0782
  796MOL0     C 4982   7.479   6.633   6.745 -0.4225 -0.9356 -0.1685
  796MOL0     C 4983   7.363   6.644   6.842  0.5209 -0.1747 -0.2774
  796MOL0    Cl 4984   7.421   6.646   7.012  0.2958 -0.2345 -0.0313
  796MOL0     C 4985   8.303   6.434   6.483 -0.1374  1.1279 -0.0493
  796MOL0     C 4986   8.438   6.460   6.473  0.0004 -1.0533  0.7345
  796MOL0     O 4987   8.663   6.457   6.162  0.4675 -0.2504  0.1349
  796MOL0     C 4988   8.830   6.732   6.283 -0.2323 -0.5868  0.3203
  796MOL0     C 4989   8.943   6.800   6.264 -0.6569  0.1532  0.7462
  796MOL0     N 4990   9.361   7.334   5.789 -0.3357 -0.1473  0.4354
  796MOL0     N 4991   9.316   7.453   5.801  0.5101  0.5833  0.3224
  796MOL0     C 4992   9.045   8.068   5.355  0.0189 -0.0084 -0.0196
  796MOL0     C 4993   8.942   8.106   5.271 -0.6363 -0.2744 -0.6193
  796MOL0     C 4994   8.666   8.389   5.100 -0.4649 -0.1232 -0.2468
  796MOL0     C 4995   8.610   8.321   4.991  0.0178  0.0761 -0.9334
  796MOL0     C 4996   8.474   8.331   4.956  0.1367  0.2134  0.2971
  796MOL0     C 4997   8.390   8.415   5.039  0.3174 -1.2871  0.6177
  796MOL0     O 4998   8.261   8.428   5.012  0.2224  0.9007  0.7762
  796MOL0     C 4999   8.168   8.339   5.082  1.0214 -0.4503 -0.0867
  796MOL0     C 5000   8.146   8.201   5.024 -0.1745 -0.6321  0.2196
  796MOL0     C 5001   8.061   8.108   5.113 -0.8924 -0.3320  0.1623
  796MOL0     C 5002   7.929   8.165   5.137 -0.2497  0.4224  0.4022
  796MOL0     C 5003   7.851   8.193   5.013  0.0140 -0.2907  0.2053
  796MOL0     C 5004   7.785   8.238   4.917  0.8348 -0.2382 -0.3469
  796MOL0     C 5005   8.444   8.478   5.147  0.3623 -0.4402  0.0408
  796MOL0     C 5006   8.580   8.464   5.179 -0.4052  0.1629  0.2451
  796MOL0     H 5007   9.098   8.332   5.086 -1.0446 -1.1818  0.1422
  796MOL0     H 5008   9.278   8.303   5.277  1.4472 -0.6998  0.8560
  796MOL0     H 5009   9.456   8.094   5.385  0.4603  0.7227  1.6536
  796MOL0     H 5010   9.342   7.954   5.365  0.5653 -0.4181  0.7792
  796MOL0     H 5011   9.342   7.947   5.633  1.3976 -2.0091  1.4320
  796MOL0     H 5012   9.462   8.080   5.611  0.6421  2.0936 -3.9529
  796MOL0     H 5013   9.609   7.896   5.496 -0.5885  0.5958 -0.6949
  796MOL0     H 5014   9.468   7.788   5.522 -2.6938 -0.6275  3.4971
  796MOL0     H 5015   9.636   7.741   5.693 -0.3360  0.1914  0.0898
  796MOL0     H 5016   9.645   7.908   5.732  0.3106  2.1267 -3.4289
  796MOL0     H 5017   9.362   7.769   5.753 -1.7228  2.0294  1.2495
  796MOL0     H 5018   9.414   7.911   5.844 -2.6126 -1.4441  0.1084
  796MOL0     H 5019   9.571   7.790   5.962  0.2306 -1.2455 -0.2752
  796MOL0     H 5020   9.540   7.636   5.880  3.2423  1.9217  1.8672
  796MOL0     H 5021   9.416   7.639   6.124 -3.5139 -1.1480  0.6998
  796MOL0     H 5022   9.352   7.789   6.060 -0.0717 -0.0673 -1.3366
  796MOL0     H 5023   9.210   7.663   5.899  1.9941 -0.3331 -1.8834
  796MOL0     H 5024   9.184   7.600   6.057  1.0726 -1.8153  0.1555
  796MOL0     H 5025   9.325   7.360   6.118 -3.0696 -0.6767 -0.4310
  796MOL0     H 5026   9.491   7.135   5.996  1.4193  0.1194 -1.5403
  796MOL0     H 5027   9.431   7.082   5.843 -0.1449 -0.9112  0.9802
  796MOL0     H 5028   9.207   7.074   5.925 -2.4043 -1.9333  1.5514
  796MOL0     H 5029   9.265   7.125   6.088 -0.6019  0.1891  0.4235
  796MOL0     H 5030   9.415   6.881   5.958 -0.3568 -2.4609  0.8248
  796MOL0     H 5031   9.394   6.920   6.126 -0.2599 -1.1278 -0.3369
  796MOL0     H 5032   9.286   6.734   6.033  1.5839  0.6445  1.5281
  796MOL0     H 5033   9.177   6.839   5.948  2.9204  2.8158 -1.0524
  796MOL0     H 5034   9.098   6.610   6.038 -0.2990 -2.6336  1.0996
  796MOL0     H 5035   8.904   6.467   6.087  3.8629  0.1537 -1.5109
  796MOL0     H 5036   8.430   6.694   6.225 -1.7761 -1.4689 -2.0143
  796MOL0     H 5037   8.184   6.665   6.265 -3.1810 -2.6283  0.7692
  796MOL0     H 5038   8.027   6.375   6.265 -3.0855 -0.4855 -3.8941
  796MOL0     H 5039   8.013   6.542   6.228 -1.1422  1.7280  2.5782
  796MOL0     H 5040   7.834   6.380   6.417  0.1496  3.3685  4.1472
  796MOL0     H 5041   7.794   6.418   6.250 -3.2534 -0.9121  2.3283
  796MOL0     H 5042   7.757   6.653   6.315 -1.8592  0.1798  1.6743
  796MOL0     H 5043   7.843   6.625   6.473 -0.7586 -2.1767  3.3053
  796MOL0     H 5044   7.574   6.492   6.396 -2.0511  1.4444  0.5810
  796MOL0     H 5045   7.674   6.474   6.540  1.1853 -2.7678 -2.6645
  796MOL0     H 5046   7.559   6.740   6.416  2.1526 -1.6975 -1.9992
  796MOL0     H 5047   7.644   6.737   6.571 -1.4002  0.3275  0.5006
  796MOL0     H 5048   7.388   6.586   6.561 -0.7298 -2.7560  3.8523
  796MOL0     H 5049   7.403   6.762   6.594  0.2606 -0.5925  0.8007
  796MOL0     H 5050   7.521   6.532   6.751  0.1375 -0.7100 -0.1658
  796MOL0     H 5051   7.557   6.698   6.785  0.1318 -2.1922  0.8973
  796MOL0     H 5052   7.286   6.567   6.835 -1.6702  1.2233  4.2561
  796MOL0     H 5053   7.306   6.735   6.818 -0.3846 -0.9441 -1.1561
  796MOL0     H 5054   8.270   6.366   6.560  1.8385  0.3720  0.1937
  796MOL0     H 5055   8.499   6.423   6.555  3.1018 -1.5890 -1.6520
  796MOL0     H 5056   8.756   6.766   6.354  1.4953  1.1078  1.4148
  796MOL0     H 5057   8.957   6.892   6.321  1.1326  0.7858 -0.6162
  796MOL0     H 5058   9.019   7.985   5.420 -0.1242  0.6549  0.7839
  796MOL0     H 5059   8.842   8.077   5.301  0.7476 -3.9699  1.1006
  796MOL0     H 5060   8.671   8.264   4.921  0.0833 -0.0576 -0.7678
  796MOL0     H 5061   8.441   8.299   4.858  2.5430 -0.7562 -0.2465
  796MOL0     H 5062   8.073   8.393   5.089  1.8887  0.8849  2.1188
  796MOL0     H 5063   8.194   8.333   5.188  4.6219  1.4635 -0.6966
  796MOL0     H 5064   8.102   8.206   4.924 -0.5106 -0.2171  0.3849
  796MOL0     H 5065   8.247   8.160   5.012  0.5135  0.8023  0.7895
  796MOL0     H 5066   8.111   8.087   5.208  1.8396 -1.1814 -1.3466
  796MOL0     H 5067   8.060   8.009   5.066  2.4604 -1.4451  2.1347
  796MOL0     H 5068   7.893   8.082   5.198 -2.7414  0.2506 -1.1666
  796MOL0     H 5069   7.940   8.253   5.200  2.3057  1.2245 -1.0071
  796MOL0     H 5070   7.730   8.280   4.836  0.8610  0.4826  0.0012
  796MOL0     H 5071   8.383   8.540   5.212 -0.2767 -0.4740 -0.5063
  796MOL0     H 5072   8.624   8.510   5.267  0.1718  0.5389 -0.2349
  797MOL0     O 5073   6.575   5.194   9.875  0.9549  0.5661  0.3137
  797MOL0     C 5074   6.598   5.069   9.890 -0.2613 -0.2849  0.3302
  797MOL0     O 5075   6.721   5.021   9.919 -0.7492 -0.4505  0.0916
  797MOL0     C 5076   6.819   5.104   9.971 -0.8710 -0.5796 -0.5026
  797MOL0     C 5077   6.795   5.174  10.090 -0.1368  0.2144  0.5363
  797MOL0     C 5078   6.894   5.243  10.157 -1.0691 -0.2197 -0.0426
  797MOL0     C 5079   7.025   5.241  10.100  0.6610 -0.4562 -0.7097
  797MOL0     O 5080   7.129   5.313  10.155  0.7625  0.0855 -0.6341
  797MOL0     C 5081   7.237   5.247  10.224 -1.0129  0.2237  0.1284
  797MOL0     C 5082   7.280   5.366  10.329 -0.1244  0.7366  0.0317
  797MOL0     C 5083   7.356   5.292  10.451 -0.2238 -0.5192  0.6180
  797MOL0     C 5084   7.375   5.409  10.546 -0.4490 -1.1384 -0.4668
  797MOL0     C 5085   7.406   5.366  10.682 -0.4006  0.4351 -0.8268
  797MOL0     C 5086   7.555   5.332  10.706 -0.3779  1.2132 -0.5995
  797MOL0     C 5087   7.589   5.225  10.816  0.3242  0.9496  0.4878
  797MOL0     C 5088   7.548   5.264  10.952  1.1970 -0.3462  0.0007
  797MOL0     N 5089   7.576   5.155  11.048  0.2332  0.6866 -1.5774
  797MOL0     C 5090   7.497   5.046  11.063  0.4153  0.4380 -0.8444
  797MOL0     C 5091   7.522   5.004  11.190 -0.2237 -0.1905 -0.1935
  797MOL0     C 5092   7.452   4.891  11.259  0.0856 -0.3664 -0.1083
  797MOL0     C 5093   7.401   4.938  11.388  0.9378 -0.2921 -0.0768
  797MOL0     C 5094   7.444   4.834  11.489  0.0703 -0.7853  0.0447
  797MOL0     C 5095   7.387   4.850  11.631 -0.0519 -0.1372 -0.7090
  797MOL0     O 5096   7.253   4.858  11.635  0.2213  0.0727 -0.0590
  797MOL0     C 5097   7.188   4.776  11.730 -0.9639 -0.1506  0.7751
  797MOL0     C 5098   7.165   4.641  11.713 -0.9677 -0.5363 -0.2710
  797MOL0     C 5099   7.141   4.564  11.826  0.9228 -0.0885  0.4791
  797MOL0     C 5100   7.147   4.611  11.957 -0.1221 -1.0758  0.2739
  797MOL0     C 5101   7.116   4.514  12.070  0.0624  0.0884 -0.5964
  797MOL0     O 5102   7.135   4.556  12.200  0.8971 -0.1160  0.8395
  797MOL0     C 5103   7.100   4.470  12.302 -0.1954 -0.4653  0.6837
  797MOL0     C 5104   7.140   4.333  12.307 -0.2296  0.5222  0.6933
  797MOL0     C 5105   7.100   4.262  12.420 -0.6066  0.2581  0.4306
  797MOL0     C 5106   7.033   4.317  12.526  0.2730 -0.6986 -0.0283
  797MOL0     O 5107   6.987   4.251  12.636  0.4866  0.0037 -0.0594
  797MOL0     C 5108   7.075   4.142  12.688  0.3666 -0.7167 -0.5780
  797MOL0     C 5109   7.013   4.088  12.811 -0.6949 -0.8003  0.6921
  797MOL0     C 5110   7.033   4.171  12.943 -1.2072  0.8664  0.0217
  797MOL0     C 5111   6.990   4.309  12.950  0.3950  0.6398  0.1128
  797MOL0     C 5112   6.843   4.315  12.922 -1.2748 -0.7177  0.3246
  797MOL0     C 5113   6.796   4.458  12.925  0.7951 -0.3389 -0.6899
  797MOL0     C 5114   6.656   4.480  12.879  0.2648 -0.6642  0.5480
  797MOL0     C 5115   6.550   4.423  12.972  0.0172 -0.3086  0.0510
  797MOL0    Cl 5116   6.529   4.518  13.125 -0.2065 -0.2225 -0.1714
  797MOL0     C 5117   7.001   4.448  12.523  0.2823  0.0734 -0.1902
  797MOL0     C 5118   7.041   4.524  12.413  0.1692 -0.4977 -0.4615
  797MOL0     O 5119   7.071   4.405  12.041 -1.5334  0.0818 -0.5847
  797MOL0     C 5120   7.139   4.749  11.972  0.1390 -0.6584 -0.4235
  797MOL0     C 5121   7.158   4.828  11.861  0.2275 -0.0397 -1.1235
  797MOL0     N 5122   7.621   5.082  11.245  0.2867 -0.1834  0.6959
  797MOL0     N 5123   7.664   5.163  11.153 -0.6592 -0.2854 -0.8748
  797MOL0     C 5124   7.043   5.182   9.978  0.7703  0.4572 -0.7605
  797MOL0     C 5125   6.943   5.112   9.913 -0.6756  0.1056 -0.1446
  797MOL0     C 5126   6.490   4.981   9.846  0.5522 -0.2968  1.0557
  797MOL0     C 5127   6.374   5.017   9.764 -0.0188  0.4434  0.1116
  797MOL0     C 5128   6.265   4.932   9.756 -0.3046 -0.1412  0.7021
  797MOL0     C 5129   6.265   4.800   9.806 -0.3082 -0.0619 -0.2500
  797MOL0     O 5130   6.157   4.723   9.774  0.0422 -0.3336  0.5332
  797MOL0     C 5131   6.178   4.585   9.790  0.2596  0.6365 -0.0078
  797MOL0     C 5132   6.062   4.510   9.703  0.2355  0.5095 -0.0611
  797MOL0     C 5133   6.097   4.358   9.695 -0.0317 -0.4624  0.8362
  797MOL0     C 5134   6.075   4.276   9.830 -0.6027  0.0547  0.1667
  797MOL0     C 5135   5.932   4.256   9.880  1.0909 -0.0021  0.1572
  797MOL0     C 5136   5.817   4.236   9.929  0.4439 -0.4764 -1.4495
  797MOL0     C 5137   6.385   4.766   9.874  0.4777  0.2990 -0.3966
  797MOL0     C 5138   6.493   4.852   9.894  0.7054 -0.4651 -0.2964
  797MOL0     H 5139   6.696   5.173  10.134 -1.0631 -1.8760 -1.3864
  797MOL0     H 5140   6.873   5.303  10.245 -0.6875  0.6725 -0.5392
  797MOL0     H 5141   7.322   5.233  10.157 -2.3989  3.2107 -2.4924
  797MOL0     H 5142   7.215   5.148  10.266  2.2356 -0.8146 -0.3702
  797MOL0     H 5143   7.189   5.406  10.375 -0.4900  1.4101 -1.2491
  797MOL0     H 5144   7.346   5.445  10.293  2.7434 -1.5277 -0.0699
  797MOL0     H 5145   7.453   5.247  10.427 -0.6592 -0.4734 -1.4010
  797MOL0     H 5146   7.294   5.208  10.483 -1.9010  0.2324 -0.5165
  797MOL0     H 5147   7.445   5.488  10.516 -0.2712 -1.2941 -0.4642
  797MOL0     H 5148   7.283   5.467  10.557 -0.3290 -1.3652  2.3844
  797MOL0     H 5149   7.337   5.286  10.710 -2.6154  2.2840 -0.7139
  797MOL0     H 5150   7.382   5.449  10.749 -0.5458 -0.8238  0.7293
  797MOL0     H 5151   7.621   5.415  10.734  1.7300 -0.4425 -0.3980
  797MOL0     H 5152   7.598   5.302  10.611 -2.0552  0.6306 -1.2073
  797MOL0     H 5153   7.555   5.123  10.797  2.4862 -0.0538  1.6852
  797MOL0     H 5154   7.698   5.218  10.816  0.2753 -0.9852 -1.4626
  797MOL0     H 5155   7.441   5.287  10.959  0.8044 -2.5209  2.8533
  797MOL0     H 5156   7.602   5.358  10.969  0.5628  0.7297 -3.2068
  797MOL0     H 5157   7.425   5.012  10.989  0.5686  1.1204 -1.3199
  797MOL0     H 5158   7.525   4.811  11.272 -1.7013 -2.1769 -0.6981
  797MOL0     H 5159   7.370   4.854  11.195  1.3170 -2.4060 -0.5963
  797MOL0     H 5160   7.292   4.941  11.383  0.9023 -2.0256 -0.7656
  797MOL0     H 5161   7.453   5.031  11.414  1.5769  0.6779 -4.1957
  797MOL0     H 5162   7.418   4.735  11.453 -1.2319 -0.0031 -1.2553
  797MOL0     H 5163   7.552   4.839  11.506  0.1109  0.5919 -0.4580
  797MOL0     H 5164   7.416   4.946  11.676 -1.4493 -0.5943  1.2831
  797MOL0     H 5165   7.428   4.771  11.694  0.8692 -0.7834 -2.0762
  797MOL0     H 5166   7.182   4.588  11.620 -0.3515 -0.4366 -0.2217
  797MOL0     H 5167   7.131   4.457  11.814  2.0162 -0.0506 -1.1279
  797MOL0     H 5168   7.184   4.277  12.225 -2.6472  0.3594 -0.5895
  797MOL0     H 5169   7.120   4.155  12.424 -0.3054  0.3170  0.5106
  797MOL0     H 5170   7.167   4.195  12.713 -1.4310  1.2327  2.5228
  797MOL0     H 5171   7.087   4.073  12.604 -2.0813 -0.4644 -1.2162
  797MOL0     H 5172   7.042   3.983  12.818 -1.0978 -1.1291 -1.6815
  797MOL0     H 5173   6.905   4.085  12.795 -0.4821  0.3883 -1.3557
  797MOL0     H 5174   7.142   4.170  12.958 -0.8888 -0.0912 -2.0438
  797MOL0     H 5175   7.004   4.115  13.032  1.1812 -0.8143 -0.1491
  797MOL0     H 5176   7.015   4.352  13.048 -3.2324  0.0560  1.4252
  797MOL0     H 5177   7.028   4.378  12.874 -5.0382  4.7541  0.5041
  797MOL0     H 5178   6.787   4.251  12.992 -1.1867  0.2846  1.3524
  797MOL0     H 5179   6.819   4.293  12.818  1.6850  6.2452 -2.4257
  797MOL0     H 5180   6.857   4.524  12.864  1.7999 -2.7912 -2.4712
  797MOL0     H 5181   6.793   4.494  13.029  0.6483 -1.2826 -0.3544
  797MOL0     H 5182   6.640   4.587  12.858 -0.4542 -0.6217  1.2547
  797MOL0     H 5183   6.650   4.433  12.780  0.1316  0.1804  0.1414
  797MOL0     H 5184   6.580   4.320  12.993 -0.9023 -0.2913  1.5961
  797MOL0     H 5185   6.453   4.432  12.923 -0.3258  2.8686  1.1217
  797MOL0     H 5186   6.946   4.500  12.601 -1.5346  2.6493 -2.9873
  797MOL0     H 5187   7.007   4.627  12.418  0.2799 -0.4667 -0.3673
  797MOL0     H 5188   7.106   4.795  12.065  0.0430  0.8122 -1.1442
  797MOL0     H 5189   7.174   4.933  11.878  1.2931 -0.5812  1.6362
  797MOL0     H 5190   7.136   5.208   9.930  0.5180  2.3487 -0.3160
  797MOL0     H 5191   6.961   5.071   9.814  0.7301 -1.6808  0.7937
  797MOL0     H 5192   6.373   5.118   9.724 -0.1636  0.5769  0.4485
  797MOL0     H 5193   6.192   4.972   9.685  1.4746 -1.6779 -2.2153
  797MOL0     H 5194   6.187   4.554   9.894  2.2302  2.3249  0.3860
  797MOL0     H 5195   6.274   4.557   9.746 -0.5031 -2.2413 -0.0322
  797MOL0     H 5196   5.965   4.528   9.750  2.3984  0.4986  5.0041
  797MOL0     H 5197   6.055   4.555   9.603 -2.9761 -2.0230 -1.1242
  797MOL0     H 5198   6.199   4.358   9.657  0.3783 -1.4180  1.8806
  797MOL0     H 5199   6.037   4.306   9.620  0.1396  1.1645 -0.4803
  797MOL0     H 5200   6.133   4.184   9.819  0.6619  0.8935 -0.4423
  797MOL0     H 5201   6.128   4.323   9.914 -0.7256 -0.6262  0.6310
  797MOL0     H 5202   5.723   4.195   9.962  0.6519  0.0224 -0.1836
  797MOL0     H 5203   6.393   4.664   9.912 -1.7233  2.0214  6.0986
  797MOL0     H 5204   6.580   4.831   9.956  1.0509  2.1845  0.2455
  798MOL0     O 5205   2.145   3.439  10.415  0.6103 -0.4807  0.6524
  798MOL0     C 5206   2.187   3.380  10.318 -0.1152 -0.3169 -0.0267
  798MOL0     O 5207   2.291   3.406  10.250 -0.2876 -0.5957  0.2232
  798MOL0     C 5208   2.390   3.491  10.303  0.2604 -1.3743 -0.1122
  798MOL0     C 5209   2.384   3.633  10.273  1.3139  0.8608 -0.3917
  798MOL0     C 5210   2.475   3.714  10.330 -0.2399 -0.6141  0.1679
  798MOL0     C 5211   2.578   3.667  10.407 -0.3876 -0.0645 -0.1743
  798MOL0     O 5212   2.663   3.758  10.465  0.0547  0.4558  0.8742
  798MOL0     C 5213   2.792   3.721  10.517 -0.0184  0.5457 -0.6595
  798MOL0     C 5214   2.872   3.839  10.581 -0.0252 -0.0915 -0.3517
  798MOL0     C 5215   2.793   3.920  10.692 -0.3216  0.2027 -0.2978
  798MOL0     C 5216   2.732   4.051  10.641 -0.1521  0.1897  1.4027
  798MOL0     C 5217   2.663   4.117  10.755  0.6320 -1.1002  0.4122
  798MOL0     C 5218   2.751   4.191  10.862 -0.6664 -0.4819  0.4544
  798MOL0     C 5219   2.673   4.256  10.978 -0.2058 -0.8015  0.1134
  798MOL0     C 5220   2.767   4.351  11.070 -0.3673  0.0394  0.4630
  798MOL0     N 5221   2.901   4.294  11.108  0.0731 -0.2441 -0.7329
  798MOL0     C 5222   2.929   4.178  11.170  0.0016 -0.2243  0.2452
  798MOL0     C 5223   3.064   4.177  11.181 -0.5281 -0.1504  0.8074
  798MOL0     C 5224   3.145   4.073  11.256  0.3472  0.0922  0.1764
  798MOL0     C 5225   3.152   3.946  11.154 -0.0337  0.3900 -0.9586
  798MOL0     C 5226   3.257   3.962  11.047 -0.3775  0.2685 -0.0888
  798MOL0     C 5227   3.268   3.827  10.971 -0.6097  0.3559  0.2663
  798MOL0     O 5228   3.342   3.739  11.048 -0.7572  0.6747 -0.0122
  798MOL0     C 5229   3.398   3.636  10.969 -0.4653 -0.5135 -0.1322
  798MOL0     C 5230   3.354   3.506  10.974 -0.6488  0.2353 -0.2440
  798MOL0     C 5231   3.415   3.404  10.894 -0.3230  0.6417  0.1461
  798MOL0     C 5232   3.534   3.431  10.823 -0.0520 -0.7931 -0.3456
  798MOL0     C 5233   3.616   3.320  10.761  0.1909  0.1946  0.0607
  798MOL0     O 5234   3.591   3.191  10.785  0.0160  0.5367  0.4470
  798MOL0     C 5235   3.673   3.086  10.738  0.3760  0.7282  0.3591
  798MOL0     C 5236   3.709   2.977  10.823  0.7759 -0.5940  0.4627
  798MOL0     C 5237   3.789   2.871  10.774  0.6448  0.4522  0.6720
  798MOL0     C 5238   3.846   2.867  10.644  0.2557  0.2283  0.2416
  798MOL0     O 5239   3.950   2.786  10.592  0.4903  0.4150 -0.3056
  798MOL0     C 5240   4.011   2.685  10.681 -0.1415 -0.4694  0.0171
  798MOL0     C 5241   4.141   2.620  10.623 -0.4108  0.2898 -0.4157
  798MOL0     C 5242   4.231   2.566  10.736  0.1847 -0.3423  0.1163
  798MOL0     C 5243   4.168   2.491  10.847  1.9960  0.8638  0.4725
  798MOL0     C 5244   4.252   2.385  10.908 -0.3959 -0.7011  0.3396
  798MOL0     C 5245   4.287   2.267  10.813 -0.0497 -0.4685 -0.0717
  798MOL0     C 5246   4.176   2.184  10.728  0.2737 -0.1510  0.4006
  798MOL0     C 5247   4.057   2.137  10.800 -0.0723  0.0566  0.5582
  798MOL0    Cl 5248   4.130   2.061  10.949 -0.2026 -0.2536  0.0027
  798MOL0     C 5249   3.788   2.960  10.560 -0.3720  0.4631  0.2019
  798MOL0     C 5250   3.708   3.063  10.608  1.1154 -0.6257  0.4435
  798MOL0     O 5251   3.703   3.359  10.680  0.2116 -0.2553 -0.3385
  798MOL0     C 5252   3.590   3.566  10.832  0.0412  0.0266 -0.6910
  798MOL0     C 5253   3.515   3.668  10.891 -0.1943  0.3923 -0.0274
  798MOL0     N 5254   3.118   4.300  11.129 -0.3924  0.3196  0.1169
  798MOL0     N 5255   3.011   4.363  11.094  0.0643  0.2077 -0.0238
  798MOL0     C 5256   2.588   3.525  10.432  0.2336  0.4761  0.5013
  798MOL0     C 5257   2.495   3.443  10.373  0.3886  0.1451 -0.3965
  798MOL0     C 5258   2.121   3.252  10.281 -0.3649 -0.7942 -0.5026
  798MOL0     C 5259   2.003   3.209  10.342  0.2293 -0.0963  0.3309
  798MOL0     C 5260   1.928   3.098  10.288  0.3562  0.4242  0.2173
  798MOL0     C 5261   1.984   3.008  10.182  0.3869 -1.1224 -0.2886
  798MOL0     O 5262   1.925   2.893  10.141  0.1028  0.2170  0.8784
  798MOL0     C 5263   1.859   2.814  10.246 -0.0056  0.0619  0.5711
  798MOL0     C 5264   1.803   2.684  10.184  0.2700  0.1530  0.6375
  798MOL0     C 5265   1.752   2.688  10.041  0.6962 -0.4543 -0.0645
  798MOL0     C 5266   1.703   2.550   9.988 -1.2604  0.1082 -0.0295
  798MOL0     C 5267   1.656   2.559   9.856  0.4878 -0.3376 -0.4110
  798MOL0     C 5268   1.595   2.600   9.759 -1.0649  0.1605  0.7245
  798MOL0     C 5269   2.095   3.061  10.130 -0.4371  0.5917  0.5986
  798MOL0     C 5270   2.162   3.175  10.175 -0.4628 -0.3766  0.8553
  798MOL0     H 5271   2.321   3.682  10.199 -1.1931 -2.7897 -0.9457
  798MOL0     H 5272   2.474   3.816  10.292 -2.0875 -0.6801 -0.0296
  798MOL0     H 5273   2.848   3.665  10.442 -0.3881  0.0716 -0.5871
  798MOL0     H 5274   2.765   3.647  10.593 -2.2904 -1.3921 -3.1639
  798MOL0     H 5275   2.901   3.906  10.499  1.2639 -0.0634  0.0933
  798MOL0     H 5276   2.966   3.816  10.632 -0.5901  2.2115  1.9284
  798MOL0     H 5277   2.858   3.933  10.779 -1.2338 -1.6391  0.7272
  798MOL0     H 5278   2.713   3.857  10.733  0.4878  0.0837  1.1669
  798MOL0     H 5279   2.814   4.110  10.599 -2.4250  1.5885 -1.3887
  798MOL0     H 5280   2.651   4.034  10.570 -0.2517  0.8116  1.3688
  798MOL0     H 5281   2.591   4.053  10.807  0.0129 -2.2900 -1.7490
  798MOL0     H 5282   2.607   4.200  10.709  2.1048 -1.7120 -2.7707
  798MOL0     H 5283   2.806   4.273  10.814 -0.9298 -1.3377 -1.4011
  798MOL0     H 5284   2.824   4.119  10.900  0.6845  1.0917  1.0037
  798MOL0     H 5285   2.587   4.314  10.943 -0.2697 -0.2200  1.1968
  798MOL0     H 5286   2.634   4.178  11.043 -0.1433 -0.4887  0.5326
  798MOL0     H 5287   2.714   4.380  11.162 -0.9226 -0.7838  0.4178
  798MOL0     H 5288   2.790   4.437  11.007 -2.5702 -0.2206 -0.8311
  798MOL0     H 5289   2.866   4.090  11.184  0.5093 -1.5377 -4.1238
  798MOL0     H 5290   3.098   4.044  11.351 -1.9730 -0.8248 -1.1883
  798MOL0     H 5291   3.242   4.118  11.281 -1.4417  3.6417  1.5204
  798MOL0     H 5292   3.060   3.928  11.098 -1.2900  0.3922  1.0357
  798MOL0     H 5293   3.175   3.861  11.219 -1.1752  0.4293 -0.4937
  798MOL0     H 5294   3.234   4.038  10.972  0.9839  0.4196 -0.3753
  798MOL0     H 5295   3.354   3.978  11.095  0.0299  1.6953 -1.3353
  798MOL0     H 5296   3.313   3.842  10.872 -2.5218  0.4598 -0.6215
  798MOL0     H 5297   3.168   3.785  10.961 -2.3493  3.7034  2.0229
  798MOL0     H 5298   3.265   3.477  11.028 -0.3675 -0.0099  0.0931
  798MOL0     H 5299   3.381   3.301  10.893 -0.5174  0.7098 -0.1830
  798MOL0     H 5300   3.670   2.975  10.924  0.0643  3.6432  0.4501
  798MOL0     H 5301   3.828   2.789  10.832 -0.2297 -0.4908 -0.0310
  798MOL0     H 5302   3.953   2.598  10.713  3.0042 -2.1700  1.6153
  798MOL0     H 5303   4.043   2.746  10.766  0.5322  0.4436 -0.8586
  798MOL0     H 5304   4.194   2.699  10.568  0.4338  0.1261  0.1436
  798MOL0     H 5305   4.107   2.547  10.550  0.0214 -0.8528  0.5053
  798MOL0     H 5306   4.287   2.647  10.783 -0.6543 -0.8748  2.1563
  798MOL0     H 5307   4.297   2.494  10.685  1.8530  0.9674  0.3458
  798MOL0     H 5308   4.151   2.556  10.934 -0.2147 -1.2176  1.7168
  798MOL0     H 5309   4.075   2.447  10.811  0.7874  2.9241  0.9176
  798MOL0     H 5310   4.209   2.334  10.995  1.6976  0.0216  1.8972
  798MOL0     H 5311   4.343   2.428  10.951  1.5376 -2.1904 -1.9607
  798MOL0     H 5312   4.333   2.188  10.873 -2.8552 -2.2487 -0.0561
  798MOL0     H 5313   4.363   2.305  10.744 -1.3692 -1.7186 -2.3464
  798MOL0     H 5314   4.140   2.251  10.650 -1.6627 -1.5407  0.0274
  798MOL0     H 5315   4.227   2.114  10.661 -0.2376  2.1324 -2.5873
  798MOL0     H 5316   3.997   2.063  10.747 -0.0202 -0.0993  0.7169
  798MOL0     H 5317   3.990   2.220  10.823 -2.3462 -2.6042  4.7448
  798MOL0     H 5318   3.821   2.985  10.460  0.5391  1.4305  0.7248
  798MOL0     H 5319   3.669   3.138  10.541 -0.6697 -1.8821 -0.0022
  798MOL0     H 5320   3.680   3.581  10.773 -0.2505  0.2529 -1.0876
  798MOL0     H 5321   3.555   3.769  10.881  0.2779  0.1354 -0.7951
  798MOL0     H 5322   2.654   3.472  10.501  1.2693  0.4159 -0.5156
  798MOL0     H 5323   2.496   3.337  10.399  3.9006  0.8739  3.5218
  798MOL0     H 5324   1.958   3.254  10.430  1.5473  2.1973 -0.0893
  798MOL0     H 5325   1.836   3.076  10.341  1.6246 -0.3717  2.2146
  798MOL0     H 5326   1.771   2.873  10.274 -1.5799 -1.3074 -1.2102
  798MOL0     H 5327   1.918   2.786  10.334  0.2008 -0.0214  0.4078
  798MOL0     H 5328   1.887   2.615  10.190 -1.0325 -1.8185 -1.6176
  798MOL0     H 5329   1.718   2.652  10.245  0.9760  1.5118  2.4178
  798MOL0     H 5330   1.831   2.727   9.976 -0.9952  0.0511 -1.9229
  798MOL0     H 5331   1.677   2.767  10.029  1.7117  0.0912 -4.6244
  798MOL0     H 5332   1.786   2.478   9.990 -1.1675  0.2305  0.6534
  798MOL0     H 5333   1.613   2.534  10.048 -0.1361  3.5954  2.9531
  798MOL0     H 5334   1.551   2.624   9.664 -2.6034 -1.0698  1.0786
  798MOL0     H 5335   2.122   3.003  10.042 -0.0753  1.5495  0.0583
  798MOL0     H 5336   2.254   3.198  10.121  0.2891 -1.8319  1.4533
  799MOL0     O 5337   8.589  11.267   2.757  0.0535  0.4973  0.0133
  799MOL0     C 5338   8.660  11.218   2.847 -0.1727  1.3351 -0.7272
  799MOL0     O 5339   8.768  11.274   2.905  0.5189 -0.2645  0.8260
  799MOL0     C 5340   8.796  11.398   2.848  0.1369 -0.0839 -0.2783
  799MOL0     C 5341   8.894  11.400   2.749  1.1662  0.4787  0.5165
  799MOL0     C 5342   8.929  11.520   2.690 -0.1001 -0.1966 -0.2413
  799MOL0     C 5343   8.863  11.645   2.721 -0.7412 -0.0431  0.3436
  799MOL0     O 5344   8.871  11.770   2.660 -0.2790  0.4947  0.6108
  799MOL0     C 5345   8.974  11.786   2.563  1.0042  0.4685  1.3594
  799MOL0     C 5346   8.979  11.936   2.531  0.5064  0.0098  0.0556
  799MOL0     C 5347   9.065  11.968   2.408 -0.1422 -0.0953 -0.6359
  799MOL0     C 5348   9.100  12.118   2.412 -0.8346 -0.1859  1.0340
  799MOL0     C 5349   8.973  12.199   2.410  0.3230 -0.4123  0.4208
  799MOL0     C 5350   8.995  12.347   2.380 -0.3412  0.2818  0.3868
  799MOL0     C 5351   9.078  12.399   2.492 -0.4977 -0.5877  0.2068
  799MOL0     C 5352   9.128  12.542   2.450  0.0299  1.0483 -0.3569
  799MOL0     N 5353   9.184  12.615   2.567 -0.2683  0.1185 -0.0297
  799MOL0     C 5354   9.110  12.654   2.678 -0.6903  0.7681  0.4575
  799MOL0     C 5355   9.195  12.743   2.744  0.3670  0.6024 -0.2451
  799MOL0     C 5356   9.149  12.824   2.863 -0.2220  0.9579 -0.0956
  799MOL0     C 5357   9.046  12.746   2.946  0.0401  0.8157  0.0195
  799MOL0     C 5358   8.989  12.834   3.057 -0.6346 -0.0980 -0.7048
  799MOL0     C 5359   9.018  12.786   3.202  0.6297 -0.5444 -0.3234
  799MOL0     O 5360   9.157  12.768   3.219 -0.3710  0.3712 -1.6446
  799MOL0     C 5361   9.210  12.687   3.324 -0.5923 -0.9161 -1.1150
  799MOL0     C 5362   9.350  12.678   3.352 -0.3842 -0.8259  0.4286
  799MOL0     C 5363   9.406  12.611   3.461 -0.9828 -0.3823 -0.8958
  799MOL0     C 5364   9.327  12.549   3.554 -0.7995 -0.2282  0.8254
  799MOL0     C 5365   9.379  12.480   3.675 -0.3509  0.1740 -0.2345
  799MOL0     O 5366   9.292  12.434   3.767 -0.1967 -0.1137 -0.2344
  799MOL0     C 5367   9.320  12.386   3.890 -0.1109 -0.5564  0.3147
  799MOL0     C 5368   9.265  12.264   3.931 -0.0621 -0.0363  0.6767
  799MOL0     C 5369   9.310  12.206   4.055 -0.3903 -0.8582 -0.1148
  799MOL0     C 5370   9.419  12.257   4.118  0.7676 -0.4460  0.3288
  799MOL0     O 5371   9.488  12.187   4.206  0.1690 -0.4251  0.3668
  799MOL0     C 5372   9.596  12.114   4.146 -0.8142 -0.7267  0.0709
  799MOL0     C 5373   9.657  12.021   4.254  0.5345  0.4470 -0.5236
  799MOL0     C 5374   9.789  11.967   4.203  0.2583 -0.2438 -0.4113
  799MOL0     C 5375   9.851  11.876   4.312 -0.0496 -0.1496 -0.0240
  799MOL0     C 5376   9.970  11.950   4.384  0.2533  1.1028 -0.1815
  799MOL0     C 5377   9.946  12.077   4.469 -0.3517 -0.4685 -0.4654
  799MOL0     C 5378   9.862  12.031   4.588 -0.5786  0.8822  0.5878
  799MOL0     C 5379   9.945  12.004   4.719  0.7598  0.9152 -0.4078
  799MOL0    Cl 5380  10.012  11.840   4.712  0.1315  0.2423  0.1789
  799MOL0     C 5381   9.462  12.379   4.080 -0.6375  0.3126 -0.0019
  799MOL0     C 5382   9.405  12.451   3.975 -0.1556 -0.0920 -0.5908
  799MOL0     O 5383   9.502  12.484   3.689  0.0097  0.4785  1.2662
  799MOL0     C 5384   9.187  12.560   3.531  0.3037 -0.5392 -0.0239
  799MOL0     C 5385   9.125  12.617   3.414 -0.4723  0.2679 -0.8603
  799MOL0     N 5386   9.315  12.757   2.671  0.9377  0.0407  0.2967
  799MOL0     N 5387   9.298  12.682   2.566  0.2908 -0.8214  0.7775
  799MOL0     C 5388   8.766  11.635   2.823  0.5229 -0.8579 -0.0201
  799MOL0     C 5389   8.728  11.517   2.887 -0.5927  0.5548  0.3049
  799MOL0     C 5390   8.620  11.088   2.916  0.1460 -0.9009  0.3487
  799MOL0     C 5391   8.717  10.996   2.966  0.0166 -0.9719 -0.1742
  799MOL0     C 5392   8.682  10.872   3.020  0.0206 -0.5718  0.0051
  799MOL0     C 5393   8.549  10.825   3.018 -0.2151 -0.6903  0.0056
  799MOL0     O 5394   8.534  10.719   3.105 -0.3471  0.1032  0.2628
  799MOL0     C 5395   8.400  10.679   3.137 -0.3285  0.0314  0.4339
  799MOL0     C 5396   8.376  10.539   3.208  0.8569  0.2123 -0.3101
  799MOL0     C 5397   8.397  10.426   3.107 -0.4008 -0.1121 -1.0086
  799MOL0     C 5398   8.539  10.429   3.044  0.3249  0.3070 -0.3808
  799MOL0     C 5399   8.559  10.316   2.952  0.9655 -0.0215  0.9499
  799MOL0     C 5400   8.591  10.237   2.871 -0.6275 -0.1021  0.4951
  799MOL0     C 5401   8.454  10.914   2.951 -0.7408  0.3116  0.8761
  799MOL0     C 5402   8.486  11.037   2.898 -0.5521  0.7334  0.4451
  799MOL0     H 5403   8.937  11.301   2.740 -2.2445 -1.3325  2.2646
  799MOL0     H 5404   9.007  11.520   2.615  0.6406 -1.8802  0.4942
  799MOL0     H 5405   8.955  11.725   2.473  2.3089  0.6699  0.9254
  799MOL0     H 5406   9.071  11.752   2.602  1.5337 -0.1346 -0.3447
  799MOL0     H 5407   9.019  11.983   2.621 -4.1772 -1.8004  3.4917
  799MOL0     H 5408   8.884  11.989   2.521  1.0439  1.5121  2.1534
  799MOL0     H 5409   9.015  11.939   2.315 -0.6175 -1.0798 -0.0907
  799MOL0     H 5410   9.155  11.907   2.417  0.2552  0.5212 -0.3733
  799MOL0     H 5411   9.155  12.138   2.504  2.1443  0.9061 -0.8296
  799MOL0     H 5412   9.172  12.141   2.333 -1.4711 -0.5851  0.3228
  799MOL0     H 5413   8.931  12.205   2.511 -0.3919 -0.7673  0.1462
  799MOL0     H 5414   8.895  12.159   2.344  1.8239 -1.0871 -1.0002
  799MOL0     H 5415   8.900  12.402   2.372 -0.8798  0.1341  4.0454
  799MOL0     H 5416   9.048  12.352   2.284 -1.4732  0.2299 -0.2567
  799MOL0     H 5417   9.027  12.401   2.588  2.2691 -0.5744  1.7755
  799MOL0     H 5418   9.171  12.344   2.508  0.8415  1.1825 -1.0403
  799MOL0     H 5419   9.043  12.591   2.403 -1.2391 -0.2361  0.4992
  799MOL0     H 5420   9.216  12.524   2.388 -0.8838 -1.9760 -0.9353
  799MOL0     H 5421   9.007  12.626   2.697  0.1851 -1.9890  1.5774
  799MOL0     H 5422   9.098  12.913   2.824 -0.2965  1.2302  0.6059
  799MOL0     H 5423   9.241  12.852   2.915  0.5161 -1.2047 -0.1721
  799MOL0     H 5424   9.083  12.651   2.986 -0.4628 -0.5819 -2.6659
  799MOL0     H 5425   8.955  12.722   2.890 -0.1363  0.9227  0.2546
  799MOL0     H 5426   9.034  12.933   3.054 -1.0612  0.2237  1.9473
  799MOL0     H 5427   8.881  12.849   3.059 -0.6525 -0.0263 -1.6249
  799MOL0     H 5428   8.965  12.690   3.211 -0.7408 -0.0253 -2.1572
  799MOL0     H 5429   8.976  12.856   3.274  1.6546  2.1029 -2.1587
  799MOL0     H 5430   9.415  12.736   3.287  0.3195  0.0845  1.9020
  799MOL0     H 5431   9.513  12.618   3.475 -0.6375 -3.1778 -1.5866
  799MOL0     H 5432   9.225  12.203   3.851 -1.6319  1.9827 -0.1460
  799MOL0     H 5433   9.289  12.101   4.070  2.2465 -1.6095 -1.0808
  799MOL0     H 5434   9.670  12.192   4.125  1.8315 -3.2325 -0.4699
  799MOL0     H 5435   9.581  12.059   4.053  2.1571  0.3622 -1.1725
  799MOL0     H 5436   9.587  11.940   4.277 -0.5871  1.5790  0.1992
  799MOL0     H 5437   9.672  12.072   4.349  0.2091 -1.4831  0.6129
  799MOL0     H 5438   9.853  12.051   4.171 -0.7708 -0.7228 -4.3100
  799MOL0     H 5439   9.775  11.916   4.107  5.0129 -0.6942 -1.1172
  799MOL0     H 5440   9.775  11.837   4.381  0.4115 -1.6603 -0.3509
  799MOL0     H 5441   9.885  11.782   4.269  0.9478  0.4075 -0.4818
  799MOL0     H 5442  10.038  11.973   4.302  0.0375  0.3434 -0.5773
  799MOL0     H 5443  10.018  11.879   4.451  0.0268  1.1800  0.0691
  799MOL0     H 5444   9.890  12.151   4.410 -1.2153 -0.6591  0.0917
  799MOL0     H 5445  10.036  12.132   4.499 -0.8512  1.0053 -1.5343
  799MOL0     H 5446   9.782  12.102   4.607 -0.5826  0.2955  3.1900
  799MOL0     H 5447   9.816  11.934   4.570 -0.8741  0.6873  2.1974
  799MOL0     H 5448   9.883  12.014   4.809  0.4483 -2.7064 -0.0709
  799MOL0     H 5449  10.025  12.078   4.730 -0.2809  1.9575  0.4648
  799MOL0     H 5450   9.526  12.428   4.153 -1.4851 -2.5783  2.9308
  799MOL0     H 5451   9.438  12.552   3.955 -1.8454  0.9842  1.7553
  799MOL0     H 5452   9.117  12.527   3.608 -0.8520 -1.1929 -1.3135
  799MOL0     H 5453   9.020  12.606   3.388 -0.9400  0.2307  0.9257
  799MOL0     H 5454   8.695  11.716   2.839 -0.3021 -1.0145 -2.4211
  799MOL0     H 5455   8.646  11.501   2.955 -1.6907 -2.5297 -1.5317
  799MOL0     H 5456   8.823  11.018   2.972 -0.4802  2.2729 -0.9996
  799MOL0     H 5457   8.761  10.823   3.076  1.6909  2.9719  1.0322
  799MOL0     H 5458   8.344  10.683   3.043  0.5723 -0.8594 -0.1688
  799MOL0     H 5459   8.359  10.756   3.202 -2.0888 -1.7294  1.5221
  799MOL0     H 5460   8.421  10.512   3.304 -2.3513 -1.5140  0.8629
  799MOL0     H 5461   8.268  10.536   3.228  0.7824  0.6821 -0.6171
  799MOL0     H 5462   8.321  10.427   3.029 -0.7682 -1.6648 -0.7030
  799MOL0     H 5463   8.388  10.333   3.164  1.3349 -0.6651 -1.5514
  799MOL0     H 5464   8.552  10.520   2.985  0.3406  0.9668  0.6166
  799MOL0     H 5465   8.612  10.428   3.125  2.1315 -3.6461 -1.7653
  799MOL0     H 5466   8.612  10.155   2.806 -0.1212  1.1266 -0.9532
  799MOL0     H 5467   8.353  10.874   2.939  0.6802 -2.7200 -4.4175
  799MOL0     H 5468   8.398  11.084   2.856  0.7368  2.1558 -0.7744
  800MOL0     O 5469  10.196   1.478   0.779 -0.0877  0.1258 -0.9977
  800MOL0     C 5470  10.221   1.445   0.665  0.0281  0.6605 -0.6300
  800MOL0     O 5471  10.141   1.366   0.580  0.2228 -0.0531 -0.3770
  800MOL0     C 5472  10.015   1.333   0.607  0.9073  0.1891 -0.2707
  800MOL0     C 5473   9.993   1.204   0.556  0.5088 -0.5074  0.4284
  800MOL0     C 5474   9.865   1.149   0.580  0.2839  0.0623 -0.3781
  800MOL0     C 5475   9.764   1.220   0.651 -0.8317  0.1525 -0.2194
  800MOL0     O 5476   9.638   1.171   0.672  0.3237 -0.0894  0.1964
  800MOL0     C 5477   9.610   1.033   0.639 -1.4458  0.3631 -0.4555
  800MOL0     C 5478   9.488   1.001   0.719  0.6412  0.8744 -1.0849
  800MOL0     C 5479   9.356   1.059   0.665  0.4823  0.3768  1.1103
  800MOL0     C 5480   9.241   1.016   0.742  0.8099  0.2311  0.2658
  800MOL0     C 5481   9.116   1.089   0.689  0.8948  0.2133 -0.1825
  800MOL0     C 5482   8.993   1.006   0.700 -0.0566  0.3436 -0.3456
  800MOL0     C 5483   8.865   1.088   0.657 -0.3633  0.1978 -1.0858
  800MOL0     C 5484   8.747   1.000   0.686 -0.9027 -0.1351 -0.1354
  800MOL0     N 5485   8.623   1.072   0.647  0.1140  0.1002 -0.6638
  800MOL0     C 5486   8.528   1.119   0.741 -0.4842  0.1766  0.4296
  800MOL0     C 5487   8.414   1.134   0.671  0.2155  0.0190 -0.4001
  800MOL0     C 5488   8.282   1.170   0.734  1.4435 -0.3799 -0.2616
  800MOL0     C 5489   8.299   1.308   0.802  0.1196  0.4389 -0.3860
  800MOL0     C 5490   8.161   1.370   0.826 -0.3210 -0.4960 -0.4477
  800MOL0     C 5491   8.085   1.400   0.701 -0.0419  0.0425  0.3008
  800MOL0     O 5492   7.991   1.513   0.703  1.3318  0.7364 -0.3741
  800MOL0     C 5493   7.873   1.493   0.773  0.1752  1.6609  0.3287
  800MOL0     C 5494   7.778   1.600   0.786 -0.0620  0.6661 -0.5083
  800MOL0     C 5495   7.655   1.598   0.854  0.0331  0.8996  0.5534
  800MOL0     C 5496   7.626   1.490   0.935  0.0973  0.2787 -1.1217
  800MOL0     C 5497   7.498   1.481   1.011 -0.5967 -0.2705 -0.1307
  800MOL0     O 5498   7.476   1.366   1.078 -0.1018 -0.7095 -0.0669
  800MOL0     C 5499   7.363   1.368   1.161  0.5365 -0.0938 -0.1642
  800MOL0     C 5500   7.354   1.448   1.278 -0.2901  0.2141  0.5767
  800MOL0     C 5501   7.253   1.418   1.369  0.5296 -0.3288 -0.7099
  800MOL0     C 5502   7.159   1.315   1.349 -0.7095  0.5295  0.0692
  800MOL0     O 5503   7.077   1.286   1.450  0.4890 -0.1620  0.5520
  800MOL0     C 5504   7.095   1.157   1.505  0.7248 -0.6025  0.5470
  800MOL0     C 5505   7.106   1.150   1.660  0.7430  0.0470 -0.3083
  800MOL0     C 5506   6.972   1.195   1.729  0.3388 -0.2969 -0.3148
  800MOL0     C 5507   6.989   1.186   1.868 -0.5432 -1.5447  1.0663
  800MOL0     C 5508   6.859   1.195   1.947  0.9287  0.2521 -0.3146
  800MOL0     C 5509   6.800   1.338   1.928 -0.4152  0.6755 -1.5853
  800MOL0     C 5510   6.692   1.362   2.044 -0.6964  0.3039  0.7933
  800MOL0     C 5511   6.642   1.514   2.040  0.3428 -0.5336 -0.5581
  800MOL0    Cl 5512   6.773   1.630   2.027 -0.2395  0.5618  0.0897
  800MOL0     C 5513   7.160   1.246   1.224 -0.0674 -0.1578  0.0714
  800MOL0     C 5514   7.266   1.270   1.146 -0.4662 -0.2179  0.2243
  800MOL0     O 5515   7.435   1.583   1.023 -0.0382 -0.2376  0.4921
  800MOL0     C 5516   7.721   1.384   0.944 -0.8645  1.0773  0.3907
  800MOL0     C 5517   7.840   1.379   0.860  0.6691  0.6137  1.2553
  800MOL0     N 5518   8.434   1.102   0.538 -0.0780  0.4110  0.4789
  800MOL0     N 5519   8.553   1.059   0.524 -0.7258 -0.0157 -0.3438
  800MOL0     C 5520   9.793   1.345   0.694 -0.7977 -0.4941 -0.0081
  800MOL0     C 5521   9.926   1.396   0.686 -0.8252 -0.4569  0.4599
  800MOL0     C 5522  10.350   1.499   0.620 -0.0815 -0.7234 -0.2453
  800MOL0     C 5523  10.397   1.470   0.490 -0.4626 -0.2990 -0.6197
  800MOL0     C 5524  10.521   1.518   0.444 -0.1900 -0.2409 -0.7557
  800MOL0     C 5525  10.604   1.598   0.522 -0.2469 -0.2580  0.7668
  800MOL0     O 5526  10.738   1.627   0.479  0.3905  0.5226  0.6415
  800MOL0     C 5527  10.752   1.644   0.335 -0.1823  0.6562 -0.7132
  800MOL0     C 5528  10.888   1.718   0.309  0.8944  1.0870  0.2355
  800MOL0     C 5529  10.925   1.748   0.158  0.3848 -0.6334  0.8224
  800MOL0     C 5530  11.057   1.831   0.152  0.0636 -0.2404  0.1953
  800MOL0     C 5531  11.051   1.893   0.022 -0.0815 -1.4091 -0.5815
  800MOL0     C 5532  11.055   1.948  -0.085 -0.1470 -0.5957  0.3235
  800MOL0     C 5533  10.557   1.630   0.652  0.5440 -0.6210  0.8490
  800MOL0     C 5534  10.435   1.579   0.706  0.6339 -0.2649  0.3432
  800MOL0     H 5535  10.069   1.159   0.493  1.2029 -0.1809  1.0122
  800MOL0     H 5536   9.842   1.055   0.531  0.5967 -1.8135  2.7964
  800MOL0     H 5537   9.687   0.959   0.663 -0.2458  1.1850 -1.6300
  800MOL0     H 5538   9.599   1.026   0.531 -0.6152  1.4637 -0.6260
  800MOL0     H 5539   9.500   1.055   0.813 -3.4370  1.8511 -0.9053
  800MOL0     H 5540   9.482   0.894   0.740  2.0250  1.0168  0.1882
  800MOL0     H 5541   9.344   1.030   0.560  2.3243 -1.4202  1.3319
  800MOL0     H 5542   9.363   1.167   0.678 -0.9670  0.6090  0.1298
  800MOL0     H 5543   9.225   0.909   0.729  0.3199  0.4536 -1.2604
  800MOL0     H 5544   9.257   1.032   0.849 -0.0201 -1.3247  0.6529
  800MOL0     H 5545   9.126   1.097   0.580 -1.6104  0.9270 -0.4279
  800MOL0     H 5546   9.112   1.194   0.719 -2.7760  0.0753  0.3155
  800MOL0     H 5547   8.987   0.969   0.803  0.4800 -0.2536 -0.5196
  800MOL0     H 5548   9.014   0.924   0.631  0.2394 -1.0960  1.3882
  800MOL0     H 5549   8.857   1.182   0.712  1.2286 -1.5980  2.5936
  800MOL0     H 5550   8.853   1.094   0.548 -4.5408 -0.9674 -0.8669
  800MOL0     H 5551   8.733   0.962   0.787 -4.3831 -2.3459 -1.2545
  800MOL0     H 5552   8.750   0.911   0.621 -0.6877  0.3545 -0.8072
  800MOL0     H 5553   8.537   1.126   0.849 -0.0387 -2.8653  0.6922
  800MOL0     H 5554   8.238   1.090   0.794 -3.0921  0.9599 -1.4661
  800MOL0     H 5555   8.212   1.187   0.652 -1.5354 -2.8605  1.5820
  800MOL0     H 5556   8.349   1.374   0.731  1.1791  0.5820  0.4763
  800MOL0     H 5557   8.366   1.303   0.888 -2.1487 -0.3421  1.4523
  800MOL0     H 5558   8.099   1.319   0.899  0.1130  0.0350  0.3162
  800MOL0     H 5559   8.178   1.473   0.861  2.5619 -0.6577 -1.0992
  800MOL0     H 5560   8.019   1.317   0.673 -0.4307 -0.1347  1.6404
  800MOL0     H 5561   8.143   1.416   0.610 -1.9387  0.0889 -0.9568
  800MOL0     H 5562   7.798   1.693   0.735 -0.7635  0.5188 -1.0753
  800MOL0     H 5563   7.583   1.677   0.835  0.3888  0.5968 -2.5124
  800MOL0     H 5564   7.435   1.513   1.308  2.9268 -2.0466 -2.3813
  800MOL0     H 5565   7.254   1.459   1.469 -1.1342 -2.6906  0.3741
  800MOL0     H 5566   7.185   1.104   1.474  0.2906 -1.7746  1.1663
  800MOL0     H 5567   7.005   1.099   1.480 -0.5580  0.7458  1.8424
  800MOL0     H 5568   7.189   1.216   1.686  1.3784 -1.3702  1.4635
  800MOL0     H 5569   7.135   1.050   1.696 -0.7943  0.0160  0.9453
  800MOL0     H 5570   6.885   1.145   1.685  0.5019  0.3004 -1.3339
  800MOL0     H 5571   6.957   1.296   1.690  1.4100 -0.4839 -1.2670
  800MOL0     H 5572   7.034   1.090   1.894  0.5721 -1.3531 -0.0677
  800MOL0     H 5573   7.051   1.270   1.900 -2.2129  0.6356 -1.0196
  800MOL0     H 5574   6.869   1.184   2.055 -3.5337 -2.7919  0.0620
  800MOL0     H 5575   6.783   1.125   1.910  0.3263  0.4978  0.4511
  800MOL0     H 5576   6.774   1.361   1.825 -0.3116  0.2936 -1.6966
  800MOL0     H 5577   6.883   1.398   1.965 -0.3530 -0.3740  0.1196
  800MOL0     H 5578   6.622   1.279   2.031 -0.9050  0.8843 -3.3319
  800MOL0     H 5579   6.746   1.345   2.137  0.0322  0.9134  0.4979
  800MOL0     H 5580   6.603   1.542   2.138 -3.7827 -1.6979 -1.7022
  800MOL0     H 5581   6.571   1.536   1.960  1.6578  0.9891 -1.3680
  800MOL0     H 5582   7.079   1.174   1.214  0.0006 -0.3860  1.0720
  800MOL0     H 5583   7.276   1.212   1.055  3.7172 -0.7449  0.8235
  800MOL0     H 5584   7.688   1.303   1.008 -4.2665  1.2738 -0.8830
  800MOL0     H 5585   7.902   1.291   0.864  0.2072  0.3212  3.4884
  800MOL0     H 5586   9.707   1.381   0.751  0.7606  0.4984  1.8214
  800MOL0     H 5587   9.957   1.492   0.727 -0.6698 -0.0359 -0.6222
  800MOL0     H 5588  10.328   1.406   0.436 -1.6041  0.0661  0.3803
  800MOL0     H 5589  10.547   1.480   0.346 -0.8738 -0.2358 -0.9447
  800MOL0     H 5590  10.676   1.709   0.291 -1.3927 -0.2554 -0.0311
  800MOL0     H 5591  10.755   1.550   0.278  0.6916  0.3873 -0.2395
  800MOL0     H 5592  10.886   1.808   0.372  1.0831 -1.0058  3.4370
  800MOL0     H 5593  10.961   1.650   0.353  1.2767  0.7868 -0.8442
  800MOL0     H 5594  10.842   1.804   0.113 -0.3712 -1.0565  1.6356
  800MOL0     H 5595  10.936   1.651   0.109  3.2652 -0.7986  1.6185
  800MOL0     H 5596  11.062   1.904   0.233  2.5361  1.9569 -1.7544
  800MOL0     H 5597  11.143   1.764   0.160 -0.3615 -0.6617  1.6698
  800MOL0     H 5598  11.051   1.983  -0.186 -2.1736 -1.7051 -0.0406
  800MOL0     H 5599  10.615   1.696   0.716  0.5926  0.5457 -0.3569
  800MOL0     H 5600  10.411   1.604   0.809 -1.4365  0.4149 -0.2546
  801MOL0     O 5601  10.675   8.399   5.474 -0.4926  0.5440 -0.4283
  801MOL0     C 5602  10.611   8.290   5.499 -0.9322  0.1680 -0.4726
  801MOL0     O 5603  10.610   8.229   5.621 -0.0423 -0.2549 -0.7320
  801MOL0     C 5604  10.689   8.248   5.726 -0.8962 -0.0090 -0.0686
  801MOL0     C 5605  10.643   8.221   5.845 -0.1287 -0.0695  0.9562
  801MOL0     C 5606  10.721   8.222   5.971 -0.0143 -0.0844  0.3570
  801MOL0     C 5607  10.857   8.237   5.955 -0.5205 -0.4798 -0.1332
  801MOL0     O 5608  10.945   8.239   6.059  0.8372  0.6875  0.2671
  801MOL0     C 5609  10.920   8.142   6.167  0.7404 -0.2096  0.1337
  801MOL0     C 5610  11.029   8.156   6.270  0.6558 -0.3841 -0.3342
  801MOL0     C 5611  11.034   8.300   6.321 -0.3581  0.1520 -0.1142
  801MOL0     C 5612  11.091   8.330   6.455  0.2335 -0.3798  0.1157
  801MOL0     C 5613  11.125   8.476   6.487 -0.3075 -0.3721 -0.0156
  801MOL0     C 5614  11.185   8.520   6.617  0.0501  0.1818  0.1123
  801MOL0     C 5615  11.077   8.533   6.726 -0.5637  0.8647  0.2899
  801MOL0     C 5616  10.955   8.622   6.693  0.3301 -0.6506  0.1330
  801MOL0     N 5617  10.882   8.661   6.809  0.7046 -0.0733 -0.1040
  801MOL0     C 5618  10.806   8.585   6.893 -0.0549  0.5934 -0.7360
  801MOL0     C 5619  10.761   8.668   6.991 -0.3938  0.5074  0.2792
  801MOL0     C 5620  10.677   8.629   7.110  0.4751  0.2437  0.5721
  801MOL0     C 5621  10.526   8.591   7.080 -0.1785  0.6262  0.2313
  801MOL0     C 5622  10.451   8.728   7.055  0.5147 -0.0853 -0.0441
  801MOL0     C 5623  10.477   8.787   6.915 -1.4445  0.0351 -0.8022
  801MOL0     O 5624  10.384   8.894   6.882 -0.2377  0.8049  0.0922
  801MOL0     C 5625  10.387   9.007   6.951  0.1858 -0.6271  0.5591
  801MOL0     C 5626  10.504   9.053   7.013 -0.4503 -0.3513  0.4237
  801MOL0     C 5627  10.497   9.173   7.088  0.0852  0.6501  1.2317
  801MOL0     C 5628  10.382   9.242   7.103  0.8477  0.5093  0.2461
  801MOL0     C 5629  10.364   9.348   7.209 -0.4865 -0.6353  0.6446
  801MOL0     O 5630  10.238   9.400   7.225 -0.0712  0.7251  0.3904
  801MOL0     C 5631  10.201   9.501   7.308  0.5247  0.1595 -0.8005
  801MOL0     C 5632  10.140   9.474   7.435 -0.2554  0.1806 -0.5362
  801MOL0     C 5633  10.081   9.577   7.512  0.9247 -0.7250 -0.1893
  801MOL0     C 5634  10.088   9.710   7.466 -0.6188 -0.0019 -1.0519
  801MOL0     O 5635  10.029   9.817   7.519  0.2730  0.0993  0.1120
  801MOL0     C 5636  10.023   9.821   7.667 -0.2266 -0.2808  0.3960
  801MOL0     C 5637  10.157   9.867   7.719 -0.0009  0.9234 -0.2569
  801MOL0     C 5638  10.178  10.019   7.737  1.4248 -0.4063  0.2344
  801MOL0     C 5639  10.316  10.057   7.800 -0.5617  0.5078 -1.1385
  801MOL0     C 5640  10.350  10.205   7.796  2.0905 -0.6279 -0.5115
  801MOL0     C 5641  10.378  10.261   7.655 -0.2082  1.0958  0.3998
  801MOL0     C 5642  10.412  10.406   7.646  0.2880  0.6471  0.1460
  801MOL0     C 5643  10.570  10.434   7.671  0.8775 -0.1298  0.0594
  801MOL0    Cl 5644  10.642  10.386   7.516  0.1699  0.2226 -0.3123
  801MOL0     C 5645  10.139   9.729   7.347  0.0764 -0.0079 -0.6801
  801MOL0     C 5646  10.193   9.631   7.265 -1.1074 -0.0224  0.1735
  801MOL0     O 5647  10.461   9.371   7.273  0.2599 -0.5061 -0.3240
  801MOL0     C 5648  10.261   9.197   7.034 -0.4130 -0.6985 -0.5476
  801MOL0     C 5649  10.269   9.087   6.954 -0.1229 -0.2244 -0.7193
  801MOL0     N 5650  10.832   8.786   6.977 -0.1418  0.4608  0.1771
  801MOL0     N 5651  10.901   8.780   6.866  0.5124 -1.0784 -0.6035
  801MOL0     C 5652  10.916   8.265   5.831  0.2575 -0.2111 -0.0671
  801MOL0     C 5653  10.839   8.275   5.718  1.0460  0.4257  1.0634
  801MOL0     C 5654  10.529   8.232   5.395  0.0040  0.6919  0.5025
  801MOL0     C 5655  10.465   8.106   5.416  0.9095 -0.0044  0.0677
  801MOL0     C 5656  10.364   8.055   5.322 -0.5265 -0.0012  0.2044
  801MOL0     C 5657  10.355   8.124   5.198 -0.2999 -0.2308  0.0105
  801MOL0     O 5658  10.270   8.086   5.103  0.3251 -0.4355  0.2253
  801MOL0     C 5659  10.265   7.938   5.084 -0.2259 -0.5986  0.1218
  801MOL0     C 5660  10.230   7.921   4.932  0.5946  0.0165  0.0617
  801MOL0     C 5661  10.105   7.990   4.893  0.0359  0.2525  0.0839
  801MOL0     C 5662   9.973   7.912   4.932 -0.2527 -0.6984 -0.3081
  801MOL0     C 5663   9.921   7.847   4.812  0.0066  1.4018  0.1970
  801MOL0     C 5664   9.881   7.795   4.705 -0.1307  0.0931  0.4430
  801MOL0     C 5665  10.438   8.230   5.175 -0.2761 -0.1071  0.2988
  801MOL0     C 5666  10.526   8.284   5.262  0.5308 -0.1444 -0.1906
  801MOL0     H 5667  10.535   8.228   5.853 -0.5691 -0.8134 -2.7330
  801MOL0     H 5668  10.669   8.206   6.065 -2.1123  0.7289 -0.5954
  801MOL0     H 5669  10.915   8.043   6.120  3.4461 -1.0624  1.4195
  801MOL0     H 5670  10.820   8.167   6.203 -0.8317 -1.6680 -2.8488
  801MOL0     H 5671  11.127   8.131   6.227  0.4406 -0.9221 -0.5089
  801MOL0     H 5672  11.020   8.085   6.352  2.5432 -1.5430 -1.0750
  801MOL0     H 5673  10.931   8.338   6.329 -0.2238  0.1670  2.1908
  801MOL0     H 5674  11.102   8.355   6.256  1.0721 -0.7802  0.5490
  801MOL0     H 5675  11.009   8.302   6.522  1.4966 -0.8449  1.5103
  801MOL0     H 5676  11.181   8.268   6.464  1.4724  1.3294 -0.1012
  801MOL0     H 5677  11.044   8.543   6.457 -0.5608 -0.4671  0.4549
  801MOL0     H 5678  11.202   8.485   6.410 -1.1496 -2.2546 -1.1730
  801MOL0     H 5679  11.221   8.622   6.606 -0.6790  0.5247  0.8319
  801MOL0     H 5680  11.257   8.440   6.638 -1.0873 -1.1559 -0.8312
  801MOL0     H 5681  11.039   8.432   6.745  2.6175 -0.5172 -0.0885
  801MOL0     H 5682  11.115   8.571   6.821  5.2432 -5.2980  1.1457
  801MOL0     H 5683  10.892   8.580   6.614 -2.6952  0.9969  1.5203
  801MOL0     H 5684  10.997   8.711   6.645 -1.1814 -1.7155 -3.5645
  801MOL0     H 5685  10.768   8.484   6.883 -3.0998  1.4707  0.7331
  801MOL0     H 5686  10.688   8.705   7.187  2.7802 -1.7716  2.3740
  801MOL0     H 5687  10.721   8.536   7.148 -0.5572  0.2096  1.7579
  801MOL0     H 5688  10.478   8.518   7.146 -3.9180  0.7218 -2.1058
  801MOL0     H 5689  10.519   8.535   6.986 -2.2159 -0.7739  1.1516
  801MOL0     H 5690  10.344   8.709   7.064 -0.0073  2.3282 -0.3688
  801MOL0     H 5691  10.472   8.804   7.131 -3.7006  1.6950 -0.3961
  801MOL0     H 5692  10.473   8.705   6.843 -2.1713  0.4783 -1.2847
  801MOL0     H 5693  10.577   8.826   6.894 -1.9874  0.9631 -1.7863
  801MOL0     H 5694  10.597   9.007   6.982  0.0473  0.8493  0.0549
  801MOL0     H 5695  10.586   9.195   7.146  0.7397  1.3638 -0.0020
  801MOL0     H 5696  10.116   9.373   7.466  1.5139 -0.2362 -0.4058
  801MOL0     H 5697  10.025   9.540   7.598 -4.1299 -2.4376 -3.6918
  801MOL0     H 5698   9.995   9.723   7.707 -2.1180 -0.0844 -0.3598
  801MOL0     H 5699   9.955   9.897   7.705 -1.1416 -0.5221 -0.6984
  801MOL0     H 5700  10.234   9.826   7.653 -1.4461  0.9158 -1.9924
  801MOL0     H 5701  10.174   9.828   7.820  1.2253  0.3632 -0.6640
  801MOL0     H 5702  10.093  10.059   7.792 -2.2782 -2.8347 -3.1422
  801MOL0     H 5703  10.177  10.065   7.638  1.7180 -2.3657 -0.7298
  801MOL0     H 5704  10.316  10.033   7.907  3.0933  1.5421 -0.7871
  801MOL0     H 5705  10.397   9.993   7.764 -2.4624 -2.0815 -1.0986
  801MOL0     H 5706  10.428  10.228   7.869  1.2152 -2.1378  0.9768
  801MOL0     H 5707  10.262  10.250   7.842 -0.1773 -2.4194 -2.7965
  801MOL0     H 5708  10.288  10.239   7.597 -0.4123 -0.3678  1.2384
  801MOL0     H 5709  10.458  10.198   7.617 -0.0792  1.7631 -0.4620
  801MOL0     H 5710  10.391  10.446   7.547  1.3079 -2.4981 -1.4931
  801MOL0     H 5711  10.350  10.451   7.725 -0.0117  0.1684  0.1932
  801MOL0     H 5712  10.604  10.372   7.754  2.1929  1.9378  1.1492
  801MOL0     H 5713  10.584  10.540   7.698 -4.0418  0.3736  1.6057
  801MOL0     H 5714  10.140   9.831   7.308  1.4595  0.2164 -0.0930
  801MOL0     H 5715  10.235   9.667   7.172 -1.4814 -3.7722 -1.6315
  801MOL0     H 5716  10.170   9.255   7.044 -0.6850 -1.3569  0.9717
  801MOL0     H 5717  10.175   9.066   6.905 -0.5829 -0.2601  0.1593
  801MOL0     H 5718  11.020   8.296   5.819 -0.4445  2.4657  0.0879
  801MOL0     H 5719  10.878   8.307   5.622 -1.7615 -2.9693 -1.4999
  801MOL0     H 5720  10.464   8.062   5.516 -1.4072 -2.1630 -0.7881
  801MOL0     H 5721  10.326   7.955   5.342  5.0403 -2.7353 -0.8148
  801MOL0     H 5722  10.194   7.895   5.155  0.6416 -2.1922  0.0775
  801MOL0     H 5723  10.365   7.895   5.099  0.8722  0.5086 -3.0219
  801MOL0     H 5724  10.318   7.951   4.874  0.1912 -1.7583 -1.5828
  801MOL0     H 5725  10.203   7.818   4.909 -0.9365 -0.0860  2.0720
  801MOL0     H 5726  10.117   8.024   4.790  3.3696 -0.6110  0.0704
  801MOL0     H 5727  10.106   8.080   4.956  0.9512 -1.5897  2.9223
  801MOL0     H 5728   9.985   7.836   5.010 -1.1492  1.2200  1.8061
  801MOL0     H 5729   9.892   7.980   4.960  1.6918  0.7034  2.3143
  801MOL0     H 5730   9.852   7.753   4.611  1.0430  0.2240  0.0003
  801MOL0     H 5731  10.443   8.268   5.073  0.4190 -1.5680 -0.2361
  801MOL0     H 5732  10.580   8.370   5.226 -1.6306  2.0775  1.5044
  802MOL0     O 5733   3.797   8.602   1.477  0.4663 -0.4866  0.6936
  802MOL0     C 5734   3.712   8.564   1.401 -0.2924 -0.4929  0.3848
  802MOL0     O 5735   3.634   8.443   1.415 -0.6183  0.3465 -0.2040
  802MOL0     C 5736   3.623   8.378   1.535  0.6440 -0.2101 -0.3992
  802MOL0     C 5737   3.680   8.413   1.661 -0.4981 -0.7984  1.2058
  802MOL0     C 5738   3.664   8.328   1.761 -0.4968  0.3846 -0.3353
  802MOL0     C 5739   3.598   8.205   1.755  1.5348 -0.2666 -0.0086
  802MOL0     O 5740   3.593   8.134   1.875 -0.6222 -0.2858  0.4580
  802MOL0     C 5741   3.547   7.998   1.876 -0.0841  0.2191 -0.0323
  802MOL0     C 5742   3.543   7.951   2.022 -0.4575 -0.1631  0.2419
  802MOL0     C 5743   3.684   7.941   2.077 -0.0704  0.0934 -0.0201
  802MOL0     C 5744   3.676   7.901   2.227 -0.3634 -0.1922  0.1359
  802MOL0     C 5745   3.606   7.772   2.268 -0.5846  0.1770 -0.6688
  802MOL0     C 5746   3.579   7.768   2.424 -0.3451  0.7042  0.2441
  802MOL0     C 5747   3.551   7.625   2.488  0.0772 -0.6252 -0.7829
  802MOL0     C 5748   3.410   7.578   2.450 -0.7052 -0.0067 -0.1776
  802MOL0     N 5749   3.386   7.440   2.501  0.2077 -0.3232  0.1500
  802MOL0     C 5750   3.385   7.400   2.629  0.3358  0.0028 -0.7607
  802MOL0     C 5751   3.359   7.262   2.625 -0.0724  0.0578 -0.3918
  802MOL0     C 5752   3.335   7.181   2.743  0.2245  0.7823  0.4078
  802MOL0     C 5753   3.222   7.079   2.728 -0.7451  0.2549 -0.2332
  802MOL0     C 5754   3.252   6.974   2.623  0.5021  0.4061  0.7616
  802MOL0     C 5755   3.379   6.903   2.630  0.1721 -0.5897 -0.0759
  802MOL0     O 5756   3.368   6.830   2.749 -0.0869  0.1017  0.7295
  802MOL0     C 5757   3.455   6.737   2.796 -0.5762 -1.1936  0.4566
  802MOL0     C 5758   3.439   6.692   2.928 -0.1007  0.6537 -0.5428
  802MOL0     C 5759   3.533   6.600   2.979  0.8424 -1.0386  1.2220
  802MOL0     C 5760   3.646   6.552   2.908 -0.1236  0.3831 -0.0452
  802MOL0     C 5761   3.740   6.454   2.975  0.4726  0.1765 -0.3910
  802MOL0     O 5762   3.859   6.432   2.904 -0.2551 -1.0231 -0.7818
  802MOL0     C 5763   3.967   6.368   2.958  0.8475  0.3057  0.1318
  802MOL0     C 5764   3.967   6.265   3.055  0.1540  0.7887 -0.5409
  802MOL0     C 5765   4.085   6.206   3.105 -1.2536 -0.6348 -0.1491
  802MOL0     C 5766   4.208   6.240   3.049  0.7992  0.1484  0.0087
  802MOL0     O 5767   4.317   6.165   3.090  0.8020 -0.1092  0.0298
  802MOL0     C 5768   4.447   6.204   3.050 -0.0764  0.3743  0.0070
  802MOL0     C 5769   4.560   6.124   3.129  0.0557 -0.2921  0.2943
  802MOL0     C 5770   4.701   6.175   3.088  0.2400  1.3935  0.5089
  802MOL0     C 5771   4.814   6.086   3.151 -0.4272  0.5698  0.8977
  802MOL0     C 5772   4.942   6.126   3.081 -1.1183  0.8070 -0.2898
  802MOL0     C 5773   5.055   6.041   3.129 -0.3609 -0.4705  0.2152
  802MOL0     C 5774   5.086   6.069   3.276  0.4336 -0.2834  0.8838
  802MOL0     C 5775   5.121   6.216   3.298  0.7922  0.1953 -0.1426
  802MOL0    Cl 5776   5.186   6.237   3.454  0.3598  0.1759  0.1492
  802MOL0     C 5777   4.213   6.346   2.950  0.6157  0.8758  0.7393
  802MOL0     C 5778   4.095   6.405   2.897  0.3584  0.8274  0.8533
  802MOL0     O 5779   3.710   6.405   3.086  0.0001 -0.2614 -0.4987
  802MOL0     C 5780   3.655   6.608   2.777 -0.0958 -0.4342 -0.6209
  802MOL0     C 5781   3.568   6.692   2.720  0.1965  0.9535  0.0573
  802MOL0     N 5782   3.337   7.234   2.492 -0.2984  0.8471  0.2999
  802MOL0     N 5783   3.352   7.336   2.418  0.2268 -0.4520 -0.6058
  802MOL0     C 5784   3.528   8.175   1.643 -1.1576  0.3883  1.0048
  802MOL0     C 5785   3.541   8.260   1.530  0.2791 -0.5382  0.2558
  802MOL0     C 5786   3.702   8.631   1.271  0.3116 -0.3809 -0.1474
  802MOL0     C 5787   3.605   8.588   1.168 -0.2181 -0.5727  0.2375
  802MOL0     C 5788   3.593   8.662   1.050  0.4632  0.2198  0.5244
  802MOL0     C 5789   3.675   8.775   1.030 -0.1328 -1.0395 -0.4317
  802MOL0     O 5790   3.675   8.832   0.909  0.0526  0.8939  1.0011
  802MOL0     C 5791   3.649   8.972   0.901 -0.2509 -0.7936 -0.3665
  802MOL0     C 5792   3.650   9.014   0.765  0.6813  0.4759  0.0501
  802MOL0     C 5793   3.555   8.930   0.677 -0.6015  0.1812  0.3800
  802MOL0     C 5794   3.634   8.849   0.579  0.4964 -0.0535  0.2560
  802MOL0     C 5795   3.527   8.782   0.493  0.2971 -0.0309  0.8705
  802MOL0     C 5796   3.424   8.749   0.426 -0.1826 -0.2052 -0.0240
  802MOL0     C 5797   3.761   8.830   1.129  0.6330  0.6032 -0.5396
  802MOL0     C 5798   3.768   8.758   1.252  0.8907  0.5886 -0.4895
  802MOL0     H 5799   3.735   8.501   1.691  1.0020 -0.6301 -1.6571
  802MOL0     H 5800   3.700   8.356   1.860 -1.0010  0.0897 -0.0631
  802MOL0     H 5801   3.604   7.923   1.820 -0.8867 -3.2026  3.3510
  802MOL0     H 5802   3.450   7.991   1.827 -0.1395 -1.9812  0.2900
  802MOL0     H 5803   3.489   7.856   2.025  0.1570 -0.5044  0.8938
  802MOL0     H 5804   3.489   8.018   2.090 -0.5384 -0.3022  0.3147
  802MOL0     H 5805   3.732   8.039   2.087 -1.8235  1.0035  0.0666
  802MOL0     H 5806   3.755   7.875   2.027  1.2343  1.0494  0.5075
  802MOL0     H 5807   3.778   7.897   2.267 -0.0304 -3.7995 -0.7487
  802MOL0     H 5808   3.621   7.985   2.270 -1.7188 -0.3368 -1.2459
  802MOL0     H 5809   3.653   7.678   2.239 -1.6044 -0.1876 -1.1974
  802MOL0     H 5810   3.509   7.778   2.217 -0.4498 -0.7724 -1.0625
  802MOL0     H 5811   3.504   7.833   2.471 -1.8414 -2.1069  2.0937
  802MOL0     H 5812   3.678   7.801   2.455  2.3936 -2.5783 -3.8010
  802MOL0     H 5813   3.629   7.553   2.463 -1.8438 -3.1927  0.2590
  802MOL0     H 5814   3.552   7.636   2.597 -0.0353  0.3711 -0.8738
  802MOL0     H 5815   3.404   7.579   2.340  0.8481 -2.1188 -0.3463
  802MOL0     H 5816   3.348   7.659   2.489  0.2012  1.1009 -0.9693
  802MOL0     H 5817   3.408   7.468   2.710  0.0016 -1.3034  0.4644
  802MOL0     H 5818   3.316   7.244   2.831  1.3976 -0.8809  1.9138
  802MOL0     H 5819   3.427   7.134   2.777 -0.6115 -1.8291 -0.7138
  802MOL0     H 5820   3.128   7.133   2.711 -0.4766  0.1304 -2.3984
  802MOL0     H 5821   3.220   7.025   2.823  1.9929  1.3533  0.5522
  802MOL0     H 5822   3.183   6.890   2.613  3.8267 -2.3707 -0.9719
  802MOL0     H 5823   3.252   7.025   2.526 -1.2853  3.0657  2.0338
  802MOL0     H 5824   3.468   6.966   2.632  2.0792 -3.1418  1.2513
  802MOL0     H 5825   3.386   6.840   2.541  1.9161  0.1835 -0.5090
  802MOL0     H 5826   3.362   6.730   2.994  0.4369 -1.7623  1.6255
  802MOL0     H 5827   3.518   6.575   3.084 -1.5363 -1.5401  0.8316
  802MOL0     H 5828   3.869   6.226   3.081  1.1937  0.1062  2.8751
  802MOL0     H 5829   4.083   6.122   3.172 -0.7720  0.6796  1.5756
  802MOL0     H 5830   4.454   6.310   3.073  0.3062 -0.2240  3.1454
  802MOL0     H 5831   4.458   6.190   2.942 -1.4952 -1.4684  0.0385
  802MOL0     H 5832   4.541   6.020   3.101 -2.2208 -0.3216  1.6422
  802MOL0     H 5833   4.556   6.131   3.238  0.0989  2.3189  0.2066
  802MOL0     H 5834   4.723   6.275   3.127 -1.1404  2.1451 -0.5982
  802MOL0     H 5835   4.715   6.171   2.980  3.4658  1.0980  0.8333
  802MOL0     H 5836   4.820   6.100   3.259  0.2558 -2.5198  1.3570
  802MOL0     H 5837   4.796   5.979   3.136  2.1937 -0.2683  3.0153
  802MOL0     H 5838   4.974   6.231   3.083 -2.0079  1.0784  0.3330
  802MOL0     H 5839   4.934   6.115   2.972  2.0906  0.0376 -0.5363
  802MOL0     H 5840   5.144   6.072   3.073  1.4896 -0.7185  2.7863
  802MOL0     H 5841   5.036   5.934   3.120 -1.2622 -0.3595  0.7034
  802MOL0     H 5842   5.009   6.046   3.350  0.1929  0.1939  0.7906
  802MOL0     H 5843   5.184   6.024   3.296  0.5434  0.3620  1.8540
  802MOL0     H 5844   5.030   6.277   3.291 -0.6618 -2.0211 -2.5834
  802MOL0     H 5845   5.192   6.256   3.225  1.1645 -1.2620 -0.6122
  802MOL0     H 5846   4.304   6.383   2.904  0.8148  0.9650  1.2038
  802MOL0     H 5847   4.100   6.480   2.819 -0.0286  1.8272  1.7533
  802MOL0     H 5848   3.741   6.582   2.716 -1.7480 -3.3689 -1.8795
  802MOL0     H 5849   3.585   6.737   2.623  0.7384  3.2955  1.1821
  802MOL0     H 5850   3.483   8.076   1.638  0.1277 -0.1637 -1.3927
  802MOL0     H 5851   3.512   8.221   1.433 -0.4771 -5.6898  2.2225
  802MOL0     H 5852   3.548   8.496   1.180 -0.2703 -1.0819 -3.0289
  802MOL0     H 5853   3.525   8.628   0.972  1.1606 -1.5546  0.6361
  802MOL0     H 5854   3.713   9.032   0.966 -2.9919 -1.7995  3.6841
  802MOL0     H 5855   3.551   8.989   0.948  1.9279  2.4815  3.6025
  802MOL0     H 5856   3.612   9.115   0.746 -2.2315 -0.5799 -0.3247
  802MOL0     H 5857   3.754   9.015   0.731  0.6351  0.5830 -0.0945
  802MOL0     H 5858   3.486   8.996   0.623 -0.6081 -0.6808 -0.6971
  802MOL0     H 5859   3.496   8.861   0.739 -1.5519  0.7148  0.0838
  802MOL0     H 5860   3.703   8.906   0.516 -2.1871  0.4531 -2.4564
  802MOL0     H 5861   3.694   8.778   0.636 -0.6336 -0.1244  1.4046
  802MOL0     H 5862   3.339   8.714   0.371 -2.1486  1.0319  2.0438
  802MOL0     H 5863   3.814   8.924   1.120  2.5594 -0.1172  1.9108
  802MOL0     H 5864   3.811   8.808   1.338  0.9079  1.9319 -1.2409
  803MOL0     O 5865   5.268   5.536   4.762 -0.3659 -0.1531  0.1506
  803MOL0     C 5866   5.188   5.614   4.706  0.0930 -0.0095  0.3440
  803MOL0     O 5867   5.202   5.646   4.576  0.2454  0.0053  0.0252
  803MOL0     C 5868   5.314   5.623   4.491  0.6895 -1.2230  0.3917
  803MOL0     C 5869   5.278   5.612   4.353 -0.7036  0.1275  0.0772
  803MOL0     C 5870   5.384   5.602   4.259 -0.1451  0.3310  0.8784
  803MOL0     C 5871   5.517   5.582   4.299 -0.0168 -0.1805 -0.8388
  803MOL0     O 5872   5.634   5.581   4.231 -0.0847 -0.2532  0.7331
  803MOL0     C 5873   5.630   5.588   4.087  0.2633  0.7389 -0.1781
  803MOL0     C 5874   5.645   5.744   4.072  0.5416  0.6575 -0.4642
  803MOL0     C 5875   5.766   5.807   4.128 -0.0759  1.1156  0.2467
  803MOL0     C 5876   5.888   5.760   4.055 -0.6394  0.1595  0.3839
  803MOL0     C 5877   6.006   5.830   4.110 -0.4751 -0.9533  0.7834
  803MOL0     C 5878   6.139   5.786   4.043 -0.5048 -0.5235 -0.0823
  803MOL0     C 5879   6.260   5.881   4.086 -0.3005 -0.0079  0.4231
  803MOL0     C 5880   6.283   6.016   4.024 -0.1982 -0.2487  0.0936
  803MOL0     N 5881   6.385   6.018   3.909  0.3340  0.0469 -0.3458
  803MOL0     C 5882   6.380   5.931   3.808  0.6180 -0.3791  0.4778
  803MOL0     C 5883   6.505   5.932   3.756  0.3413  0.7749 -0.2826
  803MOL0     C 5884   6.569   5.841   3.659 -0.0625  0.6204 -0.7006
  803MOL0     C 5885   6.515   5.902   3.530 -0.8444  0.9444  1.4435
  803MOL0     C 5886   6.562   5.822   3.404 -0.7275 -0.1621  0.8967
  803MOL0     C 5887   6.516   5.884   3.275  0.1538 -0.0959  0.8896
  803MOL0     O 5888   6.377   5.863   3.273  0.3906  0.3343  0.8003
  803MOL0     C 5889   6.306   5.934   3.179  0.0665 -0.0226  0.0611
  803MOL0     C 5890   6.169   5.955   3.208 -0.1813 -0.3557 -0.4743
  803MOL0     C 5891   6.085   6.034   3.130 -0.6564  1.3879  0.7051
  803MOL0     C 5892   6.137   6.080   3.008  0.3068  0.0490 -0.4555
  803MOL0     C 5893   6.063   6.151   2.915  0.6118  0.5646  0.8543
  803MOL0     O 5894   6.117   6.157   2.789 -0.1638  0.1287 -0.5774
  803MOL0     C 5895   6.066   6.247   2.693  0.2888 -0.2804 -0.6151
  803MOL0     C 5896   6.040   6.190   2.572 -0.5450 -0.7225  0.4695
  803MOL0     C 5897   6.003   6.283   2.467  0.7015  0.0136  0.3673
  803MOL0     C 5898   5.984   6.422   2.484 -0.1004 -0.5964  0.4050
  803MOL0     O 5899   5.923   6.495   2.382  0.0447 -0.3731 -0.7899
  803MOL0     C 5900   5.951   6.629   2.365  0.1531 -0.4849 -0.1600
  803MOL0     C 5901   5.916   6.655   2.228 -0.8301 -0.4418 -0.4256
  803MOL0     C 5902   5.772   6.630   2.185  0.6110 -1.2248 -0.0792
  803MOL0     C 5903   5.674   6.722   2.258 -1.2191  0.0515  0.1729
  803MOL0     C 5904   5.518   6.689   2.213 -0.0213 -0.7897  0.4123
  803MOL0     C 5905   5.448   6.824   2.234  0.2117  0.2807 -0.1659
  803MOL0     C 5906   5.307   6.818   2.190  0.7451 -0.0355 -0.0356
  803MOL0     C 5907   5.228   6.945   2.232  0.2811 -0.3451  0.7055
  803MOL0    Cl 5908   5.287   7.084   2.144  0.0334 -0.2764 -0.0405
  803MOL0     C 5909   6.018   6.472   2.608 -0.5911  0.1589  1.0104
  803MOL0     C 5910   6.055   6.384   2.706  0.3426 -0.3924 -0.1226
  803MOL0     O 5911   5.959   6.204   2.944 -0.3331  0.6039 -0.2544
  803MOL0     C 5912   6.271   6.059   2.975 -1.3984 -0.2944  0.1226
  803MOL0     C 5913   6.358   5.989   3.064  0.0919  0.6835  0.5101
  803MOL0     N 5914   6.574   6.040   3.807 -0.2297  0.2123  0.2868
  803MOL0     N 5915   6.499   6.090   3.894 -0.6887  0.4276 -0.1428
  803MOL0     C 5916   5.540   5.588   4.441 -0.2720 -0.8652  0.6675
  803MOL0     C 5917   5.440   5.610   4.534 -0.3267  0.2990  0.3511
  803MOL0     C 5918   5.062   5.651   4.776 -0.8780  0.2489  0.3922
  803MOL0     C 5919   5.039   5.611   4.909 -0.7191 -0.2038  0.3912
  803MOL0     C 5920   4.919   5.641   4.979 -1.0466 -0.0708  1.2953
  803MOL0     C 5921   4.820   5.718   4.912  0.5598 -0.5707 -0.8780
  803MOL0     O 5922   4.721   5.783   4.984 -0.1769 -0.3432  0.0442
  803MOL0     C 5923   4.635   5.695   5.059 -0.0648 -1.0165 -0.6773
  803MOL0     C 5924   4.484   5.725   5.035 -1.0376 -0.5171  0.2720
  803MOL0     C 5925   4.453   5.882   5.030 -0.0827  0.5490 -0.2977
  803MOL0     C 5926   4.309   5.923   5.001  0.9360  0.6597 -0.6729
  803MOL0     C 5927   4.210   5.889   5.112  1.0718 -0.8389  0.5821
  803MOL0     C 5928   4.120   5.861   5.193  0.5893 -0.6092 -0.4073
  803MOL0     C 5929   4.826   5.751   4.775 -0.5303  0.6812 -0.5713
  803MOL0     C 5930   4.950   5.709   4.707  0.1311 -0.9773 -0.3704
  803MOL0     H 5931   5.173   5.612   4.328 -0.8793  2.4740  0.6029
  803MOL0     H 5932   5.345   5.587   4.159  0.0889  3.3021  0.2414
  803MOL0     H 5933   5.536   5.551   4.044  1.2359 -3.2959  0.7116
  803MOL0     H 5934   5.710   5.538   4.032 -1.0241 -2.5367  0.6588
  803MOL0     H 5935   5.557   5.791   4.116  1.8369  3.8467 -1.0071
  803MOL0     H 5936   5.649   5.769   3.965 -1.2375  2.8173 -0.0865
  803MOL0     H 5937   5.768   5.794   4.237 -2.2286  0.5090  0.2554
  803MOL0     H 5938   5.757   5.915   4.108 -0.4880  0.6139 -2.7877
  803MOL0     H 5939   5.900   5.653   4.071  0.2336 -0.0466 -1.4525
  803MOL0     H 5940   5.879   5.763   3.946  1.1028 -4.4901 -0.1008
  803MOL0     H 5941   6.013   5.798   4.214  1.7535  1.0788  1.3624
  803MOL0     H 5942   6.004   5.940   4.110 -0.6486 -0.9555  0.9924
  803MOL0     H 5943   6.127   5.785   3.934 -1.0909  2.0622 -0.1102
  803MOL0     H 5944   6.156   5.681   4.065 -0.3978 -0.5749 -0.3960
  803MOL0     H 5945   6.243   5.910   4.190  0.3617  3.9463 -0.4139
  803MOL0     H 5946   6.347   5.815   4.086 -0.6280 -0.4578 -0.1706
  803MOL0     H 5947   6.321   6.077   4.107  1.7992  0.6841 -1.4351
  803MOL0     H 5948   6.184   6.049   3.990 -0.6084 -1.9572 -0.4652
  803MOL0     H 5949   6.305   5.860   3.775  1.9818 -1.9772  0.6973
  803MOL0     H 5950   6.530   5.739   3.668  3.6884 -0.8606  0.4233
  803MOL0     H 5951   6.678   5.842   3.669  0.3611  2.8501 -3.8861
  803MOL0     H 5952   6.563   5.999   3.514 -0.2539  0.2189 -1.8696
  803MOL0     H 5953   6.405   5.898   3.527 -0.8170 -2.3154  1.3089
  803MOL0     H 5954   6.672   5.821   3.398 -0.7920  1.0080 -1.7833
  803MOL0     H 5955   6.535   5.716   3.406  0.6814 -0.5739 -0.2128
  803MOL0     H 5956   6.566   5.835   3.191  0.6373  1.4826  0.2176
  803MOL0     H 5957   6.541   5.991   3.276 -1.7897  0.4077  0.0249
  803MOL0     H 5958   6.135   5.918   3.305 -1.1808 -3.1790 -1.7729
  803MOL0     H 5959   5.989   6.062   3.172 -2.5149  0.2585 -2.4506
  803MOL0     H 5960   6.063   6.091   2.534  0.1269 -1.2620  2.1957
  803MOL0     H 5961   5.961   6.251   2.372  1.0227 -1.0924  0.5872
  803MOL0     H 5962   6.059   6.633   2.378  0.0864 -1.8837  1.1828
  803MOL0     H 5963   5.903   6.699   2.434 -1.1700 -1.3093 -0.2000
  803MOL0     H 5964   5.973   6.587   2.164 -0.4504  0.0556 -0.6195
  803MOL0     H 5965   5.942   6.760   2.213  1.8273 -1.0716 -0.6456
  803MOL0     H 5966   5.758   6.523   2.202 -1.3035 -1.0905 -0.5588
  803MOL0     H 5967   5.763   6.653   2.079  0.8411  1.9867  0.5008
  803MOL0     H 5968   5.684   6.704   2.366  0.9723  1.7488  0.3246
  803MOL0     H 5969   5.696   6.827   2.237 -0.5182 -0.0045  0.6034
  803MOL0     H 5970   5.464   6.622   2.281  1.0166 -2.4153 -0.2918
  803MOL0     H 5971   5.522   6.657   2.109  2.0160 -0.5122  0.3655
  803MOL0     H 5972   5.504   6.907   2.189  0.9502 -1.7184 -3.2833
  803MOL0     H 5973   5.452   6.841   2.342 -0.8728 -1.0636  0.1177
  803MOL0     H 5974   5.306   6.815   2.080  2.8256  3.8212 -0.3528
  803MOL0     H 5975   5.255   6.731   2.231  0.5524 -0.9425 -2.0855
  803MOL0     H 5976   5.235   6.958   2.340 -1.1179 -2.2566  1.0834
  803MOL0     H 5977   5.122   6.926   2.212  0.5670 -0.5762 -0.6540
  803MOL0     H 5978   6.007   6.579   2.627 -0.2351  0.7634 -1.7992
  803MOL0     H 5979   6.083   6.439   2.796 -0.5597  1.4532 -0.9211
  803MOL0     H 5980   6.315   6.084   2.879  0.4909 -1.3196  0.6657
  803MOL0     H 5981   6.457   5.972   3.023 -1.6151  1.2939 -4.5313
  803MOL0     H 5982   5.633   5.569   4.495  0.2644  1.1248  0.5319
  803MOL0     H 5983   5.462   5.630   4.639  0.1451  4.1663 -0.3243
  803MOL0     H 5984   5.111   5.559   4.972 -0.8852 -2.1286 -0.9442
  803MOL0     H 5985   4.916   5.619   5.086 -3.9652  0.8467  1.5013
  803MOL0     H 5986   4.661   5.707   5.165 -0.5161  3.2031 -0.8870
  803MOL0     H 5987   4.633   5.590   5.029 -2.5934 -1.9364  2.1782
  803MOL0     H 5988   4.464   5.679   4.938  3.8545 -2.6084 -0.0603
  803MOL0     H 5989   4.425   5.670   5.109  0.0192  1.7388  2.9998
  803MOL0     H 5990   4.513   5.921   4.948  1.7721  1.0676  1.2218
  803MOL0     H 5991   4.484   5.928   5.125  0.3882 -0.5462  0.0930
  803MOL0     H 5992   4.299   6.032   5.004 -2.9524  0.4490  1.6516
  803MOL0     H 5993   4.280   5.879   4.905  4.1819 -2.8774 -0.2486
  803MOL0     H 5994   4.043   5.852   5.267  1.1771  0.5987  0.3961
  803MOL0     H 5995   4.750   5.813   4.728 -2.5245 -0.8480  0.4749
  803MOL0     H 5996   4.959   5.732   4.601  2.3012 -1.2696 -0.2862
  804MOL0     O 5997   5.340   6.918   1.061 -0.4335 -0.8744  0.2597
  804MOL0     C 5998   5.312   7.034   1.027 -0.2562  1.4457 -0.3504
  804MOL0     O 5999   5.255   7.137   1.099 -0.6174 -0.4331 -0.2932
  804MOL0     C 6000   5.193   7.100   1.214 -0.2573  0.7127 -0.1873
  804MOL0     C 6001   5.053   7.097   1.215 -0.6225  0.2059  0.0974
  804MOL0     C 6002   4.986   7.063   1.330 -0.8637  0.4171 -0.0677
  804MOL0     C 6003   5.058   7.039   1.440 -0.7766  0.4562 -0.5614
  804MOL0     O 6004   4.976   7.001   1.545  0.0008  0.1689 -0.5187
  804MOL0     C 6005   5.021   7.052   1.675 -0.2576 -0.0837  0.1715
  804MOL0     C 6006   5.003   6.932   1.777 -0.4020 -0.7041 -0.5818
  804MOL0     C 6007   5.112   6.827   1.762  0.4940 -0.7099  0.0276
  804MOL0     C 6008   5.087   6.720   1.858  0.3089  0.5094 -0.6167
  804MOL0     C 6009   5.201   6.622   1.849 -0.6274 -0.2025 -0.8424
  804MOL0     C 6010   5.173   6.489   1.921  0.2805  0.0690  0.0737
  804MOL0     C 6011   5.298   6.394   1.908  0.7036 -0.7387  0.1372
  804MOL0     C 6012   5.330   6.345   1.764  1.4203  0.1510  0.7964
  804MOL0     N 6013   5.459   6.278   1.761 -0.2392  0.1910  0.3842
  804MOL0     C 6014   5.581   6.328   1.761 -0.8155  1.5386 -0.6835
  804MOL0     C 6015   5.666   6.230   1.737 -0.3581  1.2811  1.1766
  804MOL0     C 6016   5.817   6.250   1.712  0.3572 -0.1431 -0.6184
  804MOL0     C 6017   5.862   6.215   1.562  0.0777  1.0035 -0.0746
  804MOL0     C 6018   5.848   6.324   1.461  0.0018  0.3046  0.5011
  804MOL0     C 6019   5.978   6.409   1.451 -0.2839 -0.7830  0.5311
  804MOL0     O 6020   5.962   6.513   1.347 -0.4944  0.3464  0.3696
  804MOL0     C 6021   6.030   6.628   1.356  0.5737 -0.1443  0.2809
  804MOL0     C 6022   5.999   6.714   1.462 -0.0469 -0.7920 -0.2697
  804MOL0     C 6023   6.076   6.827   1.481  0.2139  0.7048 -0.1826
  804MOL0     C 6024   6.179   6.865   1.387  1.5948  0.4524  0.9071
  804MOL0     C 6025   6.229   7.005   1.375 -0.9714 -0.2610  0.9722
  804MOL0     O 6026   6.198   7.097   1.470 -0.2785  0.5147 -0.6881
  804MOL0     C 6027   6.258   7.221   1.458 -0.4773  0.5565 -1.1202
  804MOL0     C 6028   6.201   7.306   1.376 -0.3979 -0.2386 -0.1201
  804MOL0     C 6029   6.244   7.431   1.363 -1.0902 -0.0253 -0.7825
  804MOL0     C 6030   6.358   7.477   1.447  0.6313 -0.2389 -0.4187
  804MOL0     O 6031   6.405   7.610   1.433 -0.0404 -0.3848 -0.0743
  804MOL0     C 6032   6.520   7.662   1.513  0.1623 -0.3998  0.1278
  804MOL0     C 6033   6.540   7.813   1.486  0.7677  0.5051  0.5656
  804MOL0     C 6034   6.434   7.911   1.535 -0.7411 -0.3011  0.9881
  804MOL0     C 6035   6.381   7.881   1.674  0.1166  0.1183 -0.5655
  804MOL0     C 6036   6.307   8.003   1.745  0.1332 -0.0455  0.3453
  804MOL0     C 6037   6.275   8.121   1.649  0.2999 -0.2167  1.3925
  804MOL0     C 6038   6.174   8.219   1.719  0.5663 -0.5501  0.0834
  804MOL0     C 6039   6.151   8.347   1.634  0.1044 -0.9797  0.3353
  804MOL0    Cl 6040   6.282   8.450   1.630 -0.0243 -0.4027 -0.2238
  804MOL0     C 6041   6.412   7.382   1.537  0.6901 -0.6472 -0.0814
  804MOL0     C 6042   6.362   7.258   1.538  0.6234 -0.6898 -0.0076
  804MOL0     O 6043   6.287   7.030   1.272 -0.1750 -1.1283  0.0282
  804MOL0     C 6044   6.211   6.770   1.283  1.1580  0.1498  0.0633
  804MOL0     C 6045   6.140   6.651   1.272  0.3961 -0.4718  0.4915
  804MOL0     N 6046   5.591   6.115   1.715 -0.3417  1.0798 -0.7070
  804MOL0     N 6047   5.462   6.145   1.738  0.0371  0.4436 -0.6847
  804MOL0     C 6048   5.198   7.035   1.447  0.8464  0.2106 -0.3433
  804MOL0     C 6049   5.267   7.065   1.328 -0.1463 -0.0622  0.3868
  804MOL0     C 6050   5.338   7.056   0.889  0.0795  0.3493  0.0796
  804MOL0     C 6051   5.364   6.946   0.800  0.2907 -0.0708 -0.8573
  804MOL0     C 6052   5.382   6.965   0.662  0.0021 -0.5670  0.0267
  804MOL0     C 6053   5.381   7.093   0.611  0.1870 -0.2163  0.5153
  804MOL0     O 6054   5.370   7.103   0.475  0.3689 -0.1115  0.2130
  804MOL0     C 6055   5.374   7.228   0.409  0.8374 -0.0600 -0.2446
  804MOL0     C 6056   5.391   7.222   0.264  0.7383 -0.0276  0.3083
  804MOL0     C 6057   5.322   7.110   0.189  0.7803 -0.2003  0.4497
  804MOL0     C 6058   5.318   7.155   0.036  0.3636 -0.2347 -0.5813
  804MOL0     C 6059   5.446   7.186  -0.029 -0.2285 -1.0153  0.3533
  804MOL0     C 6060   5.550   7.239  -0.058  0.6864 -0.4253  0.3386
  804MOL0     C 6061   5.357   7.207   0.693 -0.7204 -0.1170 -0.6065
  804MOL0     C 6062   5.341   7.183   0.832 -0.0662 -0.0522 -0.0000
  804MOL0     H 6063   5.005   7.118   1.120 -2.2844  2.0233  1.2757
  804MOL0     H 6064   4.880   7.049   1.347 -1.1832  0.5640 -1.7236
  804MOL0     H 6065   4.949   7.132   1.700 -0.5437 -0.0539 -0.7198
  804MOL0     H 6066   5.125   7.086   1.673  0.3401 -1.8282 -1.6330
  804MOL0     H 6067   4.907   6.884   1.755 -1.3455  0.5986  0.5349
  804MOL0     H 6068   5.010   6.969   1.880  0.2481  1.3432 -1.3126
  804MOL0     H 6069   5.207   6.881   1.763  0.2907 -0.2971 -1.1550
  804MOL0     H 6070   5.084   6.781   1.666 -0.8297 -0.2467  0.1678
  804MOL0     H 6071   5.091   6.763   1.959 -0.9951 -1.4695  0.3543
  804MOL0     H 6072   4.997   6.668   1.825 -0.7756  0.0604  2.6410
  804MOL0     H 6073   5.286   6.667   1.900  0.0077 -2.4120  0.1791
  804MOL0     H 6074   5.234   6.603   1.747  0.4051 -1.9651 -0.2360
  804MOL0     H 6075   5.080   6.445   1.883 -0.5510  0.3061  1.7186
  804MOL0     H 6076   5.165   6.523   2.025 -1.3094  1.5875 -0.4957
  804MOL0     H 6077   5.389   6.440   1.947  0.3485 -0.5979  0.8082
  804MOL0     H 6078   5.281   6.307   1.973  3.5031 -1.0019  0.6419
  804MOL0     H 6079   5.334   6.426   1.691  1.6620 -2.8871 -2.8395
  804MOL0     H 6080   5.258   6.271   1.728  0.3210  1.6662 -0.2145
  804MOL0     H 6081   5.608   6.433   1.776  1.3810  1.3581 -2.6973
  804MOL0     H 6082   5.865   6.172   1.771 -2.3136 -2.4334 -1.2610
  804MOL0     H 6083   5.854   6.350   1.737  0.0127 -0.3392  0.7104
  804MOL0     H 6084   5.810   6.123   1.531 -0.7034  0.4811  2.5571
  804MOL0     H 6085   5.971   6.201   1.555  0.2512  2.8146 -2.2966
  804MOL0     H 6086   5.848   6.287   1.358 -1.5913  0.1733  0.5223
  804MOL0     H 6087   5.760   6.383   1.490  0.1451 -0.8040  3.5023
  804MOL0     H 6088   6.074   6.359   1.435 -1.1761 -2.8523  1.4070
  804MOL0     H 6089   5.995   6.461   1.546  2.0477 -0.4763 -0.0088
  804MOL0     H 6090   5.907   6.709   1.520  0.7053 -0.0089  1.0303
  804MOL0     H 6091   6.040   6.883   1.567 -1.7908 -0.2511 -0.3333
  804MOL0     H 6092   6.108   7.291   1.321 -0.5749  2.2855 -0.6611
  804MOL0     H 6093   6.210   7.495   1.282 -0.2622 -0.3000 -1.3639
  804MOL0     H 6094   6.609   7.610   1.476 -0.4765 -0.6481 -1.0811
  804MOL0     H 6095   6.502   7.644   1.619 -2.1054 -1.5812 -0.4094
  804MOL0     H 6096   6.580   7.828   1.386  1.4190 -0.0670  0.7289
  804MOL0     H 6097   6.631   7.848   1.536  0.3837  3.6602 -0.7032
  804MOL0     H 6098   6.365   7.910   1.450 -0.3960 -1.9690  0.6826
  804MOL0     H 6099   6.490   8.005   1.534 -2.4408  0.8417 -2.4814
  804MOL0     H 6100   6.305   7.802   1.676  0.0433  0.2007  0.0215
  804MOL0     H 6101   6.462   7.840   1.735  1.1909  1.9850 -0.6597
  804MOL0     H 6102   6.359   8.025   1.839  0.8647 -0.3834  0.0275
  804MOL0     H 6103   6.211   7.972   1.788 -0.1462  2.3531  1.6327
  804MOL0     H 6104   6.240   8.110   1.546 -0.8031 -0.5412  1.7853
  804MOL0     H 6105   6.375   8.162   1.640  0.0295  0.1890  0.1257
  804MOL0     H 6106   6.075   8.176   1.735 -1.0931  2.4888 -1.1588
  804MOL0     H 6107   6.206   8.242   1.822  0.6399 -0.6321  0.0800
  804MOL0     H 6108   6.066   8.403   1.673 -1.0787 -1.0663 -1.9058
  804MOL0     H 6109   6.126   8.312   1.533 -0.3832 -1.6408  0.6822
  804MOL0     H 6110   6.483   7.414   1.612  0.0528  1.8123 -0.4061
  804MOL0     H 6111   6.386   7.170   1.596 -2.0936 -2.7740 -1.7687
  804MOL0     H 6112   6.288   6.792   1.210  1.1562  1.4573  0.4277
  804MOL0     H 6113   6.159   6.591   1.184 -1.7886 -0.2424 -0.1802
  804MOL0     H 6114   5.259   7.015   1.534  0.1322 -0.5387 -0.0010
  804MOL0     H 6115   5.375   7.067   1.315  0.0319  0.2913  1.7063
  804MOL0     H 6116   5.359   6.843   0.834 -0.9705 -0.0980 -1.0894
  804MOL0     H 6117   5.393   6.880   0.597 -0.9397  0.3142 -1.3292
  804MOL0     H 6118   5.441   7.297   0.462 -0.1223  0.9644 -0.3331
  804MOL0     H 6119   5.277   7.276   0.427  0.5919 -1.3702  2.4625
  804MOL0     H 6120   5.360   7.305   0.200 -1.3422 -0.5995  0.4843
  804MOL0     H 6121   5.499   7.217   0.252  0.6533  0.0478 -0.5540
  804MOL0     H 6122   5.223   7.077   0.224  0.3321  0.2038 -0.3872
  804MOL0     H 6123   5.391   7.025   0.187 -1.3000 -1.9748  0.1608
  804MOL0     H 6124   5.266   7.075  -0.019 -1.9044 -0.7380  2.0341
  804MOL0     H 6125   5.248   7.238   0.024 -0.5257 -0.9197 -0.2519
  804MOL0     H 6126   5.635   7.288  -0.100 -1.1079  1.0079 -1.8442
  804MOL0     H 6127   5.341   7.310   0.660  0.1140  0.7533  1.4979
  804MOL0     H 6128   5.329   7.270   0.896 -0.9085 -0.7280  0.7947
  805MOL0     O 6129   8.666  11.448   7.285 -0.0466  0.2810  0.6066
  805MOL0     C 6130   8.724  11.437   7.173  0.5645  0.4195 -0.1116
  805MOL0     O 6131   8.777  11.315   7.126  0.3044  0.0563  0.1166
  805MOL0     C 6132   8.796  11.200   7.211  0.0600  0.6522 -0.7484
  805MOL0     C 6133   8.884  11.100   7.163 -0.0075 -0.9597 -0.1346
  805MOL0     C 6134   8.901  10.982   7.234  0.2827 -0.2228 -0.1033
  805MOL0     C 6135   8.847  10.960   7.365 -0.3422  0.6631  0.3390
  805MOL0     O 6136   8.863  10.847   7.438  0.1473  0.7639  0.3230
  805MOL0     C 6137   8.744  10.769   7.458  0.5022  0.1979  0.2259
  805MOL0     C 6138   8.793  10.628   7.496  0.0885 -0.7706  0.4615
  805MOL0     C 6139   8.687  10.514   7.465 -0.7265 -0.8491 -0.0926
  805MOL0     C 6140   8.734  10.376   7.498 -0.1221 -0.6768 -0.2573
  805MOL0     C 6141   8.763  10.353   7.645  0.9513  0.3251 -0.0248
  805MOL0     C 6142   8.637  10.380   7.737  0.3837 -0.0273 -0.0233
  805MOL0     C 6143   8.500  10.288   7.711 -0.4382  0.1946 -0.2877
  805MOL0     C 6144   8.425  10.277   7.859 -0.4605  0.0326  0.2368
  805MOL0     N 6145   8.288  10.240   7.834 -0.7045 -0.0631  0.0438
  805MOL0     C 6146   8.198  10.298   7.747  0.1999 -0.5696  0.2842
  805MOL0     C 6147   8.094  10.227   7.745  0.2942  0.1525  1.3950
  805MOL0     C 6148   7.968  10.244   7.655  0.2061 -0.3805  0.4901
  805MOL0     C 6149   7.893  10.379   7.654  0.4690  0.9229 -0.2524
  805MOL0     C 6150   7.967  10.493   7.583 -0.3530 -0.2866  1.0074
  805MOL0     C 6151   7.874  10.613   7.542  0.4005  0.2226 -0.2187
  805MOL0     O 6152   7.949  10.706   7.462  0.6579  0.4896 -0.2742
  805MOL0     C 6153   7.887  10.819   7.411  0.5529  0.1199  0.7055
  805MOL0     C 6154   7.750  10.854   7.424  0.9289  0.2979 -0.1118
  805MOL0     C 6155   7.708  10.977   7.372 -0.4325 -0.4651 -0.4127
  805MOL0     C 6156   7.799  11.066   7.299  0.0297  0.7102 -0.3268
  805MOL0     C 6157   7.757  11.192   7.236 -0.1901  0.0479  0.3551
  805MOL0     O 6158   7.831  11.232   7.127  0.3059 -0.1703  0.0324
  805MOL0     C 6159   7.786  11.349   7.073 -0.3324  0.2535  0.0871
  805MOL0     C 6160   7.667  11.362   7.007  0.5156 -0.8668 -0.5623
  805MOL0     C 6161   7.625  11.495   6.968 -0.6815 -0.9838  0.5340
  805MOL0     C 6162   7.698  11.615   6.994 -0.4843  0.7878 -0.6204
  805MOL0     O 6163   7.651  11.731   6.954  0.6094  0.4908  0.3412
  805MOL0     C 6164   7.705  11.853   6.997 -0.2530  1.3809  0.2357
  805MOL0     C 6165   7.610  11.968   6.951  0.0626 -0.0955  0.7423
  805MOL0     C 6166   7.474  11.974   7.023 -0.6054  0.1783 -0.8140
  805MOL0     C 6167   7.478  11.982   7.174  0.6970  0.0265 -0.0908
  805MOL0     C 6168   7.336  12.004   7.225  0.3791 -0.4334 -0.0300
  805MOL0     C 6169   7.329  11.995   7.377  1.0065  0.4735  0.4298
  805MOL0     C 6170   7.200  12.028   7.429  0.7369 -0.3267 -0.7217
  805MOL0     C 6171   7.192  11.972   7.568 -0.3348 -0.2850 -0.4160
  805MOL0    Cl 6172   7.179  11.802   7.569 -0.0343  0.0421  0.3348
  805MOL0     C 6173   7.819  11.593   7.071  0.3498 -0.0705  0.7824
  805MOL0     C 6174   7.859  11.462   7.105  1.3803 -0.7274 -0.3484
  805MOL0     O 6175   7.668  11.257   7.288  0.2726  0.2549 -0.2590
  805MOL0     C 6176   7.930  11.035   7.293 -0.5826  0.2758  0.2603
  805MOL0     C 6177   7.975  10.907   7.334 -0.6814 -0.5446  0.9598
  805MOL0     N 6178   8.107  10.129   7.842 -0.0447  0.2850 -1.0793
  805MOL0     N 6179   8.227  10.132   7.885 -0.4071 -0.5811  0.7490
  805MOL0     C 6180   8.766  11.060   7.419 -0.2806  1.2490  0.7679
  805MOL0     C 6181   8.734  11.175   7.339 -0.3438 -0.0633 -0.0288
  805MOL0     C 6182   8.694  11.545   7.073  1.1444  0.5673  0.4462
  805MOL0     C 6183   8.744  11.528   6.942 -0.1164  1.2532 -1.2739
  805MOL0     C 6184   8.715  11.618   6.843  0.4186  0.3745  1.1483
  805MOL0     C 6185   8.633  11.729   6.864  1.6416  0.3449 -0.2891
  805MOL0     O 6186   8.597  11.818   6.769  0.3537 -1.0258  0.8639
  805MOL0     C 6187   8.600  11.791   6.628  0.3490  0.2660 -0.4677
  805MOL0     C 6188   8.590  11.924   6.552  0.9485 -0.3017 -0.2420
  805MOL0     C 6189   8.448  12.003   6.563  0.9061 -0.1099 -0.3948
  805MOL0     C 6190   8.431  12.128   6.468 -0.2206  0.6506 -0.0494
  805MOL0     C 6191   8.514  12.242   6.514  0.0777  0.4164  0.3671
  805MOL0     C 6192   8.565  12.336   6.571 -0.5026 -1.1309  0.9569
  805MOL0     C 6193   8.581  11.739   6.995 -0.0866 -0.2988 -0.2745
  805MOL0     C 6194   8.612  11.652   7.099  0.7374 -0.4060 -0.3407
  805MOL0     H 6195   8.934  11.131   7.072 -1.3837  4.8458  0.7040
  805MOL0     H 6196   8.961  10.910   7.179 -1.6449 -0.3535 -2.1352
  805MOL0     H 6197   8.686  10.757   7.365  2.1979 -1.7245 -0.6662
  805MOL0     H 6198   8.675  10.807   7.533 -1.9603  3.0994 -3.1584
  805MOL0     H 6199   8.810  10.643   7.603 -0.0238 -2.0424  0.6738
  805MOL0     H 6200   8.882  10.593   7.442 -1.0980 -4.2285  0.4800
  805MOL0     H 6201   8.676  10.509   7.356  4.7558  1.7604 -1.0851
  805MOL0     H 6202   8.591  10.537   7.511 -2.0464  0.9672 -3.3851
  805MOL0     H 6203   8.659  10.309   7.454  0.5324  0.2117 -2.9416
  805MOL0     H 6204   8.832  10.350   7.457 -0.6248 -2.6754 -0.2949
  805MOL0     H 6205   8.840  10.426   7.674 -0.8295  1.9358  0.8902
  805MOL0     H 6206   8.788  10.249   7.667 -2.3493 -0.2915  1.5366
  805MOL0     H 6207   8.600  10.481   7.717  1.9228  1.0330  2.0816
  805MOL0     H 6208   8.674  10.366   7.839 -0.6304  2.7463  0.8173
  805MOL0     H 6209   8.428  10.324   7.637  0.0908 -0.2988 -1.0566
  805MOL0     H 6210   8.536  10.191   7.677  1.1424 -1.5769  5.3206
  805MOL0     H 6211   8.428  10.369   7.918  2.7333 -0.8809  1.7198
  805MOL0     H 6212   8.479  10.208   7.924  2.5603  2.4664  0.5056
  805MOL0     H 6213   8.195  10.392   7.692 -1.2825 -0.1122  1.0886
  805MOL0     H 6214   7.899  10.167   7.690 -2.5693  2.4184  1.6106
  805MOL0     H 6215   7.995  10.237   7.549 -1.6578  0.3359 -0.0642
  805MOL0     H 6216   7.878  10.394   7.761  0.8541 -2.9420  0.4756
  805MOL0     H 6217   7.792  10.362   7.616  1.3245  0.5415 -2.5538
  805MOL0     H 6218   8.049  10.539   7.639 -2.1658  2.9933  1.2097
  805MOL0     H 6219   8.016  10.466   7.489  2.8278  6.4196  0.0902
  805MOL0     H 6220   7.837  10.669   7.628 -0.2432  0.3222 -0.5478
  805MOL0     H 6221   7.785  10.570   7.495  1.5528 -2.9030  0.2262
  805MOL0     H 6222   7.687  10.786   7.480 -1.1410  2.4099  0.2935
  805MOL0     H 6223   7.605  11.011   7.383 -0.6696 -0.4479 -2.3368
  805MOL0     H 6224   7.611  11.269   7.002  0.4927 -0.8638 -0.3645
  805MOL0     H 6225   7.524  11.530   6.947 -0.3816 -0.2716  0.2277
  805MOL0     H 6226   7.809  11.867   6.968  0.5223 -1.5339  1.2598
  805MOL0     H 6227   7.712  11.853   7.106 -0.4047 -3.0433  0.4258
  805MOL0     H 6228   7.597  11.968   6.843  0.5293 -1.0257  0.6788
  805MOL0     H 6229   7.661  12.060   6.982 -0.7691  1.2547 -1.6867
  805MOL0     H 6230   7.401  11.900   6.991 -3.0089  1.8486  0.4916
  805MOL0     H 6231   7.437  12.070   6.986 -2.1626 -0.7928 -1.8724
  805MOL0     H 6232   7.518  11.886   7.208 -1.9687 -1.1428 -0.0378
  805MOL0     H 6233   7.547  12.057   7.213 -0.3600  1.4419 -0.8524
  805MOL0     H 6234   7.265  11.930   7.185 -1.4935  0.1698  1.9717
  805MOL0     H 6235   7.306  12.098   7.178  2.8998  1.5808  2.1397
  805MOL0     H 6236   7.404  12.058   7.426 -0.5565  0.8910  2.4217
  805MOL0     H 6237   7.357  11.893   7.407  0.8584  0.7656  1.5979
  805MOL0     H 6238   7.193  12.137   7.425 -0.2624 -0.3505 -0.1574
  805MOL0     H 6239   7.107  12.005   7.376  0.1093  0.0573  0.1927
  805MOL0     H 6240   7.096  12.003   7.612 -0.9974 -0.7242 -1.5271
  805MOL0     H 6241   7.274  12.007   7.631 -0.8371 -2.8905  1.8565
  805MOL0     H 6242   7.879  11.681   7.090  0.4737  0.2821 -1.0023
  805MOL0     H 6243   7.962  11.459   7.139  1.9331  1.0146 -1.7264
  805MOL0     H 6244   8.001  11.111   7.262 -2.7402  2.6388  0.8042
  805MOL0     H 6245   8.078  10.879   7.311 -0.9035 -0.4607 -0.1441
  805MOL0     H 6246   8.725  11.038   7.517 -2.6094 -1.2424 -0.6407
  805MOL0     H 6247   8.677  11.256   7.383  1.6205  1.1771  0.3469
  805MOL0     H 6248   8.807  11.440   6.930 -4.3008 -2.0147 -2.0123
  805MOL0     H 6249   8.759  11.590   6.748  1.7022 -2.3348  2.4109
  805MOL0     H 6250   8.528  11.711   6.607 -0.2911  0.6189  0.3128
  805MOL0     H 6251   8.705  11.762   6.617  0.4580  0.0658  0.9686
  805MOL0     H 6252   8.670  11.992   6.584 -0.8735  1.6454  0.3969
  805MOL0     H 6253   8.612  11.907   6.446 -0.6639  0.2748 -0.7027
  805MOL0     H 6254   8.436  12.050   6.662  1.6692  2.4183 -1.4254
  805MOL0     H 6255   8.370  11.928   6.547  0.4958 -0.0913  1.2971
  805MOL0     H 6256   8.469  12.093   6.372 -2.9945 -0.9811 -0.6509
  805MOL0     H 6257   8.327  12.156   6.449 -0.6867 -1.7079 -1.2729
  805MOL0     H 6258   8.603  12.419   6.627  0.6588 -1.8063  1.1953
  805MOL0     H 6259   8.508  11.812   7.027 -1.5760 -1.2482 -1.3824
  805MOL0     H 6260   8.585  11.652   7.204 -0.6630  2.0054 -0.6201
  806MOL0     O 6261   9.593   2.733  10.651 -0.2940 -0.0557  0.1236
  806MOL0     C 6262   9.698   2.801  10.645 -0.5396 -0.2778  0.4257
  806MOL0     O 6263   9.806   2.771  10.563 -0.5539 -0.3220  0.1869
  806MOL0     C 6264   9.776   2.695  10.451 -0.2345  0.6799 -1.3377
  806MOL0     C 6265   9.755   2.763  10.326  0.0156  0.0451  0.5794
  806MOL0     C 6266   9.718   2.700  10.213  0.6632  0.5159  0.6100
  806MOL0     C 6267   9.701   2.556  10.224  0.2927 -0.2241  0.8635
  806MOL0     O 6268   9.670   2.467  10.126  0.9063 -0.4453 -1.0545
  806MOL0     C 6269   9.599   2.531  10.018  1.0792 -0.0394 -0.3906
  806MOL0     C 6270   9.569   2.423   9.917 -0.6142 -0.6193 -0.1742
  806MOL0     C 6271   9.435   2.416   9.847  0.3016 -1.5643 -0.5459
  806MOL0     C 6272   9.407   2.281   9.792  0.1731  0.4134  0.1170
  806MOL0     C 6273   9.262   2.273   9.749 -0.3778 -0.9988 -0.4661
  806MOL0     C 6274   9.243   2.141   9.666 -0.0859 -0.5736 -0.2907
  806MOL0     C 6275   9.099   2.140   9.613 -0.6028 -0.8524 -0.4399
  806MOL0     C 6276   9.059   2.260   9.533 -0.6318 -0.5871 -0.2517
  806MOL0     N 6277   8.932   2.233   9.454 -0.2808 -0.0462  0.5114
  806MOL0     C 6278   8.808   2.236   9.503 -0.2965  0.4064 -0.2966
  806MOL0     C 6279   8.738   2.196   9.402 -0.2642  0.1911 -0.0376
  806MOL0     C 6280   8.590   2.180   9.420  0.7912 -0.0931 -0.8278
  806MOL0     C 6281   8.536   2.048   9.363  0.0708  0.9546 -0.1642
  806MOL0     C 6282   8.600   1.921   9.424  0.5582 -1.1671 -0.0745
  806MOL0     C 6283   8.516   1.797   9.409 -0.3441 -0.4264 -0.1350
  806MOL0     O 6284   8.476   1.782   9.266 -0.6178 -0.4526  0.4651
  806MOL0     C 6285   8.366   1.695   9.245 -0.1460 -0.0957 -0.0893
  806MOL0     C 6286   8.289   1.714   9.133 -0.7649  0.3190 -0.5915
  806MOL0     C 6287   8.180   1.630   9.107 -0.1526  0.5288  0.4398
  806MOL0     C 6288   8.141   1.522   9.185  0.7403  0.6310 -0.8405
  806MOL0     C 6289   8.014   1.445   9.162  0.6824 -0.6262 -0.5287
  806MOL0     O 6290   7.908   1.515   9.096  0.1214 -0.0169 -0.6605
  806MOL0     C 6291   7.785   1.447   9.083  0.4241 -0.8240 -0.3564
  806MOL0     C 6292   7.678   1.541   9.051 -0.9596 -0.5576  0.0387
  806MOL0     C 6293   7.545   1.502   9.049 -0.4772 -0.2576  0.7701
  806MOL0     C 6294   7.510   1.376   9.085 -0.0173 -0.2403 -0.5210
  806MOL0     O 6295   7.381   1.342   9.102  0.5838 -0.4702  0.2535
  806MOL0     C 6296   7.270   1.434   9.102 -1.1249  0.1277 -0.3502
  806MOL0     C 6297   7.218   1.447   8.959 -0.3699  0.3615 -0.0351
  806MOL0     C 6298   7.114   1.555   8.940 -1.0644 -0.4514 -0.8078
  806MOL0     C 6299   7.086   1.590   8.796 -0.4024 -0.3117 -0.5199
  806MOL0     C 6300   7.005   1.729   8.781 -0.0751 -0.1761  0.3000
  806MOL0     C 6301   6.974   1.756   8.632  0.0417  0.0646  0.9500
  806MOL0     C 6302   6.896   1.883   8.605 -0.3453  0.4277  0.1347
  806MOL0     C 6303   6.795   1.870   8.491 -0.4067  1.4169  0.2008
  806MOL0    Cl 6304   6.876   1.855   8.339  0.0082 -0.3912  0.3422
  806MOL0     C 6305   7.599   1.277   9.112 -0.1075 -0.4909 -0.8032
  806MOL0     C 6306   7.740   1.312   9.119  0.3681 -0.7650 -1.5254
  806MOL0     O 6307   8.007   1.339   9.213 -0.5123  0.8980  0.4685
  806MOL0     C 6308   8.233   1.491   9.278  0.4652  0.6059  0.3194
  806MOL0     C 6309   8.347   1.577   9.314  0.3568  0.2560  0.6432
  806MOL0     N 6310   8.811   2.161   9.289 -0.5899  0.5839 -0.2474
  806MOL0     N 6311   8.931   2.201   9.319 -0.2087 -0.4082  0.0028
  806MOL0     C 6312   9.721   2.493  10.348 -0.7173  0.6332 -0.3909
  806MOL0     C 6313   9.758   2.562  10.464  0.8374 -0.8537  0.5404
  806MOL0     C 6314   9.709   2.924  10.716  0.3332 -0.2261 -1.0963
  806MOL0     C 6315   9.591   2.978  10.773  0.0692  0.0442  0.5014
  806MOL0     C 6316   9.596   3.101  10.839 -0.9505  1.1137  0.0789
  806MOL0     C 6317   9.713   3.173  10.842  0.6129  0.0576 -0.1479
  806MOL0     O 6318   9.719   3.290  10.912 -0.2531 -0.5550 -0.0002
  806MOL0     C 6319   9.605   3.349  10.978 -0.0877  0.7764 -0.2478
  806MOL0     C 6320   9.641   3.477  11.052 -0.1640 -0.1434 -1.0194
  806MOL0     C 6321   9.669   3.603  10.975  0.1072 -0.6548 -0.2417
  806MOL0     C 6322   9.754   3.695  11.056 -0.5837 -0.1279 -0.4993
  806MOL0     C 6323   9.898   3.642  11.061  0.3622  0.1662  0.4103
  806MOL0     C 6324  10.014   3.611  11.059  0.3280  0.0903 -0.2682
  806MOL0     C 6325   9.828   3.116  10.792 -0.2374 -0.5693  0.7888
  806MOL0     C 6326   9.822   2.999  10.724 -0.0385 -0.1235 -0.2297
  806MOL0     H 6327   9.773   2.870  10.325  0.6313 -0.0576  0.1968
  806MOL0     H 6328   9.719   2.737  10.112 -0.1241 -0.4280  0.2348
  806MOL0     H 6329   9.650   2.608   9.960  2.0827 -0.7531 -0.4769
  806MOL0     H 6330   9.504   2.573  10.051  0.8206 -2.7936  2.9168
  806MOL0     H 6331   9.572   2.322   9.959  1.6435 -0.3606  0.3965
  806MOL0     H 6332   9.650   2.418   9.843 -0.1986 -1.3143  0.3153
  806MOL0     H 6333   9.433   2.483   9.761 -0.3614 -0.5397  0.2494
  806MOL0     H 6334   9.349   2.432   9.913 -0.7152  0.5289 -2.2670
  806MOL0     H 6335   9.454   2.268   9.694 -3.3305  2.0564 -2.0087
  806MOL0     H 6336   9.447   2.191   9.838  1.0160 -1.3448 -3.6340
  806MOL0     H 6337   9.248   2.364   9.690  2.8330  0.1255  0.2945
  806MOL0     H 6338   9.205   2.278   9.842  2.9892  1.3003  1.7286
  806MOL0     H 6339   9.268   2.051   9.723  2.4407 -0.0024 -0.3389
  806MOL0     H 6340   9.314   2.125   9.584  0.8835 -1.3474  0.6555
  806MOL0     H 6341   9.082   2.042   9.568  1.4165 -1.3950 -0.1267
  806MOL0     H 6342   9.022   2.138   9.691 -1.7482  1.6203 -1.4015
  806MOL0     H 6343   9.138   2.281   9.460 -0.4577  1.1466  0.3808
  806MOL0     H 6344   9.055   2.340   9.608  1.5921 -1.8435  1.2931
  806MOL0     H 6345   8.780   2.260   9.605  0.9412 -1.0585  0.4358
  806MOL0     H 6346   8.541   2.265   9.371 -0.0300 -0.2663 -0.3246
  806MOL0     H 6347   8.575   2.186   9.528 -0.0737 -0.9285 -0.8848
  806MOL0     H 6348   8.543   2.049   9.254  0.9178 -1.0188 -0.1665
  806MOL0     H 6349   8.429   2.039   9.385 -0.2694  1.2621 -1.5434
  806MOL0     H 6350   8.701   1.918   9.383  2.0468 -1.0698  3.2650
  806MOL0     H 6351   8.607   1.939   9.532  3.0447  1.1360 -0.5117
  806MOL0     H 6352   8.430   1.789   9.477 -1.7106 -4.3464 -2.0334
  806MOL0     H 6353   8.569   1.703   9.430  1.4878  0.5009 -0.4099
  806MOL0     H 6354   8.288   1.802   9.070  2.8242  2.8016  2.3627
  806MOL0     H 6355   8.119   1.639   9.018  0.0208 -1.8397  0.0095
  806MOL0     H 6356   7.708   1.642   9.025 -1.9112 -0.4768 -0.7836
  806MOL0     H 6357   7.471   1.578   9.024  2.1172  1.2137 -3.7497
  806MOL0     H 6358   7.287   1.534   9.143 -2.0764 -0.2314  1.0060
  806MOL0     H 6359   7.186   1.394   9.160 -3.2910  3.0428 -1.1915
  806MOL0     H 6360   7.173   1.350   8.936  1.6558 -0.7704  0.5158
  806MOL0     H 6361   7.299   1.465   8.888 -1.3499 -0.4949 -1.4131
  806MOL0     H 6362   7.156   1.643   8.989  1.5461 -1.4272 -1.1299
  806MOL0     H 6363   7.023   1.548   9.000 -0.7544 -1.0886 -0.4088
  806MOL0     H 6364   7.182   1.610   8.746 -0.2709  1.5883  0.4028
  806MOL0     H 6365   7.035   1.510   8.742  0.6312 -0.1865 -1.7324
  806MOL0     H 6366   7.073   1.811   8.803 -0.0560  0.7469 -2.7090
  806MOL0     H 6367   6.925   1.727   8.856  2.8716 -0.1606  3.7225
  806MOL0     H 6368   6.926   1.668   8.588  1.0495  0.2863 -0.7123
  806MOL0     H 6369   7.068   1.777   8.580 -1.2030 -0.9370 -1.9154
  806MOL0     H 6370   6.840   1.898   8.698  0.5909  0.3242  0.7341
  806MOL0     H 6371   6.949   1.978   8.591  1.1365  0.0912  2.8032
  806MOL0     H 6372   6.723   1.952   8.479 -2.2343 -0.1775 -0.2714
  806MOL0     H 6373   6.733   1.782   8.510  0.9832 -0.3445 -2.7608
  806MOL0     H 6374   7.560   1.178   9.135 -1.1257  0.2639  0.9277
  806MOL0     H 6375   7.816   1.241   9.149  0.5951 -1.3941 -3.4464
  806MOL0     H 6376   8.216   1.401   9.335  2.6900 -1.4534 -2.0299
  806MOL0     H 6377   8.418   1.557   9.394 -1.4040 -4.3109  1.3474
  806MOL0     H 6378   9.694   2.388  10.362  0.6237  0.2396 -0.6355
  806MOL0     H 6379   9.780   2.513  10.559  1.9979  1.6442  1.6464
  806MOL0     H 6380   9.498   2.924  10.788 -0.5762  1.1858  0.7645
  806MOL0     H 6381   9.508   3.143  10.886 -1.4917 -0.5006  0.5774
  806MOL0     H 6382   9.578   3.268  11.047 -0.3570  1.5038  0.5179
  806MOL0     H 6383   9.514   3.360  10.919 -0.3999 -1.8739 -0.4153
  806MOL0     H 6384   9.555   3.490  11.119  0.8152  1.0605  0.0368
  806MOL0     H 6385   9.732   3.458  11.109  0.1642  2.1690 -0.6801
  806MOL0     H 6386   9.570   3.647  10.956 -0.7553  0.3579  5.1204
  806MOL0     H 6387   9.714   3.576  10.879 -4.6895 -0.9918 -2.7309
  806MOL0     H 6388   9.749   3.789  11.002 -1.6724  0.5876  0.7947
  806MOL0     H 6389   9.726   3.709  11.161  3.6322 -0.7130  0.8824
  806MOL0     H 6390  10.115   3.575  11.064 -0.1102 -1.7633 -3.0124
  806MOL0     H 6391   9.923   3.166  10.808 -1.7292  3.5027 -1.4589
  806MOL0     H 6392   9.910   2.946  10.690  0.4629  0.4639  0.1422
  807MOL0     O 6393   2.421   7.410   8.194 -0.1532  0.1252  0.7222
  807MOL0     C 6394   2.505   7.477   8.266  0.7229 -0.6967  0.5680
  807MOL0     O 6395   2.474   7.597   8.330  0.1818  0.2678  0.5544
  807MOL0     C 6396   2.343   7.630   8.368  0.6577  0.3785  0.3721
  807MOL0     C 6397   2.243   7.540   8.400  0.2109 -0.1855  0.1572
  807MOL0     C 6398   2.116   7.586   8.432  0.1468  0.3866 -0.1224
  807MOL0     C 6399   2.082   7.719   8.432 -0.5381  0.3424  0.4593
  807MOL0     O 6400   1.955   7.740   8.458  0.2926 -0.8022 -0.3472
  807MOL0     C 6401   1.909   7.872   8.494  0.7223 -0.1073  1.3929
  807MOL0     C 6402   1.853   7.936   8.358  0.9242  0.0820  0.0929
  807MOL0     C 6403   1.740   7.850   8.295 -0.3255 -0.6526 -1.3128
  807MOL0     C 6404   1.671   7.923   8.182  0.8084 -0.1285  0.1369
  807MOL0     C 6405   1.585   7.832   8.096 -0.3756 -0.3519  0.3488
  807MOL0     C 6406   1.567   7.883   7.941  0.1003  0.2432  0.4594
  807MOL0     C 6407   1.441   7.848   7.873  0.5339  0.2962  0.2858
  807MOL0     C 6408   1.453   7.885   7.721  0.4557 -0.5601  0.1011
  807MOL0     N 6409   1.397   7.806   7.617  1.0685 -0.3722  0.1113
  807MOL0     C 6410   1.448   7.697   7.545  0.3788 -0.5752 -0.2238
  807MOL0     C 6411   1.348   7.641   7.481  0.2016  1.2119  0.5113
  807MOL0     C 6412   1.339   7.506   7.411  0.1480 -0.6520  0.3676
  807MOL0     C 6413   1.459   7.477   7.327  0.9764 -0.4684 -0.6327
  807MOL0     C 6414   1.442   7.340   7.265  0.5644 -0.4360 -0.4686
  807MOL0     C 6415   1.547   7.309   7.158 -0.6766  0.3509  0.7780
  807MOL0     O 6416   1.520   7.381   7.041 -0.1870  0.2243  0.5223
  807MOL0     C 6417   1.476   7.299   6.936 -0.2001  0.9455 -0.0332
  807MOL0     C 6418   1.569   7.234   6.852 -0.1551 -0.4497  0.0491
  807MOL0     C 6419   1.527   7.165   6.735  0.1486  0.2458  0.3447
  807MOL0     C 6420   1.388   7.163   6.699  0.3673  0.3520 -0.6475
  807MOL0     C 6421   1.351   7.083   6.576 -0.2780  1.2225 -0.3674
  807MOL0     O 6422   1.238   7.111   6.520 -0.3886 -0.2485  0.2388
  807MOL0     C 6423   1.206   7.070   6.395  0.3602 -0.5676  0.2638
  807MOL0     C 6424   1.133   6.949   6.378 -0.6720 -0.0624 -0.6233
  807MOL0     C 6425   1.086   6.908   6.261 -0.5911 -0.3709 -0.8225
  807MOL0     C 6426   1.136   6.971   6.142  0.1960  0.1366 -0.7708
  807MOL0     O 6427   1.105   6.904   6.031  0.6119  0.1259 -0.1008
  807MOL0     C 6428   1.192   6.914   5.920 -0.0457 -0.9670 -0.2895
  807MOL0     C 6429   1.198   6.788   5.838  0.0095 -0.0076 -0.2019
  807MOL0     C 6430   1.077   6.782   5.745 -0.2400 -0.1007 -0.0476
  807MOL0     C 6431   1.089   6.659   5.647 -0.2275  0.1989  0.2008
  807MOL0     C 6432   0.942   6.612   5.618 -0.2974  0.0500  0.4562
  807MOL0     C 6433   0.957   6.504   5.506 -0.3753  0.9161  0.4598
  807MOL0     C 6434   0.839   6.414   5.485  0.0246  0.1445 -0.0924
  807MOL0     C 6435   0.853   6.320   5.364 -1.1007 -0.1843  0.3320
  807MOL0    Cl 6436   0.965   6.180   5.407 -0.2270  0.1881 -0.3242
  807MOL0     C 6437   1.190   7.096   6.153  0.6709 -0.7553  0.5842
  807MOL0     C 6438   1.223   7.147   6.283  0.8422  0.2563  0.1319
  807MOL0     O 6439   1.441   7.006   6.531 -0.7309 -0.6106  0.7140
  807MOL0     C 6440   1.291   7.241   6.773  0.7534  0.1897 -1.4189
  807MOL0     C 6441   1.339   7.299   6.897 -0.3589 -0.7497 -0.4842
  807MOL0     N 6442   1.229   7.715   7.507  0.1734 -0.4471  0.3983
  807MOL0     N 6443   1.270   7.821   7.576  0.1318 -0.7047  0.1449
  807MOL0     C 6444   2.183   7.814   8.406  0.5907 -0.6363 -0.5134
  807MOL0     C 6445   2.309   7.768   8.380 -0.1453 -0.0181  0.0727
  807MOL0     C 6446   2.648   7.435   8.271 -1.0534  0.4948 -0.6058
  807MOL0     C 6447   2.703   7.325   8.200 -0.1879  0.5094 -0.2003
  807MOL0     C 6448   2.833   7.276   8.215 -0.7608 -0.6682 -0.2547
  807MOL0     C 6449   2.927   7.345   8.291 -0.2793 -0.4433  0.1823
  807MOL0     O 6450   3.059   7.306   8.292 -0.3399 -0.2977  0.2101
  807MOL0     C 6451   3.156   7.370   8.375 -0.5804 -0.3064  1.0888
  807MOL0     C 6452   3.227   7.482   8.295  0.0467 -0.3342 -0.3674
  807MOL0     C 6453   3.335   7.548   8.386 -1.1181 -0.1178 -0.1958
  807MOL0     C 6454   3.273   7.644   8.488 -0.8580 -0.7348  0.0059
  807MOL0     C 6455   3.373   7.700   8.576  0.0964  0.0536 -0.1639
  807MOL0     C 6456   3.454   7.739   8.659  0.2581  0.3089 -0.5422
  807MOL0     C 6457   2.868   7.446   8.371  0.9102 -0.2883  0.1198
  807MOL0     C 6458   2.734   7.494   8.360 -0.0164 -0.0587 -1.1614
  807MOL0     H 6459   2.267   7.437   8.426  0.3571 -0.0582  0.5338
  807MOL0     H 6460   2.037   7.521   8.467  0.5131 -0.5210 -0.9542
  807MOL0     H 6461   1.987   7.937   8.534  1.3548  0.3768 -0.4986
  807MOL0     H 6462   1.831   7.869   8.571 -0.7516 -2.4553 -0.0750
  807MOL0     H 6463   1.934   7.943   8.284  0.1626 -0.4344 -0.8129
  807MOL0     H 6464   1.815   8.036   8.379  1.0161  0.2625 -0.5552
  807MOL0     H 6465   1.668   7.825   8.374  0.0855  3.0532  0.4733
  807MOL0     H 6466   1.790   7.761   8.256  0.5550 -0.6115 -0.3126
  807MOL0     H 6467   1.612   8.009   8.217  4.7629  4.3964 -3.0117
  807MOL0     H 6468   1.755   7.958   8.122  2.1449  0.2265  2.1042
  807MOL0     H 6469   1.491   7.804   8.145 -0.7784 -2.7726 -1.5726
  807MOL0     H 6470   1.637   7.737   8.080  1.8571  1.3550 -4.7852
  807MOL0     H 6471   1.651   7.840   7.885  0.0045  3.1872 -2.2354
  807MOL0     H 6472   1.577   7.991   7.938  1.0293  0.1513 -1.2786
  807MOL0     H 6473   1.433   7.738   7.871 -0.4918  0.3516 -1.4164
  807MOL0     H 6474   1.353   7.896   7.917  0.8940  1.3607 -0.1243
  807MOL0     H 6475   1.556   7.916   7.700  0.8776 -2.0700 -0.1351
  807MOL0     H 6476   1.397   7.979   7.723 -0.2545 -0.7908  5.2129
  807MOL0     H 6477   1.549   7.657   7.546  0.2925 -1.0060 -2.5395
  807MOL0     H 6478   1.264   7.525   7.334  1.7047  2.0276 -0.6234
  807MOL0     H 6479   1.302   7.421   7.468 -1.7092  0.0884  0.3164
  807MOL0     H 6480   1.547   7.475   7.391  0.0053 -0.0313  0.7613
  807MOL0     H 6481   1.466   7.557   7.254  0.0879  1.3002  1.1338
  807MOL0     H 6482   1.439   7.269   7.348  0.3836  2.1186  1.8727
  807MOL0     H 6483   1.341   7.340   7.222 -0.8566  4.5430  2.0051
  807MOL0     H 6484   1.551   7.201   7.141 -0.0098  0.5609 -0.5372
  807MOL0     H 6485   1.647   7.332   7.195 -1.3026 -0.7739  3.4335
  807MOL0     H 6486   1.676   7.247   6.861 -0.0771  1.3932 -2.4245
  807MOL0     H 6487   1.599   7.115   6.670 -1.0299 -0.8799 -0.1513
  807MOL0     H 6488   1.117   6.867   6.447 -2.2738  1.5067  0.9919
  807MOL0     H 6489   1.016   6.826   6.258 -1.4026  0.1700  1.5550
  807MOL0     H 6490   1.292   6.935   5.958 -1.1516 -0.4397  2.6081
  807MOL0     H 6491   1.161   6.998   5.857 -2.0519 -0.1507  1.6625
  807MOL0     H 6492   1.178   6.705   5.907  0.4537  0.8640  0.9949
  807MOL0     H 6493   1.297   6.775   5.793  0.3794  2.8953 -0.3658
  807MOL0     H 6494   1.056   6.871   5.683  0.8195  1.3538  1.5937
  807MOL0     H 6495   0.993   6.751   5.807 -2.0160  0.6618 -1.9347
  807MOL0     H 6496   1.139   6.680   5.552 -0.5502  1.8278  0.3641
  807MOL0     H 6497   1.150   6.580   5.693  2.0475  2.1042  0.6267
  807MOL0     H 6498   0.880   6.692   5.577 -1.7704 -1.1591  0.2662
  807MOL0     H 6499   0.898   6.574   5.710  1.0304 -2.6880  0.0897
  807MOL0     H 6500   1.033   6.433   5.539  0.6687  2.2059  0.9012
  807MOL0     H 6501   0.993   6.549   5.412 -0.1747  2.1614  1.1180
  807MOL0     H 6502   0.803   6.359   5.573 -2.4180 -1.1183 -1.7609
  807MOL0     H 6503   0.761   6.484   5.456  0.1261  0.3979  0.2436
  807MOL0     H 6504   0.894   6.368   5.274 -3.7942 -1.8658 -1.9668
  807MOL0     H 6505   0.756   6.284   5.328  0.2600 -0.2452 -3.8921
  807MOL0     H 6506   1.204   7.151   6.061  0.9613 -0.9780  0.4939
  807MOL0     H 6507   1.287   7.234   6.297  0.4430  0.3351  1.7137
  807MOL0     H 6508   1.184   7.236   6.754  0.8732 -4.2593 -1.9552
  807MOL0     H 6509   1.280   7.373   6.952  3.0472  2.1931 -0.3730
  807MOL0     H 6510   2.156   7.919   8.406 -0.2583 -0.7652 -3.2480
  807MOL0     H 6511   2.402   7.824   8.370 -0.1372 -0.4159 -4.4150
  807MOL0     H 6512   2.641   7.282   8.122 -0.1151 -0.9986  0.5404
  807MOL0     H 6513   2.856   7.193   8.148 -3.5832  0.1616 -2.4821
  807MOL0     H 6514   3.230   7.300   8.416  0.5971  0.6060  0.5839
  807MOL0     H 6515   3.124   7.414   8.470 -0.2363 -1.4068  1.7444
  807MOL0     H 6516   3.283   7.440   8.211  3.0951  3.9004 -0.7803
  807MOL0     H 6517   3.163   7.562   8.258  1.2586  1.5498  1.3981
  807MOL0     H 6518   3.406   7.604   8.325 -0.0069 -0.4962  0.7125
  807MOL0     H 6519   3.401   7.476   8.435  1.9918  0.3241 -3.3409
  807MOL0     H 6520   3.218   7.729   8.446  0.7362  0.2795 -0.1186
  807MOL0     H 6521   3.195   7.592   8.545  1.2555 -4.4476 -0.1867
  807MOL0     H 6522   3.529   7.770   8.729  0.5280  1.4984 -1.3369
  807MOL0     H 6523   2.928   7.527   8.412 -1.3359  2.6119 -1.9074
  807MOL0     H 6524   2.701   7.582   8.414  1.4091 -1.3301  2.0089
  808MOL0     O 6525  11.191  11.267   5.161 -0.2954 -0.5154 -0.0161
  808MOL0     C 6526  11.084  11.227   5.213  0.3990 -0.2426  0.1104
  808MOL0     O 6527  11.028  11.279   5.333  0.6939 -0.3706 -0.0925
  808MOL0     C 6528  11.037  11.418   5.349  0.7219  0.9208 -0.8670
  808MOL0     C 6529  11.023  11.471   5.482  0.6254 -0.4283 -0.4830
  808MOL0     C 6530  11.007  11.605   5.502 -0.6656 -0.5438  0.5724
  808MOL0     C 6531  11.039  11.706   5.399 -1.2022  0.2716 -0.5543
  808MOL0     O 6532  11.031  11.836   5.409  0.8011 -0.9353 -0.2773
  808MOL0     C 6533  11.104  11.891   5.519  0.1406 -0.4428  0.9004
  808MOL0     C 6534  11.241  11.969   5.485 -0.2021  0.3687 -0.0033
  808MOL0     C 6535  11.323  11.908   5.369 -0.8522 -0.4475 -0.4028
  808MOL0     C 6536  11.404  11.785   5.412 -1.4280 -0.1792  0.7184
  808MOL0     C 6537  11.501  11.750   5.305 -0.7689  0.1850 -0.1759
  808MOL0     C 6538  11.598  11.642   5.354 -0.2329  0.2299  0.7507
  808MOL0     C 6539  11.665  11.576   5.243  0.1127 -0.1275  0.6316
  808MOL0     C 6540  11.789  11.499   5.265  0.1584  0.5187 -0.6089
  808MOL0     N 6541  11.866  11.469   5.140 -0.4207  0.9057  0.0498
  808MOL0     C 6542  11.846  11.366   5.051  0.6630 -0.4376 -0.0762
  808MOL0     C 6543  11.927  11.398   4.946  0.2605 -0.0373  0.0570
  808MOL0     C 6544  11.964  11.329   4.816 -0.2238  0.4741  0.8042
  808MOL0     C 6545  12.098  11.238   4.829  1.0954 -0.2534 -0.1223
  808MOL0     C 6546  12.135  11.178   4.685 -0.1055  0.9315 -0.2236
  808MOL0     C 6547  12.252  11.084   4.697 -0.1854  0.1110 -0.6094
  808MOL0     O 6548  12.229  11.002   4.816  0.3971  0.0541 -0.1404
  808MOL0     C 6549  12.317  10.901   4.840  0.3498  0.9421  0.1912
  808MOL0     C 6550  12.270  10.811   4.940 -0.2344 -1.2857  0.9704
  808MOL0     C 6551  12.342  10.691   4.971 -0.0257 -0.1491 -0.9564
  808MOL0     C 6552  12.466  10.671   4.917  0.6490 -0.2457 -0.5605
  808MOL0     C 6553  12.552  10.567   4.988 -0.1328 -0.3160  0.6694
  808MOL0     O 6554  12.500  10.508   5.101 -0.0784  0.0658 -0.2764
  808MOL0     C 6555  12.573  10.446   5.204  0.4888  0.4206 -0.6980
  808MOL0     C 6556  12.504  10.370   5.300 -1.9415 -0.2245 -0.3208
  808MOL0     C 6557  12.571  10.311   5.407  0.1248  0.2820 -0.2777
  808MOL0     C 6558  12.711  10.312   5.417 -0.8244 -0.1301  0.6431
  808MOL0     O 6559  12.770  10.268   5.526  0.4125  0.8103 -0.1890
  808MOL0     C 6560  12.728  10.154   5.586 -0.3151  0.4784 -0.4459
  808MOL0     C 6561  12.839  10.089   5.676  0.2165 -0.7546  0.1217
  808MOL0     C 6562  12.954  10.060   5.592 -1.2141 -0.5879  0.6554
  808MOL0     C 6563  13.052   9.959   5.660  0.5756 -0.2792 -0.1869
  808MOL0     C 6564  13.167   9.923   5.569 -0.1351  0.0416 -0.3605
  808MOL0     C 6565  13.270   9.830   5.648 -0.1136  0.1973  0.4943
  808MOL0     C 6566  13.205   9.712   5.731 -0.3036  0.2442  0.9302
  808MOL0     C 6567  13.323   9.637   5.789 -1.1050  0.2151 -0.5176
  808MOL0    Cl 6568  13.397   9.745   5.909  0.2459 -0.4343  0.1569
  808MOL0     C 6569  12.779  10.391   5.320  0.1718  0.6652  0.7191
  808MOL0     C 6570  12.710  10.455   5.214 -0.1067  0.3158  0.3450
  808MOL0     O 6571  12.648  10.523   4.925 -0.3120  0.8968 -0.1583
  808MOL0     C 6572  12.519  10.759   4.817 -0.0165 -0.2840 -0.4370
  808MOL0     C 6573  12.442  10.873   4.783 -0.3329  0.8739 -0.9707
  808MOL0     N 6574  12.000  11.508   4.982 -0.4095 -0.2133  0.4762
  808MOL0     N 6575  11.967  11.549   5.096  0.8199  0.4145  0.1185
  808MOL0     C 6576  11.059  11.654   5.272 -0.6957 -0.0208  1.0349
  808MOL0     C 6577  11.060  11.520   5.251  0.2522  0.0177  0.0932
  808MOL0     C 6578  11.037  11.090   5.167  0.9274 -1.6111  0.4927
  808MOL0     C 6579  10.920  11.034   5.222  0.4717  0.5695 -0.0583
  808MOL0     C 6580  10.875  10.907   5.181  0.0954  0.4400  0.6142
  808MOL0     C 6581  10.939  10.838   5.085 -1.3826  1.0907  0.1314
  808MOL0     O 6582  10.908  10.709   5.034  0.6642  0.0390 -0.4320
  808MOL0     C 6583  10.778  10.664   5.076  0.3405  0.4792 -0.3625
  808MOL0     C 6584  10.736  10.528   5.024 -0.1111  0.0878  0.7064
  808MOL0     C 6585  10.846  10.426   5.037 -0.2584 -0.2845  1.1822
  808MOL0     C 6586  10.942  10.427   5.163  0.2903  0.3233  0.5713
  808MOL0     C 6587  10.870  10.349   5.266 -0.1393 -0.0674 -0.1125
  808MOL0     C 6588  10.818  10.292   5.360  0.6017  0.3832 -0.0928
  808MOL0     C 6589  11.053  10.898   5.027 -0.5986 -0.1662 -0.1087
  808MOL0     C 6590  11.097  11.025   5.066 -0.2946 -1.0544  0.2959
  808MOL0     H 6591  11.014  11.394   5.558 -0.7606 -0.4052 -0.6027
  808MOL0     H 6592  10.979  11.637   5.602  2.2202 -1.0273  1.6378
  808MOL0     H 6593  11.133  11.807   5.583 -0.6394 -2.4998 -1.2838
  808MOL0     H 6594  11.035  11.960   5.569  1.4102  1.0217  0.6915
  808MOL0     H 6595  11.299  11.985   5.576 -0.9394 -1.1636  0.7735
  808MOL0     H 6596  11.218  12.068   5.445  2.6405  1.3837  0.6451
  808MOL0     H 6597  11.391  11.977   5.317 -1.2911 -0.0814 -0.4955
  808MOL0     H 6598  11.253  11.865   5.297 -2.2017 -1.9867  1.7006
  808MOL0     H 6599  11.473  11.813   5.492 -1.2492  2.0050 -0.1198
  808MOL0     H 6600  11.347  11.696   5.440  0.1955 -1.1083  1.2181
  808MOL0     H 6601  11.561  11.837   5.276 -0.2037 -0.2231 -0.2624
  808MOL0     H 6602  11.450  11.720   5.214 -1.3601  3.0043 -0.8363
  808MOL0     H 6603  11.556  11.561   5.414  3.0097 -1.4959  0.9381
  808MOL0     H 6604  11.674  11.691   5.415  0.4177  0.4202 -0.1830
  808MOL0     H 6605  11.593  11.506   5.199  0.7594 -0.8739  0.7448
  808MOL0     H 6606  11.691  11.642   5.160  2.4901 -3.1752 -1.2827
  808MOL0     H 6607  11.773  11.407   5.322 -2.4028  1.3165  0.1113
  808MOL0     H 6608  11.848  11.559   5.335 -1.6695  0.3518  1.1770
  808MOL0     H 6609  11.785  11.276   5.058 -1.2653  0.8669  0.6482
  808MOL0     H 6610  11.974  11.411   4.745 -1.3443 -0.1434 -0.0819
  808MOL0     H 6611  11.881  11.260   4.798 -0.5484  1.1961 -0.5633
  808MOL0     H 6612  12.074  11.158   4.900 -0.2615  1.3276  1.2707
  808MOL0     H 6613  12.164  11.311   4.876  3.2628 -2.4526  0.4815
  808MOL0     H 6614  12.057  11.110   4.649  0.8317  0.5179 -1.5650
  808MOL0     H 6615  12.160  11.245   4.601  1.3501  1.7418  0.8030
  808MOL0     H 6616  12.333  11.155   4.718 -2.0760  2.3975 -0.6227
  808MOL0     H 6617  12.264  11.032   4.602 -0.0734 -0.6259 -0.1921
  808MOL0     H 6618  12.173  10.821   4.987 -0.5554 -1.1301  0.2888
  808MOL0     H 6619  12.301  10.611   5.032 -0.5631  0.8723  0.0516
  808MOL0     H 6620  12.397  10.382   5.295 -1.9340  0.2155  0.4126
  808MOL0     H 6621  12.514  10.277   5.494 -0.7503  2.6055  0.1161
  808MOL0     H 6622  12.705  10.089   5.501  0.1250  2.0797 -1.8386
  808MOL0     H 6623  12.635  10.174   5.641 -4.4533 -1.4028 -5.8474
  808MOL0     H 6624  12.804   9.993   5.714  0.4568 -0.9146 -0.0584
  808MOL0     H 6625  12.858  10.139   5.771  3.8440  0.2777 -1.0077
  808MOL0     H 6626  13.006  10.150   5.558 -1.4459 -1.5353 -2.5483
  808MOL0     H 6627  12.916  10.009   5.503 -3.2284 -0.6844  1.5203
  808MOL0     H 6628  13.100  10.015   5.741 -2.1769  0.2990  1.1793
  808MOL0     H 6629  13.002   9.865   5.683 -0.1479 -0.4367 -2.1918
  808MOL0     H 6630  13.235  10.003   5.535  1.3614 -1.9299 -2.3207
  808MOL0     H 6631  13.132   9.865   5.484  1.4392 -0.7099 -0.5383
  808MOL0     H 6632  13.327   9.901   5.707  0.7500  1.5930 -1.8655
  808MOL0     H 6633  13.337   9.792   5.570 -0.0265  2.0774 -0.3952
  808MOL0     H 6634  13.150   9.744   5.820 -0.1894 -2.2471  1.9697
  808MOL0     H 6635  13.146   9.654   5.659  2.1845  1.1335 -2.0253
  808MOL0     H 6636  13.399   9.599   5.720 -0.6516 -1.5009  0.8633
  808MOL0     H 6637  13.296   9.544   5.841  1.8090  0.8501  2.4794
  808MOL0     H 6638  12.887  10.406   5.320  0.3300  2.0518 -5.0881
  808MOL0     H 6639  12.753  10.522   5.140 -0.4659 -1.4664 -1.5847
  808MOL0     H 6640  12.623  10.756   4.787  0.0971 -2.2766 -0.0051
  808MOL0     H 6641  12.490  10.954   4.730  2.3488  0.1137  0.1488
  808MOL0     H 6642  11.084  11.722   5.191 -1.3842  0.3171  1.1001
  808MOL0     H 6643  11.072  11.496   5.146 -0.0080 -0.6796  0.2177
  808MOL0     H 6644  10.865  11.085   5.300 -1.8725  1.7356 -2.3041
  808MOL0     H 6645  10.785  10.879   5.236 -0.0428  1.1969  0.7857
  808MOL0     H 6646  10.702  10.735   5.043 -0.6060 -0.4403 -0.2109
  808MOL0     H 6647  10.780  10.660   5.185 -2.5329 -2.3617 -0.2749
  808MOL0     H 6648  10.645  10.489   5.071 -0.1609 -2.8201 -1.4999
  808MOL0     H 6649  10.717  10.534   4.916 -0.5257  1.1684  0.8230
  808MOL0     H 6650  10.908  10.440   4.948 -2.6303 -1.3033 -0.7662
  808MOL0     H 6651  10.799  10.327   5.031 -1.8125  0.5108 -1.2058
  808MOL0     H 6652  11.034  10.377   5.130 -1.3727 -1.3744 -1.8619
  808MOL0     H 6653  10.968  10.530   5.187  0.1182  0.9790 -1.8272
  808MOL0     H 6654  10.768  10.242   5.440 -1.0184 -0.2453 -1.4258
  808MOL0     H 6655  11.102  10.849   4.943  1.0230  1.7074 -0.2978
  808MOL0     H 6656  11.177  11.079   5.017 -0.2133 -0.1522  1.3847
  809MOL0     O 6657  10.316   2.362   1.206  0.3237  0.5369  0.3488
  809MOL0     C 6658  10.428   2.404   1.233 -0.8516  0.2089 -1.0284
  809MOL0     O 6659  10.532   2.338   1.296  0.1423  0.0052 -0.1079
  809MOL0     C 6660  10.544   2.199   1.283  0.1992 -0.3900  0.3606
  809MOL0     C 6661  10.522   2.135   1.158  0.4360  0.3345 -0.2389
  809MOL0     C 6662  10.531   1.994   1.146  0.1651  0.5131  0.6995
  809MOL0     C 6663  10.594   1.925   1.241  0.0621  1.1529  0.7783
  809MOL0     O 6664  10.630   1.792   1.215 -1.0470  0.2870 -0.0199
  809MOL0     C 6665  10.539   1.691   1.225 -0.6497 -0.4484  0.2116
  809MOL0     C 6666  10.586   1.577   1.132 -1.0230  0.2073 -0.0009
  809MOL0     C 6667  10.459   1.487   1.095 -0.6775 -0.6759  0.2412
  809MOL0     C 6668  10.414   1.394   1.211  0.2084 -0.7506 -0.2054
  809MOL0     C 6669  10.268   1.355   1.206 -0.1977  0.3796 -0.8328
  809MOL0     C 6670  10.185   1.465   1.270 -0.5745  0.1028 -0.5231
  809MOL0     C 6671  10.036   1.447   1.245  0.4007 -0.3230  0.5650
  809MOL0     C 6672   9.997   1.468   1.094 -0.2698 -0.2162 -0.1971
  809MOL0     N 6673   9.853   1.478   1.067  1.1074  0.8422  0.1714
  809MOL0     C 6674   9.771   1.365   1.074  0.4669  0.2528 -0.2875
  809MOL0     C 6675   9.653   1.406   1.021  0.1605  0.0387 -0.0423
  809MOL0     C 6676   9.535   1.308   0.984  0.1619  0.2057 -0.7204
  809MOL0     C 6677   9.412   1.332   1.070 -0.7747  0.8185 -1.5729
  809MOL0     C 6678   9.338   1.444   1.015  0.8097 -0.1130 -0.3949
  809MOL0     C 6679   9.256   1.394   0.882  0.1829  0.4608  0.2784
  809MOL0     O 6680   9.136   1.325   0.928 -0.3358  0.0569  1.2226
  809MOL0     C 6681   9.027   1.399   0.950  0.2135 -0.0049  0.2957
  809MOL0     C 6682   9.010   1.536   0.938 -0.8879 -0.5439 -0.8659
  809MOL0     C 6683   8.888   1.592   0.967  0.4242 -0.9215  0.1811
  809MOL0     C 6684   8.773   1.518   0.993  0.1268 -0.0289 -0.1907
  809MOL0     C 6685   8.647   1.593   1.004 -0.1858  0.1550 -0.2120
  809MOL0     O 6686   8.542   1.521   1.059  0.7118  0.9217 -0.7451
  809MOL0     C 6687   8.413   1.567   1.070 -0.9970 -0.2572  0.8572
  809MOL0     C 6688   8.324   1.473   1.121  0.4431  1.0772  0.1011
  809MOL0     C 6689   8.179   1.507   1.116 -0.7273 -0.8852 -0.2858
  809MOL0     C 6690   8.132   1.635   1.071  0.4685 -0.3792 -0.7235
  809MOL0     O 6691   8.004   1.676   1.064 -0.2060  0.6708 -1.0639
  809MOL0     C 6692   7.908   1.618   1.160 -0.4650 -0.6647 -0.0507
  809MOL0     C 6693   7.792   1.708   1.203 -0.4435  0.4220  0.3457
  809MOL0     C 6694   7.697   1.645   1.316  0.8480  0.0827  0.5276
  809MOL0     C 6695   7.605   1.754   1.384 -0.4434  0.3453 -0.8158
  809MOL0     C 6696   7.662   1.795   1.523 -0.3893  1.1015  0.6351
  809MOL0     C 6697   7.560   1.856   1.609  0.9453 -0.3678  0.8819
  809MOL0     C 6698   7.621   1.931   1.729 -0.4104  1.3050  0.7693
  809MOL0     C 6699   7.592   1.855   1.859 -1.0060 -1.0225 -1.0323
  809MOL0    Cl 6700   7.435   1.928   1.921 -0.0600  0.0416  0.2751
  809MOL0     C 6701   8.230   1.724   1.036  0.2707 -0.0852  0.3994
  809MOL0     C 6702   8.366   1.693   1.031 -1.2684  0.1476 -0.4684
  809MOL0     O 6703   8.647   1.714   0.973  0.3591  0.1618 -0.7133
  809MOL0     C 6704   8.782   1.383   1.011 -0.0720 -0.1311 -0.3343
  809MOL0     C 6705   8.913   1.323   0.982  0.5538 -0.2183 -1.1877
  809MOL0     N 6706   9.664   1.535   0.987 -0.6440 -0.2244 -0.3997
  809MOL0     N 6707   9.781   1.582   1.017 -0.9151  0.0141 -0.7104
  809MOL0     C 6708  10.608   1.984   1.364 -0.0648  0.2911 -0.5089
  809MOL0     C 6709  10.597   2.121   1.385  0.1051 -0.1227  0.1966
  809MOL0     C 6710  10.456   2.546   1.218  0.3018 -0.5772 -0.7354
  809MOL0     C 6711  10.355   2.635   1.194  1.5403 -0.6428  0.2723
  809MOL0     C 6712  10.395   2.765   1.163 -0.7318 -0.6548  0.7603
  809MOL0     C 6713  10.527   2.809   1.143 -0.6999 -0.2746 -0.0660
  809MOL0     O 6714  10.576   2.934   1.122 -0.1239 -0.1709 -0.5477
  809MOL0     C 6715  10.525   3.004   1.007 -0.1704 -0.9525  0.8268
  809MOL0     C 6716  10.599   2.948   0.881  0.1004  1.1224  0.2451
  809MOL0     C 6717  10.554   3.023   0.758  0.0226 -0.0522 -0.0818
  809MOL0     C 6718  10.622   2.974   0.634 -0.5259  0.6078  0.0437
  809MOL0     C 6719  10.591   3.077   0.527 -1.1915 -0.1347 -0.2020
  809MOL0     C 6720  10.563   3.161   0.438  0.5349  0.1122  0.1597
  809MOL0     C 6721  10.623   2.707   1.150  0.6500 -0.2697 -0.3416
  809MOL0     C 6722  10.591   2.578   1.198  0.7420 -0.3147  0.5753
  809MOL0     H 6723  10.494   2.198   1.074  2.5128 -0.6851 -1.7838
  809MOL0     H 6724  10.509   1.955   1.047  2.1575 -0.0352  0.4342
  809MOL0     H 6725  10.442   1.728   1.192 -0.3832 -0.3141 -0.4383
  809MOL0     H 6726  10.536   1.645   1.324  2.4861 -3.2972 -0.8155
  809MOL0     H 6727  10.662   1.513   1.179 -0.7679  1.2059  0.9964
  809MOL0     H 6728  10.629   1.608   1.037  0.8138 -3.3478 -0.5007
  809MOL0     H 6729  10.486   1.415   1.017  3.3042  3.6434 -2.9124
  809MOL0     H 6730  10.379   1.558   1.070  0.5137  0.3250 -0.8455
  809MOL0     H 6731  10.481   1.308   1.222  3.7884  1.9672  1.1438
  809MOL0     H 6732  10.430   1.455   1.300 -0.3064  0.0207 -0.6295
  809MOL0     H 6733  10.247   1.255   1.243  0.8689  0.9657  1.5072
  809MOL0     H 6734  10.239   1.339   1.101 -1.8414  0.0479 -0.3530
  809MOL0     H 6735  10.219   1.557   1.221 -1.8826 -0.4197 -2.5162
  809MOL0     H 6736  10.189   1.469   1.380 -2.6204  0.4957 -0.4208
  809MOL0     H 6737  10.014   1.346   1.281  2.1064 -1.1670 -0.6121
  809MOL0     H 6738   9.982   1.520   1.305 -0.3373 -1.3137  1.1440
  809MOL0     H 6739  10.042   1.386   1.035  4.7300  0.8816  1.5434
  809MOL0     H 6740  10.045   1.559   1.057 -5.1452  2.8491  0.1915
  809MOL0     H 6741   9.797   1.265   1.108  1.7174  0.2139 -1.2827
  809MOL0     H 6742   9.568   1.204   0.988  0.9930  0.4695  2.3612
  809MOL0     H 6743   9.516   1.352   0.886 -1.5913 -0.6753 -0.7975
  809MOL0     H 6744   9.449   1.366   1.167 -2.6961 -1.5845  0.1207
  809MOL0     H 6745   9.344   1.247   1.077 -1.4723  1.4910  1.9570
  809MOL0     H 6746   9.271   1.480   1.094 -0.6652 -0.4546 -1.4484
  809MOL0     H 6747   9.407   1.526   0.995 -0.3096  1.7670  2.7370
  809MOL0     H 6748   9.317   1.328   0.819  0.7022  1.6108 -0.4426
  809MOL0     H 6749   9.237   1.483   0.821 -0.4082  0.2692  0.1740
  809MOL0     H 6750   9.088   1.608   0.915 -0.1951 -1.2757 -0.8544
  809MOL0     H 6751   8.884   1.699   0.980  3.6311 -0.6644 -0.0903
  809MOL0     H 6752   8.356   1.373   1.148 -3.0576  0.6892  3.8046
  809MOL0     H 6753   8.108   1.427   1.136  0.3634 -1.9294 -0.4947
  809MOL0     H 6754   7.971   1.594   1.246  0.3623 -1.7520 -0.9332
  809MOL0     H 6755   7.862   1.531   1.113 -2.6017 -0.4589  1.4526
  809MOL0     H 6756   7.726   1.725   1.117  0.4700 -0.3284 -0.5242
  809MOL0     H 6757   7.839   1.803   1.227 -1.1312  1.9732 -3.6725
  809MOL0     H 6758   7.751   1.589   1.394 -0.1812  1.0674  1.9919
  809MOL0     H 6759   7.636   1.568   1.267  0.1365  1.3891 -0.7047
  809MOL0     H 6760   7.589   1.846   1.328 -3.7403  0.6348  0.3861
  809MOL0     H 6761   7.509   1.702   1.385  1.2944 -3.1909 -0.4821
  809MOL0     H 6762   7.753   1.849   1.494  0.0431 -0.4247 -1.0015
  809MOL0     H 6763   7.702   1.712   1.581  3.0016  2.4546  0.4448
  809MOL0     H 6764   7.481   1.784   1.633 -1.7350  2.3664  0.8794
  809MOL0     H 6765   7.513   1.939   1.554  1.7785 -0.1273  0.5090
  809MOL0     H 6766   7.729   1.946   1.724 -0.0159 -0.2291  3.0478
  809MOL0     H 6767   7.583   2.032   1.745 -2.9434  0.4125  0.8080
  809MOL0     H 6768   7.648   1.882   1.949 -1.6258 -0.5707 -0.7790
  809MOL0     H 6769   7.602   1.746   1.855  1.6081 -0.9136  0.2043
  809MOL0     H 6770   8.186   1.821   1.020  1.0575  0.5499  1.8520
  809MOL0     H 6771   8.441   1.766   1.005  0.2646 -0.3684  2.1236
  809MOL0     H 6772   8.709   1.306   1.036 -0.7920  1.1154  1.6016
  809MOL0     H 6773   8.928   1.217   0.999 -1.6994 -0.8513 -2.6786
  809MOL0     H 6774  10.654   1.929   1.446  4.2971  0.9534 -2.2130
  809MOL0     H 6775  10.619   2.167   1.481 -0.5266 -2.6143  1.6292
  809MOL0     H 6776  10.256   2.590   1.194  2.0624 -1.8301  0.3308
  809MOL0     H 6777  10.316   2.840   1.154  2.1534  2.6765  1.1258
  809MOL0     H 6778  10.535   3.113   1.016  0.0215 -0.9942  1.1251
  809MOL0     H 6779  10.417   2.991   0.992 -0.4245  1.2026  0.3784
  809MOL0     H 6780  10.708   2.955   0.884  0.1324  0.4712  1.4101
  809MOL0     H 6781  10.574   2.842   0.866  1.6657  0.7104  0.4211
  809MOL0     H 6782  10.577   3.129   0.773  0.2796  0.4048 -3.1524
  809MOL0     H 6783  10.445   3.011   0.747 -0.1081  1.0467 -0.1279
  809MOL0     H 6784  10.728   2.968   0.659 -0.3374  0.4025 -0.7730
  809MOL0     H 6785  10.586   2.873   0.611 -0.8046 -1.0085  5.9171
  809MOL0     H 6786  10.539   3.231   0.361 -2.9205  0.0209  1.0236
  809MOL0     H 6787  10.725   2.745   1.146  0.3840  1.1166  2.8420
  809MOL0     H 6788  10.675   2.510   1.197  1.4680  0.5237  1.8873
  810MOL0     O 6789   5.210   7.465   3.274 -0.0535  0.5298 -0.1491
  810MOL0     C 6790   5.154   7.430   3.170  0.1139 -0.1030  0.4449
  810MOL0     O 6791   5.037   7.481   3.120  0.6281 -0.3326 -0.7459
  810MOL0     C 6792   4.967   7.572   3.196 -0.3805  0.5119 -0.1883
  810MOL0     C 6793   4.942   7.544   3.334 -0.2852  0.1930  0.1677
  810MOL0     C 6794   4.864   7.634   3.414 -0.5430 -0.3546  0.2263
  810MOL0     C 6795   4.802   7.738   3.348 -0.5428  0.9054 -0.9393
  810MOL0     O 6796   4.725   7.831   3.406  0.9509  0.4631 -0.5950
  810MOL0     C 6797   4.690   7.837   3.548 -0.3510  0.6211  0.8544
  810MOL0     C 6798   4.611   7.966   3.571  0.4225  0.4439  0.2784
  810MOL0     C 6799   4.478   7.974   3.492 -0.0515  0.0876 -0.1866
  810MOL0     C 6800   4.394   8.084   3.563 -0.3384  0.2211  0.6646
  810MOL0     C 6801   4.247   8.103   3.526 -0.5408 -0.3479  1.2324
  810MOL0     C 6802   4.207   8.138   3.376 -0.6831  0.5123 -0.7344
  810MOL0     C 6803   4.217   8.292   3.360  0.0638  0.1275 -0.5769
  810MOL0     C 6804   4.141   8.353   3.246  1.0291 -0.5873 -0.3238
  810MOL0     N 6805   4.134   8.500   3.266 -0.1045 -0.1694  0.6834
  810MOL0     C 6806   4.238   8.590   3.250  0.1036 -0.4096 -0.9129
  810MOL0     C 6807   4.194   8.710   3.283  1.1007  0.3005 -0.0644
  810MOL0     C 6808   4.270   8.838   3.273 -0.7049 -0.5081  0.4348
  810MOL0     C 6809   4.309   8.889   3.133 -0.9755  0.3918  0.7082
  810MOL0     C 6810   4.191   8.890   3.026 -1.2059  0.2199  0.0539
  810MOL0     C 6811   4.071   8.959   3.076  0.6813  1.7795 -1.9811
  810MOL0     O 6812   3.966   8.974   2.983 -0.6005  0.4210  0.1793
  810MOL0     C 6813   3.838   9.024   3.011 -0.5960  0.9481  0.0747
  810MOL0     C 6814   3.758   9.060   2.898  0.9140 -0.3294 -0.5525
  810MOL0     C 6815   3.636   9.129   2.901 -0.8269  0.7325 -0.1958
  810MOL0     C 6816   3.571   9.138   3.025  0.8116 -0.2993 -1.1593
  810MOL0     C 6817   3.440   9.199   3.035 -0.8000 -1.2641 -0.4175
  810MOL0     O 6818   3.423   9.285   2.940 -0.1643  0.1178  0.7273
  810MOL0     C 6819   3.318   9.370   2.935  0.0829 -0.8516 -0.0867
  810MOL0     C 6820   3.241   9.368   2.821 -0.0362  0.0622 -0.4664
  810MOL0     C 6821   3.118   9.447   2.814 -0.6376  0.7530  0.1410
  810MOL0     C 6822   3.100   9.531   2.922  1.0453  0.7720  0.0256
  810MOL0     O 6823   2.984   9.601   2.925  0.2814 -1.0255  0.6884
  810MOL0     C 6824   2.895   9.620   2.819  1.6730  0.0321  0.5460
  810MOL0     C 6825   2.790   9.729   2.840 -0.3737  1.1162 -0.9131
  810MOL0     C 6826   2.690   9.691   2.955 -0.0576  0.8269 -0.2002
  810MOL0     C 6827   2.570   9.607   2.889  0.7656  0.4213 -0.1600
  810MOL0     C 6828   2.454   9.562   2.985 -0.3648  0.4648  0.0065
  810MOL0     C 6829   2.502   9.500   3.115 -0.6201  0.2051 -0.6110
  810MOL0     C 6830   2.379   9.414   3.175  0.1979  0.1894 -0.1600
  810MOL0     C 6831   2.375   9.271   3.109  0.2839  0.5117 -0.0976
  810MOL0    Cl 6832   2.221   9.207   3.175  0.0207  0.0293  0.6225
  810MOL0     C 6833   3.182   9.537   3.038 -0.6825 -0.0865 -0.3617
  810MOL0     C 6834   3.296   9.454   3.039 -0.4095 -0.5761 -1.3089
  810MOL0     O 6835   3.371   9.181   3.133  0.1344  0.6054 -0.4259
  810MOL0     C 6836   3.647   9.092   3.141 -0.5690  0.1167  0.6308
  810MOL0     C 6837   3.782   9.044   3.129  0.4845 -0.3881  0.4143
  810MOL0     N 6838   4.050   8.698   3.302 -0.5279 -0.1559  0.2894
  810MOL0     N 6839   4.022   8.571   3.309 -0.0347 -0.1546  0.1519
  810MOL0     C 6840   4.832   7.764   3.213  0.4731  0.0819  0.5269
  810MOL0     C 6841   4.908   7.682   3.132 -0.4737 -0.1330 -0.9988
  810MOL0     C 6842   5.208   7.324   3.097  0.4164  0.4274 -0.0620
  810MOL0     C 6843   5.129   7.246   3.010  0.3627 -0.2289 -1.0160
  810MOL0     C 6844   5.170   7.124   2.952  0.1515  0.3475  0.9029
  810MOL0     C 6845   5.299   7.081   2.991  0.1859  0.4935  0.6015
  810MOL0     O 6846   5.366   6.972   2.935  0.0886 -0.5549 -0.4323
  810MOL0     C 6847   5.297   6.888   2.847 -0.1239  0.1202  0.0627
  810MOL0     C 6848   5.410   6.787   2.814 -0.4301  0.2853  0.2907
  810MOL0     C 6849   5.510   6.837   2.701  0.4671  0.0714  0.9266
  810MOL0     C 6850   5.601   6.727   2.645  0.6028 -0.0411  0.1579
  810MOL0     C 6851   5.707   6.688   2.734  0.0580  0.5066  0.6459
  810MOL0     C 6852   5.793   6.644   2.809 -0.5772 -0.9193 -0.2407
  810MOL0     C 6853   5.374   7.154   3.077 -0.1794  0.2440  0.8610
  810MOL0     C 6854   5.328   7.271   3.137 -0.2567  0.0661  0.2211
  810MOL0     H 6855   4.986   7.463   3.392  0.3766  2.1062  2.5360
  810MOL0     H 6856   4.862   7.625   3.522 -0.0172  2.7136  0.5930
  810MOL0     H 6857   4.779   7.830   3.611 -1.0883 -3.0357  1.7338
  810MOL0     H 6858   4.644   7.748   3.594  3.5805 -1.9067  0.3683
  810MOL0     H 6859   4.681   8.039   3.530  2.6347 -1.4958  0.3957
  810MOL0     H 6860   4.592   7.968   3.679 -1.9467 -0.5939 -0.0575
  810MOL0     H 6861   4.420   7.882   3.505  2.0471 -1.7557 -2.7159
  810MOL0     H 6862   4.491   7.981   3.384  2.4634  0.4087  0.0572
  810MOL0     H 6863   4.405   8.076   3.672  0.0586  1.1033  0.6977
  810MOL0     H 6864   4.438   8.183   3.545 -0.1207 -0.2179 -1.4246
  810MOL0     H 6865   4.213   8.183   3.593  0.8578  1.3240  0.0525
  810MOL0     H 6866   4.189   8.014   3.552 -0.1819 -1.6480 -1.9697
  810MOL0     H 6867   4.105   8.105   3.354 -0.0557 -4.0173  1.9974
  810MOL0     H 6868   4.270   8.079   3.309 -1.8335 -0.5593 -0.9204
  810MOL0     H 6869   4.161   8.335   3.443 -0.2322  2.4841 -1.9327
  810MOL0     H 6870   4.319   8.330   3.371  0.7346 -1.8406  0.7540
  810MOL0     H 6871   4.036   8.325   3.258  1.5705 -2.0615  1.4567
  810MOL0     H 6872   4.181   8.312   3.152  2.1803 -1.4546  0.5074
  810MOL0     H 6873   4.340   8.562   3.224 -0.3850  0.4248 -4.1731
  810MOL0     H 6874   4.364   8.828   3.327 -1.5895  1.7084  2.5836
  810MOL0     H 6875   4.226   8.912   3.340 -2.1414  0.2670 -1.2568
  810MOL0     H 6876   4.396   8.828   3.108 -0.6179  0.6004  1.4052
  810MOL0     H 6877   4.344   8.992   3.144  2.0138 -0.6948  2.4470
  810MOL0     H 6878   4.223   8.935   2.931  1.1929  0.5458  0.9486
  810MOL0     H 6879   4.169   8.784   3.013  2.2610 -0.8030  1.2440
  810MOL0     H 6880   4.086   9.061   3.113  1.5801  0.9241  0.1796
  810MOL0     H 6881   4.043   8.902   3.165  0.8961  0.5549 -2.6816
  810MOL0     H 6882   3.797   9.026   2.802 -2.1645 -1.0686 -1.6476
  810MOL0     H 6883   3.580   9.168   2.816 -1.1968 -1.3882 -0.9725
  810MOL0     H 6884   3.275   9.310   2.736  0.8670  0.0270 -0.0838
  810MOL0     H 6885   3.044   9.430   2.736  1.8001  0.7413 -2.3476
  810MOL0     H 6886   2.848   9.524   2.798  2.0534  0.4858 -2.9141
  810MOL0     H 6887   2.952   9.652   2.731 -0.9687  0.6716 -1.0181
  810MOL0     H 6888   2.724   9.748   2.755 -1.0174  1.1426 -0.4148
  810MOL0     H 6889   2.849   9.818   2.862  5.5194 -2.1705 -1.2672
  810MOL0     H 6890   2.640   9.777   3.000 -0.6950 -0.2938  1.3427
  810MOL0     H 6891   2.732   9.628   3.034  0.8513  2.0811  0.3407
  810MOL0     H 6892   2.534   9.664   2.803 -0.7905 -1.2740 -0.6968
  810MOL0     H 6893   2.614   9.517   2.843 -1.6404 -0.7195 -0.3905
  810MOL0     H 6894   2.382   9.493   2.940  0.6186 -2.6970  2.8473
  810MOL0     H 6895   2.386   9.638   3.025 -0.6050 -0.0075  0.5216
  810MOL0     H 6896   2.543   9.576   3.182 -2.8767 -0.0927  1.2528
  810MOL0     H 6897   2.586   9.435   3.092  0.5108  1.6686 -0.7281
  810MOL0     H 6898   2.393   9.401   3.283  1.5137 -0.1578 -0.3471
  810MOL0     H 6899   2.284   9.463   3.152  0.0386  0.9000  1.7987
  810MOL0     H 6900   2.457   9.209   3.146  1.2011  0.2369 -2.3879
  810MOL0     H 6901   2.376   9.269   2.999  0.4787 -0.9860 -0.0857
  810MOL0     H 6902   3.178   9.611   3.118 -0.2132  0.7019 -1.0401
  810MOL0     H 6903   3.366   9.457   3.122  0.6026 -1.9362 -2.0783
  810MOL0     H 6904   3.613   9.096   3.244 -0.3097 -3.4076  0.9503
  810MOL0     H 6905   3.834   9.024   3.222  0.0121 -1.8953  0.3893
  810MOL0     H 6906   4.787   7.852   3.166 -1.7434 -1.5449 -0.5821
  810MOL0     H 6907   4.922   7.691   3.024  2.2635 -3.1050 -1.0259
  810MOL0     H 6908   5.040   7.293   2.968  1.8177  3.2698 -0.4649
  810MOL0     H 6909   5.104   7.075   2.882 -0.0074 -0.6892  1.7622
  810MOL0     H 6910   5.259   6.943   2.760  0.9513  1.6543  0.5059
  810MOL0     H 6911   5.224   6.832   2.906  1.7308 -1.5868  0.8631
  810MOL0     H 6912   5.469   6.776   2.905  1.0960 -0.0223 -0.6992
  810MOL0     H 6913   5.366   6.689   2.796  3.2656 -1.9197  2.0611
  810MOL0     H 6914   5.574   6.915   2.744  1.9655  1.4872 -3.4267
  810MOL0     H 6915   5.450   6.879   2.620  1.3373  0.4002  0.4473
  810MOL0     H 6916   5.525   6.654   2.616 -0.1048  0.3026  1.0850
  810MOL0     H 6917   5.641   6.765   2.551 -2.2617 -3.2149 -2.6435
  810MOL0     H 6918   5.865   6.601   2.876 -0.5894  0.9463  1.0721
  810MOL0     H 6919   5.478   7.125   3.090  1.1688  1.2445 -4.9998
  810MOL0     H 6920   5.378   7.308   3.226  0.6279 -0.3178 -0.1032
  811MOL0     O 6921   0.937   2.848  11.166  0.4543  0.0782  0.5861
  811MOL0     C 6922   0.915   2.954  11.224  0.4630  1.1756  0.2173
  811MOL0     O 6923   0.976   3.073  11.194 -0.1694  0.4596  0.6086
  811MOL0     C 6924   1.085   3.087  11.112 -0.5442  0.6633 -0.1206
  811MOL0     C 6925   1.179   2.987  11.095 -0.8772 -0.2111  0.7041
  811MOL0     C 6926   1.285   2.998  10.995 -1.4365  0.3702  0.2489
  811MOL0     C 6927   1.298   3.118  10.928  0.0494 -0.2527  0.7839
  811MOL0     O 6928   1.393   3.138  10.830  0.3861  0.0091  0.4320
  811MOL0     C 6929   1.450   3.272  10.815 -0.3509  0.0641 -0.4089
  811MOL0     C 6930   1.554   3.256  10.704  0.2108  0.3410 -0.0551
  811MOL0     C 6931   1.486   3.299  10.571 -0.7073 -0.1476 -0.6144
  811MOL0     C 6932   1.355   3.240  10.528 -0.0243  0.1984  0.7964
  811MOL0     C 6933   1.378   3.078  10.525  0.4234  0.1334  0.0710
  811MOL0     C 6934   1.248   2.997  10.500  0.1958 -0.6034 -1.0615
  811MOL0     C 6935   1.181   3.036  10.366  1.2230  0.7456 -0.5329
  811MOL0     C 6936   1.263   2.996  10.251 -0.0338 -0.7724  0.4264
  811MOL0     N 6937   1.299   2.848  10.239  0.9663  0.0363 -0.6414
  811MOL0     C 6938   1.221   2.744  10.278 -0.0767 -0.7252  0.3807
  811MOL0     C 6939   1.304   2.636  10.279  0.5374 -0.7859 -1.1808
  811MOL0     C 6940   1.282   2.497  10.354  0.3127 -0.4461 -0.2485
  811MOL0     C 6941   1.309   2.501  10.504  0.3945  0.5703 -0.0602
  811MOL0     C 6942   1.313   2.357  10.558  1.0449  1.2297 -0.2767
  811MOL0     C 6943   1.355   2.360  10.711 -0.0419  0.1865  0.9472
  811MOL0     O 6944   1.380   2.223  10.734 -0.0649  0.2567  0.1482
  811MOL0     C 6945   1.307   2.154  10.826 -0.0216 -0.2722 -0.2044
  811MOL0     C 6946   1.305   2.012  10.807  0.2313 -0.4599 -0.4156
  811MOL0     C 6947   1.239   1.935  10.897  0.2479  0.6639 -0.5893
  811MOL0     C 6948   1.169   1.986  11.009 -0.5413  0.1234 -0.4983
  811MOL0     C 6949   1.105   1.898  11.112 -0.3652 -0.2997 -0.9418
  811MOL0     O 6950   1.116   1.770  11.087 -0.0701 -0.0808  0.6786
  811MOL0     C 6951   1.060   1.688  11.187 -0.6532 -1.4732  0.8666
  811MOL0     C 6952   1.146   1.623  11.271 -0.4081  0.6532  0.4908
  811MOL0     C 6953   1.098   1.550  11.374  0.0532 -0.2130  0.0388
  811MOL0     C 6954   0.958   1.560  11.405 -0.8400 -0.3172  0.6124
  811MOL0     O 6955   0.900   1.501  11.513  0.1344  0.2325 -0.2650
  811MOL0     C 6956   0.988   1.472  11.626  0.4501  0.4593 -0.4101
  811MOL0     C 6957   1.002   1.594  11.717 -0.1173  0.8090 -0.5278
  811MOL0     C 6958   0.876   1.653  11.776  0.0364 -0.2163 -0.3472
  811MOL0     C 6959   0.767   1.565  11.827  0.7544  0.2248 -0.8728
  811MOL0     C 6960   0.649   1.638  11.899  0.4891  0.2452 -0.1491
  811MOL0     C 6961   0.514   1.580  11.890 -0.2663  0.4076  0.1205
  811MOL0     C 6962   0.421   1.645  11.980  0.6480  0.5376 -0.9113
  811MOL0     C 6963   0.457   1.643  12.127 -0.0747 -0.1736 -1.2955
  811MOL0    Cl 6964   0.326   1.753  12.189 -0.5759  0.3981  0.1491
  811MOL0     C 6965   0.872   1.623  11.321 -0.2559  0.5249  0.0123
  811MOL0     C 6966   0.928   1.683  11.206  0.3261  0.0432  0.9108
  811MOL0     O 6967   1.046   1.948  11.208  0.5659  0.5200  0.0315
  811MOL0     C 6968   1.178   2.125  11.027  1.1726  0.3085 -0.5876
  811MOL0     C 6969   1.246   2.214  10.940 -0.5132  0.2352 -0.9351
  811MOL0     N 6970   1.429   2.680  10.226 -0.1014  0.6104 -0.0272
  811MOL0     N 6971   1.417   2.808  10.199 -0.6327  0.3253 -0.7572
  811MOL0     C 6972   1.213   3.226  10.963  0.2390  1.1092  1.4498
  811MOL0     C 6973   1.114   3.211  11.056  0.9010  0.3827 -0.9283
  811MOL0     C 6974   0.792   2.964  11.309 -0.2193  0.5983 -0.4850
  811MOL0     C 6975   0.736   2.849  11.372 -0.5343  0.6445  0.0032
  811MOL0     C 6976   0.621   2.858  11.451  0.1081 -0.1380  0.2137
  811MOL0     C 6977   0.560   2.979  11.465  1.0096 -0.0608 -0.3994
  811MOL0     O 6978   0.436   2.983  11.523  0.1565 -0.2805 -0.8168
  811MOL0     C 6979   0.420   2.934  11.653  0.1458  0.6880  0.1962
  811MOL0     C 6980   0.334   3.026  11.740  0.4380  1.0788 -0.1605
  811MOL0     C 6981   0.302   2.980  11.890  0.3110  0.2845  0.9809
  811MOL0     C 6982   0.288   3.093  11.991  0.5826 -0.7332 -0.3720
  811MOL0     C 6983   0.174   3.172  11.936 -0.0733 -1.5792 -0.3289
  811MOL0     C 6984   0.079   3.229  11.891 -0.1047  0.3534  0.0721
  811MOL0     C 6985   0.604   3.092  11.394 -0.5086  0.6235 -0.6109
  811MOL0     C 6986   0.726   3.087  11.324 -0.9111  0.8608  0.1153
  811MOL0     H 6987   1.165   2.898  11.155  0.2705 -2.2269 -1.7894
  811MOL0     H 6988   1.352   2.915  10.973 -0.6212  0.4339  2.2705
  811MOL0     H 6989   1.499   3.288  10.912 -0.9349  1.3455 -0.3140
  811MOL0     H 6990   1.376   3.351  10.797  0.3997  1.8078  3.2013
  811MOL0     H 6991   1.598   3.157  10.698  1.1103  0.8407 -3.0429
  811MOL0     H 6992   1.631   3.331  10.725 -0.1910  0.3195  1.6479
  811MOL0     H 6993   1.559   3.277  10.493 -0.4516 -0.1904 -0.3680
  811MOL0     H 6994   1.468   3.407  10.573 -1.6678 -0.2869 -1.4163
  811MOL0     H 6995   1.271   3.257  10.596 -1.8484  1.3140 -1.6217
  811MOL0     H 6996   1.326   3.278  10.430  0.1112 -1.1616  0.2228
  811MOL0     H 6997   1.435   3.038  10.610  1.1269 -0.4211 -0.6429
  811MOL0     H 6998   1.446   3.057  10.442  0.2804  0.2174 -0.0659
  811MOL0     H 6999   1.176   3.029  10.576  1.0169  3.9451 -1.8806
  811MOL0     H 7000   1.258   2.889  10.513 -3.2148 -0.7240  2.8299
  811MOL0     H 7001   1.085   2.982  10.367  1.0809  0.9730 -1.1986
  811MOL0     H 7002   1.165   3.144  10.359  0.2953  0.6794  0.2704
  811MOL0     H 7003   1.358   3.049  10.239  0.9544 -2.6383 -0.5891
  811MOL0     H 7004   1.203   3.016  10.161  1.5557  1.7314 -0.1902
  811MOL0     H 7005   1.121   2.742  10.321 -0.0249 -3.7118  0.5923
  811MOL0     H 7006   1.345   2.418  10.311 -0.2330 -1.9132  1.5463
  811MOL0     H 7007   1.179   2.469  10.330  0.9537 -0.6726 -3.1079
  811MOL0     H 7008   1.228   2.553  10.556  0.9376  0.6362  0.7448
  811MOL0     H 7009   1.406   2.548  10.525  1.6187 -2.5696  2.0348
  811MOL0     H 7010   1.214   2.311  10.555  0.7810  1.7707  0.1570
  811MOL0     H 7011   1.376   2.299  10.490  2.2008  0.4103  1.4061
  811MOL0     H 7012   1.275   2.412  10.765  0.0276  1.3813 -0.0488
  811MOL0     H 7013   1.455   2.400  10.729  1.9686 -3.9711  0.2289
  811MOL0     H 7014   1.358   1.983  10.717 -0.4962  0.9995 -1.3507
  811MOL0     H 7015   1.234   1.827  10.883 -1.2671  0.0973  3.1017
  811MOL0     H 7016   1.253   1.610  11.263 -0.6738 -1.9733  0.2332
  811MOL0     H 7017   1.170   1.492  11.431  0.8879 -4.3726 -4.5464
  811MOL0     H 7018   1.091   1.438  11.611  0.0908 -1.2396  0.7193
  811MOL0     H 7019   0.938   1.396  11.687 -0.8210  0.2714 -1.6221
  811MOL0     H 7020   1.057   1.670  11.662  1.6431  1.0231  1.4199
  811MOL0     H 7021   1.065   1.564  11.801  3.2483  0.3712 -2.9958
  811MOL0     H 7022   0.832   1.724  11.705 -1.2800  1.5062  2.0617
  811MOL0     H 7023   0.904   1.712  11.864 -2.4232  2.0216 -0.9418
  811MOL0     H 7024   0.717   1.519  11.741 -0.0993  1.5155 -1.0997
  811MOL0     H 7025   0.818   1.487  11.884 -0.0492  0.3154 -0.0111
  811MOL0     H 7026   0.644   1.743  11.870  0.9760  0.7116  1.3921
  811MOL0     H 7027   0.680   1.631  12.004  0.0246 -0.2500 -0.0407
  811MOL0     H 7028   0.508   1.473  11.912  4.3861 -0.8595 -3.1771
  811MOL0     H 7029   0.479   1.600  11.788 -0.3637  0.9666  0.2627
  811MOL0     H 7030   0.418   1.747  11.941  1.0133  0.3197 -1.5319
  811MOL0     H 7031   0.320   1.605  11.968  1.2845 -1.3464 -0.3457
  811MOL0     H 7032   0.556   1.688  12.144 -0.8293  1.0823  0.1010
  811MOL0     H 7033   0.447   1.545  12.174  0.2016  0.7274  0.7837
  811MOL0     H 7034   0.765   1.632  11.340 -0.6613 -1.4866 -1.0550
  811MOL0     H 7035   0.873   1.740  11.133  2.3370 -1.1111 -1.6577
  811MOL0     H 7036   1.135   2.179  11.111 -1.8380 -1.2026 -1.0160
  811MOL0     H 7037   1.253   2.323  10.943 -2.6843  0.5505 -3.5480
  811MOL0     H 7038   1.214   3.326  10.921  2.0314  0.8693  0.8058
  811MOL0     H 7039   1.058   3.301  11.077 -1.2904 -0.3670 -3.0436
  811MOL0     H 7040   0.785   2.753  11.371  2.2357  1.9319  1.1591
  811MOL0     H 7041   0.581   2.761  11.480 -1.6820 -0.1679 -2.0943
  811MOL0     H 7042   0.518   2.924  11.701  0.6702  2.3950 -0.4374
  811MOL0     H 7043   0.375   2.834  11.655  1.9460 -0.1480  0.6092
  811MOL0     H 7044   0.388   3.121  11.736  1.6424  0.3896 -1.1223
  811MOL0     H 7045   0.236   3.044  11.695 -0.9189 -0.5976  1.8741
  811MOL0     H 7046   0.390   2.923  11.919 -0.1922 -0.3337  1.3308
  811MOL0     H 7047   0.218   2.910  11.887  0.7231 -0.1969 -0.6477
  811MOL0     H 7048   0.276   3.051  12.091  2.3632  0.9990  0.6393
  811MOL0     H 7049   0.372   3.161  12.006  0.1541 -0.5896  1.7532
  811MOL0     H 7050   0.013   3.284  11.828 -0.7417 -0.3256  0.1389
  811MOL0     H 7051   0.545   3.183  11.403  1.9658  2.1056  2.8672
  811MOL0     H 7052   0.763   3.167  11.261 -0.2646 -2.3529 -3.9496
  812MOL0     O 7053   4.795   4.049   7.245  0.1838 -0.3162  0.7352
  812MOL0     C 7054   4.845   4.090   7.142 -0.6166  0.8234 -0.2075
  812MOL0     O 7055   4.949   4.186   7.135  0.5818  0.4405 -0.0332
  812MOL0     C 7056   4.970   4.270   7.236  1.6711 -0.2534  0.2101
  812MOL0     C 7057   5.096   4.266   7.303  0.9690  0.0080 -0.0098
  812MOL0     C 7058   5.127   4.362   7.399 -0.4723 -0.0269 -0.5826
  812MOL0     C 7059   5.030   4.452   7.451  0.6754  0.4226  0.2922
  812MOL0     O 7060   5.071   4.535   7.550  1.3675 -0.3470 -0.7611
  812MOL0     C 7061   4.978   4.551   7.661  1.0622  0.4473  1.1081
  812MOL0     C 7062   4.985   4.423   7.746  0.9928 -0.0751 -0.6250
  812MOL0     C 7063   4.901   4.407   7.877 -0.3197  0.1653 -0.3203
  812MOL0     C 7064   4.752   4.423   7.857 -0.3391 -0.4832  0.0239
  812MOL0     C 7065   4.672   4.326   7.942 -0.4440  0.3324 -0.2100
  812MOL0     C 7066   4.684   4.349   8.097  0.6830 -0.9058  0.5952
  812MOL0     C 7067   4.631   4.482   8.153  0.9268  0.1168 -0.6770
  812MOL0     C 7068   4.482   4.479   8.172  0.7364  0.7077 -0.1240
  812MOL0     N 7069   4.438   4.585   8.268 -0.1234  0.4152 -0.2667
  812MOL0     C 7070   4.477   4.717   8.251 -0.3240  0.5788  0.1753
  812MOL0     C 7071   4.436   4.773   8.364  0.5671  0.5186 -0.0507
  812MOL0     C 7072   4.446   4.913   8.411 -0.5733 -0.5009 -0.4274
  812MOL0     C 7073   4.450   5.024   8.298 -0.3292  0.0935 -0.1979
  812MOL0     C 7074   4.308   5.073   8.242 -1.5742  0.0629  0.7447
  812MOL0     C 7075   4.315   5.218   8.186  0.0615 -0.7387  0.1685
  812MOL0     O 7076   4.422   5.225   8.077 -0.3709 -0.2902  0.6776
  812MOL0     C 7077   4.388   5.161   7.957  0.2971 -0.6889 -0.5549
  812MOL0     C 7078   4.490   5.157   7.863  0.8237  0.1358  0.5841
  812MOL0     C 7079   4.466   5.112   7.736  0.7643  0.3317 -0.6072
  812MOL0     C 7080   4.336   5.081   7.690 -0.0144  0.0862  0.3415
  812MOL0     C 7081   4.303   5.084   7.543  0.1486 -0.0947  0.9988
  812MOL0     O 7082   4.166   5.097   7.509 -0.1656 -0.2877  0.1869
  812MOL0     C 7083   4.124   5.110   7.383 -0.0754  0.1720  0.6366
  812MOL0     C 7084   4.023   5.210   7.351  0.6386  0.1196  0.1783
  812MOL0     C 7085   3.978   5.241   7.226 -0.6595 -0.0607 -0.8251
  812MOL0     C 7086   4.057   5.175   7.120  0.6496 -0.7714 -0.4701
  812MOL0     O 7087   4.035   5.225   6.995  0.5434  0.1789  0.5817
  812MOL0     C 7088   4.153   5.240   6.910 -0.3898  0.7159  0.5408
  812MOL0     C 7089   4.109   5.327   6.790 -0.9408 -0.9469  0.2102
  812MOL0     C 7090   4.059   5.248   6.671  0.1855  0.9240  0.4121
  812MOL0     C 7091   3.997   5.332   6.561  0.2105 -0.6047  0.0476
  812MOL0     C 7092   3.905   5.236   6.481  0.1864 -0.8790  0.2067
  812MOL0     C 7093   3.983   5.122   6.404  0.1359 -0.0629  0.1733
  812MOL0     C 7094   4.084   5.167   6.305  0.2035 -0.0051 -0.9351
  812MOL0     C 7095   4.134   5.058   6.214 -0.7522  0.4356 -0.7472
  812MOL0    Cl 7096   4.023   5.050   6.071  0.0501  0.7765 -0.0073
  812MOL0     C 7097   4.154   5.077   7.142 -0.2113  0.5666  1.0722
  812MOL0     C 7098   4.183   5.041   7.274 -0.2207  0.0421 -0.5355
  812MOL0     O 7099   4.400   5.080   7.464 -0.7897 -0.4040 -0.9824
  812MOL0     C 7100   4.231   5.078   7.785  0.4581  0.2336 -0.3951
  812MOL0     C 7101   4.259   5.125   7.917  0.2736  0.7534  0.1090
  812MOL0     N 7102   4.375   4.685   8.447 -0.4899  1.0925  0.0436
  812MOL0     N 7103   4.379   4.565   8.390 -0.0793 -1.1497  0.0999
  812MOL0     C 7104   4.903   4.461   7.386  0.5404  0.1647  0.6708
  812MOL0     C 7105   4.884   4.367   7.279  0.3579 -0.4397 -0.0651
  812MOL0     C 7106   4.799   4.027   7.012 -0.3251  0.3587 -0.2544
  812MOL0     C 7107   4.884   4.012   6.897  0.5615 -0.3654 -0.9847
  812MOL0     C 7108   4.835   3.969   6.775  1.0892  0.5517 -0.0109
  812MOL0     C 7109   4.701   3.938   6.759  0.1629 -0.5213  0.8688
  812MOL0     O 7110   4.639   3.907   6.640  0.0585  0.1945  0.5270
  812MOL0     C 7111   4.711   3.956   6.524 -0.6080  0.8693 -0.0853
  812MOL0     C 7112   4.809   3.856   6.463  0.4596  0.0862 -0.5270
  812MOL0     C 7113   4.895   3.926   6.370 -0.1892 -0.2480  0.9839
  812MOL0     C 7114   4.992   3.836   6.296 -0.0582  0.2105  0.5170
  812MOL0     C 7115   4.922   3.724   6.230 -0.0247 -0.4823  0.8732
  812MOL0     C 7116   4.860   3.644   6.166  0.7057 -0.2887 -0.1259
  812MOL0     C 7117   4.624   3.938   6.869 -0.4140 -0.7159 -0.5611
  812MOL0     C 7118   4.669   3.979   7.001  0.5783  0.0931  0.4080
  812MOL0     H 7119   5.167   4.186   7.282 -1.4122 -2.5162  0.9931
  812MOL0     H 7120   5.222   4.377   7.448 -0.6925  1.0713 -0.4738
  812MOL0     H 7121   4.877   4.557   7.619  2.5220 -1.9189 -3.4077
  812MOL0     H 7122   5.011   4.631   7.727 -0.4521  0.5879  1.7271
  812MOL0     H 7123   5.086   4.399   7.781  0.5653 -1.0150  0.0335
  812MOL0     H 7124   4.951   4.338   7.685 -1.0293 -0.5870  1.1031
  812MOL0     H 7125   4.941   4.466   7.961  2.3349  0.6388 -1.7881
  812MOL0     H 7126   4.925   4.308   7.917 -0.3448  0.3169  0.0803
  812MOL0     H 7127   4.714   4.524   7.877  2.2985  0.5741  0.1547
  812MOL0     H 7128   4.742   4.397   7.751 -1.0248 -2.5382  0.5552
  812MOL0     H 7129   4.688   4.220   7.920 -5.5783 -0.4133 -1.6504
  812MOL0     H 7130   4.572   4.351   7.906 -1.0451 -2.9316 -1.0624
  812MOL0     H 7131   4.790   4.347   8.123  0.8811  0.1511 -0.0892
  812MOL0     H 7132   4.618   4.278   8.149 -2.6157  1.3965 -0.1278
  812MOL0     H 7133   4.687   4.493   8.246 -1.3039 -2.4188  1.1041
  812MOL0     H 7134   4.664   4.561   8.085  1.4288 -0.7459 -1.4716
  812MOL0     H 7135   4.433   4.386   8.201  1.1351  0.0522 -1.4978
  812MOL0     H 7136   4.439   4.511   8.077 -0.3119 -2.4107 -0.8061
  812MOL0     H 7137   4.529   4.761   8.166 -0.8885  0.5473 -0.1867
  812MOL0     H 7138   4.539   4.915   8.468 -1.2652 -1.1652  0.7829
  812MOL0     H 7139   4.368   4.936   8.485 -1.4966  2.2652 -2.0910
  812MOL0     H 7140   4.515   4.999   8.214  0.1901 -0.8936  0.4837
  812MOL0     H 7141   4.503   5.107   8.345  2.9128 -1.7612 -0.2935
  812MOL0     H 7142   4.287   5.008   8.156 -0.5961 -1.0570  1.3189
  812MOL0     H 7143   4.238   5.064   8.326 -0.5823  1.9994  1.8434
  812MOL0     H 7144   4.345   5.272   8.276  0.7151 -4.6670  2.5438
  812MOL0     H 7145   4.220   5.262   8.154  0.4664  3.1937  3.5439
  812MOL0     H 7146   4.592   5.170   7.898 -0.3658  2.7254  3.6311
  812MOL0     H 7147   4.549   5.091   7.670  0.7347  3.4363 -1.7864
  812MOL0     H 7148   3.954   5.255   7.421 -0.4794 -0.1726 -0.7241
  812MOL0     H 7149   3.890   5.296   7.192  0.2391  0.9159 -1.6409
  812MOL0     H 7150   4.198   5.149   6.868 -1.5570 -0.4945  1.7873
  812MOL0     H 7151   4.231   5.295   6.962  1.4099 -2.3719  1.4108
  812MOL0     H 7152   4.199   5.381   6.761 -1.9437  0.1553 -0.9268
  812MOL0     H 7153   4.023   5.385   6.825 -0.2196  0.8410 -0.8611
  812MOL0     H 7154   3.996   5.163   6.698 -0.4966  0.6649 -1.8358
  812MOL0     H 7155   4.152   5.206   6.633  0.3246  1.6065 -0.0235
  812MOL0     H 7156   3.945   5.417   6.607 -1.3998 -1.1768 -0.6602
  812MOL0     H 7157   4.076   5.376   6.499 -1.1176 -0.0178 -1.2736
  812MOL0     H 7158   3.846   5.303   6.417  0.3020 -0.2764  0.7203
  812MOL0     H 7159   3.840   5.185   6.553  0.3875  0.7523  1.6121
  812MOL0     H 7160   3.905   5.067   6.351  1.7121  2.1960 -5.2229
  812MOL0     H 7161   4.043   5.065   6.475 -1.6080  0.6610  2.3412
  812MOL0     H 7162   4.053   5.257   6.252 -0.5741 -0.1106 -0.6714
  812MOL0     H 7163   4.166   5.205   6.366  0.5711  0.0090 -1.4328
  812MOL0     H 7164   4.160   4.969   6.271 -0.2826  1.5170  0.7862
  812MOL0     H 7165   4.236   5.083   6.185 -0.1114 -0.8994  0.2471
  812MOL0     H 7166   4.204   5.025   7.061 -1.5790  1.7373 -0.5918
  812MOL0     H 7167   4.256   4.965   7.298 -0.2844  0.8751  2.6709
  812MOL0     H 7168   4.131   5.053   7.749  0.1316  1.1901 -0.1662
  812MOL0     H 7169   4.174   5.131   7.985  1.1208  3.3804  1.0677
  812MOL0     H 7170   4.824   4.530   7.411  0.2620 -0.1161  0.5647
  812MOL0     H 7171   4.800   4.366   7.211 -1.1277 -0.2235  1.6979
  812MOL0     H 7172   4.985   4.051   6.903  0.2970  1.1065 -3.9141
  812MOL0     H 7173   4.912   3.958   6.699  0.5994  3.2782 -1.0103
  812MOL0     H 7174   4.766   4.047   6.550  0.7148 -0.9435  4.3617
  812MOL0     H 7175   4.640   3.978   6.444 -1.6640  0.3720  0.7003
  812MOL0     H 7176   4.864   3.810   6.545 -1.0788  2.5324  2.0623
  812MOL0     H 7177   4.748   3.779   6.416  0.1161  0.1025 -0.1159
  812MOL0     H 7178   4.949   4.014   6.404 -2.0048  1.2698  0.1474
  812MOL0     H 7179   4.826   3.968   6.297 -1.4404 -1.9643  1.1012
  812MOL0     H 7180   5.053   3.891   6.223 -2.0320  3.2192  0.9523
  812MOL0     H 7181   5.053   3.796   6.378  1.3165  1.9592  0.4378
  812MOL0     H 7182   4.808   3.569   6.110 -2.5393  1.5615  0.2062
  812MOL0     H 7183   4.518   3.914   6.867 -0.7430  0.4138  1.2739
  812MOL0     H 7184   4.612   3.990   7.093  3.1674 -0.7838  2.2675
  813MOL0     O 7185   5.156   3.894   1.371  0.3804  0.0514 -0.5288
  813MOL0     C 7186   5.158   3.935   1.254 -0.8022  0.6768  0.0090
  813MOL0     O 7187   5.264   4.008   1.208 -0.2644 -0.1170  0.6049
  813MOL0     C 7188   5.377   4.014   1.283  0.9518 -0.6236  0.1918
  813MOL0     C 7189   5.447   3.901   1.294 -0.0782 -1.1210  0.2256
  813MOL0     C 7190   5.575   3.908   1.341 -0.8547 -0.5697 -0.0655
  813MOL0     C 7191   5.628   4.029   1.395  0.2056  0.4742 -0.2220
  813MOL0     O 7192   5.752   4.024   1.460 -0.6588 -0.2539 -0.9135
  813MOL0     C 7193   5.832   4.143   1.461  0.7871 -0.4330  0.9769
  813MOL0     C 7194   5.968   4.128   1.521 -0.5335 -0.3607 -0.7908
  813MOL0     C 7195   6.050   4.253   1.481 -0.4595  0.4740 -0.4594
  813MOL0     C 7196   6.189   4.255   1.546 -1.0156 -0.3129  1.1259
  813MOL0     C 7197   6.194   4.229   1.692  0.0105  0.0491  0.5065
  813MOL0     C 7198   6.143   4.350   1.762 -0.6229 -0.2899 -0.6972
  813MOL0     C 7199   6.149   4.344   1.918  0.1142  0.1936 -0.0461
  813MOL0     C 7200   6.131   4.486   1.984  0.2537 -0.4169  0.4014
  813MOL0     N 7201   6.261   4.559   1.997 -0.2158  1.5626 -0.0089
  813MOL0     C 7202   6.297   4.656   1.914  0.4196  0.5981  0.0836
  813MOL0     C 7203   6.370   4.745   1.982  0.1216  0.0347 -0.2116
  813MOL0     C 7204   6.465   4.828   1.909 -0.4801  0.3086  0.2505
  813MOL0     C 7205   6.391   4.944   1.850  0.2097 -0.8757  0.6916
  813MOL0     C 7206   6.497   5.045   1.803  0.0573 -0.4912 -0.3127
  813MOL0     C 7207   6.444   5.159   1.726 -0.3096 -0.7129  0.4108
  813MOL0     O 7208   6.551   5.255   1.689 -0.2958 -0.0693 -0.4402
  813MOL0     C 7209   6.521   5.384   1.647 -0.4438  1.6335  0.7905
  813MOL0     C 7210   6.617   5.485   1.663 -0.1247  0.2493  0.3556
  813MOL0     C 7211   6.583   5.609   1.619 -0.0100 -0.3105  0.7766
  813MOL0     C 7212   6.466   5.634   1.551  0.0411  0.4534 -0.7527
  813MOL0     C 7213   6.431   5.765   1.494  0.0501 -0.9084 -0.9500
  813MOL0     O 7214   6.297   5.789   1.472 -0.6142 -0.7437  0.4012
  813MOL0     C 7215   6.248   5.887   1.397 -0.6436  0.2482  0.5481
  813MOL0     C 7216   6.315   6.002   1.361 -0.6213 -0.4210  0.7072
  813MOL0     C 7217   6.249   6.086   1.267 -0.3208  0.1470 -0.4949
  813MOL0     C 7218   6.119   6.059   1.225 -0.4723  0.0864 -0.6280
  813MOL0     O 7219   6.044   6.155   1.155 -0.0436  0.3647 -0.3208
  813MOL0     C 7220   6.111   6.282   1.121  0.2862 -0.2357 -0.1953
  813MOL0     C 7221   6.039   6.354   1.008 -0.6037 -0.1484 -0.5642
  813MOL0     C 7222   6.016   6.246   0.897  0.2943  0.0417  0.2333
  813MOL0     C 7223   6.005   6.302   0.758  0.4061  1.0278  0.0264
  813MOL0     C 7224   5.953   6.211   0.646 -0.1241 -0.7382 -0.0036
  813MOL0     C 7225   6.023   6.076   0.634 -0.4491  1.1000 -0.1887
  813MOL0     C 7226   5.968   5.993   0.517  0.3696 -0.2513  0.2857
  813MOL0     C 7227   5.868   5.883   0.565 -0.0383 -0.5486 -0.6220
  813MOL0    Cl 7228   5.758   5.808   0.442 -0.0113 -0.0981  0.1470
  813MOL0     C 7229   6.050   5.952   1.266  0.3634  0.2543 -0.1391
  813MOL0     C 7230   6.126   5.857   1.347  0.0790 -0.2701 -0.7921
  813MOL0     O 7231   6.521   5.850   1.485  1.1170  0.0199 -0.2588
  813MOL0     C 7232   6.372   5.532   1.550 -0.4781 -0.5136  0.2684
  813MOL0     C 7233   6.398   5.408   1.597 -0.6343  0.0535 -0.5874
  813MOL0     N 7234   6.385   4.686   2.111 -0.0614 -0.0574 -0.1464
  813MOL0     N 7235   6.315   4.582   2.126 -0.3927  0.6530  0.5649
  813MOL0     C 7236   5.548   4.146   1.385  0.5755 -0.9881  0.9081
  813MOL0     C 7237   5.420   4.139   1.332 -0.0880 -0.0643 -0.8231
  813MOL0     C 7238   5.036   3.923   1.166  0.8002  0.0853  0.2301
  813MOL0     C 7239   4.906   3.884   1.215 -0.1251 -1.2806 -0.4504
  813MOL0     C 7240   4.795   3.889   1.130 -0.2859  0.2336 -0.9485
  813MOL0     C 7241   4.810   3.917   0.998  1.0521 -0.1091  1.2854
  813MOL0     O 7242   4.711   3.927   0.900 -0.7800  0.6366  0.1488
  813MOL0     C 7243   4.618   3.820   0.898  0.7598  0.6510 -0.1166
  813MOL0     C 7244   4.470   3.867   0.889 -0.3885  0.2568  0.3503
  813MOL0     C 7245   4.384   3.748   0.839  0.4367 -0.8566  0.1696
  813MOL0     C 7246   4.246   3.808   0.794 -0.5734  0.0213 -0.5899
  813MOL0     C 7247   4.157   3.699   0.749 -0.3158 -0.3060  0.5624
  813MOL0     C 7248   4.088   3.605   0.716  0.5272  0.3669 -0.1128
  813MOL0     C 7249   4.936   3.952   0.946  0.3061  0.5430  0.2919
  813MOL0     C 7250   5.036   3.978   1.040 -0.4680  0.7053  0.1399
  813MOL0     H 7251   5.401   3.813   1.252 -1.6599  0.8262 -2.3960
  813MOL0     H 7252   5.647   3.827   1.334  0.5845  0.8360 -3.8498
  813MOL0     H 7253   5.779   4.220   1.518 -0.3353 -0.3526 -0.1274
  813MOL0     H 7254   5.832   4.171   1.355 -0.0670 -4.6958 -0.3154
  813MOL0     H 7255   6.013   4.033   1.489 -3.6296 -2.9456  1.6961
  813MOL0     H 7256   5.948   4.129   1.629 -2.9842 -0.0431 -1.1836
  813MOL0     H 7257   5.991   4.338   1.518 -2.3258 -1.2260  0.6436
  813MOL0     H 7258   6.065   4.247   1.372  4.2032  0.1866  0.0028
  813MOL0     H 7259   6.240   4.165   1.510 -3.4144 -2.4778  2.7143
  813MOL0     H 7260   6.228   4.354   1.521 -3.5304 -0.2207 -3.5971
  813MOL0     H 7261   6.296   4.195   1.717 -0.5377 -1.7493  0.4754
  813MOL0     H 7262   6.137   4.140   1.723 -0.4465 -0.1032 -0.7211
  813MOL0     H 7263   6.038   4.359   1.732 -1.1867 -2.0240  0.6273
  813MOL0     H 7264   6.195   4.443   1.737 -3.4650  1.8048  0.5571
  813MOL0     H 7265   6.070   4.280   1.959  1.6681 -3.0142 -1.6356
  813MOL0     H 7266   6.245   4.303   1.948  2.0952  1.1246 -4.3199
  813MOL0     H 7267   6.093   4.474   2.086  1.8160 -2.2289  0.8302
  813MOL0     H 7268   6.057   4.539   1.925 -0.4494 -3.5921 -1.8190
  813MOL0     H 7269   6.271   4.665   1.809 -1.1718 -0.7730  0.3051
  813MOL0     H 7270   6.503   4.763   1.829 -1.7688  0.1208 -0.2404
  813MOL0     H 7271   6.542   4.853   1.982 -0.3799 -1.9604  1.0208
  813MOL0     H 7272   6.324   4.988   1.925  1.4480  2.1148  0.1815
  813MOL0     H 7273   6.338   4.900   1.766  0.2576 -0.4740  0.4468
  813MOL0     H 7274   6.559   5.088   1.882  1.7008 -0.8074 -1.3541
  813MOL0     H 7275   6.570   4.989   1.742  1.9141  2.0345 -0.5698
  813MOL0     H 7276   6.365   5.206   1.787 -0.9788  1.0327 -1.6844
  813MOL0     H 7277   6.392   5.114   1.641  1.2055 -0.1051 -0.8835
  813MOL0     H 7278   6.711   5.456   1.707  1.0149  0.2307 -1.9302
  813MOL0     H 7279   6.665   5.679   1.619  0.3818 -0.7623  1.0675
  813MOL0     H 7280   6.413   6.022   1.402  1.5515 -1.6958 -3.2858
  813MOL0     H 7281   6.298   6.178   1.236 -0.8237  0.7283  0.3977
  813MOL0     H 7282   6.201   6.249   1.068  0.6962  2.4004 -1.2611
  813MOL0     H 7283   6.126   6.351   1.204 -2.1271 -1.1267  1.0753
  813MOL0     H 7284   6.102   6.438   0.978 -1.2850 -0.5809 -3.5787
  813MOL0     H 7285   5.943   6.383   1.051  0.0849  0.4519  0.6124
  813MOL0     H 7286   5.929   6.185   0.920  1.8401 -2.7055 -0.6954
  813MOL0     H 7287   6.102   6.178   0.892  2.1274  2.2015  0.7393
  813MOL0     H 7288   5.927   6.378   0.769 -1.3219 -0.5501 -0.6429
  813MOL0     H 7289   6.092   6.359   0.725  0.7450  2.0668  2.5417
  813MOL0     H 7290   5.958   6.258   0.548 -1.3606 -0.5691 -0.0042
  813MOL0     H 7291   5.851   6.192   0.682 -0.3111  0.5452  0.1936
  813MOL0     H 7292   5.988   6.020   0.721 -1.7293  0.2283 -1.2266
  813MOL0     H 7293   6.131   6.084   0.646 -0.6835  2.3607  1.4754
  813MOL0     H 7294   5.918   6.061   0.447  0.6047  1.5325  1.7909
  813MOL0     H 7295   6.055   5.948   0.468 -1.4096 -3.6099 -0.1214
  813MOL0     H 7296   5.798   5.919   0.640 -0.4913 -0.2676 -1.1707
  813MOL0     H 7297   5.934   5.809   0.612  0.0910 -1.3962 -2.0791
  813MOL0     H 7298   5.947   5.933   1.236  0.1881  1.6636 -0.4889
  813MOL0     H 7299   6.071   5.770   1.379  1.4051 -0.3613  1.4114
  813MOL0     H 7300   6.275   5.548   1.505 -0.3249  1.1798  0.4667
  813MOL0     H 7301   6.313   5.342   1.587 -1.8938  1.5345 -0.1379
  813MOL0     H 7302   5.599   4.237   1.415  1.8780 -1.5633  0.4756
  813MOL0     H 7303   5.385   4.241   1.318 -0.9405 -0.1782  0.3231
  813MOL0     H 7304   4.901   3.860   1.321  0.5686  2.6222  0.6548
  813MOL0     H 7305   4.700   3.856   1.171  1.0285 -4.6894 -1.3149
  813MOL0     H 7306   4.639   3.748   0.977  2.0482  0.1684 -0.8680
  813MOL0     H 7307   4.640   3.750   0.817  0.7307  1.4740 -0.8552
  813MOL0     H 7308   4.433   3.909   0.983 -2.7856 -3.2250  1.1625
  813MOL0     H 7309   4.462   3.945   0.813  0.1852  1.7203  1.7206
  813MOL0     H 7310   4.373   3.671   0.916  1.0995  3.1495  4.7503
  813MOL0     H 7311   4.441   3.707   0.756  2.1170  1.8029 -0.1261
  813MOL0     H 7312   4.188   3.866   0.867 -0.2527  0.6900 -0.8634
  813MOL0     H 7313   4.264   3.881   0.715  4.4415  0.8765  1.0280
  813MOL0     H 7314   4.044   3.516   0.675  1.2234  1.0227 -2.3855
  813MOL0     H 7315   4.953   3.977   0.842  0.8894 -0.0801  0.2274
  813MOL0     H 7316   5.134   4.017   1.016 -0.1469  1.4298  2.4460
  814MOL0     O 7317   7.910   4.270   9.819  0.0046 -0.2610  0.2618
  814MOL0     C 7318   7.972   4.372   9.829  0.6624  0.7977  0.4485
  814MOL0     O 7319   7.979   4.474   9.729 -0.5792 -0.3757 -0.7775
  814MOL0     C 7320   7.889   4.468   9.622  0.4074 -0.3384 -0.9928
  814MOL0     C 7321   7.791   4.574   9.600 -0.0970 -0.0884  0.2809
  814MOL0     C 7322   7.701   4.560   9.496 -0.2006  0.4282 -0.1363
  814MOL0     C 7323   7.702   4.446   9.414 -0.3658 -0.1049 -0.2670
  814MOL0     O 7324   7.614   4.451   9.309 -0.2976 -0.2171 -0.2072
  814MOL0     C 7325   7.547   4.335   9.264  0.2860 -0.0390  0.8001
  814MOL0     C 7326   7.611   4.308   9.129  0.6668  0.1723 -0.7069
  814MOL0     C 7327   7.523   4.209   9.044  0.6894  0.7772  0.0222
  814MOL0     C 7328   7.596   4.196   8.914 -0.7349  0.3991  0.5760
  814MOL0     C 7329   7.493   4.160   8.804 -0.2404 -0.0499  0.4530
  814MOL0     C 7330   7.562   4.132   8.672 -0.7554 -0.0116  1.2477
  814MOL0     C 7331   7.473   4.078   8.567  0.1468  0.8051  0.2746
  814MOL0     C 7332   7.495   3.928   8.553  0.2963 -0.2655  0.3946
  814MOL0     N 7333   7.464   3.845   8.672 -0.1460 -0.5362 -1.1166
  814MOL0     C 7334   7.550   3.825   8.773  0.2733  1.4378 -0.6864
  814MOL0     C 7335   7.471   3.775   8.874 -0.3500  1.0728  0.7008
  814MOL0     C 7336   7.497   3.770   9.032 -0.0885  0.2495 -0.1957
  814MOL0     C 7337   7.648   3.795   9.067  0.1863 -0.3597 -0.2193
  814MOL0     C 7338   7.665   3.852   9.213 -0.7806  0.9721  0.3861
  814MOL0     C 7339   7.675   3.736   9.315 -0.1604  0.5956 -0.5651
  814MOL0     O 7340   7.811   3.679   9.330 -0.2125  0.1684  0.2040
  814MOL0     C 7341   7.920   3.744   9.387 -0.1069 -0.0884 -0.3751
  814MOL0     C 7342   7.911   3.864   9.456 -0.1423 -0.5006 -0.3027
  814MOL0     C 7343   8.028   3.918   9.516  0.6865 -0.6914  0.3921
  814MOL0     C 7344   8.146   3.849   9.525  0.2123 -0.2113 -0.0283
  814MOL0     C 7345   8.259   3.905   9.596 -0.0818 -0.4068  0.6595
  814MOL0     O 7346   8.252   4.034   9.648 -0.8305 -0.7675  0.4005
  814MOL0     C 7347   8.349   4.076   9.733 -0.6867 -0.7508 -0.0877
  814MOL0     C 7348   8.299   4.122   9.854 -0.6532  0.4035 -0.0564
  814MOL0     C 7349   8.393   4.155   9.952  0.4637  0.4247 -0.1071
  814MOL0     C 7350   8.529   4.170   9.926 -0.2137 -0.0007 -1.0840
  814MOL0     O 7351   8.614   4.206  10.036 -0.2417 -0.9767  0.0000
  814MOL0     C 7352   8.744   4.139  10.038  0.6504 -0.3963  0.1076
  814MOL0     C 7353   8.830   4.144  10.172  0.0739 -0.3964  0.0390
  814MOL0     C 7354   8.865   4.284  10.227  0.1612 -0.2234  0.0848
  814MOL0     C 7355   8.936   4.255  10.359 -0.2680 -0.2569  0.5340
  814MOL0     C 7356   9.011   4.373  10.417 -0.8613  0.8421 -0.7231
  814MOL0     C 7357   9.110   4.341  10.521 -0.1588  0.3868  0.6318
  814MOL0     C 7358   9.159   4.467  10.602  0.9068  0.3497  0.9168
  814MOL0     C 7359   9.310   4.498  10.583  0.3330 -0.3873  0.1369
  814MOL0    Cl 7360   9.419   4.354  10.621 -0.2597 -0.4674 -0.3441
  814MOL0     C 7361   8.579   4.146   9.791  0.2796 -0.5078  0.0420
  814MOL0     C 7362   8.489   4.093   9.698  0.7686  0.3934  0.6142
  814MOL0     O 7363   8.356   3.826   9.617 -0.1277  0.0665  0.4110
  814MOL0     C 7364   8.148   3.729   9.459 -0.2198 -0.7229 -0.0743
  814MOL0     C 7365   8.040   3.669   9.403 -0.0650  0.0250 -0.2192
  814MOL0     N 7366   7.339   3.766   8.832  0.4976  0.3322 -0.0108
  814MOL0     N 7367   7.344   3.804   8.708  0.0482 -0.5101  0.2926
  814MOL0     C 7368   7.797   4.345   9.429 -0.1162  0.4610 -0.3857
  814MOL0     C 7369   7.892   4.353   9.533 -0.4833 -1.0973  0.2763
  814MOL0     C 7370   8.043   4.387   9.951 -0.0055  1.0839  0.6046
  814MOL0     C 7371   8.152   4.476   9.956  0.0190 -0.1343 -0.0960
  814MOL0     C 7372   8.223   4.491  10.074  0.0259  0.1440  0.8966
  814MOL0     C 7373   8.188   4.413  10.188 -0.5668 -0.0120 -0.3193
  814MOL0     O 7374   8.285   4.416  10.290  0.0991 -0.0432  0.3385
  814MOL0     C 7375   8.272   4.344  10.420  1.0038  0.3310  0.4680
  814MOL0     C 7376   8.409   4.304  10.455  0.0737  0.3407 -0.4382
  814MOL0     C 7377   8.458   4.191  10.357  0.9991 -0.7944  0.0267
  814MOL0     C 7378   8.392   4.059  10.399 -0.3579  0.8986 -0.3938
  814MOL0     C 7379   8.426   3.973  10.295 -0.5410  0.3923 -0.9810
  814MOL0     C 7380   8.444   3.921  10.183 -0.7462 -0.1363 -0.6284
  814MOL0     C 7381   8.073   4.335  10.189  0.5118  0.8916 -0.1929
  814MOL0     C 7382   8.005   4.325  10.075  0.0767  0.9866  0.3593
  814MOL0     H 7383   7.811   4.670   9.645  3.1350 -1.4503  2.0924
  814MOL0     H 7384   7.633   4.639   9.467  2.1905  2.9829  0.8582
  814MOL0     H 7385   7.442   4.361   9.249  0.2473 -1.4134 -1.7315
  814MOL0     H 7386   7.548   4.248   9.330  2.9336 -3.2307 -2.9808
  814MOL0     H 7387   7.706   4.258   9.149  0.9951  2.1645  4.0123
  814MOL0     H 7388   7.633   4.401   9.076 -3.1313  2.0813  0.6288
  814MOL0     H 7389   7.423   4.249   9.025  0.2767 -0.3315 -0.2223
  814MOL0     H 7390   7.504   4.114   9.095 -3.0295 -0.4316 -3.1473
  814MOL0     H 7391   7.650   4.283   8.877  1.5373 -2.4658 -3.7191
  814MOL0     H 7392   7.675   4.121   8.909 -0.5663  0.6335 -0.6444
  814MOL0     H 7393   7.417   4.238   8.792 -1.6509 -1.2972  0.9101
  814MOL0     H 7394   7.433   4.073   8.833 -0.1596  0.2817  1.6962
  814MOL0     H 7395   7.661   4.086   8.670  0.8495  3.0383 -2.2408
  814MOL0     H 7396   7.584   4.236   8.646 -0.8332  0.0657  1.4841
  814MOL0     H 7397   7.369   4.104   8.591 -1.3522 -1.7507 -2.7242
  814MOL0     H 7398   7.510   4.118   8.472 -0.8884 -0.5498 -0.7413
  814MOL0     H 7399   7.599   3.899   8.534 -0.4655 -1.6059 -2.1730
  814MOL0     H 7400   7.431   3.907   8.467  0.1501  3.1401 -0.4466
  814MOL0     H 7401   7.655   3.850   8.781  0.5815 -0.1804  1.1507
  814MOL0     H 7402   7.460   3.679   9.080  1.5447  1.4084  3.6381
  814MOL0     H 7403   7.442   3.852   9.080  1.1178  0.4788  0.8526
  814MOL0     H 7404   7.682   3.872   8.997  2.4995  1.3754  2.6082
  814MOL0     H 7405   7.706   3.704   9.046  0.1407 -0.5528  0.4632
  814MOL0     H 7406   7.757   3.911   9.203 -1.0990  1.1445 -2.1960
  814MOL0     H 7407   7.583   3.920   9.238 -3.5506 -1.2309 -2.1168
  814MOL0     H 7408   7.617   3.645   9.297  0.5507 -0.7503  3.1020
  814MOL0     H 7409   7.624   3.760   9.408 -1.3507  2.0259 -1.5331
  814MOL0     H 7410   7.823   3.928   9.466 -0.2907 -0.4516 -1.6779
  814MOL0     H 7411   8.016   4.008   9.576 -0.3888  0.9118 -2.0447
  814MOL0     H 7412   8.195   4.113   9.883 -1.0081  0.0688 -1.3399
  814MOL0     H 7413   8.352   4.181  10.049  1.2001  1.7969 -0.1422
  814MOL0     H 7414   8.800   4.182   9.955 -0.2508 -2.3926 -1.6361
  814MOL0     H 7415   8.733   4.035  10.004  1.4556 -0.9753  1.5235
  814MOL0     H 7416   8.927   4.110  10.136  2.1256  4.8756 -0.3841
  814MOL0     H 7417   8.791   4.095  10.262  0.9798  3.3184  2.7159
  814MOL0     H 7418   8.780   4.348  10.252  2.0487  1.4544  2.7587
  814MOL0     H 7419   8.929   4.325  10.149  0.2361 -3.6013 -1.8157
  814MOL0     H 7420   8.869   4.202  10.428  0.4049  1.6343  2.7773
  814MOL0     H 7421   9.020   4.189  10.334  2.5390  3.0471  0.5632
  814MOL0     H 7422   8.939   4.427  10.478 -0.5740 -1.5888  1.9546
  814MOL0     H 7423   9.058   4.435  10.340  1.1770 -0.7899 -0.8892
  814MOL0     H 7424   9.203   4.298  10.481  0.6442  0.8831  1.8914
  814MOL0     H 7425   9.071   4.268  10.592 -0.4562  0.8834  0.9889
  814MOL0     H 7426   9.109   4.560  10.575  2.6506  0.3957 -2.8898
  814MOL0     H 7427   9.126   4.450  10.705  0.7039 -5.2616  0.2402
  814MOL0     H 7428   9.340   4.587  10.641  3.1121 -0.0295 -1.6859
  814MOL0     H 7429   9.330   4.532  10.481  3.7791 -0.3207  0.6939
  814MOL0     H 7430   8.683   4.159   9.764 -0.1418 -0.1284 -1.5571
  814MOL0     H 7431   8.533   4.076   9.600  1.3709  1.3964  0.6961
  814MOL0     H 7432   8.239   3.669   9.455  1.2830  1.4111  0.2661
  814MOL0     H 7433   8.034   3.568   9.362  0.7002 -1.0833  2.2416
  814MOL0     H 7434   7.798   4.265   9.356 -1.9148  1.6149 -1.7885
  814MOL0     H 7435   7.979   4.287   9.537 -0.3548 -0.9063  0.7287
  814MOL0     H 7436   8.170   4.534   9.866  0.0082 -1.4945 -1.0132
  814MOL0     H 7437   8.309   4.557  10.081  1.0049 -0.8488 -0.8998
  814MOL0     H 7438   8.198   4.264  10.427  2.3059 -0.9349  0.1514
  814MOL0     H 7439   8.233   4.415  10.494 -1.5453 -0.6966  0.2075
  814MOL0     H 7440   8.468   4.395  10.438  0.9057 -0.0668  0.1640
  814MOL0     H 7441   8.408   4.272  10.560  2.7499 -4.9830 -1.6936
  814MOL0     H 7442   8.567   4.186  10.358  1.1102 -0.2022 -2.4548
  814MOL0     H 7443   8.431   4.224  10.256 -0.4676 -1.4335  0.1807
  814MOL0     H 7444   8.415   4.043  10.504 -0.9227  0.2745 -0.3550
  814MOL0     H 7445   8.283   4.050  10.394 -0.4869 -0.9829  2.9807
  814MOL0     H 7446   8.471   3.862  10.098  0.3079 -0.0616 -0.3657
  814MOL0     H 7447   8.046   4.294  10.286  1.5888 -1.5816 -0.8356
  814MOL0     H 7448   7.917   4.260  10.078 -0.8431  2.1497 -0.3757
  815MOL0     O 7449   6.288   8.154   2.537 -0.1441 -0.1118  0.8698
  815MOL0     C 7450   6.218   8.257   2.536  0.3692 -1.1777 -0.1165
  815MOL0     O 7451   6.103   8.268   2.600 -1.1959 -0.3825  0.3088
  815MOL0     C 7452   6.039   8.165   2.666 -1.1716  0.2112  0.5614
  815MOL0     C 7453   6.048   8.137   2.798 -1.1953  0.1233  0.4024
  815MOL0     C 7454   5.999   8.031   2.873  0.4562 -0.1448 -0.2719
  815MOL0     C 7455   5.921   7.934   2.807  0.7328 -0.3878 -0.4730
  815MOL0     O 7456   5.888   7.815   2.869  0.0427  0.1145 -0.8656
  815MOL0     C 7457   5.953   7.689   2.830  0.7532  0.7384  0.1257
  815MOL0     C 7458   6.000   7.613   2.951 -0.0096 -0.5075 -0.2308
  815MOL0     C 7459   6.110   7.694   3.025  0.1869 -1.1472  0.0593
  815MOL0     C 7460   6.133   7.643   3.172  0.0870  0.0458 -1.0582
  815MOL0     C 7461   6.049   7.726   3.269  0.9374 -0.7284 -0.1723
  815MOL0     C 7462   6.055   7.684   3.422  0.6136 -0.1226 -0.7418
  815MOL0     C 7463   6.206   7.700   3.483 -0.5798  0.4600  0.2553
  815MOL0     C 7464   6.204   7.672   3.633  1.2102 -0.5186  0.1942
  815MOL0     N 7465   6.130   7.552   3.665 -0.0469  0.1625 -0.2780
  815MOL0     C 7466   6.002   7.551   3.728 -0.4952 -0.2977 -0.9980
  815MOL0     C 7467   5.991   7.420   3.764  1.0483 -0.2066 -0.2378
  815MOL0     C 7468   5.870   7.349   3.829 -0.4055 -0.4817  0.6156
  815MOL0     C 7469   5.866   7.370   3.978 -1.0257 -0.0109 -0.1925
  815MOL0     C 7470   5.749   7.307   4.055 -0.8703  1.1119 -0.1481
  815MOL0     C 7471   5.636   7.271   3.962  0.2708  0.2347  0.2404
  815MOL0     O 7472   5.582   7.386   3.917  0.0988 -0.4780 -0.3725
  815MOL0     C 7473   5.468   7.376   3.849  0.1619  0.6452 -1.0549
  815MOL0     C 7474   5.436   7.265   3.763 -1.0576  0.2126 -0.5484
  815MOL0     C 7475   5.318   7.259   3.694  0.9291 -0.0142  0.0341
  815MOL0     C 7476   5.215   7.353   3.725  1.0469  0.8004 -1.1856
  815MOL0     C 7477   5.090   7.348   3.656 -0.5522  0.6023  0.4374
  815MOL0     O 7478   5.064   7.220   3.605 -0.3900  0.3967 -1.5110
  815MOL0     C 7479   4.969   7.201   3.506 -0.0071 -0.8741  0.9642
  815MOL0     C 7480   5.006   7.116   3.398 -0.7923 -0.4238 -0.2998
  815MOL0     C 7481   4.907   7.077   3.307 -0.2236 -0.2404 -1.5462
  815MOL0     C 7482   4.774   7.113   3.321  0.3221 -0.1488 -0.2661
  815MOL0     O 7483   4.682   7.057   3.237 -0.5033 -0.4665 -0.8521
  815MOL0     C 7484   4.541   7.051   3.256  0.5197  0.2852  0.2242
  815MOL0     C 7485   4.472   6.968   3.146  0.3511 -0.4099 -0.6394
  815MOL0     C 7486   4.317   6.955   3.167  0.1211  0.2850 -0.2436
  815MOL0     C 7487   4.276   6.842   3.260  0.0156  0.7346 -0.6803
  815MOL0     C 7488   4.122   6.828   3.304  0.2809 -0.1987 -0.8511
  815MOL0     C 7489   4.107   6.726   3.413 -0.3880  0.2077  0.6289
  815MOL0     C 7490   4.168   6.584   3.397  0.1280 -0.3739 -1.0661
  815MOL0     C 7491   4.073   6.495   3.312 -1.0136 -0.1145  0.1659
  815MOL0    Cl 7492   3.917   6.450   3.400  0.2327  0.3480  0.2097
  815MOL0     C 7493   4.743   7.200   3.432  0.0448 -0.4496  0.6447
  815MOL0     C 7494   4.842   7.244   3.520 -0.7509  0.0319  0.3585
  815MOL0     O 7495   5.017   7.443   3.639 -1.1515  0.4136 -0.4401
  815MOL0     C 7496   5.248   7.465   3.804 -0.0122  0.3403 -0.1678
  815MOL0     C 7497   5.369   7.478   3.859 -0.2333 -0.8172 -0.5906
  815MOL0     N 7498   6.096   7.348   3.726  0.1107 -0.2969  0.0145
  815MOL0     N 7499   6.181   7.425   3.671  0.5369 -0.0314  0.0421
  815MOL0     C 7500   5.902   7.957   2.673  0.3939 -0.4229  0.2626
  815MOL0     C 7501   5.956   8.067   2.605 -0.5156 -0.1389  0.7729
  815MOL0     C 7502   6.278   8.381   2.482  0.4454 -1.4583  0.5545
  815MOL0     C 7503   6.394   8.372   2.405  0.4592 -0.2822 -0.0128
  815MOL0     C 7504   6.447   8.484   2.349 -0.6791  0.2598 -0.0931
  815MOL0     C 7505   6.382   8.614   2.350  0.8128 -0.2504 -0.1209
  815MOL0     O 7506   6.446   8.721   2.296  0.1465 -0.0913  0.5462
  815MOL0     C 7507   6.364   8.810   2.218  0.8701 -0.5015 -0.4872
  815MOL0     C 7508   6.422   8.946   2.229 -0.7984  0.3331  0.0101
  815MOL0     C 7509   6.319   9.035   2.164 -0.1495 -0.2885  0.8170
  815MOL0     C 7510   6.389   9.177   2.153 -0.1976 -0.1557 -0.0577
  815MOL0     C 7511   6.306   9.272   2.071  0.5868 -0.0555 -0.6091
  815MOL0     C 7512   6.236   9.340   2.004  0.6160  0.7811  0.6198
  815MOL0     C 7513   6.261   8.625   2.427  0.0999 -0.5139 -0.4310
  815MOL0     C 7514   6.214   8.511   2.490  0.6163 -0.2353 -0.3675
  815MOL0     H 7515   6.086   8.216   2.863  0.0062  0.7571 -1.0079
  815MOL0     H 7516   6.027   8.033   2.978  0.2647  0.8409 -0.2314
  815MOL0     H 7517   6.048   7.700   2.777  0.0193  2.0833 -1.0066
  815MOL0     H 7518   5.890   7.624   2.768  0.4490  0.1529  1.0338
  815MOL0     H 7519   6.044   7.518   2.920 -2.1790 -2.0121  1.0350
  815MOL0     H 7520   5.913   7.589   3.013 -0.4058 -4.1089 -1.9448
  815MOL0     H 7521   6.063   7.793   3.037  0.7590 -0.7433 -0.9348
  815MOL0     H 7522   6.208   7.706   2.979 -0.0732  0.6042 -0.1260
  815MOL0     H 7523   6.095   7.541   3.175  1.1700 -0.3801  2.0029
  815MOL0     H 7524   6.240   7.647   3.197  0.7092  1.1542 -3.5662
  815MOL0     H 7525   5.949   7.733   3.225  1.2201  3.7529 -0.5334
  815MOL0     H 7526   6.101   7.822   3.265 -1.9324  0.9329 -0.5126
  815MOL0     H 7527   6.025   7.579   3.431  3.7925 -1.2933 -2.2446
  815MOL0     H 7528   5.979   7.744   3.472 -0.7332 -0.3610 -2.4028
  815MOL0     H 7529   6.276   7.625   3.446 -0.4561  1.4059 -1.5193
  815MOL0     H 7530   6.240   7.802   3.465  1.0341  0.3367  2.2236
  815MOL0     H 7531   6.163   7.762   3.681 -0.5105 -2.2254  2.1402
  815MOL0     H 7532   6.308   7.656   3.664  1.0096 -0.9562  0.6557
  815MOL0     H 7533   5.933   7.632   3.748  1.1895  0.7618  0.8940
  815MOL0     H 7534   5.860   7.246   3.793 -2.2208  1.0121 -3.9374
  815MOL0     H 7535   5.784   7.401   3.786 -2.6568 -3.0414  1.6710
  815MOL0     H 7536   5.869   7.475   4.006  1.5283 -0.1906  0.4207
  815MOL0     H 7537   5.959   7.334   4.022 -1.0750 -0.9185 -0.8014
  815MOL0     H 7538   5.794   7.212   4.087  0.8561  1.7438 -0.6370
  815MOL0     H 7539   5.713   7.351   4.149 -0.9006  1.2834 -0.2396
  815MOL0     H 7540   5.557   7.226   4.022  0.2971  1.3704  1.1470
  815MOL0     H 7541   5.671   7.210   3.877 -0.9695 -2.0569  1.2660
  815MOL0     H 7542   5.497   7.180   3.737 -2.1664 -0.0263 -2.5471
  815MOL0     H 7543   5.298   7.170   3.637  0.3190  0.1414 -0.0005
  815MOL0     H 7544   5.105   7.073   3.386 -0.2675  1.3834 -4.4737
  815MOL0     H 7545   4.928   6.988   3.249 -3.4314 -3.2803  1.4364
  815MOL0     H 7546   4.502   7.153   3.253 -0.8071 -0.2021  0.4832
  815MOL0     H 7547   4.520   7.024   3.359 -0.3231  0.9711  0.2448
  815MOL0     H 7548   4.520   6.869   3.141  0.0387 -0.5302 -1.5032
  815MOL0     H 7549   4.487   7.026   3.054 -1.3862  4.3860  1.7810
  815MOL0     H 7550   4.281   6.926   3.068 -0.3447 -1.2456  0.3471
  815MOL0     H 7551   4.281   7.053   3.199 -1.9161 -0.9903  1.6858
  815MOL0     H 7552   4.296   6.746   3.213 -0.0486 -0.8648  2.3643
  815MOL0     H 7553   4.321   6.857   3.358 -0.1042  1.5233 -0.7358
  815MOL0     H 7554   4.040   6.796   3.239 -1.5968  2.4686  0.0576
  815MOL0     H 7555   4.096   6.930   3.335  1.1532 -0.3990  0.6084
  815MOL0     H 7556   4.001   6.714   3.437 -0.1668 -3.0518  0.4231
  815MOL0     H 7557   4.156   6.771   3.499  3.0757 -1.4179 -0.3389
  815MOL0     H 7558   4.268   6.590   3.351  1.0431 -0.0397  0.8682
  815MOL0     H 7559   4.175   6.529   3.491 -1.7697 -0.1948 -0.7830
  815MOL0     H 7560   4.140   6.413   3.281 -0.3191  2.1039 -5.4210
  815MOL0     H 7561   4.045   6.546   3.219  0.6089  2.5106  1.0242
  815MOL0     H 7562   4.642   7.231   3.460  0.1326 -2.4644  3.5098
  815MOL0     H 7563   4.807   7.300   3.606 -0.6473 -1.4327  1.4123
  815MOL0     H 7564   5.183   7.550   3.821  0.3416  0.5343  0.2486
  815MOL0     H 7565   5.386   7.566   3.920  0.5086 -1.2682 -0.1313
  815MOL0     H 7566   5.839   7.884   2.624 -3.2115  1.6023  1.4797
  815MOL0     H 7567   5.957   8.068   2.496  2.1344  1.3393  0.7382
  815MOL0     H 7568   6.448   8.278   2.410  0.9890 -0.0944 -1.5732
  815MOL0     H 7569   6.547   8.468   2.309 -0.8860 -1.0625 -0.1133
  815MOL0     H 7570   6.258   8.812   2.246  0.5582  1.5171 -1.6359
  815MOL0     H 7571   6.369   8.776   2.114  2.4555 -3.8802  0.5446
  815MOL0     H 7572   6.437   8.974   2.334  3.9529 -3.8578  0.7946
  815MOL0     H 7573   6.522   8.944   2.186 -1.4485  0.8580 -1.6273
  815MOL0     H 7574   6.226   9.041   2.221 -1.6402  0.3527 -1.5465
  815MOL0     H 7575   6.300   8.998   2.063  0.2409 -0.0780  0.6644
  815MOL0     H 7576   6.406   9.223   2.250  1.9008  1.7267 -1.2294
  815MOL0     H 7577   6.494   9.177   2.122  0.1486 -0.4698  1.0866
  815MOL0     H 7578   6.169   9.389   1.935 -1.5647 -1.4197  1.0596
  815MOL0     H 7579   6.202   8.715   2.436  0.2552 -0.6187  2.2480
  815MOL0     H 7580   6.131   8.528   2.558  0.4740  2.5610 -1.1258
  816MOL0     O 7581  10.512  11.218   1.805  0.1215 -0.0736  0.4402
  816MOL0     C 7582  10.404  11.225   1.857  0.3398  0.1846  0.5803
  816MOL0     O 7583  10.365  11.299   1.960  0.1532 -0.4908 -0.0359
  816MOL0     C 7584  10.458  11.391   2.012 -0.2945 -0.4444  0.2565
  816MOL0     C 7585  10.516  11.481   1.931 -0.4618  0.2797  0.3448
  816MOL0     C 7586  10.598  11.587   1.978 -0.5586 -0.9347  0.6114
  816MOL0     C 7587  10.634  11.594   2.115  0.7635 -1.2668 -0.0596
  816MOL0     O 7588  10.711  11.691   2.172  0.2011 -0.3471 -0.1064
  816MOL0     C 7589  10.745  11.800   2.089  0.1992  0.3947 -1.7253
  816MOL0     C 7590  10.824  11.901   2.183 -0.8426 -1.0105 -0.4544
  816MOL0     C 7591  10.849  12.042   2.110  0.6053 -0.2368  0.2353
  816MOL0     C 7592  10.825  12.153   2.211  0.6563  0.9402 -0.1023
  816MOL0     C 7593  10.863  12.288   2.144 -0.1974  0.2394  0.0291
  816MOL0     C 7594  10.949  12.355   2.258 -0.5878  0.3329  0.7313
  816MOL0     C 7595  10.994  12.490   2.206 -0.3805 -0.0158 -0.5740
  816MOL0     C 7596  11.085  12.561   2.301  0.6882  0.5800 -0.0931
  816MOL0     N 7597  11.143  12.685   2.247  0.8143  0.9108 -0.3708
  816MOL0     C 7598  11.100  12.811   2.234  0.8112 -0.4784 -0.0120
  816MOL0     C 7599  11.200  12.890   2.193 -0.3627 -0.9772  0.0212
  816MOL0     C 7600  11.179  13.039   2.173  0.1383 -0.4464 -0.3891
  816MOL0     C 7601  11.061  13.083   2.097 -0.5014  0.4435  0.6417
  816MOL0     C 7602  11.049  13.052   1.952  0.0149 -0.6092 -0.7822
  816MOL0     C 7603  10.932  13.121   1.870  0.0834 -1.2532 -0.4909
  816MOL0     O 7604  10.828  13.126   1.973 -0.3190 -0.2474  0.2269
  816MOL0     C 7605  10.722  13.213   1.943  0.3573  0.4117  1.8611
  816MOL0     C 7606  10.735  13.322   1.848 -0.4420  0.6898 -0.0590
  816MOL0     C 7607  10.624  13.402   1.810 -0.2233 -0.2923 -0.4791
  816MOL0     C 7608  10.495  13.385   1.855 -0.1673  0.1329  0.2714
  816MOL0     C 7609  10.376  13.463   1.811 -0.2512 -0.0226 -0.7182
  816MOL0     O 7610  10.390  13.544   1.708 -0.0981 -0.6686 -0.4986
  816MOL0     C 7611  10.315  13.667   1.710  0.8097  0.6298  0.1318
  816MOL0     C 7612  10.296  13.716   1.583  0.1429  0.2056  0.2415
  816MOL0     C 7613  10.212  13.826   1.555 -0.1855  0.5031 -0.8832
  816MOL0     C 7614  10.159  13.895   1.658 -0.5861  0.3593  0.4361
  816MOL0     O 7615  10.073  14.000   1.617  0.5960  1.0470 -0.0176
  816MOL0     C 7616  10.131  14.133   1.635 -0.3127 -0.0363 -0.2032
  816MOL0     C 7617  10.143  14.205   1.500 -1.0312  0.5851  0.4777
  816MOL0     C 7618  10.167  14.355   1.521 -0.2728 -0.6086 -0.6980
  816MOL0     C 7619  10.145  14.427   1.388 -0.2590 -0.8068 -0.1518
  816MOL0     C 7620  10.212  14.566   1.393  0.3284 -0.8836 -0.7711
  816MOL0     C 7621  10.146  14.657   1.294 -0.2690 -0.3678 -0.0679
  816MOL0     C 7622  10.157  14.814   1.319 -0.0598  0.7738  0.4485
  816MOL0     C 7623  10.299  14.869   1.297 -0.2682 -0.3929 -0.7855
  816MOL0    Cl 7624  10.353  14.826   1.131  1.0156  0.2060  0.2972
  816MOL0     C 7625  10.178  13.849   1.790  0.2388  0.1654 -0.3356
  816MOL0     C 7626  10.252  13.734   1.814 -0.9079  0.0584 -0.1683
  816MOL0     O 7627  10.268  13.448   1.874  0.2141 -0.7107 -0.5419
  816MOL0     C 7628  10.487  13.289   1.954  0.0818 -0.1389 -0.4667
  816MOL0     C 7629  10.595  13.199   2.000 -0.9206 -0.2834  0.1862
  816MOL0     N 7630  11.306  12.808   2.160 -0.5401 -0.3691  0.3966
  816MOL0     N 7631  11.269  12.689   2.206 -0.1281  0.7175  0.4840
  816MOL0     C 7632  10.569  11.508   2.203 -0.3258  0.0901  1.3391
  816MOL0     C 7633  10.476  11.405   2.154 -0.0958  0.1367 -0.0771
  816MOL0     C 7634  10.295  11.142   1.791  0.0844 -0.5522  0.3761
  816MOL0     C 7635  10.166  11.120   1.851  0.1029 -0.3980 -0.1013
  816MOL0     C 7636  10.060  11.050   1.779 -0.9979 -0.5345 -1.2767
  816MOL0     C 7637  10.091  10.992   1.660  1.2766 -0.1404 -0.1733
  816MOL0     O 7638   9.984  10.928   1.603  0.3005  0.0889 -0.8044
  816MOL0     C 7639   9.971  10.937   1.467 -0.0690 -0.5478  0.5097
  816MOL0     C 7640   9.845  10.871   1.412 -0.1061 -1.3373 -0.3316
  816MOL0     C 7641   9.803  10.951   1.284 -1.5965  0.2915 -0.1538
  816MOL0     C 7642   9.915  10.945   1.177 -0.8220  0.1588  0.2712
  816MOL0     C 7643   9.849  10.962   1.048  0.1463 -0.8965 -0.5565
  816MOL0     C 7644   9.809  10.987   0.938  1.1411  0.6387 -0.1553
  816MOL0     C 7645  10.219  11.003   1.606  0.1891 -0.7087  0.6833
  816MOL0     C 7646  10.314  11.085   1.663 -0.9574 -0.0622  0.1317
  816MOL0     H 7647  10.494  11.492   1.826  0.7663 -1.7453 -0.1814
  816MOL0     H 7648  10.636  11.664   1.911  0.1507  1.0776  3.1508
  816MOL0     H 7649  10.664  11.847   2.033  0.4369  0.9658 -1.6082
  816MOL0     H 7650  10.826  11.767   2.022  1.5837  1.5997 -0.7222
  816MOL0     H 7651  10.920  11.851   2.201 -0.9977 -1.3032 -0.4278
  816MOL0     H 7652  10.778  11.914   2.282 -3.5269 -2.2571 -1.4407
  816MOL0     H 7653  10.780  12.056   2.026  0.5154  1.4771  0.5463
  816MOL0     H 7654  10.953  12.042   2.077  1.2849 -4.9415  1.6425
  816MOL0     H 7655  10.725  12.160   2.256  1.1814 -1.5279  1.6657
  816MOL0     H 7656  10.889  12.123   2.294 -1.0556 -0.3893  0.8087
  816MOL0     H 7657  10.777  12.352   2.121  1.0502  1.2813 -2.0159
  816MOL0     H 7658  10.920  12.289   2.050  1.5616 -1.4417  0.9959
  816MOL0     H 7659  11.032  12.290   2.286  0.0337  0.5475 -0.5260
  816MOL0     H 7660  10.889  12.379   2.346  0.0258 -0.4384  1.3683
  816MOL0     H 7661  11.051  12.481   2.113 -0.1594  1.2239 -0.5697
  816MOL0     H 7662  10.907  12.553   2.183 -1.0429 -0.9259 -0.6386
  816MOL0     H 7663  11.167  12.496   2.332  0.9226  1.5686  1.4832
  816MOL0     H 7664  11.018  12.599   2.379  0.0021  2.3049 -1.4802
  816MOL0     H 7665  10.999  12.840   2.262  0.3167 -1.0578 -1.1217
  816MOL0     H 7666  11.270  13.085   2.133  1.4434 -1.4456  1.2612
  816MOL0     H 7667  11.178  13.087   2.272  3.6903 -0.5005 -0.1992
  816MOL0     H 7668  11.043  13.190   2.113  0.9649  0.6242  1.2752
  816MOL0     H 7669  10.977  13.034   2.146 -0.9731 -0.2950 -0.8720
  816MOL0     H 7670  11.139  13.078   1.897  1.0108 -1.5440  0.3512
  816MOL0     H 7671  11.028  12.945   1.944 -0.4014 -0.8245  1.9625
  816MOL0     H 7672  10.917  13.063   1.778  0.5258 -2.6549  0.2883
  816MOL0     H 7673  10.971  13.220   1.844 -1.9394 -0.7318 -1.7625
  816MOL0     H 7674  10.816  13.355   1.784 -2.6364  3.6615 -1.5201
  816MOL0     H 7675  10.642  13.475   1.731 -0.3979  2.5343  1.9092
  816MOL0     H 7676  10.332  13.646   1.507  1.3223 -0.2936  1.2277
  816MOL0     H 7677  10.195  13.860   1.454 -0.0973  0.5760 -0.8738
  816MOL0     H 7678  10.233  14.122   1.674  1.0833  2.9808 -2.6698
  816MOL0     H 7679  10.076  14.194   1.707  0.1959  1.8665 -1.3862
  816MOL0     H 7680  10.048  14.193   1.447 -1.2042  0.8566  0.7300
  816MOL0     H 7681  10.228  14.160   1.448 -1.1793 -0.5763  1.2147
  816MOL0     H 7682  10.266  14.375   1.563 -0.1060  0.2197 -1.4455
  816MOL0     H 7683  10.092  14.404   1.584  2.1462  1.0969  1.0146
  816MOL0     H 7684  10.192  14.368   1.309 -0.5258 -2.2349  0.7207
  816MOL0     H 7685  10.035  14.433   1.390 -0.3346  0.2629  4.9676
  816MOL0     H 7686  10.320  14.553   1.379  0.5629 -2.9855  2.1316
  816MOL0     H 7687  10.199  14.615   1.490  1.1530  0.0091 -1.0870
  816MOL0     H 7688  10.041  14.628   1.305 -0.1353 -2.6116 -3.2129
  816MOL0     H 7689  10.171  14.626   1.192  2.1353  3.3961 -0.8151
  816MOL0     H 7690  10.106  14.876   1.244  3.0240  0.1321 -2.4444
  816MOL0     H 7691  10.124  14.832   1.422 -4.5230 -1.2225 -0.3925
  816MOL0     H 7692  10.368  14.824   1.368 -0.4607  1.7526  0.8760
  816MOL0     H 7693  10.301  14.978   1.313 -0.3904 -0.3788 -0.8673
  816MOL0     H 7694  10.118  13.899   1.866 -1.6440  0.5194 -1.9570
  816MOL0     H 7695  10.245  13.714   1.920 -1.1652 -0.0139 -0.1982
  816MOL0     H 7696  10.399  13.290   2.017  1.0446  1.7140  0.9559
  816MOL0     H 7697  10.580  13.123   2.076 -1.3302 -1.2296 -0.7997
  816MOL0     H 7698  10.585  11.508   2.310 -2.7925 -3.5573  1.9015
  816MOL0     H 7699  10.427  11.338   2.224  1.5444  1.0180  2.0115
  816MOL0     H 7700  10.143  11.148   1.953  0.0691 -0.3582 -0.1202
  816MOL0     H 7701   9.962  11.049   1.825 -0.9224  0.1479 -1.0983
  816MOL0     H 7702  10.058  10.895   1.417 -1.3742 -2.6540 -0.1257
  816MOL0     H 7703   9.974  11.045   1.450  1.0770 -0.1600  2.7151
  816MOL0     H 7704   9.882  10.770   1.389  2.1238 -0.5794 -0.3569
  816MOL0     H 7705   9.773  10.877   1.493  1.6234 -1.6004  1.2932
  816MOL0     H 7706   9.787  11.058   1.298 -1.3887  0.6910 -2.5624
  816MOL0     H 7707   9.708  10.913   1.246 -0.1855  0.2266 -4.0601
  816MOL0     H 7708   9.992  11.022   1.188 -0.2869 -0.1920 -0.9173
  816MOL0     H 7709   9.968  10.850   1.165 -0.7583  0.2175  0.0883
  816MOL0     H 7710   9.766  11.021   0.846  0.0893 -2.0976 -0.7567
  816MOL0     H 7711  10.238  10.952   1.513 -2.3940 -1.7539  0.6357
  816MOL0     H 7712  10.408  11.101   1.611 -1.3919  0.0411 -0.6360
  817MOL0     O 7713   3.284   8.924   1.994  0.2492  0.6972 -0.1861
  817MOL0     C 7714   3.319   9.027   1.933  0.1345 -0.1054 -0.7066
  817MOL0     O 7715   3.251   9.096   1.843 -0.3500 -0.3214  0.1896
  817MOL0     C 7716   3.116   9.055   1.822  0.1418 -0.0493  0.1579
  817MOL0     C 7717   3.068   9.030   1.695 -0.0286 -0.5472  0.1088
  817MOL0     C 7718   2.933   8.993   1.674 -0.1135  0.4453  0.5676
  817MOL0     C 7719   2.847   8.980   1.783  0.5165 -0.1560  0.1789
  817MOL0     O 7720   2.718   8.941   1.753 -0.9069 -0.2124  0.3725
  817MOL0     C 7721   2.610   9.022   1.809 -0.1070  0.1395 -0.0189
  817MOL0     C 7722   2.539   8.953   1.917  0.3414  0.0382  0.2629
  817MOL0     C 7723   2.489   8.817   1.884  0.4529 -0.4584 -0.4461
  817MOL0     C 7724   2.449   8.716   1.998  0.3459 -0.4449 -0.6171
  817MOL0     C 7725   2.410   8.580   1.934  0.8931 -0.2260 -0.0272
  817MOL0     C 7726   2.368   8.482   2.044 -0.1727  0.6313  0.0868
  817MOL0     C 7727   2.312   8.350   1.989 -0.2610 -0.5310 -0.4028
  817MOL0     C 7728   2.288   8.244   2.106  0.2286 -0.5742 -0.6499
  817MOL0     N 7729   2.280   8.107   2.044  0.4528 -0.4217 -0.2126
  817MOL0     C 7730   2.317   7.986   2.100  0.2434 -0.4884  0.1174
  817MOL0     C 7731   2.294   7.887   2.003  0.1055 -0.2641 -0.4721
  817MOL0     C 7732   2.333   7.739   1.999  0.0619  0.0460  0.6513
  817MOL0     C 7733   2.364   7.692   2.138  0.5831  0.4712  0.3365
  817MOL0     C 7734   2.511   7.700   2.175  0.5015  0.1046  0.2653
  817MOL0     C 7735   2.541   7.660   2.318 -0.9535 -0.5137 -0.7320
  817MOL0     O 7736   2.440   7.694   2.415 -0.7441 -0.7277 -0.3677
  817MOL0     C 7737   2.480   7.670   2.548 -0.1913  0.0631  0.3375
  817MOL0     C 7738   2.444   7.769   2.639 -0.5963  0.2691 -0.3059
  817MOL0     C 7739   2.461   7.745   2.777  0.2275 -0.3961  0.5158
  817MOL0     C 7740   2.507   7.620   2.825  0.2294 -0.5363 -0.2037
  817MOL0     C 7741   2.499   7.592   2.976 -0.4279  0.1566  0.1827
  817MOL0     O 7742   2.529   7.463   3.014 -0.4318 -0.3331  0.3312
  817MOL0     C 7743   2.543   7.428   3.146 -0.0638 -0.0712 -0.5901
  817MOL0     C 7744   2.455   7.339   3.206 -0.0679  0.5690 -0.8154
  817MOL0     C 7745   2.467   7.295   3.343 -0.1414  0.9582 -0.7768
  817MOL0     C 7746   2.572   7.344   3.415  0.1283  0.1752 -0.2125
  817MOL0     O 7747   2.585   7.329   3.549 -0.6601 -0.7215 -0.1879
  817MOL0     C 7748   2.580   7.210   3.611  0.2498  0.3009 -1.2803
  817MOL0     C 7749   2.630   7.249   3.752  0.2865 -0.2530  0.3052
  817MOL0     C 7750   2.663   7.133   3.842  0.6700  0.4104 -0.4567
  817MOL0     C 7751   2.804   7.081   3.818 -0.4432  0.3868  0.8949
  817MOL0     C 7752   2.826   6.948   3.891  0.0118 -0.2921  0.8422
  817MOL0     C 7753   2.798   6.937   4.045  0.9077  0.5663 -1.0007
  817MOL0     C 7754   2.800   6.792   4.088  0.4786 -0.1545  0.4160
  817MOL0     C 7755   2.680   6.712   4.038 -0.0754 -0.8654 -1.7854
  817MOL0    Cl 7756   2.535   6.746   4.131 -0.1975 -0.1672  0.0975
  817MOL0     C 7757   2.665   7.422   3.356  0.0495 -0.7157 -0.2688
  817MOL0     C 7758   2.647   7.481   3.229  0.7342 -0.2159 -0.2352
  817MOL0     O 7759   2.479   7.690   3.052 -0.6952  0.2873  0.4004
  817MOL0     C 7760   2.540   7.526   2.720 -0.3421 -0.3079 -0.8544
  817MOL0     C 7761   2.528   7.552   2.581  0.1246  0.2221 -0.0266
  817MOL0     N 7762   2.230   7.954   1.899  0.7061  0.4636  0.6305
  817MOL0     N 7763   2.223   8.081   1.922 -0.2306 -0.2495 -0.2668
  817MOL0     C 7764   2.894   8.992   1.917 -0.2715  0.7833  0.0997
  817MOL0     C 7765   3.025   9.033   1.929  0.6437 -0.4520 -0.6272
  817MOL0     C 7766   3.459   9.079   1.957  0.6902  0.7986  0.1699
  817MOL0     C 7767   3.556   8.988   2.005  0.9824 -0.0631  0.4572
  817MOL0     C 7768   3.692   9.020   2.008  0.4617  0.9352 -0.2252
  817MOL0     C 7769   3.732   9.143   1.949  0.3889 -0.2597 -0.1293
  817MOL0     O 7770   3.855   9.194   1.949  0.2367 -0.1719 -0.1590
  817MOL0     C 7771   3.956   9.118   1.999  0.2180  0.4145  0.6979
  817MOL0     C 7772   4.090   9.190   1.998 -0.4410  0.2465 -0.6651
  817MOL0     C 7773   4.098   9.303   2.098 -0.1541 -0.2921 -0.0261
  817MOL0     C 7774   4.250   9.328   2.125  0.9301  0.6309 -1.1254
  817MOL0     C 7775   4.252   9.458   2.190 -0.0147  0.9466 -0.1671
  817MOL0     C 7776   4.264   9.557   2.253 -0.2233  0.1064 -0.7686
  817MOL0     C 7777   3.636   9.240   1.914  0.8464  0.3947  0.3714
  817MOL0     C 7778   3.505   9.209   1.918 -0.0953 -0.4415 -0.2605
  817MOL0     H 7779   3.148   9.042   1.623 -0.4951  0.3787 -0.2696
  817MOL0     H 7780   2.899   8.987   1.571  0.6123  3.1696  0.1100
  817MOL0     H 7781   2.533   9.037   1.734  0.2730  1.1169 -0.2294
  817MOL0     H 7782   2.657   9.115   1.843  1.7523 -1.1029  1.0059
  817MOL0     H 7783   2.458   9.015   1.957  2.1210  1.1357  2.4304
  817MOL0     H 7784   2.612   8.943   1.998  2.5538  1.4346 -1.4499
  817MOL0     H 7785   2.569   8.781   1.819  1.7163  0.7504  0.3706
  817MOL0     H 7786   2.413   8.833   1.808  1.8144 -1.9445 -2.2140
  817MOL0     H 7787   2.536   8.687   2.057 -1.3855 -3.0615  0.8468
  817MOL0     H 7788   2.372   8.758   2.064 -0.2775 -0.1096 -1.5303
  817MOL0     H 7789   2.491   8.547   1.869  2.1477  1.4311  0.6115
  817MOL0     H 7790   2.319   8.602   1.877  1.4530  1.4125 -0.3478
  817MOL0     H 7791   2.290   8.522   2.110 -2.3696 -0.9512 -1.4119
  817MOL0     H 7792   2.444   8.440   2.110  0.4852  1.0636 -0.3852
  817MOL0     H 7793   2.224   8.366   1.926 -0.3201 -1.3820 -0.5474
  817MOL0     H 7794   2.388   8.312   1.921  1.4328  2.5320 -0.4099
  817MOL0     H 7795   2.191   8.265   2.151  0.1129 -0.4240 -0.9687
  817MOL0     H 7796   2.373   8.240   2.176  0.4378 -4.8122 -0.8586
  817MOL0     H 7797   2.352   7.981   2.202  0.6011  4.9026  0.5634
  817MOL0     H 7798   2.418   7.730   1.931 -0.4660  1.3659 -0.2217
  817MOL0     H 7799   2.250   7.680   1.959  0.4304  1.1253 -1.8453
  817MOL0     H 7800   2.333   7.587   2.145  2.6432 -0.3330 -1.4530
  817MOL0     H 7801   2.303   7.749   2.208 -1.2332 -3.7112  2.5424
  817MOL0     H 7802   2.574   7.626   2.125  0.8137 -2.3909  3.9317
  817MOL0     H 7803   2.546   7.802   2.158  0.1067  0.3468  0.8438
  817MOL0     H 7804   2.644   7.688   2.338 -0.9471  3.0781 -4.3989
  817MOL0     H 7805   2.544   7.551   2.318  1.7964 -0.5219  0.6822
  817MOL0     H 7806   2.420   7.866   2.596 -1.4310  0.7702  1.2389
  817MOL0     H 7807   2.421   7.823   2.842  0.7010 -0.4671  0.9018
  817MOL0     H 7808   2.374   7.290   3.152  0.1755 -0.9358  0.1262
  817MOL0     H 7809   2.400   7.232   3.400  2.7890 -0.0187  1.8651
  817MOL0     H 7810   2.651   7.137   3.571  0.2679  0.5510 -1.7096
  817MOL0     H 7811   2.478   7.171   3.616  0.5241 -0.5311 -1.8904
  817MOL0     H 7812   2.553   7.313   3.796  0.9697  1.4869 -0.9159
  817MOL0     H 7813   2.723   7.306   3.753  1.6394 -2.3118  2.8881
  817MOL0     H 7814   2.588   7.055   3.828 -1.2842  2.1263 -0.1451
  817MOL0     H 7815   2.651   7.166   3.945 -2.1240  1.5486 -1.0615
  817MOL0     H 7816   2.813   7.052   3.713 -2.0259 -0.6964  1.0247
  817MOL0     H 7817   2.881   7.154   3.842 -0.4535  0.3896  0.9200
  817MOL0     H 7818   2.926   6.911   3.866 -0.8120 -1.6156 -0.6751
  817MOL0     H 7819   2.762   6.873   3.843 -0.0444  0.9144 -1.0852
  817MOL0     H 7820   2.697   6.974   4.067 -0.3786 -2.4398 -1.3551
  817MOL0     H 7821   2.870   7.001   4.096  1.4996  0.9546 -2.3012
  817MOL0     H 7822   2.891   6.751   4.043  0.4293  2.5533 -2.5238
  817MOL0     H 7823   2.807   6.794   4.197  2.9997  4.4231  0.4050
  817MOL0     H 7824   2.708   6.607   4.055  2.7259 -0.2500 -2.0672
  817MOL0     H 7825   2.660   6.741   3.935  0.6711  2.0622 -1.1946
  817MOL0     H 7826   2.733   7.476   3.422 -2.6477  0.6242  1.5651
  817MOL0     H 7827   2.704   7.565   3.190 -1.3741  0.4968 -1.9839
  817MOL0     H 7828   2.562   7.425   2.755 -1.9423  0.0369  1.3421
  817MOL0     H 7829   2.544   7.471   2.510 -3.1293 -0.1176 -0.5463
  817MOL0     H 7830   2.825   8.981   2.000 -0.0860  1.9679  0.4356
  817MOL0     H 7831   3.054   9.058   2.031 -3.2010 -0.0099  0.5005
  817MOL0     H 7832   3.530   8.884   2.022  1.4223 -0.6715 -2.1113
  817MOL0     H 7833   3.756   8.941   2.048  1.3249  0.9679 -1.4681
  817MOL0     H 7834   3.964   9.031   1.933 -1.0242  2.2179 -2.0045
  817MOL0     H 7835   3.939   9.095   2.105  1.2715  1.8603  1.2136
  817MOL0     H 7836   4.173   9.125   2.025 -1.1498 -0.0443  0.8829
  817MOL0     H 7837   4.117   9.217   1.895 -1.9197 -0.5065 -1.2930
  817MOL0     H 7838   4.033   9.286   2.184  0.4685  1.6942  0.8899
  817MOL0     H 7839   4.051   9.390   2.052 -0.6357  1.4249  3.3960
  817MOL0     H 7840   4.310   9.252   2.175 -1.7333 -1.0329 -0.2281
  817MOL0     H 7841   4.292   9.346   2.026  2.2189  0.4618 -0.6282
  817MOL0     H 7842   4.283   9.649   2.303  0.7623 -0.0051 -0.8979
  817MOL0     H 7843   3.669   9.332   1.866  2.7966 -1.7210 -2.7327
  817MOL0     H 7844   3.425   9.275   1.885  0.8518 -0.3915 -2.6912
  818MOL0     O 7845   4.720  10.612   6.153  0.4133 -0.7217  0.1331
  818MOL0     C 7846   4.599  10.589   6.130  0.0200  0.1337  0.2494
  818MOL0     O 7847   4.515  10.514   6.199 -1.1633 -0.4476  0.1110
  818MOL0     C 7848   4.580  10.419   6.280  0.2792 -0.2156 -0.3208
  818MOL0     C 7849   4.530  10.413   6.411  0.1729 -0.7192  0.3140
  818MOL0     C 7850   4.587  10.321   6.492 -2.0307 -0.0115  0.1178
  818MOL0     C 7851   4.696  10.237   6.448 -1.0865  0.5392 -0.5442
  818MOL0     O 7852   4.776  10.152   6.527 -0.2692  0.0657 -0.1537
  818MOL0     C 7853   4.758  10.182   6.667 -0.2813 -0.5750 -0.3905
  818MOL0     C 7854   4.872  10.113   6.747 -0.3417 -0.6881  0.4823
  818MOL0     C 7855   4.854   9.958   6.758  0.2904  0.1008 -0.6923
  818MOL0     C 7856   4.928   9.895   6.874  0.2580 -0.6695  0.4041
  818MOL0     C 7857   5.081   9.881   6.852 -0.3408  0.0023  0.1591
  818MOL0     C 7858   5.154   9.844   6.983  1.2539 -0.5496 -0.8060
  818MOL0     C 7859   5.099   9.705   7.042  0.9900  0.1304 -1.1230
  818MOL0     C 7860   5.176   9.634   7.154 -0.3266 -0.0683 -0.9709
  818MOL0     N 7861   5.209   9.722   7.272  0.8466 -0.3066 -0.3747
  818MOL0     C 7862   5.121   9.726   7.374 -0.0223 -0.0411 -0.3085
  818MOL0     C 7863   5.196   9.783   7.481  0.2435  1.5393  0.8563
  818MOL0     C 7864   5.130   9.799   7.609 -0.9684  0.2099  0.6708
  818MOL0     C 7865   5.008   9.889   7.602  1.2139  0.1255  0.0560
  818MOL0     C 7866   5.028  10.033   7.551  0.5428 -0.1171  0.0517
  818MOL0     C 7867   4.892  10.100   7.512  0.5191  0.4588  0.0105
  818MOL0     O 7868   4.779  10.091   7.593  0.4292 -0.5432 -0.1556
  818MOL0     C 7869   4.662  10.143   7.537 -0.9551  0.2279 -0.2199
  818MOL0     C 7870   4.648  10.208   7.412 -0.6844  0.0269  0.1368
  818MOL0     C 7871   4.521  10.244   7.376  0.1494 -0.2520 -0.3531
  818MOL0     C 7872   4.409  10.218   7.455  0.1935 -0.3907  1.3139
  818MOL0     C 7873   4.269  10.260   7.395 -0.1936  0.7734 -0.3073
  818MOL0     O 7874   4.261  10.314   7.280  0.2613  0.4185 -0.0268
  818MOL0     C 7875   4.173  10.243   7.203 -0.4072  0.1762 -0.1971
  818MOL0     C 7876   4.053  10.296   7.187  0.3629  0.2869  0.5116
  818MOL0     C 7877   3.960  10.237   7.095 -0.7869  0.1008  0.1807
  818MOL0     C 7878   4.004  10.133   7.010 -0.9085  0.0729  0.7137
  818MOL0     O 7879   3.922  10.084   6.913 -0.4698  0.1744 -0.2653
  818MOL0     C 7880   3.987  10.040   6.788  0.2283 -1.0256  0.4412
  818MOL0     C 7881   3.882   9.978   6.696 -0.3687 -0.1111 -0.4977
  818MOL0     C 7882   3.782   9.880   6.758 -0.9102 -0.0915  0.1347
  818MOL0     C 7883   3.828   9.739   6.772  0.3034 -0.3714  0.2021
  818MOL0     C 7884   3.699   9.657   6.784  1.0608  0.1167 -0.7348
  818MOL0     C 7885   3.729   9.515   6.812 -0.2051  0.3784  0.2838
  818MOL0     C 7886   3.597   9.424   6.844 -0.2759 -0.0869 -0.1743
  818MOL0     C 7887   3.625   9.277   6.845  0.4714  0.4792  0.5986
  818MOL0    Cl 7888   3.471   9.190   6.847 -0.0973 -0.1255 -0.2200
  818MOL0     C 7889   4.129  10.070   7.038 -0.2138  0.8393  1.3122
  818MOL0     C 7890   4.212  10.123   7.131 -0.0367 -0.3793 -0.8567
  818MOL0     O 7891   4.170  10.251   7.469 -0.4328 -0.4891  0.1140
  818MOL0     C 7892   4.424  10.146   7.576  0.3327  0.4738  0.6677
  818MOL0     C 7893   4.552  10.117   7.617  0.0816  0.0821 -0.4484
  818MOL0     N 7894   5.324   9.813   7.433  0.0534 -0.5193  0.7008
  818MOL0     N 7895   5.318   9.786   7.303  0.1043 -0.6035 -0.1631
  818MOL0     C 7896   4.723  10.229   6.313 -1.0523  0.1908 -0.1332
  818MOL0     C 7897   4.665  10.327   6.232 -0.5637  0.0394  0.1674
  818MOL0     C 7898   4.544  10.665   6.018  0.0500  0.0175 -0.2721
  818MOL0     C 7899   4.610  10.771   5.961  0.0073 -0.2125  0.0286
  818MOL0     C 7900   4.543  10.851   5.871  0.5527  0.5351  1.0995
  818MOL0     C 7901   4.418  10.814   5.820 -0.7415  0.9793  0.2477
  818MOL0     O 7902   4.344  10.892   5.725 -0.2463  0.3700 -0.0808
  818MOL0     C 7903   4.402  11.005   5.658 -0.4775 -0.1230  0.6169
  818MOL0     C 7904   4.325  11.046   5.526 -0.5073 -0.6547 -0.2096
  818MOL0     C 7905   4.319  10.925   5.432  0.3637 -0.3622 -0.3767
  818MOL0     C 7906   4.253  10.967   5.302  0.8061 -0.3518 -0.9958
  818MOL0     C 7907   4.339  11.032   5.207  0.6208 -0.8123  0.7502
  818MOL0     C 7908   4.417  11.038   5.113  0.3844  0.5965  0.0567
  818MOL0     C 7909   4.353  10.708   5.878  0.4351  0.4302  0.5945
  818MOL0     C 7910   4.418  10.625   5.968 -0.0975  0.1281  1.1819
  818MOL0     H 7911   4.454  10.475   6.458  0.8388  0.7829 -0.5485
  818MOL0     H 7912   4.559  10.317   6.597 -0.3002  3.1785  0.8265
  818MOL0     H 7913   4.663  10.138   6.699 -0.5962 -0.2168 -0.8211
  818MOL0     H 7914   4.752  10.288   6.693 -1.0817 -0.6753 -0.1503
  818MOL0     H 7915   4.856  10.140   6.851 -0.1570  0.1132  0.3060
  818MOL0     H 7916   4.969  10.149   6.714 -1.4183  0.6273 -1.5111
  818MOL0     H 7917   4.883   9.912   6.664  2.9857 -2.1429  1.0713
  818MOL0     H 7918   4.745   9.953   6.764  0.0101  3.6952 -0.6396
  818MOL0     H 7919   4.903   9.953   6.964  1.5105 -2.9742  2.3601
  818MOL0     H 7920   4.892   9.793   6.888  1.4735 -1.4176 -1.5425
  818MOL0     H 7921   5.120   9.980   6.828 -1.7317  1.0818  2.1507
  818MOL0     H 7922   5.105   9.822   6.762  0.1259  0.1754  0.1684
  818MOL0     H 7923   5.130   9.919   7.059  1.6030 -1.6920  0.4632
  818MOL0     H 7924   5.261   9.832   6.967  1.1106 -2.9835 -0.2831
  818MOL0     H 7925   4.998   9.728   7.077  1.8961  2.7255  0.0273
  818MOL0     H 7926   5.093   9.640   6.954 -1.1462 -1.7788  0.3398
  818MOL0     H 7927   5.267   9.611   7.098 -0.3319 -1.4051 -0.4413
  818MOL0     H 7928   5.121   9.545   7.185 -0.9391  0.5186 -0.3323
  818MOL0     H 7929   5.017   9.695   7.383 -0.7488  2.5031  0.9593
  818MOL0     H 7930   5.206   9.841   7.675 -2.0278  2.2158  0.7178
  818MOL0     H 7931   5.103   9.704   7.656 -1.8705  0.9840  1.7889
  818MOL0     H 7932   4.987   9.902   7.709  1.8152  2.2426 -0.0380
  818MOL0     H 7933   4.919   9.848   7.553  0.1674  1.1372  1.0312
  818MOL0     H 7934   5.064  10.100   7.629 -1.0035 -1.1240  1.7284
  818MOL0     H 7935   5.097  10.035   7.467  1.3601  3.0565  0.6584
  818MOL0     H 7936   4.860  10.061   7.415  3.2984  1.2583 -1.3383
  818MOL0     H 7937   4.912  10.207   7.512 -0.6419  0.7804 -3.2670
  818MOL0     H 7938   4.741  10.219   7.358 -0.6514  2.7378  0.6176
  818MOL0     H 7939   4.503  10.295   7.281 -2.5683 -2.0558 -0.9312
  818MOL0     H 7940   4.030  10.390   7.236  4.0048  1.8689 -0.4079
  818MOL0     H 7941   3.864  10.287   7.098 -1.2661 -0.7025  4.2809
  818MOL0     H 7942   4.056   9.957   6.810  1.1995 -1.2535 -2.8880
  818MOL0     H 7943   4.031  10.124   6.733 -2.3924 -0.7626 -1.4321
  818MOL0     H 7944   3.932   9.913   6.623  2.0788  0.0547  0.9440
  818MOL0     H 7945   3.828  10.055   6.639 -0.3113 -1.9649 -3.2949
  818MOL0     H 7946   3.698   9.893   6.689  1.7641  1.3085 -3.1651
  818MOL0     H 7947   3.757   9.910   6.860  2.4706 -1.0624  1.3855
  818MOL0     H 7948   3.886   9.709   6.685 -0.3027  1.0719 -0.7330
  818MOL0     H 7949   3.894   9.730   6.859  0.5959  0.8325  0.1131
  818MOL0     H 7950   3.636   9.657   6.695 -0.0381  2.3269 -0.0399
  818MOL0     H 7951   3.639   9.694   6.868  2.9766  5.1563 -1.2188
  818MOL0     H 7952   3.796   9.509   6.898 -2.0622  1.1983  1.8375
  818MOL0     H 7953   3.791   9.471   6.733  1.2978 -1.5858  2.4138
  818MOL0     H 7954   3.540   9.463   6.929  2.4282  4.1648  0.0275
  818MOL0     H 7955   3.531   9.431   6.757  0.6577 -0.5546 -0.9464
  818MOL0     H 7956   3.687   9.240   6.928  3.5083  2.6546 -0.5341
  818MOL0     H 7957   3.687   9.249   6.759  1.2617  1.7207  0.7469
  818MOL0     H 7958   4.160   9.981   6.986 -2.1331  1.1092 -0.4302
  818MOL0     H 7959   4.311  10.086   7.157 -0.0070 -1.6567 -2.5999
  818MOL0     H 7960   4.338  10.136   7.641 -0.0072  5.0323  1.2344
  818MOL0     H 7961   4.566  10.081   7.718 -1.7590  0.3118 -0.0937
  818MOL0     H 7962   4.789  10.157   6.264 -1.2805 -0.6691  0.7980
  818MOL0     H 7963   4.698  10.336   6.129  0.4021 -0.1070  0.4483
  818MOL0     H 7964   4.709  10.800   5.994  1.0544  0.5074 -3.3777
  818MOL0     H 7965   4.589  10.942   5.834 -1.6983  0.4542 -2.4538
  818MOL0     H 7966   4.509  10.997   5.635  0.3380  3.8807  2.0442
  818MOL0     H 7967   4.411  11.091   5.726  1.2602 -0.5032  0.9305
  818MOL0     H 7968   4.229  11.092   5.553  0.9158  2.6815 -0.2758
  818MOL0     H 7969   4.384  11.123   5.474  0.9678 -3.2872 -2.7040
  818MOL0     H 7970   4.253  10.854   5.484 -1.2919  1.3038 -0.0533
  818MOL0     H 7971   4.422  10.896   5.412  1.3747  3.0256 -0.7839
  818MOL0     H 7972   4.215  10.878   5.250 -3.0611  0.1897  0.5569
  818MOL0     H 7973   4.155  11.011   5.324 -0.3707 -2.1499 -2.3431
  818MOL0     H 7974   4.490  11.028   5.034 -1.6445  2.6093 -2.2462
  818MOL0     H 7975   4.260  10.687   5.826  0.6302  1.2571 -0.1079
  818MOL0     H 7976   4.376  10.528   5.995  2.0471 -0.5660  2.2531
  819MOL0     O 7977   0.084   1.320   8.324 -0.0033  0.9728  0.4465
  819MOL0     C 7978   0.057   1.272   8.439  0.5377 -0.0580 -1.8802
  819MOL0     O 7979   0.117   1.186   8.519  0.2607  0.3867  0.2355
  819MOL0     C 7980   0.218   1.102   8.484 -1.1117  0.2535 -0.8834
  819MOL0     C 7981   0.314   1.122   8.389 -0.4748 -0.9654  0.4047
  819MOL0     C 7982   0.422   1.033   8.371 -0.8372  0.0781  0.5424
  819MOL0     C 7983   0.447   0.930   8.454  0.4645 -0.0894 -0.9456
  819MOL0     O 7984   0.560   0.862   8.431 -1.1391 -0.5763 -0.0937
  819MOL0     C 7985   0.613   0.783   8.538 -0.7097 -0.1231  0.6062
  819MOL0     C 7986   0.697   0.674   8.478 -0.8058 -0.4654  0.3459
  819MOL0     C 7987   0.614   0.577   8.402 -0.1419  0.2810 -0.4382
  819MOL0     C 7988   0.517   0.489   8.485 -0.4235 -0.1532  0.6393
  819MOL0     C 7989   0.589   0.394   8.572 -0.1091  0.3317 -0.4654
  819MOL0     C 7990   0.489   0.334   8.675  0.6475 -0.3706  1.4052
  819MOL0     C 7991   0.416   0.448   8.764 -0.1794 -0.0814 -0.5365
  819MOL0     C 7992   0.513   0.528   8.857 -0.0448  0.4623  1.0907
  819MOL0     N 7993   0.442   0.611   8.956 -0.1409  0.6647  0.0838
  819MOL0     C 7994   0.345   0.563   9.045  0.1200  0.5428  1.0263
  819MOL0     C 7995   0.280   0.675   9.090  0.7504  0.1071 -1.6648
  819MOL0     C 7996   0.168   0.663   9.197  0.2807  0.3305 -0.1104
  819MOL0     C 7997   0.218   0.647   9.343  0.5553  0.1507  1.6989
  819MOL0     C 7998   0.271   0.787   9.391  0.3381  0.4073 -0.7717
  819MOL0     C 7999   0.308   0.777   9.537  0.4774  0.5519  0.3460
  819MOL0     O 8000   0.308   0.907   9.605 -0.0403 -0.1994  0.7419
  819MOL0     C 8001   0.263   0.910   9.737 -0.5934  0.2982  0.2024
  819MOL0     C 8002   0.173   1.011   9.772 -0.0748 -0.6283 -0.2350
  819MOL0     C 8003   0.113   1.024   9.900 -0.9533 -0.0827 -0.4253
  819MOL0     C 8004   0.155   0.937  10.001  0.8442  0.4192  1.2654
  819MOL0     C 8005   0.101   0.955  10.140  0.4142  0.3325  0.5822
  819MOL0     O 8006   0.046   1.075  10.169 -0.1610  0.6368 -0.2474
  819MOL0     C 8007  -0.016   1.102  10.290 -0.1458  0.3416 -0.1558
  819MOL0     C 8008  -0.128   1.023  10.328 -0.0221 -0.6838 -0.1181
  819MOL0     C 8009  -0.174   1.039  10.464  0.5404  0.2526  0.4577
  819MOL0     C 8010  -0.127   1.135  10.546 -0.1316  1.0436 -0.1463
  819MOL0     O 8011  -0.194   1.139  10.663 -0.3178 -0.9309  0.2116
  819MOL0     C 8012  -0.160   1.248  10.763  0.6405 -0.6296  0.7243
  819MOL0     C 8013  -0.224   1.216  10.899  0.3550  0.3714 -0.2768
  819MOL0     C 8014  -0.376   1.233  10.900 -0.1108 -1.0854 -0.4839
  819MOL0     C 8015  -0.450   1.168  10.779 -0.3091 -0.5789 -0.5584
  819MOL0     C 8016  -0.603   1.141  10.806 -0.0319  1.2324  0.3801
  819MOL0     C 8017  -0.702   1.245  10.851  0.4599  0.1204  0.6316
  819MOL0     C 8018  -0.729   1.348  10.750 -0.0239  0.4172  0.3720
  819MOL0     C 8019  -0.784   1.491  10.807 -0.1014  1.0569  0.0143
  819MOL0    Cl 8020  -0.899   1.473  10.927  0.2800  0.3646 -0.2275
  819MOL0     C 8021  -0.027   1.220  10.507 -0.3179  0.2302  0.7774
  819MOL0     C 8022   0.037   1.195  10.385 -0.2297  0.9855 -0.3035
  819MOL0     O 8023   0.138   0.870  10.221  0.0531 -0.2659 -0.1308
  819MOL0     C 8024   0.249   0.833   9.965 -0.2918 -0.3521  0.2799
  819MOL0     C 8025   0.298   0.822   9.835 -0.4455  0.5074 -0.2437
  819MOL0     N 8026   0.331   0.783   9.020  0.1578  0.0223 -0.3284
  819MOL0     N 8027   0.420   0.747   8.937  0.7797  0.3750  0.4283
  819MOL0     C 8028   0.344   0.904   8.555 -0.2917 -0.6098  0.5993
  819MOL0     C 8029   0.231   0.991   8.561 -0.5747 -0.3389  0.3513
  819MOL0     C 8030  -0.081   1.319   8.494 -0.6492  0.8061 -0.3925
  819MOL0     C 8031  -0.134   1.439   8.440  0.8741 -0.0732  0.7755
  819MOL0     C 8032  -0.259   1.475   8.472 -0.4121  0.0387  0.5646
  819MOL0     C 8033  -0.337   1.410   8.569 -0.8207  0.6327  0.7364
  819MOL0     O 8034  -0.452   1.477   8.600 -0.6059 -0.0867  0.1791
  819MOL0     C 8035  -0.555   1.413   8.682  0.0817  0.3481  0.9068
  819MOL0     C 8036  -0.659   1.511   8.702 -0.4946  0.4088 -0.2048
  819MOL0     C 8037  -0.762   1.442   8.801  0.3656 -0.8739  0.5815
  819MOL0     C 8038  -0.881   1.536   8.821 -0.7686 -0.0362  0.3247
  819MOL0     C 8039  -0.838   1.638   8.922 -0.0507 -0.8589 -1.1458
  819MOL0     C 8040  -0.790   1.694   9.015  0.4488 -0.2566 -1.0153
  819MOL0     C 8041  -0.278   1.295   8.634  0.1600  0.3719  0.1383
  819MOL0     C 8042  -0.151   1.252   8.602  0.0660  0.2248  0.4851
  819MOL0     H 8043   0.305   1.198   8.312  5.0156 -0.4438 -0.0846
  819MOL0     H 8044   0.494   1.046   8.292  0.4661 -1.9940  1.3103
  819MOL0     H 8045   0.526   0.754   8.598 -1.2035  2.9095  1.4962
  819MOL0     H 8046   0.679   0.838   8.606 -2.1313  0.0363  1.9113
  819MOL0     H 8047   0.753   0.619   8.554  1.5601  1.0559 -0.1876
  819MOL0     H 8048   0.781   0.712   8.419 -0.9506  2.2961  1.7521
  819MOL0     H 8049   0.680   0.507   8.351 -1.3812 -0.8717 -0.5384
  819MOL0     H 8050   0.554   0.631   8.327 -2.8769 -0.5490  0.9895
  819MOL0     H 8051   0.454   0.563   8.536 -0.6032  0.2934 -0.2043
  819MOL0     H 8052   0.448   0.437   8.417 -0.3847 -1.8535  1.8525
  819MOL0     H 8053   0.673   0.445   8.619  2.0042 -0.5966 -2.9930
  819MOL0     H 8054   0.637   0.314   8.515  0.0975 -0.8421  1.2949
  819MOL0     H 8055   0.532   0.255   8.738 -1.3079 -1.3303  1.6195
  819MOL0     H 8056   0.416   0.281   8.613  1.6933 -0.3849  0.1455
  819MOL0     H 8057   0.350   0.518   8.711 -1.0736  0.1264  0.7817
  819MOL0     H 8058   0.339   0.395   8.822 -1.9023  2.0342 -0.7500
  819MOL0     H 8059   0.578   0.597   8.803 -0.3218 -2.3477 -3.4237
  819MOL0     H 8060   0.582   0.449   8.891  0.5749  0.9964  1.0901
  819MOL0     H 8061   0.314   0.462   9.069  1.6027 -0.5873 -1.4547
  819MOL0     H 8062   0.093   0.591   9.162  0.7776  0.3153 -1.1542
  819MOL0     H 8063   0.109   0.755   9.194 -3.6459 -1.9721 -0.4417
  819MOL0     H 8064   0.293   0.567   9.339 -0.6374 -0.9408 -0.0122
  819MOL0     H 8065   0.135   0.605   9.399  0.2574 -0.6353  0.6891
  819MOL0     H 8066   0.349   0.819   9.321 -1.3923  2.3032 -1.9545
  819MOL0     H 8067   0.187   0.855   9.376 -1.2585 -1.5754 -1.3989
  819MOL0     H 8068   0.405   0.727   9.543  0.6044  0.3995 -1.9586
  819MOL0     H 8069   0.227   0.720   9.583  1.5126 -0.3441  1.0864
  819MOL0     H 8070   0.135   1.072   9.691 -0.6375  3.0466  2.5805
  819MOL0     H 8071   0.042   1.106   9.908 -0.6424  0.2980 -1.4217
  819MOL0     H 8072  -0.174   0.949  10.264 -3.6599 -1.7904  3.3523
  819MOL0     H 8073  -0.254   0.977  10.502  0.9993 -0.8319 -0.2928
  819MOL0     H 8074  -0.195   1.348  10.733  1.3152 -0.2772  1.0725
  819MOL0     H 8075  -0.051   1.254  10.773  1.1263  1.0442 -3.3492
  819MOL0     H 8076  -0.191   1.294  10.968 -1.1680 -0.6128  1.6435
  819MOL0     H 8077  -0.187   1.127  10.950 -2.0968  0.1234  1.1623
  819MOL0     H 8078  -0.399   1.340  10.899  1.1283 -0.7911  0.4352
  819MOL0     H 8079  -0.418   1.199  10.995 -2.8587  0.6394 -0.9713
  819MOL0     H 8080  -0.438   1.237  10.696  1.1698  1.4487  1.2105
  819MOL0     H 8081  -0.397   1.075  10.756  0.2691 -0.4128  0.0525
  819MOL0     H 8082  -0.604   1.069  10.888 -1.0584  0.9710  0.1492
  819MOL0     H 8083  -0.653   1.096  10.720 -2.3152  2.2221  1.1166
  819MOL0     H 8084  -0.648   1.273  10.942  2.7244  1.6007 -1.0498
  819MOL0     H 8085  -0.796   1.199  10.882 -0.1855  1.7047  1.0855
  819MOL0     H 8086  -0.638   1.360  10.691 -1.1589  1.2407 -1.2912
  819MOL0     H 8087  -0.800   1.308  10.677 -3.5192  0.6083  3.3908
  819MOL0     H 8088  -0.832   1.538  10.720 -2.7209  1.2963  1.4885
  819MOL0     H 8089  -0.699   1.551  10.841 -0.9376  1.4268  1.5288
  819MOL0     H 8090   0.023   1.287  10.576  1.6259  1.1373 -1.3934
  819MOL0     H 8091   0.128   1.248  10.358  0.9222 -1.1576 -0.8044
  819MOL0     H 8092   0.280   0.770  10.048  2.7509  2.4486  1.4871
  819MOL0     H 8093   0.379   0.752   9.817 -1.1339  0.5229 -4.1669
  819MOL0     H 8094   0.341   0.817   8.619 -0.1734 -1.9072 -1.0761
  819MOL0     H 8095   0.148   0.963   8.626 -1.8951 -0.1037 -1.1781
  819MOL0     H 8096  -0.092   1.502   8.362  1.0362 -1.4339 -0.2748
  819MOL0     H 8097  -0.286   1.563   8.415  4.1969  0.4995 -1.3548
  819MOL0     H 8098  -0.527   1.368   8.777 -0.3605 -0.9849  0.4353
  819MOL0     H 8099  -0.591   1.326   8.625 -0.2502  0.9737  0.1473
  819MOL0     H 8100  -0.623   1.605   8.746 -2.4887  0.7336  0.9002
  819MOL0     H 8101  -0.705   1.530   8.605 -1.7603  0.8341  0.4436
  819MOL0     H 8102  -0.703   1.428   8.892  2.5938 -2.6377 -1.0215
  819MOL0     H 8103  -0.788   1.352   8.744  2.3453  0.3985 -2.5740
  819MOL0     H 8104  -0.898   1.587   8.726  1.2595 -2.6915 -1.6255
  819MOL0     H 8105  -0.968   1.481   8.859 -0.2759 -1.2564 -0.2468
  819MOL0     H 8106  -0.733   1.733   9.096  0.0274 -1.4396 -0.1100
  819MOL0     H 8107  -0.341   1.239   8.702 -3.6084  3.9604  0.0067
  819MOL0     H 8108  -0.121   1.156   8.643 -3.0651 -0.5890  1.1310
  820MOL0     O 8109   9.624   9.032   8.515 -0.5351  0.1630 -0.2817
  820MOL0     C 8110   9.544   9.101   8.570 -0.1430  0.1548  0.1709
  820MOL0     O 8111   9.505   9.103   8.701  0.2112  0.9864 -0.5344
  820MOL0     C 8112   9.546   8.999   8.789  1.0518  0.2176  0.1329
  820MOL0     C 8113   9.659   8.920   8.789 -0.3904  0.2207 -0.0549
  820MOL0     C 8114   9.693   8.835   8.899 -0.1646  0.2584  1.2881
  820MOL0     C 8115   9.611   8.829   9.009 -0.3930  0.6072  0.4056
  820MOL0     O 8116   9.618   8.736   9.109  0.1371  0.4911  0.3138
  820MOL0     C 8117   9.673   8.609   9.082  0.1106 -0.5902  0.5258
  820MOL0     C 8118   9.572   8.497   9.137 -0.5988  0.3285  0.8390
  820MOL0     C 8119   9.430   8.531   9.084  0.5270 -1.2245  0.0448
  820MOL0     C 8120   9.324   8.419   9.112 -0.2921 -0.1496 -0.4757
  820MOL0     C 8121   9.186   8.462   9.049 -0.6380  0.0334 -0.8139
  820MOL0     C 8122   9.064   8.392   9.114  0.0223  0.2357  0.1421
  820MOL0     C 8123   9.044   8.239   9.097  0.3649  0.4462 -0.4464
  820MOL0     C 8124   8.943   8.195   9.215  0.5607  0.1726  0.2299
  820MOL0     N 8125   8.935   8.047   9.221  0.3684 -0.2844 -0.9895
  820MOL0     C 8126   9.022   7.961   9.272 -0.0650 -0.2661  0.3915
  820MOL0     C 8127   8.976   7.840   9.240  0.3588  0.7312 -0.1976
  820MOL0     C 8128   9.038   7.705   9.272  0.6000  0.1690  0.2044
  820MOL0     C 8129   9.017   7.642   9.413 -0.5061  0.0621  0.5199
  820MOL0     C 8130   9.052   7.489   9.436  0.2970  0.0202  0.1749
  820MOL0     C 8131   8.962   7.396   9.349 -0.0643  0.5323 -0.3292
  820MOL0     O 8132   8.962   7.254   9.373  0.1523  0.6133 -0.5138
  820MOL0     C 8133   8.935   7.161   9.277  0.0951 -0.8781 -0.4109
  820MOL0     C 8134   8.966   7.034   9.318 -0.6582  0.7325 -0.2666
  820MOL0     C 8135   8.961   6.915   9.241 -0.4116 -0.5074  1.0777
  820MOL0     C 8136   8.904   6.933   9.113  0.2705 -0.2805  0.1382
  820MOL0     C 8137   8.915   6.823   9.020  0.5550  0.5233 -0.5739
  820MOL0     O 8138   8.944   6.704   9.082 -1.1448 -0.4230  0.6431
  820MOL0     C 8139   8.964   6.591   9.011 -0.3434  0.2219  0.5296
  820MOL0     C 8140   8.902   6.473   9.060  0.0116  0.6297  0.0936
  820MOL0     C 8141   8.922   6.352   8.993 -0.6582 -0.1528  0.0965
  820MOL0     C 8142   8.992   6.348   8.865  0.2552 -0.2366 -0.7907
  820MOL0     O 8143   8.996   6.225   8.801 -0.3200 -0.7268  0.2107
  820MOL0     C 8144   9.119   6.190   8.720  0.0048 -0.4989 -0.7878
  820MOL0     C 8145   9.181   6.094   8.819 -0.1302  0.5347  0.1800
  820MOL0     C 8146   9.311   6.034   8.776 -0.5205 -0.0229 -0.2967
  820MOL0     C 8147   9.424   6.133   8.794  0.1465 -0.1890 -0.7204
  820MOL0     C 8148   9.554   6.098   8.734 -0.1047 -1.1004  0.2992
  820MOL0     C 8149   9.676   6.181   8.786 -0.8061 -0.2272  0.7232
  820MOL0     C 8150   9.668   6.331   8.735 -0.1580  0.0883  1.0093
  820MOL0     C 8151   9.797   6.397   8.676 -0.2318  0.9649  0.3845
  820MOL0    Cl 8152   9.903   6.401   8.828  0.0643 -0.0734 -0.4366
  820MOL0     C 8153   9.052   6.464   8.815  0.6965 -0.6443  0.0634
  820MOL0     C 8154   9.033   6.585   8.889  0.7849 -0.0555  0.6625
  820MOL0     O 8155   8.886   6.842   8.903  0.1382 -0.3008 -0.4732
  820MOL0     C 8156   8.857   7.055   9.075 -0.1515 -1.1106  1.0041
  820MOL0     C 8157   8.884   7.176   9.151 -0.3276 -0.1187 -0.6678
  820MOL0     N 8158   8.857   7.858   9.171  1.1375 -0.2515 -0.4319
  820MOL0     N 8159   8.828   7.984   9.183  1.5538  0.8197  0.1053
  820MOL0     C 8160   9.490   8.903   9.008 -0.9091  0.8952  0.1176
  820MOL0     C 8161   9.465   8.990   8.904 -0.7673 -0.3871 -0.2585
  820MOL0     C 8162   9.500   9.223   8.479  1.6769 -0.1967  0.4971
  820MOL0     C 8163   9.517   9.213   8.340 -0.8580  0.5026 -0.1195
  820MOL0     C 8164   9.481   9.327   8.264  0.5634  0.0233 -0.5263
  820MOL0     C 8165   9.415   9.436   8.322 -0.8994  0.0143 -0.2230
  820MOL0     O 8166   9.372   9.535   8.237  0.2036  0.5496  0.1856
  820MOL0     C 8167   9.243   9.595   8.270  0.0374 -0.6943 -0.3705
  820MOL0     C 8168   9.162   9.654   8.154 -0.1247 -0.0812 -0.9020
  820MOL0     C 8169   9.041   9.751   8.199 -0.0867 -0.1341  0.9895
  820MOL0     C 8170   9.100   9.883   8.258 -0.3353 -0.9474 -0.1538
  820MOL0     C 8171   9.168   9.952   8.148 -0.0101 -0.0233 -0.6625
  820MOL0     C 8172   9.248  10.014   8.089 -0.4957 -0.7112  0.7703
  820MOL0     C 8173   9.400   9.447   8.456  1.1270  0.8492 -0.1101
  820MOL0     C 8174   9.431   9.335   8.534  1.3592 -0.6964 -0.3087
  820MOL0     H 8175   9.723   8.924   8.701  0.6810  0.3286  0.7073
  820MOL0     H 8176   9.787   8.784   8.885 -1.2576 -0.8200 -4.9712
  820MOL0     H 8177   9.772   8.599   9.125  1.2021  2.1102 -1.0535
  820MOL0     H 8178   9.669   8.582   8.976  1.8383 -0.6647  0.4531
  820MOL0     H 8179   9.565   8.500   9.246  0.0234  1.6895  0.8499
  820MOL0     H 8180   9.603   8.399   9.099 -0.2496  0.6115  0.3847
  820MOL0     H 8181   9.446   8.543   8.977  3.8713 -1.9263  0.3702
  820MOL0     H 8182   9.395   8.617   9.143  3.0289 -1.4478  2.0460
  820MOL0     H 8183   9.359   8.327   9.064 -0.4297 -1.3153  1.5540
  820MOL0     H 8184   9.318   8.404   9.220 -2.7105  0.9881 -0.3817
  820MOL0     H 8185   9.191   8.431   8.944 -0.1321  2.0940 -1.4273
  820MOL0     H 8186   9.174   8.570   9.058  2.0001  0.5171 -2.0693
  820MOL0     H 8187   8.970   8.428   9.071 -0.1417  0.6924  0.8744
  820MOL0     H 8188   9.063   8.424   9.218 -2.4332  1.0495 -0.0613
  820MOL0     H 8189   9.009   8.215   8.997 -4.8650  0.8421  0.9904
  820MOL0     H 8190   9.134   8.177   9.103 -2.1776 -3.5209 -0.0277
  820MOL0     H 8191   8.838   8.222   9.201  0.6263 -0.5465 -2.0370
  820MOL0     H 8192   8.965   8.245   9.310 -3.7946  2.0200  0.4684
  820MOL0     H 8193   9.122   7.978   9.310  0.9138  1.1256 -2.4793
  820MOL0     H 8194   9.146   7.719   9.283  0.8393 -1.3352  0.0328
  820MOL0     H 8195   9.012   7.641   9.187 -1.1547 -0.8914  1.4930
  820MOL0     H 8196   8.908   7.639   9.421 -0.4610 -2.8960  1.0800
  820MOL0     H 8197   9.064   7.713   9.482 -1.7983  1.5020 -0.0141
  820MOL0     H 8198   9.159   7.467   9.424 -0.1335 -3.3531  1.3763
  820MOL0     H 8199   9.030   7.483   9.543  2.4758  0.2764  0.6810
  820MOL0     H 8200   8.988   7.418   9.245  2.2991  3.7088  0.7463
  820MOL0     H 8201   8.860   7.433   9.359  0.2217  1.3524 -0.3421
  820MOL0     H 8202   8.998   7.015   9.420 -2.4190  0.2833  0.2386
  820MOL0     H 8203   9.005   6.828   9.288 -2.5144  0.2301  4.8275
  820MOL0     H 8204   8.828   6.472   9.140 -0.4176  1.8113 -0.2718
  820MOL0     H 8205   8.878   6.257   9.022  0.9515 -1.4892 -1.6611
  820MOL0     H 8206   9.181   6.278   8.701 -1.8889  1.0105 -0.2727
  820MOL0     H 8207   9.081   6.151   8.625  0.0727  0.1971 -1.1117
  820MOL0     H 8208   9.110   6.012   8.831  0.8349 -0.2982  0.2468
  820MOL0     H 8209   9.192   6.140   8.917 -0.0893  2.8831 -0.8489
  820MOL0     H 8210   9.307   5.993   8.674  0.0622 -2.3286  0.5534
  820MOL0     H 8211   9.329   5.942   8.831 -1.5308 -2.3681 -3.5486
  820MOL0     H 8212   9.397   6.236   8.769 -2.1030 -0.1957  1.2491
  820MOL0     H 8213   9.453   6.134   8.900 -0.1109 -3.2789 -0.5286
  820MOL0     H 8214   9.557   6.118   8.626  0.1936 -2.1734  0.0927
  820MOL0     H 8215   9.565   5.991   8.751 -4.2472 -1.4642  1.8788
  820MOL0     H 8216   9.759   6.135   8.731 -1.5859 -1.0510  0.2134
  820MOL0     H 8217   9.685   6.159   8.892  1.8793 -3.9642 -0.0709
  820MOL0     H 8218   9.586   6.339   8.663  2.3876  0.2451 -2.0996
  820MOL0     H 8219   9.631   6.386   8.822  1.6991 -0.5066  2.2556
  820MOL0     H 8220   9.775   6.499   8.643  1.6119  0.8731 -1.3397
  820MOL0     H 8221   9.838   6.337   8.595 -3.2448  3.2250 -3.1593
  820MOL0     H 8222   9.097   6.463   8.717  0.4052 -0.6895 -0.0694
  820MOL0     H 8223   9.066   6.676   8.840  1.3595 -0.3957  0.4112
  820MOL0     H 8224   8.803   7.062   8.981  2.1661 -1.2601 -0.4152
  820MOL0     H 8225   8.852   7.275   9.119  0.8675 -0.2927 -2.5668
  820MOL0     H 8226   9.436   8.895   9.102  1.2299  1.5566  1.4900
  820MOL0     H 8227   9.379   9.050   8.932 -0.1220 -0.1520  1.3450
  820MOL0     H 8228   9.574   9.123   8.318  0.7886  1.0379  1.6303
  820MOL0     H 8229   9.492   9.319   8.156 -1.1803  1.1036 -0.8179
  820MOL0     H 8230   9.265   9.666   8.350 -0.3060 -0.2801 -0.6427
  820MOL0     H 8231   9.169   9.524   8.308  0.4628 -1.0971 -0.2756
  820MOL0     H 8232   9.232   9.700   8.083  0.2385  0.3133 -0.2988
  820MOL0     H 8233   9.116   9.570   8.101 -2.5552 -0.3255  1.3964
  820MOL0     H 8234   8.992   9.700   8.283 -0.4330 -1.2457  0.1400
  820MOL0     H 8235   8.967   9.780   8.123  2.6480  4.2772 -0.3517
  820MOL0     H 8236   9.018   9.949   8.288 -2.5172 -1.9374 -3.3466
  820MOL0     H 8237   9.171   9.863   8.338  0.3730 -0.2554 -0.6016
  820MOL0     H 8238   9.318  10.065   8.025  1.1216 -1.8971  1.5121
  820MOL0     H 8239   9.361   9.540   8.495 -1.1001  0.9912 -2.4194
  820MOL0     H 8240   9.415   9.326   8.641  1.4770  3.2651  0.1849
  821MOL0     O 8241   7.549   1.391   1.820 -1.1716 -0.1185 -0.0760
  821MOL0     C 8242   7.454   1.319   1.853  0.4470  0.2348 -0.1063
  821MOL0     O 8243   7.323   1.356   1.868 -0.0176  0.4251  0.0209
  821MOL0     C 8244   7.293   1.485   1.875 -0.2402 -0.7129  0.1179
  821MOL0     C 8245   7.316   1.573   1.777  0.6311 -0.4601 -0.8567
  821MOL0     C 8246   7.266   1.702   1.793 -0.1397  0.7219 -0.6657
  821MOL0     C 8247   7.185   1.742   1.897 -0.1774 -0.7106  0.0765
  821MOL0     O 8248   7.138   1.863   1.904 -0.5904 -0.2002 -0.7955
  821MOL0     C 8249   7.001   1.876   1.957  0.0748 -0.7215 -0.5288
  821MOL0     C 8250   6.968   2.020   1.943  0.4761 -0.4735  0.0576
  821MOL0     C 8251   6.828   2.041   1.996 -0.7656 -0.4609  0.0441
  821MOL0     C 8252   6.775   2.172   1.941 -0.4450  0.3931 -0.3011
  821MOL0     C 8253   6.625   2.208   1.986  0.3426  0.3342 -0.3897
  821MOL0     C 8254   6.558   2.315   1.901  0.4695 -0.2308 -0.3421
  821MOL0     C 8255   6.406   2.301   1.921  0.7181 -0.6136  0.7510
  821MOL0     C 8256   6.332   2.396   2.011  0.1843  0.5463  1.0035
  821MOL0     N 8257   6.344   2.346   2.149 -0.8389 -0.5650 -0.2254
  821MOL0     C 8258   6.303   2.227   2.200  1.2169 -0.2383 -0.6561
  821MOL0     C 8259   6.344   2.234   2.332 -0.0743 -0.6720  0.3097
  821MOL0     C 8260   6.337   2.127   2.435  0.1196 -0.6332  0.3522
  821MOL0     C 8261   6.483   2.069   2.435  0.2577  0.4269 -0.6754
  821MOL0     C 8262   6.485   1.933   2.512 -1.2376 -1.2793  0.6782
  821MOL0     C 8263   6.447   1.809   2.418 -0.5378  0.2045 -0.1293
  821MOL0     O 8264   6.478   1.679   2.476  0.2440  0.2609  1.0904
  821MOL0     C 8265   6.373   1.618   2.540 -0.1889  0.7110 -0.4617
  821MOL0     C 8266   6.349   1.485   2.484 -0.0086  0.9698  0.0436
  821MOL0     C 8267   6.224   1.427   2.518 -0.7800 -0.8930  0.5300
  821MOL0     C 8268   6.142   1.485   2.615 -0.1032  0.6342  0.9300
  821MOL0     C 8269   6.020   1.415   2.655  0.2764  0.3543 -0.9238
  821MOL0     O 8270   5.971   1.462   2.768 -0.1565  0.4411  0.3757
  821MOL0     C 8271   5.839   1.475   2.799  0.6400  0.2906  0.5259
  821MOL0     C 8272   5.798   1.533   2.922 -0.3250 -0.5020  1.0859
  821MOL0     C 8273   5.663   1.553   2.966 -0.3657  0.4025  0.2057
  821MOL0     C 8274   5.562   1.522   2.872 -0.9114  1.0235  1.0051
  821MOL0     O 8275   5.426   1.533   2.897  0.2930 -0.2302 -0.9264
  821MOL0     C 8276   5.374   1.448   3.005 -0.1739  0.0918  0.5753
  821MOL0     C 8277   5.330   1.320   2.938 -0.3534 -0.6039 -1.0821
  821MOL0     C 8278   5.211   1.260   3.012 -0.1213  0.4747  0.4239
  821MOL0     C 8279   5.078   1.321   2.964  0.5130  1.2091 -0.7326
  821MOL0     C 8280   4.958   1.238   2.996  0.3323  0.6014 -0.4868
  821MOL0     C 8281   4.923   1.231   3.147  0.8237  0.1795  0.7056
  821MOL0     C 8282   4.870   1.362   3.208 -0.3314  1.1133  0.5010
  821MOL0     C 8283   4.725   1.362   3.248  0.1074 -0.4343 -0.0970
  821MOL0    Cl 8284   4.677   1.252   3.392 -0.5734 -0.3430  0.0834
  821MOL0     C 8285   5.592   1.470   2.739 -0.8935 -0.2237 -0.3430
  821MOL0     C 8286   5.728   1.446   2.705 -0.6083 -0.4050 -1.0729
  821MOL0     O 8287   5.980   1.318   2.593  0.8558  0.5497  0.0597
  821MOL0     C 8288   6.172   1.604   2.677 -0.5637  0.0259  0.6877
  821MOL0     C 8289   6.288   1.669   2.636 -0.3165  0.1457 -0.5499
  821MOL0     N 8290   6.400   2.359   2.351  0.1048 -0.1941  0.0714
  821MOL0     N 8291   6.388   2.426   2.247 -0.1974  0.0426  0.5736
  821MOL0     C 8292   7.155   1.638   1.991 -0.2437 -0.7467 -0.2052
  821MOL0     C 8293   7.206   1.514   1.979 -0.0682  0.0034 -0.1050
  821MOL0     C 8294   7.468   1.174   1.867 -0.1383 -1.0344 -0.5831
  821MOL0     C 8295   7.598   1.129   1.859 -0.0449 -0.0909 -0.4718
  821MOL0     C 8296   7.626   0.993   1.860 -0.5139 -0.0528  0.0712
  821MOL0     C 8297   7.523   0.901   1.863 -0.5807  0.5761 -1.0385
  821MOL0     O 8298   7.562   0.774   1.860  0.2461 -0.0313  0.3153
  821MOL0     C 8299   7.498   0.683   1.956 -0.5734 -0.7155  0.1833
  821MOL0     C 8300   7.547   0.678   2.095 -0.6537  0.3036 -0.4943
  821MOL0     C 8301   7.699   0.638   2.110  0.4438  0.1380  0.1015
  821MOL0     C 8302   7.742   0.505   2.050 -1.5471 -0.7491  0.2128
  821MOL0     C 8303   7.652   0.404   2.089  0.0860 -1.0534  0.4257
  821MOL0     C 8304   7.564   0.324   2.110  0.4480 -0.1670  0.2824
  821MOL0     C 8305   7.392   0.942   1.859  1.2257  0.0112 -0.8307
  821MOL0     C 8306   7.362   1.080   1.875 -0.4938 -0.0342 -0.0585
  821MOL0     H 8307   7.374   1.547   1.688  1.9876 -0.7420  0.0783
  821MOL0     H 8308   7.291   1.778   1.719 -3.2161  3.0766  0.5013
  821MOL0     H 8309   6.985   1.845   2.061 -1.9794  0.6075 -0.3887
  821MOL0     H 8310   6.927   1.828   1.892 -0.4552  1.8829 -2.0032
  821MOL0     H 8311   6.970   2.043   1.836  0.3269 -0.2091  0.1095
  821MOL0     H 8312   7.044   2.081   1.993 -1.1944  1.6900  0.1345
  821MOL0     H 8313   6.850   2.055   2.102  0.1781 -3.5711  0.3441
  821MOL0     H 8314   6.775   1.946   1.984  1.8781 -2.2404  1.4622
  821MOL0     H 8315   6.847   2.253   1.956  1.2208 -0.4828 -2.9564
  821MOL0     H 8316   6.776   2.163   1.832  3.8816 -0.0436 -0.3768
  821MOL0     H 8317   6.635   2.255   2.084  0.0565  0.4987 -0.4377
  821MOL0     H 8318   6.568   2.115   1.982 -0.1281  0.2408  3.9065
  821MOL0     H 8319   6.588   2.319   1.796  0.0219 -0.3154 -0.4793
  821MOL0     H 8320   6.598   2.412   1.930  0.2262 -1.0200  3.0973
  821MOL0     H 8321   6.358   2.330   1.827 -1.5373 -3.4954  0.8662
  821MOL0     H 8322   6.374   2.198   1.939 -1.8827 -0.5815 -2.7087
  821MOL0     H 8323   6.225   2.406   1.991  0.6471  4.1191 -0.4717
  821MOL0     H 8324   6.375   2.496   1.997 -0.5571  0.6744 -0.4773
  821MOL0     H 8325   6.256   2.153   2.135  1.0881  1.5134 -2.6757
  821MOL0     H 8326   6.255   2.063   2.400 -1.0487  1.4509 -0.9126
  821MOL0     H 8327   6.308   2.158   2.536 -1.0392 -0.0196 -0.1570
  821MOL0     H 8328   6.548   2.143   2.482  1.8784 -2.8749  2.8597
  821MOL0     H 8329   6.521   2.052   2.334  0.2969 -1.7048 -0.3371
  821MOL0     H 8330   6.586   1.917   2.551 -0.0568  0.6204 -1.3702
  821MOL0     H 8331   6.414   1.937   2.595 -2.3122  2.7038 -0.2503
  821MOL0     H 8332   6.507   1.819   2.327 -2.6283  0.8659 -1.5401
  821MOL0     H 8333   6.341   1.821   2.394 -0.9515  0.7494  1.7949
  821MOL0     H 8334   6.421   1.429   2.425  0.9831  0.5864  1.5402
  821MOL0     H 8335   6.186   1.334   2.477 -0.0649 -2.0686  2.4408
  821MOL0     H 8336   5.880   1.557   2.989  0.3468  2.1571 -0.5445
  821MOL0     H 8337   5.632   1.587   3.064  1.4624  0.5937  0.7604
  821MOL0     H 8338   5.280   1.494   3.035 -1.2555 -2.9738  2.2933
  821MOL0     H 8339   5.451   1.432   3.082  0.3424 -1.8001 -0.2751
  821MOL0     H 8340   5.418   1.256   2.951  1.8945  2.6818  1.6304
  821MOL0     H 8341   5.309   1.331   2.831 -3.4567  1.3067 -0.4001
  821MOL0     H 8342   5.216   1.268   3.120 -3.0401  0.6861  0.6433
  821MOL0     H 8343   5.204   1.156   2.978  2.7429  0.0971  0.7545
  821MOL0     H 8344   5.073   1.419   3.012 -1.2576  0.9058 -0.2249
  821MOL0     H 8345   5.082   1.335   2.855  0.1246 -0.0911 -0.9321
  821MOL0     H 8346   4.977   1.144   2.943  1.2114  1.2399 -1.3564
  821MOL0     H 8347   4.869   1.281   2.950  0.2773  2.5998  1.3725
  821MOL0     H 8348   5.010   1.201   3.206  1.1383  0.5470  0.4320
  821MOL0     H 8349   4.843   1.156   3.148  1.0666 -0.0761  1.7508
  821MOL0     H 8350   4.921   1.373   3.304  1.7616 -1.0603 -0.2658
  821MOL0     H 8351   4.899   1.447   3.146 -0.9283  0.5078 -0.6338
  821MOL0     H 8352   4.663   1.355   3.158 -0.9478  0.4441  0.5343
  821MOL0     H 8353   4.701   1.464   3.277 -1.3229 -0.4486 -1.1014
  821MOL0     H 8354   5.512   1.457   2.667 -0.1351  2.3961 -1.8049
  821MOL0     H 8355   5.757   1.421   2.603 -0.5119 -1.6853 -0.7512
  821MOL0     H 8356   6.101   1.656   2.741  2.0062  1.8696  2.2093
  821MOL0     H 8357   6.319   1.764   2.678 -0.1971 -0.5646  1.0435
  821MOL0     H 8358   7.087   1.660   2.074  5.5375  0.3883  4.9405
  821MOL0     H 8359   7.188   1.428   2.043  0.2765 -1.7116 -2.2153
  821MOL0     H 8360   7.678   1.201   1.874 -0.5849  0.1316  1.5906
  821MOL0     H 8361   7.731   0.964   1.863 -0.3162  0.4890 -1.1597
  821MOL0     H 8362   7.507   0.586   1.906 -0.9371 -0.2846 -0.7494
  821MOL0     H 8363   7.394   0.717   1.967  0.6131  2.6717  3.1516
  821MOL0     H 8364   7.521   0.772   2.145 -1.6156  1.6724 -3.3516
  821MOL0     H 8365   7.510   0.593   2.153  1.2322 -0.9929 -1.1070
  821MOL0     H 8366   7.726   0.633   2.216 -1.4787  1.8301  0.7358
  821MOL0     H 8367   7.758   0.718   2.064  1.5787 -0.2989  0.7314
  821MOL0     H 8368   7.738   0.518   1.942 -1.9371  0.3415  0.3503
  821MOL0     H 8369   7.845   0.488   2.083 -2.1463 -2.1950  1.4680
  821MOL0     H 8370   7.480   0.263   2.139  0.1409 -1.3063 -2.6420
  821MOL0     H 8371   7.317   0.865   1.844  1.5462  0.0327 -2.8358
  821MOL0     H 8372   7.261   1.118   1.880 -1.0752 -1.7345  2.5413
  822MOL0     O 8373   1.372   2.689   9.197 -0.1170  0.0375  1.6858
  822MOL0     C 8374   1.348   2.589   9.260  0.3482  0.6718  0.0875
  822MOL0     O 8375   1.227   2.547   9.273 -0.3442  0.0731 -0.3030
  822MOL0     C 8376   1.126   2.636   9.262 -0.0233  0.4615  0.3264
  822MOL0     C 8377   1.116   2.761   9.322  0.5506  0.4433  0.1602
  822MOL0     C 8378   1.005   2.843   9.295 -0.7706  0.6567  0.3262
  822MOL0     C 8379   0.897   2.798   9.222  0.5259  0.5342 -0.1845
  822MOL0     O 8380   0.788   2.875   9.209 -0.1503 -0.1128 -0.4307
  822MOL0     C 8381   0.758   2.926   9.085  0.1201 -0.1030 -0.1120
  822MOL0     C 8382   0.610   2.978   9.105  0.7230 -0.7543  0.7419
  822MOL0     C 8383   0.562   3.042   8.973 -0.2738  0.1553  0.5619
  822MOL0     C 8384   0.414   3.026   8.943  0.0801 -0.7798  0.7298
  822MOL0     C 8385   0.400   3.042   8.787  0.4482 -0.5524  0.1301
  822MOL0     C 8386   0.252   3.040   8.732 -0.3331  0.9295  0.4198
  822MOL0     C 8387   0.162   3.122   8.824 -0.0872 -0.6078 -0.6823
  822MOL0     C 8388   0.018   3.135   8.771  0.7062  0.0280 -0.5150
  822MOL0     N 8389   0.012   3.257   8.700  0.1633  0.3137  0.3270
  822MOL0     C 8390  -0.044   3.373   8.749  0.0887 -1.3779  0.3860
  822MOL0     C 8391   0.006   3.475   8.682  0.0387  0.3541 -0.6217
  822MOL0     C 8392  -0.025   3.619   8.708 -0.6128  0.5680 -1.0221
  822MOL0     C 8393   0.033   3.668   8.845 -0.8671  0.1563 -0.2876
  822MOL0     C 8394  -0.041   3.787   8.909  0.0941 -1.1297 -0.5878
  822MOL0     C 8395  -0.143   3.739   9.014  1.1124 -0.1190 -0.2135
  822MOL0     O 8396  -0.224   3.633   8.952  0.7546  0.0641 -0.4481
  822MOL0     C 8397  -0.340   3.617   9.020 -0.3414 -0.1091 -0.3696
  822MOL0     C 8398  -0.472   3.647   8.980  1.0083 -0.5125 -0.1288
  822MOL0     C 8399  -0.586   3.640   9.063  0.4838  0.0818 -0.0510
  822MOL0     C 8400  -0.574   3.588   9.195 -0.0270  0.5444 -0.4117
  822MOL0     C 8401  -0.705   3.565   9.271  0.0805 -0.3948  0.0429
  822MOL0     O 8402  -0.691   3.511   9.394 -0.0671 -0.1102  0.4418
  822MOL0     C 8403  -0.791   3.511   9.484  0.9667  0.5817  0.2095
  822MOL0     C 8404  -0.799   3.394   9.569 -0.5700  0.7108 -0.3419
  822MOL0     C 8405  -0.880   3.393   9.681  0.1193 -0.0710  0.0872
  822MOL0     C 8406  -0.961   3.497   9.712  0.3931 -0.9886 -0.2032
  822MOL0     O 8407  -1.023   3.519   9.836 -0.2404  0.1072 -0.6308
  822MOL0     C 8408  -1.039   3.410   9.927 -0.6763  0.1587  0.5353
  822MOL0     C 8409  -0.905   3.387  10.012  0.7720  0.7347  0.1088
  822MOL0     C 8410  -0.907   3.248  10.082  0.5788  0.1200 -0.6404
  822MOL0     C 8411  -0.761   3.219  10.110 -1.2800 -1.5241  0.2199
  822MOL0     C 8412  -0.749   3.073  10.163  0.5443 -0.0411  0.9597
  822MOL0     C 8413  -0.785   3.054  10.314 -0.1780  0.1222  0.1084
  822MOL0     C 8414  -0.718   2.927  10.369  0.0147 -0.2286 -0.3218
  822MOL0     C 8415  -0.757   2.898  10.515  0.0700 -0.2107  0.7198
  822MOL0    Cl 8416  -0.702   3.036  10.615 -0.4321 -0.2716 -0.2261
  822MOL0     C 8417  -0.967   3.607   9.627 -0.4156 -0.6239  0.1982
  822MOL0     C 8418  -0.893   3.609   9.507 -0.2379 -0.4263  0.8162
  822MOL0     O 8419  -0.810   3.591   9.216  0.3165 -0.2791 -0.5113
  822MOL0     C 8420  -0.449   3.530   9.233 -0.2638 -0.6821 -0.1828
  822MOL0     C 8421  -0.330   3.546   9.142  0.1728  0.5936 -0.4723
  822MOL0     N 8422   0.083   3.421   8.582  0.3752  1.2213 -0.2726
  822MOL0     N 8423   0.085   3.292   8.593 -0.2254  0.4379 -0.0159
  822MOL0     C 8424   0.904   2.668   9.162 -0.1196 -0.4644  0.1369
  822MOL0     C 8425   1.027   2.597   9.178  0.6344  0.2016  0.0636
  822MOL0     C 8426   1.461   2.513   9.319 -0.2598 -0.3208 -0.1827
  822MOL0     C 8427   1.592   2.555   9.334  0.5429  0.5369 -0.6372
  822MOL0     C 8428   1.685   2.468   9.395  0.1616  0.7208  0.7639
  822MOL0     C 8429   1.638   2.349   9.444 -0.9294 -0.6121  0.6631
  822MOL0     O 8430   1.715   2.266   9.519  0.0181 -0.8727 -0.2496
  822MOL0     C 8431   1.729   2.323   9.643  0.0253  0.1528 -0.8117
  822MOL0     C 8432   1.830   2.226   9.716  0.1072 -0.8685 -0.8632
  822MOL0     C 8433   1.818   2.234   9.867  0.2390 -0.7468 -0.2629
  822MOL0     C 8434   1.872   2.108   9.924 -0.1709  0.5227 -0.6045
  822MOL0     C 8435   1.901   2.109  10.065  0.4449  0.9300 -0.5054
  822MOL0     C 8436   1.931   2.098  10.184  0.3381  0.1082  1.0930
  822MOL0     C 8437   1.511   2.309   9.423  0.1800  0.1005  0.1198
  822MOL0     C 8438   1.423   2.378   9.348  0.1872 -0.7883  0.2113
  822MOL0     H 8439   1.188   2.782   9.399 -0.8351 -1.2162  2.0341
  822MOL0     H 8440   1.004   2.937   9.350 -2.4571 -0.0910  1.6541
  822MOL0     H 8441   0.768   2.858   9.000  4.3127  0.7466 -0.5264
  822MOL0     H 8442   0.828   3.009   9.066  0.2055  0.6529  2.9643
  822MOL0     H 8443   0.606   3.048   9.189 -1.1016  1.3054 -0.9693
  822MOL0     H 8444   0.544   2.894   9.129 -0.2193 -0.1236  0.4008
  822MOL0     H 8445   0.613   3.002   8.886  1.7221  2.5604  0.4977
  822MOL0     H 8446   0.584   3.148   8.987 -0.3620 -0.2336  5.2962
  822MOL0     H 8447   0.366   2.935   8.980 -0.8409 -0.2191  0.9447
  822MOL0     H 8448   0.363   3.098   9.008  0.6269 -1.0713  1.4989
  822MOL0     H 8449   0.455   2.959   8.742 -1.0805 -2.9663  2.4648
  822MOL0     H 8450   0.440   3.135   8.745  1.6388 -0.4376  1.4370
  822MOL0     H 8451   0.207   2.941   8.735  0.6219  0.5026  1.4641
  822MOL0     H 8452   0.244   3.081   8.631  1.4424  1.6869  0.5582
  822MOL0     H 8453   0.151   3.076   8.922 -1.2085  1.2640  0.1208
  822MOL0     H 8454   0.210   3.219   8.840 -0.4770 -0.4645 -0.3815
  822MOL0     H 8455  -0.046   3.134   8.859  2.1394  2.6719  0.6569
  822MOL0     H 8456  -0.006   3.044   8.714 -0.0394  0.9252 -1.6877
  822MOL0     H 8457  -0.088   3.401   8.844  2.7697 -2.7186  2.1376
  822MOL0     H 8458  -0.134   3.622   8.705 -0.7446 -1.1864  0.3597
  822MOL0     H 8459   0.012   3.690   8.634 -1.3564 -1.2963 -3.3243
  822MOL0     H 8460   0.141   3.683   8.844 -0.7979 -0.0562  1.4132
  822MOL0     H 8461   0.019   3.578   8.906 -0.8648  0.2197 -0.1927
  822MOL0     H 8462   0.029   3.848   8.966 -1.2713 -2.3230  2.5940
  822MOL0     H 8463  -0.080   3.851   8.830 -0.5842  1.7435  1.9239
  822MOL0     H 8464  -0.202   3.825   9.046  4.5388  1.6981  1.8083
  822MOL0     H 8465  -0.095   3.700   9.104  1.3062 -2.2552 -1.1901
  822MOL0     H 8466  -0.468   3.701   8.886 -2.1387 -1.5717 -0.9721
  822MOL0     H 8467  -0.688   3.665   9.035 -0.5625 -2.5373  1.0352
  822MOL0     H 8468  -0.725   3.317   9.551  2.1026  2.4487  2.1952
  822MOL0     H 8469  -0.902   3.295   9.722 -0.9539  0.9278  2.0154
  822MOL0     H 8470  -1.077   3.328   9.866 -1.5989  1.9270 -1.3978
  822MOL0     H 8471  -1.110   3.439  10.006  0.0695 -0.1613  1.3448
  822MOL0     H 8472  -0.892   3.466  10.087 -0.2798  1.5409 -0.5212
  822MOL0     H 8473  -0.815   3.391   9.950  2.1065 -1.8725  1.6878
  822MOL0     H 8474  -0.950   3.170  10.018  3.2727 -3.2186  1.3020
  822MOL0     H 8475  -0.966   3.234  10.173 -1.0690 -2.5392 -1.9744
  822MOL0     H 8476  -0.702   3.236  10.020 -0.4207  2.6355  1.3607
  822MOL0     H 8477  -0.718   3.284  10.187 -0.8513 -0.4401 -0.9123
  822MOL0     H 8478  -0.647   3.041  10.138 -0.4890 -2.3768 -0.6606
  822MOL0     H 8479  -0.825   3.015  10.110  1.2864  0.8778 -1.2074
  822MOL0     H 8480  -0.895   3.053  10.314 -0.4014 -3.2281 -3.7801
  822MOL0     H 8481  -0.747   3.137  10.373 -0.5716 -0.7695  1.6747
  822MOL0     H 8482  -0.764   2.849  10.306  1.7533 -0.3689 -1.4894
  822MOL0     H 8483  -0.611   2.925  10.346 -0.5412 -1.9618 -3.3374
  822MOL0     H 8484  -0.715   2.801  10.544  2.4150  0.4005 -0.4141
  822MOL0     H 8485  -0.865   2.883  10.526  0.1671 -0.1288  1.9355
  822MOL0     H 8486  -1.031   3.688   9.661 -1.0611 -1.1564  0.2763
  822MOL0     H 8487  -0.888   3.701   9.451  4.0462 -1.2771 -0.5129
  822MOL0     H 8488  -0.454   3.484   9.332  0.5256 -0.2869  0.0387
  822MOL0     H 8489  -0.234   3.505   9.172 -0.6097 -0.8738  0.1187
  822MOL0     H 8490   0.822   2.626   9.104  1.5617  1.8970 -4.4040
  822MOL0     H 8491   1.034   2.502   9.126 -1.6157  1.2926 -2.4472
  822MOL0     H 8492   1.631   2.655   9.313  0.3318  0.8282  0.3277
  822MOL0     H 8493   1.788   2.497   9.414  1.0374 -2.4259  1.5162
  822MOL0     H 8494   1.635   2.305   9.695  1.6252  0.3179  2.4492
  822MOL0     H 8495   1.763   2.427   9.649 -0.5142  0.2918  0.0309
  822MOL0     H 8496   1.792   2.132   9.674  0.7007  0.4620 -4.8303
  822MOL0     H 8497   1.933   2.245   9.684  0.4938  3.7321  2.1371
  822MOL0     H 8498   1.717   2.255   9.901  0.9381  2.0071  0.3518
  822MOL0     H 8499   1.890   2.302   9.915 -0.7904  0.2221 -0.0574
  822MOL0     H 8500   1.800   2.030   9.900  0.6755 -0.4115 -0.1633
  822MOL0     H 8501   1.966   2.085   9.873  1.9348  2.5281  2.0616
  822MOL0     H 8502   1.950   2.084  10.288  0.6832  1.8012  1.2968
  822MOL0     H 8503   1.495   2.206   9.454  1.4434  0.5516  2.5333
  822MOL0     H 8504   1.325   2.332   9.335  0.1555 -0.8419  0.6029
  823MOL0     O 8505   1.038   3.199   5.358  0.5155  0.7081 -0.9201
  823MOL0     C 8506   1.135   3.273   5.333 -0.3417  0.4969 -0.0710
  823MOL0     O 8507   1.157   3.330   5.216 -0.2624  0.1702  0.3253
  823MOL0     C 8508   1.083   3.315   5.106 -1.1339 -0.0106 -0.6909
  823MOL0     C 8509   1.139   3.228   4.999 -0.9241 -0.6452 -0.6357
  823MOL0     C 8510   1.053   3.197   4.902 -0.5715  0.3398 -0.1838
  823MOL0     C 8511   0.912   3.230   4.902  0.1265  0.0681 -0.6228
  823MOL0     O 8512   0.829   3.173   4.809 -1.2145  0.0267 -0.3717
  823MOL0     C 8513   0.857   3.199   4.661 -1.1891 -1.0369 -0.9458
  823MOL0     C 8514   0.922   3.086   4.588 -0.1728  0.2299  0.1317
  823MOL0     C 8515   0.828   2.977   4.551 -0.2415  0.6512  0.5438
  823MOL0     C 8516   0.729   3.021   4.440 -0.4083 -0.7042 -0.1551
  823MOL0     C 8517   0.631   2.910   4.406 -0.3532  0.4253 -0.8497
  823MOL0     C 8518   0.692   2.775   4.360  0.0122  0.2829 -0.1976
  823MOL0     C 8519   0.596   2.704   4.275 -0.3919  0.5841 -0.2514
  823MOL0     C 8520   0.657   2.575   4.214 -0.1464  0.9376  0.5297
  823MOL0     N 8521   0.560   2.505   4.130 -0.3270 -0.2868  0.4378
  823MOL0     C 8522   0.474   2.415   4.170  0.9899  0.2833 -0.1781
  823MOL0     C 8523   0.400   2.377   4.065  0.0589 -0.4761  0.4995
  823MOL0     C 8524   0.286   2.282   4.062  0.0962  0.0421  0.1853
  823MOL0     C 8525   0.312   2.138   4.095  0.8054  0.9561 -1.1641
  823MOL0     C 8526   0.186   2.049   4.071 -1.3564 -0.0830  0.0308
  823MOL0     C 8527   0.220   1.898   4.076 -0.7252 -0.6104  0.4365
  823MOL0     O 8528   0.104   1.817   4.100  0.1828 -0.1359  0.0251
  823MOL0     C 8529   0.123   1.679   4.117 -0.1352 -0.8612  0.5685
  823MOL0     C 8530   0.006   1.609   4.142  1.0489 -0.2124 -0.0723
  823MOL0     C 8531   0.006   1.473   4.150 -0.8444 -0.7220  0.3502
  823MOL0     C 8532   0.127   1.400   4.167  0.2846 -0.0987 -0.2381
  823MOL0     C 8533   0.112   1.257   4.172 -0.4983 -0.6868  0.4972
  823MOL0     O 8534   0.216   1.188   4.122 -0.6942  0.6363 -0.2732
  823MOL0     C 8535   0.216   1.051   4.136  0.1798 -0.2159 -1.3996
  823MOL0     C 8536   0.136   0.976   4.056 -0.6605  1.0640 -0.2504
  823MOL0     C 8537   0.128   0.838   4.094 -0.2324 -0.8235 -0.8644
  823MOL0     C 8538   0.219   0.777   4.187  0.5735  0.4566 -1.1578
  823MOL0     O 8539   0.213   0.639   4.221 -0.0369 -0.0433  0.3170
  823MOL0     C 8540   0.207   0.608   4.358  0.6327 -0.1008 -1.1109
  823MOL0     C 8541   0.072   0.542   4.379 -0.0132 -0.8282 -0.3452
  823MOL0     C 8542   0.069   0.510   4.531 -0.4288 -0.2073 -0.7382
  823MOL0     C 8543  -0.058   0.428   4.557  0.4713 -0.3601  0.0399
  823MOL0     C 8544  -0.052   0.300   4.646 -0.0267  0.1833 -0.5195
  823MOL0     C 8545  -0.026   0.339   4.795 -0.1776 -0.4654  0.8336
  823MOL0     C 8546  -0.012   0.220   4.882 -1.0759 -0.0733 -0.8425
  823MOL0     C 8547   0.082   0.105   4.825 -0.5192 -0.0431  0.3975
  823MOL0    Cl 8548   0.103  -0.036   4.936  0.2653  0.5493  0.3700
  823MOL0     C 8549   0.305   0.869   4.258  0.4524  0.3628 -0.3303
  823MOL0     C 8550   0.296   1.001   4.231 -0.4111 -0.2271  0.9150
  823MOL0     O 8551   0.004   1.204   4.197  0.0936 -0.3090  1.0297
  823MOL0     C 8552   0.248   1.469   4.153 -1.6889 -1.0952 -0.5193
  823MOL0     C 8553   0.246   1.610   4.125  0.4349 -1.0443  0.2274
  823MOL0     N 8554   0.440   2.448   3.955 -0.1151 -0.2222 -0.0957
  823MOL0     N 8555   0.532   2.524   3.998  0.6138 -0.1496  0.0850
  823MOL0     C 8556   0.867   3.319   5.002  0.3465 -0.2216  0.0802
  823MOL0     C 8557   0.951   3.362   5.097 -0.6971  0.0799 -0.4219
  823MOL0     C 8558   1.241   3.280   5.438 -0.6629 -0.1678  0.9346
  823MOL0     C 8559   1.376   3.323   5.417 -0.5620  0.1757  0.2214
  823MOL0     C 8560   1.470   3.345   5.515 -0.1186 -1.0229 -0.3288
  823MOL0     C 8561   1.443   3.316   5.642  1.2593 -0.6987 -0.5341
  823MOL0     O 8562   1.531   3.314   5.746  0.3424 -0.2233 -0.3943
  823MOL0     C 8563   1.672   3.354   5.730  0.2008  0.2634  0.1202
  823MOL0     C 8564   1.742   3.285   5.843 -0.2376  0.4708  1.1129
  823MOL0     C 8565   1.730   3.129   5.859 -0.5538  0.5015 -0.2295
  823MOL0     C 8566   1.802   3.074   5.980 -0.0950  0.2873 -0.4952
  823MOL0     C 8567   1.940   3.119   5.999  0.9081 -0.1629 -0.4179
  823MOL0     C 8568   2.047   3.152   6.030 -0.2468 -0.4384 -0.7665
  823MOL0     C 8569   1.313   3.273   5.675  0.2396  0.1793 -0.4115
  823MOL0     C 8570   1.214   3.253   5.573  0.2329 -0.6820  0.7016
  823MOL0     H 8571   1.242   3.194   4.996 -1.5296 -3.5093  2.9970
  823MOL0     H 8572   1.078   3.128   4.822 -2.7316 -1.5408  0.6449
  823MOL0     H 8573   0.922   3.285   4.644 -1.5897 -0.5808 -0.2583
  823MOL0     H 8574   0.757   3.235   4.635 -0.4631  0.0944 -2.2921
  823MOL0     H 8575   1.003   3.035   4.641 -0.9961 -2.3415 -0.9624
  823MOL0     H 8576   0.963   3.125   4.494 -0.2961 -1.3229 -0.5818
  823MOL0     H 8577   0.769   2.937   4.633 -0.3622 -0.2195  0.0478
  823MOL0     H 8578   0.886   2.895   4.507  0.7562  1.5928  0.0394
  823MOL0     H 8579   0.664   3.096   4.486  0.1164  1.3274 -2.4836
  823MOL0     H 8580   0.781   3.071   4.357 -0.2012  0.7117  0.7797
  823MOL0     H 8581   0.551   2.937   4.337 -1.2507 -0.0355 -0.0264
  823MOL0     H 8582   0.578   2.885   4.499 -0.6738  0.6789 -0.9621
  823MOL0     H 8583   0.721   2.718   4.449 -1.7413  1.9050  1.4998
  823MOL0     H 8584   0.775   2.809   4.298 -0.8427  2.3887 -0.2754
  823MOL0     H 8585   0.504   2.685   4.330  1.9400  0.4553  4.0124
  823MOL0     H 8586   0.578   2.770   4.190 -1.6605 -1.2835 -1.5335
  823MOL0     H 8587   0.688   2.512   4.298 -0.4089  1.8996  1.3772
  823MOL0     H 8588   0.740   2.601   4.148 -3.1610 -0.3486 -4.3548
  823MOL0     H 8589   0.450   2.371   4.266 -4.8424  1.7038 -0.6080
  823MOL0     H 8590   0.262   2.294   3.956 -0.1045  3.2324  0.4795
  823MOL0     H 8591   0.208   2.322   4.128 -1.2073 -1.0635 -0.6103
  823MOL0     H 8592   0.346   2.128   4.198  0.9073 -1.3673 -1.3707
  823MOL0     H 8593   0.392   2.106   4.027  2.5520 -0.2138  1.3189
  823MOL0     H 8594   0.114   2.064   4.151 -1.3455  0.6916 -0.1018
  823MOL0     H 8595   0.152   2.076   3.971  0.5979 -0.3911 -0.7564
  823MOL0     H 8596   0.306   1.873   4.139 -0.1825 -0.4868 -0.2457
  823MOL0     H 8597   0.263   1.872   3.979 -0.8454 -2.0358  0.7425
  823MOL0     H 8598  -0.087   1.664   4.135  0.1862 -1.5996 -0.0131
  823MOL0     H 8599  -0.090   1.422   4.143 -1.8648  1.3107 -1.6627
  823MOL0     H 8600   0.065   1.017   3.985 -1.1591 -2.8837 -2.2972
  823MOL0     H 8601   0.072   0.761   4.042 -1.1506  0.1697 -1.3846
  823MOL0     H 8602   0.204   0.696   4.424 -3.3056 -0.8836  0.0502
  823MOL0     H 8603   0.295   0.546   4.374  1.7565  0.6409 -3.8910
  823MOL0     H 8604   0.073   0.449   4.321 -1.6553 -2.3646  1.8726
  823MOL0     H 8605  -0.004   0.608   4.336  1.6294 -0.9971 -3.8123
  823MOL0     H 8606   0.074   0.599   4.595  1.4937 -0.1012 -0.9948
  823MOL0     H 8607   0.159   0.456   4.560  0.6182  1.9129  0.1802
  823MOL0     H 8608  -0.124   0.498   4.608  1.3097  0.5995 -0.1547
  823MOL0     H 8609  -0.114   0.410   4.465 -1.8979 -1.1069  1.5461
  823MOL0     H 8610   0.022   0.239   4.594  2.1610  2.8864 -0.8193
  823MOL0     H 8611  -0.150   0.252   4.644 -0.6851  1.4550 -3.0462
  823MOL0     H 8612  -0.124   0.382   4.819 -1.4330 -2.4225 -0.4867
  823MOL0     H 8613   0.064   0.401   4.806  0.7048 -1.5296 -0.1764
  823MOL0     H 8614   0.041   0.258   4.970 -0.4995 -1.2301 -0.6761
  823MOL0     H 8615  -0.105   0.181   4.923  1.3939 -1.4574  4.2579
  823MOL0     H 8616   0.175   0.154   4.797 -0.3278 -0.3161  0.5496
  823MOL0     H 8617   0.028   0.068   4.738 -1.0994  1.9384 -0.1318
  823MOL0     H 8618   0.379   0.831   4.327  1.1089  3.2528  0.7011
  823MOL0     H 8619   0.379   1.066   4.257 -1.5671  1.5072  0.4922
  823MOL0     H 8620   0.343   1.418   4.160 -1.1508 -0.1246 -0.5799
  823MOL0     H 8621   0.342   1.658   4.117  0.7610 -1.9090 -1.7495
  823MOL0     H 8622   0.759   3.332   5.013  0.6184  1.6387  0.9609
  823MOL0     H 8623   0.920   3.426   5.179  0.0142 -0.3734  0.2061
  823MOL0     H 8624   1.396   3.352   5.315 -0.0722 -2.0093 -0.3452
  823MOL0     H 8625   1.565   3.377   5.474  0.2182  0.9489  1.7994
  823MOL0     H 8626   1.685   3.463   5.725 -2.8435  0.6691 -2.4115
  823MOL0     H 8627   1.711   3.313   5.636 -1.3768 -2.4357  0.5331
  823MOL0     H 8628   1.848   3.306   5.827  0.0987 -0.6786  1.6908
  823MOL0     H 8629   1.716   3.332   5.938 -1.2580  0.5750  0.7966
  823MOL0     H 8630   1.772   3.075   5.773  0.0368  0.4790  0.0710
  823MOL0     H 8631   1.625   3.100   5.848 -0.2913 -0.5893  0.0459
  823MOL0     H 8632   1.743   3.101   6.068  2.6606 -3.3193  2.8222
  823MOL0     H 8633   1.797   2.965   5.972 -0.8339  0.2048  0.8497
  823MOL0     H 8634   2.149   3.170   6.060 -0.9786  2.0597  0.4962
  823MOL0     H 8635   1.275   3.264   5.776 -1.3871  2.3933 -0.7444
  823MOL0     H 8636   1.115   3.226   5.608  1.6386 -1.5440  4.4302
  824MOL0     O 8637   1.640   3.125   4.850  0.7427  0.6324 -0.0417
  824MOL0     C 8638   1.590   3.099   4.958  0.2680 -0.3012 -0.5281
  824MOL0     O 8639   1.470   3.030   4.978  0.2828 -0.3303  0.5092
  824MOL0     C 8640   1.401   2.971   4.872  0.0244 -0.3267 -0.6065
  824MOL0     C 8641   1.325   2.857   4.901 -0.0845 -0.0574 -0.7761
  824MOL0     C 8642   1.273   2.782   4.799 -0.6477 -0.4315  0.0673
  824MOL0     C 8643   1.267   2.832   4.670 -0.2744 -0.1645  0.6796
  824MOL0     O 8644   1.202   2.759   4.578 -0.2730 -0.5182  0.2258
  824MOL0     C 8645   1.260   2.764   4.439  0.0012 -0.6198  0.5996
  824MOL0     C 8646   1.187   2.681   4.338 -0.1908  0.0499  0.2929
  824MOL0     C 8647   1.216   2.530   4.336 -0.7412 -0.5957 -0.2163
  824MOL0     C 8648   1.159   2.477   4.201 -0.4523  0.5997  0.2495
  824MOL0     C 8649   1.007   2.446   4.199  0.1786 -0.3368 -0.4424
  824MOL0     C 8650   0.952   2.356   4.074 -0.5279 -0.8118 -0.6284
  824MOL0     C 8651   0.963   2.424   3.940  0.7715  0.0900  0.0222
  824MOL0     C 8652   1.102   2.404   3.867  0.4271 -0.1203 -0.4290
  824MOL0     N 8653   1.096   2.476   3.734  0.2815 -0.8288 -0.4905
  824MOL0     C 8654   0.992   2.501   3.644  1.2564 -0.0112 -0.3761
  824MOL0     C 8655   1.054   2.561   3.542  0.0547  0.5722  0.6559
  824MOL0     C 8656   0.999   2.609   3.410 -0.1290 -0.3173 -0.2652
  824MOL0     C 8657   1.036   2.747   3.346 -0.5799  0.5862 -0.3316
  824MOL0     C 8658   0.999   2.872   3.427  0.2940  0.4305 -0.2003
  824MOL0     C 8659   1.124   2.966   3.434  0.4620  0.8045 -0.9252
  824MOL0     O 8660   1.189   3.001   3.315 -0.2307 -0.4524  0.3409
  824MOL0     C 8661   1.277   3.101   3.298 -0.2770 -0.2194 -0.9971
  824MOL0     C 8662   1.345   3.156   3.407 -0.5253 -0.4099 -0.5031
  824MOL0     C 8663   1.452   3.252   3.382 -0.2508 -0.2540 -0.1352
  824MOL0     C 8664   1.492   3.286   3.251  1.0510 -0.5421 -0.1376
  824MOL0     C 8665   1.611   3.369   3.222 -0.0885  0.9378  0.0709
  824MOL0     O 8666   1.644   3.379   3.093 -0.0654  0.0572 -0.7235
  824MOL0     C 8667   1.752   3.447   3.043  0.0257  1.2207  0.5107
  824MOL0     C 8668   1.819   3.563   3.086 -0.5670 -0.1481 -0.3593
  824MOL0     C 8669   1.933   3.611   3.018 -0.0036 -0.5104 -0.4365
  824MOL0     C 8670   1.967   3.549   2.891 -0.2292 -0.1832 -0.5994
  824MOL0     O 8671   2.072   3.599   2.828  0.2107  0.9615  0.4458
  824MOL0     C 8672   2.055   3.683   2.719  0.3583  0.2539  1.5027
  824MOL0     C 8673   2.179   3.673   2.634  0.1411 -0.1150  0.9994
  824MOL0     C 8674   2.285   3.779   2.670 -0.4921 -1.3147 -0.4791
  824MOL0     C 8675   2.418   3.784   2.593 -0.3058  0.6689 -0.3206
  824MOL0     C 8676   2.525   3.901   2.624  0.4007 -0.0844  0.2381
  824MOL0     C 8677   2.606   3.870   2.752  0.5930  0.0704 -0.1189
  824MOL0     C 8678   2.710   3.976   2.784  0.6276  0.1413  0.0642
  824MOL0     C 8679   2.794   3.940   2.909  0.5748 -0.3032  0.4936
  824MOL0    Cl 8680   2.893   4.077   2.963  0.2574 -0.2937  0.4296
  824MOL0     C 8681   1.879   3.454   2.843 -0.0965  0.4619 -0.1354
  824MOL0     C 8682   1.781   3.394   2.912  0.4950 -0.5583  0.1012
  824MOL0     O 8683   1.662   3.424   3.322  0.8024  0.1009  0.7194
  824MOL0     C 8684   1.415   3.231   3.149 -0.0537  0.5583  0.1231
  824MOL0     C 8685   1.310   3.143   3.177 -1.0994 -1.5575  0.6603
  824MOL0     N 8686   1.188   2.568   3.562  0.3674 -1.0372 -0.2390
  824MOL0     N 8687   1.210   2.513   3.676 -0.1176 -0.0396  0.1070
  824MOL0     C 8688   1.315   2.958   4.647 -0.3379  0.5322  0.6371
  824MOL0     C 8689   1.385   3.030   4.746  0.9292 -0.1233 -0.3116
  824MOL0     C 8690   1.671   3.119   5.070 -1.3388  0.6268 -0.0096
  824MOL0     C 8691   1.613   3.122   5.195  0.3124  0.2439 -0.8411
  824MOL0     C 8692   1.695   3.121   5.308 -1.1762  0.5095  0.4695
  824MOL0     C 8693   1.836   3.108   5.293  0.4245  0.3039  0.1596
  824MOL0     O 8694   1.909   3.137   5.411  0.2825 -0.3657  0.2691
  824MOL0     C 8695   2.049   3.108   5.424  0.3900  0.3200 -0.6448
  824MOL0     C 8696   2.102   3.147   5.556  0.7245 -0.8778 -0.9315
  824MOL0     C 8697   2.252   3.114   5.576 -0.7538  1.1020  0.1631
  824MOL0     C 8698   2.286   3.051   5.711 -0.5568  0.8881 -0.2843
  824MOL0     C 8699   2.428   3.035   5.714 -0.0337  0.2063  0.6411
  824MOL0     C 8700   2.547   3.016   5.702  0.9839  0.9824  0.2684
  824MOL0     C 8701   1.893   3.107   5.172  0.8935  0.4574  1.1552
  824MOL0     C 8702   1.814   3.118   5.061 -0.4689  0.3222 -0.4532
  824MOL0     H 8703   1.328   2.803   4.995  0.5377  0.7305 -0.3351
  824MOL0     H 8704   1.238   2.680   4.810  0.8922 -0.9494  0.4206
  824MOL0     H 8705   1.360   2.721   4.450 -0.4360 -2.0378 -0.6826
  824MOL0     H 8706   1.256   2.862   4.390 -3.5761 -0.5441  0.8193
  824MOL0     H 8707   1.201   2.730   4.241  2.2481 -1.7745 -0.3714
  824MOL0     H 8708   1.079   2.686   4.354 -0.1380  1.2625  0.3476
  824MOL0     H 8709   1.156   2.483   4.415 -1.4601  0.7378  0.0654
  824MOL0     H 8710   1.324   2.518   4.350 -0.9902 -0.7959  1.8652
  824MOL0     H 8711   1.189   2.538   4.115  2.6662  0.0124  0.8051
  824MOL0     H 8712   1.214   2.386   4.175  0.4987  1.4951 -1.0029
  824MOL0     H 8713   0.969   2.548   4.194  2.9065  0.7562 -0.3732
  824MOL0     H 8714   0.971   2.397   4.290 -3.5274  2.5275 -0.1138
  824MOL0     H 8715   0.845   2.344   4.094 -0.3265  1.7534  3.1045
  824MOL0     H 8716   0.998   2.258   4.058  2.6823  0.4749 -0.0254
  824MOL0     H 8717   0.890   2.376   3.875  1.2917 -1.3418  0.4552
  824MOL0     H 8718   0.941   2.532   3.944 -2.5031 -0.4971  0.8287
  824MOL0     H 8719   1.129   2.298   3.860 -0.6391 -0.7070  2.5441
  824MOL0     H 8720   1.185   2.458   3.913 -1.7163  0.9034  2.5557
  824MOL0     H 8721   0.886   2.476   3.649  1.6163 -2.2799 -2.2575
  824MOL0     H 8722   0.890   2.606   3.419 -0.1347 -0.9632 -0.5160
  824MOL0     H 8723   1.020   2.527   3.341  0.7980  1.1843 -1.8270
  824MOL0     H 8724   0.997   2.753   3.244  3.8213 -0.6133 -2.3028
  824MOL0     H 8725   1.144   2.743   3.328 -0.5797  2.2092 -0.8903
  824MOL0     H 8726   0.911   2.929   3.394  0.1486  0.1101 -0.3735
  824MOL0     H 8727   0.974   2.837   3.527 -4.2402  1.7485 -0.6522
  824MOL0     H 8728   1.190   2.921   3.509 -1.2409 -0.9667 -0.4171
  824MOL0     H 8729   1.088   3.058   3.481 -2.1599  0.0892 -1.3977
  824MOL0     H 8730   1.315   3.127   3.508  0.9226 -0.8241 -0.1603
  824MOL0     H 8731   1.519   3.273   3.464 -0.1639  3.5647 -1.0157
  824MOL0     H 8732   1.803   3.611   3.182 -0.3212  0.2287 -0.5039
  824MOL0     H 8733   1.982   3.700   3.054  0.2050 -1.2038  1.0646
  824MOL0     H 8734   2.046   3.782   2.765  0.5092  0.9065  0.1688
  824MOL0     H 8735   1.965   3.660   2.662  0.8890 -0.7440  1.0489
  824MOL0     H 8736   2.157   3.685   2.527 -1.3315 -0.2145  1.2689
  824MOL0     H 8737   2.233   3.580   2.654  5.9072  2.7744  0.6489
  824MOL0     H 8738   2.320   3.750   2.769  1.5133 -0.9995 -1.0649
  824MOL0     H 8739   2.228   3.872   2.678  0.3833 -0.8314  0.3531
  824MOL0     H 8740   2.460   3.685   2.614 -2.6318 -0.3936 -0.3288
  824MOL0     H 8741   2.388   3.800   2.489  0.5670 -1.3850 -0.9405
  824MOL0     H 8742   2.468   3.992   2.644 -0.7328  0.1478 -3.2786
  824MOL0     H 8743   2.590   3.908   2.536 -0.2789 -1.8141 -0.4582
  824MOL0     H 8744   2.647   3.775   2.715 -5.1937 -2.5153 -0.9910
  824MOL0     H 8745   2.546   3.835   2.836 -1.8972  1.2630 -1.2923
  824MOL0     H 8746   2.775   3.981   2.696 -0.9249 -1.4017 -1.2275
  824MOL0     H 8747   2.663   4.074   2.791  3.3620  1.4610  2.0880
  824MOL0     H 8748   2.860   3.852   2.903 -0.0757 -0.6748 -2.1509
  824MOL0     H 8749   2.723   3.919   2.990  0.9430  0.1776  0.9507
  824MOL0     H 8750   1.907   3.410   2.748  2.9428 -0.3820  1.0176
  824MOL0     H 8751   1.732   3.312   2.861  1.2102  1.4176 -4.1676
  824MOL0     H 8752   1.452   3.252   3.049  2.1529 -0.1162  0.7485
  824MOL0     H 8753   1.260   3.093   3.095  1.0784 -1.3106 -0.9109
  824MOL0     H 8754   1.294   3.007   4.553 -0.8014 -1.6159 -0.4256
  824MOL0     H 8755   1.427   3.126   4.718 -1.5937  0.6452 -1.7915
  824MOL0     H 8756   1.508   3.129   5.221 -0.4499 -0.6025 -3.3514
  824MOL0     H 8757   1.658   3.118   5.410 -0.6026  0.5770  0.6865
  824MOL0     H 8758   2.100   3.157   5.341 -0.6013 -0.2653 -1.6168
  824MOL0     H 8759   2.047   3.000   5.407  0.6725  0.7065 -3.7150
  824MOL0     H 8760   2.077   3.252   5.569 -2.6273 -1.0836 -4.1482
  824MOL0     H 8761   2.039   3.087   5.623 -0.3577 -0.4255 -1.5245
  824MOL0     H 8762   2.293   3.215   5.573 -1.6005  1.5122  1.5042
  824MOL0     H 8763   2.273   3.055   5.486 -4.9804 -1.0382  0.3185
  824MOL0     H 8764   2.253   3.110   5.796  2.1537  1.8082  0.1935
  824MOL0     H 8765   2.237   2.953   5.710 -0.2803  0.6882 -3.0934
  824MOL0     H 8766   2.652   2.994   5.703  0.7766 -0.0912 -0.1216
  824MOL0     H 8767   1.999   3.088   5.162  0.9387  0.9925  0.5568
  824MOL0     H 8768   1.869   3.127   4.968 -0.7734 -0.3742 -0.7099
  825MOL0     O 8769   7.383   9.589   3.169  0.1657  0.2461  0.0091
  825MOL0     C 8770   7.499   9.541   3.164 -0.3263  0.4566 -1.4033
  825MOL0     O 8771   7.596   9.539   3.264  0.6680  0.3153 -0.5722
  825MOL0     C 8772   7.544   9.563   3.387  0.4893 -0.0836  0.0591
  825MOL0     C 8773   7.453   9.474   3.446 -0.3019  0.8537  0.0814
  825MOL0     C 8774   7.422   9.491   3.581  0.7366  0.4598  0.5422
  825MOL0     C 8775   7.467   9.593   3.654  0.8180  0.5412 -0.0386
  825MOL0     O 8776   7.419   9.617   3.778  0.6469  0.2463  1.0364
  825MOL0     C 8777   7.320   9.720   3.777  0.0382 -0.5201  0.7455
  825MOL0     C 8778   7.267   9.730   3.914 -0.1606 -0.0235 -1.1130
  825MOL0     C 8779   7.359   9.818   4.000  0.6711 -0.2875  0.2095
  825MOL0     C 8780   7.487   9.743   4.041  0.3878 -0.5495 -0.4371
  825MOL0     C 8781   7.577   9.834   4.137  0.3565 -0.2424 -0.2818
  825MOL0     C 8782   7.693   9.750   4.203  0.7167 -0.5084  0.3615
  825MOL0     C 8783   7.756   9.844   4.310 -0.8333  0.7115 -0.0162
  825MOL0     C 8784   7.863   9.781   4.391  0.5802 -0.0805 -0.6712
  825MOL0     N 8785   7.925   9.872   4.485  0.4499  0.5066  0.1123
  825MOL0     C 8786   7.968   9.997   4.456 -1.1421 -0.2093 -0.3810
  825MOL0     C 8787   8.016  10.025   4.574  0.3706 -0.0494  0.5342
  825MOL0     C 8788   8.074  10.164   4.597 -0.3028 -0.0207 -0.0446
  825MOL0     C 8789   7.986  10.283   4.566 -0.4650 -0.5102 -0.3497
  825MOL0     C 8790   8.069  10.410   4.599  0.2010  1.0389  0.3207
  825MOL0     C 8791   7.985  10.525   4.546 -0.0781  0.7158  0.1078
  825MOL0     O 8792   8.067  10.642   4.566  0.3620 -0.1763  0.1460
  825MOL0     C 8793   8.022  10.748   4.491  0.0711 -0.2443  0.4202
  825MOL0     C 8794   8.121  10.844   4.460  1.1427 -0.4516  0.1171
  825MOL0     C 8795   8.088  10.963   4.395  0.7920  0.2519 -0.6916
  825MOL0     C 8796   7.958  10.995   4.355  0.3870  0.5704 -0.4835
  825MOL0     C 8797   7.916  11.115   4.283 -0.0715  0.1743  0.0121
  825MOL0     O 8798   8.026  11.184   4.247 -0.8907 -0.0731  0.5736
  825MOL0     C 8799   8.015  11.312   4.201  0.2122 -0.2020 -0.3500
  825MOL0     C 8800   8.132  11.389   4.219  0.3062  0.1503  0.3357
  825MOL0     C 8801   8.148  11.523   4.167  0.5283  0.1479 -1.0329
  825MOL0     C 8802   8.054  11.556   4.068 -0.1865  0.9765 -0.6287
  825MOL0     O 8803   8.077  11.676   4.005  0.5099  0.7565  0.0320
  825MOL0     C 8804   8.012  11.720   3.879 -0.6811 -0.4246 -0.2245
  825MOL0     C 8805   8.046  11.664   3.743 -0.2885  0.1176  0.8512
  825MOL0     C 8806   7.971  11.536   3.704  1.0524  0.8547  0.2248
  825MOL0     C 8807   7.999  11.488   3.564 -0.4310 -0.6512 -0.3893
  825MOL0     C 8808   7.892  11.410   3.499 -0.1241  0.9362  0.1933
  825MOL0     C 8809   7.919  11.265   3.462  0.1131  0.9285  0.0218
  825MOL0     C 8810   7.973  11.188   3.579  1.1777  0.3482  0.0414
  825MOL0     C 8811   7.863  11.179   3.696  0.2039 -0.1727  1.0576
  825MOL0    Cl 8812   7.722  11.086   3.627 -0.1715  0.2509 -0.1454
  825MOL0     C 8813   7.944  11.484   4.046  0.0948  0.0774  0.6170
  825MOL0     C 8814   7.920  11.359   4.107  0.1584 -0.6295 -0.3305
  825MOL0     O 8815   7.800  11.151   4.263  0.3729  0.2417 -0.4724
  825MOL0     C 8816   7.860  10.899   4.379 -0.0775  1.3173 -0.4348
  825MOL0     C 8817   7.889  10.774   4.444 -0.3860 -0.4421 -0.5810
  825MOL0     N 8818   8.003   9.940   4.674 -0.0168 -0.2752  0.7640
  825MOL0     N 8819   7.951   9.842   4.619 -0.9426  0.4368 -0.4957
  825MOL0     C 8820   7.569   9.675   3.598  1.3019 -0.9741 -0.3888
  825MOL0     C 8821   7.610   9.663   3.464 -0.0198 -0.6464 -0.0683
  825MOL0     C 8822   7.538   9.477   3.032  0.5877 -0.7619 -0.6213
  825MOL0     C 8823   7.670   9.447   3.000  0.5383 -0.4453  0.1618
  825MOL0     C 8824   7.698   9.385   2.879 -0.0645  0.0001 -0.2412
  825MOL0     C 8825   7.599   9.355   2.784  0.0328 -0.8498 -0.6872
  825MOL0     O 8826   7.619   9.295   2.665 -0.0320 -0.6868  0.1525
  825MOL0     C 8827   7.755   9.267   2.633  0.1292  0.5266  0.1868
  825MOL0     C 8828   7.778   9.197   2.506  0.5274  0.6339  0.2206
  825MOL0     C 8829   7.717   9.272   2.393 -0.2807 -0.9106  0.9909
  825MOL0     C 8830   7.774   9.221   2.268 -0.5222  0.6925  0.5254
  825MOL0     C 8831   7.726   9.086   2.228 -0.4659  0.1181  1.0666
  825MOL0     C 8832   7.673   8.986   2.198  0.1833  1.4401  0.0711
  825MOL0     C 8833   7.466   9.387   2.817  0.4200 -1.0370 -0.1773
  825MOL0     C 8834   7.432   9.445   2.942 -0.9581  1.3504 -0.4202
  825MOL0     H 8835   7.417   9.383   3.400  1.5944 -0.4063  0.9215
  825MOL0     H 8836   7.339   9.431   3.616  0.3471  1.9652  2.3727
  825MOL0     H 8837   7.247   9.706   3.697  0.5840 -1.6033  0.4153
  825MOL0     H 8838   7.371   9.812   3.745  2.8605 -2.1313  0.2676
  825MOL0     H 8839   7.267   9.631   3.959 -2.8101  0.9862  1.4233
  825MOL0     H 8840   7.167   9.775   3.921 -1.4281 -2.9695  1.7837
  825MOL0     H 8841   7.309   9.856   4.090  1.9969 -0.7756  1.1938
  825MOL0     H 8842   7.391   9.907   3.945 -0.6281  1.5136  2.2244
  825MOL0     H 8843   7.463   9.653   4.097 -1.5061  2.2546  3.7371
  825MOL0     H 8844   7.538   9.731   3.945 -1.7177  4.5216 -2.5976
  825MOL0     H 8845   7.508   9.869   4.215 -0.7052 -0.7207 -0.9934
  825MOL0     H 8846   7.614   9.923   4.084  1.2642  0.4440  1.3996
  825MOL0     H 8847   7.759   9.734   4.117 -1.8021 -4.4534 -1.1394
  825MOL0     H 8848   7.664   9.653   4.245 -1.2990 -0.2600 -0.3228
  825MOL0     H 8849   7.812   9.923   4.259  0.3430  2.8210  4.1112
  825MOL0     H 8850   7.689   9.901   4.374 -1.9461 -1.1158  0.5145
  825MOL0     H 8851   7.946   9.746   4.329  0.4133 -0.5134 -0.6571
  825MOL0     H 8852   7.823   9.694   4.445 -0.6451 -2.3331 -4.7742
  825MOL0     H 8853   7.973  10.060   4.368  2.8111 -0.1181 -0.2555
  825MOL0     H 8854   8.159  10.152   4.529  2.0365 -4.1312  3.1554
  825MOL0     H 8855   8.115  10.162   4.698  0.3424  1.1129 -0.2629
  825MOL0     H 8856   7.892  10.282   4.623 -1.3216  2.2511 -1.5335
  825MOL0     H 8857   7.956  10.288   4.461  0.7557  1.1216 -0.6653
  825MOL0     H 8858   8.083  10.420   4.707  1.3540 -0.1163  0.2945
  825MOL0     H 8859   8.164  10.412   4.546 -0.4985 -3.5029 -1.5168
  825MOL0     H 8860   7.895  10.538   4.607  1.7843  1.6749  2.8288
  825MOL0     H 8861   7.960  10.512   4.440  1.6969  1.4453 -0.4329
  825MOL0     H 8862   8.225  10.830   4.488  1.0197 -0.1851  0.7400
  825MOL0     H 8863   8.168  11.028   4.363 -1.3545  1.8739 -3.1426
  825MOL0     H 8864   8.217  11.342   4.269 -0.7041 -0.5440  1.4618
  825MOL0     H 8865   8.236  11.585   4.178  1.3081 -1.1976  0.8015
  825MOL0     H 8866   8.037  11.826   3.873  0.2139 -0.5506  0.9420
  825MOL0     H 8867   7.905  11.714   3.895 -0.7020 -0.1529 -0.2486
  825MOL0     H 8868   8.153  11.642   3.743 -0.4764 -0.8968 -0.1298
  825MOL0     H 8869   8.033  11.737   3.663  0.6926 -0.9991 -0.3685
  825MOL0     H 8870   7.863  11.557   3.706  0.7423 -0.2384 -1.9916
  825MOL0     H 8871   7.987  11.450   3.770 -0.3063 -0.9621 -1.6958
  825MOL0     H 8872   8.018  11.579   3.505  1.8697  1.2412  2.8634
  825MOL0     H 8873   8.102  11.450   3.574  1.3770  3.7789  0.4240
  825MOL0     H 8874   7.889  11.451   3.397  0.7497 -1.1609 -0.7384
  825MOL0     H 8875   7.796  11.416   3.551 -1.0710 -2.3190 -0.8898
  825MOL0     H 8876   7.992  11.251   3.383 -1.5722 -1.4345 -1.2285
  825MOL0     H 8877   7.826  11.237   3.411  0.8769 -0.9616 -0.4001
  825MOL0     H 8878   7.988  11.084   3.549 -2.5119  0.0363 -1.2629
  825MOL0     H 8879   8.066  11.222   3.625  2.8158 -0.8786 -2.1432
  825MOL0     H 8880   7.829  11.280   3.718 -0.0073  0.4130 -1.6286
  825MOL0     H 8881   7.917  11.127   3.775  1.8149  2.6135  1.9313
  825MOL0     H 8882   7.866  11.518   3.978  0.9681 -3.3523 -2.4179
  825MOL0     H 8883   7.841  11.300   4.062  0.2570  0.4848 -2.0335
  825MOL0     H 8884   7.758  10.913   4.342  0.9332  2.4765 -3.0069
  825MOL0     H 8885   7.806  10.704   4.451  0.6315 -1.5505  1.4249
  825MOL0     H 8886   7.608   9.756   3.659  2.5837  1.0427 -3.6554
  825MOL0     H 8887   7.697   9.714   3.422 -1.1755  0.7700 -0.8132
  825MOL0     H 8888   7.753   9.483   3.061 -2.7962  2.0373  3.7423
  825MOL0     H 8889   7.801   9.358   2.857 -0.0630  0.6048 -1.0278
  825MOL0     H 8890   7.789   9.191   2.705  1.3980 -0.5614 -1.4939
  825MOL0     H 8891   7.820   9.354   2.638  0.1799  0.6533 -1.8897
  825MOL0     H 8892   7.884   9.170   2.493  0.3372 -0.1190  0.1894
  825MOL0     H 8893   7.725   9.101   2.501  1.5258  0.0690  0.0984
  825MOL0     H 8894   7.741   9.377   2.415 -0.0847 -1.3050  2.8195
  825MOL0     H 8895   7.609   9.259   2.404 -0.7673 -0.5970 -2.3695
  825MOL0     H 8896   7.751   9.294   2.190 -0.9829  0.5286  0.5031
  825MOL0     H 8897   7.883   9.208   2.272 -0.7096 -0.6667  3.1996
  825MOL0     H 8898   7.615   8.902   2.167  0.4717  1.3350 -0.1922
  825MOL0     H 8899   7.385   9.371   2.746 -0.8316 -0.8132  1.1482
  825MOL0     H 8900   7.326   9.461   2.959 -1.1784 -0.4155  0.0596
  826MOL0     O 8901   2.833   9.282   2.131  0.1258  0.4885  0.0080
  826MOL0     C 8902   2.728   9.312   2.074 -0.5572 -0.6465  0.4175
  826MOL0     O 8903   2.604   9.288   2.124 -0.5934  0.0062 -0.1919
  826MOL0     C 8904   2.575   9.249   2.255 -0.1660 -0.1596  0.5582
  826MOL0     C 8905   2.654   9.180   2.346  0.5494 -0.4032 -0.2874
  826MOL0     C 8906   2.593   9.151   2.474 -0.1336  0.7765  0.1156
  826MOL0     C 8907   2.464   9.182   2.509  0.0959 -0.3638  0.5489
  826MOL0     O 8908   2.432   9.152   2.638  0.8153  0.3792  0.1770
  826MOL0     C 8909   2.360   9.257   2.708  0.5825 -0.2678  0.1556
  826MOL0     C 8910   2.218   9.199   2.748  1.0907  0.1402  0.2785
  826MOL0     C 8911   2.131   9.315   2.809 -0.1110 -0.4423  0.6624
  826MOL0     C 8912   2.001   9.243   2.866  0.3440  0.8505  0.5825
  826MOL0     C 8913   1.910   9.341   2.951 -0.3275  1.2696 -0.8254
  826MOL0     C 8914   1.798   9.398   2.867  0.7772 -0.7281  0.5498
  826MOL0     C 8915   1.717   9.488   2.963  0.5543 -0.6543  1.1492
  826MOL0     C 8916   1.577   9.538   2.896 -0.2084 -0.3711  0.1872
  826MOL0     N 8917   1.475   9.579   2.990  0.4156  0.2391 -0.2131
  826MOL0     C 8918   1.496   9.646   3.113  0.0335 -0.0867 -0.3153
  826MOL0     C 8919   1.360   9.649   3.159 -1.2293  0.4230 -0.2660
  826MOL0     C 8920   1.316   9.714   3.285 -0.8835 -0.4867  0.8228
  826MOL0     C 8921   1.310   9.865   3.252 -0.0563 -0.0880 -0.0120
  826MOL0     C 8922   1.241   9.946   3.369 -0.7588 -0.2726  0.3672
  826MOL0     C 8923   1.082   9.938   3.371 -1.1126  0.4918  0.2753
  826MOL0     O 8924   1.035   9.836   3.454 -0.0495 -0.7100 -0.2824
  826MOL0     C 8925   1.016   9.869   3.596  0.6388 -0.1464  1.0211
  826MOL0     C 8926   0.905   9.940   3.645 -1.2639 -0.0184  0.6979
  826MOL0     C 8927   0.885   9.950   3.786  0.6182 -0.3197 -1.0351
  826MOL0     C 8928   0.979   9.901   3.886  0.0714  0.0961 -0.1233
  826MOL0     C 8929   0.961   9.917   4.029  0.4227 -0.1026  0.3029
  826MOL0     O 8930   0.849   9.988   4.067  0.5397 -0.4253 -0.7582
  826MOL0     C 8931   0.829  10.008   4.202 -0.6742  0.5358 -0.2778
  826MOL0     C 8932   0.704   9.972   4.253  0.9683 -0.3216  0.2422
  826MOL0     C 8933   0.671   9.987   4.389 -1.0522 -1.4352 -0.4030
  826MOL0     C 8934   0.769  10.022   4.487  0.3989 -0.2783  0.1372
  826MOL0     O 8935   0.747  10.022   4.616  0.5176 -0.2060 -0.2827
  826MOL0     C 8936   0.850   9.972   4.699  0.8875 -1.1013  1.0151
  826MOL0     C 8937   0.795   9.879   4.797  0.1205  0.0181 -0.1814
  826MOL0     C 8938   0.714   9.769   4.731  1.0777  0.6543  0.3965
  826MOL0     C 8939   0.660   9.664   4.831 -0.2971  0.2199 -0.2742
  826MOL0     C 8940   0.572   9.560   4.770  0.3019 -0.4060 -0.0526
  826MOL0     C 8941   0.628   9.488   4.644  0.3312  0.0424 -0.0965
  826MOL0     C 8942   0.752   9.398   4.678 -0.0819  0.2839 -0.6270
  826MOL0     C 8943   0.786   9.328   4.550 -0.0074  0.4295 -0.7462
  826MOL0    Cl 8944   0.896   9.195   4.572 -0.0172 -0.0675 -0.6630
  826MOL0     C 8945   0.893  10.067   4.431  0.8361 -0.6404  0.0047
  826MOL0     C 8946   0.926  10.063   4.295 -0.0492  0.1957 -0.5974
  826MOL0     O 8947   1.045   9.868   4.106  0.1623  0.1329  0.9166
  826MOL0     C 8948   1.102   9.851   3.831  0.9224  1.8211 -0.8511
  826MOL0     C 8949   1.105   9.834   3.693 -0.4467  0.2537 -0.6557
  826MOL0     N 8950   1.276   9.605   3.067  0.9173  0.5235  0.9939
  826MOL0     N 8951   1.342   9.554   2.964 -0.1678  0.3423 -0.4941
  826MOL0     C 8952   2.381   9.253   2.413 -0.6246 -0.1151  1.2618
  826MOL0     C 8953   2.441   9.289   2.286 -0.3610  0.7894  0.5026
  826MOL0     C 8954   2.728   9.371   1.940 -0.4591  0.2855  0.3252
  826MOL0     C 8955   2.844   9.426   1.888 -0.2359 -0.1509 -0.1322
  826MOL0     C 8956   2.841   9.509   1.779  0.5068 -0.4526 -0.1399
  826MOL0     C 8957   2.725   9.524   1.700  0.5962 -0.2017 -0.5251
  826MOL0     O 8958   2.704   9.600   1.588 -0.4298  0.7803  0.9773
  826MOL0     C 8959   2.791   9.706   1.553 -0.8446  0.3079  0.6512
  826MOL0     C 8960   2.731   9.758   1.428 -0.0559 -0.1372  0.2524
  826MOL0     C 8961   2.746   9.661   1.299  0.4946  1.6177 -0.9767
  826MOL0     C 8962   2.886   9.638   1.252 -0.1626  0.4644 -0.1647
  826MOL0     C 8963   2.945   9.762   1.204 -0.2705  0.6088 -0.7573
  826MOL0     C 8964   3.012   9.857   1.172  0.0946  0.2466  1.0418
  826MOL0     C 8965   2.609   9.458   1.750 -0.3462 -0.8208 -1.0071
  826MOL0     C 8966   2.607   9.394   1.868  0.0649  0.9147  0.0514
  826MOL0     H 8967   2.753   9.139   2.330  0.5811 -0.3864 -0.1355
  826MOL0     H 8968   2.655   9.090   2.540 -3.3011 -0.3373  2.2902
  826MOL0     H 8969   2.350   9.350   2.652  4.2920  0.1817 -0.0409
  826MOL0     H 8970   2.424   9.288   2.791  2.2077 -0.4953 -0.9523
  826MOL0     H 8971   2.242   9.125   2.825 -0.3878 -0.8465 -0.1671
  826MOL0     H 8972   2.172   9.142   2.667 -0.0538 -0.4338  1.2964
  826MOL0     H 8973   2.103   9.393   2.738 -0.4047 -0.9308  0.2271
  826MOL0     H 8974   2.181   9.373   2.887  2.7131  0.3300 -1.5452
  826MOL0     H 8975   1.932   9.200   2.791  2.5382 -3.6025  0.7757
  826MOL0     H 8976   2.034   9.157   2.925 -3.1319 -1.6795 -0.8128
  826MOL0     H 8977   1.968   9.418   3.004 -1.5859  1.2658  0.6494
  826MOL0     H 8978   1.867   9.276   3.028  0.9771  0.3893 -0.8153
  826MOL0     H 8979   1.723   9.324   2.835 -3.1491  2.1093  2.2655
  826MOL0     H 8980   1.842   9.451   2.783  1.4360  1.1892  2.0485
  826MOL0     H 8981   1.701   9.439   3.059  1.1702 -2.2883  0.4566
  826MOL0     H 8982   1.769   9.583   2.976 -3.4554  1.9515 -0.0013
  826MOL0     H 8983   1.527   9.456   2.843 -0.8600 -1.8457  2.9359
  826MOL0     H 8984   1.602   9.622   2.829 -1.6082 -0.3806 -0.3747
  826MOL0     H 8985   1.593   9.685   3.144 -0.1927 -1.2377  1.9843
  826MOL0     H 8986   1.379   9.688   3.371 -1.1922  1.9355  1.8740
  826MOL0     H 8987   1.216   9.679   3.315 -0.5646  0.4912  3.3037
  826MOL0     H 8988   1.266   9.887   3.154  0.9023  0.6798 -0.2829
  826MOL0     H 8989   1.415   9.891   3.239 -0.3097  1.2076  0.3241
  826MOL0     H 8990   1.278   9.912   3.467 -2.3547 -0.6728  0.8570
  826MOL0     H 8991   1.280  10.047   3.353 -0.0461 -0.4750  0.7747
  826MOL0     H 8992   1.046   9.916   3.270  0.8701  0.3162 -0.4448
  826MOL0     H 8993   1.034  10.033   3.395  0.4293  0.7343  2.7054
  826MOL0     H 8994   0.826   9.973   3.578 -0.3181  5.4570  1.7519
  826MOL0     H 8995   0.797   9.996   3.830  1.8549  0.6051  0.5668
  826MOL0     H 8996   0.620   9.952   4.187  2.2217  3.6905 -3.0174
  826MOL0     H 8997   0.569   9.960   4.416 -0.9922 -0.3363  0.9884
  826MOL0     H 8998   0.878  10.059   4.759 -0.5012 -1.6451  2.5304
  826MOL0     H 8999   0.930   9.928   4.639  0.0863 -0.3566 -0.7039
  826MOL0     H 9000   0.732   9.926   4.873  1.5608  1.8741 -0.0803
  826MOL0     H 9001   0.881   9.834   4.845  0.8908  0.3718 -1.1946
  826MOL0     H 9002   0.773   9.704   4.667  0.4673 -1.5665  1.9742
  826MOL0     H 9003   0.625   9.809   4.682  1.5849 -0.5953 -1.6395
  826MOL0     H 9004   0.753   9.616   4.862 -1.5025 -1.9255  0.2256
  826MOL0     H 9005   0.613   9.716   4.915  1.2376  1.3325 -0.0710
  826MOL0     H 9006   0.476   9.603   4.739  0.1972 -0.8724 -0.3989
  826MOL0     H 9007   0.541   9.493   4.850  1.3311  2.3980  2.8745
  826MOL0     H 9008   0.661   9.556   4.565  1.9231  2.8170  2.7138
  826MOL0     H 9009   0.552   9.422   4.602  0.6603 -0.2941 -0.1682
  826MOL0     H 9010   0.844   9.450   4.705  1.4586 -1.3431 -2.5158
  826MOL0     H 9011   0.733   9.324   4.756  1.0365  0.1117 -0.5047
  826MOL0     H 9012   0.829   9.399   4.478  0.3113 -1.2298 -2.2462
  826MOL0     H 9013   0.700   9.280   4.504 -2.4102  0.2474  3.4452
  826MOL0     H 9014   0.969  10.111   4.495 -0.7629  2.5493 -0.1324
  826MOL0     H 9015   1.025  10.104   4.280 -0.3558  2.7612  3.0919
  826MOL0     H 9016   1.193   9.816   3.880 -0.5528  0.0296  0.7217
  826MOL0     H 9017   1.201   9.794   3.661 -0.7898 -1.8987  0.8150
  826MOL0     H 9018   2.276   9.280   2.423 -0.1036  2.4194  0.6416
  826MOL0     H 9019   2.392   9.345   2.207 -1.2130  0.5695  0.8666
  826MOL0     H 9020   2.935   9.417   1.947 -0.4017  0.1515  0.1655
  826MOL0     H 9021   2.937   9.548   1.746 -0.8235  1.9123 -1.5425
  826MOL0     H 9022   2.894   9.675   1.535 -0.9565 -0.4168  1.2368
  826MOL0     H 9023   2.786   9.786   1.628  1.2222  1.6064 -0.4964
  826MOL0     H 9024   2.625   9.774   1.453 -0.7637 -0.9702 -1.9333
  826MOL0     H 9025   2.782   9.848   1.394 -1.8252  0.3890 -1.1735
  826MOL0     H 9026   2.687   9.696   1.214 -0.2667  2.8665  0.0367
  826MOL0     H 9027   2.703   9.565   1.328  1.9219  1.3399  0.3934
  826MOL0     H 9028   2.951   9.588   1.325 -1.0779 -0.5703 -0.0317
  826MOL0     H 9029   2.872   9.565   1.172 -2.3730 -1.9735  2.2285
  826MOL0     H 9030   3.083   9.934   1.151 -1.7248  1.9518  0.9169
  826MOL0     H 9031   2.524   9.472   1.683  1.6497 -0.9612 -3.7268
  826MOL0     H 9032   2.515   9.356   1.912  0.0214 -3.6412 -3.1915
  827MOL0     O 9033   8.089   4.172  10.655 -0.1312  0.1491  1.2484
  827MOL0     C 9034   8.035   4.207  10.764 -0.2153 -0.1338 -0.7127
  827MOL0     O 9035   8.009   4.341  10.805 -0.5216 -0.0243 -0.7586
  827MOL0     C 9036   8.024   4.449  10.723 -0.5668 -0.5905  0.0178
  827MOL0     C 9037   7.979   4.465  10.596  0.9983 -1.5815  0.0472
  827MOL0     C 9038   7.988   4.599  10.538 -0.1193  0.2095 -0.3117
  827MOL0     C 9039   8.047   4.709  10.607  0.5786  0.3217 -1.1382
  827MOL0     O 9040   8.040   4.844  10.565  0.0065 -0.2300  0.1590
  827MOL0     C 9041   8.175   4.912  10.559  0.2748  0.2878  0.3139
  827MOL0     C 9042   8.266   4.868  10.437 -1.3624 -0.0848  0.2697
  827MOL0     C 9043   8.200   4.896  10.294 -0.4741 -0.6775 -0.0068
  827MOL0     C 9044   8.092   4.793  10.253 -0.4929  0.5386 -1.0635
  827MOL0     C 9045   8.067   4.797  10.099 -0.4210  0.4955 -0.4630
  827MOL0     C 9046   7.990   4.923  10.057 -0.6386 -0.7254 -0.2086
  827MOL0     C 9047   7.996   4.938   9.911 -0.7678 -0.2292  0.8018
  827MOL0     C 9048   7.926   4.839   9.825 -0.9694 -0.3245 -0.2648
  827MOL0     N 9049   7.937   4.872   9.682 -0.0585 -0.1457 -0.4144
  827MOL0     C 9050   8.017   4.810   9.590 -0.2305 -0.6706  0.1454
  827MOL0     C 9051   7.968   4.860   9.476 -0.9534 -0.9638 -0.4648
  827MOL0     C 9052   8.026   4.823   9.343 -0.4463 -0.3083 -0.7410
  827MOL0     C 9053   7.945   4.718   9.271  1.1614  0.2594 -0.1750
  827MOL0     C 9054   7.812   4.764   9.223  0.3502  0.2715  0.4950
  827MOL0     C 9055   7.763   4.694   9.090  0.3383  0.2646  0.7539
  827MOL0     O 9056   7.864   4.690   8.989  0.0260  0.0949 -0.6544
  827MOL0     C 9057   7.833   4.637   8.868  0.2623  0.3005  0.3801
  827MOL0     C 9058   7.932   4.633   8.772  1.2107  0.4571  0.1569
  827MOL0     C 9059   7.911   4.605   8.639 -0.1734  0.4101  0.1482
  827MOL0     C 9060   7.779   4.571   8.599  0.3423 -0.0054  0.6644
  827MOL0     C 9061   7.753   4.550   8.451  0.0304 -0.4210 -0.2092
  827MOL0     O 9062   7.621   4.519   8.418 -0.2182 -0.4023  0.5900
  827MOL0     C 9063   7.583   4.535   8.287  0.3362 -0.3071  0.5346
  827MOL0     C 9064   7.637   4.605   8.174  0.3811 -0.6107  0.1309
  827MOL0     C 9065   7.577   4.594   8.047  0.2437  0.2470  0.5437
  827MOL0     C 9066   7.479   4.494   8.024 -0.7803  0.4811  0.3152
  827MOL0     O 9067   7.414   4.485   7.910 -0.1785  0.1204  0.7071
  827MOL0     C 9068   7.480   4.536   7.787 -0.1391  0.0618  0.0638
  827MOL0     C 9069   7.407   4.502   7.655 -0.6664  0.2113  0.4668
  827MOL0     C 9070   7.400   4.343   7.632  0.3954  0.2180 -0.9355
  827MOL0     C 9071   7.534   4.276   7.578 -0.3418  0.1295 -0.9240
  827MOL0     C 9072   7.498   4.133   7.531 -0.3836 -0.6213  1.0384
  827MOL0     C 9073   7.628   4.048   7.502 -1.1383  0.6862 -0.4215
  827MOL0     C 9074   7.606   3.950   7.381  1.1672  1.5521  0.1059
  827MOL0     C 9075   7.494   3.858   7.411  0.5480 -0.1171 -0.1006
  827MOL0    Cl 9076   7.468   3.731   7.292  0.1001  0.2650 -0.2966
  827MOL0     C 9077   7.443   4.415   8.125  0.0595 -0.3525 -0.3196
  827MOL0     C 9078   7.484   4.437   8.257  0.1728  0.0398  0.9214
  827MOL0     O 9079   7.845   4.550   8.369 -0.5725 -0.1649  0.4545
  827MOL0     C 9080   7.673   4.573   8.685  0.1133 -0.9279 -0.1521
  827MOL0     C 9081   7.701   4.610   8.821  0.2044  0.6613  0.9890
  827MOL0     N 9082   7.898   4.981   9.500  0.4333  0.7751  0.1766
  827MOL0     N 9083   7.868   4.977   9.626  0.2969  0.4882 -0.5428
  827MOL0     C 9084   8.109   4.676  10.728  0.2711 -1.6478  0.0503
  827MOL0     C 9085   8.097   4.553  10.781  0.0985  0.7606 -0.4713
  827MOL0     C 9086   8.014   4.106  10.868  0.0861 -0.0814 -0.2837
  827MOL0     C 9087   7.985   4.145  10.999 -0.1296  0.1176 -1.1319
  827MOL0     C 9088   7.965   4.043  11.094 -0.0803 -0.0667  0.3065
  827MOL0     C 9089   7.981   3.910  11.061 -0.4420  0.4675 -0.2280
  827MOL0     O 9090   7.938   3.816  11.151  0.0748  0.7776 -0.7237
  827MOL0     C 9091   8.004   3.814  11.280 -0.1519  0.4387 -0.2582
  827MOL0     C 9092   8.070   3.684  11.315  0.9036  0.1098 -0.4689
  827MOL0     C 9093   8.173   3.651  11.219  0.7975 -0.8975  0.0182
  827MOL0     C 9094   8.250   3.534  11.265 -0.0227 -0.2886 -0.6503
  827MOL0     C 9095   8.337   3.467  11.167 -0.7035  0.0515 -0.0325
  827MOL0     C 9096   8.417   3.415  11.087 -0.1329 -0.3288  0.2474
  827MOL0     C 9097   8.026   3.871  10.938 -0.0555 -0.0355  0.6189
  827MOL0     C 9098   8.025   3.962  10.835 -0.4211 -0.1749 -0.9121
  827MOL0     H 9099   7.915   4.391  10.548 -0.7038 -0.3494  0.3124
  827MOL0     H 9100   7.940   4.620  10.443  0.3693 -1.4139 -0.9669
  827MOL0     H 9101   8.227   4.908  10.656  1.0873  2.7844  0.0435
  827MOL0     H 9102   8.150   5.017  10.546 -1.2156  0.0390  0.9194
  827MOL0     H 9103   8.294   4.763  10.443 -0.1519  0.2823  1.7101
  827MOL0     H 9104   8.363   4.920  10.435  0.1273 -2.7014  0.2308
  827MOL0     H 9105   8.274   4.889  10.215  0.8405 -2.1822  1.2757
  827MOL0     H 9106   8.166   5.000  10.293  1.5914  0.0318 -0.0207
  827MOL0     H 9107   8.127   4.691  10.269  0.4583  1.0409  0.1791
  827MOL0     H 9108   8.001   4.813  10.311  0.2592  3.6452 -0.7860
  827MOL0     H 9109   8.009   4.712  10.063  2.3755 -0.1061 -4.1717
  827MOL0     H 9110   8.163   4.779  10.050 -0.5785 -1.1880 -0.2039
  827MOL0     H 9111   8.044   5.011  10.090 -0.3730 -1.3234  0.9978
  827MOL0     H 9112   7.894   4.929  10.109 -0.7012 -1.6881 -0.1825
  827MOL0     H 9113   7.957   5.036   9.882  1.2286  0.6115  0.7510
  827MOL0     H 9114   8.099   4.937   9.872 -0.6291  2.2219  0.9379
  827MOL0     H 9115   7.824   4.861   9.856 -0.7438  0.5204 -0.0737
  827MOL0     H 9116   7.954   4.737   9.854  2.4136  1.0529  2.0043
  827MOL0     H 9117   8.097   4.739   9.608 -1.1883 -1.2801  2.2808
  827MOL0     H 9118   8.127   4.782   9.353  0.0938  1.1326 -0.0101
  827MOL0     H 9119   8.041   4.909   9.276  2.6719 -1.8288 -2.2384
  827MOL0     H 9120   7.934   4.636   9.342  1.1708  0.5729  0.1922
  827MOL0     H 9121   8.008   4.691   9.186  0.9811 -1.1903  0.1359
  827MOL0     H 9122   7.739   4.737   9.299 -1.7905  1.8653 -0.8629
  827MOL0     H 9123   7.804   4.871   9.201  1.1267  0.3687  0.6453
  827MOL0     H 9124   7.665   4.726   9.052  0.3334 -3.3834 -3.1559
  827MOL0     H 9125   7.744   4.592   9.126 -1.8921  1.0664  2.0969
  827MOL0     H 9126   8.029   4.653   8.815  0.0908  0.9010  2.7073
  827MOL0     H 9127   7.993   4.621   8.570  0.0297 -0.7347  0.1030
  827MOL0     H 9128   7.712   4.683   8.186  1.0305 -1.2369  0.1705
  827MOL0     H 9129   7.623   4.651   7.966 -2.3739  2.6646  0.6152
  827MOL0     H 9130   7.586   4.509   7.786  0.3535  1.5673  2.3282
  827MOL0     H 9131   7.479   4.645   7.797 -0.3751  0.2365 -1.5870
  827MOL0     H 9132   7.443   4.552   7.565 -2.4714  1.1879  0.2484
  827MOL0     H 9133   7.312   4.553   7.668  0.0430  1.4645  0.8633
  827MOL0     H 9134   7.324   4.318   7.556  0.2764  0.5986 -0.9421
  827MOL0     H 9135   7.366   4.302   7.727 -1.7477  3.2784 -0.2371
  827MOL0     H 9136   7.585   4.324   7.494  0.3212 -0.8273 -1.0899
  827MOL0     H 9137   7.608   4.259   7.657 -0.7540 -2.2310 -0.9804
  827MOL0     H 9138   7.445   4.145   7.436 -0.5120 -1.3664  1.0131
  827MOL0     H 9139   7.422   4.080   7.589 -2.0028 -2.3387 -2.3817
  827MOL0     H 9140   7.658   3.999   7.596  2.5754 -0.3673 -1.9792
  827MOL0     H 9141   7.715   4.108   7.474 -0.3327  0.6321  1.7482
  827MOL0     H 9142   7.576   4.006   7.291  1.0457  0.2099 -0.7088
  827MOL0     H 9143   7.699   3.899   7.355  1.4230  2.9064 -1.8772
  827MOL0     H 9144   7.396   3.905   7.426  0.4827  1.6720 -4.6549
  827MOL0     H 9145   7.511   3.808   7.507  0.3611  1.1516  0.6169
  827MOL0     H 9146   7.360   4.347   8.107  0.3399 -1.2404  1.4827
  827MOL0     H 9147   7.434   4.391   8.342 -0.1644  0.7128  1.0934
  827MOL0     H 9148   7.574   4.536   8.661 -0.7493  0.7456  0.6297
  827MOL0     H 9149   7.616   4.602   8.888  0.9995 -2.2379  1.8119
  827MOL0     H 9150   8.157   4.753  10.788 -1.4217  2.8392 -3.7547
  827MOL0     H 9151   8.105   4.541  10.888 -4.1540 -1.7355 -0.2204
  827MOL0     H 9152   7.982   4.246  11.039 -1.5716 -0.6681  0.9503
  827MOL0     H 9153   7.936   4.067  11.196  2.1008  1.5159  0.6074
  827MOL0     H 9154   7.930   3.840  11.355  2.1468  0.9878  1.9621
  827MOL0     H 9155   8.084   3.889  11.285  0.1876  0.0313  0.5408
  827MOL0     H 9156   8.101   3.692  11.420 -0.6811  2.7429 -0.0951
  827MOL0     H 9157   8.009   3.594  11.308  2.3600 -0.8583 -1.1875
  827MOL0     H 9158   8.235   3.741  11.214  0.2935 -0.4083  1.7853
  827MOL0     H 9159   8.139   3.632  11.116  0.8923  1.5427 -0.5280
  827MOL0     H 9160   8.316   3.561  11.347 -0.9579  1.1697 -0.3347
  827MOL0     H 9161   8.186   3.456  11.308  0.8893 -0.1974  0.9281
  827MOL0     H 9162   8.479   3.378  11.008 -0.2139 -3.7079  1.6118
  827MOL0     H 9163   8.036   3.766  10.912 -0.9876  0.2567 -1.0149
  827MOL0     H 9164   8.033   3.931  10.732  1.3804  1.4912 -1.3488
  828MOL0     O 9165   4.608   8.789   5.521 -0.1835  0.0945  0.5585
  828MOL0     C 9166   4.608   8.866   5.619  0.0714 -0.4309  0.1868
  828MOL0     O 9167   4.719   8.945   5.662  0.3255 -0.2755 -0.0606
  828MOL0     C 9168   4.830   8.944   5.588  0.6471 -0.2398  0.6175
  828MOL0     C 9169   4.827   8.999   5.460 -0.7246  1.0954  0.2038
  828MOL0     C 9170   4.951   9.026   5.406 -0.1144  0.1419  0.2505
  828MOL0     C 9171   5.071   8.965   5.458  0.2623 -0.6047 -0.3756
  828MOL0     O 9172   5.199   8.964   5.411 -0.3014  0.0944 -0.6673
  828MOL0     C 9173   5.211   8.951   5.266  0.1294  0.5591  0.1729
  828MOL0     C 9174   5.237   9.092   5.205 -0.6184  0.3636  0.1062
  828MOL0     C 9175   5.205   9.102   5.054 -0.1229  1.4364 -0.0084
  828MOL0     C 9176   5.172   9.246   5.012  0.2986 -0.4104  0.4148
  828MOL0     C 9177   5.099   9.256   4.879  0.6248  0.3020 -1.8179
  828MOL0     C 9178   5.090   9.402   4.843  0.4292  0.4832  0.1206
  828MOL0     C 9179   5.051   9.430   4.695  0.3343 -0.0838 -0.3517
  828MOL0     C 9180   5.011   9.573   4.675 -0.7859 -0.0385  0.5179
  828MOL0     N 9181   4.945   9.617   4.550  1.0761  0.0667  0.4569
  828MOL0     C 9182   4.931   9.748   4.521  0.5471 -0.6490  0.0239
  828MOL0     C 9183   4.832   9.747   4.425  0.1382 -0.2733 -1.5524
  828MOL0     C 9184   4.772   9.883   4.366 -0.1520  0.7053 -0.0645
  828MOL0     C 9185   4.656   9.936   4.448  0.4343  0.1364 -0.2872
  828MOL0     C 9186   4.612  10.057   4.373  0.3028 -0.3351  0.6571
  828MOL0     C 9187   4.466  10.115   4.408  0.1049 -0.1911 -0.4738
  828MOL0     O 9188   4.454  10.155   4.551 -0.5761  0.0665 -0.0043
  828MOL0     C 9189   4.449  10.065   4.653 -0.3045  0.8700 -0.9072
  828MOL0     C 9190   4.389   9.934   4.649  0.5439 -0.0397  0.5397
  828MOL0     C 9191   4.397   9.846   4.761 -0.6136  0.4365  0.1525
  828MOL0     C 9192   4.468   9.881   4.877 -0.6567 -0.4791 -0.2172
  828MOL0     C 9193   4.492   9.791   4.989 -0.0720 -0.3998 -0.2848
  828MOL0     O 9194   4.413   9.683   5.007  0.0918 -0.3174  0.2070
  828MOL0     C 9195   4.437   9.593   5.110  0.1573 -0.0563 -0.6684
  828MOL0     C 9196   4.337   9.553   5.203 -0.1521  0.2291  0.2757
  828MOL0     C 9197   4.356   9.444   5.287 -0.5807  0.5579  0.9875
  828MOL0     C 9198   4.468   9.363   5.273 -0.6425 -0.0124 -0.2447
  828MOL0     O 9199   4.492   9.264   5.369  0.2615  0.2424 -0.6114
  828MOL0     C 9200   4.394   9.162   5.383  0.7726  0.2970  0.5216
  828MOL0     C 9201   4.461   9.041   5.315  0.1001 -0.5922 -0.7598
  828MOL0     C 9202   4.370   8.922   5.306 -0.1353 -0.0390 -0.9239
  828MOL0     C 9203   4.427   8.808   5.223 -0.0052 -0.6337  1.3583
  828MOL0     C 9204   4.418   8.834   5.070  0.0839 -0.2317  0.9694
  828MOL0     C 9205   4.432   8.707   4.970 -0.2644  0.5192 -0.0778
  828MOL0     C 9206   4.524   8.726   4.850  0.5709 -0.5293  0.1542
  828MOL0     C 9207   4.544   8.595   4.773  0.5458 -0.3499  0.2156
  828MOL0    Cl 9208   4.421   8.583   4.634  0.2361  0.2004 -0.0726
  828MOL0     C 9209   4.571   9.407   5.183 -0.0320 -0.0926 -0.8975
  828MOL0     C 9210   4.553   9.523   5.103  0.1145 -0.4333 -0.3473
  828MOL0     O 9211   4.582   9.827   5.061  0.2750 -0.5767  0.5350
  828MOL0     C 9212   4.516  10.011   4.883 -0.4608  0.0452  1.0532
  828MOL0     C 9213   4.511  10.104   4.775  0.3943  0.0997  0.3124
  828MOL0     N 9214   4.777   9.625   4.416  0.3838 -0.3592  1.1162
  828MOL0     N 9215   4.852   9.540   4.486 -0.8568 -0.5446 -0.1724
  828MOL0     C 9216   5.064   8.880   5.571  0.1542 -1.0234 -0.1295
  828MOL0     C 9217   4.941   8.876   5.635 -0.4505  0.4492 -0.2564
  828MOL0     C 9218   4.496   8.882   5.713 -0.8550  0.3638  0.7600
  828MOL0     C 9219   4.492   8.967   5.824 -0.1378  0.1399 -0.3014
  828MOL0     C 9220   4.376   8.954   5.902  0.0122 -0.1838  0.3732
  828MOL0     C 9221   4.263   8.877   5.879  0.4917  0.3656  0.3965
  828MOL0     O 9222   4.169   8.849   5.971 -0.1080  0.9857  0.3045
  828MOL0     C 9223   4.164   8.930   6.089  0.0492 -0.3274  0.2322
  828MOL0     C 9224   4.028   8.912   6.167 -0.6120 -0.5623  0.1109
  828MOL0     C 9225   3.909   8.878   6.075  0.6415 -0.1928  0.1614
  828MOL0     C 9226   3.891   8.955   5.943  0.4705 -1.5889  0.2121
  828MOL0     C 9227   3.893   9.107   5.967 -0.9529  0.7129 -0.1799
  828MOL0     C 9228   3.894   9.229   5.978 -0.6336 -0.4436 -0.7309
  828MOL0     C 9229   4.265   8.802   5.763  0.1360  0.6688  0.7506
  828MOL0     C 9230   4.382   8.809   5.680  0.7041  0.2566 -0.7586
  828MOL0     H 9231   4.745   9.053   5.414 -1.6627 -0.5880 -0.1963
  828MOL0     H 9232   4.954   9.076   5.310 -2.4283 -0.9216 -0.4523
  828MOL0     H 9233   5.117   8.903   5.234 -0.4444  1.1930  0.8731
  828MOL0     H 9234   5.293   8.882   5.242  1.4474  2.3837 -0.7940
  828MOL0     H 9235   5.341   9.124   5.216 -0.1764  0.5100 -3.3847
  828MOL0     H 9236   5.167   9.153   5.263 -3.1906 -4.1550  2.2872
  828MOL0     H 9237   5.120   9.035   5.042  1.4949 -1.1869  2.1007
  828MOL0     H 9238   5.286   9.065   4.990 -1.5201 -1.1045 -0.4286
  828MOL0     H 9239   5.106   9.281   5.091  1.1258  0.7044  0.6401
  828MOL0     H 9240   5.261   9.310   5.006  1.7603 -1.9545  3.4247
  828MOL0     H 9241   5.004   9.205   4.895  2.8594 -3.6723  0.3830
  828MOL0     H 9242   5.166   9.200   4.812  0.0293  0.0558 -2.2129
  828MOL0     H 9243   5.188   9.448   4.850  1.2310 -0.3182 -3.6548
  828MOL0     H 9244   5.017   9.456   4.904  0.4525 -0.2760  0.8340
  828MOL0     H 9245   5.130   9.401   4.626 -1.4649 -1.8419 -1.7983
  828MOL0     H 9246   4.967   9.364   4.670  1.2527 -1.3097 -0.2856
  828MOL0     H 9247   5.110   9.618   4.674 -0.0311 -1.3115  4.0053
  828MOL0     H 9248   4.961   9.599   4.769 -1.1014 -1.3921  0.7365
  828MOL0     H 9249   4.989   9.837   4.546  0.9517 -1.2575  1.3002
  828MOL0     H 9250   4.732   9.849   4.270 -3.1985 -1.6065  1.8248
  828MOL0     H 9251   4.852   9.957   4.362 -0.2510  0.8749  0.8893
  828MOL0     H 9252   4.696   9.970   4.544  0.2374 -0.2245 -0.0714
  828MOL0     H 9253   4.580   9.859   4.463 -0.3388  1.0308  0.5575
  828MOL0     H 9254   4.688  10.134   4.385 -1.2083  1.4761 -0.7377
  828MOL0     H 9255   4.622  10.037   4.266  1.9575 -1.8897  1.0570
  828MOL0     H 9256   4.388  10.041   4.384 -3.2546  2.3466  1.7120
  828MOL0     H 9257   4.446  10.211   4.359 -1.6137 -0.7803 -1.0312
  828MOL0     H 9258   4.353   9.900   4.552  1.0917  1.0827 -0.0684
  828MOL0     H 9259   4.356   9.745   4.758 -1.2986  0.6996  0.3982
  828MOL0     H 9260   4.243   9.607   5.216  0.1530  0.5637  1.2087
  828MOL0     H 9261   4.288   9.426   5.370 -2.9227 -1.7685 -1.2273
  828MOL0     H 9262   4.302   9.193   5.332  2.1614  0.3671 -2.1268
  828MOL0     H 9263   4.372   9.137   5.487 -1.4037 -0.9204 -0.1640
  828MOL0     H 9264   4.554   9.015   5.368  1.4313  0.4088 -2.4752
  828MOL0     H 9265   4.493   9.060   5.212  3.5481 -4.3570 -0.6222
  828MOL0     H 9266   4.266   8.950   5.287  0.5882  2.0504 -2.1139
  828MOL0     H 9267   4.369   8.871   5.403  3.3650 -0.2965 -0.8885
  828MOL0     H 9268   4.528   8.782   5.255 -0.0333 -0.6665  1.4201
  828MOL0     H 9269   4.375   8.716   5.251 -1.5857  0.3474  1.7586
  828MOL0     H 9270   4.505   8.892   5.038 -0.4966 -1.3265 -3.1528
  828MOL0     H 9271   4.327   8.891   5.051 -0.9422 -1.7943  1.0368
  828MOL0     H 9272   4.335   8.664   4.944  0.9346 -2.4752 -0.0194
  828MOL0     H 9273   4.483   8.624   5.021  0.3477 -0.2080 -1.7869
  828MOL0     H 9274   4.467   8.798   4.791 -1.8055 -1.8764  0.6833
  828MOL0     H 9275   4.624   8.763   4.873  2.3722 -4.1636 -1.0822
  828MOL0     H 9276   4.534   8.516   4.847 -1.5198  2.0777  2.7543
  828MOL0     H 9277   4.643   8.592   4.726 -0.3282 -0.9049 -1.7103
  828MOL0     H 9278   4.658   9.347   5.159  0.6004  0.2472  0.4804
  828MOL0     H 9279   4.626   9.547   5.026 -0.7799 -1.1183 -1.4495
  828MOL0     H 9280   4.555  10.047   4.977 -0.6713 -0.3023  1.2735
  828MOL0     H 9281   4.548  10.206   4.781  0.5319  0.0500  0.3034
  828MOL0     H 9282   5.142   8.817   5.612 -0.3946 -2.4322 -1.1547
  828MOL0     H 9283   4.940   8.815   5.725  1.9925  1.0326  0.2355
  828MOL0     H 9284   4.574   9.021   5.871 -1.1895  1.1338  0.4400
  828MOL0     H 9285   4.381   9.003   5.999  1.6308 -0.0829  0.2747
  828MOL0     H 9286   4.170   9.033   6.055 -2.8117 -0.3355 -0.5125
  828MOL0     H 9287   4.244   8.913   6.163 -0.4303 -1.7856  0.4447
  828MOL0     H 9288   4.033   8.837   6.247 -1.1594 -1.4354 -0.6524
  828MOL0     H 9289   4.005   9.004   6.222  2.0529 -0.9084  1.9576
  828MOL0     H 9290   3.816   8.891   6.131  0.6697  1.8739 -0.1908
  828MOL0     H 9291   3.914   8.772   6.048  0.7859  1.0288 -6.3087
  828MOL0     H 9292   3.956   8.902   5.873 -0.3886 -2.7475  0.2584
  828MOL0     H 9293   3.790   8.939   5.905 -0.0881  1.8961 -0.0783
  828MOL0     H 9294   3.901   9.335   5.987  3.1539 -0.2977 -3.0663
  828MOL0     H 9295   4.181   8.740   5.734 -0.6980  1.7347  0.8258
  828MOL0     H 9296   4.362   8.729   5.609 -1.3502  0.2471 -0.2551
  829MOL0     O 9297   1.461   7.316  11.089  0.2355 -0.2388  1.0035
  829MOL0     C 9298   1.567   7.314  11.028 -0.0206  0.6211  0.0969
  829MOL0     O 9299   1.681   7.378  11.073  0.0259  0.4941 -0.3835
  829MOL0     C 9300   1.677   7.428  11.200  0.9428  0.1224  0.1549
  829MOL0     C 9301   1.658   7.563  11.218  0.9431 -0.5887  0.2124
  829MOL0     C 9302   1.651   7.617  11.350 -0.5331 -0.4262 -0.8107
  829MOL0     C 9303   1.669   7.537  11.472  0.3093  0.7807 -1.1125
  829MOL0     O 9304   1.639   7.592  11.592  0.3628  0.0397 -0.3064
  829MOL0     C 9305   1.613   7.500  11.700  0.0483  0.2252  0.0337
  829MOL0     C 9306   1.567   7.557  11.840  0.3676  0.3621  0.6330
  829MOL0     C 9307   1.688   7.624  11.906 -0.0288  0.1105 -0.6374
  829MOL0     C 9308   1.656   7.683  12.044  0.0895 -0.5502 -0.1804
  829MOL0     C 9309   1.790   7.729  12.120  0.9463  0.0189 -0.0330
  829MOL0     C 9310   1.756   7.795  12.257 -0.5398 -0.2719 -0.3381
  829MOL0     C 9311   1.885   7.853  12.312 -0.3830  0.4606 -0.2532
  829MOL0     C 9312   1.869   7.873  12.463  0.5976 -0.2718  0.5892
  829MOL0     N 9313   2.006   7.880  12.525  0.6440  0.2880  0.2508
  829MOL0     C 9314   2.100   7.778  12.526  1.4486 -0.0261 -0.0776
  829MOL0     C 9315   2.202   7.823  12.594 -0.3780 -0.3915  0.0667
  829MOL0     C 9316   2.328   7.746  12.622  0.1308  1.0403 -0.3762
  829MOL0     C 9317   2.324   7.659  12.752  0.8858  0.2633 -0.3973
  829MOL0     C 9318   2.371   7.740  12.873  1.0244  0.3687  0.8504
  829MOL0     C 9319   2.327   7.681  13.009  1.0007  0.4143  0.4458
  829MOL0     O 9320   2.370   7.540  13.014  0.0873 -0.8401 -0.5133
  829MOL0     C 9321   2.411   7.507  13.140  0.1027 -0.8687 -1.1433
  829MOL0     C 9322   2.319   7.480  13.242 -1.2341  0.2034  0.9066
  829MOL0     C 9323   2.367   7.433  13.359 -0.9221 -0.1388 -0.9792
  829MOL0     C 9324   2.504   7.403  13.389  0.1572 -1.2796  0.1429
  829MOL0     C 9325   2.544   7.364  13.528  0.4417 -0.6497 -0.0282
  829MOL0     O 9326   2.442   7.338  13.614  0.2114 -0.3573  1.0597
  829MOL0     C 9327   2.456   7.300  13.741  0.9963 -0.6861 -1.0539
  829MOL0     C 9328   2.572   7.241  13.800  0.6036 -0.5225  0.0834
  829MOL0     C 9329   2.574   7.199  13.929  0.8704  0.3316 -0.7953
  829MOL0     C 9330   2.457   7.206  14.001  0.3637 -0.4135 -0.3018
  829MOL0     O 9331   2.436   7.170  14.134  0.2053  0.2749  0.3477
  829MOL0     C 9332   2.551   7.123  14.204  0.4168 -0.1949 -0.7559
  829MOL0     C 9333   2.499   7.071  14.341  0.2124  0.3042  0.8202
  829MOL0     C 9334   2.608   6.994  14.419 -0.0457  0.2554 -0.0182
  829MOL0     C 9335   2.568   6.946  14.555 -0.0545 -0.0127  0.3792
  829MOL0     C 9336   2.691   6.941  14.652  0.9556 -1.0322  0.1873
  829MOL0     C 9337   2.660   6.913  14.800 -0.0611 -0.5258  0.3613
  829MOL0     C 9338   2.777   6.889  14.886 -0.6062  0.1064 -0.0442
  829MOL0     C 9339   2.867   7.015  14.876 -1.4370 -0.2238 -0.9248
  829MOL0    Cl 9340   3.039   6.958  14.911 -0.0025 -0.4509 -0.2990
  829MOL0     C 9341   2.344   7.266  13.953 -0.5361 -1.1762  0.6555
  829MOL0     C 9342   2.340   7.314  13.820 -0.3730  0.2716 -0.2958
  829MOL0     O 9343   2.663   7.361  13.558  0.6544  0.5106  0.4070
  829MOL0     C 9344   2.598   7.434  13.283  0.5856 -0.5383 -0.1976
  829MOL0     C 9345   2.549   7.491  13.164  0.1348  0.7995  0.7715
  829MOL0     N 9346   2.162   7.948  12.650 -0.4117 -0.3641  0.0793
  829MOL0     N 9347   2.046   7.981  12.609  0.3935 -0.9884 -0.1107
  829MOL0     C 9348   1.690   7.403  11.446 -1.2999  0.1618  0.0650
  829MOL0     C 9349   1.695   7.349  11.313 -0.1288  0.7629 -0.3164
  829MOL0     C 9350   1.562   7.258  10.891  0.0348 -0.4889  0.8422
  829MOL0     C 9351   1.689   7.248  10.825 -0.6188 -0.7482  0.3118
  829MOL0     C 9352   1.687   7.239  10.682  0.0781  0.0736  0.5015
  829MOL0     C 9353   1.566   7.227  10.608 -0.0472 -0.2509  0.5993
  829MOL0     O 9354   1.566   7.210  10.474  0.1048 -0.2962  0.5085
  829MOL0     C 9355   1.682   7.152  10.414 -0.3649  0.7332  0.1469
  829MOL0     C 9356   1.643   7.152  10.264 -0.1380  0.8156  0.0794
  829MOL0     C 9357   1.715   7.036  10.179 -0.2566 -0.4392 -0.5419
  829MOL0     C 9358   1.658   7.039  10.033 -0.3664  1.0302  0.1341
  829MOL0     C 9359   1.691   6.913   9.960 -0.7958  0.6389  0.5786
  829MOL0     C 9360   1.738   6.808   9.906  0.0218 -0.5866 -0.1392
  829MOL0     C 9361   1.451   7.214  10.681 -0.7126  0.0471 -0.5145
  829MOL0     C 9362   1.445   7.231  10.816 -0.1654  0.0912 -0.1523
  829MOL0     H 9363   1.637   7.638  11.143 -0.1441 -2.6596 -1.6792
  829MOL0     H 9364   1.632   7.722  11.371 -0.9663 -0.7397  0.4930
  829MOL0     H 9365   1.705   7.443  11.715  1.0573  1.2368 -1.9237
  829MOL0     H 9366   1.531   7.434  11.670  3.0587 -4.7486  1.5505
  829MOL0     H 9367   1.536   7.469  11.897 -2.7442  3.0514  3.5125
  829MOL0     H 9368   1.482   7.622  11.822 -0.1165  0.0305  1.6548
  829MOL0     H 9369   1.727   7.699  11.838 -1.6381  2.6130  1.0422
  829MOL0     H 9370   1.765   7.550  11.931 -0.4659  0.2637  1.3703
  829MOL0     H 9371   1.592   7.769  12.022 -2.1535 -1.8606  0.8865
  829MOL0     H 9372   1.595   7.608  12.095 -0.5463 -1.7837 -2.6107
  829MOL0     H 9373   1.849   7.800  12.062 -1.6676  1.6446 -0.8646
  829MOL0     H 9374   1.849   7.641  12.148 -1.7022 -1.4109  1.4866
  829MOL0     H 9375   1.704   7.724  12.323 -2.6126  3.0452  1.8813
  829MOL0     H 9376   1.698   7.884  12.232  0.4424  0.8961  1.2859
  829MOL0     H 9377   1.961   7.774  12.309 -1.6086 -0.7150 -1.9373
  829MOL0     H 9378   1.922   7.946  12.266  1.7325  0.0860  0.5386
  829MOL0     H 9379   1.823   7.782  12.503 -3.4048  2.1237  2.0527
  829MOL0     H 9380   1.812   7.959  12.500 -1.0124 -1.5192  1.0672
  829MOL0     H 9381   2.090   7.683  12.475  0.6592 -0.8008  1.4879
  829MOL0     H 9382   2.415   7.811  12.634  2.1001 -1.5740  0.4212
  829MOL0     H 9383   2.353   7.689  12.532 -3.0795 -2.3159  0.6443
  829MOL0     H 9384   2.389   7.572  12.741 -1.1671 -1.4374  0.1178
  829MOL0     H 9385   2.224   7.614  12.748  0.4913  0.6250 -7.2233
  829MOL0     H 9386   2.479   7.734  12.890  0.9281 -3.6804  1.1000
  829MOL0     H 9387   2.328   7.840  12.865 -1.8355 -0.9501 -3.6089
  829MOL0     H 9388   2.217   7.682  13.010  0.9632  0.0160 -0.9786
  829MOL0     H 9389   2.346   7.752  13.091 -2.3174  1.6847  0.2808
  829MOL0     H 9390   2.217   7.500  13.211  0.2430  1.8125 -3.6581
  829MOL0     H 9391   2.294   7.406  13.435 -1.5981  0.3025 -1.4554
  829MOL0     H 9392   2.665   7.241  13.744  1.3142  4.3261  0.8670
  829MOL0     H 9393   2.668   7.178  13.979 -0.3529  0.4668  1.7224
  829MOL0     H 9394   2.634   7.192  14.219  0.2767 -0.3514  0.8320
  829MOL0     H 9395   2.608   7.045  14.153  2.2077  1.8862 -2.1292
  829MOL0     H 9396   2.408   7.012  14.333 -0.9265  1.5185  3.4393
  829MOL0     H 9397   2.481   7.167  14.392 -0.5467 -1.1875  3.5485
  829MOL0     H 9398   2.688   7.069  14.428 -2.2049  2.6501  0.4636
  829MOL0     H 9399   2.643   6.916  14.352  0.1351  0.1674  0.1776
  829MOL0     H 9400   2.500   7.018  14.603  0.3546  0.1231  0.7575
  829MOL0     H 9401   2.513   6.851  14.551 -0.5548  0.2425  0.9337
  829MOL0     H 9402   2.745   7.035  14.634 -0.2652 -0.3684 -0.1610
  829MOL0     H 9403   2.755   6.863  14.610  1.8865  0.7996 -2.0540
  829MOL0     H 9404   2.597   6.823  14.799  0.7060 -1.0885 -1.6564
  829MOL0     H 9405   2.595   6.991  14.840  1.2505  0.9265 -0.2503
  829MOL0     H 9406   2.752   6.852  14.986 -2.9816  1.0052 -0.2476
  829MOL0     H 9407   2.828   6.803  14.842  0.5885  0.3383  0.8202
  829MOL0     H 9408   2.827   7.095  14.940  3.3862  0.9242  1.1262
  829MOL0     H 9409   2.880   7.067  14.781 -0.8246 -0.8135 -1.1681
  829MOL0     H 9410   2.248   7.278  14.003 -0.0459  0.0676  1.3439
  829MOL0     H 9411   2.249   7.360  13.781 -1.4828 -3.0765 -2.0298
  829MOL0     H 9412   2.705   7.430  13.301  0.7340  2.5927  0.1951
  829MOL0     H 9413   2.612   7.509  13.078  0.3544  2.7335  1.3005
  829MOL0     H 9414   1.718   7.329  11.520 -0.5158  1.8009  1.4655
  829MOL0     H 9415   1.718   7.243  11.307 -0.8611  0.3353  2.8341
  829MOL0     H 9416   1.785   7.267  10.872 -1.1891  1.0552  0.8286
  829MOL0     H 9417   1.787   7.217  10.646  1.4498  0.8816  3.4352
  829MOL0     H 9418   1.700   7.051  10.452 -0.3506  1.4746  2.2753
  829MOL0     H 9419   1.776   7.206  10.429 -1.2891  1.8428  2.4824
  829MOL0     H 9420   1.535   7.136  10.264 -0.1052  0.5595  0.3545
  829MOL0     H 9421   1.670   7.254  10.236 -0.4685  0.5261 -1.3757
  829MOL0     H 9422   1.690   6.944  10.232 -1.3784 -1.1020 -2.1721
  829MOL0     H 9423   1.824   7.048  10.185 -0.1465 -1.0178 -1.2686
  829MOL0     H 9424   1.552   7.065  10.045 -0.3555  1.1999 -0.1434
  829MOL0     H 9425   1.710   7.123   9.988 -1.6159  2.8957  1.9877
  829MOL0     H 9426   1.783   6.727   9.852  2.0622  0.4210 -0.0246
  829MOL0     H 9427   1.358   7.215  10.625 -0.7595  0.1391 -0.4381
  829MOL0     H 9428   1.350   7.233  10.868  0.1144 -0.4890  0.3878
  830MOL0     O 9429  11.243   2.527   7.303 -0.6320 -0.8397 -0.2498
  830MOL0     C 9430  11.221   2.639   7.350  0.0808  0.4681 -0.3017
  830MOL0     O 9431  11.284   2.692   7.456  0.5891 -0.1588  0.5014
  830MOL0     C 9432  11.394   2.643   7.508 -1.1116  0.8738  0.1034
  830MOL0     C 9433  11.389   2.560   7.625  0.4775 -0.1705  0.7851
  830MOL0     C 9434  11.512   2.513   7.680  0.0444 -0.1970  0.6181
  830MOL0     C 9435  11.640   2.553   7.636  0.3641  0.6955  0.6212
  830MOL0     O 9436  11.751   2.499   7.688 -0.6816  0.0379  0.4623
  830MOL0     C 9437  11.877   2.527   7.627 -1.0471  0.7097  0.0490
  830MOL0     C 9438  11.949   2.387   7.604 -0.0103 -0.1887 -1.1771
  830MOL0     C 9439  11.975   2.311   7.741 -0.0892 -0.2261 -0.6919
  830MOL0     C 9440  12.001   2.160   7.719  0.1165  0.4179  0.2602
  830MOL0     C 9441  12.138   2.134   7.656 -0.5760 -0.5027  0.9071
  830MOL0     C 9442  12.191   1.985   7.655  0.2314  0.4381 -0.0186
  830MOL0     C 9443  12.324   1.963   7.597 -0.5339  0.6795 -0.4605
  830MOL0     C 9444  12.342   1.989   7.440  0.0148  0.3855  0.1772
  830MOL0     N 9445  12.488   1.958   7.413  0.1758 -0.1368  0.1998
  830MOL0     C 9446  12.541   1.828   7.414  0.3744 -0.0677 -0.2340
  830MOL0     C 9447  12.672   1.840   7.387  0.3288 -0.2452 -0.2701
  830MOL0     C 9448  12.776   1.735   7.376  0.5938  0.9023 -0.6399
  830MOL0     C 9449  12.717   1.593   7.412  0.6150 -0.2753 -0.4956
  830MOL0     C 9450  12.621   1.546   7.312 -0.0522 -0.0489 -0.3809
  830MOL0     C 9451  12.690   1.452   7.216 -0.2290 -0.1549  0.3649
  830MOL0     O 9452  12.609   1.381   7.126  0.2937 -0.4679  0.5684
  830MOL0     C 9453  12.648   1.383   6.995 -1.2887 -0.0666  0.8841
  830MOL0     C 9454  12.648   1.265   6.927 -0.7125  0.6314  0.2448
  830MOL0     C 9455  12.670   1.257   6.788 -0.4474  0.0405  0.4166
  830MOL0     C 9456  12.709   1.375   6.722  0.4723  0.0105  0.3740
  830MOL0     C 9457  12.726   1.370   6.580  1.0494 -0.4755  0.6944
  830MOL0     O 9458  12.668   1.469   6.492  0.3705  1.0110 -0.1506
  830MOL0     C 9459  12.691   1.448   6.357 -0.9582 -0.6225 -0.3638
  830MOL0     C 9460  12.822   1.477   6.318 -0.7565 -0.7563  0.2139
  830MOL0     C 9461  12.857   1.480   6.181 -0.3033  0.3645  0.0605
  830MOL0     C 9462  12.756   1.446   6.088 -0.5145  0.3383  0.9095
  830MOL0     O 9463  12.803   1.453   5.949  0.5754 -0.2229 -0.3210
  830MOL0     C 9464  12.712   1.494   5.843  0.1424 -0.0316 -0.1200
  830MOL0     C 9465  12.685   1.640   5.877 -0.8761 -0.5300 -0.4976
  830MOL0     C 9466  12.814   1.713   5.886 -0.2047 -0.4493  0.3224
  830MOL0     C 9467  12.898   1.726   5.758 -0.4264  0.2014 -0.6803
  830MOL0     C 9468  13.008   1.843   5.761  0.8035  0.5763 -0.5391
  830MOL0     C 9469  13.089   1.848   5.638 -0.1369  0.3415  0.0898
  830MOL0     C 9470  13.201   1.954   5.635 -0.0072  0.0303 -0.3029
  830MOL0     C 9471  13.153   2.106   5.599 -0.1635  0.6697 -0.0283
  830MOL0    Cl 9472  13.277   2.225   5.572  0.3128  0.0077 -0.3615
  830MOL0     C 9473  12.628   1.401   6.129 -0.1999  0.2925 -0.7564
  830MOL0     C 9474  12.594   1.415   6.264  0.5071  0.7521 -0.3350
  830MOL0     O 9475  12.796   1.281   6.535  0.4573 -0.5490 -0.3661
  830MOL0     C 9476  12.705   1.502   6.793  0.0577 -0.1802 -0.0792
  830MOL0     C 9477  12.685   1.503   6.929 -1.1994 -0.3706  0.3052
  830MOL0     N 9478  12.699   1.974   7.356 -0.2033 -0.3481 -0.4752
  830MOL0     N 9479  12.583   2.042   7.376 -0.2522 -0.2258  0.3111
  830MOL0     C 9480  11.638   2.648   7.528 -0.0055 -0.1211  0.0970
  830MOL0     C 9481  11.517   2.687   7.463  0.9788 -0.0658 -0.4191
  830MOL0     C 9482  11.121   2.715   7.281  0.1623 -1.0232 -0.7031
  830MOL0     C 9483  11.140   2.858   7.257 -0.2143 -0.1766 -0.4664
  830MOL0     C 9484  11.044   2.928   7.194 -0.3684  0.1023  1.2636
  830MOL0     C 9485  10.934   2.872   7.130  0.6474 -0.3703  0.3417
  830MOL0     O 9486  10.845   2.952   7.070  0.8447 -0.2460  0.4870
  830MOL0     C 9487  10.821   2.912   6.934  0.1966  0.7430  0.2937
  830MOL0     C 9488  10.664   2.908   6.918 -0.0041 -0.8519 -0.2658
  830MOL0     C 9489  10.580   3.031   6.963  0.6367 -0.0497  0.5506
  830MOL0     C 9490  10.440   3.010   6.918 -0.4508  0.6274  1.0304
  830MOL0     C 9491  10.365   3.119   6.975  0.5684  0.0228 -0.4380
  830MOL0     C 9492  10.307   3.214   7.031  1.0952  1.1001 -0.0842
  830MOL0     C 9493  10.922   2.729   7.146 -0.0086  0.7658 -0.5491
  830MOL0     C 9494  11.009   2.650   7.226  0.0323  0.7122  0.5218
  830MOL0     H 9495  11.296   2.524   7.669  0.5048  0.2145  1.1562
  830MOL0     H 9496  11.496   2.437   7.757 -0.8201 -2.2819 -1.5114
  830MOL0     H 9497  11.940   2.588   7.693  2.1860 -2.7126  0.4974
  830MOL0     H 9498  11.885   2.583   7.533 -1.5224 -0.9173 -1.0014
  830MOL0     H 9499  12.047   2.397   7.557  0.6135 -3.6909 -0.8749
  830MOL0     H 9500  11.888   2.320   7.543 -0.5212 -1.5177  0.6987
  830MOL0     H 9501  11.892   2.314   7.813  0.4952  1.6459 -0.0302
  830MOL0     H 9502  12.063   2.354   7.789  1.4725 -3.6556 -0.1664
  830MOL0     H 9503  12.000   2.104   7.813 -2.5687  1.0785  0.7042
  830MOL0     H 9504  11.916   2.131   7.657 -2.1239  1.1163  2.8413
  830MOL0     H 9505  12.220   2.186   7.706  0.7846 -3.0345  1.4505
  830MOL0     H 9506  12.113   2.172   7.556 -2.1281  0.9610  1.7772
  830MOL0     H 9507  12.121   1.920   7.601 -0.4108  0.1687  1.0886
  830MOL0     H 9508  12.197   1.937   7.753  2.2212  0.3698 -0.1327
  830MOL0     H 9509  12.395   2.019   7.659 -0.4855  0.2127 -0.0874
  830MOL0     H 9510  12.355   1.858   7.605  1.0393  1.1862  0.7151
  830MOL0     H 9511  12.326   2.095   7.417  0.4966  0.5019  0.3762
  830MOL0     H 9512  12.270   1.925   7.387  0.3099 -0.8811  1.2447
  830MOL0     H 9513  12.493   1.734   7.437 -1.6240  1.0167  0.2397
  830MOL0     H 9514  12.852   1.766   7.448 -3.4315  0.9339  4.0750
  830MOL0     H 9515  12.810   1.734   7.272  1.4626 -0.8617 -0.3928
  830MOL0     H 9516  12.663   1.590   7.507 -0.5164 -1.3718 -1.1427
  830MOL0     H 9517  12.795   1.517   7.422 -0.5868 -1.5734 -0.6443
  830MOL0     H 9518  12.547   1.477   7.354  0.2384  0.7395  1.5293
  830MOL0     H 9519  12.573   1.625   7.254 -0.7834  0.7594  1.2544
  830MOL0     H 9520  12.750   1.382   7.274  2.2547  1.8794  0.4223
  830MOL0     H 9521  12.771   1.497   7.156  1.1894 -1.9710  0.8389
  830MOL0     H 9522  12.628   1.179   6.990 -1.7079  0.8748  0.2814
  830MOL0     H 9523  12.659   1.168   6.729 -2.0230 -0.2937  1.1685
  830MOL0     H 9524  12.891   1.511   6.394 -1.7229 -0.8056  1.1262
  830MOL0     H 9525  12.956   1.517   6.156 -0.3679  2.4040  2.3625
  830MOL0     H 9526  12.613   1.447   5.835 -0.0385  0.4440 -0.6834
  830MOL0     H 9527  12.766   1.483   5.749  3.0651 -2.3560  1.6425
  830MOL0     H 9528  12.639   1.634   5.976  2.6751  0.0337  1.3558
  830MOL0     H 9529  12.614   1.676   5.801 -0.9383 -1.1804 -0.7489
  830MOL0     H 9530  12.887   1.677   5.959  0.9592 -0.1980 -0.6699
  830MOL0     H 9531  12.790   1.818   5.908 -2.9524  0.3381 -4.8344
  830MOL0     H 9532  12.939   1.631   5.722 -0.4294  0.7575 -2.1960
  830MOL0     H 9533  12.828   1.755   5.679 -1.8953 -0.2240  0.4162
  830MOL0     H 9534  13.077   1.811   5.839 -0.0724  1.6935  0.7474
  830MOL0     H 9535  12.949   1.934   5.779 -1.1186  0.1458 -3.8560
  830MOL0     H 9536  13.030   1.876   5.550 -0.1581  0.1650  0.0473
  830MOL0     H 9537  13.136   1.751   5.621 -1.0859  0.0010 -0.6882
  830MOL0     H 9538  13.256   1.952   5.729  0.9242  1.5772 -0.7801
  830MOL0     H 9539  13.279   1.920   5.566  1.5314  0.4403  1.1720
  830MOL0     H 9540  13.100   2.148   5.685 -0.4717 -0.0710  0.1480
  830MOL0     H 9541  13.077   2.105   5.520  0.2872  2.1243 -0.5151
  830MOL0     H 9542  12.552   1.360   6.063  0.9530 -4.9560  0.7381
  830MOL0     H 9543  12.491   1.389   6.286 -0.1548  2.1722 -1.5332
  830MOL0     H 9544  12.736   1.599   6.756  1.2916 -0.8009 -0.7340
  830MOL0     H 9545  12.682   1.600   6.977  1.5829  1.1428 -2.2342
  830MOL0     H 9546  11.730   2.689   7.487  1.0345 -2.8080 -0.4975
  830MOL0     H 9547  11.530   2.764   7.388  0.2238  1.1860  0.6887
  830MOL0     H 9548  11.224   2.908   7.305 -2.6695  0.5288  3.5104
  830MOL0     H 9549  11.049   3.035   7.172 -0.4147 -0.4436 -1.8528
  830MOL0     H 9550  10.880   2.827   6.897  0.4146 -0.0102  2.2576
  830MOL0     H 9551  10.852   2.997   6.872 -1.1745 -1.2867 -3.5443
  830MOL0     H 9552  10.632   2.879   6.818 -0.9359 -1.2631  0.1410
  830MOL0     H 9553  10.638   2.832   6.992 -2.7305 -0.4339 -0.6874
  830MOL0     H 9554  10.623   3.125   6.928  2.8107 -0.4735  1.8835
  830MOL0     H 9555  10.575   3.034   7.072 -0.9348  0.0734  0.4896
  830MOL0     H 9556  10.426   3.003   6.809  0.0464  2.0038  0.8506
  830MOL0     H 9557  10.405   2.918   6.965  1.2645 -0.0147  1.1149
  830MOL0     H 9558  10.243   3.291   7.069 -0.4320  0.8170 -1.8946
  830MOL0     H 9559  10.859   2.687   7.067  0.1305  0.5858 -0.5655
  830MOL0     H 9560  11.019   2.543   7.220 -1.3231  0.1952  4.6070
  831MOL0     O 9561   5.203  10.124   0.999  0.6014 -0.2378  0.0603
  831MOL0     C 9562   5.196  10.205   1.093 -0.5943  0.0085 -0.7967
  831MOL0     O 9563   5.267  10.322   1.099  0.2930 -0.2045  0.4936
  831MOL0     C 9564   5.330  10.370   0.987  0.1835 -0.6328  0.2486
  831MOL0     C 9565   5.471  10.395   0.984  0.2439  0.7695  0.3651
  831MOL0     C 9566   5.528  10.454   0.869  0.7237 -0.1991  0.0470
  831MOL0     C 9567   5.446  10.498   0.768 -0.9245 -0.4479  0.1333
  831MOL0     O 9568   5.501  10.574   0.663  0.0280  0.0014 -0.2839
  831MOL0     C 9569   5.431  10.696   0.625  0.5978  0.2350  0.3134
  831MOL0     C 9570   5.455  10.811   0.721  0.5621  0.3532 -0.4643
  831MOL0     C 9571   5.348  10.934   0.715  0.1349 -0.3577 -0.4106
  831MOL0     C 9572   5.389  11.054   0.791 -0.4034  0.2838  0.7493
  831MOL0     C 9573   5.311  11.188   0.772 -0.1383 -0.6810 -0.0518
  831MOL0     C 9574   5.159  11.180   0.784 -0.8353  0.6447 -0.6283
  831MOL0     C 9575   5.076  11.298   0.731 -0.9950 -0.0966  0.5377
  831MOL0     C 9576   5.099  11.444   0.781 -0.0458  0.5117  0.3725
  831MOL0     N 9577   5.070  11.483   0.919 -0.0974 -0.9570 -0.4968
  831MOL0     C 9578   4.977  11.427   1.002 -0.4644  0.0004 -0.5105
  831MOL0     C 9579   4.968  11.509   1.111  0.7334  0.2053 -1.1773
  831MOL0     C 9580   4.884  11.486   1.235  0.0399  0.0174  0.3317
  831MOL0     C 9581   4.760  11.569   1.249  0.4989 -1.2495  0.1422
  831MOL0     C 9582   4.726  11.598   1.388  0.7823  0.7186 -1.0619
  831MOL0     C 9583   4.584  11.653   1.402 -0.5975 -0.4360 -0.1716
  831MOL0     O 9584   4.557  11.674   1.537 -0.2915 -0.6211 -0.2296
  831MOL0     C 9585   4.626  11.746   1.633  0.3278  0.0027  0.6377
  831MOL0     C 9586   4.693  11.867   1.619 -0.0829 -0.4013 -0.3069
  831MOL0     C 9587   4.747  11.936   1.729 -0.3593 -0.1798  0.3645
  831MOL0     C 9588   4.728  11.880   1.859 -0.2384  0.1276  0.6961
  831MOL0     C 9589   4.784  11.951   1.981 -1.1834  0.2526  0.4904
  831MOL0     O 9590   4.804  12.089   1.967 -0.2854  0.0010 -0.1538
  831MOL0     C 9591   4.878  12.151   2.065 -0.4584 -0.3408  0.2276
  831MOL0     C 9592   4.817  12.226   2.160  0.2421  0.2210 -0.0974
  831MOL0     C 9593   4.896  12.294   2.251  0.7623 -0.3892  0.1324
  831MOL0     C 9594   5.038  12.289   2.247 -0.1731  0.4927 -0.6220
  831MOL0     O 9595   5.104  12.359   2.347  0.1014 -0.0273 -0.5683
  831MOL0     C 9596   5.255  12.339   2.365  0.2177  1.2101 -0.2894
  831MOL0     C 9597   5.300  12.439   2.469 -0.7033 -0.8820 -1.0086
  831MOL0     C 9598   5.436  12.408   2.531  0.6722 -0.7401  0.4542
  831MOL0     C 9599   5.475  12.513   2.637 -0.5254  0.5090  0.7630
  831MOL0     C 9600   5.594  12.474   2.718 -0.8287 -0.3775 -0.1216
  831MOL0     C 9601   5.651  12.584   2.804  0.0103  0.1743 -0.3394
  831MOL0     C 9602   5.729  12.527   2.918  0.2159 -0.4182  0.7214
  831MOL0     C 9603   5.796  12.623   3.014 -0.8523  0.1715  0.5684
  831MOL0    Cl 9604   5.669  12.685   3.116  0.4214 -0.0571  0.3334
  831MOL0     C 9605   5.097  12.207   2.150  0.4895  0.0188  0.5689
  831MOL0     C 9606   5.023  12.134   2.061  0.8920  0.9917  0.0450
  831MOL0     O 9607   4.824  11.885   2.082 -0.4893 -0.0942  0.2420
  831MOL0     C 9608   4.654  11.767   1.873 -0.0656  0.1586  0.1278
  831MOL0     C 9609   4.604  11.696   1.761 -0.2152 -0.0124  0.6053
  831MOL0     N 9610   5.052  11.623   1.093  0.0312  1.0487  0.8295
  831MOL0     N 9611   5.103  11.607   0.976  0.1042 -0.7627  0.5054
  831MOL0     C 9612   5.305  10.463   0.766  0.4932 -0.1597 -0.1359
  831MOL0     C 9613   5.245  10.401   0.879 -0.0639  0.2681 -1.5271
  831MOL0     C 9614   5.123  10.155   1.215  0.3900  0.2896  0.1254
  831MOL0     C 9615   5.063  10.031   1.220 -0.9643 -1.1122  0.7866
  831MOL0     C 9616   4.978  10.000   1.323 -0.5488 -0.4277 -0.7976
  831MOL0     C 9617   4.964  10.094   1.433  0.0175  0.0193  0.2676
  831MOL0     O 9618   4.890  10.061   1.541  0.4231 -0.0542  0.3041
  831MOL0     C 9619   4.862   9.922   1.571 -0.2695 -0.7727 -0.0242
  831MOL0     C 9620   4.732   9.887   1.498  0.7467  0.1514  0.2217
  831MOL0     C 9621   4.600   9.934   1.569 -0.5913 -0.0342 -0.9963
  831MOL0     C 9622   4.558  10.051   1.495  0.7253 -0.9068  0.9371
  831MOL0     C 9623   4.441  10.112   1.556 -0.1519 -0.1482  0.3217
  831MOL0     C 9624   4.352  10.170   1.614 -0.0560  0.0313  0.0590
  831MOL0     C 9625   5.012  10.216   1.416  0.0426 -1.4100  0.6159
  831MOL0     C 9626   5.092  10.250   1.311  0.0429 -1.1390  0.0481
  831MOL0     H 9627   5.523  10.370   1.076 -2.0138  2.4210  2.2161
  831MOL0     H 9628   5.636  10.459   0.863  0.7222 -0.8956 -0.7157
  831MOL0     H 9629   5.322  10.687   0.624  0.2301  3.4715 -0.9984
  831MOL0     H 9630   5.461  10.728   0.525 -0.5256  1.8993  0.4614
  831MOL0     H 9631   5.562  10.830   0.708  1.6065 -4.1272 -0.2907
  831MOL0     H 9632   5.434  10.771   0.821  0.6894 -0.1436 -0.6356
  831MOL0     H 9633   5.253  10.893   0.750  1.2993 -3.0468 -0.0805
  831MOL0     H 9634   5.332  10.971   0.613 -0.3710  2.1125  0.4961
  831MOL0     H 9635   5.387  11.035   0.899  1.1075  0.4533  0.8301
  831MOL0     H 9636   5.490  11.083   0.762 -0.9325  1.4027 -0.0548
  831MOL0     H 9637   5.326  11.222   0.669 -0.9292  1.7639  0.5696
  831MOL0     H 9638   5.354  11.266   0.836  0.1937 -0.7315 -0.2107
  831MOL0     H 9639   5.131  11.150   0.886  3.8393 -2.1883  0.1675
  831MOL0     H 9640   5.125  11.098   0.720  0.5481  0.8396 -1.6542
  831MOL0     H 9641   5.076  11.295   0.622  0.8329 -0.6807  0.5150
  831MOL0     H 9642   4.971  11.273   0.746 -0.8638 -0.3965  0.9905
  831MOL0     H 9643   5.041  11.507   0.713  1.0035  3.1071  1.7566
  831MOL0     H 9644   5.201  11.481   0.771 -0.1379  0.5993 -0.3089
  831MOL0     H 9645   4.929  11.330   0.994  1.6159 -0.9268 -2.9419
  831MOL0     H 9646   4.956  11.493   1.317  0.7843  0.9401 -0.3744
  831MOL0     H 9647   4.847  11.383   1.233 -0.5998  0.2380 -1.7650
  831MOL0     H 9648   4.683  11.511   1.197  0.7161  0.1547 -1.8050
  831MOL0     H 9649   4.774  11.663   1.197  0.9899 -2.1647 -1.4372
  831MOL0     H 9650   4.726  11.509   1.450  4.3155 -0.6037 -2.7075
  831MOL0     H 9651   4.797  11.670   1.429 -0.3117  0.1412  2.1298
  831MOL0     H 9652   4.505  11.592   1.356  0.0540 -2.2759  1.0277
  831MOL0     H 9653   4.583  11.752   1.356 -4.2186  0.9871  2.4427
  831MOL0     H 9654   4.713  11.907   1.520 -0.9118  0.0796 -0.2941
  831MOL0     H 9655   4.776  12.040   1.725 -2.4330  0.4064 -0.6686
  831MOL0     H 9656   4.709  12.226   2.171  0.4516 -0.2864  2.6260
  831MOL0     H 9657   4.854  12.372   2.313  2.6729  3.3420 -2.8226
  831MOL0     H 9658   5.306  12.358   2.270 -0.9329 -3.1456 -1.9920
  831MOL0     H 9659   5.275  12.233   2.384 -2.1291  0.5061 -1.3014
  831MOL0     H 9660   5.229  12.444   2.552  0.1202 -0.8781 -0.2904
  831MOL0     H 9661   5.314  12.541   2.431 -0.8275  0.4546  2.2307
  831MOL0     H 9662   5.512  12.404   2.453  0.8057 -2.1394  0.6399
  831MOL0     H 9663   5.431  12.308   2.576 -0.9578 -0.4124  1.1019
  831MOL0     H 9664   5.490  12.605   2.580  1.1948 -0.5893 -0.7023
  831MOL0     H 9665   5.394  12.534   2.707 -0.9490  3.6390 -0.4942
  831MOL0     H 9666   5.662  12.440   2.639 -0.5447  0.8300 -0.4162
  831MOL0     H 9667   5.580  12.387   2.783 -1.6889 -1.7045 -1.9840
  831MOL0     H 9668   5.565  12.639   2.842  0.8699  1.8142 -0.6915
  831MOL0     H 9669   5.713  12.651   2.745 -2.4902  3.1535  0.1943
  831MOL0     H 9670   5.683  12.458   2.989 -1.0014  2.1792  2.5810
  831MOL0     H 9671   5.811  12.472   2.872 -0.0173 -1.1322  1.1372
  831MOL0     H 9672   5.844  12.707   2.963 -1.9190  1.2829  1.3303
  831MOL0     H 9673   5.864  12.563   3.076 -1.2353  0.7314  1.5535
  831MOL0     H 9674   5.204  12.187   2.147  1.0346  2.4549  1.3796
  831MOL0     H 9675   5.064  12.070   1.983  2.4494  1.6415  0.2964
  831MOL0     H 9676   4.640  11.726   1.973 -3.5094  0.0674 -0.2652
  831MOL0     H 9677   4.552  11.604   1.786 -1.3301  0.1401 -1.0029
  831MOL0     H 9678   5.246  10.493   0.680  1.2444 -0.9168 -0.9346
  831MOL0     H 9679   5.140  10.376   0.881 -0.2230  0.7635  1.7221
  831MOL0     H 9680   5.062   9.959   1.139 -4.1986 -1.1201  0.6844
  831MOL0     H 9681   4.936   9.900   1.330  2.9374 -2.0502 -1.1466
  831MOL0     H 9682   4.868   9.911   1.680  2.1149  3.0847  0.4100
  831MOL0     H 9683   4.942   9.854   1.542 -3.0421 -3.8059 -1.1679
  831MOL0     H 9684   4.732   9.922   1.395  0.6189  1.9505  0.8090
  831MOL0     H 9685   4.724   9.778   1.487  0.5117  0.0055  1.6479
  831MOL0     H 9686   4.624   9.971   1.669  0.0610  0.1349 -1.2111
  831MOL0     H 9687   4.527   9.853   1.572 -2.0612  1.1950 -2.2388
  831MOL0     H 9688   4.628  10.134   1.505 -0.1299 -0.1110  0.4923
  831MOL0     H 9689   4.542  10.042   1.387  0.4633  1.4063  0.7441
  831MOL0     H 9690   4.273  10.226   1.659  3.1968  3.7084  1.7859
  831MOL0     H 9691   4.985  10.293   1.486  1.0624 -1.3373  0.9499
  831MOL0     H 9692   5.117  10.354   1.293  0.4591 -1.4269 -1.2281
  832MOL0     O 9693   1.390   9.202   9.368 -0.0231  0.1348 -0.7810
  832MOL0     C 9694   1.449   9.178   9.264  0.6146  0.3423  0.1062
  832MOL0     O 9695   1.418   9.092   9.153  1.1272  1.4411 -0.5358
  832MOL0     C 9696   1.288   9.040   9.166 -0.4268 -0.4331 -0.1546
  832MOL0     C 9697   1.200   9.050   9.057 -0.6261 -0.0579 -0.1564
  832MOL0     C 9698   1.087   8.971   9.045  0.2271 -0.2646  0.3007
  832MOL0     C 9699   1.036   8.904   9.155 -0.1556  0.1129  0.2477
  832MOL0     O 9700   0.917   8.839   9.147  0.9154 -0.5329 -0.3812
  832MOL0     C 9701   0.871   8.761   9.258 -0.0050  0.4190  0.9353
  832MOL0     C 9702   0.944   8.625   9.257 -0.8915 -0.2614 -0.0577
  832MOL0     C 9703   0.873   8.503   9.328 -0.0030  0.1698 -0.4313
  832MOL0     C 9704   0.901   8.497   9.484  0.3604 -0.5741  0.5680
  832MOL0     C 9705   0.861   8.373   9.554  0.2292  1.0903  0.0818
  832MOL0     C 9706   0.715   8.352   9.557 -0.2741  0.9537 -0.4714
  832MOL0     C 9707   0.688   8.212   9.606 -0.3606  0.1786 -0.7852
  832MOL0     C 9708   0.548   8.165   9.547 -0.8237 -0.5871 -0.9845
  832MOL0     N 9709   0.501   8.038   9.573 -0.9438  0.7971 -0.3163
  832MOL0     C 9710   0.584   7.933   9.561  0.3255  0.0389  0.1498
  832MOL0     C 9711   0.513   7.829   9.609  0.8737 -0.2083 -0.5372
  832MOL0     C 9712   0.578   7.700   9.643  0.1847 -0.0756  1.3175
  832MOL0     C 9713   0.542   7.609   9.534 -0.1585  0.7908 -0.0517
  832MOL0     C 9714   0.613   7.472   9.553 -0.6416  0.1850 -0.3835
  832MOL0     C 9715   0.533   7.370   9.641  0.0974  0.2789  0.1622
  832MOL0     O 9716   0.615   7.256   9.653  0.5938  0.0759 -0.0367
  832MOL0     C 9717   0.570   7.171   9.745 -0.4115 -0.6499  0.3698
  832MOL0     C 9718   0.448   7.168   9.812 -0.2211 -1.0574 -0.0422
  832MOL0     C 9719   0.414   7.062   9.899  0.0040 -0.0588 -0.6179
  832MOL0     C 9720   0.500   6.958   9.930 -0.2522  0.7958 -0.9991
  832MOL0     C 9721   0.471   6.853  10.032 -0.9187  0.2365  0.0308
  832MOL0     O 9722   0.353   6.876  10.094 -0.3340 -0.4647  0.7158
  832MOL0     C 9723   0.292   6.790  10.182  0.1165  0.3798 -0.3018
  832MOL0     C 9724   0.271   6.655  10.155 -1.1221 -0.2032 -0.6117
  832MOL0     C 9725   0.236   6.568  10.258 -0.5554 -0.0326 -0.1495
  832MOL0     C 9726   0.243   6.613  10.395 -0.1208 -0.0417  0.2365
  832MOL0     O 9727   0.223   6.533  10.503  0.7739 -0.2640  0.6674
  832MOL0     C 9728   0.217   6.389  10.469  0.5663 -0.7129  0.2521
  832MOL0     C 9729   0.210   6.301  10.598  0.1935 -0.0413 -0.4652
  832MOL0     C 9730   0.210   6.144  10.573  0.2733 -0.5056 -0.4566
  832MOL0     C 9731   0.286   6.073  10.688 -1.0214  0.0017  0.5098
  832MOL0     C 9732   0.315   5.924  10.668  0.0727 -0.0910 -0.3639
  832MOL0     C 9733   0.185   5.848  10.673 -0.0786  0.2185  0.2145
  832MOL0     C 9734   0.103   5.853  10.800 -0.2515  0.0859 -1.9476
  832MOL0     C 9735  -0.013   5.956  10.810  0.5124 -0.6114  0.1966
  832MOL0    Cl 9736  -0.096   5.935  10.962  0.1125  0.5619 -0.0012
  832MOL0     C 9737   0.273   6.745  10.416  0.5411 -0.2280 -0.6897
  832MOL0     C 9738   0.295   6.832  10.312  0.3465 -0.0792 -0.4417
  832MOL0     O 9739   0.538   6.758  10.051 -0.6671  0.5039  1.2229
  832MOL0     C 9740   0.621   6.964   9.863 -0.7624  0.4336 -0.9088
  832MOL0     C 9741   0.652   7.066   9.768 -0.3476  1.4880 -0.1075
  832MOL0     N 9742   0.391   7.872   9.654 -0.2146  0.1730 -1.1573
  832MOL0     N 9743   0.380   7.999   9.622  0.2964  0.0681  0.7878
  832MOL0     C 9744   1.119   8.904   9.274 -0.1229  0.0898 -0.5703
  832MOL0     C 9745   1.241   8.974   9.272 -0.6801  0.4388 -0.0149
  832MOL0     C 9746   1.587   9.239   9.241 -0.2486  0.7160  0.2860
  832MOL0     C 9747   1.692   9.240   9.332  0.6430  0.4015 -0.5438
  832MOL0     C 9748   1.815   9.294   9.302  0.1835 -0.2301 -1.0983
  832MOL0     C 9749   1.834   9.354   9.180 -0.6904 -0.1210 -0.6416
  832MOL0     O 9750   1.948   9.424   9.163 -0.6679 -0.3960 -0.7244
  832MOL0     C 9751   2.063   9.336   9.141  1.1521  0.7762 -0.0904
  832MOL0     C 9752   2.188   9.412   9.083  0.0661  0.7306 -0.5896
  832MOL0     C 9753   2.244   9.505   9.198  0.3057 -0.3507  0.1821
  832MOL0     C 9754   2.386   9.469   9.241  0.4232 -0.7454 -0.1554
  832MOL0     C 9755   2.406   9.326   9.281 -0.6024  0.8663  0.1404
  832MOL0     C 9756   2.414   9.204   9.294  0.5846  0.5708 -0.0647
  832MOL0     C 9757   1.735   9.344   9.084  0.0754  0.4986  1.0643
  832MOL0     C 9758   1.610   9.290   9.118  0.0941 -0.3209  0.4268
  832MOL0     H 9759   1.228   9.111   8.972 -2.4700  1.0381 -0.0281
  832MOL0     H 9760   1.029   8.984   8.954  1.3746 -0.3787 -0.4652
  832MOL0     H 9761   0.768   8.729   9.240 -0.2088  1.0296  0.9926
  832MOL0     H 9762   0.866   8.814   9.354  0.1216 -0.9474  1.7265
  832MOL0     H 9763   1.045   8.644   9.296  0.4014  1.1170 -3.6150
  832MOL0     H 9764   0.964   8.593   9.154 -0.4491  1.0064 -0.3782
  832MOL0     H 9765   0.920   8.414   9.284  0.9857 -0.3253  1.5148
  832MOL0     H 9766   0.766   8.515   9.309  0.5833  3.1105 -2.5402
  832MOL0     H 9767   1.006   8.520   9.500  0.2677  0.6077 -0.3710
  832MOL0     H 9768   0.851   8.584   9.528  1.0066 -1.9697  4.5144
  832MOL0     H 9769   0.895   8.377   9.658  2.1428  2.3783 -0.5501
  832MOL0     H 9770   0.911   8.288   9.507 -0.9441  0.3002  0.2107
  832MOL0     H 9771   0.673   8.374   9.459  0.0791  2.7966 -0.2374
  832MOL0     H 9772   0.674   8.422   9.630 -0.0800  1.2726 -0.6683
  832MOL0     H 9773   0.761   8.138   9.573 -0.2982 -0.7100  1.2141
  832MOL0     H 9774   0.699   8.215   9.715 -1.6646 -1.1643 -0.5770
  832MOL0     H 9775   0.556   8.176   9.439 -3.8833  0.2629 -1.2305
  832MOL0     H 9776   0.481   8.243   9.585  0.5227  0.1578 -0.0366
  832MOL0     H 9777   0.689   7.922   9.538  0.0234 -1.3116 -0.7168
  832MOL0     H 9778   0.536   7.679   9.742  1.7645 -3.1221  1.4388
  832MOL0     H 9779   0.686   7.709   9.651  0.7225 -1.8965 -2.0057
  832MOL0     H 9780   0.564   7.648   9.434 -1.2083  0.6750 -0.3371
  832MOL0     H 9781   0.433   7.604   9.540 -0.3271  3.4453  0.5920
  832MOL0     H 9782   0.622   7.421   9.457  0.9185 -0.6852  0.1751
  832MOL0     H 9783   0.714   7.498   9.586 -0.5020 -1.9044  1.0568
  832MOL0     H 9784   0.439   7.350   9.589  0.2015  1.9906 -0.7612
  832MOL0     H 9785   0.512   7.417   9.737 -1.7911 -2.0790  0.9915
  832MOL0     H 9786   0.363   7.230   9.786 -0.9156 -0.8541  2.4408
  832MOL0     H 9787   0.311   7.070   9.932  0.1523 -0.6607  0.0058
  832MOL0     H 9788   0.291   6.607  10.060 -3.0033 -3.0417  0.3002
  832MOL0     H 9789   0.215   6.467  10.222 -0.8753 -1.0508  2.6411
  832MOL0     H 9790   0.298   6.368  10.400  0.5268  1.1274 -0.4094
  832MOL0     H 9791   0.124   6.370  10.414 -0.9021  1.3651  1.8206
  832MOL0     H 9792   0.130   6.329  10.667 -0.1237  1.0004 -1.2233
  832MOL0     H 9793   0.305   6.325  10.647 -0.2193  3.9528 -1.2354
  832MOL0     H 9794   0.267   6.127  10.481  1.7309 -0.6777  0.4427
  832MOL0     H 9795   0.109   6.102  10.566  0.1192 -0.9017  2.7111
  832MOL0     H 9796   0.376   6.134  10.697 -2.8568  3.4484 -2.2016
  832MOL0     H 9797   0.238   6.081  10.786  1.4260  3.1878  1.6032
  832MOL0     H 9798   0.385   5.893  10.746  0.8101 -1.4957 -1.5311
  832MOL0     H 9799   0.357   5.901  10.569 -1.7374 -0.6190 -1.0592
  832MOL0     H 9800   0.224   5.746  10.662 -0.5348  0.0716 -0.0723
  832MOL0     H 9801   0.137   5.870  10.577 -1.1342  2.6318  1.2064
  832MOL0     H 9802   0.055   5.759  10.829 -1.8955  2.1132  2.6996
  832MOL0     H 9803   0.169   5.884  10.882 -4.9535  1.6742  1.6499
  832MOL0     H 9804  -0.082   5.931  10.729  1.8239  1.6376 -1.7258
  832MOL0     H 9805   0.023   6.057  10.792  1.2934 -0.8470  0.4192
  832MOL0     H 9806   0.259   6.786  10.516 -0.2966 -2.6962  0.3100
  832MOL0     H 9807   0.317   6.937  10.332 -2.1099  0.3372  0.4495
  832MOL0     H 9808   0.702   6.899   9.893  1.3253  2.9678 -0.6417
  832MOL0     H 9809   0.743   7.074   9.708 -0.5828 -1.5884 -1.0908
  832MOL0     H 9810   1.111   8.856   9.371  2.6734  1.6792  0.5702
  832MOL0     H 9811   1.290   8.964   9.369 -2.6733 -2.0061  0.8498
  832MOL0     H 9812   1.674   9.201   9.432 -0.8738  0.4857 -0.7486
  832MOL0     H 9813   1.896   9.312   9.372 -0.4798 -0.3640 -0.2862
  832MOL0     H 9814   2.037   9.265   9.062 -1.9061 -1.5418  2.7118
  832MOL0     H 9815   2.085   9.275   9.229 -1.2481  0.0070  0.0522
  832MOL0     H 9816   2.260   9.331   9.071  1.5197  1.2474  3.2895
  832MOL0     H 9817   2.176   9.451   8.981 -0.7497  2.9382  0.2827
  832MOL0     H 9818   2.189   9.491   9.292  0.8179 -1.5773  0.3300
  832MOL0     H 9819   2.247   9.608   9.163  0.8144 -0.2890  0.4025
  832MOL0     H 9820   2.446   9.490   9.152 -0.0878 -0.9268 -0.5492
  832MOL0     H 9821   2.412   9.513   9.338  1.5310  0.3312 -0.9078
  832MOL0     H 9822   2.410   9.098   9.302  1.8243  0.3350 -1.8891
  832MOL0     H 9823   1.746   9.395   8.989 -1.3567  4.6513  2.8828
  832MOL0     H 9824   1.524   9.277   9.053  0.4297  0.1486 -0.1167
  833MOL0     O 9825   9.954   9.674   4.331  0.6393 -0.3470 -0.0421
  833MOL0     C 9826   9.958   9.742   4.439 -0.7920 -0.2756 -0.0665
  833MOL0     O 9827  10.054   9.718   4.547  0.6398  0.4863  0.0642
  833MOL0     C 9828  10.175   9.662   4.515 -0.9959  0.3714 -0.6215
  833MOL0     C 9829  10.228   9.561   4.601  0.0346  0.9346  0.6707
  833MOL0     C 9830  10.342   9.494   4.567 -0.1734  0.0276 -0.2166
  833MOL0     C 9831  10.418   9.521   4.457 -0.7277  0.0117 -0.9083
  833MOL0     O 9832  10.535   9.447   4.444 -0.1020 -0.5120  0.2586
  833MOL0     C 9833  10.655   9.514   4.389  0.6978 -0.6359  0.8522
  833MOL0     C 9834  10.736   9.607   4.488 -0.1349  0.0187 -0.7226
  833MOL0     C 9835  10.795   9.534   4.622  0.1805 -0.0503 -0.4373
  833MOL0     C 9836  10.718   9.572   4.743 -0.2580 -0.9582 -0.0994
  833MOL0     C 9837  10.797   9.534   4.874 -0.1170 -0.4483  0.0007
  833MOL0     C 9838  10.826   9.390   4.893 -0.4662 -0.4607  0.2601
  833MOL0     C 9839  10.704   9.306   4.916  0.0847  0.0319  0.9390
  833MOL0     C 9840  10.727   9.153   4.871  0.4585 -0.0135 -0.0202
  833MOL0     N 9841  10.680   9.113   4.734  0.0542  0.0499  0.2271
  833MOL0     C 9842  10.553   9.139   4.684 -0.3164 -0.1497 -1.0518
  833MOL0     C 9843  10.558   9.095   4.558 -0.1846 -0.3261 -0.1675
  833MOL0     C 9844  10.438   9.116   4.470 -0.0234  0.2981 -0.6911
  833MOL0     C 9845  10.456   9.090   4.316 -0.1162  0.1609 -0.0865
  833MOL0     C 9846  10.445   8.936   4.291 -0.3262 -0.6562  0.3414
  833MOL0     C 9847  10.499   8.895   4.165  0.2608  0.5536  0.2019
  833MOL0     O 9848  10.438   8.980   4.060 -0.2703  0.3324  0.5499
  833MOL0     C 9849  10.494   8.960   3.928  0.0573  0.6495  0.0841
  833MOL0     C 9850  10.632   8.970   3.901  0.7677 -0.1421  0.8125
  833MOL0     C 9851  10.673   8.914   3.776 -0.3613  0.2740 -0.2382
  833MOL0     C 9852  10.580   8.861   3.689 -0.5280 -0.3028 -0.4552
  833MOL0     C 9853  10.626   8.807   3.561  1.1795 -0.3452 -0.9648
  833MOL0     O 9854  10.757   8.781   3.555 -0.2162  0.0603 -0.3774
  833MOL0     C 9855  10.815   8.762   3.431  0.4348 -0.0857 -0.6459
  833MOL0     C 9856  10.872   8.638   3.416 -1.3783 -0.4079  0.0332
  833MOL0     C 9857  10.922   8.595   3.284 -0.3438 -0.4424 -0.2874
  833MOL0     C 9858  10.915   8.688   3.170 -0.2084 -0.0651  0.0697
  833MOL0     O 9859  10.974   8.661   3.047 -0.5224  1.1648 -0.3126
  833MOL0     C 9860  11.008   8.522   2.997  0.1457 -0.4119 -1.0001
  833MOL0     C 9861  11.118   8.527   2.901 -0.1047 -0.5209 -0.0705
  833MOL0     C 9862  11.071   8.601   2.784 -0.1835 -0.6476 -0.7731
  833MOL0     C 9863  11.189   8.614   2.676  0.1143 -0.2161  0.6466
  833MOL0     C 9864  11.304   8.702   2.696  0.1234 -0.3229  0.4891
  833MOL0     C 9865  11.405   8.704   2.581  0.0809 -0.1758 -0.4238
  833MOL0     C 9866  11.522   8.788   2.618  0.1588  0.3926  0.1681
  833MOL0     C 9867  11.628   8.777   2.509  0.3954 -0.2345 -0.8904
  833MOL0    Cl 9868  11.741   8.639   2.545  0.0586  0.5101  0.2162
  833MOL0     C 9869  10.858   8.815   3.195 -0.1195 -0.5651  0.0221
  833MOL0     C 9870  10.801   8.853   3.320 -0.0281  0.5492 -0.2222
  833MOL0     O 9871  10.543   8.784   3.471 -0.2832 -0.7505  0.1988
  833MOL0     C 9872  10.438   8.853   3.719  0.1320 -1.0359 -0.5787
  833MOL0     C 9873  10.394   8.922   3.830 -0.4692 -0.4073 -0.6292
  833MOL0     N 9874  10.688   9.058   4.531 -0.5626 -0.4991 -0.4445
  833MOL0     N 9875  10.765   9.074   4.636 -0.2129 -0.4861 -0.0515
  833MOL0     C 9876  10.359   9.607   4.363  0.6146 -0.0164  0.0342
  833MOL0     C 9877  10.248   9.685   4.397  0.4453  0.3931  1.1079
  833MOL0     C 9878   9.874   9.860   4.453  0.1004 -0.5268  0.6368
  833MOL0     C 9879   9.791   9.894   4.347  0.3610 -0.7312 -0.1128
  833MOL0     C 9880   9.706   9.997   4.363  0.0609 -0.2961  1.0827
  833MOL0     C 9881   9.695  10.071   4.476  0.4285  0.1710  0.1746
  833MOL0     O 9882   9.613  10.183   4.494 -0.5147 -0.0508 -0.4303
  833MOL0     C 9883   9.477  10.176   4.436 -0.1143  0.8759 -0.3718
  833MOL0     C 9884   9.393  10.047   4.460 -0.0253 -0.3695 -0.1793
  833MOL0     C 9885   9.323   9.983   4.325  0.3704  1.4991 -0.0165
  833MOL0     C 9886   9.200   9.882   4.349 -0.0851  0.3070 -0.3442
  833MOL0     C 9887   9.251   9.743   4.353 -0.7758  0.4778  0.2596
  833MOL0     C 9888   9.297   9.634   4.375  0.0804 -0.7942  0.6855
  833MOL0     C 9889   9.776  10.037   4.587  0.0046 -0.7429  0.7211
  833MOL0     C 9890   9.857   9.924   4.580 -0.3438 -0.5278  0.1299
  833MOL0     H 9891  10.168   9.544   4.690 -2.2923  1.6686 -0.6476
  833MOL0     H 9892  10.373   9.408   4.627 -4.4350 -2.7551 -1.4868
  833MOL0     H 9893  10.624   9.564   4.297  0.3217 -0.0211  1.2977
  833MOL0     H 9894  10.730   9.439   4.364  2.0435  1.0152 -0.2867
  833MOL0     H 9895  10.669   9.691   4.512 -1.1469 -0.5040 -1.6269
  833MOL0     H 9896  10.816   9.647   4.424  0.9988 -1.8717 -0.5486
  833MOL0     H 9897  10.903   9.547   4.635  0.4469  1.0049 -3.0227
  833MOL0     H 9898  10.796   9.425   4.606 -1.3396 -0.1778  0.2116
  833MOL0     H 9899  10.687   9.676   4.750  0.0630 -0.8687  0.0352
  833MOL0     H 9900  10.626   9.515   4.729 -0.9528  0.5142 -1.9590
  833MOL0     H 9901  10.744   9.561   4.966  0.4952 -0.3530  0.3270
  833MOL0     H 9902  10.894   9.582   4.888  0.1098 -0.2775 -1.9148
  833MOL0     H 9903  10.899   9.384   4.974  0.7943  0.4302 -0.7593
  833MOL0     H 9904  10.868   9.351   4.799 -0.2363  2.4440 -0.9406
  833MOL0     H 9905  10.679   9.300   5.023  0.9863  2.4140  1.3393
  833MOL0     H 9906  10.623   9.346   4.854  0.4515  0.6320  0.8436
  833MOL0     H 9907  10.685   9.084   4.945  1.5361  1.2086  1.8122
  833MOL0     H 9908  10.835   9.140   4.873  0.7255  1.4498 -1.8576
  833MOL0     H 9909  10.469   9.190   4.732  0.5303 -0.0918  0.4395
  833MOL0     H 9910  10.398   9.215   4.491 -3.2824 -1.0807  0.2143
  833MOL0     H 9911  10.371   9.036   4.502 -0.6234 -0.5510 -3.7137
  833MOL0     H 9912  10.556   9.125   4.287  1.6651 -2.5609  2.1518
  833MOL0     H 9913  10.393   9.146   4.247 -1.5497 -3.5105 -2.0382
  833MOL0     H 9914  10.504   8.882   4.366 -1.7327 -0.6526  1.5056
  833MOL0     H 9915  10.339   8.916   4.307 -1.1132  2.8779  0.4381
  833MOL0     H 9916  10.501   8.787   4.148  0.6747  0.6285 -0.2560
  833MOL0     H 9917  10.602   8.930   4.173  0.1706  1.6058 -2.2880
  833MOL0     H 9918  10.694   9.015   3.977 -0.0260  0.1838  1.2842
  833MOL0     H 9919  10.776   8.918   3.742 -0.1277 -3.5059 -0.4217
  833MOL0     H 9920  10.895   8.568   3.495 -0.8574 -2.7090 -2.0316
  833MOL0     H 9921  10.985   8.507   3.279  2.1307  1.1116  1.2667
  833MOL0     H 9922  10.923   8.470   2.952 -0.6941  0.2051 -0.1733
  833MOL0     H 9923  11.033   8.461   3.084 -2.3238  3.3955  2.7905
  833MOL0     H 9924  11.140   8.421   2.888  1.2288 -0.2935  0.1359
  833MOL0     H 9925  11.209   8.572   2.942 -0.5207  1.8881 -1.5679
  833MOL0     H 9926  11.034   8.701   2.807  1.1386 -0.3191  0.0511
  833MOL0     H 9927  10.985   8.548   2.742 -2.9458  1.2105  2.1266
  833MOL0     H 9928  11.224   8.511   2.661 -0.2304 -0.2932  0.3536
  833MOL0     H 9929  11.138   8.643   2.584 -1.3704 -1.5718  1.0019
  833MOL0     H 9930  11.355   8.670   2.787 -0.4202 -2.4441  0.1104
  833MOL0     H 9931  11.261   8.802   2.700 -2.3287 -1.2580 -0.6196
  833MOL0     H 9932  11.360   8.753   2.494  1.4093 -0.3219 -1.2270
  833MOL0     H 9933  11.452   8.611   2.547  0.8243  0.8722 -2.3708
  833MOL0     H 9934  11.491   8.893   2.629  1.4233  0.7480  0.4954
  833MOL0     H 9935  11.563   8.777   2.719  2.2993  1.6481 -0.4861
  833MOL0     H 9936  11.674   8.876   2.514 -3.9678  2.1525 -2.1334
  833MOL0     H 9937  11.593   8.765   2.406 -0.5157  0.8038 -0.7256
  833MOL0     H 9938  10.866   8.871   3.103  0.9832  0.0311  0.4666
  833MOL0     H 9939  10.746   8.946   3.319  0.3330  0.8252  1.4338
  833MOL0     H 9940  10.353   8.817   3.663 -1.0273 -1.5336  1.3897
  833MOL0     H 9941  10.289   8.938   3.850 -0.3237  1.4972 -1.2192
  833MOL0     H 9942  10.404   9.627   4.267 -1.3838  2.6971 -0.4436
  833MOL0     H 9943  10.209   9.762   4.331  0.5647 -0.1186  0.4242
  833MOL0     H 9944   9.787   9.838   4.254 -1.8876  2.9457 -2.4841
  833MOL0     H 9945   9.633   9.997   4.282 -0.1886 -4.8012  1.0425
  833MOL0     H 9946   9.471  10.192   4.328  0.7791 -1.3182 -0.7966
  833MOL0     H 9947   9.420  10.253   4.489  0.6097 -0.3646  2.4410
  833MOL0     H 9948   9.457   9.976   4.514 -1.0328 -2.4344 -1.5409
  833MOL0     H 9949   9.307  10.067   4.524  1.4176 -1.7258  2.3406
  833MOL0     H 9950   9.398   9.935   4.261 -1.4696  0.4981 -1.5306
  833MOL0     H 9951   9.279  10.064   4.267  2.7451  2.3403 -0.7535
  833MOL0     H 9952   9.151   9.905   4.444  1.0159  0.7005  0.1437
  833MOL0     H 9953   9.128   9.890   4.267  1.0925 -1.0862 -1.5852
  833MOL0     H 9954   9.335   9.535   4.395 -3.3811 -2.4041  0.0470
  833MOL0     H 9955   9.742  10.083   4.679 -0.6503  0.7057 -0.2169
  833MOL0     H 9956   9.902   9.889   4.673  1.2588  0.4470 -0.2359
  834MOL0     O 9957   7.171   3.862   8.372  0.1484 -0.0564 -0.4972
  834MOL0     C 9958   7.124   3.756   8.418  0.3049 -0.0469 -0.2074
  834MOL0     O 9959   7.160   3.629   8.371 -0.2546  0.7186 -0.6227
  834MOL0     C 9960   7.263   3.621   8.280 -0.3096  0.5226 -0.1459
  834MOL0     C 9961   7.250   3.606   8.146  0.2174 -0.0472  0.1654
  834MOL0     C 9962   7.357   3.597   8.059 -0.2232 -0.8220 -0.2921
  834MOL0     C 9963   7.487   3.617   8.097  0.7744  0.6597 -0.3966
  834MOL0     O 9964   7.586   3.617   8.005 -0.6696 -0.5009 -1.1629
  834MOL0     C 9965   7.728   3.607   8.028  0.6219  0.2429 -0.5828
  834MOL0     C 9966   7.799   3.672   7.914 -0.0885 -0.0567  0.4130
  834MOL0     C 9967   7.821   3.571   7.798  0.2334  0.5790  0.2071
  834MOL0     C 9968   7.901   3.625   7.673  0.2826  0.6217 -0.0438
  834MOL0     C 9969   7.927   3.522   7.567 -0.4819  0.3880 -1.0594
  834MOL0     C 9970   8.011   3.595   7.463 -0.0131 -0.1185  0.5781
  834MOL0     C 9971   8.026   3.528   7.324  0.4381  0.4790  0.8691
  834MOL0     C 9972   8.109   3.402   7.331  0.6331 -0.0857 -0.1290
  834MOL0     N 9973   8.256   3.412   7.363 -0.4576 -0.4998 -0.4541
  834MOL0     C 9974   8.320   3.378   7.481 -0.0503 -0.1320 -0.4338
  834MOL0     C 9975   8.450   3.405   7.461  0.3971  0.5306 -0.2764
  834MOL0     C 9976   8.567   3.387   7.549 -1.1349 -0.1564 -0.5034
  834MOL0     C 9977   8.581   3.237   7.582 -0.1543 -0.2919  0.3145
  834MOL0     C 9978   8.690   3.222   7.686 -0.4168  0.0432 -0.6471
  834MOL0     C 9979   8.705   3.077   7.738 -0.1998 -0.1987  0.4964
  834MOL0     O 9980   8.743   2.980   7.627  0.8723  0.6713 -0.2647
  834MOL0     C 9981   8.818   2.862   7.662  1.6419  0.3175 -0.1211
  834MOL0     C 9982   8.839   2.790   7.549  0.3235 -0.1008  0.3171
  834MOL0     C 9983   8.918   2.667   7.558  1.0509  0.1104  0.5950
  834MOL0     C 9984   8.959   2.629   7.690  0.9872  0.5047 -0.5775
  834MOL0     C 9985   9.024   2.497   7.718 -0.0575 -0.4155 -0.7042
  834MOL0     O 9986   9.083   2.430   7.614 -0.2039 -0.4542 -0.2040
  834MOL0     C 9987   9.162   2.317   7.622  0.1757  0.2058  0.4080
  834MOL0     C 9988   9.134   2.206   7.705 -0.7398 -0.3029 -0.3089
  834MOL0     C 9989   9.231   2.101   7.721  0.4428  0.3666 -0.3282
  834MOL0     C 9990   9.354   2.106   7.651 -0.5794  0.6109 -0.0382
  834MOL0     O 9991   9.439   1.991   7.649 -0.0918 -0.2354 -0.3903
  834MOL0     C 9992   9.372   1.861   7.654 -0.8076 -0.1481 -0.3325
  834MOL0     C 9993   9.476   1.755   7.633 -0.3833 -0.1333  0.8413
  834MOL0     C 9994   9.438   1.619   7.684 -0.0515  0.0238 -0.3592
  834MOL0     C 9995   9.574   1.541   7.697  0.5865 -0.0826 -0.0879
  834MOL0     C 9996   9.554   1.392   7.724  0.3662  0.5541 -0.2089
  834MOL0     C 9997   9.449   1.332   7.618 -0.8053 -0.1366 -0.2217
  834MOL0     C 9998   9.440   1.184   7.616 -0.6215  0.2255 -0.4906
  834MOL0     C 9999   9.576   1.109   7.599 -1.2087  0.4646 -0.5513
  834MOL0    Cl10000   9.686   1.180   7.476 -0.3332 -0.1714  0.3913
  834MOL0     C10001   9.379   2.213   7.568  0.3181  0.2065 -0.3914
  834MOL0     C10002   9.286   2.319   7.554 -0.5492 -0.7540 -0.8211
  834MOL0     O10003   9.020   2.457   7.835 -0.6855 -0.6879 -0.6232
  834MOL0     C10004   8.939   2.711   7.798 -0.6228 -0.0920  0.0177
  834MOL0     C10005   8.875   2.827   7.786  0.9157 -0.2420 -0.6026
  834MOL0     N10006   8.467   3.449   7.331  0.6105  1.0728 -0.5576
  834MOL0     N10007   8.351   3.460   7.273 -0.3756 -0.1324 -0.8598
  834MOL0     C10008   7.503   3.612   8.236 -0.6141 -0.3223  0.6268
  834MOL0     C10009   7.401   3.612   8.330  0.5361  1.2699  0.3483
  834MOL0     C10010   6.999   3.757   8.502 -0.7793  0.8528  0.3509
  834MOL0     C10011   6.964   3.870   8.574  0.7355 -0.4983  0.0100
  834MOL0     C10012   6.835   3.876   8.644 -0.1336 -0.4052 -0.0856
  834MOL0     C10013   6.761   3.753   8.653 -0.0774 -1.1144  0.0693
  834MOL0     O10014   6.634   3.737   8.710  0.3296 -0.8432  0.5493
  834MOL0     C10015   6.580   3.858   8.767  0.7855 -1.1821 -0.0242
  834MOL0     C10016   6.460   3.811   8.841  0.3685 -0.4618 -0.2316
  834MOL0     C10017   6.492   3.725   8.966  0.1790 -0.8318  0.3619
  834MOL0     C10018   6.365   3.687   9.048 -0.6127  0.1215  0.3784
  834MOL0     C10019   6.412   3.579   9.136 -0.4335  0.2374 -0.0197
  834MOL0     C10020   6.464   3.494   9.211 -0.3434 -0.2484  0.1085
  834MOL0     C10021   6.798   3.652   8.566  0.0489  1.0726  0.3155
  834MOL0     C10022   6.906   3.653   8.490 -0.6723 -0.6718 -0.8577
  834MOL0     H10023   7.156   3.607   8.091  1.0307 -1.9677 -1.3531
  834MOL0     H10024   7.353   3.591   7.950 -1.1780 -1.5300 -0.2347
  834MOL0     H10025   7.764   3.506   8.050  1.5370 -0.2584 -3.8274
  834MOL0     H10026   7.735   3.667   8.119 -0.2920 -0.7556  0.1662
  834MOL0     H10027   7.895   3.701   7.959 -0.7591 -0.6230  2.2567
  834MOL0     H10028   7.751   3.762   7.877  4.3196  1.4150 -2.6475
  834MOL0     H10029   7.730   3.519   7.765 -0.8913  0.5463  3.0557
  834MOL0     H10030   7.897   3.503   7.837  0.1189  0.2712 -0.0981
  834MOL0     H10031   7.836   3.704   7.636  1.2680  2.4848  1.9548
  834MOL0     H10032   7.999   3.662   7.706  0.7702  0.1578 -0.9447
  834MOL0     H10033   7.825   3.492   7.539 -0.6877 -1.9015  1.6623
  834MOL0     H10034   7.976   3.434   7.609  1.4731  2.6100  1.6141
  834MOL0     H10035   8.112   3.604   7.505  0.5078  1.9133 -0.9387
  834MOL0     H10036   7.962   3.690   7.443 -0.2674 -0.2938  0.3681
  834MOL0     H10037   7.928   3.492   7.292  0.6863  0.4103  0.1612
  834MOL0     H10038   8.057   3.596   7.244  0.0234  1.3378  1.4161
  834MOL0     H10039   8.108   3.365   7.228  5.3095  1.6167 -1.0548
  834MOL0     H10040   8.072   3.326   7.400  1.9798  0.5038  1.3087
  834MOL0     H10041   8.270   3.328   7.564  0.4501 -1.9692 -1.1752
  834MOL0     H10042   8.551   3.446   7.640 -0.4568 -3.0508  1.6607
  834MOL0     H10043   8.656   3.440   7.512 -1.3468 -0.6289 -1.7529
  834MOL0     H10044   8.595   3.184   7.487 -1.8162 -0.1531 -0.0506
  834MOL0     H10045   8.493   3.188   7.625  0.5998 -0.2932  1.9241
  834MOL0     H10046   8.786   3.265   7.656  0.3369  0.6628  2.2715
  834MOL0     H10047   8.649   3.279   7.770  2.8621  0.4196  0.8824
  834MOL0     H10048   8.618   3.044   7.796  0.0068 -0.1264  0.8461
  834MOL0     H10049   8.786   3.101   7.807 -1.3932 -0.5830  2.1062
  834MOL0     H10050   8.792   2.833   7.462  0.6064  3.4386  1.7457
  834MOL0     H10051   8.925   2.596   7.476 -1.2565  1.2689 -0.6857
  834MOL0     H10052   9.052   2.204   7.777  2.1494  0.6787  3.3250
  834MOL0     H10053   9.221   2.021   7.794 -1.4415  0.9055  0.0590
  834MOL0     H10054   9.295   1.845   7.578 -0.1537 -2.9809 -0.4872
  834MOL0     H10055   9.336   1.858   7.757 -1.6725 -0.9670 -0.6456
  834MOL0     H10056   9.559   1.787   7.696  1.7973  0.6005 -2.2158
  834MOL0     H10057   9.523   1.753   7.534  2.8687  3.7457  2.0442
  834MOL0     H10058   9.365   1.574   7.617 -0.1244  1.7706 -1.5027
  834MOL0     H10059   9.390   1.619   7.783  1.4653  0.7603  0.4113
  834MOL0     H10060   9.631   1.541   7.603  1.4010 -1.8922  0.3661
  834MOL0     H10061   9.631   1.576   7.783  2.1382 -1.6612 -0.4114
  834MOL0     H10062   9.532   1.384   7.831 -2.3278  0.4029 -0.7278
  834MOL0     H10063   9.654   1.353   7.699  0.1298  0.6699 -1.3979
  834MOL0     H10064   9.492   1.357   7.521  0.9734 -2.6679 -0.1706
  834MOL0     H10065   9.347   1.371   7.632 -0.3251  2.1360 -2.4342
  834MOL0     H10066   9.379   1.148   7.699 -0.1788  1.4263  0.3923
  834MOL0     H10067   9.375   1.155   7.533 -0.2589 -1.4833 -0.2015
  834MOL0     H10068   9.557   1.012   7.552  2.7668  1.4763 -5.0621
  834MOL0     H10069   9.631   1.097   7.693 -0.8219  1.6964 -0.6085
  834MOL0     H10070   9.475   2.213   7.518  0.1471  0.7914 -0.7288
  834MOL0     H10071   9.331   2.404   7.504  3.1288 -2.7534 -1.2665
  834MOL0     H10072   8.972   2.692   7.900  3.0334  3.1101 -0.3385
  834MOL0     H10073   8.850   2.892   7.869  2.3405  3.3944 -2.7501
  834MOL0     H10074   7.605   3.616   8.273 -0.0236 -0.7089 -0.8530
  834MOL0     H10075   7.430   3.600   8.434 -0.5971 -0.6636  0.5040
  834MOL0     H10076   7.032   3.954   8.584  1.4033 -1.0078 -0.2208
  834MOL0     H10077   6.831   3.973   8.691  3.2828 -1.2958  2.3982
  834MOL0     H10078   6.546   3.922   8.685 -0.4720 -2.5894 -0.6644
  834MOL0     H10079   6.642   3.913   8.838 -1.7410 -0.2811  1.6075
  834MOL0     H10080   6.411   3.898   8.886 -0.4500 -0.2395 -1.5013
  834MOL0     H10081   6.389   3.771   8.768 -1.6888  2.6933 -0.1864
  834MOL0     H10082   6.564   3.782   9.026  0.6600  0.8873 -1.6968
  834MOL0     H10083   6.550   3.640   8.930 -0.3959 -0.4826 -1.5526
  834MOL0     H10084   6.330   3.774   9.104 -3.1006 -0.9088  0.5894
  834MOL0     H10085   6.274   3.654   8.996 -1.9239  1.4668  1.6933
  834MOL0     H10086   6.509   3.424   9.279 -2.0788 -0.9397  0.5851
  834MOL0     H10087   6.727   3.570   8.573  1.1908  0.2146  3.2682
  834MOL0     H10088   6.907   3.573   8.417 -1.9746  0.6485 -2.4019
  835MOL0     O10089   1.585   6.851   4.714 -1.3256 -0.4313 -0.2138
  835MOL0     C10090   1.469   6.902   4.740  0.6203 -0.6021  0.2475
  835MOL0     O10091   1.345   6.848   4.708 -0.5397  0.4079 -0.4203
  835MOL0     C10092   1.323   6.717   4.688  0.1715 -0.6484  0.6700
  835MOL0     C10093   1.416   6.613   4.678  0.5289 -0.7286 -0.2974
  835MOL0     C10094   1.362   6.481   4.665 -1.2056  0.2238  0.1451
  835MOL0     C10095   1.227   6.462   4.657  0.9289  1.0489  0.1133
  835MOL0     O10096   1.168   6.338   4.670 -0.2968 -0.5086 -0.5782
  835MOL0     C10097   1.253   6.218   4.674  0.1379 -0.8266 -0.5387
  835MOL0     C10098   1.319   6.198   4.813  0.6090 -0.6593 -0.0921
  835MOL0     C10099   1.431   6.111   4.815 -0.8586  0.3492  0.2123
  835MOL0     C10100   1.562   6.170   4.773 -0.9470 -0.2697 -0.2822
  835MOL0     C10101   1.673   6.081   4.848  0.3505  0.2766  0.6398
  835MOL0     C10102   1.665   5.927   4.804 -0.0014 -0.6157  0.8826
  835MOL0     C10103   1.704   5.885   4.664 -0.4057 -0.2293  0.7817
  835MOL0     C10104   1.859   5.902   4.642  0.3664 -0.5391  0.3525
  835MOL0     N10105   1.934   5.808   4.724 -0.4273 -0.2859  0.0770
  835MOL0     C10106   1.920   5.666   4.715  0.8277 -0.0727 -1.4301
  835MOL0     C10107   1.965   5.626   4.836  0.0876 -0.9331  0.5077
  835MOL0     C10108   2.008   5.484   4.866 -0.3723 -0.3883  0.1889
  835MOL0     C10109   2.131   5.446   4.787 -0.2417 -0.6431  0.3474
  835MOL0     C10110   2.218   5.342   4.859  0.4008  0.5758  0.1328
  835MOL0     C10111   2.321   5.403   4.957 -0.8178 -0.1335  0.3873
  835MOL0     O10112   2.393   5.305   5.024 -0.1005 -0.3483 -1.3306
  835MOL0     C10113   2.490   5.349   5.122 -0.8506  0.5463  0.0675
  835MOL0     C10114   2.537   5.479   5.134  0.2057 -0.5153 -0.2484
  835MOL0     C10115   2.625   5.509   5.241 -0.4047  0.3861  0.1714
  835MOL0     C10116   2.662   5.426   5.342  0.6017 -0.4390 -0.4894
  835MOL0     C10117   2.760   5.474   5.453  0.1015  0.0522  0.4965
  835MOL0     O10118   2.790   5.378   5.544 -0.3905  0.5005  0.8591
  835MOL0     C10119   2.885   5.395   5.644  0.3336 -0.0119  0.8639
  835MOL0     C10120   2.858   5.361   5.782 -0.5463  0.4299  0.5451
  835MOL0     C10121   2.947   5.377   5.884  0.1581 -0.0708 -0.6613
  835MOL0     C10122   3.068   5.433   5.854  0.1843 -0.1664 -0.4781
  835MOL0     O10123   3.171   5.467   5.951  0.1096 -0.2007  0.0617
  835MOL0     C10124   3.154   5.446   6.096 -0.3741  1.0356 -0.7366
  835MOL0     C10125   3.210   5.302   6.138  0.0897 -0.8957  0.3772
  835MOL0     C10126   3.348   5.272   6.079 -0.9580 -0.0304  0.0396
  835MOL0     C10127   3.389   5.118   6.097  0.1519  0.1039 -0.2697
  835MOL0     C10128   3.533   5.097   6.104 -0.5847 -0.1465 -0.9347
  835MOL0     C10129   3.568   4.947   6.131 -0.3468 -0.6579  0.0150
  835MOL0     C10130   3.601   4.911   6.282  0.3182 -0.0850 -0.1730
  835MOL0     C10131   3.475   4.866   6.372 -0.4162  0.0552  0.6369
  835MOL0    Cl10132   3.430   4.690   6.338 -0.9548 -0.8053 -0.3747
  835MOL0     C10133   3.106   5.461   5.723  0.2354 -0.5641  0.4451
  835MOL0     C10134   3.018   5.450   5.611 -0.0108 -0.4894  0.1469
  835MOL0     O10135   2.801   5.586   5.453 -0.0570 -0.7058 -0.0089
  835MOL0     C10136   2.604   5.295   5.329 -0.7303 -0.2347 -0.6110
  835MOL0     C10137   2.524   5.259   5.226 -0.0390  0.5214  0.3739
  835MOL0     N10138   2.014   5.732   4.912  0.1349 -0.2016 -0.6446
  835MOL0     N10139   1.995   5.838   4.837 -0.4440  0.3261 -0.4224
  835MOL0     C10140   1.133   6.572   4.642 -0.3065  1.1163  0.6057
  835MOL0     C10141   1.186   6.702   4.655 -0.2570  0.6407 -0.1142
  835MOL0     C10142   1.471   7.039   4.809 -0.5674  0.0217  0.4772
  835MOL0     C10143   1.597   7.084   4.853  0.2713  0.2020 -1.6078
  835MOL0     C10144   1.604   7.198   4.923  0.1289 -0.7464  0.1834
  835MOL0     C10145   1.489   7.270   4.968 -0.0552 -1.5527 -0.2827
  835MOL0     O10146   1.517   7.382   5.051  1.4351  0.2590  0.1602
  835MOL0     C10147   1.400   7.458   5.084 -0.2084 -0.5227 -0.7363
  835MOL0     C10148   1.436   7.585   5.164  0.3216 -0.7823 -0.5488
  835MOL0     C10149   1.369   7.606   5.297  0.2052  0.0167  0.4530
  835MOL0     C10150   1.414   7.736   5.374 -0.1628 -0.7989  0.2760
  835MOL0     C10151   1.334   7.851   5.325  0.5848  0.2322  0.1718
  835MOL0     C10152   1.272   7.947   5.292 -0.0251 -0.3321  0.0802
  835MOL0     C10153   1.369   7.232   4.910  0.9676  0.3344 -0.3336
  835MOL0     C10154   1.358   7.113   4.836  0.5434  0.1144  0.0500
  835MOL0     H10155   1.523   6.625   4.694  0.2624  1.2514  0.2875
  835MOL0     H10156   1.424   6.393   4.674 -1.5865 -0.4131 -2.5020
  835MOL0     H10157   1.324   6.209   4.592  1.5756  0.8046  0.4593
  835MOL0     H10158   1.194   6.128   4.652 -0.2638  0.1216 -3.8226
  835MOL0     H10159   1.239   6.159   4.878  0.6852 -0.8916 -0.1351
  835MOL0     H10160   1.342   6.296   4.855  0.0375 -1.3485  1.9603
  835MOL0     H10161   1.406   6.016   4.767  3.5313 -1.3699  0.9218
  835MOL0     H10162   1.421   6.093   4.923  1.8495 -0.5750  0.3665
  835MOL0     H10163   1.596   6.169   4.669  0.9920  3.6285  0.1213
  835MOL0     H10164   1.566   6.273   4.810  0.3172 -0.2444 -0.4750
  835MOL0     H10165   1.655   6.094   4.955 -1.1429 -1.4326  0.6584
  835MOL0     H10166   1.761   6.134   4.812 -0.7343  0.6429 -1.6192
  835MOL0     H10167   1.560   5.903   4.822 -1.3839 -0.3371 -4.8973
  835MOL0     H10168   1.732   5.879   4.876  0.3009 -0.0880  0.9611
  835MOL0     H10169   1.672   5.783   4.641  1.3844 -0.0691 -3.2977
  835MOL0     H10170   1.655   5.953   4.594  3.1979  2.0623  0.2199
  835MOL0     H10171   1.882   6.007   4.666  1.8700 -1.4188  3.3124
  835MOL0     H10172   1.865   5.882   4.535 -2.5178  1.1017 -0.2384
  835MOL0     H10173   1.883   5.611   4.629  1.2807 -0.4112 -1.4126
  835MOL0     H10174   1.917   5.424   4.852  0.2717 -1.5807  0.9046
  835MOL0     H10175   2.034   5.485   4.972  1.3714 -0.7542 -0.2038
  835MOL0     H10176   2.202   5.528   4.770 -2.1544  0.7197 -1.5766
  835MOL0     H10177   2.099   5.410   4.689  3.3891 -0.4743 -1.0490
  835MOL0     H10178   2.157   5.280   4.925  1.6116 -1.4465 -0.5478
  835MOL0     H10179   2.274   5.281   4.787  0.7702  0.1195  0.7933
  835MOL0     H10180   2.271   5.479   5.019  0.4956  1.9665 -0.9962
  835MOL0     H10181   2.394   5.469   4.908  1.1634 -0.5353  2.6236
  835MOL0     H10182   2.504   5.558   5.068 -5.1753 -0.9591  1.4598
  835MOL0     H10183   2.654   5.612   5.259  1.3929  0.0345 -0.5046
  835MOL0     H10184   2.757   5.336   5.815 -0.0564  0.9173  2.5492
  835MOL0     H10185   2.908   5.349   5.981  1.4597 -0.8250 -0.3433
  835MOL0     H10186   3.048   5.455   6.122 -0.0303 -0.9172  1.6791
  835MOL0     H10187   3.194   5.531   6.153 -0.3999 -0.3360  1.4197
  835MOL0     H10188   3.148   5.228   6.087 -0.0366  0.6687 -1.9242
  835MOL0     H10189   3.194   5.287   6.245 -2.5727 -2.5818 -0.1762
  835MOL0     H10190   3.416   5.334   6.138 -1.3700 -2.0523  2.8490
  835MOL0     H10191   3.341   5.291   5.971  1.1804 -2.2051 -0.5710
  835MOL0     H10192   3.343   5.083   6.190 -1.1712  0.5736 -0.7150
  835MOL0     H10193   3.360   5.060   6.009  1.8627 -1.3455  0.0883
  835MOL0     H10194   3.582   5.151   6.186 -1.9033 -1.9684  1.1440
  835MOL0     H10195   3.588   5.134   6.017  0.4103  1.6396  0.3859
  835MOL0     H10196   3.647   4.912   6.064 -1.0492 -1.8877 -0.2037
  835MOL0     H10197   3.490   4.878   6.100  2.0568 -2.3073 -2.9379
  835MOL0     H10198   3.680   4.836   6.282 -0.4713 -0.9838 -2.2448
  835MOL0     H10199   3.637   4.998   6.337  2.0308 -1.3105  0.7441
  835MOL0     H10200   3.392   4.934   6.351 -0.8797 -0.5586  0.4327
  835MOL0     H10201   3.497   4.870   6.479 -1.2319  0.3147  0.8004
  835MOL0     H10202   3.196   5.509   5.686 -0.7255  0.9664 -0.0093
  835MOL0     H10203   3.052   5.464   5.509  2.4162 -3.0878  0.4852
  835MOL0     H10204   2.623   5.214   5.399  1.3691 -0.3557 -1.2396
  835MOL0     H10205   2.480   5.159   5.223 -0.0573  0.5319 -2.0479
  835MOL0     H10206   1.025   6.572   4.631 -0.4338 -3.1859  0.4493
  835MOL0     H10207   1.121   6.788   4.653 -2.7835 -1.0297  2.2033
  835MOL0     H10208   1.696   7.045   4.830  0.3156 -0.9018  0.2904
  835MOL0     H10209   1.706   7.229   4.944 -0.5182  1.1503  0.7634
  835MOL0     H10210   1.320   7.407   5.139 -0.6488  0.2070 -0.6904
  835MOL0     H10211   1.360   7.505   4.994  0.7656  1.5049 -0.1552
  835MOL0     H10212   1.545   7.588   5.179  0.2352 -1.9248  0.4615
  835MOL0     H10213   1.412   7.667   5.095  1.8174 -1.0893 -1.4746
  835MOL0     H10214   1.393   7.518   5.358 -2.5775 -1.6994 -0.6970
  835MOL0     H10215   1.261   7.609   5.283 -0.0526 -2.4029  1.3555
  835MOL0     H10216   1.383   7.704   5.474 -2.0626 -1.9618 -0.6187
  835MOL0     H10217   1.522   7.740   5.385 -0.2961 -1.9873  2.7137
  835MOL0     H10218   1.216   8.027   5.247 -2.4839 -0.9997  1.7069
  835MOL0     H10219   1.275   7.282   4.933  0.1926 -0.9456 -0.5656
  835MOL0     H10220   1.257   7.078   4.816  1.5080 -2.5685 -0.5251
  836MOL0     O10221   3.434   0.285   0.536  0.0190  0.3349 -0.0600
  836MOL0     C10222   3.412   0.353   0.436  0.9721  0.3984  0.1698
  836MOL0     O10223   3.404   0.306   0.309  0.2735 -0.9647  0.9275
  836MOL0     C10224   3.455   0.178   0.275 -0.0472 -0.2038  0.1507
  836MOL0     C10225   3.537   0.180   0.159  0.5975  0.3214 -0.4125
  836MOL0     C10226   3.587   0.061   0.110  0.0806 -1.5659  0.1631
  836MOL0     C10227   3.548  -0.065   0.169  0.4391  0.2990  0.0360
  836MOL0     O10228   3.585  -0.186   0.106 -0.3805 -1.1286 -0.1878
  836MOL0     C10229   3.700  -0.255   0.158 -0.5912 -0.5347 -0.4312
  836MOL0     C10230   3.766  -0.325   0.043  0.1372 -0.4737  0.7264
  836MOL0     C10231   3.912  -0.380   0.070  0.5830 -0.1518 -0.6799
  836MOL0     C10232   3.904  -0.492   0.174 -0.5078 -0.0826 -0.2365
  836MOL0     C10233   4.000  -0.604   0.155  0.5166 -0.4020  0.7072
  836MOL0     C10234   3.974  -0.699   0.266  0.4070 -0.1361  0.0493
  836MOL0     C10235   4.047  -0.835   0.259  0.7167  0.1478  0.1098
  836MOL0     C10236   4.024  -0.930   0.376  0.8535 -0.4445  0.1379
  836MOL0     N10237   4.166  -0.935   0.439  0.2771  0.1330 -0.0525
  836MOL0     C10238   4.195  -0.841   0.529  0.1394 -0.4363  0.0551
  836MOL0     C10239   4.316  -0.887   0.576 -0.7253 -0.5983 -0.3411
  836MOL0     C10240   4.410  -0.828   0.674 -0.7944  0.5892 -0.6228
  836MOL0     C10241   4.471  -0.702   0.620 -1.0032 -0.7121 -0.2689
  836MOL0     C10242   4.552  -0.609   0.716  0.1274  0.5911  0.3045
  836MOL0     C10243   4.589  -0.487   0.642  1.2124  0.5597  0.4547
  836MOL0     O10244   4.696  -0.423   0.706  0.7105  0.0070 -1.1459
  836MOL0     C10245   4.669  -0.290   0.738  0.3618  0.1603 -0.3076
  836MOL0     C10246   4.660  -0.185   0.642  0.3924  0.0685  0.4049
  836MOL0     C10247   4.626  -0.057   0.671 -0.3023  0.6935 -0.2306
  836MOL0     C10248   4.625  -0.026   0.809 -0.5104  0.4968  0.9739
  836MOL0     C10249   4.591   0.115   0.855 -0.2761 -0.0953 -0.3401
  836MOL0     O10250   4.677   0.207   0.800 -0.0635 -1.3824 -0.5154
  836MOL0     C10251   4.661   0.338   0.840 -0.9020 -0.2749  0.2078
  836MOL0     C10252   4.560   0.420   0.774  0.1264  0.5304  0.5133
  836MOL0     C10253   4.552   0.549   0.816  1.2745  0.3876 -0.1124
  836MOL0     C10254   4.626   0.605   0.908  0.0236 -0.1363 -0.6177
  836MOL0     O10255   4.619   0.728   0.966  0.2487  0.4594 -1.0069
  836MOL0     C10256   4.512   0.824   0.920  0.7935 -0.8923 -0.7332
  836MOL0     C10257   4.561   0.971   0.907 -0.9694 -0.0345  0.5944
  836MOL0     C10258   4.654   0.990   0.785  0.4038  0.6667  0.5908
  836MOL0     C10259   4.584   0.973   0.655 -0.4130 -0.7569  0.2597
  836MOL0     C10260   4.674   0.966   0.529 -1.0437 -1.1125  0.8086
  836MOL0     C10261   4.617   1.038   0.405 -0.2923 -0.7192 -0.0283
  836MOL0     C10262   4.711   1.049   0.288 -0.4404  0.7215  0.0571
  836MOL0     C10263   4.645   1.141   0.180  0.0648  0.5929  0.6977
  836MOL0    Cl10264   4.499   1.067   0.118 -0.0521 -0.2276 -0.2488
  836MOL0     C10265   4.712   0.515   0.989 -1.2914 -1.5530  0.4877
  836MOL0     C10266   4.742   0.387   0.948 -0.2598  0.4748 -0.0017
  836MOL0     O10267   4.492   0.135   0.918 -0.0179 -0.1656 -0.8219
  836MOL0     C10268   4.632  -0.133   0.905  0.5201  1.3269  0.3583
  836MOL0     C10269   4.659  -0.266   0.871 -0.0812  0.4676  0.2029
  836MOL0     N10270   4.353  -1.007   0.525 -0.2932  0.5517 -0.6347
  836MOL0     N10271   4.262  -1.036   0.436 -0.4727 -0.2082 -0.1759
  836MOL0     C10272   3.469  -0.070   0.289  0.2514  0.7624 -0.9321
  836MOL0     C10273   3.419   0.059   0.342 -0.6167  0.4135  0.2572
  836MOL0     C10274   3.390   0.501   0.461  0.3360 -0.4243  0.5898
  836MOL0     C10275   3.349   0.545   0.588  0.5208 -0.8226 -0.6803
  836MOL0     C10276   3.317   0.674   0.600 -1.3312 -0.3889 -0.5491
  836MOL0     C10277   3.323   0.766   0.492 -0.6728  0.9814  0.2606
  836MOL0     O10278   3.280   0.886   0.534 -0.7296  0.3508  0.2561
  836MOL0     C10279   3.261   0.988   0.429 -0.1319  0.3312 -0.4768
  836MOL0     C10280   3.238   1.124   0.503  1.0373 -0.0451  0.6156
  836MOL0     C10281   3.343   1.155   0.598 -0.1827  0.3471  0.7280
  836MOL0     C10282   3.355   1.311   0.629 -0.1384 -0.7741 -0.1778
  836MOL0     C10283   3.396   1.389   0.516 -1.0788  0.4911  0.2179
  836MOL0     C10284   3.437   1.464   0.432 -0.0771 -0.9350  0.2946
  836MOL0     C10285   3.364   0.726   0.363 -0.5453  0.2876 -0.7978
  836MOL0     C10286   3.399   0.592   0.353  1.2503 -0.2808  0.2708
  836MOL0     H10287   3.545   0.279   0.115  0.0191  1.5477  2.0602
  836MOL0     H10288   3.655   0.058   0.025  0.3702  1.9891  0.1159
  836MOL0     H10289   3.670  -0.320   0.241 -1.1299  1.5673  1.0858
  836MOL0     H10290   3.769  -0.182   0.200 -1.8300  0.2831  0.2343
  836MOL0     H10291   3.790  -0.254  -0.036 -0.3769 -2.8739 -1.7537
  836MOL0     H10292   3.700  -0.399  -0.004  0.0943  1.4291 -2.5075
  836MOL0     H10293   3.983  -0.303   0.099  3.5538 -3.1541  0.7791
  836MOL0     H10294   3.957  -0.404  -0.027 -0.9283  1.6182 -1.8746
  836MOL0     H10295   3.920  -0.444   0.272  1.1973  1.1511 -1.0655
  836MOL0     H10296   3.801  -0.527   0.187 -1.1525  1.6963 -0.2147
  836MOL0     H10297   4.104  -0.572   0.149  0.4883 -0.5174 -2.9906
  836MOL0     H10298   3.981  -0.658   0.062 -0.7515 -2.9793  2.3329
  836MOL0     H10299   3.867  -0.725   0.268  0.7262 -1.7480 -1.1380
  836MOL0     H10300   3.988  -0.647   0.361 -0.8362  0.4932 -0.0867
  836MOL0     H10301   4.020  -0.892   0.170  0.8894 -0.4880  0.4628
  836MOL0     H10302   4.155  -0.823   0.240  0.1943  1.3145 -2.5113
  836MOL0     H10303   3.982  -1.028   0.352 -0.8006  0.6548 -1.7596
  836MOL0     H10304   3.957  -0.891   0.453  1.1051  0.5702 -0.1326
  836MOL0     H10305   4.163  -0.739   0.544 -1.1244 -0.8158  0.1103
  836MOL0     H10306   4.493  -0.896   0.691  1.3691  3.1781 -0.2541
  836MOL0     H10307   4.364  -0.821   0.773  1.2064 -0.1364  0.4154
  836MOL0     H10308   4.391  -0.635   0.587 -1.8078 -1.1422  0.7333
  836MOL0     H10309   4.538  -0.739   0.542 -1.2077 -1.1822 -0.2236
  836MOL0     H10310   4.496  -0.574   0.803  2.6552  2.3661  1.3144
  836MOL0     H10311   4.641  -0.659   0.756  2.5005  3.9197 -0.3916
  836MOL0     H10312   4.501  -0.421   0.639  0.3329 -0.6154 -1.1292
  836MOL0     H10313   4.618  -0.492   0.537 -0.7224  2.4588 -0.2575
  836MOL0     H10314   4.685  -0.212   0.540  0.3644  2.7574 -0.3944
  836MOL0     H10315   4.606   0.017   0.595  1.5829  2.8733  1.2485
  836MOL0     H10316   4.505   0.371   0.694  0.4989 -1.1452  1.2253
  836MOL0     H10317   4.471   0.604   0.767 -1.2858 -1.9392  1.2441
  836MOL0     H10318   4.438   0.825   1.001 -0.5765 -0.1009 -1.9403
  836MOL0     H10319   4.457   0.798   0.828  0.7982 -0.3384 -0.8961
  836MOL0     H10320   4.623   0.998   0.993  0.5644 -1.5799  0.0339
  836MOL0     H10321   4.475   1.038   0.903  0.0505  1.4531  2.2786
  836MOL0     H10322   4.744   0.928   0.788 -1.0619 -1.6488  3.8285
  836MOL0     H10323   4.683   1.095   0.782 -2.0367  1.4207 -3.2963
  836MOL0     H10324   4.519   0.885   0.663 -1.2845 -0.2250 -0.6906
  836MOL0     H10325   4.523   1.062   0.638 -1.1455 -1.2367  0.3185
  836MOL0     H10326   4.700   0.862   0.505 -0.7739 -0.7232 -0.6728
  836MOL0     H10327   4.767   1.017   0.556 -0.2125 -1.5624 -1.0171
  836MOL0     H10328   4.569   1.131   0.437 -1.4558 -1.3643  0.1744
  836MOL0     H10329   4.532   0.971   0.385 -1.6724  1.5493 -2.3005
  836MOL0     H10330   4.809   1.089   0.314  1.6210 -0.9872 -4.1613
  836MOL0     H10331   4.720   0.949   0.246 -0.5207 -0.7296  3.2179
  836MOL0     H10332   4.727   1.160   0.111  0.5984  2.8073  1.8339
  836MOL0     H10333   4.636   1.238   0.231  2.4647  1.4917 -0.4397
  836MOL0     H10334   4.757   0.536   1.086 -1.9635 -1.1234  0.7160
  836MOL0     H10335   4.830   0.334   0.982  2.8274  3.8845 -1.8933
  836MOL0     H10336   4.589  -0.120   1.004 -0.7043 -0.7841  0.1792
  836MOL0     H10337   4.659  -0.344   0.947 -7.4789  0.2844  0.7705
  836MOL0     H10338   3.442  -0.171   0.318 -2.9151  1.5135 -0.9092
  836MOL0     H10339   3.345   0.064   0.421  1.4122 -2.7670  2.5883
  836MOL0     H10340   3.326   0.486   0.676 -2.3507  1.0511 -0.0074
  836MOL0     H10341   3.310   0.722   0.697  1.2276  0.3652 -0.6422
  836MOL0     H10342   3.175   0.965   0.366  0.5111  0.8941 -1.5854
  836MOL0     H10343   3.352   1.005   0.371  1.8816 -1.5756  1.8742
  836MOL0     H10344   3.228   1.199   0.424  1.5215 -3.1945 -2.6698
  836MOL0     H10345   3.140   1.124   0.553 -1.4049  0.6215 -3.6968
  836MOL0     H10346   3.433   1.102   0.566 -2.7273 -4.2678  0.2356
  836MOL0     H10347   3.315   1.101   0.689 -1.8416 -3.1028 -1.5920
  836MOL0     H10348   3.256   1.345   0.660  0.1511 -0.1412  0.0772
  836MOL0     H10349   3.422   1.327   0.714 -1.3304 -0.0352  0.6613
  836MOL0     H10350   3.496   1.528   0.371 -0.9636 -0.7606 -0.4028
  836MOL0     H10351   3.379   0.801   0.286 -0.7436 -0.6754 -1.7793
  836MOL0     H10352   3.437   0.560   0.257  0.5467 -2.0919  0.5417
  837MOL0     O10353   5.354   3.775   3.594 -0.6008 -1.0088 -0.8885
  837MOL0     C10354   5.258   3.776   3.521 -0.5290  0.1280  0.0547
  837MOL0     O10355   5.170   3.882   3.481 -0.1559  0.1937  0.7316
  837MOL0     C10356   5.176   4.009   3.522 -0.4464  0.2702 -0.1106
  837MOL0     C10357   5.123   4.117   3.448  0.1844  0.5497  0.9542
  837MOL0     C10358   5.151   4.248   3.469  0.8095  0.0561  0.2192
  837MOL0     C10359   5.212   4.285   3.593  0.7573  0.4828 -0.0650
  837MOL0     O10360   5.215   4.417   3.645 -0.0773 -0.0801 -0.0230
  837MOL0     C10361   5.192   4.527   3.554 -0.5824 -0.2926 -0.8505
  837MOL0     C10362   5.253   4.663   3.597 -0.0786  0.7754 -0.6423
  837MOL0     C10363   5.169   4.735   3.692 -0.7926  0.0885 -0.8037
  837MOL0     C10364   5.233   4.872   3.742 -0.7569  0.2861  0.2982
  837MOL0     C10365   5.158   4.949   3.850 -0.0012  0.2361  0.1222
  837MOL0     C10366   5.232   5.082   3.876 -0.1304  0.2571 -0.2645
  837MOL0     C10367   5.186   5.169   3.995  0.4935 -1.6271  0.6012
  837MOL0     C10368   5.045   5.228   3.966 -0.0941  0.7186 -1.1349
  837MOL0     N10369   5.015   5.342   4.062 -0.1915 -0.0089  0.0129
  837MOL0     C10370   4.930   5.332   4.174 -0.5021 -0.4071  0.8945
  837MOL0     C10371   4.938   5.454   4.225  0.2512  0.5817  0.3876
  837MOL0     C10372   4.870   5.511   4.346  0.1156  0.5855  0.0305
  837MOL0     C10373   4.723   5.526   4.306 -0.4856  0.4132 -0.8981
  837MOL0     C10374   4.665   5.600   4.433  1.1198 -0.0686 -0.2943
  837MOL0     C10375   4.522   5.657   4.414 -1.1490 -0.3852  0.1478
  837MOL0     O10376   4.488   5.739   4.528 -0.7549  0.6972  0.7281
  837MOL0     C10377   4.500   5.877   4.518 -0.8860  0.7623 -0.4954
  837MOL0     C10378   4.523   5.950   4.394 -1.2359  0.4181 -0.4142
  837MOL0     C10379   4.533   6.087   4.419  0.5033 -0.6373  0.5099
  837MOL0     C10380   4.521   6.154   4.542  0.1387 -0.2206 -0.2883
  837MOL0     C10381   4.535   6.305   4.555  0.1172 -0.3707 -0.4458
  837MOL0     O10382   4.515   6.348   4.684  0.4652  0.0788  0.4078
  837MOL0     C10383   4.594   6.456   4.726 -0.6097  0.2915 -0.8156
  837MOL0     C10384   4.726   6.486   4.675  0.5791  0.3939 -0.1384
  837MOL0     C10385   4.793   6.586   4.737 -0.5900 -1.2783 -1.0655
  837MOL0     C10386   4.744   6.665   4.842  0.1605  0.0582 -0.3231
  837MOL0     O10387   4.812   6.764   4.912 -0.0646 -0.5630 -0.5300
  837MOL0     C10388   4.960   6.770   4.898 -0.8030  0.2804  0.7371
  837MOL0     C10389   4.967   6.888   4.818 -0.2659  0.4236 -0.5006
  837MOL0     C10390   5.118   6.917   4.806  0.0260 -0.6363  0.5850
  837MOL0     C10391   5.131   7.054   4.733 -0.1293  0.2426  0.2798
  837MOL0     C10392   5.253   7.078   4.638  0.2139  0.0338 -0.4904
  837MOL0     C10393   5.273   7.218   4.600  0.6731  0.0267 -0.1603
  837MOL0     C10394   5.394   7.236   4.517 -0.3429  0.1492  0.8167
  837MOL0     C10395   5.403   7.383   4.464 -0.7881  0.1487  0.8215
  837MOL0    Cl10396   5.501   7.482   4.565 -0.2202  0.3981 -0.0084
  837MOL0     C10397   4.627   6.622   4.902  0.3775  0.0389  0.0036
  837MOL0     C10398   4.557   6.512   4.850  0.1039 -0.3156  0.2341
  837MOL0     O10399   4.544   6.384   4.456  0.4290  1.2796 -0.3676
  837MOL0     C10400   4.489   6.073   4.653  0.2878  1.4412 -0.2780
  837MOL0     C10401   4.484   5.937   4.642 -0.0570 -0.7671  0.0732
  837MOL0     N10402   5.014   5.538   4.132  1.2278 -0.0889 -0.0491
  837MOL0     N10403   5.052   5.468   4.037  0.2313 -0.4754  0.1873
  837MOL0     C10404   5.254   4.184   3.676  0.2088 -0.5908  0.1951
  837MOL0     C10405   5.233   4.051   3.649 -0.5213 -0.5503  0.9404
  837MOL0     C10406   5.238   3.642   3.461 -1.4204  0.4173 -0.4511
  837MOL0     C10407   5.319   3.527   3.488 -0.2805  0.0389 -0.2452
  837MOL0     C10408   5.279   3.395   3.441 -0.2055 -0.4070 -0.4458
  837MOL0     C10409   5.168   3.382   3.360  0.9065  0.5441 -0.7359
  837MOL0     O10410   5.151   3.263   3.299 -0.6554 -0.2523 -0.2560
  837MOL0     C10411   5.032   3.231   3.221  0.2732 -0.3656 -0.0258
  837MOL0     C10412   5.050   3.272   3.069 -0.7098  0.5220 -0.5036
  837MOL0     C10413   4.913   3.248   2.993 -0.0690  0.1000  0.4814
  837MOL0     C10414   4.943   3.275   2.841  0.2607 -0.1997 -0.2571
  837MOL0     C10415   4.826   3.234   2.764  1.2303 -0.5496 -0.4436
  837MOL0     C10416   4.716   3.198   2.714  0.0072 -0.5908  0.0998
  837MOL0     C10417   5.105   3.499   3.324  0.1520  0.5981 -0.1224
  837MOL0     C10418   5.131   3.620   3.381 -0.2830  0.4635 -0.8837
  837MOL0     H10419   5.084   4.092   3.350 -0.0808 -1.1662  1.4588
  837MOL0     H10420   5.117   4.320   3.395  1.2324  2.2635  2.0560
  837MOL0     H10421   5.084   4.535   3.538 -0.9626 -0.8121  1.1740
  837MOL0     H10422   5.243   4.497   3.461  1.6110  1.4892 -0.3159
  837MOL0     H10423   5.275   4.722   3.507 -0.2549 -4.0578 -4.2837
  837MOL0     H10424   5.351   4.641   3.640 -1.3569  0.2126  2.1817
  837MOL0     H10425   5.149   4.654   3.763  1.2602 -0.2893 -0.5991
  837MOL0     H10426   5.068   4.761   3.658 -1.5557 -3.1098 -1.2904
  837MOL0     H10427   5.336   4.855   3.775 -0.2428 -0.4067 -1.5145
  837MOL0     H10428   5.239   4.933   3.651  0.6099 -0.5959 -0.2452
  837MOL0     H10429   5.141   4.886   3.938 -0.6168 -0.4440 -0.4802
  837MOL0     H10430   5.060   4.962   3.805  0.2196 -0.9487 -0.7362
  837MOL0     H10431   5.229   5.150   3.791  3.3731 -1.1836 -1.7155
  837MOL0     H10432   5.337   5.051   3.882 -0.5311 -1.8773 -2.5146
  837MOL0     H10433   5.192   5.107   4.085  0.2171  0.7343  2.3539
  837MOL0     H10434   5.255   5.253   4.009 -0.5199 -1.1383  3.1578
  837MOL0     H10435   4.976   5.145   3.980  2.3568 -0.9836  2.3412
  837MOL0     H10436   5.047   5.271   3.865  3.0007  3.2271 -0.1716
  837MOL0     H10437   4.876   5.248   4.215  0.4871 -1.6241 -0.1861
  837MOL0     H10438   4.919   5.600   4.386  0.0476  0.0777  1.2956
  837MOL0     H10439   4.876   5.431   4.420  2.4343 -1.3040 -2.0520
  837MOL0     H10440   4.665   5.437   4.281 -0.8890  0.7741 -1.2821
  837MOL0     H10441   4.702   5.597   4.225 -2.6523 -1.0203 -1.6828
  837MOL0     H10442   4.679   5.534   4.518  1.4022 -1.0527 -1.0887
  837MOL0     H10443   4.722   5.692   4.448  0.5112  0.6966 -2.3156
  837MOL0     H10444   4.451   5.574   4.407  1.4386 -2.6928 -0.9245
  837MOL0     H10445   4.517   5.712   4.320 -0.9400 -1.9577 -0.8284
  837MOL0     H10446   4.539   5.912   4.294 -1.2192  0.7564 -0.5406
  837MOL0     H10447   4.541   6.144   4.327  0.1708 -1.8135 -0.2626
  837MOL0     H10448   4.752   6.443   4.580 -2.8339 -2.7767  0.1550
  837MOL0     H10449   4.895   6.603   4.704 -0.5936  1.4332  0.0390
  837MOL0     H10450   5.001   6.682   4.846 -1.2906  0.1870  0.4978
  837MOL0     H10451   5.002   6.772   4.999  1.1901  1.3875 -0.0653
  837MOL0     H10452   4.912   6.969   4.867 -1.1589 -0.2567 -0.3380
  837MOL0     H10453   4.916   6.870   4.722  3.1616  0.5242 -2.5061
  837MOL0     H10454   5.164   6.844   4.738  2.1872  0.9762  0.1598
  837MOL0     H10455   5.169   6.913   4.903 -0.0278  2.5899  0.8763
  837MOL0     H10456   5.042   7.072   4.671 -0.6341  1.0767  1.2235
  837MOL0     H10457   5.139   7.132   4.809  0.0171  0.4411  0.0631
  837MOL0     H10458   5.251   7.022   4.544  1.6153  2.2829 -1.9790
  837MOL0     H10459   5.343   7.050   4.694  0.3698  1.8775  0.2609
  837MOL0     H10460   5.274   7.270   4.696 -0.4880  1.3617 -0.8234
  837MOL0     H10461   5.185   7.241   4.539 -0.1705 -2.9536 -0.2574
  837MOL0     H10462   5.482   7.209   4.576  0.2668 -0.7839 -0.4896
  837MOL0     H10463   5.389   7.165   4.434 -1.3028 -0.6415  1.5118
  837MOL0     H10464   5.311   7.438   4.446 -0.1579  2.3135  3.5035
  837MOL0     H10465   5.455   7.390   4.368  0.7393 -0.1569  1.5958
  837MOL0     H10466   4.593   6.674   4.991  0.4705  2.1803 -1.1697
  837MOL0     H10467   4.463   6.487   4.896 -0.4664  2.4182  0.7583
  837MOL0     H10468   4.479   6.112   4.754  4.6349  0.9814  0.5061
  837MOL0     H10469   4.468   5.897   4.741 -1.6077 -0.7483 -0.1419
  837MOL0     H10470   5.302   4.230   3.762  1.0148  0.6450 -0.8586
  837MOL0     H10471   5.268   3.977   3.720  1.0932 -0.9085 -0.1566
  837MOL0     H10472   5.412   3.548   3.539 -2.0178  4.8701  1.5510
  837MOL0     H10473   5.325   3.306   3.480  0.1327 -0.3908 -0.8047
  837MOL0     H10474   4.943   3.274   3.268 -0.5514 -3.1614  1.1760
  837MOL0     H10475   5.017   3.123   3.218 -0.5117 -0.2547 -0.2389
  837MOL0     H10476   5.072   3.377   3.050 -0.3645  0.7381  1.0214
  837MOL0     H10477   5.126   3.198   3.039  1.0328 -0.0387  4.3886
  837MOL0     H10478   4.831   3.309   3.030 -0.5289 -0.3634  0.2347
  837MOL0     H10479   4.878   3.145   3.004 -2.0068  0.9665  4.1112
  837MOL0     H10480   4.962   3.381   2.822  1.5977 -0.3754  0.0383
  837MOL0     H10481   5.031   3.216   2.813 -1.2241 -1.9366 -1.6159
  837MOL0     H10482   4.623   3.152   2.685  0.4323 -2.8734  2.0454
  837MOL0     H10483   5.025   3.484   3.252 -2.7978  0.1276  2.9418
  837MOL0     H10484   5.065   3.703   3.359  1.8962  2.7242  0.5271
  838MOL0     O10485   3.134   1.287   2.641  0.0287 -1.5981  0.0146
  838MOL0     C10486   3.049   1.200   2.637  0.0280 -1.4859 -0.8308
  838MOL0     O10487   2.962   1.171   2.531 -0.1488  0.6607 -0.0534
  838MOL0     C10488   2.956   1.279   2.447  0.3309 -0.3496  0.3701
  838MOL0     C10489   2.872   1.395   2.472  0.0027  0.2939  0.4037
  838MOL0     C10490   2.874   1.504   2.380 -0.3152  0.8489  0.3606
  838MOL0     C10491   2.957   1.490   2.276 -0.3165  0.0090  0.4615
  838MOL0     O10492   2.956   1.605   2.198 -0.0412  0.2637 -0.0179
  838MOL0     C10493   3.036   1.605   2.078 -0.5326  0.7117 -1.0362
  838MOL0     C10494   3.003   1.734   2.003  0.2980 -0.0876 -0.0795
  838MOL0     C10495   3.084   1.759   1.877 -1.0384  0.2457  0.0823
  838MOL0     C10496   3.042   1.874   1.781  0.5830 -0.4813  0.0891
  838MOL0     C10497   2.905   1.851   1.705  0.3217 -0.2411 -0.5076
  838MOL0     C10498   2.889   1.718   1.636 -1.1089  0.5550 -1.5393
  838MOL0     C10499   2.785   1.701   1.528  0.7458 -0.5360 -0.3108
  838MOL0     C10500   2.646   1.732   1.587  0.2175 -0.2420 -0.0094
  838MOL0     N10501   2.532   1.694   1.503  0.5117 -0.0089  0.4576
  838MOL0     C10502   2.473   1.781   1.418 -0.3523 -0.6357 -1.1155
  838MOL0     C10503   2.360   1.717   1.376  0.0972  0.1053 -0.1101
  838MOL0     C10504   2.251   1.779   1.294 -0.0643  0.2751 -0.2741
  838MOL0     C10505   2.122   1.818   1.376 -0.7368 -0.7356 -0.1415
  838MOL0     C10506   2.145   1.959   1.443  0.6169 -0.5440 -0.3125
  838MOL0     C10507   2.073   2.068   1.369 -0.0444  0.2774 -0.0393
  838MOL0     O10508   2.027   2.170   1.451 -0.0401 -0.1527  0.2781
  838MOL0     C10509   2.111   2.245   1.530  0.7009 -0.2709 -1.3989
  838MOL0     C10510   2.037   2.318   1.623 -1.2981  0.1250  0.0930
  838MOL0     C10511   2.105   2.381   1.719  0.4988 -0.6853 -0.4645
  838MOL0     C10512   2.240   2.398   1.720 -0.3064 -0.4124 -0.3413
  838MOL0     C10513   2.312   2.454   1.831 -0.1877 -0.5166  1.2971
  838MOL0     O10514   2.232   2.534   1.909  0.1068  0.5990 -0.0756
  838MOL0     C10515   2.282   2.586   2.030 -0.0640 -0.0965 -0.3697
  838MOL0     C10516   2.190   2.676   2.088 -0.6125 -0.3727  0.0335
  838MOL0     C10517   2.206   2.724   2.218  0.0600  0.6247  0.0072
  838MOL0     C10518   2.329   2.699   2.284 -0.2668  0.3027 -0.4637
  838MOL0     O10519   2.347   2.768   2.407  0.4538  0.4075  1.0764
  838MOL0     C10520   2.394   2.685   2.516  0.1321  0.3773 -0.4173
  838MOL0     C10521   2.294   2.710   2.627  0.5561  0.4678  0.2907
  838MOL0     C10522   2.171   2.620   2.607  0.5770 -0.1618  0.9005
  838MOL0     C10523   2.070   2.611   2.718  0.0295 -0.0501  0.0694
  838MOL0     C10524   1.990   2.738   2.746 -0.5445  0.0061 -0.7705
  838MOL0     C10525   2.057   2.841   2.833 -1.1208 -0.4645  0.0759
  838MOL0     C10526   2.012   2.856   2.984  0.1327  0.7620  0.0717
  838MOL0     C10527   2.047   2.724   3.058 -0.1629  0.1405 -0.0713
  838MOL0    Cl10528   2.209   2.737   3.137 -0.1798  0.1773 -0.4964
  838MOL0     C10529   2.412   2.602   2.232 -0.6621  0.2504 -0.7036
  838MOL0     C10530   2.385   2.542   2.113  0.2283  0.3443 -0.1339
  838MOL0     O10531   2.434   2.439   1.834 -0.8932 -0.2857  0.7744
  838MOL0     C10532   2.314   2.330   1.615  0.7747 -0.4909 -0.5779
  838MOL0     C10533   2.250   2.247   1.520 -0.1564 -0.2920  0.2351
  838MOL0     N10534   2.353   1.591   1.435 -0.1451  0.3898  0.1200
  838MOL0     N10535   2.454   1.580   1.516  0.0825 -0.4721  0.2809
  838MOL0     C10536   3.027   1.368   2.244  0.4299  0.2360  0.3554
  838MOL0     C10537   3.030   1.263   2.330 -0.2056 -0.2969 -0.0472
  838MOL0     C10538   3.030   1.121   2.762 -0.4446  0.2787 -0.2072
  838MOL0     C10539   3.125   1.143   2.867  0.4889 -0.8218  0.6616
  838MOL0     C10540   3.107   1.069   2.979  0.8121 -0.1276  0.1772
  838MOL0     C10541   3.016   0.962   2.999  0.6748 -0.3273 -0.5826
  838MOL0     O10542   2.995   0.875   3.100  0.1421  0.3672 -0.2396
  838MOL0     C10543   3.080   0.887   3.217  0.8609  0.1308 -0.5486
  838MOL0     C10544   3.232   0.847   3.225  0.8837  0.4253  0.0382
  838MOL0     C10545   3.274   0.713   3.161 -1.0899  0.1669  0.6676
  838MOL0     C10546   3.428   0.687   3.180  0.1648  1.1267 -1.3841
  838MOL0     C10547   3.470   0.644   3.313 -0.8157 -0.3143 -0.2750
  838MOL0     C10548   3.506   0.601   3.419  0.4726  0.2598 -0.6030
  838MOL0     C10549   2.922   0.950   2.895 -1.3621  0.3219  0.3803
  838MOL0     C10550   2.935   1.022   2.772 -0.2988  0.0280 -0.1833
  838MOL0     H10551   2.810   1.393   2.561  0.2003  0.0753  0.5401
  838MOL0     H10552   2.825   1.600   2.396  0.7999  1.3551  0.9057
  838MOL0     H10553   3.029   1.516   2.015  0.1239  1.2257 -1.8647
  838MOL0     H10554   3.138   1.600   2.117 -1.0505 -0.3346  0.2556
  838MOL0     H10555   3.010   1.812   2.079  0.1491  0.7303 -0.8980
  838MOL0     H10556   2.897   1.725   1.976  0.7396 -0.5350 -1.8307
  838MOL0     H10557   3.084   1.666   1.821  1.6494  0.5712 -0.6168
  838MOL0     H10558   3.187   1.777   1.908 -1.4233  1.1792  0.8674
  838MOL0     H10559   3.038   1.970   1.834 -2.1930 -0.5546  0.1538
  838MOL0     H10560   3.124   1.884   1.709  1.8615 -2.2623  1.2068
  838MOL0     H10561   2.891   1.934   1.635 -1.0290  0.0982  0.1255
  838MOL0     H10562   2.829   1.859   1.783  1.4640  0.7519  0.5529
  838MOL0     H10563   2.869   1.639   1.709  1.4893 -2.1442 -3.5157
  838MOL0     H10564   2.980   1.687   1.584 -1.8813 -1.9095 -1.5499
  838MOL0     H10565   2.804   1.770   1.446 -1.9791  0.8108  0.0742
  838MOL0     H10566   2.766   1.597   1.497 -2.0359 -0.2785  0.1978
  838MOL0     H10567   2.645   1.842   1.587  1.1359 -0.2290 -0.2983
  838MOL0     H10568   2.639   1.698   1.690 -0.4320  3.2971  1.2565
  838MOL0     H10569   2.510   1.880   1.392 -1.2327  0.9767  3.0021
  838MOL0     H10570   2.217   1.712   1.214  2.0255  1.1149 -1.9652
  838MOL0     H10571   2.292   1.865   1.240  3.9329 -0.8399  0.7089
  838MOL0     H10572   2.094   1.740   1.448 -0.8130 -0.5852 -0.0086
  838MOL0     H10573   2.040   1.817   1.303 -0.1930 -1.0686 -0.7589
  838MOL0     H10574   2.086   1.952   1.535 -1.8358  3.3784 -1.3277
  838MOL0     H10575   2.249   1.981   1.469  2.0166 -2.2493 -3.7820
  838MOL0     H10576   1.994   2.024   1.308 -0.7816  1.5443 -0.0299
  838MOL0     H10577   2.141   2.097   1.289 -0.5505 -0.8072 -0.8907
  838MOL0     H10578   1.932   2.294   1.635 -1.0707 -0.6252  0.6860
  838MOL0     H10579   2.051   2.416   1.807  2.1627  2.4630 -0.5533
  838MOL0     H10580   2.104   2.703   2.027 -1.8755 -3.4914  0.2319
  838MOL0     H10581   2.143   2.804   2.255 -0.2713  1.9609 -3.0663
  838MOL0     H10582   2.491   2.714   2.557  1.3575 -1.9103 -1.4997
  838MOL0     H10583   2.415   2.579   2.500 -2.0515 -0.5341  2.0303
  838MOL0     H10584   2.265   2.815   2.639 -0.5021  0.1859  0.3131
  838MOL0     H10585   2.338   2.681   2.723  0.4285  0.4410  0.3419
  838MOL0     H10586   2.211   2.519   2.598  1.4204  0.3334 -3.0396
  838MOL0     H10587   2.118   2.647   2.515 -0.9765 -0.3595  1.6965
  838MOL0     H10588   1.998   2.536   2.684 -1.0823  1.2358 -0.4922
  838MOL0     H10589   2.126   2.580   2.807 -0.6461 -0.9923  0.1820
  838MOL0     H10590   1.893   2.707   2.787 -0.3633  0.2501 -0.1432
  838MOL0     H10591   1.973   2.788   2.651 -0.9674  0.3829 -0.4997
  838MOL0     H10592   2.038   2.942   2.797 -2.4766 -0.3363  1.0706
  838MOL0     H10593   2.165   2.823   2.836 -1.1039 -0.4922  3.7918
  838MOL0     H10594   2.061   2.937   3.037  0.2497 -0.1700  1.4304
  838MOL0     H10595   1.903   2.868   2.983 -0.2973 -1.9930  2.2468
  838MOL0     H10596   2.028   2.638   2.993 -2.6423 -0.3611  1.1895
  838MOL0     H10597   1.976   2.717   3.141 -1.4083  4.2651 -0.5532
  838MOL0     H10598   2.512   2.582   2.269 -0.5880  3.7128  1.3396
  838MOL0     H10599   2.461   2.467   2.093 -0.4433 -0.1132 -1.0151
  838MOL0     H10600   2.422   2.330   1.620  0.7442 -2.0505  1.2493
  838MOL0     H10601   2.306   2.192   1.445 -0.2186 -0.3581  0.2377
  838MOL0     H10602   3.084   1.371   2.152 -1.0390 -1.1456 -0.6451
  838MOL0     H10603   3.085   1.171   2.316 -1.3153 -0.7108 -2.0480
  838MOL0     H10604   3.207   1.214   2.862 -0.7618  1.0946  3.9749
  838MOL0     H10605   3.188   1.071   3.051  1.7335 -1.2108 -0.7716
  838MOL0     H10606   3.034   0.825   3.295  4.1018 -0.5577  0.9650
  838MOL0     H10607   3.081   0.994   3.241 -0.9980 -0.1680  1.1616
  838MOL0     H10608   3.290   0.927   3.180  2.3487 -0.8449 -0.3960
  838MOL0     H10609   3.254   0.844   3.332  3.1265 -0.0340 -0.3971
  838MOL0     H10610   3.256   0.712   3.053  0.6033 -0.5465  0.3554
  838MOL0     H10611   3.217   0.628   3.199 -0.7013 -0.5107 -0.2255
  838MOL0     H10612   3.453   0.621   3.096  4.9438  0.4709  0.2486
  838MOL0     H10613   3.489   0.775   3.160 -0.9555  1.5211 -3.3521
  838MOL0     H10614   3.545   0.547   3.504 -0.2164  0.7536  0.0466
  838MOL0     H10615   2.850   0.869   2.889  0.0168 -1.0724  1.5387
  838MOL0     H10616   2.859   0.997   2.699  0.1715  1.6981 -1.2920
  839MOL0     O10617  10.173  10.505   1.803  0.0652  0.3416 -0.8912
  839MOL0     C10618  10.254  10.569   1.735 -0.5869  0.1356  0.0057
  839MOL0     O10619  10.273  10.573   1.608  0.6796  0.7767  0.4535
  839MOL0     C10620  10.206  10.480   1.534  0.0196 -0.2960 -0.3223
  839MOL0     C10621  10.274  10.370   1.479  0.2602  0.2472 -0.8161
  839MOL0     C10622  10.203  10.281   1.401  0.6269  1.1358 -0.0908
  839MOL0     C10623  10.079  10.317   1.344  0.9318  1.1149  0.0912
  839MOL0     O10624  10.015  10.229   1.258  0.0378 -0.0605 -0.7535
  839MOL0     C10625  10.086  10.135   1.174  0.0809 -0.6836 -0.2556
  839MOL0     C10626   9.977  10.074   1.067 -0.3366  0.8301  0.1011
  839MOL0     C10627   9.959  10.174   0.953  1.6361 -0.4938 -0.5751
  839MOL0     C10628  10.076  10.142   0.856  0.6719  0.3003  0.7049
  839MOL0     C10629  10.111  10.267   0.772 -0.0103  0.3380 -0.4654
  839MOL0     C10630  10.181  10.361   0.868  0.0059 -0.3703 -0.1646
  839MOL0     C10631  10.232  10.485   0.799  0.0528  0.4408 -0.4667
  839MOL0     C10632  10.305  10.577   0.898 -0.4427  0.4410 -0.2157
  839MOL0     N10633  10.354  10.700   0.834  1.0589 -0.0093 -0.6735
  839MOL0     C10634  10.483  10.737   0.845 -0.4724  0.1774 -0.4893
  839MOL0     C10635  10.485  10.846   0.771  0.3342 -0.5665  0.5633
  839MOL0     C10636  10.611  10.928   0.756 -0.0081 -0.6433  0.2583
  839MOL0     C10637  10.606  11.043   0.858 -0.0722 -0.3831 -0.4978
  839MOL0     C10638  10.681  11.175   0.820  0.4522 -0.3277 -0.0461
  839MOL0     C10639  10.836  11.148   0.792  0.1424 -0.5599  0.1225
  839MOL0     O10640  10.908  11.098   0.902 -0.0181 -0.1418 -0.1828
  839MOL0     C10641  10.960  11.191   0.995  0.6028 -0.6334 -0.2559
  839MOL0     C10642  10.947  11.329   1.001 -0.2901 -1.0061  0.4564
  839MOL0     C10643  11.009  11.407   1.111  0.0616 -1.0745  1.0389
  839MOL0     C10644  11.086  11.345   1.212 -0.2215  0.5741 -0.7630
  839MOL0     C10645  11.162  11.423   1.308 -0.8072 -0.7586 -0.2190
  839MOL0     O10646  11.128  11.558   1.322  0.2448  0.4237 -0.2788
  839MOL0     C10647  11.160  11.611   1.445  0.5042 -0.8649 -0.2704
  839MOL0     C10648  11.293  11.637   1.475 -0.4692 -0.0838  0.3934
  839MOL0     C10649  11.326  11.687   1.605 -0.8762  0.1301 -0.2041
  839MOL0     C10650  11.237  11.715   1.705 -0.0110  0.5212  0.1462
  839MOL0     O10651  11.264  11.756   1.826 -0.0382 -0.7508 -1.2968
  839MOL0     C10652  11.398  11.784   1.877 -0.4980 -0.4303 -0.4052
  839MOL0     C10653  11.383  11.828   2.021 -0.7310 -0.0531  0.0926
  839MOL0     C10654  11.305  11.962   2.037 -0.3461  1.1908  0.6851
  839MOL0     C10655  11.276  12.021   2.178  0.3592 -0.1042  0.2737
  839MOL0     C10656  11.385  12.081   2.265 -0.1608 -0.3177  0.9828
  839MOL0     C10657  11.511  11.996   2.260  0.7526 -0.8134 -0.5999
  839MOL0     C10658  11.610  12.047   2.363 -0.0049  0.4231  0.5233
  839MOL0     C10659  11.741  11.969   2.375 -0.2672 -0.2274  0.4104
  839MOL0    Cl10660  11.862  12.044   2.268  0.3517 -0.2672  0.6340
  839MOL0     C10661  11.104  11.687   1.667  0.5654 -0.5389  0.0050
  839MOL0     C10662  11.060  11.636   1.541  0.2271  0.1940  0.1402
  839MOL0     O10663  11.256  11.372   1.368 -0.2855  0.1635  0.1036
  839MOL0     C10664  11.096  11.201   1.208 -0.4272 -0.3201  0.3637
  839MOL0     C10665  11.041  11.135   1.093  0.7020  0.1223  0.0707
  839MOL0     N10666  10.357  10.879   0.717  0.2203 -0.4718 -0.4157
  839MOL0     N10667  10.285  10.785   0.759  0.5000 -0.2167  0.3912
  839MOL0     C10668  10.014  10.432   1.387 -0.0721 -0.0593 -0.5582
  839MOL0     C10669  10.073  10.504   1.493  0.6102 -0.2021 -0.2182
  839MOL0     C10670  10.315  10.677   1.816 -0.4336  0.1934 -0.3797
  839MOL0     C10671  10.412  10.755   1.751  0.0081  0.1755  0.4984
  839MOL0     C10672  10.482  10.854   1.832  0.6904 -0.2795  1.0246
  839MOL0     C10673  10.455  10.869   1.967  0.1233  0.8423 -0.1633
  839MOL0     O10674  10.541  10.946   2.035  0.3276  0.3725 -0.7958
  839MOL0     C10675  10.529  10.949   2.182  0.4477  0.1653  0.7424
  839MOL0     C10676  10.619  11.065   2.248 -0.7580 -0.6628 -0.4127
  839MOL0     C10677  10.768  11.025   2.200 -0.4949 -0.0276 -0.1359
  839MOL0     C10678  10.871  11.132   2.168  0.2745 -0.4737  0.8356
  839MOL0     C10679  10.896  11.223   2.281  0.2762 -0.1239  0.7532
  839MOL0     C10680  10.922  11.305   2.370  0.1382  0.8343 -0.6835
  839MOL0     C10681  10.347  10.801   2.022  0.1081  0.2075 -0.7770
  839MOL0     C10682  10.291  10.698   1.951 -0.3387 -0.9250 -0.3337
  839MOL0     H10683  10.373  10.343   1.515 -0.6304 -1.0286  0.7940
  839MOL0     H10684  10.264  10.197   1.367  0.0039  0.9474 -0.7732
  839MOL0     H10685  10.099  10.053   1.246  0.0507 -2.1917 -1.9137
  839MOL0     H10686  10.185  10.160   1.134  0.3050  1.5167  1.4785
  839MOL0     H10687   9.886  10.034   1.115  0.9321 -0.9583  1.1321
  839MOL0     H10688  10.016   9.981   1.026  1.8855  0.7825  2.1436
  839MOL0     H10689   9.964  10.272   1.001  2.3718 -1.6821  2.0140
  839MOL0     H10690   9.863  10.175   0.902 -1.0416  0.5913  3.9562
  839MOL0     H10691  10.161  10.102   0.913 -1.5812 -2.7071  2.2576
  839MOL0     H10692  10.044  10.060   0.791 -3.8789  1.4438  1.1891
  839MOL0     H10693  10.021  10.322   0.745 -1.4046 -0.9618  1.2763
  839MOL0     H10694  10.175  10.246   0.686  0.7969 -2.2228  0.6690
  839MOL0     H10695  10.261  10.308   0.919 -1.4950 -1.5396  1.0642
  839MOL0     H10696  10.104  10.393   0.939 -3.0682 -0.5528 -3.1752
  839MOL0     H10697  10.303  10.452   0.723 -2.0519 -2.5916 -1.2757
  839MOL0     H10698  10.143  10.528   0.753 -1.8792 -1.0589  1.6705
  839MOL0     H10699  10.383  10.534   0.962 -1.8218  2.6109  3.2139
  839MOL0     H10700  10.228  10.600   0.972  0.2393 -1.3085  1.1318
  839MOL0     H10701  10.569  10.690   0.891  0.6546  3.5520  1.2234
  839MOL0     H10702  10.608  10.973   0.657 -2.1069 -1.0711  0.0882
  839MOL0     H10703  10.694  10.858   0.772  0.1430 -0.2529  1.2541
  839MOL0     H10704  10.643  10.997   0.951 -1.1392 -0.9633 -0.3490
  839MOL0     H10705  10.500  11.065   0.870  0.1372  1.2593 -1.3338
  839MOL0     H10706  10.626  11.211   0.733  0.1418 -0.1478  0.2197
  839MOL0     H10707  10.667  11.253   0.896  0.6061  0.3640 -0.7203
  839MOL0     H10708  10.876  11.244   0.757 -0.2839 -0.4956 -0.1932
  839MOL0     H10709  10.859  11.084   0.706 -0.8479  4.4490 -4.4076
  839MOL0     H10710  10.895  11.376   0.918  2.0406  0.8716 -0.0548
  839MOL0     H10711  10.992  11.514   1.108 -0.9698 -1.2118 -1.9376
  839MOL0     H10712  11.369  11.622   1.399 -0.3687  0.1149  0.4543
  839MOL0     H10713  11.432  11.694   1.627 -0.8265 -3.2430  1.3472
  839MOL0     H10714  11.453  11.857   1.818 -3.6846  1.9635 -0.6515
  839MOL0     H10715  11.455  11.691   1.873  0.7801  0.3773 -3.1653
  839MOL0     H10716  11.483  11.822   2.064  0.5864  0.0750 -2.7714
  839MOL0     H10717  11.330  11.748   2.074 -4.4051  3.7463  2.8782
  839MOL0     H10718  11.210  11.956   1.984  0.8186  0.4118 -1.4429
  839MOL0     H10719  11.365  12.038   1.987  1.9900 -0.5921  0.5908
  839MOL0     H10720  11.199  12.098   2.172 -1.9523 -2.3266 -0.3178
  839MOL0     H10721  11.218  11.942   2.228 -2.1444  1.4826  0.0390
  839MOL0     H10722  11.337  12.094   2.362 -2.3948  2.2088 -0.3199
  839MOL0     H10723  11.403  12.181   2.224 -0.3514 -2.1171 -4.2827
  839MOL0     H10724  11.551  11.998   2.159  0.3914  0.4550 -0.7352
  839MOL0     H10725  11.475  11.895   2.282  0.8314 -0.9048 -0.8948
  839MOL0     H10726  11.626  12.153   2.344  2.7458  0.0012  0.0275
  839MOL0     H10727  11.557  12.043   2.458 -0.6788  0.0805  0.1375
  839MOL0     H10728  11.729  11.862   2.355 -0.3194 -0.7015  2.7363
  839MOL0     H10729  11.776  11.979   2.478  1.0037 -1.0541  0.0762
  839MOL0     H10730  11.027  11.707   1.741  0.2392 -1.3595 -0.0948
  839MOL0     H10731  10.957  11.620   1.511 -0.0136  1.7535  0.0247
  839MOL0     H10732  11.143  11.143   1.287 -4.4949 -0.2674  3.1494
  839MOL0     H10733  11.051  11.027   1.087 -2.0014 -0.5639  4.2445
  839MOL0     H10734   9.912  10.453   1.358 -0.7876 -3.4034 -0.7828
  839MOL0     H10735  10.033  10.594   1.538  2.5725  0.7718 -0.3049
  839MOL0     H10736  10.440  10.748   1.646  1.6884 -0.8085  0.9862
  839MOL0     H10737  10.547  10.928   1.787 -2.3828  1.2559 -1.2566
  839MOL0     H10738  10.556  10.853   2.226  1.0050  0.6680  1.5179
  839MOL0     H10739  10.426  10.971   2.212 -0.4674 -0.5590 -1.6240
  839MOL0     H10740  10.590  11.162   2.207  2.8499  0.1831 -1.2916
  839MOL0     H10741  10.629  11.071   2.357 -0.6615  0.1787 -0.4659
  839MOL0     H10742  10.765  10.953   2.118 -1.1939 -0.0692 -0.0784
  839MOL0     H10743  10.812  10.967   2.283 -1.1337  0.0634  0.2743
  839MOL0     H10744  10.965  11.093   2.128  0.9196  1.2579  0.5765
  839MOL0     H10745  10.826  11.190   2.087  0.6594  0.0893  1.0151
  839MOL0     H10746  10.930  11.380   2.445 -3.0877  0.3026  0.3228
  839MOL0     H10747  10.316  10.816   2.125  1.5119  1.9802 -0.5662
  839MOL0     H10748  10.231  10.628   2.008  1.0508 -1.6394  0.3188
  840MOL0     O10749   8.328   0.800   4.104  0.4228 -0.1042  0.5102
  840MOL0     C10750   8.298   0.683   4.090  0.3025 -1.0607  0.1334
  840MOL0     O10751   8.244   0.632   3.977  0.6032 -0.5893 -0.0457
  840MOL0     C10752   8.207   0.724   3.880  0.2492 -0.7033 -0.1000
  840MOL0     C10753   8.093   0.810   3.902  0.7582 -0.2855  0.2046
  840MOL0     C10754   8.054   0.898   3.806  0.4910  1.0959 -1.2551
  840MOL0     C10755   8.115   0.901   3.676 -0.0926  0.4780 -0.3712
  840MOL0     O10756   8.055   0.985   3.595 -1.1349 -0.7021  0.4008
  840MOL0     C10757   8.096   0.991   3.458 -0.3771  0.4593 -0.4277
  840MOL0     C10758   8.066   1.127   3.398 -0.0383 -0.1065 -0.1351
  840MOL0     C10759   8.139   1.165   3.265 -0.1446 -1.0843 -0.5552
  840MOL0     C10760   8.293   1.164   3.269 -0.8921  0.2987 -0.9888
  840MOL0     C10761   8.343   1.196   3.118  0.3483  0.2143 -0.3780
  840MOL0     C10762   8.498   1.223   3.110  0.7634 -1.0523  0.7711
  840MOL0     C10763   8.521   1.236   2.956 -0.4752 -0.3394 -0.1558
  840MOL0     C10764   8.673   1.249   2.930  1.0258 -0.1950  0.0604
  840MOL0     N10765   8.704   1.254   2.785 -0.1174 -0.2792  0.2580
  840MOL0     C10766   8.732   1.371   2.708 -0.4434  0.0002  0.3083
  840MOL0     C10767   8.794   1.320   2.603 -0.0566  0.2821  0.7581
  840MOL0     C10768   8.854   1.413   2.500 -0.5766 -0.1836  0.2081
  840MOL0     C10769   8.764   1.446   2.380  0.2559  0.0429  0.3334
  840MOL0     C10770   8.842   1.531   2.275 -0.2523  0.0469  1.3585
  840MOL0     C10771   8.977   1.466   2.220  0.4699 -0.8938 -0.3378
  840MOL0     O10772   8.934   1.341   2.172 -0.2768 -0.1726  1.1544
  840MOL0     C10773   9.037   1.250   2.147 -0.2538  0.2977 -0.9224
  840MOL0     C10774   9.012   1.146   2.063 -0.4591 -0.0372  0.3927
  840MOL0     C10775   9.121   1.069   2.014  0.1840  0.2652 -0.5202
  840MOL0     C10776   9.254   1.084   2.044  0.0953 -0.5073  0.0438
  840MOL0     C10777   9.360   0.991   1.990  0.2297  0.5643 -0.8554
  840MOL0     O10778   9.489   1.018   2.032 -0.3194  0.3865 -0.7368
  840MOL0     C10779   9.581   0.917   2.028 -0.1560  0.0329 -0.0851
  840MOL0     C10780   9.714   0.960   2.049  0.4021  0.4107 -0.2614
  840MOL0     C10781   9.816   0.867   2.033  0.0423 -0.2991  0.5178
  840MOL0     C10782   9.793   0.733   2.030  0.3628  0.1001  0.5546
  840MOL0     O10783   9.906   0.654   2.011  0.3358  0.0857 -0.2848
  840MOL0     C10784   9.898   0.515   2.038  0.6941 -0.2761 -0.3884
  840MOL0     C10785   9.846   0.445   1.915 -0.5564  1.0367  0.6595
  840MOL0     C10786   9.840   0.292   1.923 -0.9920 -0.4538 -0.8490
  840MOL0     C10787   9.752   0.248   1.805  0.5840  0.5654  0.9285
  840MOL0     C10788   9.729   0.098   1.811 -0.2463  1.5689 -0.8916
  840MOL0     C10789   9.626   0.068   1.701 -0.6305  0.1879 -0.6962
  840MOL0     C10790   9.596  -0.083   1.699 -0.0771  1.0922 -0.7182
  840MOL0     C10791   9.678  -0.162   1.596 -0.9490  0.0762 -0.2754
  840MOL0    Cl10792   9.842  -0.183   1.641  0.0937  0.1655  0.3759
  840MOL0     C10793   9.658   0.677   2.038  0.7156 -0.8313  0.6526
  840MOL0     C10794   9.549   0.778   2.039  0.3151 -0.7052 -0.1623
  840MOL0     O10795   9.314   0.903   1.911 -0.5098  0.1611  0.2642
  840MOL0     C10796   9.281   1.182   2.143 -1.4768  0.3215 -0.2566
  840MOL0     C10797   9.177   1.269   2.191 -0.5702  0.9497  0.0149
  840MOL0     N10798   8.798   1.180   2.604 -0.0257 -0.1351 -1.5067
  840MOL0     N10799   8.741   1.142   2.714 -0.5503 -0.2768 -0.8931
  840MOL0     C10800   8.231   0.812   3.659 -0.3320 -0.4571  0.1083
  840MOL0     C10801   8.273   0.721   3.753  0.0723  0.0649 -0.3621
  840MOL0     C10802   8.308   0.594   4.208 -0.2021  0.4134  0.1844
  840MOL0     C10803   8.361   0.638   4.333  0.1661 -1.0741  0.3706
  840MOL0     C10804   8.380   0.552   4.442  1.2437  0.1071 -0.6330
  840MOL0     C10805   8.334   0.418   4.439  1.1951  0.0304  0.0900
  840MOL0     O10806   8.344   0.325   4.538 -0.2789  0.0235 -0.3045
  840MOL0     C10807   8.427   0.345   4.657  0.3125 -0.8582 -0.7761
  840MOL0     C10808   8.452   0.215   4.730 -0.0792 -0.6561 -1.2710
  840MOL0     C10809   8.342   0.203   4.835 -0.6075  0.3478 -0.2976
  840MOL0     C10810   8.323   0.054   4.879 -0.9726 -0.4347  0.0220
  840MOL0     C10811   8.458  -0.004   4.900  0.1992  0.5132 -0.5280
  840MOL0     C10812   8.564  -0.066   4.914 -0.4232 -0.3008  0.2078
  840MOL0     C10813   8.278   0.374   4.324  0.4111 -0.8432  0.2968
  840MOL0     C10814   8.280   0.455   4.203  0.2189 -0.5047 -0.2267
  840MOL0     H10815   8.030   0.810   3.991 -0.6472 -0.8450 -0.7544
  840MOL0     H10816   7.979   0.970   3.837 -4.1876 -4.1670  1.6204
  840MOL0     H10817   8.041   0.912   3.407  1.3511 -1.5064  0.6256
  840MOL0     H10818   8.202   0.971   3.441 -0.0089  0.6915  1.3986
  840MOL0     H10819   8.093   1.205   3.470  0.5947 -0.0124 -0.4686
  840MOL0     H10820   7.958   1.117   3.383  0.2489 -4.5181 -0.4840
  840MOL0     H10821   8.109   1.267   3.239 -1.1365 -0.5486  2.3291
  840MOL0     H10822   8.109   1.108   3.176 -1.8122 -1.0328 -0.0553
  840MOL0     H10823   8.339   1.235   3.339  2.2441 -0.6343 -1.9513
  840MOL0     H10824   8.338   1.069   3.298 -0.0575  0.7220 -0.8525
  840MOL0     H10825   8.278   1.274   3.077  0.2823 -0.2652 -1.1991
  840MOL0     H10826   8.325   1.102   3.066 -0.4370  0.8778 -1.3434
  840MOL0     H10827   8.566   1.147   3.150  1.3972 -0.6821  0.4205
  840MOL0     H10828   8.516   1.321   3.157 -0.6461 -0.1146 -0.5432
  840MOL0     H10829   8.481   1.152   2.898  1.2755 -1.7393  0.5689
  840MOL0     H10830   8.486   1.330   2.914  2.2508  0.9885  0.3044
  840MOL0     H10831   8.732   1.180   2.990 -0.0679  0.8699  2.4794
  840MOL0     H10832   8.703   1.347   2.968 -1.2767  0.9421 -0.8617
  840MOL0     H10833   8.719   1.475   2.735  1.2637  1.0808 -2.5467
  840MOL0     H10834   8.953   1.375   2.475  0.7248  1.5295  2.4172
  840MOL0     H10835   8.876   1.512   2.541 -1.3897 -0.1191  0.5093
  840MOL0     H10836   8.676   1.505   2.408 -0.0623 -0.7663  1.0865
  840MOL0     H10837   8.723   1.357   2.331  0.1992  1.3008 -2.0586
  840MOL0     H10838   8.779   1.560   2.190 -0.9701 -1.5910  1.3076
  840MOL0     H10839   8.854   1.627   2.327 -2.3195  1.1749 -0.0605
  840MOL0     H10840   9.044   1.456   2.305 -0.1920 -1.0760  0.1756
  840MOL0     H10841   9.021   1.529   2.142 -3.6451  0.3380 -1.9624
  840MOL0     H10842   8.908   1.131   2.034 -0.6762  1.3677  0.3814
  840MOL0     H10843   9.098   0.993   1.940  0.2365 -1.1724  0.8792
  840MOL0     H10844   9.729   1.067   2.058  1.1048  0.3715 -0.8544
  840MOL0     H10845   9.919   0.899   2.021 -0.1121 -0.8251 -5.7541
  840MOL0     H10846   9.833   0.499   2.124  0.4991  0.6232 -0.3653
  840MOL0     H10847   9.995   0.477   2.072 -0.2938 -0.4640  2.4996
  840MOL0     H10848   9.901   0.479   1.827  1.8933  2.6740  2.6952
  840MOL0     H10849   9.740   0.472   1.903 -1.6466 -1.9362  2.3478
  840MOL0     H10850   9.788   0.275   2.018  2.4785  0.4520  1.3874
  840MOL0     H10851   9.943   0.258   1.924 -1.0781 -0.7946 -1.9192
  840MOL0     H10852   9.652   0.291   1.813  0.3872  1.1884 -3.0556
  840MOL0     H10853   9.789   0.282   1.708 -0.8926  0.0995  0.1694
  840MOL0     H10854   9.688   0.070   1.909  1.6394  1.1299 -0.1816
  840MOL0     H10855   9.815   0.032   1.800  0.4549  2.0566  1.1720
  840MOL0     H10856   9.655   0.111   1.605 -0.6922  1.6350 -0.0956
  840MOL0     H10857   9.532   0.118   1.724  1.0447  3.1200  0.3530
  840MOL0     H10858   9.615  -0.132   1.795  0.9357  4.2055  0.8012
  840MOL0     H10859   9.490  -0.094   1.676  0.2419 -0.4081 -1.6191
  840MOL0     H10860   9.679  -0.119   1.496  4.8367  2.0578  0.3052
  840MOL0     H10861   9.621  -0.255   1.582  0.9443 -1.7640  2.9161
  840MOL0     H10862   9.631   0.572   2.049  0.9358 -0.8317  1.2666
  840MOL0     H10863   9.448   0.738   2.034 -1.1531  2.2014  2.8524
  840MOL0     H10864   9.381   1.179   2.186 -0.7414 -0.4780 -1.9181
  840MOL0     H10865   9.205   1.350   2.258 -1.9430  0.9431  0.6320
  840MOL0     H10866   8.285   0.818   3.565 -0.8749 -0.5503 -0.2150
  840MOL0     H10867   8.360   0.656   3.756 -1.1094 -1.5612 -0.0403
  840MOL0     H10868   8.401   0.737   4.354  1.1438 -1.3200 -0.2374
  840MOL0     H10869   8.426   0.579   4.537  3.3603  0.1551 -1.6144
  840MOL0     H10870   8.376   0.420   4.718 -0.4017 -1.6395 -0.3898
  840MOL0     H10871   8.521   0.388   4.620  0.1113 -2.3368 -3.1760
  840MOL0     H10872   8.463   0.129   4.663  0.0881  0.0930 -2.2340
  840MOL0     H10873   8.549   0.214   4.779  0.2228  1.3418 -1.7399
  840MOL0     H10874   8.247   0.243   4.796 -2.1765  0.2546  3.0916
  840MOL0     H10875   8.367   0.254   4.928 -0.0063 -0.7282  0.1465
  840MOL0     H10876   8.271   0.050   4.975 -0.7324  0.8222  0.2224
  840MOL0     H10877   8.259   0.005   4.804 -3.9899  1.2313  1.3474
  840MOL0     H10878   8.645  -0.136   4.912  0.9714  1.2189  1.5423
  840MOL0     H10879   8.256   0.267   4.327 -1.0825 -0.5588  0.1323
  840MOL0     H10880   8.254   0.421   4.104 -2.3503 -0.4763  0.3732
  841MOL0     O10881  11.297  10.839  11.202  0.0469 -0.0100 -0.3267
  841MOL0     C10882  11.299  10.818  11.322 -0.0274 -0.0654 -0.0398
  841MOL0     O10883  11.389  10.877  11.413  0.9445 -0.2544  0.0734
  841MOL0     C10884  11.459  10.980  11.375  0.3930 -0.4150 -0.0683
  841MOL0     C10885  11.557  10.960  11.278  0.4560 -0.5781 -0.1865
  841MOL0     C10886  11.643  11.067  11.255  0.0076  0.3479  0.5890
  841MOL0     C10887  11.640  11.185  11.322  0.6514 -0.2086 -1.2713
  841MOL0     O10888  11.726  11.290  11.305 -0.9978  0.6038  0.4916
  841MOL0     C10889  11.827  11.297  11.407 -0.2372  0.2964 -1.3605
  841MOL0     C10890  11.968  11.349  11.353  0.0696  0.9704 -0.0960
  841MOL0     C10891  11.972  11.499  11.319 -0.4065 -0.3563  0.2666
  841MOL0     C10892  12.105  11.550  11.248  0.3013  0.3063  0.2322
  841MOL0     C10893  12.127  11.696  11.280  0.4107 -0.1076  0.3799
  841MOL0     C10894  12.273  11.730  11.255 -0.3115 -1.4687  0.3278
  841MOL0     C10895  12.294  11.887  11.284  0.6056  0.1468 -0.1791
  841MOL0     C10896  12.444  11.917  11.252 -0.0800 -0.4168  0.0761
  841MOL0     N10897  12.481  12.061  11.277 -0.2323 -0.0589 -0.4777
  841MOL0     C10898  12.437  12.171  11.209 -0.1467  0.1083  1.0093
  841MOL0     C10899  12.505  12.277  11.257 -0.5131 -0.3882  0.0364
  841MOL0     C10900  12.470  12.412  11.203  0.1244 -0.0496  0.0495
  841MOL0     C10901  12.552  12.457  11.074 -0.0406  0.0969  0.0291
  841MOL0     C10902  12.537  12.363  10.949 -0.3827  0.5253  0.8890
  841MOL0     C10903  12.640  12.404  10.838  0.3936  0.2666 -0.1695
  841MOL0     O10904  12.583  12.526  10.794  0.2731 -0.3599 -0.6864
  841MOL0     C10905  12.613  12.563  10.665  0.4881  0.3140  0.7220
  841MOL0     C10906  12.742  12.566  10.611 -0.6544 -0.9596 -0.0834
  841MOL0     C10907  12.763  12.606  10.478  1.1452  0.3112 -0.8306
  841MOL0     C10908  12.651  12.626  10.396  0.3411 -0.0209 -0.5660
  841MOL0     C10909  12.673  12.650  10.257 -0.2314 -0.5410  0.0603
  841MOL0     O10910  12.560  12.695  10.185 -0.1152  0.4132 -0.6236
  841MOL0     C10911  12.570  12.729  10.051 -0.4230  0.2770 -0.0867
  841MOL0     C10912  12.457  12.697   9.965 -0.3337  0.3588  0.2978
  841MOL0     C10913  12.473  12.703   9.829 -0.0295 -0.0455 -0.0894
  841MOL0     C10914  12.587  12.737   9.760  0.2701 -1.2118 -0.4782
  841MOL0     O10915  12.582  12.747   9.621 -0.5667  0.9911 -0.7663
  841MOL0     C10916  12.713  12.747   9.559  0.0124  0.6038 -0.5933
  841MOL0     C10917  12.686  12.738   9.413 -0.1538 -0.4275 -0.0391
  841MOL0     C10918  12.794  12.670   9.338 -0.1064 -0.3001 -0.0363
  841MOL0     C10919  12.751  12.624   9.201 -0.3378 -0.7060  0.0428
  841MOL0     C10920  12.858  12.630   9.095  0.3266 -1.0165 -0.0273
  841MOL0     C10921  12.801  12.570   8.963 -0.6850  0.2854  0.3189
  841MOL0     C10922  12.895  12.615   8.841 -0.1472  0.4400 -0.2716
  841MOL0     C10923  12.873  12.524   8.721 -0.2869  0.1411 -0.2296
  841MOL0    Cl10924  13.023  12.531   8.631 -0.1881  0.1182 -0.2650
  841MOL0     C10925  12.691  12.783   9.842 -0.7739  0.5064 -0.7148
  841MOL0     C10926  12.684  12.785   9.989  0.3834 -0.9231 -0.0253
  841MOL0     O10927  12.791  12.640  10.213 -0.0807  0.2285  0.0341
  841MOL0     C10928  12.521  12.624  10.449 -0.6432 -0.3349 -0.4262
  841MOL0     C10929  12.502  12.581  10.583 -0.3055 -0.1768 -0.0354
  841MOL0     N10930  12.596  12.234  11.354  0.2277  0.6354 -0.2157
  841MOL0     N10931  12.589  12.104  11.361 -0.1262 -0.0505  0.4966
  841MOL0     C10932  11.537  11.201  11.420  0.0107 -0.6354 -0.9103
  841MOL0     C10933  11.452  11.097  11.453  0.2423 -0.2862 -0.1004
  841MOL0     C10934  11.224  10.703  11.361 -0.5898  1.0498  0.5011
  841MOL0     C10935  11.254  10.634  11.481  0.0560 -0.1608 -0.0684
  841MOL0     C10936  11.175  10.529  11.516  0.8650  0.9853 -0.5929
  841MOL0     C10937  11.078  10.478  11.433 -0.1912 -0.3642  0.6633
  841MOL0     O10938  11.014  10.367  11.482 -0.3466 -0.3090 -0.1209
  841MOL0     C10939  10.937  10.269  11.392  0.5535  0.3316 -0.4572
  841MOL0     C10940  10.808  10.213  11.471  0.2816  0.4021 -0.2571
  841MOL0     C10941  10.721  10.127  11.383 -0.0437 -0.5387 -0.5378
  841MOL0     C10942  10.621  10.035  11.464 -0.7014  1.1311 -0.8910
  841MOL0     C10943  10.692   9.942  11.545  0.0884  0.1178  0.2079
  841MOL0     C10944  10.731   9.838  11.593 -0.9033 -0.8675 -0.4795
  841MOL0     C10945  11.055  10.543  11.311 -0.0460 -0.9013 -0.2389
  841MOL0     C10946  11.129  10.653  11.273  0.4441  0.6334  0.4592
  841MOL0     H10947  11.563  10.877  11.209  1.6758 -0.9504  0.3317
  841MOL0     H10948  11.722  11.057  11.181 -1.2334 -0.7223 -0.6480
  841MOL0     H10949  11.854  11.197  11.441 -1.2556  0.4608  0.0278
  841MOL0     H10950  11.799  11.355  11.496  0.6511 -0.1402 -0.7864
  841MOL0     H10951  12.011  11.288  11.273 -1.2469 -2.2610  1.4778
  841MOL0     H10952  12.035  11.335  11.438 -0.0474  1.0372  0.0084
  841MOL0     H10953  11.955  11.550  11.415  2.4997 -0.8350  1.1550
  841MOL0     H10954  11.894  11.518  11.245 -0.6714  0.9635  0.8530
  841MOL0     H10955  12.188  11.484  11.272 -0.8094 -1.2078  0.0997
  841MOL0     H10956  12.098  11.544  11.139  1.3255  1.0881  0.1126
  841MOL0     H10957  12.106  11.702  11.388  2.1981 -1.3852  0.8323
  841MOL0     H10958  12.063  11.759  11.217  0.3087 -2.0280 -1.5099
  841MOL0     H10959  12.304  11.697  11.155 -1.1394 -2.7314  0.4691
  841MOL0     H10960  12.348  11.685  11.321 -0.4559 -1.6454  0.3736
  841MOL0     H10961  12.240  11.955  11.219 -0.8839 -0.4410  0.3875
  841MOL0     H10962  12.277  11.910  11.390  1.4541 -0.3913  0.0944
  841MOL0     H10963  12.476  11.889  11.151 -0.0370  0.5963 -0.1946
  841MOL0     H10964  12.498  11.859  11.327  0.7437  1.7442  1.2217
  841MOL0     H10965  12.373  12.164  11.122  3.4085 -1.0289 -1.7720
  841MOL0     H10966  12.480  12.481  11.288 -1.7785 -2.8740  2.8086
  841MOL0     H10967  12.365  12.396  11.177 -0.8020  1.2789  2.6126
  841MOL0     H10968  12.654  12.468  11.111 -0.4090 -0.3274  1.2041
  841MOL0     H10969  12.512  12.557  11.054  0.4881  0.6842  1.6880
  841MOL0     H10970  12.560  12.258  10.972 -0.1802  1.1068  3.7447
  841MOL0     H10971  12.439  12.361  10.902  1.0671  0.4152 -2.4190
  841MOL0     H10972  12.629  12.326  10.761  1.2692 -2.8019  2.6121
  841MOL0     H10973  12.739  12.418  10.880  0.4685  0.4844 -0.4203
  841MOL0     H10974  12.840  12.551  10.655  0.3658  1.1941 -1.4479
  841MOL0     H10975  12.863  12.635  10.448  1.4615  2.8092  2.0876
  841MOL0     H10976  12.362  12.665  10.008 -0.6507  0.3001 -0.4364
  841MOL0     H10977  12.393  12.703   9.756  1.7055  1.1088 -2.1186
  841MOL0     H10978  12.769  12.661   9.597  1.2361  1.7785  0.4073
  841MOL0     H10979  12.778  12.833   9.580  4.5015 -2.2488 -1.3521
  841MOL0     H10980  12.680  12.838   9.370  4.8137  0.9272  1.7093
  841MOL0     H10981  12.592  12.687   9.392  1.3587 -2.3054 -2.8127
  841MOL0     H10982  12.831  12.579   9.388 -2.8689 -0.6957  1.4827
  841MOL0     H10983  12.878  12.739   9.345  0.1812 -0.6948  0.4856
  841MOL0     H10984  12.695  12.530   9.202 -3.0192  0.7811  0.3649
  841MOL0     H10985  12.674  12.694   9.168  2.0180  1.4100 -1.2712
  841MOL0     H10986  12.945  12.571   9.126  0.9958  0.5686  1.2676
  841MOL0     H10987  12.876  12.737   9.080 -1.7089 -0.7990 -1.2903
  841MOL0     H10988  12.700  12.610   8.945 -0.8359 -0.0963  0.3096
  841MOL0     H10989  12.786  12.462   8.972  1.5029 -0.4468 -2.9652
  841MOL0     H10990  12.876  12.719   8.811  2.4562  0.4917 -2.0661
  841MOL0     H10991  12.998  12.608   8.876 -0.2326 -2.1229 -0.3272
  841MOL0     H10992  12.797  12.538   8.644  2.2861 -0.5284 -3.0924
  841MOL0     H10993  12.873  12.423   8.764  1.6153  1.1989  2.5226
  841MOL0     H10994  12.782  12.831   9.807 -0.1116  0.8075  1.2992
  841MOL0     H10995  12.760  12.823  10.057 -1.2349 -2.8938  3.1476
  841MOL0     H10996  12.441  12.653  10.381 -2.4598 -1.9959  0.9060
  841MOL0     H10997  12.401  12.566  10.618  0.0137  1.1785  1.6059
  841MOL0     H10998  11.524  11.290  11.481  0.3230  0.0541 -1.8315
  841MOL0     H10999  11.381  11.135  11.525  2.3234  2.2997  0.7004
  841MOL0     H11000  11.331  10.672  11.548  1.5519 -1.9446 -0.6869
  841MOL0     H11001  11.202  10.472  11.604  3.8220  2.0441 -0.6851
  841MOL0     H11002  11.010  10.190  11.372 -0.7312 -1.5525  1.8156
  841MOL0     H11003  10.901  10.305  11.295  1.1472  0.3975 -0.6562
  841MOL0     H11004  10.840  10.158  11.560 -2.1662  2.7663  2.3200
  841MOL0     H11005  10.748  10.294  11.516 -1.6174 -2.1234  2.0964
  841MOL0     H11006  10.784  10.060  11.324 -0.7883 -3.1440  1.4364
  841MOL0     H11007  10.662  10.193  11.319 -0.3026  1.2535  1.4349
  841MOL0     H11008  10.554  10.095  11.527 -1.3555 -1.4860  1.0837
  841MOL0     H11009  10.565   9.975  11.392  1.1486  1.2820 -2.5438
  841MOL0     H11010  10.783   9.750  11.624 -0.0674 -0.2422 -0.0834
  841MOL0     H11011  10.969  10.512  11.253 -0.4064 -1.5053  0.5996
  841MOL0     H11012  11.112  10.700  11.177  2.5897  0.0884 -0.2532
  842MOL0     O11013   7.529   3.840   9.646 -0.7694 -0.7449 -0.3727
  842MOL0     C11014   7.603   3.886   9.733 -0.6315 -0.8938 -0.1195
  842MOL0     O11015   7.598   4.014   9.788  0.6367  0.0197  0.9340
  842MOL0     C11016   7.505   4.103   9.751  0.1219  0.0938  0.1697
  842MOL0     C11017   7.569   4.216   9.710 -0.2657 -0.5154  0.3473
  842MOL0     C11018   7.486   4.332   9.690  0.3503 -0.6938 -0.7295
  842MOL0     C11019   7.352   4.339   9.726 -0.2223 -0.7026  0.6962
  842MOL0     O11020   7.266   4.438   9.685  0.9813 -0.6816  0.2259
  842MOL0     C11021   7.166   4.496   9.765  0.3431 -0.2450 -0.3921
  842MOL0     C11022   7.220   4.637   9.802 -0.8878 -0.2650  0.1768
  842MOL0     C11023   7.244   4.720   9.679  0.4114 -0.0029 -0.5229
  842MOL0     C11024   7.281   4.867   9.726  1.0078  1.2676 -0.7124
  842MOL0     C11025   7.332   4.953   9.609 -0.8208 -0.5993 -0.0260
  842MOL0     C11026   7.473   4.906   9.569  0.3184 -0.5681  0.7376
  842MOL0     C11027   7.518   5.000   9.460  0.7614 -0.2010  2.0328
  842MOL0     C11028   7.454   4.994   9.319 -0.4529  0.0220  0.1234
  842MOL0     N11029   7.421   5.132   9.284 -0.2866 -0.6494  0.6493
  842MOL0     C11030   7.508   5.228   9.237 -0.3007 -0.6273 -0.2450
  842MOL0     C11031   7.435   5.343   9.252 -0.2797 -0.6883  0.4404
  842MOL0     C11032   7.501   5.485   9.233 -0.8652  0.2881  0.4334
  842MOL0     C11033   7.530   5.569   9.365 -0.4197 -0.3439  0.5137
  842MOL0     C11034   7.624   5.691   9.334 -0.0288  0.9628  0.6214
  842MOL0     C11035   7.650   5.771   9.457  0.8662  0.2139  0.1966
  842MOL0     O11036   7.751   5.866   9.421  0.4589  0.1359 -0.3380
  842MOL0     C11037   7.780   5.969   9.513  0.1176 -1.3619  1.3229
  842MOL0     C11038   7.680   6.039   9.582  0.7283 -0.1299 -0.0006
  842MOL0     C11039   7.717   6.153   9.655 -0.2542 -0.7524  0.1781
  842MOL0     C11040   7.849   6.201   9.663 -0.3000 -0.3586 -0.6049
  842MOL0     C11041   7.891   6.318   9.752 -0.1952  0.8771  0.2730
  842MOL0     O11042   8.023   6.348   9.755 -0.1031 -1.0819 -0.8490
  842MOL0     C11043   8.058   6.453   9.829  0.1041 -0.0791 -0.2515
  842MOL0     C11044   8.161   6.540   9.769 -0.4019 -0.8167 -0.2339
  842MOL0     C11045   8.220   6.648   9.845 -0.5532  0.5593 -0.1971
  842MOL0     C11046   8.184   6.655   9.979 -0.1644 -0.4183 -0.1554
  842MOL0     O11047   8.233   6.756  10.066  0.3506 -1.1082 -0.4107
  842MOL0     C11048   8.354   6.825  10.024  0.0275 -0.6519 -0.6742
  842MOL0     C11049   8.395   6.922  10.138  0.1952  0.2892  0.3194
  842MOL0     C11050   8.517   7.006  10.116 -0.1034  0.0807  0.2287
  842MOL0     C11051   8.543   7.105  10.226  0.4067  0.1009 -0.0334
  842MOL0     C11052   8.692   7.148  10.216  0.7931  0.4551 -0.7265
  842MOL0     C11053   8.715   7.221  10.091  0.1780 -0.3188  0.0153
  842MOL0     C11054   8.843   7.301  10.090  0.6425  0.1364 -0.1885
  842MOL0     C11055   8.822   7.426  10.172  0.2596  0.4177 -0.5870
  842MOL0    Cl11056   8.974   7.507  10.218 -0.0330  0.1485  0.3301
  842MOL0     C11057   8.090   6.563  10.030 -0.8769  0.5046 -0.4881
  842MOL0     C11058   8.040   6.461   9.963 -0.3544  0.0356 -0.0535
  842MOL0     O11059   7.791   6.367   9.807  0.2160 -0.1191 -0.2183
  842MOL0     C11060   7.943   6.122   9.600  0.1383  0.2346  0.9949
  842MOL0     C11061   7.916   6.008   9.521  0.9978 -1.3233 -0.2729
  842MOL0     N11062   7.305   5.314   9.292  0.4806  0.5993 -0.6061
  842MOL0     N11063   7.301   5.188   9.316  0.5850  0.0967 -0.3083
  842MOL0     C11064   7.293   4.214   9.761  0.3215  0.6587 -0.8908
  842MOL0     C11065   7.372   4.100   9.772 -0.0050  0.1004 -0.0994
  842MOL0     C11066   7.715   3.803   9.784  0.5626  0.7908  0.9265
  842MOL0     C11067   7.705   3.662   9.815  1.3184  0.2047 -0.8658
  842MOL0     C11068   7.824   3.586   9.836 -0.1367 -1.0295  0.7880
  842MOL0     C11069   7.947   3.657   9.841  0.9551  0.5657  0.6136
  842MOL0     O11070   8.060   3.576   9.855 -0.4223  0.5662 -0.9289
  842MOL0     C11071   8.195   3.622   9.834 -0.5831 -0.2124  0.1880
  842MOL0     C11072   8.287   3.500   9.867  1.1053 -0.6244 -0.1713
  842MOL0     C11073   8.423   3.534   9.920 -0.8615 -0.3451 -0.3084
  842MOL0     C11074   8.510   3.611   9.824  0.3055 -1.7174  0.6479
  842MOL0     C11075   8.643   3.638   9.887 -0.2050 -0.3062 -0.0911
  842MOL0     C11076   8.757   3.666   9.921  0.7729  0.7109  1.2882
  842MOL0     C11077   7.941   3.798   9.832 -0.0646 -0.0334 -0.6317
  842MOL0     C11078   7.838   3.870   9.783  0.7892 -0.8112 -0.7094
  842MOL0     H11079   7.675   4.228   9.688 -0.2788  2.0756  1.2846
  842MOL0     H11080   7.524   4.425   9.650 -1.9881  1.0300  0.8729
  842MOL0     H11081   7.164   4.444   9.861  2.5478  1.2918  0.5711
  842MOL0     H11082   7.068   4.507   9.717  0.7916 -2.8528 -2.0600
  842MOL0     H11083   7.309   4.628   9.865 -0.4602  0.9548 -0.2150
  842MOL0     H11084   7.135   4.692   9.843 -0.7537  2.5923 -2.9458
  842MOL0     H11085   7.152   4.728   9.620  0.5017  1.6849 -0.4706
  842MOL0     H11086   7.323   4.669   9.621  2.0234  0.7990  0.8903
  842MOL0     H11087   7.186   4.915   9.749  0.1627  0.4217 -2.2445
  842MOL0     H11088   7.348   4.861   9.812 -1.8847 -0.0541  1.6340
  842MOL0     H11089   7.338   5.055   9.647  2.8849 -0.4220 -0.6777
  842MOL0     H11090   7.261   4.943   9.525  0.1317 -2.5344 -0.6759
  842MOL0     H11091   7.456   4.803   9.535 -0.1248 -1.7730  4.2649
  842MOL0     H11092   7.546   4.903   9.650  0.5735 -1.2313  0.4890
  842MOL0     H11093   7.533   5.102   9.497  0.5206  1.1349 -1.1955
  842MOL0     H11094   7.619   4.969   9.433  1.9245  4.3773  0.0641
  842MOL0     H11095   7.362   4.936   9.335 -1.4585  1.8493  1.4380
  842MOL0     H11096   7.542   4.963   9.263  0.3398  1.0756  0.7484
  842MOL0     H11097   7.611   5.225   9.203 -0.4481  3.7484 -1.6610
  842MOL0     H11098   7.430   5.550   9.181 -0.8928 -1.1827 -1.4514
  842MOL0     H11099   7.586   5.473   9.165 -0.2049 -2.2472  1.6011
  842MOL0     H11100   7.585   5.508   9.438 -3.0384 -1.9163  1.3189
  842MOL0     H11101   7.437   5.595   9.416 -1.6146 -1.3430 -1.0540
  842MOL0     H11102   7.714   5.653   9.285 -0.9878  2.8469 -2.9479
  842MOL0     H11103   7.588   5.771   9.269 -0.9586 -0.5515 -0.8081
  842MOL0     H11104   7.686   5.716   9.544 -3.6887  1.1388  2.9645
  842MOL0     H11105   7.555   5.817   9.485  0.8189  1.5493 -1.9007
  842MOL0     H11106   7.576   6.008   9.572  0.8718 -0.9708  0.9606
  842MOL0     H11107   7.633   6.201   9.704 -0.9005 -0.9423 -0.7142
  842MOL0     H11108   8.194   6.525   9.667  4.1518 -2.1142  1.1974
  842MOL0     H11109   8.295   6.705   9.791  1.4779 -2.6280 -1.0504
  842MOL0     H11110   8.330   6.879   9.932  0.1625 -1.3991 -1.1579
  842MOL0     H11111   8.435   6.756   9.999 -0.3757 -1.3694 -0.0378
  842MOL0     H11112   8.399   6.863  10.230  0.3473 -1.5159 -0.8013
  842MOL0     H11113   8.327   7.007  10.150  1.3092  0.8323  4.0073
  842MOL0     H11114   8.521   7.064  10.024 -0.3798  1.6746  1.1764
  842MOL0     H11115   8.603   6.938  10.122  0.1269  0.4654  2.1093
  842MOL0     H11116   8.480   7.191  10.202 -0.0053 -0.1906 -0.0048
  842MOL0     H11117   8.531   7.062  10.326 -0.5100 -2.4911 -1.1675
  842MOL0     H11118   8.763   7.068  10.241  0.3405  0.7943  1.9709
  842MOL0     H11119   8.712   7.214  10.301 -1.0836 -0.0204  0.1455
  842MOL0     H11120   8.633   7.289  10.066 -0.1266 -1.5085 -2.6324
  842MOL0     H11121   8.728   7.138  10.020 -0.5285 -0.1418 -0.3340
  842MOL0     H11122   8.924   7.239  10.130 -1.5412 -0.7859  3.2876
  842MOL0     H11123   8.859   7.327   9.985 -2.3484 -0.1425 -0.8019
  842MOL0     H11124   8.768   7.411  10.266  1.5830 -0.0195  0.1363
  842MOL0     H11125   8.769   7.504  10.117  2.1379  1.6009 -0.8090
  842MOL0     H11126   8.089   6.553  10.139 -2.1351 -1.9260 -0.6390
  842MOL0     H11127   7.983   6.388  10.020  0.0979  1.3235  2.1659
  842MOL0     H11128   8.048   6.149   9.602  0.4904 -0.3368 -2.9554
  842MOL0     H11129   7.995   5.954   9.470  3.8222  0.1129  2.3035
  842MOL0     H11130   7.193   4.197   9.799  0.8903 -1.2878 -0.1222
  842MOL0     H11131   7.327   4.008   9.807 -0.0163  0.4847  0.9190
  842MOL0     H11132   7.608   3.613   9.812  0.5962  1.3344  1.5013
  842MOL0     H11133   7.822   3.479   9.851  3.0884 -1.0750  1.5800
  842MOL0     H11134   8.220   3.703   9.903 -0.5544  3.1477 -3.3963
  842MOL0     H11135   8.213   3.666   9.735  0.9192 -1.4242 -0.1152
  842MOL0     H11136   8.240   3.439   9.945 -1.6427  1.8752  0.2932
  842MOL0     H11137   8.305   3.435   9.781  1.0606 -0.6164 -0.1863
  842MOL0     H11138   8.476   3.438   9.930 -1.3863 -0.9053 -2.4279
  842MOL0     H11139   8.415   3.583  10.017 -0.6242  0.2558 -0.5910
  842MOL0     H11140   8.535   3.565   9.728 -3.4311  0.8168 -1.8016
  842MOL0     H11141   8.462   3.709   9.813 -0.0674 -2.0701 -1.1376
  842MOL0     H11142   8.861   3.677   9.945  0.9799  1.4828  0.0927
  842MOL0     H11143   8.034   3.853   9.842  0.0299 -0.3171  0.1495
  842MOL0     H11144   7.854   3.976   9.771  3.1169 -0.8550  1.3403
  843MOL0     O11145  10.795   7.964   9.791  0.6221  0.2437  0.1409
  843MOL0     C11146  10.729   7.995   9.688 -1.5562  0.2250  0.4104
  843MOL0     O11147  10.709   8.115   9.641 -0.5643 -1.0330 -0.4407
  843MOL0     C11148  10.715   8.211   9.732  0.0810  0.4928 -0.7139
  843MOL0     C11149  10.811   8.313   9.709 -0.3697 -0.6113 -0.2844
  843MOL0     C11150  10.825   8.429   9.795  0.5829 -0.7539  0.0591
  843MOL0     C11151  10.729   8.437   9.907 -0.6550  0.0645 -0.2635
  843MOL0     O11152  10.712   8.543   9.990  0.0452 -0.3899 -0.7189
  843MOL0     C11153  10.674   8.668   9.934 -0.0307  0.5687  0.6756
  843MOL0     C11154  10.682   8.762  10.062  0.4543 -0.9384 -0.4165
  843MOL0     C11155  10.822   8.800  10.084 -0.1433 -0.0399 -0.6371
  843MOL0     C11156  10.836   8.864  10.222  0.6533  0.6445 -0.1812
  843MOL0     C11157  10.978   8.923  10.232  0.2109  1.0945  0.4006
  843MOL0     C11158  10.990   9.001  10.367 -0.6519 -0.6704 -0.4007
  843MOL0     C11159  11.102   9.101  10.359 -0.3392 -0.5002 -0.3509
  843MOL0     C11160  11.064   9.232  10.292 -0.7317  0.2437 -0.6618
  843MOL0     N11161  11.174   9.328  10.292  0.4144 -0.9332  0.2836
  843MOL0     C11162  11.296   9.319  10.229  0.6248  0.9732  0.3118
  843MOL0     C11163  11.335   9.443  10.216 -0.8955  0.0610 -0.7516
  843MOL0     C11164  11.458   9.479  10.121 -1.2105  0.0395 -0.1351
  843MOL0     C11165  11.439   9.467   9.972 -0.6373 -0.7552  0.2777
  843MOL0     C11166  11.312   9.529   9.911  0.5302 -0.0824 -0.5564
  843MOL0     C11167  11.318   9.529   9.757  0.4862  0.5523 -0.7487
  843MOL0     O11168  11.430   9.614   9.731  0.3811 -0.4287 -0.1396
  843MOL0     C11169  11.436   9.691   9.618 -0.0897  0.0086  0.3045
  843MOL0     C11170  11.505   9.807   9.633  0.5494 -0.3645 -0.5821
  843MOL0     C11171  11.526   9.886   9.519 -0.9244  1.1395 -0.9607
  843MOL0     C11172  11.485   9.834   9.394 -0.1284 -0.1876 -0.4405
  843MOL0     C11173  11.509   9.907   9.268  0.3028 -0.2048  0.0639
  843MOL0     O11174  11.486   9.828   9.150 -0.5999 -0.8038  0.0629
  843MOL0     C11175  11.497   9.885   9.022 -0.3569 -0.4881  0.0406
  843MOL0     C11176  11.464  10.021   8.996 -0.4098 -0.0807 -0.0078
  843MOL0     C11177  11.467  10.058   8.856  0.0222  0.1489 -0.5355
  843MOL0     C11178  11.504   9.977   8.751  0.2101  1.3930  0.4674
  843MOL0     O11179  11.512  10.028   8.626 -0.7899 -0.0465  0.3337
  843MOL0     C11180  11.526   9.934   8.517  0.9678 -0.8332  0.0989
  843MOL0     C11181  11.497   9.998   8.382  0.1920 -0.2375 -0.1835
  843MOL0     C11182  11.570  10.126   8.339 -0.4845 -0.5469  0.2869
  843MOL0     C11183  11.713  10.089   8.305 -0.3977  0.1243  0.2749
  843MOL0     C11184  11.790  10.214   8.271  0.1177  0.3413  0.1815
  843MOL0     C11185  11.907  10.186   8.170 -0.4367 -0.1454 -0.9013
  843MOL0     C11186  11.977  10.316   8.111 -0.0402  0.1508 -0.0402
  843MOL0     C11187  12.115  10.283   8.052  0.3284 -0.2323 -0.0655
  843MOL0    Cl11188  12.118  10.332   7.881  0.3728 -0.1837 -0.3052
  843MOL0     C11189  11.535   9.843   8.788  0.6170  0.1577  0.0823
  843MOL0     C11190  11.532   9.797   8.916 -0.6582 -0.2045 -1.0200
  843MOL0     O11191  11.553  10.017   9.281  1.0848  0.3633  0.7034
  843MOL0     C11192  11.417   9.716   9.388  1.4127  0.2358  0.0804
  843MOL0     C11193  11.389   9.640   9.502 -1.0243 -0.4207 -0.1844
  843MOL0     N11194  11.250   9.529  10.282  0.6242 -0.1640 -0.9516
  843MOL0     N11195  11.160   9.458  10.346  0.2339  1.1527  0.3539
  843MOL0     C11196  10.644   8.316   9.938 -0.8737  0.4275  0.4544
  843MOL0     C11197  10.624   8.208   9.841 -0.3263 -0.1253  0.3740
  843MOL0     C11198  10.708   7.886   9.594  0.1610  0.0521  0.2213
  843MOL0     C11199  10.630   7.907   9.481 -0.5556  0.9958  0.0898
  843MOL0     C11200  10.597   7.792   9.407  0.2646  0.2366  0.6830
  843MOL0     C11201  10.641   7.660   9.444 -0.1992  0.5387 -0.3918
  843MOL0     O11202  10.617   7.545   9.377 -0.8696 -0.1525  0.7172
  843MOL0     C11203  10.504   7.523   9.290  0.9394 -0.8760  0.7470
  843MOL0     C11204  10.414   7.405   9.322 -0.1981  0.4539  0.7988
  843MOL0     C11205  10.324   7.429   9.448  0.4081  0.0617 -0.3780
  843MOL0     C11206  10.199   7.333   9.457  1.5431 -0.1668  0.1033
  843MOL0     C11207  10.102   7.376   9.352 -0.2680 -0.0020  0.3092
  843MOL0     C11208  10.049   7.421   9.253  0.5105 -0.2837 -0.4987
  843MOL0     C11209  10.710   7.643   9.560  1.1616 -0.4487  1.1358
  843MOL0     C11210  10.746   7.758   9.636  0.1148  0.5102  0.0162
  843MOL0     H11211  10.869   8.304   9.617 -0.7113 -2.3725 -0.3539
  843MOL0     H11212  10.896   8.507   9.769  2.5890 -1.3112  3.3029
  843MOL0     H11213  10.570   8.675   9.900  0.6058  4.4700 -1.0474
  843MOL0     H11214  10.743   8.693   9.854 -1.6176 -1.3856 -1.4239
  843MOL0     H11215  10.633   8.712  10.146 -2.9259  3.9813  0.9953
  843MOL0     H11216  10.620   8.850  10.039  0.5823  0.2462  3.1947
  843MOL0     H11217  10.853   8.868  10.004 -0.2149  0.8057  0.0322
  843MOL0     H11218  10.884   8.710  10.091  0.5999  0.5636  3.7372
  843MOL0     H11219  10.757   8.940  10.231  1.2823  1.1883  0.9135
  843MOL0     H11220  10.826   8.793  10.304  1.2012  0.7457 -0.0227
  843MOL0     H11221  10.991   8.995  10.151 -0.7023 -1.0310 -1.7639
  843MOL0     H11222  11.062   8.855  10.218 -1.6724 -1.7522  1.8331
  843MOL0     H11223  11.008   8.933  10.451 -0.6198 -1.0999 -0.7488
  843MOL0     H11224  10.892   9.038  10.398  0.6148 -0.7840  4.4791
  843MOL0     H11225  11.133   9.130  10.460  1.7414  1.8283 -1.5477
  843MOL0     H11226  11.186   9.057  10.303 -0.3322 -1.6054  0.4836
  843MOL0     H11227  10.978   9.279  10.342  0.1331 -0.9772  2.1623
  843MOL0     H11228  11.044   9.209  10.187  2.1255 -1.3784 -0.9386
  843MOL0     H11229  11.332   9.238  10.167 -2.0943  1.8824 -2.7506
  843MOL0     H11230  11.534   9.411  10.162 -1.2084 -0.8286 -1.5103
  843MOL0     H11231  11.488   9.582  10.145  2.4479 -0.8250 -0.3902
  843MOL0     H11232  11.436   9.361   9.947  1.4749 -0.7056 -0.4081
  843MOL0     H11233  11.526   9.505   9.917 -1.5160 -2.0022 -2.1197
  843MOL0     H11234  11.229   9.468   9.948 -0.9441  0.3290 -2.9634
  843MOL0     H11235  11.300   9.633   9.942  0.4061 -0.5721  1.1804
  843MOL0     H11236  11.228   9.575   9.716 -0.2502  1.9704  2.1408
  843MOL0     H11237  11.328   9.428   9.715  1.3935  0.3448 -0.0707
  843MOL0     H11238  11.534   9.847   9.730  0.5792 -1.9326  0.0786
  843MOL0     H11239  11.581   9.979   9.528  0.4309  0.6757 -3.3584
  843MOL0     H11240  11.446  10.100   9.068  3.9549 -0.1558  1.4473
  843MOL0     H11241  11.438  10.157   8.824 -3.9653 -1.7444 -3.7389
  843MOL0     H11242  11.458   9.851   8.542  1.1114 -0.7411  0.8199
  843MOL0     H11243  11.631   9.905   8.519  1.0319 -0.6014  0.1014
  843MOL0     H11244  11.391  10.016   8.362  0.3990  0.6553 -0.5446
  843MOL0     H11245  11.522   9.924   8.306 -2.4682 -0.5157 -0.8834
  843MOL0     H11246  11.568  10.203   8.417 -1.4525 -0.1291 -0.1381
  843MOL0     H11247  11.534  10.164   8.243  2.1937  3.5175  0.6656
  843MOL0     H11248  11.761  10.029   8.383 -2.2964  1.2806  2.4339
  843MOL0     H11249  11.711  10.016   8.223 -1.9452 -1.9795  2.0633
  843MOL0     H11250  11.846  10.263   8.351  1.6685  0.8263 -1.1401
  843MOL0     H11251  11.724  10.283   8.219 -1.8208 -0.2160  1.7954
  843MOL0     H11252  11.881  10.123   8.085 -2.5284  2.1645 -2.1074
  843MOL0     H11253  11.985  10.129   8.221 -0.4682  2.1189  1.9673
  843MOL0     H11254  11.912  10.373   8.044  1.9749 -0.6170 -2.7866
  843MOL0     H11255  11.996  10.372   8.203 -1.5452 -1.5386  1.3780
  843MOL0     H11256  12.137  10.176   8.050 -2.0196 -0.7520  0.1002
  843MOL0     H11257  12.197  10.342   8.096 -0.3229  2.2052 -1.8952
  843MOL0     H11258  11.555   9.767   8.712 -2.4981 -1.3627  0.5920
  843MOL0     H11259  11.538   9.692   8.942  1.6293 -0.3559 -1.9676
  843MOL0     H11260  11.379   9.682   9.293 -2.9905 -0.2988  1.7735
  843MOL0     H11261  11.335   9.546   9.495 -2.4401  0.1668  2.0476
  843MOL0     H11262  10.555   8.313  10.001 -3.0334 -3.2105 -2.3295
  843MOL0     H11263  10.548   8.133   9.861 -1.9985  1.9888  2.5289
  843MOL0     H11264  10.595   8.006   9.453 -0.7234  0.2876 -2.3767
  843MOL0     H11265  10.548   7.812   9.312 -0.4686 -0.4882  0.8981
  843MOL0     H11266  10.550   7.503   9.193 -2.7613  0.3271 -1.4129
  843MOL0     H11267  10.449   7.615   9.270 -0.2022 -1.6433  0.2988
  843MOL0     H11268  10.342   7.386   9.242  1.5027  0.8723 -0.8996
  843MOL0     H11269  10.481   7.319   9.338 -0.8089 -0.0346  0.7792
  843MOL0     H11270  10.304   7.534   9.471  0.8298  0.2054 -0.6512
  843MOL0     H11271  10.396   7.402   9.525 -0.2348  0.3612  0.3379
  843MOL0     H11272  10.217   7.225   9.451  3.3235 -0.0769  2.3984
  843MOL0     H11273  10.155   7.344   9.557 -0.3079 -3.3830 -0.2078
  843MOL0     H11274   9.992   7.465   9.174 -2.6730 -1.4642  0.9749
  843MOL0     H11275  10.737   7.540   9.577 -3.5112 -2.2157 -0.6344
  843MOL0     H11276  10.805   7.751   9.727 -0.7715  2.8596  0.8378
  844MOL0     O11277   1.109  10.118   1.203  0.1558  0.1635  0.0874
  844MOL0     C11278   1.175  10.200   1.265 -0.5700 -0.3153 -0.3335
  844MOL0     O11279   1.128  10.277   1.357  0.2702  0.7331 -0.8325
  844MOL0     C11280   0.996  10.279   1.391  0.3921  0.6130 -0.7224
  844MOL0     C11281   0.954  10.410   1.422 -0.2720  0.8789  0.2454
  844MOL0     C11282   0.831  10.432   1.492  0.8012  0.3343 -0.4201
  844MOL0     C11283   0.741  10.319   1.515  0.1017  0.4079  0.1684
  844MOL0     O11284   0.636  10.330   1.601  0.3100  0.6474 -0.5099
  844MOL0     C11285   0.565  10.206   1.634  0.4068 -0.2583  0.6475
  844MOL0     C11286   0.452  10.242   1.726 -0.1214  0.1872 -0.8161
  844MOL0     C11287   0.388  10.122   1.786 -0.8390 -0.0177 -0.9491
  844MOL0     C11288   0.269  10.165   1.882 -0.1167  0.2793  0.1654
  844MOL0     C11289   0.183  10.057   1.948  0.1324 -0.2049  0.4037
  844MOL0     C11290   0.134   9.943   1.870 -0.4508  0.4709 -0.0987
  844MOL0     C11291   0.059   9.845   1.966  1.0221  0.7225  0.4029
  844MOL0     C11292  -0.012   9.741   1.883 -0.2673 -0.9298  0.6496
  844MOL0     N11293  -0.155   9.771   1.849  0.0487  0.4456  0.5373
  844MOL0     C11294  -0.254   9.747   1.937  0.4428 -0.4806 -0.4958
  844MOL0     C11295  -0.365   9.792   1.869  0.4041 -0.3537 -0.8154
  844MOL0     C11296  -0.505   9.804   1.912  0.2443  0.0449 -0.7390
  844MOL0     C11297  -0.576   9.675   1.892  0.0978 -0.3133  1.1866
  844MOL0     C11298  -0.728   9.681   1.912  0.1215 -0.5811  0.0219
  844MOL0     C11299  -0.778   9.541   1.902  0.6093  0.4334  0.7536
  844MOL0     O11300  -0.919   9.537   1.917  0.2962  0.0666 -0.6075
  844MOL0     C11301  -0.990   9.425   1.951 -0.2254 -0.0323 -0.2375
  844MOL0     C11302  -1.127   9.452   1.986 -0.8505  0.2266 -0.3399
  844MOL0     C11303  -1.211   9.350   2.010  0.0833 -0.0811  0.7272
  844MOL0     C11304  -1.186   9.217   2.003 -0.5390  0.7595  0.1664
  844MOL0     C11305  -1.301   9.113   2.026 -0.1115 -0.0724 -0.3841
  844MOL0     O11306  -1.421   9.160   2.068  0.5091 -0.3066 -0.7211
  844MOL0     C11307  -1.534   9.086   2.061 -0.5221  0.1512 -0.0568
  844MOL0     C11308  -1.555   8.959   2.111  0.5658 -0.1692 -0.3577
  844MOL0     C11309  -1.688   8.906   2.117 -0.5112 -0.3031 -0.6756
  844MOL0     C11310  -1.796   8.975   2.052 -0.0338 -0.4904  1.1759
  844MOL0     O11311  -1.924   8.923   2.055 -0.2571  0.4231  0.0255
  844MOL0     C11312  -2.048   8.996   2.011  0.4159 -0.6034 -0.4191
  844MOL0     C11313  -2.126   8.889   1.940 -0.1301 -0.6979  0.3407
  844MOL0     C11314  -2.237   8.948   1.858  0.4806 -0.0409 -0.1472
  844MOL0     C11315  -2.341   8.839   1.823  0.0906 -0.1360 -0.6944
  844MOL0     C11316  -2.461   8.893   1.733  0.1177  0.1680 -1.0234
  844MOL0     C11317  -2.423   8.935   1.589  0.3456  0.4420 -0.7819
  844MOL0     C11318  -2.556   8.945   1.514  0.5118 -0.3895 -0.0585
  844MOL0     C11319  -2.566   9.060   1.415 -0.1477 -0.0742  0.2941
  844MOL0    Cl11320  -2.741   9.067   1.365 -0.2839  0.1319 -0.0086
  844MOL0     C11321  -1.767   9.089   1.980  0.6529 -0.8742 -0.5880
  844MOL0     C11322  -1.640   9.149   1.998  0.2692  0.9015  1.0555
  844MOL0     O11323  -1.270   8.994   2.009 -0.6326 -0.8209  0.1987
  844MOL0     C11324  -1.043   9.195   1.976 -0.0066 -0.0592 -0.8131
  844MOL0     C11325  -0.951   9.294   1.942 -0.4006 -0.2168 -0.6405
  844MOL0     N11326  -0.323   9.828   1.742 -0.3958 -1.3741 -0.1052
  844MOL0     N11327  -0.201   9.809   1.731 -0.5959  0.4694 -0.0920
  844MOL0     C11328   0.782  10.196   1.467  0.0764 -0.5266  0.8425
  844MOL0     C11329   0.901  10.176   1.404  0.1630 -0.0719 -0.5251
  844MOL0     C11330   1.316  10.228   1.215 -0.5079 -0.8495  0.0699
  844MOL0     C11331   1.402  10.294   1.306  0.7377 -0.6574  0.8853
  844MOL0     C11332   1.529  10.328   1.256 -0.0836  0.6734 -0.1381
  844MOL0     C11333   1.570  10.296   1.124  0.7980  0.3817 -0.2948
  844MOL0     O11334   1.701  10.311   1.102 -0.0857 -0.1290 -0.5477
  844MOL0     C11335   1.748  10.317   0.971 -1.0581  0.3841 -0.6052
  844MOL0     C11336   1.878  10.402   0.980  0.0375  0.0567  0.1231
  844MOL0     C11337   1.866  10.552   0.962  0.6393  0.0219 -0.1665
  844MOL0     C11338   2.004  10.623   0.967 -0.1418  0.6982 -0.1251
  844MOL0     C11339   1.995  10.761   0.932 -0.0107 -0.1266 -0.1009
  844MOL0     C11340   1.980  10.876   0.896  0.1182  0.3647  0.1059
  844MOL0     C11341   1.480  10.225   1.049 -0.1171  0.1349 -0.1430
  844MOL0     C11342   1.351  10.189   1.091 -0.3709  0.2708 -0.2213
  844MOL0     H11343   1.021  10.488   1.387  0.3041  0.3876  0.2502
  844MOL0     H11344   0.814  10.518   1.556 -0.1659 -1.4910  1.9575
  844MOL0     H11345   0.629  10.140   1.693  0.1000 -0.0877  1.1783
  844MOL0     H11346   0.529  10.158   1.543  2.3379  0.4542 -0.5584
  844MOL0     H11347   0.380  10.302   1.670  2.4980  1.7983 -2.6848
  844MOL0     H11348   0.479  10.310   1.807  1.4381 -3.0936  1.6364
  844MOL0     H11349   0.465  10.073   1.846 -0.5874 -0.9473 -2.0068
  844MOL0     H11350   0.348  10.058   1.706 -2.4856  0.4642 -0.5563
  844MOL0     H11351   0.300  10.238   1.958 -2.0416  2.3421 -0.9080
  844MOL0     H11352   0.203  10.216   1.812  0.2598 -0.5585 -0.8127
  844MOL0     H11353   0.100  10.117   1.988  0.6459  1.2781 -0.6379
  844MOL0     H11354   0.236  10.023   2.037  0.4745 -2.3477 -0.5643
  844MOL0     H11355   0.220   9.895   1.823 -1.1499  2.1809 -3.3758
  844MOL0     H11356   0.067   9.978   1.791  1.5034  2.5124 -0.9532
  844MOL0     H11357   0.127   9.788   2.029  1.1279 -1.1659 -1.3262
  844MOL0     H11358  -0.020   9.898   2.020  1.9913  0.7537  1.8457
  844MOL0     H11359  -0.017   9.653   1.949  1.2977 -0.5862  1.2504
  844MOL0     H11360   0.047   9.714   1.794 -1.9392 -0.5394 -0.6370
  844MOL0     H11361  -0.257   9.706   2.037  0.4344 -1.2195 -0.7908
  844MOL0     H11362  -0.564   9.880   1.861  0.1562 -0.9914 -2.2329
  844MOL0     H11363  -0.515   9.831   2.018  1.5514  0.2894 -0.6619
  844MOL0     H11364  -0.530   9.600   1.956  1.6883 -2.1325 -1.8881
  844MOL0     H11365  -0.561   9.641   1.789 -1.0591  2.5911 -0.0508
  844MOL0     H11366  -0.743   9.735   2.006  3.4413  2.2561 -0.8530
  844MOL0     H11367  -0.774   9.748   1.838 -0.8804  0.2272  1.3376
  844MOL0     H11368  -0.739   9.472   1.976 -1.7613 -2.5693 -0.5853
  844MOL0     H11369  -0.746   9.508   1.803  0.1801  0.3840  0.6258
  844MOL0     H11370  -1.159   9.554   2.005 -0.1080  0.7053 -1.5585
  844MOL0     H11371  -1.314   9.379   2.030  0.4407  3.4450 -1.6106
  844MOL0     H11372  -1.472   8.909   2.161 -0.8259 -1.2485  0.9974
  844MOL0     H11373  -1.708   8.820   2.180  0.8128 -2.3827 -2.9054
  844MOL0     H11374  -2.030   9.071   1.933 -1.5349  3.8083  2.9353
  844MOL0     H11375  -2.120   9.035   2.083 -3.4696 -3.8753 -2.1125
  844MOL0     H11376  -2.161   8.813   2.010  1.2688 -1.3725  0.3514
  844MOL0     H11377  -2.061   8.831   1.875 -0.3151  1.6098 -2.0693
  844MOL0     H11378  -2.206   9.000   1.767 -2.2536  0.9304 -0.6084
  844MOL0     H11379  -2.284   9.024   1.921  0.9451 -1.4036  1.9283
  844MOL0     H11380  -2.287   8.762   1.767  3.1802  3.7574 -3.6890
  844MOL0     H11381  -2.383   8.795   1.914  0.3159 -0.3511 -0.6944
  844MOL0     H11382  -2.504   8.988   1.765  1.5994  1.2559 -2.1000
  844MOL0     H11383  -2.541   8.819   1.726  1.0809 -0.7959 -2.5845
  844MOL0     H11384  -2.364   8.860   1.536  0.9812  0.0958  0.3766
  844MOL0     H11385  -2.363   9.026   1.596 -0.7493  1.0586  2.4612
  844MOL0     H11386  -2.575   8.851   1.461  0.9404 -0.6282  0.2009
  844MOL0     H11387  -2.636   8.961   1.587 -0.1307  0.0438 -0.8396
  844MOL0     H11388  -2.498   9.046   1.330 -1.1543 -3.2762 -0.1346
  844MOL0     H11389  -2.540   9.156   1.459  0.8290  1.3874 -3.1600
  844MOL0     H11390  -1.824   9.155   1.915 -1.3634 -2.9276 -1.0364
  844MOL0     H11391  -1.618   9.247   1.956 -0.1680  0.1914 -0.9233
  844MOL0     H11392  -1.005   9.094   1.967  0.1110  0.0277 -1.2947
  844MOL0     H11393  -0.850   9.272   1.909 -0.4612  0.3688 -1.2330
  844MOL0     H11394   0.720  10.107   1.463  1.5522 -1.5299 -1.5230
  844MOL0     H11395   0.943  10.086   1.360  1.2649  1.0739 -1.9254
  844MOL0     H11396   1.369  10.317   1.406 -3.6857 -0.8019 -0.3302
  844MOL0     H11397   1.603  10.375   1.320  0.2565  1.3700 -1.0274
  844MOL0     H11398   1.686  10.379   0.907 -0.4032  0.9963 -0.6550
  844MOL0     H11399   1.769  10.213   0.945  2.0003  0.1355  2.1481
  844MOL0     H11400   1.928  10.393   1.077  1.1784  0.7823 -0.3736
  844MOL0     H11401   1.945  10.380   0.897  1.9286  1.1540  1.2889
  844MOL0     H11402   1.804  10.591   1.043  0.9974  1.0105 -0.3567
  844MOL0     H11403   1.822  10.580   0.866 -1.0356  0.7090  0.7531
  844MOL0     H11404   2.054  10.623   1.064 -0.6485 -1.9120  0.2136
  844MOL0     H11405   2.077  10.565   0.910  2.2601  0.2307  3.1683
  844MOL0     H11406   1.979  10.981   0.873  2.9676  0.5488  0.4089
  844MOL0     H11407   1.519  10.188   0.954  0.7433  0.9674 -0.1339
  844MOL0     H11408   1.281  10.135   1.027 -0.6001  1.9165 -1.4460
  845MOL0     O11409   6.296   6.132  10.396 -0.8203  0.0385 -1.1908
  845MOL0     C11410   6.214   6.200  10.337 -1.0409  0.3762 -0.5281
  845MOL0     O11411   6.244   6.326  10.291 -0.1820 -0.1780 -0.7499
  845MOL0     C11412   6.351   6.380  10.346  0.6415 -0.0958  0.1800
  845MOL0     C11413   6.320   6.471  10.443  0.1872  0.1168  0.3334
  845MOL0     C11414   6.425   6.543  10.505  0.0202  0.3431 -0.8789
  845MOL0     C11415   6.556   6.528  10.450  0.2020 -0.5152 -0.7743
  845MOL0     O11416   6.671   6.613  10.486 -0.0869  0.0781  0.2340
  845MOL0     C11417   6.659   6.697  10.607  0.7907  0.8097 -0.1158
  845MOL0     C11418   6.741   6.823  10.584 -0.5898 -0.5126 -0.0084
  845MOL0     C11419   6.886   6.811  10.620 -0.0380 -0.6108  0.6676
  845MOL0     C11420   6.990   6.907  10.540 -0.0082 -0.8915 -0.4393
  845MOL0     C11421   7.133   6.882  10.572  0.8926  0.2006  1.2974
  845MOL0     C11422   7.183   6.914  10.712 -0.4864  0.0871  0.4172
  845MOL0     C11423   7.178   7.070  10.748 -0.6460  0.4982 -0.2926
  845MOL0     C11424   7.275   7.109  10.854 -0.0034 -0.4377  0.0579
  845MOL0     N11425   7.253   7.235  10.922  1.2277  1.1066  0.2421
  845MOL0     C11426   7.130   7.280  10.967  0.7559  0.4396  0.2980
  845MOL0     C11427   7.152   7.389  11.048 -1.3525 -0.0329 -0.7621
  845MOL0     C11428   7.048   7.480  11.118  0.2254 -0.5568 -0.3635
  845MOL0     C11429   7.112   7.555  11.236  0.1937 -0.5185  0.0795
  845MOL0     C11430   7.016   7.654  11.317 -0.0067  0.3158 -0.7179
  845MOL0     C11431   6.884   7.590  11.370  0.3310 -0.9545  1.2184
  845MOL0     O11432   6.902   7.454  11.412 -0.9580 -0.1222  0.4773
  845MOL0     C11433   6.785   7.386  11.440  0.9218  0.2059  0.5354
  845MOL0     C11434   6.656   7.439  11.482  0.1161 -1.5566  0.4194
  845MOL0     C11435   6.548   7.372  11.470  0.2995  0.6347  0.1142
  845MOL0     C11436   6.547   7.234  11.438 -1.1195  0.1652 -0.1570
  845MOL0     C11437   6.417   7.155  11.446  0.2553 -0.3468  0.2849
  845MOL0     O11438   6.428   7.032  11.405  0.1070  0.1357  0.5685
  845MOL0     C11439   6.316   6.972  11.340  0.2824  0.0171 -0.5144
  845MOL0     C11440   6.332   6.936  11.204 -0.3975 -0.0246  0.0085
  845MOL0     C11441   6.218   6.886  11.129  0.3068 -0.0164 -0.0102
  845MOL0     C11442   6.099   6.852  11.195 -0.6784  0.1312 -0.0372
  845MOL0     O11443   5.972   6.801  11.154 -0.8965 -0.3703 -0.0146
  845MOL0     C11444   5.956   6.804  11.017 -0.2868 -0.7187  0.2293
  845MOL0     C11445   5.816   6.751  10.971 -0.6511 -0.1515  1.0891
  845MOL0     C11446   5.697   6.840  11.011 -0.6637 -0.0348 -0.0440
  845MOL0     C11447   5.684   6.979  10.929 -0.8856 -0.6218  0.0146
  845MOL0     C11448   5.568   7.062  10.987  0.4118 -0.6111 -0.1493
  845MOL0     C11449   5.558   7.201  10.899 -0.8029 -0.3695 -0.8257
  845MOL0     C11450   5.656   7.300  10.948 -1.1149  1.0652 -0.0094
  845MOL0     C11451   5.653   7.426  10.868  0.7509 -0.0428  0.4672
  845MOL0    Cl11452   5.742   7.552  10.965  0.0231 -0.4198  0.2655
  845MOL0     C11453   6.093   6.892  11.331  0.1620  1.6740  0.1153
  845MOL0     C11454   6.196   6.948  11.402 -1.2406 -0.0949 -0.4060
  845MOL0     O11455   6.309   7.210  11.481 -0.2001  0.5309  0.0185
  845MOL0     C11456   6.664   7.176  11.396 -0.1223  0.1313  0.6827
  845MOL0     C11457   6.780   7.250  11.390 -1.0784  0.3012 -0.0852
  845MOL0     N11458   7.284   7.412  11.029  0.4829  0.1480  0.1179
  845MOL0     N11459   7.345   7.316  10.967 -0.9064  0.1825 -0.1920
  845MOL0     C11460   6.582   6.436  10.345  0.1015  0.2340  0.0343
  845MOL0     C11461   6.480   6.356  10.303 -0.6286  1.1410 -0.5768
  845MOL0     C11462   6.087   6.132  10.299 -0.9826  0.0317  0.7877
  845MOL0     C11463   6.053   6.002  10.329 -0.4797  0.6611 -0.4999
  845MOL0     C11464   5.930   5.944  10.315  0.0482 -0.1450  0.4413
  845MOL0     C11465   5.832   6.016  10.257  0.1362  0.2645 -0.0151
  845MOL0     O11466   5.712   5.946  10.226 -0.0938  0.6135 -0.4564
  845MOL0     C11467   5.597   6.004  10.169  0.5277 -0.0711 -0.3742
  845MOL0     C11468   5.519   5.928  10.059 -0.3799 -1.3048  0.3937
  845MOL0     C11469   5.465   5.803  10.118 -0.4149 -0.2667 -0.1333
  845MOL0     C11470   5.360   5.721  10.023  0.4076  0.5395  1.0193
  845MOL0     C11471   5.237   5.795  10.017 -1.0769  0.5490  0.6505
  845MOL0     C11472   5.125   5.834  10.016  0.2033  0.1134 -0.1939
  845MOL0     C11473   5.855   6.156  10.237  1.0236 -0.3303  0.0628
  845MOL0     C11474   5.975   6.210  10.266 -1.4035 -0.1961 -0.5803
  845MOL0     H11475   6.219   6.491  10.477  0.6681  2.2211  0.6763
  845MOL0     H11476   6.392   6.610  10.584  1.3896 -1.2950  1.1754
  845MOL0     H11477   6.692   6.651  10.700 -0.5150  0.8392  0.3705
  845MOL0     H11478   6.557   6.736  10.609  0.5320  0.1256  1.4728
  845MOL0     H11479   6.699   6.904  10.644 -2.0500 -0.9188 -0.4358
  845MOL0     H11480   6.727   6.851  10.479 -2.6062 -0.0168  0.3406
  845MOL0     H11481   6.920   6.707  10.623 -3.3622 -1.7742  1.6675
  845MOL0     H11482   6.901   6.845  10.723 -0.0539  2.5188 -0.2411
  845MOL0     H11483   6.981   6.885  10.433  1.3460  1.4233 -1.0999
  845MOL0     H11484   6.967   7.011  10.564  1.8061 -1.3956  4.8961
  845MOL0     H11485   7.195   6.936  10.500  0.5341 -1.0220  0.0424
  845MOL0     H11486   7.154   6.777  10.548 -2.0863 -0.1225 -0.2382
  845MOL0     H11487   7.288   6.888  10.729 -1.2075 -2.2966  1.6628
  845MOL0     H11488   7.124   6.859  10.786  2.5385 -1.7383  1.6672
  845MOL0     H11489   7.188   7.133  10.659  2.9463  0.8895  0.2662
  845MOL0     H11490   7.075   7.082  10.784 -0.4709  1.4123 -0.0891
  845MOL0     H11491   7.375   7.122  10.813  0.6807  0.5933  1.9196
  845MOL0     H11492   7.285   7.027  10.926  1.0120 -1.0013 -0.6929
  845MOL0     H11493   7.036   7.246  10.925  0.7529  0.8496 -0.0353
  845MOL0     H11494   6.965   7.415  11.145  1.9477 -1.8654  2.1929
  845MOL0     H11495   7.015   7.548  11.038  1.9432 -1.3548 -1.8199
  845MOL0     H11496   7.193   7.614  11.192 -0.6238 -0.3034 -1.1804
  845MOL0     H11497   7.153   7.473  11.296 -1.4385 -0.7514  0.9321
  845MOL0     H11498   7.063   7.696  11.406 -0.9902  3.7068 -1.6404
  845MOL0     H11499   6.992   7.736  11.248 -2.3053 -0.4564 -0.9300
  845MOL0     H11500   6.806   7.594  11.293  1.6665  4.3106 -0.3118
  845MOL0     H11501   6.852   7.641  11.461 -0.5393 -1.1637  1.0372
  845MOL0     H11502   6.648   7.547  11.488 -2.0680 -1.3528 -3.1601
  845MOL0     H11503   6.448   7.404  11.495 -0.4239  0.0547 -1.8525
  845MOL0     H11504   6.428   6.936  11.153  0.1450 -0.2119  1.0021
  845MOL0     H11505   6.214   6.869  11.022 -1.8944 -1.7678  0.2819
  845MOL0     H11506   6.036   6.741  10.979  0.5598 -0.6382  1.7879
  845MOL0     H11507   5.982   6.899  10.969  0.6943 -1.0185  0.1372
  845MOL0     H11508   5.798   6.656  11.021 -1.8433 -1.5350 -1.7529
  845MOL0     H11509   5.805   6.730  10.864  1.4100  0.0240  0.8012
  845MOL0     H11510   5.718   6.866  11.115 -0.0336  1.7109 -0.5737
  845MOL0     H11511   5.602   6.787  11.008 -0.5243 -0.4035  1.3169
  845MOL0     H11512   5.775   7.035  10.950 -2.9082  1.5223  4.3803
  845MOL0     H11513   5.669   6.962  10.822  1.3796 -0.0117 -0.4506
  845MOL0     H11514   5.590   7.080  11.093 -0.0345  3.2162 -0.5705
  845MOL0     H11515   5.475   7.004  10.982  0.4710 -0.7881  0.6866
  845MOL0     H11516   5.458   7.235  10.926 -1.5723 -3.1473  0.1862
  845MOL0     H11517   5.571   7.184  10.792 -0.2546  0.4734 -0.9065
  845MOL0     H11518   5.625   7.323  11.050 -4.1895 -4.1846  0.5918
  845MOL0     H11519   5.758   7.263  10.953 -1.2972  0.7406  1.6463
  845MOL0     H11520   5.550   7.461  10.851  0.7339 -1.0286 -1.7477
  845MOL0     H11521   5.698   7.408  10.770 -0.1143 -2.2845  0.4286
  845MOL0     H11522   6.003   6.875  11.389  0.8774 -1.3859  0.4599
  845MOL0     H11523   6.183   6.968  11.508 -2.2255 -2.0627 -0.1151
  845MOL0     H11524   6.671   7.073  11.361 -1.3323  0.6073 -1.0835
  845MOL0     H11525   6.868   7.198  11.354  0.5946  0.8725  2.8854
  845MOL0     H11526   6.678   6.433  10.295 -0.4608  1.8472 -1.2457
  845MOL0     H11527   6.521   6.283  10.234  1.3621  0.1220  1.5430
  845MOL0     H11528   6.139   5.938  10.347 -0.0043  0.4385 -3.1838
  845MOL0     H11529   5.908   5.838  10.322 -3.7438  0.5903  1.9356
  845MOL0     H11530   5.627   6.097  10.120 -0.6146  2.0660  2.6727
  845MOL0     H11531   5.528   6.042  10.244  1.8702  0.2230  0.7393
  845MOL0     H11532   5.434   5.996  10.046 -1.3768 -2.2150  1.7870
  845MOL0     H11533   5.577   5.916   9.967  1.0511  0.6210  0.9709
  845MOL0     H11534   5.416   5.839  10.209 -0.7239  1.9968 -1.1322
  845MOL0     H11535   5.557   5.750  10.144 -0.2414  0.3384  0.5267
  845MOL0     H11536   5.413   5.709   9.928  2.7768 -1.3757  2.4687
  845MOL0     H11537   5.336   5.618  10.048  0.4940  0.3123  0.2077
  845MOL0     H11538   5.032   5.875  10.051  2.1406  1.4374  3.9664
  845MOL0     H11539   5.772   6.223  10.217  0.4382 -1.0420  0.0325
  845MOL0     H11540   5.992   6.317  10.252  3.0591 -0.9957 -3.5443
  846MOL0     O11541   3.560   8.101  10.574  0.2770 -0.6317 -0.0642
  846MOL0     C11542   3.678   8.129  10.556  0.5083  0.2080 -0.5707
  846MOL0     O11543   3.747   8.100  10.445 -0.5989 -0.3908 -0.4411
  846MOL0     C11544   3.702   8.018  10.348  1.1328 -0.6706 -1.0383
  846MOL0     C11545   3.587   8.050  10.271 -0.6448  0.2872 -0.9577
  846MOL0     C11546   3.556   7.945  10.175  0.6447  0.3107  0.2144
  846MOL0     C11547   3.626   7.827  10.161  0.6166  0.4614  0.2142
  846MOL0     O11548   3.597   7.731  10.064  0.6453 -0.6027  0.1860
  846MOL0     C11549   3.594   7.786   9.937  0.2481 -0.7032 -0.0578
  846MOL0     C11550   3.483   7.741   9.843 -0.1089  0.1327 -0.7357
  846MOL0     C11551   3.353   7.817   9.873  0.3378  0.4087  0.6762
  846MOL0     C11552   3.240   7.771   9.776 -0.4744 -0.1748  0.8174
  846MOL0     C11553   3.111   7.819   9.831  1.0242  0.3595  0.4157
  846MOL0     C11554   2.996   7.805   9.720 -0.2290 -0.6299  1.2383
  846MOL0     C11555   2.979   7.654   9.691 -0.1343  0.1763 -0.0877
  846MOL0     C11556   2.851   7.628   9.617  1.1064 -0.6721  1.0960
  846MOL0     N11557   2.844   7.687   9.482  0.7172 -0.9386  0.1512
  846MOL0     C11558   2.749   7.778   9.437  0.2278  0.0146  0.4225
  846MOL0     C11559   2.735   7.760   9.308  0.1305 -0.1718  0.5908
  846MOL0     C11560   2.626   7.816   9.217 -0.2647 -0.1834  0.0868
  846MOL0     C11561   2.685   7.950   9.156 -0.2093 -0.4210 -0.4355
  846MOL0     C11562   2.784   7.924   9.043  0.0632  0.3137  0.2843
  846MOL0     C11563   2.803   8.036   8.927  0.4625  0.0932 -0.1135
  846MOL0     O11564   2.919   8.006   8.844  0.5186 -1.0760  0.6656
  846MOL0     C11565   3.048   8.033   8.887 -0.2109  0.2377 -0.7984
  846MOL0     C11566   3.160   7.996   8.809 -0.7198 -0.7947 -0.2039
  846MOL0     C11567   3.295   8.023   8.837  0.4083  0.4374 -0.4869
  846MOL0     C11568   3.332   8.083   8.957 -0.1316 -0.5741  0.5165
  846MOL0     C11569   3.479   8.119   8.988  1.9638 -0.1531 -0.4683
  846MOL0     O11570   3.510   8.156   9.117  0.3176 -0.0108 -0.3077
  846MOL0     C11571   3.639   8.176   9.162  0.0427 -0.1166  0.9637
  846MOL0     C11572   3.638   8.177   9.299  0.2407  0.3302  0.4310
  846MOL0     C11573   3.760   8.203   9.363  0.6449 -0.3696 -0.5067
  846MOL0     C11574   3.883   8.228   9.295  0.8568  0.3311  0.0457
  846MOL0     O11575   3.999   8.258   9.343 -0.3392 -0.6809  0.5973
  846MOL0     C11576   4.047   8.180   9.455  0.3072 -0.8740  0.0913
  846MOL0     C11577   4.188   8.230   9.501  0.2888 -0.4817  1.1108
  846MOL0     C11578   4.300   8.239   9.391  1.0987  1.0215  0.3050
  846MOL0     C11579   4.332   8.096   9.334 -0.6121  0.0583  0.2662
  846MOL0     C11580   4.421   8.095   9.224 -0.3380  0.4673 -0.4433
  846MOL0     C11581   4.364   8.135   9.091  1.3557 -0.0201 -0.2899
  846MOL0     C11582   4.474   8.101   8.986  0.7705  0.4953 -0.3771
  846MOL0     C11583   4.411   8.142   8.846 -0.5211 -1.1929  0.3999
  846MOL0    Cl11584   4.424   8.322   8.855 -0.3368  0.3322 -0.0703
  846MOL0     C11585   3.870   8.235   9.158 -0.1551 -0.3933 -0.6590
  846MOL0     C11586   3.759   8.212   9.086  0.2433 -0.2093  0.5252
  846MOL0     O11587   3.553   8.107   8.895  0.4623 -0.3880 -1.0726
  846MOL0     C11588   3.225   8.112   9.048 -0.3721 -0.8556 -0.6686
  846MOL0     C11589   3.088   8.095   9.011 -0.5485 -0.3375 -1.7177
  846MOL0     N11590   2.842   7.682   9.266 -0.3626 -0.4631 -0.2251
  846MOL0     N11591   2.904   7.641   9.370 -1.0799  0.0897  0.3690
  846MOL0     C11592   3.730   7.804  10.255  0.0436 -0.0116  0.6757
  846MOL0     C11593   3.779   7.910  10.345 -0.2552  1.7313 -0.4288
  846MOL0     C11594   3.750   8.199  10.666 -0.4001 -0.1834 -0.6419
  846MOL0     C11595   3.890   8.193  10.672 -0.1849 -0.3112  0.0871
  846MOL0     C11596   3.966   8.260  10.780 -0.6556 -0.3021  1.1866
  846MOL0     C11597   3.903   8.326  10.884  0.6395  0.2838  0.5373
  846MOL0     O11598   3.970   8.365  10.998  0.8108 -0.8631  0.0429
  846MOL0     C11599   4.037   8.266  11.070 -0.6137 -0.4853 -0.8822
  846MOL0     C11600   4.171   8.335  11.119  0.1914  1.5331 -0.6633
  846MOL0     C11601   4.278   8.372  11.020 -0.0399 -0.3033  0.4516
  846MOL0     C11602   4.257   8.504  10.942 -0.0609 -0.5348  0.1046
  846MOL0     C11603   4.238   8.621  11.022  0.3253  0.6212 -1.0697
  846MOL0     C11604   4.242   8.722  11.091  0.0513 -0.9592 -0.1579
  846MOL0     C11605   3.769   8.339  10.866 -0.2649 -0.1289  0.0493
  846MOL0     C11606   3.686   8.283  10.762 -0.1969  0.2034 -0.0310
  846MOL0     H11607   3.526   8.139  10.285  0.3204  0.6021  1.7712
  846MOL0     H11608   3.470   7.968  10.113 -0.5922  1.7984  2.3419
  846MOL0     H11609   3.683   7.741   9.891  0.1210 -1.6387  0.5814
  846MOL0     H11610   3.598   7.895   9.940  1.2647 -0.7294 -0.0416
  846MOL0     H11611   3.468   7.633   9.854 -0.8520  0.1662 -1.3092
  846MOL0     H11612   3.517   7.778   9.746 -0.3331  2.6789  0.0835
  846MOL0     H11613   3.368   7.925   9.866 -0.7238  0.7989  3.3828
  846MOL0     H11614   3.318   7.812   9.976 -0.0657  3.0841  0.7450
  846MOL0     H11615   3.244   7.837   9.688  1.5514  4.9003  4.2453
  846MOL0     H11616   3.251   7.664   9.759  1.0990  0.1643 -0.6197
  846MOL0     H11617   3.116   7.927   9.847 -2.2475  1.4256 -3.8254
  846MOL0     H11618   3.082   7.782   9.930 -1.0484 -1.8774 -0.9070
  846MOL0     H11619   3.010   7.874   9.637 -3.5170  1.0895  1.9310
  846MOL0     H11620   2.905   7.844   9.766  1.1252  1.1760  2.5377
  846MOL0     H11621   3.061   7.608   9.635  1.5259 -0.9078  3.0033
  846MOL0     H11622   2.975   7.614   9.792 -0.9239  1.2991  0.3460
  846MOL0     H11623   2.765   7.667   9.673  0.4632 -2.6988  1.5897
  846MOL0     H11624   2.848   7.520   9.603  2.2560 -0.4106 -1.9681
  846MOL0     H11625   2.679   7.840   9.494 -3.3636 -1.7817 -1.6368
  846MOL0     H11626   2.535   7.841   9.273 -0.1426 -0.4017  0.3816
  846MOL0     H11627   2.595   7.762   9.128 -0.1928 -0.4469  0.2216
  846MOL0     H11628   2.724   8.018   9.232 -0.7510 -2.3562  1.6803
  846MOL0     H11629   2.602   7.994   9.100  1.3884  0.1675 -2.4779
  846MOL0     H11630   2.880   7.893   9.085  2.4779  3.8552 -2.0211
  846MOL0     H11631   2.739   7.837   8.996 -1.1580  1.5080 -0.8506
  846MOL0     H11632   2.800   8.140   8.961 -4.7966  1.0388 -2.5174
  846MOL0     H11633   2.713   8.029   8.865  1.1615  0.4307 -1.2049
  846MOL0     H11634   3.128   7.941   8.721  3.2991 -3.1164 -0.4367
  846MOL0     H11635   3.361   7.993   8.756 -1.0630  0.8276 -1.8906
  846MOL0     H11636   3.552   8.165   9.363 -2.6762 -0.1341 -3.2191
  846MOL0     H11637   3.765   8.175   9.468  2.6461  1.1978 -0.1101
  846MOL0     H11638   4.041   8.071   9.443  0.0747 -0.9764  1.0615
  846MOL0     H11639   3.980   8.192   9.541 -2.1670 -3.4502 -1.2763
  846MOL0     H11640   4.214   8.164   9.584  0.5935 -1.2667  0.4041
  846MOL0     H11641   4.171   8.330   9.541 -2.1018 -1.6073  3.1598
  846MOL0     H11642   4.383   8.295   9.435  2.3186 -0.1126 -0.4641
  846MOL0     H11643   4.269   8.300   9.306  2.1746  1.8736  0.5112
  846MOL0     H11644   4.377   8.043   9.419  2.6070 -0.1382 -1.4070
  846MOL0     H11645   4.250   8.033   9.297  1.5269 -1.9526 -1.3691
  846MOL0     H11646   4.457   7.994   9.204 -1.9791  0.1195 -1.9707
  846MOL0     H11647   4.512   8.150   9.250  0.4375 -2.0673  2.9807
  846MOL0     H11648   4.327   8.238   9.087 -1.3927 -0.7297  2.8195
  846MOL0     H11649   4.269   8.089   9.062  1.3850 -0.9703  1.0572
  846MOL0     H11650   4.556   8.171   9.007 -0.8886  1.9590  1.6848
  846MOL0     H11651   4.512   7.999   8.983  1.6137  0.8013 -3.4500
  846MOL0     H11652   4.303   8.125   8.838 -1.2150  1.9124  1.6993
  846MOL0     H11653   4.460   8.088   8.764 -0.1797 -5.3283  2.9953
  846MOL0     H11654   3.957   8.250   9.095  0.3480  0.9126  0.2902
  846MOL0     H11655   3.748   8.215   8.978 -2.6855 -1.1611  0.7210
  846MOL0     H11656   3.245   8.140   9.151 -1.0697 -2.4965 -0.0494
  846MOL0     H11657   3.011   8.128   9.080  0.1981  0.1312 -1.0936
  846MOL0     H11658   3.779   7.708  10.258  0.6469  0.2646 -0.1129
  846MOL0     H11659   3.862   7.891  10.412  0.2273 -1.5458 -1.7623
  846MOL0     H11660   3.931   8.128  10.596  1.1330 -0.7085  1.1049
  846MOL0     H11661   4.072   8.247  10.803 -0.1716  1.1753 -0.0826
  846MOL0     H11662   4.075   8.182  11.012  2.3732 -1.4509  2.1203
  846MOL0     H11663   3.973   8.220  11.147 -0.3574 -0.6288 -0.7534
  846MOL0     H11664   4.152   8.410  11.196 -1.1446  1.8073 -1.2402
  846MOL0     H11665   4.224   8.263  11.182  1.0275  3.5457  1.0535
  846MOL0     H11666   4.297   8.288  10.951 -0.2248 -0.5488  0.6959
  846MOL0     H11667   4.370   8.384  11.077 -0.3252  1.0370  0.6606
  846MOL0     H11668   4.341   8.512  10.873  0.8466 -1.0809  1.1092
  846MOL0     H11669   4.166   8.480  10.886 -0.3108 -8.5826  2.5736
  846MOL0     H11670   4.214   8.819  11.127  0.5563 -0.5761 -0.7613
  846MOL0     H11671   3.723   8.389  10.950 -0.7630  2.0794 -1.4661
  846MOL0     H11672   3.578   8.291  10.767 -0.4791 -2.9611  2.4619
  847MOL0     O11673   4.592  10.951   3.104 -0.2518  0.3898 -0.6597
  847MOL0     C11674   4.523  11.052   3.084 -0.4828 -1.5068  1.1178
  847MOL0     O11675   4.485  11.100   2.960  0.4431  0.3179  0.3368
  847MOL0     C11676   4.527  11.028   2.847  0.1109  0.4802 -0.1728
  847MOL0     C11677   4.430  11.002   2.749  0.3191 -0.4693  0.5763
  847MOL0     C11678   4.469  10.951   2.623 -0.7777 -0.0042 -0.7407
  847MOL0     C11679   4.597  10.906   2.601  0.0017 -0.7992  0.6685
  847MOL0     O11680   4.644  10.828   2.489 -0.2503 -0.7452 -0.8393
  847MOL0     C11681   4.559  10.765   2.389 -0.0873 -0.0036 -0.0827
  847MOL0     C11682   4.511  10.638   2.451 -0.6005  0.0717 -0.6010
  847MOL0     C11683   4.387  10.584   2.388 -0.2226 -0.0319  0.4553
  847MOL0     C11684   4.253  10.661   2.409  0.3252 -1.0187 -0.2239
  847MOL0     C11685   4.143  10.614   2.316  1.8136  0.0734  0.7808
  847MOL0     C11686   4.092  10.474   2.364  0.6061 -0.1364 -0.3750
  847MOL0     C11687   3.969  10.430   2.283  0.1623 -0.3119 -0.0896
  847MOL0     C11688   3.903  10.317   2.351 -0.2914  1.1978  0.3761
  847MOL0     N11689   3.794  10.261   2.273  0.1211 -0.6825 -0.6326
  847MOL0     C11690   3.795  10.230   2.141  0.2755  0.0265  0.1486
  847MOL0     C11691   3.671  10.170   2.120  0.5858 -0.1607 -0.3913
  847MOL0     C11692   3.637  10.091   1.996  0.5359 -0.4044 -0.4253
  847MOL0     C11693   3.598   9.950   2.031  0.2973 -0.1740 -0.4443
  847MOL0     C11694   3.698   9.866   2.121 -0.4836  0.1385 -0.0564
  847MOL0     C11695   3.627   9.733   2.173 -0.1246  0.0614 -0.9597
  847MOL0     O11696   3.704   9.652   2.273 -0.8803 -0.8243  0.3137
  847MOL0     C11697   3.654   9.536   2.307 -0.9743  0.6043 -0.0296
  847MOL0     C11698   3.630   9.498   2.443  1.2355 -0.7223  0.1490
  847MOL0     C11699   3.573   9.380   2.482  0.1078  0.6020 -0.6176
  847MOL0     C11700   3.553   9.280   2.384  0.4784 -0.6519 -0.5024
  847MOL0     C11701   3.493   9.147   2.415  0.0197 -0.8592 -0.7268
  847MOL0     O11702   3.533   9.101   2.536  0.0157  0.5096  0.1458
  847MOL0     C11703   3.482   8.986   2.589  1.1111  0.0291 -0.0891
  847MOL0     C11704   3.555   8.873   2.606  0.0867 -0.8064 -0.5538
  847MOL0     C11705   3.505   8.755   2.657  0.4201  0.3286  0.5533
  847MOL0     C11706   3.379   8.745   2.700  1.3401 -0.4368 -0.4137
  847MOL0     O11707   3.322   8.622   2.742 -0.0586  0.3410  0.3751
  847MOL0     C11708   3.197   8.579   2.694 -0.0938  0.4378  0.5569
  847MOL0     C11709   3.202   8.528   2.546  0.1925  0.3572  0.2707
  847MOL0     C11710   3.060   8.514   2.485  0.1461  0.4818  0.2287
  847MOL0     C11711   2.969   8.414   2.567 -0.7597 -0.0068 -0.1954
  847MOL0     C11712   2.844   8.363   2.482 -0.3379 -0.4164  0.5945
  847MOL0     C11713   2.864   8.326   2.338 -0.2192 -0.5497  0.7750
  847MOL0     C11714   2.730   8.264   2.289 -0.7164  0.1626 -0.1144
  847MOL0     C11715   2.763   8.220   2.147 -0.4369  0.4583 -0.0434
  847MOL0    Cl11716   2.619   8.134   2.077  0.0071 -0.1560 -0.3527
  847MOL0     C11717   3.290   8.863   2.679 -0.5294 -0.0068  0.2699
  847MOL0     C11718   3.345   8.981   2.622 -0.3929  0.2226 -0.4673
  847MOL0     O11719   3.418   9.093   2.330  0.0611 -0.4815  0.0100
  847MOL0     C11720   3.577   9.312   2.252  0.1342  0.0597 -0.1088
  847MOL0     C11721   3.629   9.434   2.214 -0.3822 -0.1558  0.1949
  847MOL0     N11722   3.602  10.170   2.240 -0.8303  0.6542  0.1994
  847MOL0     N11723   3.677  10.225   2.328  0.2075  0.2097  0.6673
  847MOL0     C11724   4.696  10.934   2.692  0.0385 -0.9647  0.4349
  847MOL0     C11725   4.662  11.000   2.818 -0.7576 -0.3805 -0.1595
  847MOL0     C11726   4.497  11.144   3.202 -0.8474  1.0066  0.3644
  847MOL0     C11727   4.407  11.252   3.188  1.1704  0.7807 -0.0961
  847MOL0     C11728   4.393  11.351   3.287 -1.4320 -0.2425 -0.4864
  847MOL0     C11729   4.467  11.348   3.406  0.8437  0.3981  0.2893
  847MOL0     O11730   4.436  11.439   3.510 -0.1459  0.0171  0.3354
  847MOL0     C11731   4.547  11.490   3.588  0.2157  0.1102 -0.6836
  847MOL0     C11732   4.573  11.645   3.554 -0.0895  0.9402  0.5238
  847MOL0     C11733   4.658  11.670   3.425 -0.4901 -0.8855  0.0125
  847MOL0     C11734   4.689  11.814   3.386 -0.2869  0.2303  0.4278
  847MOL0     C11735   4.833  11.844   3.410 -0.1598  0.5970  0.7393
  847MOL0     C11736   4.949  11.861   3.445  0.8931 -1.2264 -0.1185
  847MOL0     C11737   4.537  11.224   3.425 -0.6260  0.0580  0.5872
  847MOL0     C11738   4.562  11.129   3.322  0.6287 -0.3511 -1.1595
  847MOL0     H11739   4.328  11.038   2.757  0.8955  1.3597  0.3272
  847MOL0     H11740   4.396  10.946   2.543 -1.3453  0.6257 -0.2779
  847MOL0     H11741   4.609  10.737   2.296 -1.1331 -1.6005 -0.2106
  847MOL0     H11742   4.482  10.839   2.363 -0.1547  0.1597  0.5726
  847MOL0     H11743   4.488  10.649   2.557  4.9065  0.1322  0.8451
  847MOL0     H11744   4.591  10.566   2.435  0.0147  0.5419  0.3003
  847MOL0     H11745   4.389  10.477   2.412 -1.0371 -0.5564 -1.6041
  847MOL0     H11746   4.409  10.583   2.280 -1.7243 -1.9267  0.1154
  847MOL0     H11747   4.212  10.655   2.511 -2.9782 -1.7886 -1.4962
  847MOL0     H11748   4.265  10.767   2.387  0.3194 -1.1181 -0.7208
  847MOL0     H11749   4.168  10.610   2.209 -0.2379  0.9118  0.2166
  847MOL0     H11750   4.070  10.696   2.318  0.2882 -0.9304 -3.3310
  847MOL0     H11751   4.077  10.465   2.472  2.1431  1.0327 -0.0285
  847MOL0     H11752   4.163  10.391   2.352 -0.7230 -1.9687  3.1291
  847MOL0     H11753   3.905  10.519   2.280  2.1574  1.2310  0.3579
  847MOL0     H11754   4.011  10.405   2.185  3.7576 -3.1885  1.8919
  847MOL0     H11755   3.873  10.354   2.449 -1.5066  1.1146  0.0451
  847MOL0     H11756   3.977  10.237   2.367  1.0061  2.4953  1.0898
  847MOL0     H11757   3.887  10.237   2.084  0.9049 -1.7296  0.8789
  847MOL0     H11758   3.715  10.098   1.920 -0.5856 -0.6113 -1.6259
  847MOL0     H11759   3.548  10.136   1.952  0.7158  1.6842  1.1922
  847MOL0     H11760   3.583   9.896   1.937 -0.7158  1.0120 -0.9886
  847MOL0     H11761   3.511   9.951   2.097 -1.4350  3.7015 -2.4834
  847MOL0     H11762   3.783   9.846   2.055 -1.0862  1.9074 -1.4685
  847MOL0     H11763   3.737   9.927   2.202  1.1712  2.2133 -2.2504
  847MOL0     H11764   3.593   9.686   2.081 -0.7714 -0.8996 -0.2496
  847MOL0     H11765   3.529   9.753   2.217  0.0742  2.5922 -1.5161
  847MOL0     H11766   3.646   9.562   2.530  2.1027 -1.7824  0.7945
  847MOL0     H11767   3.540   9.372   2.585  0.8734  2.0148 -0.2400
  847MOL0     H11768   3.657   8.885   2.572 -0.2965 -1.1122 -1.8566
  847MOL0     H11769   3.570   8.670   2.670  0.0617 -0.2540 -1.1692
  847MOL0     H11770   3.118   8.655   2.698  0.9237  1.5355  0.6026
  847MOL0     H11771   3.177   8.492   2.756  2.8502 -1.7237 -1.2661
  847MOL0     H11772   3.255   8.433   2.541 -0.8889 -0.2210 -0.6966
  847MOL0     H11773   3.251   8.601   2.481  2.8071 -4.4937 -4.0034
  847MOL0     H11774   3.058   8.486   2.379 -3.0845 -0.9573  0.5493
  847MOL0     H11775   3.013   8.612   2.488 -0.5616  0.2012 -0.9658
  847MOL0     H11776   3.029   8.324   2.586  1.1730  1.4026  0.7303
  847MOL0     H11777   2.946   8.449   2.668  0.4260 -2.0971  0.8749
  847MOL0     H11778   2.773   8.447   2.486 -0.4058 -0.4863  1.0023
  847MOL0     H11779   2.795   8.276   2.528 -0.8047 -0.4111  0.1147
  847MOL0     H11780   2.942   8.251   2.327  2.1313  1.5358  2.2246
  847MOL0     H11781   2.884   8.422   2.289 -3.0135 -0.6438 -0.7754
  847MOL0     H11782   2.697   8.178   2.348  0.8865 -1.3826 -1.3659
  847MOL0     H11783   2.657   8.346   2.288 -0.4545  0.4050 -1.7447
  847MOL0     H11784   2.846   8.150   2.138 -1.4131 -0.9076  1.1589
  847MOL0     H11785   2.783   8.316   2.098  1.2660  1.8179  3.0006
  847MOL0     H11786   3.183   8.854   2.693 -0.6462  0.8351 -0.0025
  847MOL0     H11787   3.280   9.067   2.604  0.7331  0.8312 -1.8940
  847MOL0     H11788   3.553   9.235   2.180 -0.5079  1.6877 -1.7322
  847MOL0     H11789   3.628   9.452   2.107 -1.8794  1.5288  0.4587
  847MOL0     H11790   4.796  10.899   2.668 -0.4794 -2.1277 -0.1180
  847MOL0     H11791   4.734  11.029   2.894 -1.4054  0.9194 -0.0123
  847MOL0     H11792   4.355  11.251   3.092 -1.3582 -1.2768  1.1583
  847MOL0     H11793   4.329  11.437   3.273  2.2732  2.7516 -0.4975
  847MOL0     H11794   4.638  11.435   3.566 -1.9965 -2.9024 -3.3151
  847MOL0     H11795   4.530  11.478   3.695  0.1401 -2.4506 -0.9280
  847MOL0     H11796   4.480  11.701   3.557 -1.3429 -0.8502 -1.7528
  847MOL0     H11797   4.643  11.690   3.625  1.6309 -0.6128 -0.0918
  847MOL0     H11798   4.616  11.612   3.342 -2.4649  0.8281 -0.2597
  847MOL0     H11799   4.751  11.624   3.459 -0.5679 -1.8782 -1.0376
  847MOL0     H11800   4.663  11.817   3.279  0.0483  0.9159  0.3600
  847MOL0     H11801   4.623  11.882   3.440  1.7204  0.7160  2.4036
  847MOL0     H11802   5.053  11.888   3.454  1.3314 -1.8604 -2.5892
  847MOL0     H11803   4.589  11.193   3.516  1.4554  1.7859  0.0797
  847MOL0     H11804   4.622  11.041   3.346 -1.2485 -1.0656  1.4173
  848MOL0     O11805   8.426   2.411   3.547  0.0483  0.0365 -0.1718
  848MOL0     C11806   8.375   2.514   3.582 -0.4210 -0.3494 -0.5714
  848MOL0     O11807   8.450   2.622   3.613 -0.4064  0.5507 -0.5059
  848MOL0     C11808   8.592   2.611   3.603  0.2572 -0.9416 -0.4239
  848MOL0     C11809   8.670   2.531   3.677 -0.3792 -0.0793 -0.1009
  848MOL0     C11810   8.805   2.520   3.656 -0.0585 -0.6109  0.7761
  848MOL0     C11811   8.870   2.592   3.551  0.5466 -0.0767 -0.8049
  848MOL0     O11812   9.008   2.600   3.530  0.1871 -0.7573  0.8893
  848MOL0     C11813   9.076   2.707   3.456 -0.2112 -0.4755  0.2136
  848MOL0     C11814   9.214   2.654   3.397 -1.2485  0.2137 -0.9875
  848MOL0     C11815   9.205   2.514   3.337  0.5745  0.2573 -0.2555
  848MOL0     C11816   9.334   2.461   3.272 -0.2294  0.4697 -0.2378
  848MOL0     C11817   9.361   2.503   3.129  0.4797  0.2895  0.4586
  848MOL0     C11818   9.468   2.420   3.048 -0.0923  0.0801 -0.5115
  848MOL0     C11819   9.613   2.424   3.090 -0.3814 -0.8912 -0.0701
  848MOL0     C11820   9.677   2.563   3.098  0.2629 -0.2131 -0.1143
  848MOL0     N11821   9.825   2.566   3.106 -0.0619  0.8235 -1.0028
  848MOL0     C11822   9.912   2.631   3.018 -0.6521 -0.2373  0.0732
  848MOL0     C11823  10.024   2.563   3.038  0.1003 -0.7997  0.6893
  848MOL0     C11824  10.147   2.596   2.957 -0.5491  0.1962  0.5404
  848MOL0     C11825  10.197   2.742   2.996 -0.2103 -1.2712 -0.2216
  848MOL0     C11826  10.304   2.797   2.898 -1.1853 -0.1366  0.2149
  848MOL0     C11827  10.376   2.933   2.948 -0.5498  0.9855  0.2697
  848MOL0     O11828  10.301   3.044   2.923  0.4557  0.2939  0.3317
  848MOL0     C11829  10.342   3.172   2.947 -0.5226  0.1164 -0.5402
  848MOL0     C11830  10.436   3.197   3.039 -0.3593  0.5523  0.2119
  848MOL0     C11831  10.487   3.330   3.059 -0.3705 -0.0020 -0.1893
  848MOL0     C11832  10.442   3.431   2.969  0.5735  0.4682 -0.4966
  848MOL0     C11833  10.488   3.574   2.966 -0.1331 -0.4400 -1.0126
  848MOL0     O11834  10.417   3.661   2.895  0.1458  0.1408  0.3362
  848MOL0     C11835  10.455   3.792   2.892  0.0897 -0.1527 -0.5631
  848MOL0     C11836  10.543   3.843   2.793 -0.3505  0.4189  0.4566
  848MOL0     C11837  10.599   3.969   2.806 -0.4915  1.4665 -0.6355
  848MOL0     C11838  10.561   4.049   2.919 -0.8733  0.6802  0.1347
  848MOL0     O11839  10.600   4.173   2.938 -0.1697  0.6400 -0.3636
  848MOL0     C11840  10.671   4.238   2.831  0.3622 -0.1220 -0.0190
  848MOL0     C11841  10.714   4.370   2.867 -0.6936  0.2757 -0.0043
  848MOL0     C11842  10.824   4.353   2.974  0.6409 -0.0756  0.2913
  848MOL0     C11843  10.877   4.492   3.025 -0.6351 -0.5935 -0.0547
  848MOL0     C11844  10.960   4.562   2.924 -0.2715 -0.1401 -0.2139
  848MOL0     C11845  11.003   4.699   2.964 -0.1807 -0.5366 -0.2449
  848MOL0     C11846  11.104   4.705   3.069  0.4485 -0.4085 -0.2852
  848MOL0     C11847  11.120   4.851   3.112 -0.0047 -0.0185 -0.9363
  848MOL0    Cl11848  11.226   4.925   2.989  0.4233  0.3383  0.1048
  848MOL0     C11849  10.471   3.994   3.014  0.0325 -0.7299  0.5601
  848MOL0     C11850  10.416   3.872   3.003  0.5051 -0.1392 -0.3166
  848MOL0     O11851  10.588   3.595   3.046 -0.1009  0.1795 -0.2965
  848MOL0     C11852  10.331   3.399   2.881 -0.1320  0.1507 -0.0148
  848MOL0     C11853  10.283   3.267   2.869  0.1045 -0.4355 -0.1903
  848MOL0     N11854  10.013   2.465   3.134  0.0761 -0.8294  0.6239
  848MOL0     N11855   9.900   2.481   3.185 -0.3999  0.2607  0.5150
  848MOL0     C11856   8.785   2.678   3.481 -0.9571 -0.2970  0.3306
  848MOL0     C11857   8.658   2.690   3.512 -0.4695  0.9943 -0.1814
  848MOL0     C11858   8.220   2.525   3.583 -0.0599 -0.5813 -0.8553
  848MOL0     C11859   8.166   2.618   3.665  0.4445 -0.3942  0.1659
  848MOL0     C11860   8.032   2.656   3.663  0.2957  0.7391 -0.6454
  848MOL0     C11861   7.952   2.584   3.571  0.1487  0.3536 -1.6970
  848MOL0     O11862   7.820   2.615   3.552 -0.2654 -0.1563 -0.5979
  848MOL0     C11863   7.774   2.747   3.564 -0.1452 -0.7446  0.8888
  848MOL0     C11864   7.634   2.761   3.504  0.9155 -0.8921 -0.9666
  848MOL0     C11865   7.532   2.652   3.543 -0.2949 -1.1391 -0.3543
  848MOL0     C11866   7.380   2.684   3.532 -0.4233 -0.8249  0.6168
  848MOL0     C11867   7.352   2.728   3.394  1.0052  0.2454  0.3612
  848MOL0     C11868   7.328   2.793   3.296  0.4233  1.1919  0.4483
  848MOL0     C11869   7.998   2.472   3.502  0.4742 -0.7043  0.0549
  848MOL0     C11870   8.138   2.448   3.503  0.3663  0.5895 -0.0182
  848MOL0     H11871   8.628   2.476   3.761 -1.3874 -2.8385 -2.2570
  848MOL0     H11872   8.868   2.455   3.717  0.5672 -0.8727 -0.1364
  848MOL0     H11873   9.092   2.793   3.521 -1.9464 -0.2443  0.3635
  848MOL0     H11874   9.023   2.746   3.369 -0.7300  2.0339  1.5808
  848MOL0     H11875   9.288   2.636   3.475 -1.8689  1.5351 -0.0573
  848MOL0     H11876   9.259   2.726   3.329 -1.6026  0.7845 -0.6239
  848MOL0     H11877   9.130   2.509   3.258 -1.5229  0.4183  1.6213
  848MOL0     H11878   9.190   2.451   3.425  6.4736 -0.3376  0.7872
  848MOL0     H11879   9.423   2.475   3.334  0.6439 -3.1853 -0.4503
  848MOL0     H11880   9.318   2.353   3.261 -0.0223  0.0762  2.5184
  848MOL0     H11881   9.381   2.610   3.125 -2.8120  0.9887 -2.3840
  848MOL0     H11882   9.268   2.496   3.071  1.0120  2.6287 -0.7901
  848MOL0     H11883   9.456   2.445   2.942  1.1043  0.9537 -0.4570
  848MOL0     H11884   9.430   2.317   3.056 -6.8835  2.2182  1.2114
  848MOL0     H11885   9.626   2.362   3.179 -1.0082 -1.1133 -0.1260
  848MOL0     H11886   9.665   2.364   3.015 -1.0324  0.6358 -1.8254
  848MOL0     H11887   9.623   2.614   3.178 -1.8284  1.3569 -2.3486
  848MOL0     H11888   9.647   2.630   3.016 -1.5220  2.2671  2.3817
  848MOL0     H11889   9.889   2.705   2.942  1.7686  1.6945  1.0914
  848MOL0     H11890  10.119   2.602   2.851  2.4211  2.0046 -0.2666
  848MOL0     H11891  10.223   2.520   2.976  0.3904  0.0337 -3.0611
  848MOL0     H11892  10.245   2.751   3.094 -1.0185 -1.4886  0.2023
  848MOL0     H11893  10.110   2.808   2.985  1.6545  1.1663 -1.2834
  848MOL0     H11894  10.384   2.722   2.888  1.5411  2.6842 -0.8455
  848MOL0     H11895  10.268   2.820   2.797  1.5786  2.8342 -0.2546
  848MOL0     H11896  10.461   2.930   2.880 -0.4805  0.6828  0.3664
  848MOL0     H11897  10.407   2.916   3.052 -0.7421 -1.3175  0.0010
  848MOL0     H11898  10.481   3.126   3.107  0.5912  1.6695  0.7807
  848MOL0     H11899  10.572   3.344   3.125  2.2515 -0.4520 -3.2434
  848MOL0     H11900  10.583   3.781   2.713 -1.1383 -1.1911  1.2675
  848MOL0     H11901  10.660   4.003   2.723 -0.9064 -0.8632 -1.9926
  848MOL0     H11902  10.614   4.250   2.738 -0.1091 -0.8564  0.1695
  848MOL0     H11903  10.763   4.182   2.815 -0.1851 -1.8529  2.3415
  848MOL0     H11904  10.628   4.430   2.897 -0.8835 -0.4845  1.0217
  848MOL0     H11905  10.768   4.417   2.784 -1.3041  3.7898  1.4056
  848MOL0     H11906  10.893   4.287   2.921 -0.6330 -0.9911 -0.2965
  848MOL0     H11907  10.790   4.288   3.055  2.9856 -3.7264 -1.4030
  848MOL0     H11908  10.786   4.550   3.040 -1.1783 -1.6068  0.6955
  848MOL0     H11909  10.934   4.472   3.116 -0.8485 -0.3017  0.1440
  848MOL0     H11910  10.909   4.574   2.827  1.4255  3.1817 -0.8363
  848MOL0     H11911  11.045   4.498   2.900 -1.8441 -2.8506  0.9144
  848MOL0     H11912  10.921   4.762   2.998  0.6934  0.7825 -0.4670
  848MOL0     H11913  11.047   4.739   2.871 -2.3698 -1.2700 -1.6599
  848MOL0     H11914  11.072   4.646   3.155 -0.5777 -1.0765 -1.0928
  848MOL0     H11915  11.205   4.672   3.045  0.7970 -2.6116  3.3970
  848MOL0     H11916  11.172   4.844   3.209  0.3460 -2.4171 -1.2354
  848MOL0     H11917  11.033   4.915   3.128  1.7072  1.7475  2.4078
  848MOL0     H11918  10.441   4.063   3.092 -0.1629 -0.9689  0.6984
  848MOL0     H11919  10.356   3.833   3.083  1.7670 -0.1182  0.6705
  848MOL0     H11920  10.292   3.467   2.806  1.7450 -1.9471 -3.0907
  848MOL0     H11921  10.197   3.247   2.805 -1.0083  0.2406  1.0552
  848MOL0     H11922   8.824   2.742   3.402  2.1763 -3.8407 -1.3230
  848MOL0     H11923   8.588   2.761   3.469 -1.6654 -0.2209 -0.2867
  848MOL0     H11924   8.234   2.669   3.732  0.1044  0.8904 -0.4355
  848MOL0     H11925   8.009   2.736   3.733  0.2782 -0.5707  0.9015
  848MOL0     H11926   7.839   2.804   3.497 -0.2449 -1.2651  0.3362
  848MOL0     H11927   7.772   2.792   3.663 -1.8901  2.8981 -0.5944
  848MOL0     H11928   7.604   2.854   3.553 -1.4812 -1.8626 -0.4889
  848MOL0     H11929   7.625   2.775   3.395  1.9399  2.0568 -0.7710
  848MOL0     H11930   7.552   2.639   3.650  1.2486  1.7831 -0.1884
  848MOL0     H11931   7.549   2.557   3.491 -3.3486 -0.3185 -3.2216
  848MOL0     H11932   7.319   2.602   3.572  1.0325 -2.5730 -0.6012
  848MOL0     H11933   7.347   2.769   3.592 -4.8089 -0.6312 -1.6197
  848MOL0     H11934   7.297   2.848   3.209  1.7243  3.0291  1.0895
  848MOL0     H11935   7.936   2.421   3.430  0.4355  0.4204 -0.7361
  848MOL0     H11936   8.183   2.374   3.438  2.3333  3.0035 -1.5891
  849MOL0     O11937   2.862  10.884   3.949  0.1466 -0.2216  0.4461
  849MOL0     C11938   2.792  10.955   3.882  0.9980  0.9751  0.8438
  849MOL0     O11939   2.829  11.073   3.811  0.2741  0.3828  0.7107
  849MOL0     C11940   2.958  11.102   3.791  0.4580 -0.0663  0.7506
  849MOL0     C11941   3.049  11.123   3.900  0.5556 -0.3422  0.4996
  849MOL0     C11942   3.179  11.166   3.879 -0.7134  0.8973 -0.0553
  849MOL0     C11943   3.232  11.187   3.749  0.5635  0.6484 -0.0899
  849MOL0     O11944   3.357  11.223   3.716  0.6635  0.1313  0.0994
  849MOL0     C11945   3.465  11.200   3.814 -0.7664 -0.4961  0.3837
  849MOL0     C11946   3.608  11.246   3.769  0.1328 -0.1605  0.8956
  849MOL0     C11947   3.678  11.152   3.671 -0.4256 -0.7678 -0.3318
  849MOL0     C11948   3.596  11.079   3.565  0.4483  0.1381 -0.1502
  849MOL0     C11949   3.534  11.161   3.453 -0.3278 -0.0787  0.0663
  849MOL0     C11950   3.477  11.055   3.353 -0.4136 -0.5293  0.3800
  849MOL0     C11951   3.391  11.138   3.252 -0.4446  0.1875 -0.4476
  849MOL0     C11952   3.343  11.056   3.129  0.3356  0.3465  0.7153
  849MOL0     N11953   3.220  10.973   3.152 -0.1133  0.4323  1.0887
  849MOL0     C11954   3.102  11.018   3.214 -0.4625  0.0070 -0.0829
  849MOL0     C11955   3.032  10.904   3.226  0.9236 -0.2870 -0.0317
  849MOL0     C11956   2.892  10.902   3.288  0.3640 -0.7285  0.0120
  849MOL0     C11957   2.810  10.789   3.244  0.0435 -0.0338  0.8961
  849MOL0     C11958   2.663  10.801   3.286 -0.3344 -0.8844 -1.0382
  849MOL0     C11959   2.640  10.830   3.442 -0.2347  0.5748 -0.9464
  849MOL0     O11960   2.536  10.926   3.460 -0.0457  0.3498  0.3983
  849MOL0     C11961   2.409  10.876   3.437  0.3996 -0.3366 -0.8112
  849MOL0     C11962   2.304  10.967   3.443 -0.2566  0.1067  0.2377
  849MOL0     C11963   2.174  10.925   3.414  0.2934  1.1411 -0.6208
  849MOL0     C11964   2.142  10.790   3.391  0.6744 -0.9971  0.5786
  849MOL0     C11965   2.009  10.758   3.345  0.6364 -0.4184  0.4820
  849MOL0     O11966   1.998  10.636   3.273 -0.6006  0.8036  0.2650
  849MOL0     C11967   1.874  10.583   3.252 -0.1608 -0.4737  0.3510
  849MOL0     C11968   1.785  10.641   3.167  0.5831 -0.2119  1.2744
  849MOL0     C11969   1.670  10.562   3.134  1.0777  0.1298  0.5150
  849MOL0     C11970   1.643  10.435   3.180  0.4246  0.8943  0.1116
  849MOL0     O11971   1.527  10.360   3.148 -0.6048 -0.1077 -0.5496
  849MOL0     C11972   1.427  10.422   3.064  0.4515 -0.9156 -0.8343
  849MOL0     C11973   1.334  10.518   3.142 -0.0017 -0.2236 -0.1776
  849MOL0     C11974   1.245  10.444   3.235 -0.0919  0.4428  0.4028
  849MOL0     C11975   1.150  10.353   3.160  0.3618  0.6400 -0.5176
  849MOL0     C11976   1.051  10.286   3.252 -1.4183  0.4182  1.6092
  849MOL0     C11977   0.967  10.372   3.332  0.2842 -0.8409 -0.1304
  849MOL0     C11978   0.906  10.500   3.253 -1.3893 -0.6757  0.2302
  849MOL0     C11979   0.781  10.562   3.326 -0.8157 -1.0978  0.7632
  849MOL0    Cl11980   0.827  10.617   3.494 -0.4685 -0.1070 -0.5300
  849MOL0     C11981   1.737  10.388   3.268  0.4826 -0.9682 -0.0701
  849MOL0     C11982   1.859  10.458   3.296  0.5904  0.6192  0.7038
  849MOL0     O11983   1.916  10.838   3.367  0.0935 -1.0886 -0.2500
  849MOL0     C11984   2.250  10.699   3.382  0.3037 -0.9896  0.1331
  849MOL0     C11985   2.376  10.743   3.412 -0.0080  0.6316  0.0872
  849MOL0     N11986   3.083  10.805   3.151  0.1713  0.4474 -0.3631
  849MOL0     N11987   3.202  10.843   3.114 -0.5476  0.2680 -0.0197
  849MOL0     C11988   3.142  11.173   3.643 -0.2802 -0.2041 -0.4391
  849MOL0     C11989   3.011  11.133   3.667 -0.4946  0.9529 -0.2355
  849MOL0     C11990   2.649  10.911   3.884 -0.5705 -0.0342  0.7964
  849MOL0     C11991   2.535  10.980   3.828 -0.7264 -0.2815 -0.0085
  849MOL0     C11992   2.405  10.918   3.813 -0.8395  0.3604  0.3836
  849MOL0     C11993   2.392  10.788   3.865 -1.1835 -0.2652 -0.6292
  849MOL0     O11994   2.277  10.718   3.865 -0.3979 -0.2559 -0.0456
  849MOL0     C11995   2.275  10.598   3.790 -0.7828  0.1133 -1.0937
  849MOL0     C11996   2.129  10.590   3.757  0.4271 -0.3883  0.0590
  849MOL0     C11997   2.091  10.454   3.686  0.0557 -0.7011  0.4654
  849MOL0     C11998   1.943  10.425   3.714  0.3825 -0.4306  0.0224
  849MOL0     C11999   1.915  10.299   3.647  0.5874 -0.9107 -0.8707
  849MOL0     C12000   1.880  10.209   3.575  0.7087  0.8195  0.1159
  849MOL0     C12001   2.505  10.722   3.925  0.7715 -0.1357 -0.6806
  849MOL0     C12002   2.632  10.783   3.936  0.0624 -1.0873 -0.0651
  849MOL0     H12003   3.015  11.107   4.002 -1.5671 -4.1788 -0.6265
  849MOL0     H12004   3.246  11.179   3.963  3.5800  0.1267 -3.0559
  849MOL0     H12005   3.462  11.099   3.856  0.5845 -1.8665 -2.5222
  849MOL0     H12006   3.445  11.265   3.900  0.1174  2.0353 -1.2176
  849MOL0     H12007   3.670  11.278   3.853  0.5660 -1.2967  1.0263
  849MOL0     H12008   3.590  11.338   3.712  2.5231  0.6335  1.2980
  849MOL0     H12009   3.735  11.068   3.712  3.4717  1.3298 -0.8853
  849MOL0     H12010   3.759  11.206   3.620  0.4906 -4.1038 -2.7393
  849MOL0     H12011   3.675  11.013   3.530  2.5632  1.6374  1.5435
  849MOL0     H12012   3.525  11.011   3.613 -0.6277  0.5805 -1.0868
  849MOL0     H12013   3.602  11.217   3.389  0.8781 -3.3511 -1.8135
  849MOL0     H12014   3.446  11.216   3.487 -0.9573 -1.0219  0.0004
  849MOL0     H12015   3.423  10.976   3.407  0.5221 -0.6433  1.1735
  849MOL0     H12016   3.554  11.007   3.293 -4.1829 -4.4310 -1.9740
  849MOL0     H12017   3.306  11.189   3.298 -0.6572 -0.8905  0.3871
  849MOL0     H12018   3.453  11.216   3.207 -0.5104 -0.1878 -1.2130
  849MOL0     H12019   3.428  10.993   3.102  1.8501  2.5529  0.0604
  849MOL0     H12020   3.317  11.120   3.044  0.4319  2.5487  2.2622
  849MOL0     H12021   3.082  11.105   3.276 -0.6545 -2.1294  3.1155
  849MOL0     H12022   2.841  10.996   3.266 -0.8292 -1.8125 -2.1970
  849MOL0     H12023   2.921  10.899   3.393 -1.3494 -1.6129  0.4927
  849MOL0     H12024   2.844  10.686   3.257  2.5010 -0.3570 -4.9497
  849MOL0     H12025   2.797  10.802   3.136 -1.9767  1.9936  1.3028
  849MOL0     H12026   2.609  10.884   3.238  0.7477  1.9329  2.1801
  849MOL0     H12027   2.612  10.712   3.248 -1.1216  1.0204 -5.1035
  849MOL0     H12028   2.731  10.874   3.484 -0.7039  0.6271  0.0610
  849MOL0     H12029   2.626  10.743   3.506  1.3532 -0.7867 -2.3847
  849MOL0     H12030   2.310  11.074   3.462  0.1162 -0.0078  0.7782
  849MOL0     H12031   2.096  11.001   3.418 -0.6435  0.1877  2.0556
  849MOL0     H12032   1.802  10.739   3.123  2.2280 -0.7976  0.5515
  849MOL0     H12033   1.607  10.618   3.066  0.5944 -0.0259  0.8328
  849MOL0     H12034   1.373  10.336   3.022  1.3174 -2.7570  1.5814
  849MOL0     H12035   1.474  10.474   2.980 -0.8441  1.2067 -0.3148
  849MOL0     H12036   1.262  10.567   3.076 -2.8477  1.3322  3.7325
  849MOL0     H12037   1.398  10.586   3.199 -0.3179 -0.9109  1.0309
  849MOL0     H12038   1.201  10.504   3.315 -0.3706 -0.2134  0.7552
  849MOL0     H12039   1.305  10.373   3.293  0.3102  0.7844  0.4074
  849MOL0     H12040   1.093  10.402   3.080  1.6284 -0.1142 -1.9396
  849MOL0     H12041   1.222  10.282   3.119  1.1926  2.3155 -2.1145
  849MOL0     H12042   1.109  10.217   3.314  0.2668 -1.3478 -1.6411
  849MOL0     H12043   0.994  10.213   3.193  1.9253 -0.4893 -0.8706
  849MOL0     H12044   1.028  10.416   3.411 -2.4327  2.5827  0.3114
  849MOL0     H12045   0.883  10.321   3.381 -1.3679  2.1022  0.3169
  849MOL0     H12046   0.986  10.574   3.255 -0.5684 -1.5033 -0.7640
  849MOL0     H12047   0.877  10.455   3.157  2.3154 -2.4735 -0.2171
  849MOL0     H12048   0.721  10.472   3.341  0.4795 -1.4061  6.1160
  849MOL0     H12049   0.723  10.639   3.273 -1.5869  0.2890  3.3934
  849MOL0     H12050   1.722  10.296   3.324  4.3668 -0.9309  1.3473
  849MOL0     H12051   1.937  10.407   3.351 -0.0108  0.8232  1.7526
  849MOL0     H12052   2.231  10.593   3.365  2.7348 -1.9104  2.4241
  849MOL0     H12053   2.451  10.665   3.411  3.1154  3.4009 -1.2016
  849MOL0     H12054   3.181  11.195   3.545  1.4915  1.1725  0.5188
  849MOL0     H12055   2.948  11.115   3.580  0.3929  1.5931 -1.0189
  849MOL0     H12056   2.546  11.077   3.780  0.0283 -1.7625 -3.1118
  849MOL0     H12057   2.326  10.976   3.767 -2.2453 -1.4569  0.3942
  849MOL0     H12058   2.302  10.509   3.847 -1.0305  2.1312  2.4757
  849MOL0     H12059   2.329  10.609   3.696 -0.4353 -1.5223 -1.1092
  849MOL0     H12060   2.074  10.612   3.848  1.9866  2.6327  0.3672
  849MOL0     H12061   2.101  10.679   3.699  1.4661  1.7721  2.7065
  849MOL0     H12062   2.145  10.367   3.724 -2.7096 -2.4636  0.6593
  849MOL0     H12063   2.112  10.469   3.580  2.0517  1.2232  1.0464
  849MOL0     H12064   1.926  10.435   3.821 -3.0981  2.3273 -0.5904
  849MOL0     H12065   1.871  10.487   3.660  0.3965 -1.6894 -1.5290
  849MOL0     H12066   1.844  10.146   3.497 -0.1766  1.1473  0.2498
  849MOL0     H12067   2.511  10.620   3.962  2.1342  0.6255  1.3564
  849MOL0     H12068   2.717  10.723   3.968 -1.2324 -3.3990 -0.6830
  850MOL0     O12069  10.953   6.849   9.797  0.9730  0.0434 -0.2045
  850MOL0     C12070  10.911   6.953   9.855  0.3898 -0.1564  0.8200
  850MOL0     O12071  10.810   7.039   9.806  0.1260  0.6013  0.3593
  850MOL0     C12072  10.760   7.035   9.679 -0.1845  0.5503 -0.2461
  850MOL0     C12073  10.821   6.964   9.568  0.6309 -0.0783 -0.6949
  850MOL0     C12074  10.751   6.951   9.442  0.2282  0.6376 -0.8296
  850MOL0     C12075  10.638   7.020   9.422 -0.2861  0.2352  0.1157
  850MOL0     O12076  10.580   7.031   9.296  0.3220 -0.3014  1.2391
  850MOL0     C12077  10.462   6.947   9.275 -0.4246 -0.4325 -0.1682
  850MOL0     C12078  10.420   6.943   9.133  0.3130 -0.1491 -0.7579
  850MOL0     C12079  10.373   7.086   9.101  0.6337  0.2722  0.2917
  850MOL0     C12080  10.341   7.099   8.948 -0.5879  0.1457 -0.4634
  850MOL0     C12081  10.323   7.249   8.919 -0.0737  0.3253  0.4259
  850MOL0     C12082  10.272   7.287   8.784 -0.0083  0.9032  0.3406
  850MOL0     C12083  10.259   7.437   8.756 -0.1170  0.2875  0.1329
  850MOL0     C12084  10.376   7.488   8.670 -0.2106  0.4257  0.7810
  850MOL0     N12085  10.469   7.558   8.758 -0.7135  0.4835  0.3417
  850MOL0     C12086  10.566   7.511   8.834 -0.5392  0.6339 -1.2287
  850MOL0     C12087  10.620   7.614   8.903  0.0449 -0.1914  1.1996
  850MOL0     C12088  10.738   7.618   8.989  0.6261  0.1154  0.5115
  850MOL0     C12089  10.851   7.529   8.950  0.3689  0.5747 -0.6024
  850MOL0     C12090  10.925   7.563   8.824  0.1232  0.4935  0.1211
  850MOL0     C12091  11.048   7.477   8.823  0.2030 -0.6522  0.4936
  850MOL0     O12092  11.121   7.489   8.703 -0.2984 -1.2209 -0.0033
  850MOL0     C12093  11.227   7.408   8.678  0.1825 -0.2691  0.7414
  850MOL0     C12094  11.268   7.399   8.543  0.1917 -0.4464  0.3414
  850MOL0     C12095  11.373   7.314   8.504 -0.3333 -0.1160  0.2609
  850MOL0     C12096  11.445   7.245   8.597  0.0475  0.4412 -0.2707
  850MOL0     C12097  11.562   7.163   8.562  0.1834  0.1119  0.3998
  850MOL0     O12098  11.599   7.158   8.433  0.0301 -0.3946 -0.1163
  850MOL0     C12099  11.706   7.077   8.405 -0.0012  0.1807 -0.6168
  850MOL0     C12100  11.684   6.948   8.354  0.1273  0.7774 -0.2870
  850MOL0     C12101  11.784   6.854   8.331 -0.6151 -0.0871 -0.2722
  850MOL0     C12102  11.919   6.887   8.375  0.5691 -0.2958  0.6087
  850MOL0     O12103  12.031   6.810   8.341 -0.3928  0.3256 -0.3395
  850MOL0     C12104  12.032   6.742   8.213 -0.1718  0.0871  0.2479
  850MOL0     C12105  12.188   6.704   8.180  0.7041 -0.9515 -0.2601
  850MOL0     C12106  12.264   6.824   8.127 -1.1085 -0.3391 -0.1124
  850MOL0     C12107  12.402   6.785   8.080  0.6278  0.3808  0.2330
  850MOL0     C12108  12.419   6.688   7.967 -0.0708  0.1430  0.3831
  850MOL0     C12109  12.333   6.723   7.837  0.5842 -0.0285 -0.3419
  850MOL0     C12110  12.365   6.855   7.771  0.6184 -0.1056  0.1043
  850MOL0     C12111  12.341   6.876   7.624 -0.2722 -0.6465  0.5656
  850MOL0    Cl12112  12.159   6.857   7.604 -0.0835  0.2479  0.0087
  850MOL0     C12113  11.940   7.014   8.428  0.5086 -0.1743 -0.2227
  850MOL0     C12114  11.837   7.102   8.449  0.5794  0.5597 -0.3786
  850MOL0     O12115  11.611   7.093   8.650 -0.6897  0.7435 -0.2279
  850MOL0     C12116  11.403   7.249   8.737  1.4024 -0.1372 -0.0565
  850MOL0     C12117  11.290   7.327   8.770 -0.6033  0.0699 -0.4613
  850MOL0     N12118  10.550   7.730   8.866  0.6017 -0.2510  0.1662
  850MOL0     N12119  10.471   7.697   8.773 -0.9458  0.2394 -0.6720
  850MOL0     C12120  10.575   7.088   9.523 -0.1343  0.4022  0.0288
  850MOL0     C12121  10.635   7.092   9.653  0.7939 -0.8844  1.3907
  850MOL0     C12122  10.988   6.984   9.975  0.0842 -0.4035  0.4224
  850MOL0     C12123  11.109   6.923  10.003  0.4721  0.8286 -0.1227
  850MOL0     C12124  11.195   6.975  10.110  0.1491 -0.9019 -0.2196
  850MOL0     C12125  11.162   7.097  10.175 -0.6884 -0.6420  0.3604
  850MOL0     O12126  11.239   7.125  10.285 -0.0361  0.7918  0.1638
  850MOL0     C12127  11.209   7.258  10.336  2.0582  0.2348 -0.1625
  850MOL0     C12128  11.309   7.312  10.428  0.7159  0.0335  0.0883
  850MOL0     C12129  11.390   7.200  10.513 -0.5807 -0.2575  0.7140
  850MOL0     C12130  11.513   7.156  10.446 -0.0032  0.7720 -0.1987
  850MOL0     C12131  11.589   7.083  10.552 -1.4087 -0.4946  0.4238
  850MOL0     C12132  11.643   7.021  10.638 -0.1721 -1.2315  0.4195
  850MOL0     C12133  11.038   7.142  10.154  0.3884 -0.3580 -0.1245
  850MOL0     C12134  10.948   7.098  10.052 -0.0258  0.2203 -0.5679
  850MOL0     H12135  10.900   6.890   9.578 -2.7182 -3.7501  1.6014
  850MOL0     H12136  10.807   6.905   9.361 -0.7627 -1.9311 -0.1709
  850MOL0     H12137  10.378   6.977   9.338 -0.1121  1.6204 -0.6581
  850MOL0     H12138  10.488   6.844   9.302  3.3971  0.1289 -1.0417
  850MOL0     H12139  10.330   6.882   9.125 -1.2905  2.0986 -0.7481
  850MOL0     H12140  10.505   6.903   9.078  1.0063 -0.8714  0.7557
  850MOL0     H12141  10.443   7.169   9.117  1.1278 -0.3087  1.2384
  850MOL0     H12142  10.277   7.122   9.140  0.1396  1.4003 -1.7898
  850MOL0     H12143  10.412   7.056   8.877  0.9870 -0.1353  1.1950
  850MOL0     H12144  10.257   7.032   8.925 -1.5029  1.8002 -2.1954
  850MOL0     H12145  10.426   7.283   8.932  1.5448 -4.7566  3.2888
  850MOL0     H12146  10.256   7.287   8.996 -3.6781 -1.0785 -1.7505
  850MOL0     H12147  10.174   7.240   8.778 -0.1521  0.8291  2.3710
  850MOL0     H12148  10.335   7.233   8.712  0.0187  0.9383  0.3367
  850MOL0     H12149  10.178   7.432   8.683  0.5785  2.7811 -0.9000
  850MOL0     H12150  10.234   7.503   8.840 -3.5204 -1.8577  0.9835
  850MOL0     H12151  10.342   7.553   8.589  0.3357 -2.8759 -2.3575
  850MOL0     H12152  10.415   7.404   8.613 -4.0620 -2.5623  2.0789
  850MOL0     H12153  10.590   7.405   8.839  1.5746  1.0717 -0.9775
  850MOL0     H12154  10.710   7.596   9.092  0.7360 -0.5244  0.4088
  850MOL0     H12155  10.781   7.719   8.986  0.9256 -0.0318 -0.4651
  850MOL0     H12156  10.814   7.426   8.957 -1.7913  1.2961 -0.7171
  850MOL0     H12157  10.913   7.543   9.039 -1.1259  1.1475  0.3868
  850MOL0     H12158  10.866   7.538   8.735 -0.5227  0.8749  0.4274
  850MOL0     H12159  10.955   7.668   8.830  0.0727  0.7009 -2.2958
  850MOL0     H12160  11.019   7.374   8.841  1.2060 -1.6304 -2.7355
  850MOL0     H12161  11.108   7.510   8.909 -0.3498  1.1804  0.2179
  850MOL0     H12162  11.199   7.446   8.473  0.0967  0.9397  1.3196
  850MOL0     H12163  11.412   7.316   8.402 -0.8072  1.7717  0.0769
  850MOL0     H12164  11.580   6.921   8.341  0.3236  0.3863 -1.1140
  850MOL0     H12165  11.769   6.758   8.283 -2.2164  0.2016 -0.4068
  850MOL0     H12166  11.976   6.811   8.150 -0.4623 -1.1247 -0.8752
  850MOL0     H12167  11.977   6.647   8.213  2.2668 -1.4438  1.2671
  850MOL0     H12168  12.201   6.618   8.115  2.8771  0.6170 -2.0752
  850MOL0     H12169  12.240   6.675   8.271 -0.4715  1.0706  1.1679
  850MOL0     H12170  12.274   6.897   8.207  0.2810  2.9370 -3.0216
  850MOL0     H12171  12.204   6.882   8.057 -0.2584  0.8475  0.1184
  850MOL0     H12172  12.456   6.872   8.041  1.9760 -1.3833 -2.0892
  850MOL0     H12173  12.449   6.743   8.169  3.1745 -3.2488 -2.5217
  850MOL0     H12174  12.384   6.590   8.000 -0.7922 -0.4698 -2.0066
  850MOL0     H12175  12.521   6.682   7.929 -0.4600  1.4016 -0.9199
  850MOL0     H12176  12.226   6.725   7.858  0.9959  0.5849  2.0107
  850MOL0     H12177  12.364   6.655   7.757 -0.1831 -1.1458  0.2711
  850MOL0     H12178  12.319   6.940   7.823 -0.6156 -1.1390  0.7180
  850MOL0     H12179  12.474   6.864   7.779  0.6247 -0.0689 -0.0186
  850MOL0     H12180  12.405   6.808   7.566  0.3762  3.2011 -3.9096
  850MOL0     H12181  12.371   6.978   7.598 -0.6798 -1.6550 -5.2635
  850MOL0     H12182  12.037   7.030   8.474 -1.5886 -0.2718  4.8953
  850MOL0     H12183  11.847   7.197   8.501 -5.1836  1.0511  0.4480
  850MOL0     H12184  11.436   7.189   8.821 -3.3768  0.2166  2.4581
  850MOL0     H12185  11.252   7.335   8.872 -0.1158 -1.2349 -0.1539
  850MOL0     H12186  10.490   7.151   9.498  0.4683  0.9633 -0.6529
  850MOL0     H12187  10.584   7.148   9.730 -0.1947  1.5131 -0.8473
  850MOL0     H12188  11.154   6.835   9.959  0.6103 -0.0689  1.7243
  850MOL0     H12189  11.274   6.918  10.158 -1.1187 -0.8286  2.0812
  850MOL0     H12190  11.111   7.268  10.383  2.1024  0.3824 -0.1039
  850MOL0     H12191  11.215   7.323  10.248 -3.1122 -0.3767 -1.2518
  850MOL0     H12192  11.388   7.354  10.364  1.5514 -2.5469 -0.7220
  850MOL0     H12193  11.261   7.380  10.498  1.1781 -0.7749  1.2185
  850MOL0     H12194  11.334   7.114  10.550  0.9523 -1.7412 -0.2634
  850MOL0     H12195  11.411   7.252  10.607  0.1799 -0.4070  0.6392
  850MOL0     H12196  11.504   7.099  10.353  0.6777 -0.6034  0.5403
  850MOL0     H12197  11.578   7.243  10.437  0.8794  0.2948  1.1979
  850MOL0     H12198  11.709   6.985  10.714  0.7769  1.2226  0.8410
  850MOL0     H12199  10.981   7.214  10.211  0.5949  4.5326 -5.1972
  850MOL0     H12200  10.842   7.124  10.059 -0.2303 -0.5857 -0.6313
  851MOL0     O12201   0.362  11.104   9.619 -0.2072 -0.0112 -0.3375
  851MOL0     C12202   0.437  11.154   9.704  0.0960 -0.0364  0.3386
  851MOL0     O12203   0.405  11.241   9.805 -0.6504  0.6065 -0.1052
  851MOL0     C12204   0.290  11.303   9.831  0.4707 -0.2212 -0.1141
  851MOL0     C12205   0.297  11.421   9.906 -0.4600  0.9107  0.4720
  851MOL0     C12206   0.177  11.478   9.951 -0.0272  0.2397 -1.1944
  851MOL0     C12207   0.047  11.422   9.928  0.7813  0.0470 -0.1122
  851MOL0     O12208  -0.079  11.477   9.956  1.1512 -0.3366  0.1658
  851MOL0     C12209  -0.081  11.587  10.043  0.7418 -0.4340 -0.3732
  851MOL0     C12210  -0.232  11.621  10.059  0.3261  0.8008  0.5196
  851MOL0     C12211  -0.285  11.723  10.149 -0.2712  0.2380 -0.0666
  851MOL0     C12212  -0.251  11.876  10.123  0.3288  0.0639  1.0995
  851MOL0     C12213  -0.309  11.970  10.228 -0.5670  0.7361 -0.0563
  851MOL0     C12214  -0.282  12.118  10.192 -0.1814 -0.3301 -0.4327
  851MOL0     C12215  -0.370  12.155  10.073 -0.6037 -0.1188 -0.5328
  851MOL0     C12216  -0.334  12.306  10.034 -0.3019 -0.3659 -0.6097
  851MOL0     N12217  -0.352  12.326   9.895  0.0382  0.8695  0.5704
  851MOL0     C12218  -0.263  12.329   9.793  0.6265 -0.2530 -0.2598
  851MOL0     C12219  -0.332  12.354   9.684 -1.0172 -0.6716  0.0704
  851MOL0     C12220  -0.270  12.388   9.550 -0.1014  0.7157 -0.4377
  851MOL0     C12221  -0.314  12.521   9.503  0.1780  0.2705 -0.5985
  851MOL0     C12222  -0.306  12.537   9.354 -0.2252  0.8114 -0.0462
  851MOL0     C12223  -0.174  12.487   9.293 -0.9094 -0.7082 -1.6143
  851MOL0     O12224  -0.137  12.549   9.167  0.1981  0.1587 -0.3561
  851MOL0     C12225  -0.216  12.500   9.072  0.5232 -0.4311  0.3956
  851MOL0     C12226  -0.347  12.552   9.041 -0.3648 -0.1355 -0.5016
  851MOL0     C12227  -0.407  12.498   8.932  0.4869 -1.2610 -0.1253
  851MOL0     C12228  -0.344  12.410   8.840 -0.6618  0.5706  0.4096
  851MOL0     C12229  -0.399  12.371   8.704 -0.1925  0.1291 -0.2839
  851MOL0     O12230  -0.516  12.429   8.662 -0.0713  0.2903 -0.3551
  851MOL0     C12231  -0.548  12.413   8.528  0.4572 -0.4505  0.3692
  851MOL0     C12232  -0.564  12.521   8.443  0.3961  0.2013 -0.4262
  851MOL0     C12233  -0.622  12.507   8.314 -0.1610  0.6335 -0.0848
  851MOL0     C12234  -0.655  12.381   8.266  0.2192 -0.3584  0.2858
  851MOL0     O12235  -0.702  12.347   8.140 -0.3551 -0.0397 -0.1082
  851MOL0     C12236  -0.597  12.392   8.041  0.4453  0.0707 -0.5136
  851MOL0     C12237  -0.656  12.390   7.901  0.3001  0.3191 -0.0907
  851MOL0     C12238  -0.668  12.249   7.847 -1.0477  0.8964  0.4653
  851MOL0     C12239  -0.713  12.262   7.694 -0.2166  0.5331  0.1277
  851MOL0     C12240  -0.860  12.306   7.664  0.3363  0.2736  0.3518
  851MOL0     C12241  -0.869  12.455   7.632 -0.5525 -0.3084  0.1629
  851MOL0     C12242  -0.987  12.485   7.534  0.3067 -0.1345  0.1529
  851MOL0     C12243  -0.965  12.626   7.469 -0.3269 -0.0874 -0.2331
  851MOL0    Cl12244  -0.843  12.602   7.333 -0.2589  0.4246 -0.6438
  851MOL0     C12245  -0.630  12.270   8.346 -0.3810  0.1063  0.4023
  851MOL0     C12246  -0.575  12.286   8.475 -0.3351 -0.2027 -0.4879
  851MOL0     O12247  -0.349  12.265   8.654  0.3350  1.0285 -0.6399
  851MOL0     C12248  -0.230  12.346   8.887  0.7867  0.5829 -0.8725
  851MOL0     C12249  -0.164  12.397   8.992  0.2736 -0.5920  0.6378
  851MOL0     N12250  -0.463  12.358   9.718  0.2443  1.2171  0.1098
  851MOL0     N12251  -0.475  12.368   9.846 -0.2462  0.1107  0.8244
  851MOL0     C12252   0.041  11.304   9.854  0.8540 -0.7230  0.4193
  851MOL0     C12253   0.161  11.245   9.805  0.6625  0.5423 -0.3305
  851MOL0     C12254   0.582  11.122   9.683 -0.3809  0.4406  0.4381
  851MOL0     C12255   0.642  11.051   9.577  1.0133 -0.2388 -0.5566
  851MOL0     C12256   0.777  11.039   9.553 -0.5711  0.1988  0.7614
  851MOL0     C12257   0.869  11.090   9.638  0.2497 -0.1576 -0.2113
  851MOL0     O12258   1.007  11.070   9.639  0.6695  0.8375  0.1287
  851MOL0     C12259   1.069  11.091   9.516 -0.0559  1.1846  1.0428
  851MOL0     C12260   1.209  11.146   9.547 -1.3518  0.1367 -0.0675
  851MOL0     C12261   1.301  11.130   9.421 -0.3475 -0.0590  1.1524
  851MOL0     C12262   1.371  11.271   9.386 -0.3525  0.0614  0.5802
  851MOL0     C12263   1.448  11.271   9.262  0.6778  0.9510 -1.3035
  851MOL0     C12264   1.528  11.268   9.176  0.4784 -1.0396 -0.3754
  851MOL0     C12265   0.822  11.160   9.744  0.9074  0.1526  0.8715
  851MOL0     C12266   0.683  11.179   9.767 -0.2512 -0.0404 -0.2622
  851MOL0     H12267   0.396  11.463   9.924 -0.1018  2.3174 -3.6160
  851MOL0     H12268   0.176  11.562  10.019  2.0795  0.3529 -1.2472
  851MOL0     H12269  -0.024  11.671  10.002 -2.5743  2.1362 -0.2109
  851MOL0     H12270  -0.041  11.559  10.141  1.0298  0.0617 -0.3441
  851MOL0     H12271  -0.261  11.520  10.090 -2.9276  1.5532  0.3471
  851MOL0     H12272  -0.274  11.638   9.959 -1.7626 -0.0052  1.2071
  851MOL0     H12273  -0.247  11.694  10.247 -2.2685  0.5040  0.8214
  851MOL0     H12274  -0.393  11.720  10.161 -0.0401 -1.0824  2.1813
  851MOL0     H12275  -0.142  11.876  10.132  0.3604 -2.0008  1.1609
  851MOL0     H12276  -0.279  11.903  10.021  2.4160 -0.6375  0.2761
  851MOL0     H12277  -0.262  11.950  10.325 -0.9716 -1.0833 -0.2047
  851MOL0     H12278  -0.416  11.947  10.233  0.0840 -3.1126 -0.7871
  851MOL0     H12279  -0.179  12.142  10.165  1.2602  0.2737  4.6572
  851MOL0     H12280  -0.306  12.179  10.280  1.5099  0.8890 -0.7715
  851MOL0     H12281  -0.341  12.094   9.988  0.4482 -1.1101  0.5141
  851MOL0     H12282  -0.478  12.142  10.085 -0.3407  0.0126  2.7681
  851MOL0     H12283  -0.230  12.333  10.057 -1.1524  1.0106  2.1481
  851MOL0     H12284  -0.399  12.378  10.086 -3.2474 -1.2148 -2.8424
  851MOL0     H12285  -0.156  12.314   9.802  0.6975 -0.0211 -0.7187
  851MOL0     H12286  -0.302  12.314   9.476  2.2379 -2.6705  1.6706
  851MOL0     H12287  -0.161  12.386   9.554  0.1256 -0.3349 -3.7978
  851MOL0     H12288  -0.251  12.595   9.554  0.3109 -1.7893  2.4772
  851MOL0     H12289  -0.411  12.550   9.544  0.7038 -0.2571  1.0661
  851MOL0     H12290  -0.390  12.483   9.311  0.6802 -2.4666  1.9645
  851MOL0     H12291  -0.309  12.643   9.327  0.8853  1.3852  1.8202
  851MOL0     H12292  -0.170  12.379   9.276  1.7410 -0.6038 -2.1291
  851MOL0     H12293  -0.090  12.514   9.358  0.1184 -1.9509 -2.3656
  851MOL0     H12294  -0.401  12.613   9.113  0.3207  0.7063 -0.6813
  851MOL0     H12295  -0.509  12.534   8.928  1.8651  3.0445 -1.0735
  851MOL0     H12296  -0.544  12.627   8.457 -1.3513  0.4715  0.2619
  851MOL0     H12297  -0.650  12.602   8.270 -3.1002  0.6829  1.6778
  851MOL0     H12298  -0.510  12.326   8.045 -1.4538 -2.4658  1.0861
  851MOL0     H12299  -0.575  12.496   8.068  1.9122 -0.7537  1.7593
  851MOL0     H12300  -0.595  12.455   7.838  1.4141  0.8325  1.4510
  851MOL0     H12301  -0.753  12.439   7.893 -1.1376 -2.6082 -2.6845
  851MOL0     H12302  -0.749  12.190   7.889 -0.7722  0.1405 -0.0352
  851MOL0     H12303  -0.572  12.196   7.848 -0.9994  0.6706 -3.2464
  851MOL0     H12304  -0.639  12.329   7.649  0.0052  1.9747  2.4620
  851MOL0     H12305  -0.696  12.159   7.663  0.4177  0.6477  0.0755
  851MOL0     H12306  -0.928  12.284   7.747 -1.5552 -0.3207 -1.2692
  851MOL0     H12307  -0.888  12.248   7.575  2.8210  0.7058 -0.8009
  851MOL0     H12308  -0.781  12.486   7.574 -0.5069  0.8253  0.8269
  851MOL0     H12309  -0.874  12.508   7.727  0.0100 -1.6877  1.0033
  851MOL0     H12310  -0.978  12.410   7.455 -1.7943  1.7974 -2.0918
  851MOL0     H12311  -1.093  12.493   7.560 -0.1019  1.0696 -1.7102
  851MOL0     H12312  -0.938  12.698   7.547  0.4037  0.2043 -0.7387
  851MOL0     H12313  -1.061  12.647   7.421 -1.3698 -1.7439  1.0392
  851MOL0     H12314  -0.637  12.167   8.311 -1.0618 -0.4069  1.9360
  851MOL0     H12315  -0.561  12.205   8.546 -0.1633  0.0623 -0.2181
  851MOL0     H12316  -0.183  12.259   8.841  3.2599  1.3295  0.0476
  851MOL0     H12317  -0.073  12.349   9.025 -0.5637 -1.7122  1.3693
  851MOL0     H12318  -0.058  11.261   9.858 -1.0832  3.2466  0.1883
  851MOL0     H12319   0.140  11.147   9.763  1.7288 -2.3769  5.0122
  851MOL0     H12320   0.567  11.004   9.513 -0.1695 -0.9568  1.2817
  851MOL0     H12321   0.813  10.985   9.467 -2.0523 -0.4905  0.5340
  851MOL0     H12322   1.013  11.142   9.437  1.7429 -1.3487 -2.1306
  851MOL0     H12323   1.093  10.990   9.482 -0.0262  0.6464  2.6211
  851MOL0     H12324   1.198  11.249   9.583  1.0304 -0.7415  3.7537
  851MOL0     H12325   1.253  11.083   9.625 -0.8598  0.6921  0.1148
  851MOL0     H12326   1.235  11.098   9.340 -0.1526 -0.5954  1.2001
  851MOL0     H12327   1.374  11.051   9.439 -1.2612 -1.4228 -0.8050
  851MOL0     H12328   1.300  11.353   9.386  0.2059  0.5602 -0.2468
  851MOL0     H12329   1.440  11.298   9.467  4.4039 -0.9583 -2.6780
  851MOL0     H12330   1.603  11.276   9.100 -0.0777 -2.8778 -1.1573
  851MOL0     H12331   0.896  11.202   9.810  3.7934 -0.0498 -1.9642
  851MOL0     H12332   0.681  11.247   9.852  0.5744  2.5823 -2.1928
  852MOL0     O12333   1.735   0.334   3.364  0.2375  0.2434 -0.1031
  852MOL0     C12334   1.676   0.435   3.343 -0.3442  0.2793 -0.0481
  852MOL0     O12335   1.541   0.443   3.370 -0.2765 -0.1509 -0.6939
  852MOL0     C12336   1.465   0.335   3.396 -0.8730 -0.3172  0.2484
  852MOL0     C12337   1.337   0.336   3.330 -0.4231 -0.8298  0.2272
  852MOL0     C12338   1.251   0.225   3.338  0.3268 -0.0935 -0.7203
  852MOL0     C12339   1.283   0.121   3.427 -1.1221 -1.2282 -0.1948
  852MOL0     O12340   1.183   0.034   3.442  0.3261  0.0989 -0.0284
  852MOL0     C12341   1.213  -0.098   3.378 -0.2617 -0.0687  0.1067
  852MOL0     C12342   1.298  -0.201   3.452  2.1597 -0.1026 -0.2715
  852MOL0     C12343   1.283  -0.197   3.602  1.0951 -0.6094  0.2181
  852MOL0     C12344   1.389  -0.286   3.657 -0.2426  0.0538 -0.8352
  852MOL0     C12345   1.438  -0.244   3.794 -0.8911 -0.3284  0.4236
  852MOL0     C12346   1.323  -0.247   3.895  0.7666  0.0877  0.7081
  852MOL0     C12347   1.364  -0.224   4.041 -1.0115  0.3299 -0.7762
  852MOL0     C12348   1.385  -0.356   4.124  0.0090 -0.7274 -0.7427
  852MOL0     N12349   1.482  -0.445   4.060 -0.1179 -0.1833 -0.0963
  852MOL0     C12350   1.457  -0.568   4.004 -0.2092  0.4576 -0.8684
  852MOL0     C12351   1.569  -0.629   3.993 -0.5770  0.0936 -0.1622
  852MOL0     C12352   1.578  -0.768   3.940  0.3938  0.0801 -0.5693
  852MOL0     C12353   1.720  -0.797   3.888  0.4084  0.5060  0.5700
  852MOL0     C12354   1.777  -0.699   3.791  0.3992  0.5534 -0.2410
  852MOL0     C12355   1.722  -0.703   3.650  0.5183  0.5222 -0.9254
  852MOL0     O12356   1.577  -0.736   3.648 -0.4016 -0.6205 -0.0066
  852MOL0     C12357   1.493  -0.696   3.551  0.2151 -0.6048 -0.3778
  852MOL0     C12358   1.358  -0.677   3.597  0.2991  0.8440 -0.4448
  852MOL0     C12359   1.268  -0.633   3.502  0.0518 -0.6441  0.7082
  852MOL0     C12360   1.309  -0.594   3.370  0.8194 -0.4163  0.0670
  852MOL0     C12361   1.205  -0.554   3.273  0.1916  0.1397 -0.0727
  852MOL0     O12362   1.240  -0.522   3.146  0.8964 -0.3773 -0.1617
  852MOL0     C12363   1.154  -0.427   3.092  0.4861  0.1348  0.2008
  852MOL0     C12364   1.207  -0.297   3.079  0.4944  0.1984  0.6593
  852MOL0     C12365   1.117  -0.196   3.032 -0.9545 -0.1320  0.6305
  852MOL0     C12366   0.982  -0.217   3.017 -0.2578  0.0279 -0.1358
  852MOL0     O12367   0.897  -0.113   2.974 -0.2781 -0.4835 -0.0742
  852MOL0     C12368   0.931   0.025   3.004  0.9508  0.5230  0.9177
  852MOL0     C12369   0.797   0.103   3.003 -0.4484  0.3208 -0.3321
  852MOL0     C12370   0.713   0.093   3.134  0.8668  0.9129  0.5998
  852MOL0     C12371   0.555   0.129   3.138 -0.4652  0.5485 -0.6993
  852MOL0     C12372   0.499   0.102   3.280 -0.4060 -0.1323  0.5921
  852MOL0     C12373   0.494   0.224   3.366  0.4277 -0.5164  0.5377
  852MOL0     C12374   0.386   0.325   3.336 -0.1404  0.1963  1.0148
  852MOL0     C12375   0.384   0.448   3.416  0.8159 -0.6279  0.4839
  852MOL0    Cl12376   0.454   0.590   3.342 -0.0147  0.0961  0.4252
  852MOL0     C12377   0.938  -0.346   3.023 -0.2725  0.1908  0.1670
  852MOL0     C12378   1.021  -0.454   3.055  0.2556 -1.7456 -0.2554
  852MOL0     O12379   1.086  -0.549   3.312 -0.2593  0.4780 -0.6048
  852MOL0     C12380   1.440  -0.618   3.325  0.0389 -0.0171 -0.2120
  852MOL0     C12381   1.541  -0.661   3.422  0.1381  0.0850  0.0725
  852MOL0     N12382   1.667  -0.551   4.048 -0.3884  0.6167  0.3536
  852MOL0     N12383   1.617  -0.441   4.089  0.4933  0.3448 -0.3817
  852MOL0     C12384   1.404   0.120   3.508  0.4514  0.1751  0.4910
  852MOL0     C12385   1.487   0.224   3.488 -0.0322  0.9304 -0.3392
  852MOL0     C12386   1.752   0.553   3.310  0.9124 -0.5088 -1.3870
  852MOL0     C12387   1.889   0.560   3.323  0.0280  0.5740  0.9270
  852MOL0     C12388   1.960   0.672   3.317 -0.3187  0.4166 -0.4711
  852MOL0     C12389   1.895   0.800   3.300  0.1283  1.4250 -0.1006
  852MOL0     O12390   1.960   0.920   3.291  0.4063  1.2536  0.2941
  852MOL0     C12391   2.089   0.924   3.355 -0.0601 -0.1114  0.4065
  852MOL0     C12392   2.138   1.067   3.374 -0.1104  0.4957 -0.5185
  852MOL0     C12393   2.249   1.069   3.481  0.9868 -0.6521  0.7122
  852MOL0     C12394   2.303   1.210   3.493  0.3897  0.3100  1.0443
  852MOL0     C12395   2.398   1.217   3.604  0.4904 -0.3597  0.5451
  852MOL0     C12396   2.462   1.210   3.712  0.1376  0.0893  0.4955
  852MOL0     C12397   1.757   0.802   3.289  0.2717 -0.0667 -0.2485
  852MOL0     C12398   1.688   0.680   3.315 -0.6368 -0.1473  0.2289
  852MOL0     H12399   1.319   0.412   3.256  2.8507 -2.6293 -2.7203
  852MOL0     H12400   1.156   0.216   3.287  0.8605 -1.2611 -1.5707
  852MOL0     H12401   1.263  -0.088   3.281  0.0697  1.5520  0.4224
  852MOL0     H12402   1.118  -0.149   3.358  0.5119 -1.5224 -0.0352
  852MOL0     H12403   1.404  -0.177   3.438  2.9291 -3.2703 -0.7290
  852MOL0     H12404   1.283  -0.303   3.415  1.4922 -0.2510  0.3892
  852MOL0     H12405   1.188  -0.245   3.627  1.0019 -1.2103 -1.2472
  852MOL0     H12406   1.285  -0.099   3.652 -1.2016 -0.1568 -0.4768
  852MOL0     H12407   1.351  -0.388   3.661  4.7884 -2.1395 -1.1300
  852MOL0     H12408   1.480  -0.293   3.597  0.6325 -4.1323  0.6924
  852MOL0     H12409   1.479  -0.143   3.782 -2.0362  0.1921  0.7175
  852MOL0     H12410   1.519  -0.310   3.825  0.1406  0.2931 -0.8620
  852MOL0     H12411   1.264  -0.339   3.891  0.1846  0.5090 -2.1938
  852MOL0     H12412   1.253  -0.166   3.873 -0.5799 -0.7872  1.6717
  852MOL0     H12413   1.454  -0.164   4.036 -0.6718 -0.2757 -5.0490
  852MOL0     H12414   1.285  -0.176   4.101  1.6131  0.3321  3.0484
  852MOL0     H12415   1.290  -0.401   4.154  0.1201  1.2299  3.3127
  852MOL0     H12416   1.426  -0.329   4.222 -0.0095 -0.5460 -0.7849
  852MOL0     H12417   1.356  -0.606   3.988 -0.4035  1.1144 -1.2134
  852MOL0     H12418   1.504  -0.782   3.860  0.7883 -1.3471 -0.7202
  852MOL0     H12419   1.548  -0.840   4.017 -0.7567  2.0713  0.9247
  852MOL0     H12420   1.703  -0.894   3.842  1.0601 -0.0606  1.4950
  852MOL0     H12421   1.783  -0.799   3.978  3.0604  0.2124 -1.1984
  852MOL0     H12422   1.777  -0.600   3.837  1.5281  0.6444 -0.4109
  852MOL0     H12423   1.884  -0.721   3.781 -0.4969 -3.5549 -3.1765
  852MOL0     H12424   1.784  -0.772   3.592  0.2464 -1.5068  1.0492
  852MOL0     H12425   1.743  -0.605   3.607  2.1723  0.9518  0.7076
  852MOL0     H12426   1.331  -0.712   3.695  2.1595 -4.9318 -1.6186
  852MOL0     H12427   1.166  -0.636   3.537 -0.7377  1.4783 -1.1286
  852MOL0     H12428   1.309  -0.276   3.108  1.1153  1.2732 -2.0162
  852MOL0     H12429   1.157  -0.096   3.019  0.1025 -0.5723  0.3839
  852MOL0     H12430   0.995   0.082   2.936 -1.2297  0.2898 -1.5182
  852MOL0     H12431   0.983   0.027   3.100  2.6909  1.5682  0.0097
  852MOL0     H12432   0.733   0.048   2.934  0.7474  1.4302 -2.4398
  852MOL0     H12433   0.818   0.205   2.970 -3.3827  0.1086 -3.2717
  852MOL0     H12434   0.762   0.156   3.209 -0.1416  2.4382  0.0240
  852MOL0     H12435   0.720  -0.003   3.184  0.5949  0.0096 -1.0186
  852MOL0     H12436   0.545   0.236   3.114  2.3133  1.2033  0.5771
  852MOL0     H12437   0.511   0.061   3.065 -3.5856 -0.3798  1.8279
  852MOL0     H12438   0.563   0.038   3.341 -0.7854  2.6081  4.2771
  852MOL0     H12439   0.402   0.052   3.268  0.2081 -2.0266  2.8085
  852MOL0     H12440   0.594   0.267   3.369 -0.5459  2.1645 -1.5156
  852MOL0     H12441   0.471   0.192   3.468  0.2659  0.4108  0.7961
  852MOL0     H12442   0.390   0.354   3.231 -0.8055 -0.4323  0.8046
  852MOL0     H12443   0.293   0.268   3.349  0.3047 -1.0921 -1.0716
  852MOL0     H12444   0.427   0.429   3.515 -1.7312 -1.7016  1.4651
  852MOL0     H12445   0.279   0.469   3.437  1.1638  1.5852  0.2760
  852MOL0     H12446   0.834  -0.372   3.006  0.2343 -0.4085 -2.3889
  852MOL0     H12447   0.991  -0.557   3.072  0.5108 -1.6835  0.6218
  852MOL0     H12448   1.461  -0.620   3.219 -2.9483  1.2918 -0.9342
  852MOL0     H12449   1.644  -0.676   3.392  0.1583  2.6647 -1.4845
  852MOL0     H12450   1.406   0.029   3.567 -4.2531  0.3604  1.3577
  852MOL0     H12451   1.578   0.218   3.547  0.8122  4.6655 -0.9816
  852MOL0     H12452   1.935   0.464   3.343  1.5378  1.1277  0.3193
  852MOL0     H12453   2.065   0.651   3.332 -1.2387 -3.8868  1.3972
  852MOL0     H12454   2.170   0.879   3.298 -0.1138  0.0545  0.1963
  852MOL0     H12455   2.086   0.888   3.458 -3.9943 -3.0093 -0.4751
  852MOL0     H12456   2.177   1.114   3.283  1.0539  3.3867  1.3290
  852MOL0     H12457   2.057   1.133   3.405 -1.5056 -1.9664  1.4162
  852MOL0     H12458   2.327   0.994   3.465  0.4310 -0.9571 -0.7061
  852MOL0     H12459   2.213   1.041   3.581  0.2204 -3.8321 -0.3389
  852MOL0     H12460   2.366   1.234   3.407  1.3386 -0.9203  1.3779
  852MOL0     H12461   2.218   1.279   3.504 -0.2152  0.1149 -1.7452
  852MOL0     H12462   2.513   1.201   3.806 -0.5660  0.9121  0.9781
  852MOL0     H12463   1.697   0.892   3.274 -5.0565 -3.2552 -0.5254
  852MOL0     H12464   1.579   0.685   3.307 -0.6347 -2.2925 -3.4325
  853MOL0     O12465   5.955  10.259  10.656 -0.3920  0.3103 -0.1834
  853MOL0     C12466   6.037  10.181  10.602 -0.5446 -0.1130  0.6156
  853MOL0     O12467   6.013  10.053  10.562  0.7323  0.4242 -0.7309
  853MOL0     C12468   5.891   9.992  10.570 -0.2777 -0.7729 -0.4356
  853MOL0     C12469   5.903   9.861  10.617  0.1316  0.5275 -0.0158
  853MOL0     C12470   5.793   9.779  10.630  0.0064  0.8082  0.2892
  853MOL0     C12471   5.671   9.831  10.602  0.0450 -0.5058 -0.0861
  853MOL0     O12472   5.554   9.752  10.621  0.5949  1.1996 -0.2056
  853MOL0     C12473   5.575   9.649  10.718 -0.5452 -0.1300 -0.1285
  853MOL0     C12474   5.599   9.687  10.867 -0.5569  0.6022  0.0725
  853MOL0     C12475   5.530   9.829  10.884 -0.2022 -0.0315 -0.5295
  853MOL0     C12476   5.530   9.885  11.032 -0.8514  0.0089 -0.2622
  853MOL0     C12477   5.382   9.882  11.091 -0.4658  0.2665 -1.2800
  853MOL0     C12478   5.340   9.733  11.120  0.5186  0.0427  0.4010
  853MOL0     C12479   5.214   9.730  11.201  0.3130 -0.0255 -0.1841
  853MOL0     C12480   5.236   9.765  11.338 -0.5498 -0.0676 -0.2887
  853MOL0     N12481   5.117   9.744  11.415  0.2309 -0.1948  0.5693
  853MOL0     C12482   5.029   9.846  11.440  0.7565 -0.1088  0.3227
  853MOL0     C12483   4.919   9.780  11.464 -0.1892 -0.2836 -0.0752
  853MOL0     C12484   4.797   9.861  11.505 -0.3370  0.8239  0.1707
  853MOL0     C12485   4.667   9.784  11.522  0.1458  0.3482  0.5959
  853MOL0     C12486   4.657   9.723  11.664  0.5351 -0.1940 -0.1612
  853MOL0     C12487   4.754   9.625  11.721 -0.3742 -1.0447 -0.8356
  853MOL0     O12488   4.712   9.597  11.867 -0.2737 -0.1923  0.2685
  853MOL0     C12489   4.684   9.471  11.911 -0.3554 -0.4860  0.2720
  853MOL0     C12490   4.734   9.433  12.031  0.2255 -0.4746 -0.7737
  853MOL0     C12491   4.708   9.306  12.082  0.0885 -0.7136  0.1429
  853MOL0     C12492   4.632   9.212  12.006 -0.4563 -0.4133 -0.1731
  853MOL0     C12493   4.622   9.069  12.044 -0.8246 -0.1010  0.2808
  853MOL0     O12494   4.555   8.991  11.955  0.4421 -0.3321  0.5406
  853MOL0     C12495   4.566   8.856  11.971 -0.0535  0.4440  0.3718
  853MOL0     C12496   4.461   8.767  11.988 -0.8933 -0.6896 -0.8880
  853MOL0     C12497   4.478   8.622  11.984  0.4722  0.1093  0.3719
  853MOL0     C12498   4.607   8.576  11.971 -0.7386  0.5934  1.2038
  853MOL0     O12499   4.631   8.441  11.979  0.3822  0.0692 -0.1674
  853MOL0     C12500   4.587   8.360  11.866  0.8914 -0.3078 -0.7843
  853MOL0     C12501   4.524   8.225  11.896  0.7270 -0.0837  0.3272
  853MOL0     C12502   4.600   8.140  11.996  0.4040  0.6405 -0.1639
  853MOL0     C12503   4.547   7.997  12.006  0.8865  0.7875  0.3285
  853MOL0     C12504   4.409   7.984  12.072  0.4794  1.2952 -0.5878
  853MOL0     C12505   4.403   8.036  12.217 -0.5904 -0.5464  0.7853
  853MOL0     C12506   4.281   7.995  12.290 -0.4830  1.0827  0.1374
  853MOL0     C12507   4.252   8.070  12.414  1.0281  0.0976 -0.6933
  853MOL0    Cl12508   4.368   8.049  12.546 -0.4875  0.7805  0.5432
  853MOL0     C12509   4.715   8.661  11.954 -0.0395 -0.2137 -0.2442
  853MOL0     C12510   4.698   8.795  11.945 -0.5291 -0.0518  0.1224
  853MOL0     O12511   4.660   9.034  12.155 -0.6523  0.8450 -0.7045
  853MOL0     C12512   4.575   9.259  11.885 -0.5625  0.0154  0.0165
  853MOL0     C12513   4.608   9.388  11.834 -0.3316  0.3895 -0.2760
  853MOL0     N12514   4.936   9.646  11.467 -0.7492 -0.6283 -1.0815
  853MOL0     N12515   5.061   9.628  11.437 -1.1273  0.6590 -0.3492
  853MOL0     C12516   5.651   9.965  10.557 -1.0224 -0.3293 -0.3532
  853MOL0     C12517   5.771  10.049  10.551  0.0316  0.6614  0.4825
  853MOL0     C12518   6.173  10.245  10.596 -0.2191  0.6521 -0.3638
  853MOL0     C12519   6.193  10.379  10.633 -0.5530 -0.2971 -0.7151
  853MOL0     C12520   6.315  10.444  10.623 -0.3027 -0.1642 -0.2873
  853MOL0     C12521   6.428  10.369  10.575  0.2329  0.6712 -0.3016
  853MOL0     O12522   6.561  10.406  10.579  0.9804  0.1099  0.2235
  853MOL0     C12523   6.586  10.526  10.649  0.1053  0.4144  0.0573
  853MOL0     C12524   6.737  10.569  10.647  0.8835 -1.1502  0.3288
  853MOL0     C12525   6.749  10.710  10.702 -0.7190 -0.6729 -0.2596
  853MOL0     C12526   6.898  10.747  10.690 -0.1443  0.4350 -0.0997
  853MOL0     C12527   6.922  10.788  10.555 -0.4863 -0.9346  0.5170
  853MOL0     C12528   6.949  10.824  10.445  0.0385 -0.8087 -0.1941
  853MOL0     C12529   6.410  10.235  10.550  0.7742 -0.2755  0.2971
  853MOL0     C12530   6.284  10.175  10.544  0.2446 -0.3191  0.1185
  853MOL0     H12531   5.995   9.808  10.639 -0.3635 -1.2112 -1.8599
  853MOL0     H12532   5.818   9.675  10.647 -1.9945  0.2575  0.1349
  853MOL0     H12533   5.645   9.578  10.674  0.7330  0.6979  0.4767
  853MOL0     H12534   5.480   9.597  10.732 -0.1896 -1.0342 -1.0277
  853MOL0     H12535   5.706   9.691  10.889 -0.3176 -5.8215  2.3333
  853MOL0     H12536   5.554   9.603  10.921  0.6760  0.5826  1.1122
  853MOL0     H12537   5.433   9.849  10.838  0.7915  3.3795 -1.4348
  853MOL0     H12538   5.587   9.901  10.824 -0.1885 -1.4477 -2.2954
  853MOL0     H12539   5.599   9.826  11.092 -2.0059 -0.6222  0.4682
  853MOL0     H12540   5.552   9.992  11.034 -2.8932  0.5113  2.9124
  853MOL0     H12541   5.316   9.943  11.029 -2.0921  0.2617  0.3456
  853MOL0     H12542   5.401   9.931  11.187 -0.1771 -2.7368  0.2997
  853MOL0     H12543   5.413   9.669  11.172 -0.4858  1.2170  3.4663
  853MOL0     H12544   5.319   9.687  11.023 -3.8653  0.1249  1.1297
  853MOL0     H12545   5.142   9.803  11.161 -2.3141 -3.7704 -2.9173
  853MOL0     H12546   5.169   9.632  11.184  2.3774 -0.5496 -3.2990
  853MOL0     H12547   5.269   9.869  11.338 -1.7673  0.3451  0.0120
  853MOL0     H12548   5.311   9.698  11.381  0.7599  1.1368 -0.6254
  853MOL0     H12549   5.043   9.953  11.445 -0.4521  0.2344 -2.2068
  853MOL0     H12550   4.792   9.940  11.430  0.1598 -0.0247 -0.7810
  853MOL0     H12551   4.816   9.896  11.607  2.0794  0.8442 -0.2351
  853MOL0     H12552   4.673   9.707  11.444  4.1117  1.5437 -0.5452
  853MOL0     H12553   4.590   9.860  11.508 -1.4299 -1.5685 -2.0308
  853MOL0     H12554   4.646   9.799  11.742  1.3369 -0.1520 -0.0750
  853MOL0     H12555   4.557   9.680  11.659 -0.1651  0.9597  2.1198
  853MOL0     H12556   4.852   9.675  11.727 -2.5592  3.8560 -1.4094
  853MOL0     H12557   4.767   9.531  11.668  0.7027 -0.5622 -1.4644
  853MOL0     H12558   4.793   9.512  12.076 -0.0029  1.1937 -3.1568
  853MOL0     H12559   4.760   9.275  12.172  0.0267  1.1427  0.8630
  853MOL0     H12560   4.364   8.806  12.018 -0.3277 -0.3900  0.6316
  853MOL0     H12561   4.391   8.556  11.988 -2.2060  3.2848 -1.0431
  853MOL0     H12562   4.675   8.343  11.803 -0.3808  2.1066 -3.4364
  853MOL0     H12563   4.518   8.413  11.800  2.1840  1.7471 -0.5786
  853MOL0     H12564   4.516   8.166  11.804  1.3880 -2.7554  1.8645
  853MOL0     H12565   4.424   8.248  11.935  0.8653 -0.2345  0.7786
  853MOL0     H12566   4.587   8.190  12.092 -1.1355 -0.8803  0.4853
  853MOL0     H12567   4.707   8.138  11.973 -0.1245  2.9623 -3.3677
  853MOL0     H12568   4.540   7.938  11.914  3.5454 -0.2689  0.7079
  853MOL0     H12569   4.616   7.955  12.080  0.9478  2.3064  1.1836
  853MOL0     H12570   4.385   7.878  12.062  1.0975  0.9204  1.5775
  853MOL0     H12571   4.330   8.039  12.019  0.9832  2.6807  0.0585
  853MOL0     H12572   4.400   8.145  12.202  2.5971  0.1604  4.0329
  853MOL0     H12573   4.499   8.032  12.269  1.4172 -0.2790 -2.5704
  853MOL0     H12574   4.200   8.005  12.218  0.0942 -0.1048 -0.7136
  853MOL0     H12575   4.278   7.888  12.308 -0.9868  0.9573 -0.6311
  853MOL0     H12576   4.152   8.048  12.452  1.3042  0.4588  0.2602
  853MOL0     H12577   4.260   8.177  12.392 -0.8215  0.6437  1.0870
  853MOL0     H12578   4.816   8.632  11.926  0.3943  2.6514 -2.0970
  853MOL0     H12579   4.782   8.860  11.923  1.7563 -2.3395  1.5925
  853MOL0     H12580   4.520   9.189  11.822  0.4890 -1.9668  1.1947
  853MOL0     H12581   4.555   9.412  11.743 -1.8861 -0.6771  0.2983
  853MOL0     H12582   5.551  10.003  10.542 -1.2515 -0.7578  0.0611
  853MOL0     H12583   5.771  10.152  10.517 -3.0327  0.6110  0.1057
  853MOL0     H12584   6.118  10.449  10.669  2.2863  1.8867  1.4756
  853MOL0     H12585   6.324  10.548  10.651  3.7931 -0.9444  2.0240
  853MOL0     H12586   6.538  10.525  10.747  0.6682 -2.4679  0.3841
  853MOL0     H12587   6.528  10.603  10.600 -0.4910  0.2710  0.5259
  853MOL0     H12588   6.794  10.504  10.714  0.7188  0.4085  2.0352
  853MOL0     H12589   6.776  10.566  10.545  0.7737  1.0378  0.1825
  853MOL0     H12590   6.708  10.709  10.803 -0.6754 -3.0882 -0.2179
  853MOL0     H12591   6.680  10.775  10.647 -1.9555 -1.6484  0.0774
  853MOL0     H12592   6.929  10.838  10.743 -1.2038  0.3414  0.7160
  853MOL0     H12593   6.963  10.663  10.718 -1.3876 -0.0689  1.4003
  853MOL0     H12594   6.966  10.850  10.342 -3.7654 -0.9604 -1.0252
  853MOL0     H12595   6.489  10.169  10.515  1.1121  1.4545 -2.5445
  853MOL0     H12596   6.270  10.080  10.493 -1.3744 -0.5406  0.8944
  854MOL0     O12597   8.200   8.663   1.611 -0.1029  0.0414 -0.6601
  854MOL0     C12598   8.280   8.753   1.586  0.2291  0.0380 -0.3212
  854MOL0     O12599   8.269   8.839   1.477  0.4511  0.2970 -0.5839
  854MOL0     C12600   8.155   8.819   1.404  0.3020 -0.2334  0.9600
  854MOL0     C12601   8.163   8.757   1.280 -0.7690  0.1301  0.9646
  854MOL0     C12602   8.051   8.740   1.197 -0.3964 -0.2271  0.1947
  854MOL0     C12603   7.928   8.785   1.240  0.2368 -1.2967 -0.0837
  854MOL0     O12604   7.825   8.758   1.150 -0.3077  0.0440  0.6652
  854MOL0     C12605   7.686   8.811   1.181  0.5798  0.4269  0.3325
  854MOL0     C12606   7.580   8.737   1.093  0.3754 -0.2315  0.3249
  854MOL0     C12607   7.435   8.777   1.125 -0.4333 -0.7088  0.0331
  854MOL0     C12608   7.322   8.684   1.094  0.5098 -0.9162  0.1059
  854MOL0     C12609   7.203   8.763   1.039 -0.3343  0.3532 -0.2703
  854MOL0     C12610   7.101   8.673   0.972  0.4828 -0.8091  0.0532
  854MOL0     C12611   6.993   8.764   0.914 -0.7526  0.0507  0.2118
  854MOL0     C12612   6.863   8.675   0.860 -0.0013 -0.3239 -0.7234
  854MOL0     N12613   6.897   8.571   0.766 -0.6191  0.7635 -0.2774
  854MOL0     C12614   6.957   8.597   0.646 -0.0378  0.1754 -0.3209
  854MOL0     C12615   6.985   8.474   0.602 -0.0180 -0.6223  0.0841
  854MOL0     C12616   7.058   8.478   0.466 -0.2122 -0.9772  0.0396
  854MOL0     C12617   7.194   8.557   0.460  0.1110  0.2273 -0.5727
  854MOL0     C12618   7.234   8.576   0.309  0.0543 -1.1752 -0.4974
  854MOL0     C12619   7.254   8.441   0.236 -0.1513 -0.3503  0.4855
  854MOL0     O12620   7.335   8.453   0.118 -0.2462 -1.4037  0.0004
  854MOL0     C12621   7.468   8.463   0.136  0.8939 -0.6345  0.4389
  854MOL0     C12622   7.542   8.439   0.257 -0.3238  0.5296 -0.0500
  854MOL0     C12623   7.675   8.476   0.269 -0.3717 -0.3547 -0.2556
  854MOL0     C12624   7.753   8.516   0.165 -0.0658  0.2331  0.1696
  854MOL0     C12625   7.897   8.554   0.185  0.0889 -0.6914 -0.3950
  854MOL0     O12626   7.950   8.552   0.304  0.5106  0.0406 -0.3964
  854MOL0     C12627   8.078   8.563   0.325 -0.3815 -0.0685 -0.4041
  854MOL0     C12628   8.113   8.627   0.441 -0.9111 -0.5463 -0.8545
  854MOL0     C12629   8.243   8.649   0.474 -0.0216 -0.0848  1.0332
  854MOL0     C12630   8.344   8.617   0.380 -0.8236  0.6586  0.3824
  854MOL0     O12631   8.480   8.648   0.400  0.4898 -0.6071  0.1693
  854MOL0     C12632   8.512   8.771   0.338 -0.2852  0.6036  0.1218
  854MOL0     C12633   8.666   8.776   0.321  1.0189  0.3515 -1.3299
  854MOL0     C12634   8.718   8.789   0.177 -0.1672 -0.6535  0.3928
  854MOL0     C12635   8.716   8.662   0.093  0.2056  1.6741 -0.1972
  854MOL0     C12636   8.817   8.659  -0.020  0.5825 -0.0029  0.1835
  854MOL0     C12637   8.966   8.657   0.017  0.3428 -0.3868  0.0944
  854MOL0     C12638   9.066   8.620  -0.093 -0.4452 -0.8544 -0.4793
  854MOL0     C12639   9.144   8.742  -0.147 -0.0369 -0.4497  0.2934
  854MOL0    Cl12640   9.227   8.816  -0.002  0.3004 -0.5125  0.4173
  854MOL0     C12641   8.313   8.534   0.269 -1.1105 -0.6312 -0.1337
  854MOL0     C12642   8.179   8.511   0.245 -0.1292  0.2539 -1.1030
  854MOL0     O12643   7.959   8.594   0.086  0.1438  0.1338  0.5337
  854MOL0     C12644   7.684   8.530   0.040  0.4473 -0.4390  0.3563
  854MOL0     C12645   7.545   8.509   0.030 -0.2718  0.3031  0.0757
  854MOL0     N12646   6.932   8.371   0.677  0.0784  0.2821  0.0077
  854MOL0     N12647   6.876   8.433   0.773 -0.6225 -0.3280  0.1845
  854MOL0     C12648   7.928   8.852   1.372 -1.0384 -0.0208 -0.1553
  854MOL0     C12649   8.038   8.874   1.450 -0.1907  1.1371  0.0802
  854MOL0     C12650   8.397   8.763   1.683 -0.4546 -0.5901  0.1484
  854MOL0     C12651   8.490   8.875   1.681  0.0481 -0.5343  0.1500
  854MOL0     C12652   8.602   8.887   1.768  0.3492 -0.4673  0.1138
  854MOL0     C12653   8.607   8.789   1.873  0.4778 -0.1910 -0.0591
  854MOL0     O12654   8.695   8.804   1.983 -0.0650 -0.4547  0.2962
  854MOL0     C12655   8.723   8.934   2.018 -0.3589 -0.0048  0.1928
  854MOL0     C12656   8.773   8.952   2.161 -0.6673 -0.3694 -0.3969
  854MOL0     C12657   8.929   8.943   2.183  0.2384  0.3040  1.2732
  854MOL0     C12658   8.981   8.807   2.217  0.7967 -0.1775 -0.0524
  854MOL0     C12659   9.123   8.812   2.253  0.3791 -0.3385  0.2003
  854MOL0     C12660   9.240   8.832   2.286  0.9065  0.0141 -0.6073
  854MOL0     C12661   8.516   8.681   1.872 -0.0535 -0.3733  0.0413
  854MOL0     C12662   8.418   8.657   1.777 -0.4305 -0.1650  0.0011
  854MOL0     H12663   8.262   8.726   1.247 -0.7651  1.3272 -0.2459
  854MOL0     H12664   8.056   8.701   1.096 -1.8371  2.2547 -0.9179
  854MOL0     H12665   7.678   8.920   1.168 -0.7881  0.3725  0.6229
  854MOL0     H12666   7.667   8.782   1.284  2.3779 -1.7881  0.0978
  854MOL0     H12667   7.582   8.631   1.121 -1.8988 -1.5204 -3.6105
  854MOL0     H12668   7.595   8.744   0.985  0.2777  0.6293  0.3624
  854MOL0     H12669   7.430   8.874   1.074 -1.4880 -0.3467  0.7856
  854MOL0     H12670   7.420   8.805   1.230  0.6262  1.3734 -0.3139
  854MOL0     H12671   7.349   8.600   1.029  1.8727 -0.7767  0.4527
  854MOL0     H12672   7.287   8.638   1.187 -3.8534  0.8177 -0.4748
  854MOL0     H12673   7.236   8.839   0.967 -1.0360  0.9956  0.0719
  854MOL0     H12674   7.155   8.824   1.116  0.3801  0.2908  0.2317
  854MOL0     H12675   7.063   8.591   1.034 -1.2966 -0.5191 -0.5985
  854MOL0     H12676   7.150   8.620   0.889 -1.9359 -1.9418 -0.7295
  854MOL0     H12677   6.967   8.839   0.990  1.6625 -2.0610  3.3384
  854MOL0     H12678   7.038   8.810   0.825  0.4181 -0.0138  0.7503
  854MOL0     H12679   6.789   8.732   0.804  0.9153  0.3162 -1.3157
  854MOL0     H12680   6.806   8.626   0.940  0.1435 -3.2103 -2.2403
  854MOL0     H12681   6.995   8.693   0.611  2.0451 -0.9045 -1.1518
  854MOL0     H12682   6.989   8.530   0.397  0.4669  2.7615  1.8989
  854MOL0     H12683   7.086   8.375   0.445  0.2482 -1.2566  1.8744
  854MOL0     H12684   7.272   8.497   0.508  0.8382  0.5824 -1.2903
  854MOL0     H12685   7.181   8.656   0.505 -1.0826 -0.1269 -0.1050
  854MOL0     H12686   7.157   8.633   0.256  0.0385 -0.4340  0.3019
  854MOL0     H12687   7.328   8.631   0.297 -0.3663 -0.6952 -1.8309
  854MOL0     H12688   7.159   8.402   0.198 -0.2112  2.2621 -2.5751
  854MOL0     H12689   7.290   8.372   0.312  0.9579  0.2531  0.5254
  854MOL0     H12690   7.485   8.401   0.341 -1.1955  0.3898 -0.6894
  854MOL0     H12691   7.731   8.463   0.361 -0.9943 -2.4785 -0.1238
  854MOL0     H12692   8.035   8.654   0.511 -2.5024 -2.0259 -1.9720
  854MOL0     H12693   8.278   8.702   0.563 -0.7159  0.4305  1.0067
  854MOL0     H12694   8.482   8.853   0.404  2.6243  1.3917  0.6408
  854MOL0     H12695   8.464   8.777   0.240 -1.7404 -0.8934  0.7046
  854MOL0     H12696   8.709   8.685   0.365 -4.6871 -0.8592  2.8999
  854MOL0     H12697   8.711   8.862   0.372  1.9021 -0.9357  0.1790
  854MOL0     H12698   8.819   8.830   0.176 -0.4360  0.6906 -5.1211
  854MOL0     H12699   8.667   8.871   0.126  2.1985  1.8317  1.7579
  854MOL0     H12700   8.737   8.581   0.163 -2.4021  0.5342 -0.6166
  854MOL0     H12701   8.623   8.635   0.043 -0.8575  0.9646  2.0414
  854MOL0     H12702   8.789   8.746  -0.079  0.2822 -1.2363 -1.6045
  854MOL0     H12703   8.786   8.577  -0.086 -0.6283  2.2901 -2.2925
  854MOL0     H12704   8.967   8.588   0.102  0.9236 -0.6704 -0.1395
  854MOL0     H12705   8.989   8.757   0.056 -1.0372  1.7562 -3.9838
  854MOL0     H12706   9.138   8.554  -0.042 -0.0555 -0.8754 -1.0544
  854MOL0     H12707   9.014   8.566  -0.173 -2.0650  0.6128 -0.4730
  854MOL0     H12708   9.062   8.803  -0.186  0.2006 -2.6683 -4.3613
  854MOL0     H12709   9.218   8.727  -0.227 -2.0677  3.2285 -2.5698
  854MOL0     H12710   8.394   8.495   0.208 -0.5702  0.5736 -0.2038
  854MOL0     H12711   8.151   8.452   0.159 -2.4900  1.0858 -0.9718
  854MOL0     H12712   7.743   8.572  -0.041 -0.3378  1.4298  0.7090
  854MOL0     H12713   7.491   8.506  -0.064  1.3615  0.0114 -0.8950
  854MOL0     H12714   7.837   8.898   1.411 -1.1344  0.0600 -0.4785
  854MOL0     H12715   8.036   8.910   1.552 -0.3578  0.8266  0.1877
  854MOL0     H12716   8.470   8.960   1.617  1.2365  0.3957  0.9677
  854MOL0     H12717   8.671   8.971   1.774  0.8624 -0.4530 -3.7147
  854MOL0     H12718   8.629   8.990   2.007 -0.7206 -0.0579  2.5982
  854MOL0     H12719   8.809   8.965   1.958 -1.1489 -0.5108 -1.2724
  854MOL0     H12720   8.745   9.053   2.192 -1.8476 -0.7432 -0.2192
  854MOL0     H12721   8.718   8.874   2.214  0.0337 -2.9532 -3.1764
  854MOL0     H12722   8.942   9.005   2.272  3.1578 -3.3435  3.6765
  854MOL0     H12723   8.991   8.979   2.100 -0.3407  1.8717  1.4976
  854MOL0     H12724   8.915   8.752   2.284 -3.4379  0.4255 -3.3059
  854MOL0     H12725   8.967   8.745   2.128 -0.2522  1.4745 -1.0949
  854MOL0     H12726   9.343   8.835   2.317  0.8543  0.6599 -0.4974
  854MOL0     H12727   8.528   8.597   1.939  1.2892 -2.4346 -2.6141
  854MOL0     H12728   8.351   8.572   1.777 -2.3529  1.2781  1.2539
  855MOL0     O12729   9.867   0.147   5.900 -0.7543  0.4000 -0.8024
  855MOL0     C12730   9.796   0.095   5.983  0.2489  0.0315  0.2916
  855MOL0     O12731   9.760  -0.036   5.989  0.3971 -0.3641  0.1971
  855MOL0     C12732   9.854  -0.131   5.954  0.3157 -0.3856  0.6999
  855MOL0     C12733   9.810  -0.236   5.873  0.1743 -0.0234 -0.1803
  855MOL0     C12734   9.900  -0.337   5.836 -0.2089  0.1455 -0.4872
  855MOL0     C12735  10.033  -0.334   5.866  0.8192  0.1470  0.1092
  855MOL0     O12736  10.127  -0.417   5.813 -1.0627 -0.3205 -0.2581
  855MOL0     C12737  10.150  -0.433   5.664 -0.1044  0.3901  0.3096
  855MOL0     C12738  10.265  -0.524   5.617 -0.7651 -0.4241 -0.4396
  855MOL0     C12739  10.399  -0.496   5.686  0.8331  0.4432  0.5319
  855MOL0     C12740  10.441  -0.349   5.660 -0.5044 -1.2847  0.1783
  855MOL0     C12741  10.571  -0.310   5.723 -0.4335  0.4228 -0.0532
  855MOL0     C12742  10.689  -0.304   5.617  0.0611  0.0904  0.1338
  855MOL0     C12743  10.825  -0.280   5.692 -0.9306 -0.0373  0.4185
  855MOL0     C12744  10.876  -0.400   5.772 -1.5208  0.0393  0.8093
  855MOL0     N12745  10.833  -0.406   5.913 -0.1493 -0.5703  0.3815
  855MOL0     C12746  10.828  -0.300   6.004 -0.6514  0.2019 -0.4702
  855MOL0     C12747  10.764  -0.358   6.114  0.1356  0.6691  0.4577
  855MOL0     C12748  10.733  -0.277   6.237 -0.2326  0.2041 -0.2019
  855MOL0     C12749  10.595  -0.303   6.301 -0.2803 -1.0986 -0.1198
  855MOL0     C12750  10.492  -0.343   6.201  1.6735 -0.3340  0.3599
  855MOL0     C12751  10.350  -0.367   6.258  0.0171  0.6677  0.0267
  855MOL0     O12752  10.340  -0.510   6.279 -0.6914 -0.2468 -0.8904
  855MOL0     C12753  10.306  -0.580   6.175  0.6302  0.7494 -0.7958
  855MOL0     C12754  10.165  -0.587   6.156 -0.2536  0.3936 -0.0786
  855MOL0     C12755  10.114  -0.673   6.057  0.1349  0.3209  0.6756
  855MOL0     C12756  10.199  -0.766   5.986 -0.2246  0.0580 -0.9783
  855MOL0     C12757  10.136  -0.865   5.893  0.0893  0.5462 -0.4456
  855MOL0     O12758  10.208  -0.944   5.803 -0.1671  0.1677 -0.3781
  855MOL0     C12759  10.134  -1.013   5.702 -0.2871 -0.4177 -0.5151
  855MOL0     C12760  10.178  -1.145   5.700  0.1293 -0.4032  0.3223
  855MOL0     C12761  10.128  -1.223   5.598  0.2528 -0.8468  0.3707
  855MOL0     C12762  10.033  -1.179   5.507 -0.9480  0.2275 -0.5501
  855MOL0     O12763   9.960  -1.265   5.429  0.1013  0.0301  0.6077
  855MOL0     C12764   9.900  -1.231   5.297 -0.9826 -0.2498  0.3011
  855MOL0     C12765   9.745  -1.203   5.297 -0.7788 -0.4464  0.1578
  855MOL0     C12766   9.681  -1.257   5.179 -0.4811  0.0456 -0.1009
  855MOL0     C12767   9.706  -1.181   5.044  1.1471 -0.1743  0.6503
  855MOL0     C12768   9.655  -1.254   4.920  0.5684  0.7484 -0.4460
  855MOL0     C12769   9.497  -1.276   4.904 -0.0355 -0.0950  0.9300
  855MOL0     C12770   9.419  -1.153   4.857 -0.3400 -0.0124 -0.1829
  855MOL0     C12771   9.264  -1.187   4.874 -0.2773 -0.6284 -0.2476
  855MOL0    Cl12772   9.159  -1.035   4.868  0.3061 -0.4839 -0.2164
  855MOL0     C12773   9.990  -1.053   5.512 -0.1498 -0.4546 -0.9103
  855MOL0     C12774  10.038  -0.967   5.615  0.4813  0.0684  0.8809
  855MOL0     O12775  10.013  -0.873   5.913  0.6397  0.7913 -0.1916
  855MOL0     C12776  10.333  -0.750   6.006 -0.0217 -0.1281 -0.1888
  855MOL0     C12777  10.387  -0.656   6.097 -0.2965  0.3222  0.4646
  855MOL0     N12778  10.739  -0.493   6.084  0.0487  0.0020  0.0933
  855MOL0     N12779  10.779  -0.519   5.958  0.2188 -0.1163 -0.1118
  855MOL0     C12780  10.077  -0.231   5.950  0.3242 -0.2464  0.2930
  855MOL0     C12781   9.994  -0.129   5.992  0.3601  0.5593 -0.2094
  855MOL0     C12782   9.741   0.172   6.097 -0.9606  0.9108 -0.0955
  855MOL0     C12783   9.683   0.295   6.073  0.8762 -0.0669  0.1620
  855MOL0     C12784   9.614   0.364   6.171 -0.3590 -0.6546 -0.6052
  855MOL0     C12785   9.595   0.313   6.300  0.0117  0.4297  0.6639
  855MOL0     O12786   9.509   0.367   6.398 -0.5982  0.6188 -0.0615
  855MOL0     C12787   9.498   0.506   6.408 -0.2340  0.5108 -0.1498
  855MOL0     C12788   9.477   0.549   6.551  0.5566  0.0423  0.8327
  855MOL0     C12789   9.357   0.634   6.565  0.7109  0.1719  0.0031
  855MOL0     C12790   9.358   0.779   6.507 -0.1932  0.0051  0.3411
  855MOL0     C12791   9.469   0.858   6.557 -0.3660 -0.1795 -0.4027
  855MOL0     C12792   9.576   0.894   6.605 -0.6849  0.7709 -0.5066
  855MOL0     C12793   9.658   0.190   6.332  0.2467  0.9335  0.6440
  855MOL0     C12794   9.722   0.119   6.226  1.1869 -0.5505 -0.3315
  855MOL0     H12795   9.703  -0.235   5.854 -0.1251 -1.5304  1.2051
  855MOL0     H12796   9.855  -0.418   5.779  0.5567 -0.9656  0.4379
  855MOL0     H12797  10.152  -0.335   5.615 -2.0310 -0.3307 -1.3599
  855MOL0     H12798  10.062  -0.485   5.627  0.9737 -0.2343 -1.5208
  855MOL0     H12799  10.279  -0.506   5.509  0.5052  0.1085 -0.2066
  855MOL0     H12800  10.249  -0.632   5.625  3.2009 -1.2059 -0.8686
  855MOL0     H12801  10.476  -0.563   5.646  0.7405  0.7602 -0.1845
  855MOL0     H12802  10.386  -0.528   5.790 -1.1365 -2.9038 -0.5607
  855MOL0     H12803  10.438  -0.319   5.555 -1.1801  3.1970  1.2605
  855MOL0     H12804  10.369  -0.287   5.715  0.4222  1.2946 -1.3383
  855MOL0     H12805  10.603  -0.372   5.807  3.9696 -2.3442 -3.3147
  855MOL0     H12806  10.562  -0.210   5.765  1.3508  0.3402  0.5946
  855MOL0     H12807  10.689  -0.223   5.544  4.3648  1.9373  1.8700
  855MOL0     H12808  10.695  -0.401   5.566 -0.3311  0.2370 -0.1934
  855MOL0     H12809  10.905  -0.267   5.619 -0.5564 -1.2553  0.5819
  855MOL0     H12810  10.826  -0.192   5.756  2.0963 -0.6065  1.3189
  855MOL0     H12811  10.985  -0.405   5.771 -1.5007 -0.7343 -2.0102
  855MOL0     H12812  10.862  -0.494   5.717  1.4154 -0.4220  0.7110
  855MOL0     H12813  10.844  -0.194   5.991 -1.9251  1.5943  5.8201
  855MOL0     H12814  10.750  -0.171   6.220  0.6929 -0.1122 -1.3603
  855MOL0     H12815  10.816  -0.298   6.306  2.0836 -0.3759 -2.9731
  855MOL0     H12816  10.570  -0.202   6.335 -1.4963  0.2262 -4.3700
  855MOL0     H12817  10.612  -0.381   6.376 -0.4759 -0.8708  0.1607
  855MOL0     H12818  10.478  -0.245   6.153  3.3709  0.2511  0.9727
  855MOL0     H12819  10.508  -0.426   6.131 -1.3868 -1.1237  0.4541
  855MOL0     H12820  10.279  -0.329   6.184 -0.7815 -1.3540 -0.3029
  855MOL0     H12821  10.324  -0.322   6.354 -3.1346  0.5159 -0.6550
  855MOL0     H12822  10.092  -0.535   6.215 -0.1911 -2.1364  2.4491
  855MOL0     H12823  10.007  -0.668   6.044  0.2800  3.8240 -0.2658
  855MOL0     H12824  10.254  -1.179   5.770  0.5463 -1.3243 -0.5576
  855MOL0     H12825  10.158  -1.327   5.594  1.6408 -0.7001  3.8167
  855MOL0     H12826   9.906  -1.330   5.250  1.3289  0.7355 -1.7019
  855MOL0     H12827   9.964  -1.163   5.239  1.5437 -3.2917 -0.7919
  855MOL0     H12828   9.732  -1.095   5.313  0.4986 -0.0899 -1.0634
  855MOL0     H12829   9.706  -1.249   5.388  1.1163 -3.0358 -0.2382
  855MOL0     H12830   9.573  -1.253   5.194 -0.6869  2.8154 -1.6721
  855MOL0     H12831   9.708  -1.363   5.170 -1.7312 -0.2804 -0.2975
  855MOL0     H12832   9.663  -1.082   5.060  0.5284 -0.8272  3.7304
  855MOL0     H12833   9.814  -1.167   5.032  1.2698  2.4173  3.4428
  855MOL0     H12834   9.695  -1.356   4.921 -1.5482 -0.1460 -0.2053
  855MOL0     H12835   9.683  -1.194   4.833  0.2761  2.2202  0.4525
  855MOL0     H12836   9.465  -1.319   5.000 -0.0898 -2.6950 -0.1710
  855MOL0     H12837   9.491  -1.355   4.828 -1.0074  1.1176 -0.2957
  855MOL0     H12838   9.435  -1.061   4.914  0.5392 -0.3929  0.1971
  855MOL0     H12839   9.427  -1.140   4.749 -5.0121  0.7158 -0.6414
  855MOL0     H12840   9.254  -1.241   4.968  0.4053  0.9268  0.7513
  855MOL0     H12841   9.246  -1.258   4.793 -1.2333 -2.0161  1.1255
  855MOL0     H12842   9.914  -1.009   5.449 -1.4054 -0.9693  0.1945
  855MOL0     H12843   9.988  -0.871   5.626  1.1793  0.2421  3.2228
  855MOL0     H12844  10.391  -0.806   5.933  0.0196 -1.0388  0.5252
  855MOL0     H12845  10.494  -0.650   6.113 -0.4707 -0.4975  2.1084
  855MOL0     H12846  10.183  -0.220   5.968  1.1125 -1.3473 -2.9637
  855MOL0     H12847  10.035  -0.054   6.059  0.4711 -1.5923  2.3268
  855MOL0     H12848   9.691   0.328   5.970 -0.0183 -0.5560 -0.0753
  855MOL0     H12849   9.546   0.441   6.139  1.6486  0.6532 -1.9306
  855MOL0     H12850   9.423   0.546   6.339 -0.1455 -3.0690 -2.5413
  855MOL0     H12851   9.579   0.571   6.373 -1.0949  1.6283 -0.1200
  855MOL0     H12852   9.471   0.460   6.615 -1.7940  0.3807  1.1818
  855MOL0     H12853   9.562   0.607   6.589 -0.1027 -0.2060  2.8480
  855MOL0     H12854   9.336   0.656   6.670 -0.7345  1.0636 -0.4444
  855MOL0     H12855   9.264   0.592   6.525  0.1562  2.7316 -1.6631
  855MOL0     H12856   9.364   0.767   6.398 -2.3600 -2.7307  0.4004
  855MOL0     H12857   9.261   0.828   6.525 -0.8458 -0.3872 -1.7361
  855MOL0     H12858   9.674   0.922   6.639  0.9449 -0.6230 -3.6235
  855MOL0     H12859   9.649   0.151   6.433  1.5574 -2.0568 -0.2761
  855MOL0     H12860   9.762   0.022   6.254 -2.7905 -1.9456  1.1788
  856MOL0     O12861   8.887   0.581   6.441 -0.0183 -0.2123  0.4813
  856MOL0     C12862   8.948   0.549   6.342 -0.6882 -0.2237  0.9295
  856MOL0     O12863   9.017   0.634   6.260 -0.8849  1.0871  0.2842
  856MOL0     C12864   9.023   0.774   6.279  0.0017  0.0102  0.1155
  856MOL0     C12865   9.120   0.859   6.240  0.0351  0.3448  0.4884
  856MOL0     C12866   9.145   0.985   6.286  0.3598 -0.4072  0.3041
  856MOL0     C12867   9.054   1.050   6.355 -0.6227 -0.4596  0.0838
  856MOL0     O12868   9.055   1.170   6.419  0.3237  0.5605  0.1722
  856MOL0     C12869   9.186   1.231   6.439  0.4631 -0.0605  0.1035
  856MOL0     C12870   9.175   1.383   6.460 -0.2105  0.0319 -0.0120
  856MOL0     C12871   9.128   1.430   6.594  0.1679  0.0150  1.1087
  856MOL0     C12872   8.972   1.422   6.607 -0.0880 -0.9852 -0.7874
  856MOL0     C12873   8.920   1.486   6.735 -0.2355  0.5110 -0.9914
  856MOL0     C12874   8.767   1.518   6.732 -0.9347 -0.3276  0.0946
  856MOL0     C12875   8.708   1.592   6.851  0.2519  0.5439 -0.0688
  856MOL0     C12876   8.752   1.733   6.851  0.0823 -1.1161 -0.7839
  856MOL0     N12877   8.676   1.815   6.958 -0.2193 -0.2936 -0.9610
  856MOL0     C12878   8.693   1.828   7.095 -0.8678 -0.4533  0.3513
  856MOL0     C12879   8.589   1.906   7.138 -0.3085  0.2979  0.5447
  856MOL0     C12880   8.573   1.939   7.288 -0.6872 -0.5243  0.3332
  856MOL0     C12881   8.584   2.085   7.312 -0.5088  0.3857  0.9186
  856MOL0     C12882   8.653   2.111   7.448 -0.2487 -0.2943 -0.7351
  856MOL0     C12883   8.642   2.263   7.487 -0.3409  1.0389 -0.2712
  856MOL0     O12884   8.689   2.278   7.623 -0.2504  0.8567  0.3322
  856MOL0     C12885   8.665   2.393   7.689  0.6654 -0.2801  0.4594
  856MOL0     C12886   8.677   2.379   7.827 -0.8149 -0.6340  0.1769
  856MOL0     C12887   8.628   2.473   7.917  0.0605 -0.5000  0.2612
  856MOL0     C12888   8.588   2.595   7.865 -0.8179 -0.6175 -0.1399
  856MOL0     C12889   8.534   2.693   7.957  0.6648 -0.6616 -0.6828
  856MOL0     O12890   8.485   2.643   8.068 -0.1843 -1.2692 -0.6936
  856MOL0     C12891   8.433   2.737   8.167  0.4409  0.2539  0.6563
  856MOL0     C12892   8.529   2.801   8.246 -0.2273  1.5996 -0.1479
  856MOL0     C12893   8.488   2.868   8.361  0.7473 -0.0373 -0.3971
  856MOL0     C12894   8.355   2.876   8.386  0.2628 -0.3648 -0.4448
  856MOL0     O12895   8.329   2.949   8.499 -0.0603  0.3325 -0.2106
  856MOL0     C12896   8.196   2.935   8.544  1.0632 -0.8079  0.5413
  856MOL0     C12897   8.186   3.027   8.666 -0.1213  0.0082  0.4426
  856MOL0     C12898   8.219   3.177   8.637 -0.0692 -0.5518  0.4698
  856MOL0     C12899   8.165   3.265   8.742 -0.4065  0.0078  0.2742
  856MOL0     C12900   8.013   3.285   8.742 -0.1546 -0.1407 -0.7966
  856MOL0     C12901   7.963   3.395   8.837  0.1132 -0.5329 -0.9224
  856MOL0     C12902   8.018   3.379   8.976 -0.0488 -0.1870  0.8097
  856MOL0     C12903   7.947   3.479   9.068 -0.0705 -0.4756  0.1190
  856MOL0    Cl12904   7.952   3.644   8.997  0.3635 -0.1341 -0.1135
  856MOL0     C12905   8.262   2.811   8.304  0.1306  0.0529 -0.1752
  856MOL0     C12906   8.301   2.732   8.204  0.0055  0.3710 -0.2868
  856MOL0     O12907   8.524   2.808   7.912 -0.2477 -0.7547 -0.8245
  856MOL0     C12908   8.594   2.623   7.728  0.4010 -0.1426  0.2654
  856MOL0     C12909   8.623   2.520   7.640  0.5174 -1.3144 -0.0899
  856MOL0     N12910   8.520   1.940   7.025  1.0166  0.6310  0.3365
  856MOL0     N12911   8.569   1.887   6.918  0.6903  0.2947  0.4509
  856MOL0     C12912   8.940   0.979   6.386 -0.4063 -0.9112  0.0393
  856MOL0     C12913   8.925   0.849   6.343  0.3766  0.1565  0.0494
  856MOL0     C12914   8.954   0.398   6.315  0.1653  0.1118  0.2345
  856MOL0     C12915   8.957   0.354   6.175 -0.6004 -0.9557 -0.2331
  856MOL0     C12916   8.953   0.224   6.136 -0.0072 -0.6640  0.9058
  856MOL0     C12917   8.927   0.125   6.242  0.1839  0.2778 -0.2951
  856MOL0     O12918   8.899  -0.009   6.214  0.4492 -0.2207 -0.0981
  856MOL0     C12919   8.786  -0.015   6.121  0.2313  0.1869  0.1265
  856MOL0     C12920   8.747  -0.165   6.126 -0.2306 -0.0382  0.6206
  856MOL0     C12921   8.849  -0.248   6.051 -0.1747  0.0540  0.4924
  856MOL0     C12922   8.818  -0.397   6.042 -0.6218 -0.3646 -0.7335
  856MOL0     C12923   8.696  -0.433   5.973  0.1621 -0.4102 -1.0980
  856MOL0     C12924   8.598  -0.488   5.920 -1.0183 -0.4654 -0.1336
  856MOL0     C12925   8.929   0.170   6.379  0.0272  0.3807 -0.7531
  856MOL0     C12926   8.939   0.311   6.415  0.9713  0.5871  0.1309
  856MOL0     H12927   9.200   0.813   6.183  0.4786  1.6020  0.0700
  856MOL0     H12928   9.236   1.031   6.250  0.1362 -0.8030 -0.8281
  856MOL0     H12929   9.256   1.228   6.355  2.2979  0.1910  1.5377
  856MOL0     H12930   9.227   1.182   6.528  0.8946  1.4985  0.8190
  856MOL0     H12931   9.123   1.423   6.372 -2.2711 -3.5639 -0.6052
  856MOL0     H12932   9.278   1.417   6.443 -0.2503  1.5165  2.2473
  856MOL0     H12933   9.172   1.528   6.615 -0.0579  1.6622 -4.4692
  856MOL0     H12934   9.177   1.362   6.664  0.7673 -3.3149 -2.2177
  856MOL0     H12935   8.915   1.456   6.520 -1.4268  0.6775  0.6635
  856MOL0     H12936   8.953   1.316   6.627  1.2843 -1.0024  0.6467
  856MOL0     H12937   8.981   1.576   6.747 -1.7566  1.4478  0.0331
  856MOL0     H12938   8.948   1.441   6.831  2.9681  2.2147 -0.9933
  856MOL0     H12939   8.713   1.423   6.725 -0.2087 -0.7453  0.1339
  856MOL0     H12940   8.740   1.577   6.644 -0.3494  0.2224  0.2754
  856MOL0     H12941   8.599   1.592   6.845  0.2967  0.6842 -1.2043
  856MOL0     H12942   8.729   1.543   6.946 -1.6567 -0.7047 -0.2380
  856MOL0     H12943   8.737   1.771   6.749  0.6473 -0.2699 -0.5553
  856MOL0     H12944   8.860   1.737   6.866  0.1590  0.6415 -1.5344
  856MOL0     H12945   8.748   1.750   7.147 -2.1121 -1.6583 -0.0652
  856MOL0     H12946   8.646   1.885   7.351 -0.3131 -0.0170  0.3441
  856MOL0     H12947   8.475   1.901   7.318 -1.4421 -0.4183 -1.8987
  856MOL0     H12948   8.488   2.137   7.303 -0.8118 -0.1394  1.0917
  856MOL0     H12949   8.657   2.114   7.236 -1.5239 -0.3458 -0.3691
  856MOL0     H12950   8.600   2.050   7.522  0.7406  1.9541  1.9695
  856MOL0     H12951   8.757   2.077   7.442 -0.1670 -0.0779 -0.5194
  856MOL0     H12952   8.533   2.276   7.493 -0.7585 -1.7604 -0.3401
  856MOL0     H12953   8.685   2.328   7.411  0.2143  0.8957 -0.0832
  856MOL0     H12954   8.718   2.284   7.858 -0.0181 -0.2169  0.4253
  856MOL0     H12955   8.630   2.465   8.025 -1.2847  0.4430  0.3940
  856MOL0     H12956   8.635   2.794   8.225 -0.6530 -0.3584 -1.9546
  856MOL0     H12957   8.555   2.914   8.434 -0.2065  1.9433 -0.7021
  856MOL0     H12958   8.173   2.831   8.570 -1.1924 -0.7318 -0.8330
  856MOL0     H12959   8.116   2.969   8.477  0.7103 -3.1569 -0.3447
  856MOL0     H12960   8.253   2.997   8.747  0.0278 -0.4175  0.1639
  856MOL0     H12961   8.082   3.022   8.701 -0.1781  1.5396  0.5566
  856MOL0     H12962   8.189   3.220   8.540  1.3149  1.7835  1.0008
  856MOL0     H12963   8.328   3.186   8.645  0.0985  1.2086 -2.3019
  856MOL0     H12964   8.203   3.231   8.839  1.2381  0.2957 -0.2404
  856MOL0     H12965   8.211   3.364   8.743  1.5502 -0.8566 -0.4003
  856MOL0     H12966   7.965   3.193   8.777  0.1103  0.2740  0.7094
  856MOL0     H12967   7.966   3.312   8.647  0.2968  1.8209 -0.5123
  856MOL0     H12968   7.854   3.402   8.844  0.0713  2.0962 -2.7520
  856MOL0     H12969   7.997   3.488   8.790 -2.0627 -0.3784 -2.3479
  856MOL0     H12970   7.997   3.276   9.008 -3.5216  0.5459  1.2969
  856MOL0     H12971   8.122   3.414   8.979  1.0219 -3.0231  0.0418
  856MOL0     H12972   7.985   3.455   9.167  2.3938 -0.1347 -0.6837
  856MOL0     H12973   7.840   3.457   9.080 -0.5544  1.4080 -0.3522
  856MOL0     H12974   8.160   2.831   8.334 -0.2902  0.6921 -1.8724
  856MOL0     H12975   8.224   2.680   8.149 -1.6569  0.1640  2.0751
  856MOL0     H12976   8.559   2.723   7.703  0.8324 -0.4735 -1.7556
  856MOL0     H12977   8.618   2.544   7.534 -0.1806  3.1038  0.7360
  856MOL0     H12978   8.857   1.031   6.433  0.8820  1.3955 -0.1323
  856MOL0     H12979   8.838   0.791   6.373  0.3467 -0.9461 -2.0021
  856MOL0     H12980   8.963   0.426   6.095 -3.2241 -1.1129 -0.6486
  856MOL0     H12981   8.960   0.196   6.032 -2.5714 -0.6971  0.6834
  856MOL0     H12982   8.803   0.020   6.019 -1.4274  2.6520  0.6058
  856MOL0     H12983   8.696   0.042   6.147 -0.6750 -0.6632 -1.0328
  856MOL0     H12984   8.745  -0.193   6.231 -3.1900 -1.8138  0.1938
  856MOL0     H12985   8.651  -0.181   6.077  0.4173  1.6602 -1.3790
  856MOL0     H12986   8.947  -0.240   6.100  0.7606  3.4274 -1.5887
  856MOL0     H12987   8.860  -0.200   5.954 -0.6242 -1.0136 -0.1083
  856MOL0     H12988   8.912  -0.436   6.001 -0.4755  1.9265 -2.7860
  856MOL0     H12989   8.815  -0.439   6.143  0.1199  0.2739 -0.4338
  856MOL0     H12990   8.517  -0.548   5.882  0.4137 -1.9874 -0.8782
  856MOL0     H12991   8.904   0.101   6.459 -0.6685  2.2553  0.7328
  856MOL0     H12992   8.931   0.347   6.517 -1.5488 -0.4482  0.3731
  857MOL0     O12993   9.248  10.028   5.553 -0.2925  0.1275  0.3915
  857MOL0     C12994   9.203  10.023   5.433 -0.6495  0.0337 -1.1925
  857MOL0     O12995   9.084  10.070   5.394 -0.5903  0.4934 -0.4499
  857MOL0     C12996   9.004  10.105   5.498 -0.9590 -0.7610 -0.2421
  857MOL0     C12997   8.881  10.047   5.490  0.6338  0.6983  0.9582
  857MOL0     C12998   8.784  10.081   5.585 -0.8781  0.7200  0.2574
  857MOL0     C12999   8.809  10.189   5.672 -0.3473 -1.1365 -0.3103
  857MOL0     O13000   8.725  10.209   5.776  0.0502  0.1326  0.1596
  857MOL0     C13001   8.784  10.250   5.904  0.2113 -0.1620  0.5184
  857MOL0     C13002   8.670  10.232   6.000 -0.2182  0.2836  0.5104
  857MOL0     C13003   8.550  10.331   5.993 -0.9819 -0.9328  0.7642
  857MOL0     C13004   8.459  10.300   6.112 -0.3388 -0.2851  0.4138
  857MOL0     C13005   8.351  10.415   6.117  0.6886 -0.4298  0.8820
  857MOL0     C13006   8.244  10.347   6.201  0.9361  0.6708  0.1340
  857MOL0     C13007   8.107  10.413   6.197 -0.5106  0.0910  0.3659
  857MOL0     C13008   8.111  10.522   6.303  0.4752  0.0150  0.0455
  857MOL0     N13009   7.969  10.572   6.314 -0.2277  0.1892  0.0301
  857MOL0     C13010   7.855  10.503   6.355 -0.2146 -0.3823 -0.2474
  857MOL0     C13011   7.755  10.595   6.331  0.1327  0.5174 -0.4831
  857MOL0     C13012   7.610  10.573   6.371 -1.5679  0.7914 -0.2372
  857MOL0     C13013   7.533  10.461   6.298 -0.1363  0.4384  0.3595
  857MOL0     C13014   7.393  10.447   6.361  0.4729 -0.1988 -0.0534
  857MOL0     C13015   7.387  10.364   6.499  0.0467 -0.4725  0.0291
  857MOL0     O13016   7.272  10.275   6.479  0.5059 -0.6789 -0.6353
  857MOL0     C13017   7.266  10.161   6.550  0.3496  0.5024 -0.2978
  857MOL0     C13018   7.320  10.142   6.677 -0.7331 -0.3888  0.3368
  857MOL0     C13019   7.317  10.028   6.749  0.5341  0.4400  0.4015
  857MOL0     C13020   7.280   9.902   6.689  0.4280  0.0554 -0.4817
  857MOL0     C13021   7.295   9.783   6.761 -0.2408  1.3006 -1.2407
  857MOL0     O13022   7.333   9.779   6.890 -0.3967 -0.2926  0.0272
  857MOL0     C13023   7.348   9.658   6.958 -0.9878  1.3559 -0.4434
  857MOL0     C13024   7.465   9.586   6.954  0.1977  0.0243  0.2300
  857MOL0     C13025   7.490   9.466   7.033 -0.0509 -0.6582  0.3719
  857MOL0     C13026   7.376   9.421   7.115 -0.1260  0.0509  1.1556
  857MOL0     O13027   7.403   9.318   7.211  1.2066 -0.5274 -0.3068
  857MOL0     C13028   7.467   9.199   7.172  0.3401 -0.0819 -0.6190
  857MOL0     C13029   7.437   9.078   7.261 -0.5988 -0.0663  0.3695
  857MOL0     C13030   7.301   9.010   7.239 -1.0337 -0.0539 -0.5615
  857MOL0     C13031   7.188   9.082   7.304  1.7019 -0.8393 -0.5550
  857MOL0     C13032   7.048   9.031   7.260  0.7213 -0.1492  0.5474
  857MOL0     C13033   7.013   9.073   7.116  0.7866  0.1813  0.2793
  857MOL0     C13034   6.866   9.033   7.081  0.0305  0.9182  0.7950
  857MOL0     C13035   6.787   9.154   7.018 -0.3336  0.0607  0.3081
  857MOL0    Cl13036   6.780   9.305   7.117  0.5336 -0.2696  0.5637
  857MOL0     C13037   7.255   9.494   7.123  0.0486  0.3111 -0.4446
  857MOL0     C13038   7.240   9.610   7.042  0.6515  0.2406 -0.2661
  857MOL0     O13039   7.270   9.685   6.702  0.2132  0.2439 -0.0347
  857MOL0     C13040   7.226   9.911   6.556 -0.0213  0.3094 -0.2024
  857MOL0     C13041   7.210  10.037   6.490 -0.0438 -0.4567 -0.2121
  857MOL0     N13042   7.808  10.698   6.274  0.0296  0.0991 -0.1479
  857MOL0     N13043   7.936  10.688   6.263 -0.3775  0.2356  0.0095
  857MOL0     C13044   8.928  10.262   5.659 -0.0832 -0.1034  0.0086
  857MOL0     C13045   9.036  10.221   5.572 -0.3289 -0.0075 -1.0263
  857MOL0     C13046   9.288   9.953   5.331 -0.0870  0.0543  0.0153
  857MOL0     C13047   9.225   9.917   5.207 -0.5105 -0.0479  0.2174
  857MOL0     C13048   9.277   9.830   5.108  0.9422 -0.4588 -1.0336
  857MOL0     C13049   9.403   9.775   5.136 -0.7339  0.6044 -0.0262
  857MOL0     O13050   9.471   9.695   5.047 -0.6855  0.8369  0.2088
  857MOL0     C13051   9.428   9.664   4.908 -0.2245 -0.1846  0.2171
  857MOL0     C13052   9.463   9.780   4.813 -0.3170  0.4523 -0.3070
  857MOL0     C13053   9.613   9.775   4.777 -0.0179  0.8016  0.4302
  857MOL0     C13054   9.648   9.668   4.675  0.1686 -0.0692 -0.0905
  857MOL0     C13055   9.746   9.562   4.719  0.6252 -0.9197 -0.9182
  857MOL0     C13056   9.832   9.474   4.743  0.7027 -0.0015  1.4502
  857MOL0     C13057   9.474   9.813   5.257 -1.3063 -0.1342 -0.6938
  857MOL0     C13058   9.412   9.898   5.358  0.2901 -0.3654 -0.1980
  857MOL0     H13059   8.862   9.962   5.425  1.1515 -0.6278  2.4653
  857MOL0     H13060   8.698  10.015   5.592  0.6239 -1.8004 -2.7223
  857MOL0     H13061   8.815  10.355   5.911  1.1927 -0.3167 -0.9780
  857MOL0     H13062   8.865  10.182   5.932  1.8710  1.9546  1.1438
  857MOL0     H13063   8.718  10.242   6.098  2.1496 -0.9711 -0.4314
  857MOL0     H13064   8.628  10.132   5.990 -0.2983  0.5419 -2.8990
  857MOL0     H13065   8.497  10.313   5.899 -2.6883  3.0135  0.7684
  857MOL0     H13066   8.578  10.436   5.984 -2.5779 -0.4230  1.2664
  857MOL0     H13067   8.419  10.198   6.112  0.9053 -0.8460  2.9337
  857MOL0     H13068   8.518  10.314   6.203  1.5176 -1.4448 -0.5400
  857MOL0     H13069   8.313  10.419   6.015  3.2210 -0.2089 -0.1307
  857MOL0     H13070   8.378  10.511   6.162 -0.2515 -0.8136  2.3449
  857MOL0     H13071   8.280  10.353   6.304  0.3056 -0.6267  0.4414
  857MOL0     H13072   8.227  10.242   6.176 -0.0037  0.3190  2.0166
  857MOL0     H13073   8.068  10.443   6.100 -2.2438 -2.0507  0.3181
  857MOL0     H13074   8.043  10.331   6.229  1.6327 -2.5624 -1.6527
  857MOL0     H13075   8.181  10.600   6.274 -0.1081  0.0670 -1.2996
  857MOL0     H13076   8.140  10.477   6.398  1.9064  2.3110  0.7641
  857MOL0     H13077   7.837  10.407   6.402  0.1200  0.0988  0.8998
  857MOL0     H13078   7.565  10.671   6.353  1.7366  3.1461  2.7419
  857MOL0     H13079   7.604  10.545   6.477  0.2351 -0.2456 -0.3618
  857MOL0     H13080   7.585  10.366   6.311 -2.8216 -1.2756 -0.4800
  857MOL0     H13081   7.522  10.491   6.193 -1.4187  0.7936  0.5732
  857MOL0     H13082   7.347  10.544   6.383  4.2582  1.5950  0.6939
  857MOL0     H13083   7.325  10.396   6.292 -1.5686 -1.7207  2.8251
  857MOL0     H13084   7.380  10.440   6.578 -0.8144  1.5498 -1.8716
  857MOL0     H13085   7.477  10.303   6.499  0.5916 -0.0892  5.1899
  857MOL0     H13086   7.357  10.223   6.738 -2.3305 -0.5486  1.6035
  857MOL0     H13087   7.357  10.039   6.849 -2.5448  2.5897  1.5693
  857MOL0     H13088   7.554   9.603   6.894  0.3836  1.9709  0.9845
  857MOL0     H13089   7.584   9.413   7.026 -0.8176 -2.2295  1.2555
  857MOL0     H13090   7.576   9.202   7.180  0.2198  0.8353  1.2513
  857MOL0     H13091   7.429   9.173   7.073 -3.9329 -0.1806  0.8430
  857MOL0     H13092   7.450   9.113   7.364  1.6655 -0.8051  0.3887
  857MOL0     H13093   7.508   9.003   7.227  2.3911  3.3738 -1.6721
  857MOL0     H13094   7.307   8.906   7.271 -2.2416 -0.1568 -0.6233
  857MOL0     H13095   7.287   9.006   7.130  1.5288 -3.6509 -0.9326
  857MOL0     H13096   7.185   9.065   7.412  1.7939  2.3251  0.0347
  857MOL0     H13097   7.204   9.190   7.290  1.0099  0.0397  3.9914
  857MOL0     H13098   6.971   9.070   7.328  0.5094  3.2362 -1.4023
  857MOL0     H13099   7.034   8.925   7.282  0.5899 -0.0339  1.0450
  857MOL0     H13100   7.079   9.010   7.055 -3.3451 -2.9074 -1.4648
  857MOL0     H13101   7.024   9.179   7.091 -1.9589  0.4007 -0.3083
  857MOL0     H13102   6.873   8.949   7.011  3.6041  1.2868  0.5602
  857MOL0     H13103   6.824   8.984   7.169  0.6454 -0.8064  0.1632
  857MOL0     H13104   6.682   9.124   7.012 -0.3711 -0.5550  2.8036
  857MOL0     H13105   6.825   9.182   6.920  0.2042  2.1160  1.0599
  857MOL0     H13106   7.183   9.456   7.195 -1.5538  2.5234 -0.7892
  857MOL0     H13107   7.148   9.666   7.047  0.9183  0.5879  2.2065
  857MOL0     H13108   7.181   9.821   6.516 -2.3086 -0.4298  3.4940
  857MOL0     H13109   7.155  10.059   6.400 -2.8307  5.0104  2.3371
  857MOL0     H13110   8.932  10.359   5.709  1.5008  0.1623 -0.5689
  857MOL0     H13111   9.120  10.286   5.549 -0.3506  0.5027  0.2297
  857MOL0     H13112   9.118   9.932   5.198 -0.4004  1.9407  1.4195
  857MOL0     H13113   9.222   9.807   5.017  3.8094 -2.3238 -2.4399
  857MOL0     H13114   9.321   9.643   4.905 -0.4842  1.0322  0.3935
  857MOL0     H13115   9.473   9.568   4.883  0.8371  0.2143  0.5079
  857MOL0     H13116   9.410   9.772   4.718  3.1470  1.8579 -2.5689
  857MOL0     H13117   9.448   9.877   4.861 -0.0913  0.7518 -0.8291
  857MOL0     H13118   9.665   9.774   4.873 -1.9995  0.2305  1.5587
  857MOL0     H13119   9.623   9.877   4.738 -0.7974  0.0886 -1.7487
  857MOL0     H13120   9.554   9.613   4.659  0.7909 -1.2029  0.0812
  857MOL0     H13121   9.691   9.716   4.586 -0.1966  1.6560  0.6283
  857MOL0     H13122   9.907   9.403   4.773 -1.2201 -1.5035  3.0193
  857MOL0     H13123   9.576   9.779   5.272 -1.7250 -1.1080  0.0597
  857MOL0     H13124   9.462   9.930   5.450 -0.5795 -0.5384  0.3493
  858MOL0     O13125   1.605   7.595  10.294  0.0790 -0.4031 -0.4515
  858MOL0     C13126   1.579   7.712  10.338 -0.9547 -0.1511 -0.6181
  858MOL0     O13127   1.586   7.824  10.272  0.0359  0.0146 -0.1125
  858MOL0     C13128   1.592   7.809  10.136 -0.2190 -0.4560  0.3069
  858MOL0     C13129   1.709   7.821  10.061 -0.2484  0.3187  0.6239
  858MOL0     C13130   1.701   7.811   9.922  0.4744 -0.2581 -0.5909
  858MOL0     C13131   1.578   7.783   9.853  0.1227  0.5676  0.2555
  858MOL0     O13132   1.562   7.772   9.717  0.4187  0.0185 -0.1481
  858MOL0     C13133   1.677   7.779   9.638 -0.3477  0.4110  1.2554
  858MOL0     C13134   1.661   7.702   9.505  0.1114 -0.1618 -0.1078
  858MOL0     C13135   1.614   7.788   9.389  0.5008 -0.5229  0.6241
  858MOL0     C13136   1.472   7.852   9.409 -0.5126  0.2370 -0.1086
  858MOL0     C13137   1.451   7.947   9.280  0.2823 -0.0291 -0.1374
  858MOL0     C13138   1.312   8.011   9.277 -0.0706  0.4730  0.1525
  858MOL0     C13139   1.296   8.125   9.380  0.6914  0.3588 -0.0971
  858MOL0     C13140   1.145   8.142   9.394  0.1886  1.4368 -0.9827
  858MOL0     N13141   1.087   8.022   9.466  0.1464  0.1543  0.5875
  858MOL0     C13142   1.131   7.983   9.592  0.5857 -0.9039 -0.6060
  858MOL0     C13143   1.035   7.898   9.633  0.2893 -0.1359 -0.2175
  858MOL0     C13144   1.039   7.782   9.723  0.1142  0.5526  0.1449
  858MOL0     C13145   1.121   7.673   9.650 -0.6287 -0.0410 -0.2107
  858MOL0     C13146   1.093   7.538   9.708 -0.2638  0.6351  0.6676
  858MOL0     C13147   1.141   7.431   9.602  1.2484 -0.6346  0.0217
  858MOL0     O13148   1.166   7.313   9.669 -0.4072  0.4675  0.3093
  858MOL0     C13149   1.238   7.216   9.610 -0.6792  0.1417 -0.0493
  858MOL0     C13150   1.310   7.223   9.486 -0.2951  0.1256 -0.2340
  858MOL0     C13151   1.390   7.116   9.453  0.1843  0.2849  0.4757
  858MOL0     C13152   1.393   6.998   9.528  0.4953 -0.6533  0.1234
  858MOL0     C13153   1.480   6.893   9.481  0.8168 -0.3702 -0.1259
  858MOL0     O13154   1.550   6.907   9.374 -0.1144 -0.2794  0.5306
  858MOL0     C13155   1.597   6.798   9.299  0.9091  0.2011 -1.1413
  858MOL0     C13156   1.513   6.693   9.247 -0.4034  0.0295 -0.5857
  858MOL0     C13157   1.564   6.582   9.178 -0.6744  0.5157 -0.4346
  858MOL0     C13158   1.703   6.576   9.154  0.3941  0.1072  0.2653
  858MOL0     O13159   1.775   6.485   9.077  0.8420 -0.5255 -0.2470
  858MOL0     C13160   1.690   6.386   9.008  0.0397  0.8665  0.4034
  858MOL0     C13161   1.795   6.282   8.945  0.2663 -0.1685 -0.4893
  858MOL0     C13162   1.705   6.168   8.882 -0.9196 -1.1292  0.2638
  858MOL0     C13163   1.786   6.058   8.816  0.3911 -0.8672  0.5865
  858MOL0     C13164   1.685   5.965   8.750 -0.0955  1.2909 -0.4453
  858MOL0     C13165   1.759   5.835   8.698  0.2510 -0.4886  0.3904
  858MOL0     C13166   1.649   5.728   8.646  0.1718 -0.2014  0.0065
  858MOL0     C13167   1.692   5.645   8.537  1.6073 -0.6173  0.2064
  858MOL0    Cl13168   1.541   5.551   8.486 -0.3156 -0.2462  0.1803
  858MOL0     C13169   1.783   6.677   9.193 -0.7254  0.4760 -0.5061
  858MOL0     C13170   1.738   6.790   9.257 -0.0932 -0.7389 -0.0576
  858MOL0     O13171   1.458   6.782   9.537 -0.4085  0.6220  0.1937
  858MOL0     C13172   1.313   6.986   9.648 -0.3776 -0.6325 -0.5078
  858MOL0     C13173   1.241   7.092   9.687 -0.1521 -0.4509  0.1764
  858MOL0     N13174   0.934   7.888   9.539  0.3651 -0.0816  0.3248
  858MOL0     N13175   0.961   7.964   9.442 -0.1418 -0.5193  0.1348
  858MOL0     C13176   1.464   7.763   9.931 -0.1670 -0.1516  0.7584
  858MOL0     C13177   1.473   7.782  10.066 -0.1380  0.1508  0.6086
  858MOL0     C13178   1.547   7.706  10.484 -0.4224 -0.5531  0.0051
  858MOL0     C13179   1.492   7.593  10.556 -1.0084  0.8842  0.1797
  858MOL0     C13180   1.455   7.595  10.689  0.3017  0.4071  0.9589
  858MOL0     C13181   1.469   7.712  10.764  0.3883  1.3219 -0.1142
  858MOL0     O13182   1.442   7.726  10.897  0.2014 -0.3392 -0.0734
  858MOL0     C13183   1.343   7.642  10.963  0.2821 -0.2880 -0.5675
  858MOL0     C13184   1.333   7.673  11.109 -0.1237 -0.4897 -0.1080
  858MOL0     C13185   1.274   7.814  11.138 -0.0502  0.2041 -0.2701
  858MOL0     C13186   1.358   7.908  11.226 -0.6231 -1.0301  0.1381
  858MOL0     C13187   1.474   7.959  11.145 -0.4754  1.1618 -1.8687
  858MOL0     C13188   1.570   7.996  11.088 -1.3002  0.0246  0.4098
  858MOL0     C13189   1.523   7.824  10.698  0.3674  0.5817 -0.2748
  858MOL0     C13190   1.560   7.822  10.560  0.4643 -0.7062 -0.2880
  858MOL0     H13191   1.796   7.846  10.122 -1.9674  1.4937  2.7491
  858MOL0     H13192   1.791   7.823   9.863  0.0770  1.5606 -0.8828
  858MOL0     H13193   1.764   7.731   9.684  0.5910 -0.9077 -1.6893
  858MOL0     H13194   1.708   7.880   9.610 -2.9603  0.6851 -1.1269
  858MOL0     H13195   1.593   7.619   9.524 -0.8205  0.4180 -0.8136
  858MOL0     H13196   1.754   7.663   9.462  1.9278  0.8365  2.6665
  858MOL0     H13197   1.610   7.725   9.300 -0.1652  2.8418 -1.9497
  858MOL0     H13198   1.695   7.859   9.371  1.0854 -1.1969  0.5616
  858MOL0     H13199   1.393   7.777   9.413 -1.4708  0.9924 -2.8719
  858MOL0     H13200   1.466   7.910   9.502  0.7285 -0.4942  0.4484
  858MOL0     H13201   1.464   7.874   9.199  2.3942  0.1799 -0.0418
  858MOL0     H13202   1.527   8.025   9.273 -0.6696  1.1635  1.9362
  858MOL0     H13203   1.245   7.927   9.294 -1.4894  0.9071 -2.6782
  858MOL0     H13204   1.285   8.051   9.178 -3.6596  1.0057  1.2249
  858MOL0     H13205   1.336   8.105   9.480  0.1140  0.5754  0.1837
  858MOL0     H13206   1.340   8.217   9.340 -0.7418  2.2000  2.2270
  858MOL0     H13207   1.108   8.141   9.291  0.9605  3.8282 -1.3459
  858MOL0     H13208   1.119   8.239   9.439 -2.0736  0.9828 -1.1992
  858MOL0     H13209   1.218   8.022   9.644 -0.9025  3.0202 -0.7051
  858MOL0     H13210   0.935   7.753   9.737 -0.5826  1.4684 -2.4689
  858MOL0     H13211   1.087   7.810   9.817 -2.1471  0.5018  1.3522
  858MOL0     H13212   1.229   7.687   9.652 -0.5803 -0.4427  0.2110
  858MOL0     H13213   1.095   7.678   9.544  1.0882  4.8646 -0.6746
  858MOL0     H13214   1.154   7.538   9.798 -1.2298  0.4591  1.3420
  858MOL0     H13215   0.989   7.526   9.741 -0.6834  0.4844 -0.6310
  858MOL0     H13216   1.225   7.468   9.542  1.2172 -1.6584 -0.6667
  858MOL0     H13217   1.056   7.418   9.533 -0.0477  3.5612  0.4939
  858MOL0     H13218   1.293   7.315   9.431 -1.1820  0.5322  0.6890
  858MOL0     H13219   1.462   7.126   9.372 -0.0679 -1.1521  0.0335
  858MOL0     H13220   1.407   6.706   9.265  0.2396  0.6934  3.7376
  858MOL0     H13221   1.498   6.501   9.149  0.8846 -2.4712  3.4616
  858MOL0     H13222   1.625   6.429   8.932 -0.2650 -1.2615 -0.6181
  858MOL0     H13223   1.615   6.330   9.064 -0.4241  0.7340 -0.3302
  858MOL0     H13224   1.850   6.241   9.031 -0.1153 -1.4595 -0.8395
  858MOL0     H13225   1.860   6.335   8.876  1.0189  4.7702  3.4380
  858MOL0     H13226   1.649   6.219   8.802  0.9697  0.3101 -0.2239
  858MOL0     H13227   1.642   6.112   8.952  2.3266 -0.1684  4.3182
  858MOL0     H13228   1.838   6.096   8.728 -1.5046 -3.0671 -1.6345
  858MOL0     H13229   1.847   6.018   8.897  1.6558  0.0161  0.1109
  858MOL0     H13230   1.626   6.012   8.670  2.3245  4.1951 -0.7054
  858MOL0     H13231   1.615   5.938   8.829  0.6433 -1.6834 -0.6882
  858MOL0     H13232   1.807   5.786   8.783 -1.2356 -1.4392  0.7107
  858MOL0     H13233   1.840   5.859   8.628  2.2786 -0.9277  2.4756
  858MOL0     H13234   1.626   5.661   8.729 -1.3541  0.6609  0.3121
  858MOL0     H13235   1.554   5.774   8.619 -0.2607 -0.5992  0.8126
  858MOL0     H13236   1.771   5.587   8.588  1.5173  1.3534  2.8075
  858MOL0     H13237   1.727   5.695   8.446  1.1106 -3.6692 -1.8315
  858MOL0     H13238   1.890   6.670   9.176 -0.2049  1.6821  1.7741
  858MOL0     H13239   1.815   6.861   9.286 -0.6671  1.4347 -3.3121
  858MOL0     H13240   1.335   6.905   9.717  2.9162  1.3637  1.0112
  858MOL0     H13241   1.197   7.083   9.786 -1.2599 -2.1850 -0.4209
  858MOL0     H13242   1.369   7.739   9.883  0.1014 -1.3571  0.7867
  858MOL0     H13243   1.380   7.771  10.121 -1.1084  0.1089 -0.9693
  858MOL0     H13244   1.478   7.500  10.501 -5.7707  0.7590  1.1483
  858MOL0     H13245   1.404   7.509  10.730  1.3710 -1.2241 -0.9362
  858MOL0     H13246   1.366   7.536  10.955  1.0607 -0.2759  0.9935
  858MOL0     H13247   1.246   7.655  10.914 -0.5115 -0.9635  0.7861
  858MOL0     H13248   1.284   7.600  11.174 -0.3921  0.9324  1.3540
  858MOL0     H13249   1.439   7.676  11.137  0.4271  4.4720 -1.7637
  858MOL0     H13250   1.173   7.803  11.179 -0.0020  0.8694  0.0313
  858MOL0     H13251   1.265   7.863  11.040 -2.1823 -0.0714 -0.2471
  858MOL0     H13252   1.292   7.992  11.248  3.6353  2.7604 -0.1194
  858MOL0     H13253   1.400   7.865  11.317 -0.0013  2.4289  1.6644
  858MOL0     H13254   1.668   8.027  11.057 -0.3263 -0.9228  2.3680
  858MOL0     H13255   1.528   7.915  10.756 -2.0446  0.9706 -0.5880
  858MOL0     H13256   1.606   7.910  10.517 -2.3901  0.9167 -0.3049
  859MOL0     O13257   2.835   0.877   4.340  0.2592  0.0814 -0.3580
  859MOL0     C13258   2.850   0.992   4.378  0.7576 -0.0785  0.5259
  859MOL0     O13259   2.868   1.105   4.308 -0.4146  0.2326  0.9253
  859MOL0     C13260   2.881   1.093   4.171 -1.2557 -0.8456  0.6301
  859MOL0     C13261   2.999   1.035   4.124 -0.2876 -1.6067  1.0577
  859MOL0     C13262   3.028   1.068   3.992  0.3947 -0.3345 -0.1494
  859MOL0     C13263   2.945   1.134   3.898 -0.3243  1.3794 -0.1172
  859MOL0     O13264   2.975   1.130   3.766  0.4878  0.4501  0.5399
  859MOL0     C13265   2.861   1.143   3.678 -0.0555  0.6564  0.1433
  859MOL0     C13266   2.861   1.265   3.595 -0.2994 -0.5060  0.7462
  859MOL0     C13267   2.976   1.289   3.495 -0.0600  0.5820  0.2071
  859MOL0     C13268   2.999   1.427   3.439  0.4984  0.5076 -0.4127
  859MOL0     C13269   3.074   1.501   3.547 -0.0063 -0.5114 -1.1609
  859MOL0     C13270   3.090   1.653   3.525  0.1682  0.7071  1.3280
  859MOL0     C13271   3.007   1.740   3.613 -0.0427  0.5811  0.0310
  859MOL0     C13272   2.975   1.866   3.547  0.2510 -1.1069  0.7338
  859MOL0     N13273   2.891   1.946   3.639  0.0405 -1.1494  0.7399
  859MOL0     C13274   2.826   1.893   3.745 -0.0121 -1.1051 -0.4603
  859MOL0     C13275   2.790   2.007   3.818 -0.0571  0.3100  0.7148
  859MOL0     C13276   2.703   2.001   3.937 -0.0922  0.1304  0.2134
  859MOL0     C13277   2.565   2.068   3.924 -0.5880 -1.9718 -0.0165
  859MOL0     C13278   2.455   1.995   3.854  0.0084 -0.3773  0.4226
  859MOL0     C13279   2.309   2.054   3.848  0.3802 -0.6234 -0.8196
  859MOL0     O13280   2.244   2.018   3.727  0.0811 -0.0392  0.1162
  859MOL0     C13281   2.170   1.897   3.712  0.8114 -0.3630  0.0175
  859MOL0     C13282   2.096   1.839   3.809 -0.5257  0.7019 -0.0964
  859MOL0     C13283   2.017   1.724   3.788 -0.0037  0.1557 -1.3224
  859MOL0     C13284   2.005   1.663   3.660  0.5020  0.4979  0.9188
  859MOL0     C13285   1.926   1.542   3.650 -0.0932  0.2805 -0.7569
  859MOL0     O13286   1.948   1.455   3.544 -0.2552 -0.1643 -0.0246
  859MOL0     C13287   1.859   1.349   3.544  1.8719 -0.8101  0.6421
  859MOL0     C13288   1.739   1.368   3.472  0.8338 -0.7816 -0.2488
  859MOL0     C13289   1.648   1.266   3.451 -0.9506  0.6230 -0.3543
  859MOL0     C13290   1.670   1.135   3.505  0.2802  0.0296  0.4426
  859MOL0     O13291   1.583   1.031   3.499  0.5278  0.3891 -0.3855
  859MOL0     C13292   1.440   1.047   3.508  1.2380  0.4215 -0.7818
  859MOL0     C13293   1.359   0.914   3.509  0.3928 -0.3739 -0.0573
  859MOL0     C13294   1.384   0.832   3.640 -0.8395 -0.3193  0.4804
  859MOL0     C13295   1.365   0.679   3.595  0.4969 -0.2845  0.1880
  859MOL0     C13296   1.374   0.609   3.735 -0.3261  0.1150  0.7218
  859MOL0     C13297   1.364   0.460   3.722 -0.1161  0.3326  0.5502
  859MOL0     C13298   1.327   0.389   3.855  0.4512 -0.1459 -0.7697
  859MOL0     C13299   1.300   0.243   3.832  0.3029 -0.0928 -0.5100
  859MOL0    Cl13300   1.143   0.212   3.765  0.0175  0.0426  0.1864
  859MOL0     C13301   1.798   1.109   3.553 -0.6688 -0.2639 -0.0678
  859MOL0     C13302   1.894   1.216   3.575 -0.6781 -0.2273 -0.6688
  859MOL0     O13303   1.839   1.530   3.738 -0.6297  0.0309  0.5468
  859MOL0     C13304   2.071   1.729   3.556 -0.3095 -0.0068 -0.3886
  859MOL0     C13305   2.151   1.838   3.584  0.9464  0.3505 -0.3093
  859MOL0     N13306   2.853   2.120   3.768 -0.2534  1.4772 -0.5913
  859MOL0     N13307   2.915   2.080   3.653  0.5141  0.2290 -0.0464
  859MOL0     C13308   2.826   1.194   3.953  0.0270 -0.6988  0.2132
  859MOL0     C13309   2.801   1.179   4.092  0.5452  0.5102  0.0627
  859MOL0     C13310   2.845   1.004   4.526  0.2716  0.2584  0.1120
  859MOL0     C13311   2.899   1.117   4.599  0.3950  0.2823 -0.3408
  859MOL0     C13312   2.884   1.132   4.738  0.0335  0.5397 -0.6351
  859MOL0     C13313   2.817   1.025   4.810 -0.8572  0.3987  1.0902
  859MOL0     O13314   2.797   1.015   4.944 -0.0529  0.5721  0.3723
  859MOL0     C13315   2.857   1.102   5.041 -0.8985 -0.5695 -0.3917
  859MOL0     C13316   2.761   1.165   5.154  0.8543 -0.0271  0.9032
  859MOL0     C13317   2.690   1.294   5.121 -0.6754 -0.6195  0.5911
  859MOL0     C13318   2.790   1.416   5.106 -0.1631 -0.0961  0.0499
  859MOL0     C13319   2.817   1.462   4.971 -1.4244  1.3974 -0.6109
  859MOL0     C13320   2.840   1.501   4.859 -0.0303 -0.0495  0.4608
  859MOL0     C13321   2.786   0.913   4.743 -0.1718 -0.4820 -0.2583
  859MOL0     C13322   2.800   0.896   4.606 -1.1925 -0.5864 -0.0904
  859MOL0     H13323   3.073   0.986   4.186 -0.6597 -2.0797  1.1361
  859MOL0     H13324   3.121   1.029   3.953  1.3034 -0.0775  1.6857
  859MOL0     H13325   2.766   1.139   3.732  1.3310  1.7644  2.8445
  859MOL0     H13326   2.852   1.052   3.617 -3.5900 -0.7702  2.4591
  859MOL0     H13327   2.859   1.353   3.660 -0.7476 -0.5801  0.8308
  859MOL0     H13328   2.778   1.254   3.525  0.9854 -1.3148 -0.7319
  859MOL0     H13329   2.959   1.229   3.405 -0.3262 -0.9848  1.2603
  859MOL0     H13330   3.068   1.260   3.547 -1.2589 -2.0008  1.0970
  859MOL0     H13331   3.069   1.405   3.358  2.8731 -1.0562  1.8871
  859MOL0     H13332   2.906   1.475   3.407  0.2756 -0.0930 -0.6987
  859MOL0     H13333   3.178   1.469   3.556  1.3305  3.7160  2.4740
  859MOL0     H13334   3.036   1.482   3.648 -3.2296 -0.6820 -2.2931
  859MOL0     H13335   3.059   1.671   3.421 -2.5591 -0.6409  1.7974
  859MOL0     H13336   3.194   1.685   3.521  0.7133 -1.0353  0.5088
  859MOL0     H13337   2.917   1.683   3.639  1.5738 -0.5961  3.5378
  859MOL0     H13338   3.059   1.751   3.708 -1.0802  0.6754  0.6045
  859MOL0     H13339   2.925   1.854   3.450 -0.0377 -2.6594  1.0400
  859MOL0     H13340   3.068   1.916   3.518 -2.0316  1.2437 -3.6571
  859MOL0     H13341   2.796   1.791   3.769  0.2435 -0.9234  0.7018
  859MOL0     H13342   2.756   2.071   4.002 -2.6252  1.7684  0.6499
  859MOL0     H13343   2.682   1.903   3.981 -2.7352  0.1057 -0.9310
  859MOL0     H13344   2.581   2.167   3.880 -5.2814 -1.0553 -0.1615
  859MOL0     H13345   2.525   2.097   4.022 -1.0555 -2.9812  0.1050
  859MOL0     H13346   2.470   1.983   3.746 -0.9603  0.0885  0.2254
  859MOL0     H13347   2.451   1.897   3.904 -2.3861  0.5426  2.2379
  859MOL0     H13348   2.319   2.163   3.849  0.9417 -0.6263  2.1560
  859MOL0     H13349   2.260   2.016   3.938  1.5921  0.1328  0.1910
  859MOL0     H13350   2.101   1.879   3.910 -1.1780 -0.8626  0.5818
  859MOL0     H13351   1.960   1.679   3.868  1.5822  4.2740  2.5767
  859MOL0     H13352   1.712   1.469   3.442  2.5110 -0.5742 -1.1874
  859MOL0     H13353   1.558   1.285   3.392  0.1563  2.4898 -1.5561
  859MOL0     H13354   1.403   1.119   3.434 -1.1024  2.9628  2.5603
  859MOL0     H13355   1.414   1.100   3.600 -1.5048 -0.7497 -0.8001
  859MOL0     H13356   1.372   0.850   3.421 -1.6777  0.0947 -0.7545
  859MOL0     H13357   1.257   0.951   3.516  0.6929  0.1529  2.4663
  859MOL0     H13358   1.316   0.869   3.717  1.3662  2.9998  1.0414
  859MOL0     H13359   1.487   0.852   3.673 -0.6772  1.1389 -0.8125
  859MOL0     H13360   1.267   0.669   3.548  1.1148 -1.2133 -0.9545
  859MOL0     H13361   1.440   0.644   3.523 -2.4797 -3.8345 -1.5201
  859MOL0     H13362   1.296   0.657   3.796  0.1935  1.4166  0.3988
  859MOL0     H13363   1.466   0.621   3.792 -0.8860  0.6441  1.5550
  859MOL0     H13364   1.462   0.420   3.695 -0.4881  0.9795 -2.0733
  859MOL0     H13365   1.287   0.427   3.652 -1.1879 -1.1310  2.3449
  859MOL0     H13366   1.404   0.394   3.932 -2.3869 -2.3002  2.5020
  859MOL0     H13367   1.236   0.437   3.892  1.2114  0.5522  0.2406
  859MOL0     H13368   1.298   0.191   3.928  0.3994  0.1370 -0.3830
  859MOL0     H13369   1.376   0.216   3.758  0.5127 -0.5759 -0.1188
  859MOL0     H13370   1.817   1.006   3.583  0.0366 -0.7503 -2.0400
  859MOL0     H13371   1.992   1.197   3.617 -0.4960 -2.6737 -1.9952
  859MOL0     H13372   2.086   1.686   3.458  2.3463 -1.2542  0.4840
  859MOL0     H13373   2.212   1.876   3.502  0.0941 -0.8275 -1.5194
  859MOL0     H13374   2.754   1.249   3.894  0.4834 -0.3785 -0.0550
  859MOL0     H13375   2.712   1.228   4.133  0.5594  0.9475 -0.4231
  859MOL0     H13376   2.955   1.186   4.536  2.5834 -2.9023 -2.1985
  859MOL0     H13377   2.915   1.221   4.792 -1.7619  1.9579 -1.8293
  859MOL0     H13378   2.918   1.182   4.999 -1.7749  0.6788  0.6109
  859MOL0     H13379   2.929   1.032   5.084  0.2490  0.6967 -0.1670
  859MOL0     H13380   2.681   1.095   5.180  1.6420 -1.2974  0.0708
  859MOL0     H13381   2.818   1.183   5.245  0.3062 -0.5484  1.3562
  859MOL0     H13382   2.610   1.311   5.194  2.0210  1.3789  3.3163
  859MOL0     H13383   2.641   1.277   5.024  1.8172 -2.9075 -0.3991
  859MOL0     H13384   2.744   1.494   5.167  0.2106 -0.8244  1.2829
  859MOL0     H13385   2.878   1.398   5.168 -0.1159  0.8878  0.2777
  859MOL0     H13386   2.857   1.544   4.762  3.2568 -1.1852  0.4035
  859MOL0     H13387   2.758   0.826   4.802 -0.2524  0.1425  0.6535
  859MOL0     H13388   2.769   0.805   4.556  2.2893 -2.2342  0.3791
  860MOL0     O13389   6.260  10.151   3.716 -0.8535  0.6245  0.5528
  860MOL0     C13390   6.184  10.089   3.643  0.0208  0.4372 -0.4911
  860MOL0     O13391   6.055  10.111   3.626  0.4769 -0.9701  0.0960
  860MOL0     C13392   5.984  10.214   3.683  0.7653 -0.5087  0.0662
  860MOL0     C13393   5.867  10.268   3.625  0.0523 -0.0086 -1.6896
  860MOL0     C13394   5.787  10.373   3.678 -0.1538  0.5189 -0.2060
  860MOL0     C13395   5.845  10.450   3.784  0.7496 -0.1087  0.2381
  860MOL0     O13396   5.773  10.550   3.840 -1.0723 -0.5801 -0.4791
  860MOL0     C13397   5.847  10.666   3.891  0.6767 -0.1033  0.6481
  860MOL0     C13398   5.741  10.752   3.946 -0.6534  0.8791 -0.3847
  860MOL0     C13399   5.819  10.862   4.019  0.2428 -0.3712  0.2123
  860MOL0     C13400   5.724  10.957   4.096 -0.3023  0.3746  0.0776
  860MOL0     C13401   5.801  11.044   4.191  0.2873 -0.4759 -0.0416
  860MOL0     C13402   5.700  11.143   4.255  0.3266 -0.3693  0.4219
  860MOL0     C13403   5.748  11.261   4.329  0.3065 -1.1414 -0.3046
  860MOL0     C13404   5.660  11.388   4.286 -0.2787  0.0842  0.1135
  860MOL0     N13405   5.675  11.493   4.391  0.5408 -0.3132  0.9051
  860MOL0     C13406   5.709  11.630   4.368  1.3370  0.3336 -0.6837
  860MOL0     C13407   5.726  11.687   4.495 -0.6975 -0.2912  0.5923
  860MOL0     C13408   5.750  11.841   4.501  0.2702  0.3358  0.1755
  860MOL0     C13409   5.766  11.881   4.644  0.6984  0.1509  0.2724
  860MOL0     C13410   5.741  12.033   4.657  0.1122 -0.4549  0.4765
  860MOL0     C13411   5.765  12.059   4.804  1.2005 -0.1798 -0.6546
  860MOL0     O13412   5.669  11.977   4.883 -0.3630  0.0231 -0.0470
  860MOL0     C13413   5.653  12.008   5.014 -0.4032  0.8699  0.6303
  860MOL0     C13414   5.726  12.102   5.087  0.5538  0.0127  0.7531
  860MOL0     C13415   5.676  12.139   5.216  0.9349 -0.5789  0.9821
  860MOL0     C13416   5.568  12.065   5.273 -0.2014 -0.3334 -0.2237
  860MOL0     C13417   5.531  12.096   5.412  0.0964 -1.2152 -0.7404
  860MOL0     O13418   5.604  12.193   5.477  0.1777 -0.0653 -1.0295
  860MOL0     C13419   5.592  12.209   5.617  0.5844  0.5441  0.3707
  860MOL0     C13420   5.709  12.261   5.673 -0.4670  1.2863 -0.6538
  860MOL0     C13421   5.730  12.291   5.809  0.2708  0.4606 -0.4643
  860MOL0     C13422   5.620  12.267   5.898 -0.2656 -0.3286 -0.0208
  860MOL0     O13423   5.637  12.311   6.024  1.5460  0.0452  0.4098
  860MOL0     C13424   5.557  12.408   6.078 -0.1924  0.3753 -0.5308
  860MOL0     C13425   5.614  12.449   6.215 -0.4098 -1.1817 -0.8163
  860MOL0     C13426   5.532  12.567   6.265  1.2480  0.2163  0.1087
  860MOL0     C13427   5.552  12.595   6.411 -0.0108 -0.2903 -0.5183
  860MOL0     C13428   5.489  12.725   6.445 -1.3943  0.3630 -0.1642
  860MOL0     C13429   5.470  12.731   6.594 -0.3257 -0.0964  0.5695
  860MOL0     C13430   5.414  12.864   6.640 -0.2997 -1.4443  0.2492
  860MOL0     C13431   5.302  12.852   6.740 -0.5903 -1.0940  0.2506
  860MOL0    Cl13432   5.368  12.829   6.903 -0.2994  0.5474 -0.1671
  860MOL0     C13433   5.496  12.219   5.844  0.5757 -1.0382  1.2341
  860MOL0     C13434   5.485  12.196   5.708  1.0092  0.6984  0.2040
  860MOL0     O13435   5.435  12.027   5.459 -0.2141  0.3944  0.3854
  860MOL0     C13436   5.508  11.969   5.199 -0.2414 -1.2936 -0.3088
  860MOL0     C13437   5.542  11.943   5.069 -0.4684 -0.8749 -0.0543
  860MOL0     N13438   5.700  11.589   4.584 -0.1126 -0.9413  0.2148
  860MOL0     N13439   5.678  11.474   4.525  0.6749 -0.1368  0.2072
  860MOL0     C13440   5.961  10.396   3.851  0.4499 -0.4160 -0.5625
  860MOL0     C13441   6.019  10.286   3.798  0.7056 -0.3470 -0.2545
  860MOL0     C13442   6.258   9.993   3.551 -0.7877 -0.3519  0.4364
  860MOL0     C13443   6.189   9.913   3.458  0.7786 -0.1096 -0.3153
  860MOL0     C13444   6.252   9.844   3.357 -1.0220  0.1613 -0.2312
  860MOL0     C13445   6.392   9.839   3.357 -0.1439 -0.5809 -0.5415
  860MOL0     O13446   6.474   9.765   3.275  0.3632  0.3920  0.3573
  860MOL0     C13447   6.420   9.654   3.200 -0.3337  0.9021 -0.2605
  860MOL0     C13448   6.522   9.586   3.108  0.2398 -0.1068 -0.0785
  860MOL0     C13449   6.446   9.487   3.011  0.0734 -0.2738 -0.2330
  860MOL0     C13450   6.540   9.377   2.954  1.0318 -0.5732 -0.5522
  860MOL0     C13451   6.579   9.278   3.058  0.1170 -1.0601 -0.0277
  860MOL0     C13452   6.598   9.188   3.130 -0.2194 -0.0540  0.0165
  860MOL0     C13453   6.462   9.913   3.458  0.3312  0.3628  0.2999
  860MOL0     C13454   6.396   9.983   3.553 -0.4203 -0.6417 -0.3055
  860MOL0     H13455   5.846  10.215   3.532  2.7007  0.9596 -2.9626
  860MOL0     H13456   5.695  10.413   3.637 -2.1977 -3.5081 -0.0587
  860MOL0     H13457   5.897  10.727   3.815  0.5249  1.0197  1.4416
  860MOL0     H13458   5.916  10.631   3.969 -1.2585 -0.1232  2.4252
  860MOL0     H13459   5.670  10.707   4.015  0.5364  2.7759  2.2240
  860MOL0     H13460   5.670  10.785   3.869 -1.4577  0.4824  0.1712
  860MOL0     H13461   5.889  10.914   3.954  4.8571 -1.2206  3.9212
  860MOL0     H13462   5.876  10.807   4.095 -0.7078 -0.9151  0.5544
  860MOL0     H13463   5.660  11.013   4.028  2.4201  2.0277 -1.2821
  860MOL0     H13464   5.661  10.891   4.156 -0.3087 -0.5040 -0.8846
  860MOL0     H13465   5.876  11.100   4.133 -1.2276  0.4995 -1.1417
  860MOL0     H13466   5.857  11.008   4.277  2.0914  0.2081 -0.8767
  860MOL0     H13467   5.629  11.091   4.319 -1.4640  1.9743  0.4492
  860MOL0     H13468   5.638  11.179   4.172 -0.7046 -3.8294 -0.4837
  860MOL0     H13469   5.756  11.248   4.437 -2.5496 -2.9096 -0.2139
  860MOL0     H13470   5.849  11.283   4.291  0.1952 -0.3794 -0.1697
  860MOL0     H13471   5.554  11.360   4.276 -0.0121 -1.0783  0.4487
  860MOL0     H13472   5.676  11.424   4.184  0.0598 -2.1891 -0.6932
  860MOL0     H13473   5.721  11.695   4.282  1.8803 -0.2999 -1.0935
  860MOL0     H13474   5.658  11.886   4.461  0.8901  0.8260 -0.7214
  860MOL0     H13475   5.834  11.855   4.433 -1.7043 -0.8554 -2.6973
  860MOL0     H13476   5.871  11.862   4.669  1.0216 -0.6883 -1.5822
  860MOL0     H13477   5.706  11.822   4.712  3.4699 -1.2954  1.6231
  860MOL0     H13478   5.813  12.099   4.607  1.0370 -0.5485  1.6242
  860MOL0     H13479   5.647  12.063   4.611  1.8298  1.2013 -2.2250
  860MOL0     H13480   5.766  12.166   4.826  3.2618 -0.0367 -1.2132
  860MOL0     H13481   5.862  12.014   4.826  0.5996 -1.1903  0.0062
  860MOL0     H13482   5.815  12.158   5.061  4.0656 -4.1312  2.7526
  860MOL0     H13483   5.744  12.212   5.258  3.6214 -0.5235 -2.8473
  860MOL0     H13484   5.807  12.257   5.626  0.0478 -1.6930  0.4789
  860MOL0     H13485   5.824  12.330   5.846 -0.0881  0.7800  0.1179
  860MOL0     H13486   5.454  12.371   6.080  0.1027 -0.5901 -1.7246
  860MOL0     H13487   5.553  12.495   6.012 -1.8158 -0.6805 -1.8857
  860MOL0     H13488   5.717  12.485   6.208  0.2094 -2.4223  1.1173
  860MOL0     H13489   5.608  12.360   6.279 -0.3632  1.7089  3.6453
  860MOL0     H13490   5.426  12.546   6.249  0.9996  0.7035  1.0283
  860MOL0     H13491   5.562  12.659   6.214 -5.3806  1.7529 -1.8782
  860MOL0     H13492   5.497  12.518   6.466 -1.0305 -0.9491 -2.3954
  860MOL0     H13493   5.658  12.599   6.436 -0.3245  2.7272  0.8070
  860MOL0     H13494   5.390  12.738   6.402  0.2479  0.4861 -4.4146
  860MOL0     H13495   5.552  12.807   6.409 -1.6808  0.3934 -0.6070
  860MOL0     H13496   5.572  12.715   6.629 -0.3257  0.5087  0.8587
  860MOL0     H13497   5.407  12.644   6.612 -0.4358 -1.1512 -3.6846
  860MOL0     H13498   5.486  12.934   6.684 -0.9526  1.2110 -2.5707
  860MOL0     H13499   5.375  12.914   6.550 -1.0901 -3.2814 -0.4785
  860MOL0     H13500   5.238  12.769   6.710 -0.7407 -0.3223 -1.7414
  860MOL0     H13501   5.251  12.948   6.744  0.7924 -0.3355  0.3730
  860MOL0     H13502   5.411  12.201   5.909 -2.0219  3.2155 -0.5662
  860MOL0     H13503   5.393  12.152   5.670  2.1778 -0.3771 -1.5559
  860MOL0     H13504   5.412  11.924   5.223 -3.2792  3.4999 -1.9839
  860MOL0     H13505   5.484  11.874   5.008 -0.2100 -0.5745 -0.6511
  860MOL0     H13506   5.990  10.434   3.949 -0.0599  2.4230 -1.4189
  860MOL0     H13507   6.105  10.262   3.860  1.2965  2.5471  0.2118
  860MOL0     H13508   6.080   9.919   3.458  0.7895  0.1086 -1.1049
  860MOL0     H13509   6.194   9.807   3.273  0.1980  0.5476 -1.2831
  860MOL0     H13510   6.327   9.673   3.146  0.4596 -0.7333 -2.3698
  860MOL0     H13511   6.388   9.575   3.269 -1.7429  2.2441  0.6873
  860MOL0     H13512   6.582   9.669   3.070  0.9843  0.5650  2.3231
  860MOL0     H13513   6.585   9.533   3.181  0.4656  5.1031  4.1545
  860MOL0     H13514   6.392   9.541   2.933 -1.3171 -1.9920 -0.5305
  860MOL0     H13515   6.363   9.443   3.066 -1.1376  2.1009 -0.0241
  860MOL0     H13516   6.500   9.332   2.863 -0.9595 -2.4437  1.1319
  860MOL0     H13517   6.634   9.430   2.934  1.8914 -1.8367 -0.0122
  860MOL0     H13518   6.628   9.104   3.189 -5.7670 -2.2938  0.2454
  860MOL0     H13519   6.571   9.917   3.455  0.4682 -0.2895  2.5470
  860MOL0     H13520   6.466  10.048   3.605  2.7192 -1.6584 -2.9344
  861MOL0     O13521   6.487   7.988   3.841 -0.4890  0.0471  0.1092
  861MOL0     C13522   6.595   7.998   3.771  0.8901  0.0862  0.8390
  861MOL0     O13523   6.683   7.889   3.742  0.1262 -0.5524 -0.4381
  861MOL0     C13524   6.662   7.757   3.766  0.2786 -0.2452 -0.3766
  861MOL0     C13525   6.776   7.685   3.752 -1.3836 -0.1686  0.2288
  861MOL0     C13526   6.770   7.546   3.766 -0.3049 -0.3130 -0.5108
  861MOL0     C13527   6.652   7.483   3.805 -0.1732 -0.0865 -0.6755
  861MOL0     O13528   6.649   7.349   3.822 -0.2239 -0.2294  0.5365
  861MOL0     C13529   6.515   7.302   3.768  0.1220 -0.4591  0.4347
  861MOL0     C13530   6.543   7.163   3.705  0.0487 -0.7926 -0.7828
  861MOL0     C13531   6.558   7.041   3.796  0.2619 -0.3983  0.5419
  861MOL0     C13532   6.418   6.997   3.846  0.1709  0.2980 -0.5496
  861MOL0     C13533   6.410   6.859   3.917  0.4396 -0.1538  0.4141
  861MOL0     C13534   6.260   6.811   3.929 -0.2502 -0.5157 -0.1872
  861MOL0     C13535   6.181   6.901   4.040 -0.0007  0.2849  0.7307
  861MOL0     C13536   6.043   6.846   4.073 -0.2366 -0.4337 -0.4143
  861MOL0     N13537   5.968   6.828   3.955 -0.3259 -0.4874 -0.4916
  861MOL0     C13538   5.982   6.715   3.882 -0.4453  0.1209 -1.3045
  861MOL0     C13539   5.917   6.740   3.775  0.9758  1.4321  0.2453
  861MOL0     C13540   5.903   6.648   3.660 -0.2048 -0.1648  0.4430
  861MOL0     C13541   5.999   6.654   3.544 -0.1046  0.1337 -0.6688
  861MOL0     C13542   6.143   6.698   3.587 -0.2097  0.3730 -0.8857
  861MOL0     C13543   6.221   6.724   3.451 -0.4284  0.0636  0.3378
  861MOL0     O13544   6.350   6.768   3.499  0.1667  0.4970 -0.5887
  861MOL0     C13545   6.444   6.804   3.415 -0.4999 -0.4588  0.1957
  861MOL0     C13546   6.571   6.831   3.465 -1.0831  0.5220 -0.2888
  861MOL0     C13547   6.689   6.850   3.388  1.0995 -0.0991  0.4658
  861MOL0     C13548   6.677   6.852   3.246 -0.4087  0.4881 -1.2463
  861MOL0     C13549   6.805   6.867   3.166 -1.0356  0.1403  0.0508
  861MOL0     O13550   6.919   6.911   3.224  0.1706  0.0309 -0.6570
  861MOL0     C13551   7.021   6.977   3.156  0.5608  0.2058  0.5469
  861MOL0     C13552   7.024   7.027   3.019  0.1246 -0.9763 -0.0425
  861MOL0     C13553   7.138   7.079   2.964  0.6145  0.8056  0.3000
  861MOL0     C13554   7.253   7.088   3.033  0.0328 -1.7216  0.0193
  861MOL0     O13555   7.364   7.126   2.966  0.0595 -0.0999  0.5457
  861MOL0     C13556   7.490   7.108   3.016 -0.3998 -0.4231 -0.7662
  861MOL0     C13557   7.596   7.114   2.909  0.4577 -0.5199 -0.6099
  861MOL0     C13558   7.570   7.014   2.783 -0.5388 -0.4126 -0.4406
  861MOL0     C13559   7.564   6.860   2.820 -0.0393 -0.2781 -0.7781
  861MOL0     C13560   7.680   6.800   2.894  0.5261  0.7336  0.3139
  861MOL0     C13561   7.656   6.648   2.913  0.5874 -0.6414 -0.0866
  861MOL0     C13562   7.575   6.623   3.041  1.5419  0.2704 -1.0847
  861MOL0     C13563   7.553   6.480   3.073 -0.0923  0.5304 -0.6298
  861MOL0    Cl13564   7.709   6.396   3.120  0.3978 -0.2341  0.2040
  861MOL0     C13565   7.250   7.044   3.173 -0.1500  0.0220 -0.1439
  861MOL0     C13566   7.136   6.994   3.235  0.5291  0.6614  0.1479
  861MOL0     O13567   6.785   6.842   3.048 -0.1734 -0.5669 -0.2846
  861MOL0     C13568   6.545   6.835   3.191 -0.8153  0.1819 -0.4270
  861MOL0     C13569   6.431   6.820   3.268 -0.2113 -0.8199 -1.2054
  861MOL0     N13570   5.873   6.871   3.772 -0.4143  0.5187  0.2693
  861MOL0     N13571   5.906   6.927   3.883  0.2546 -0.1568  0.1664
  861MOL0     C13572   6.541   7.563   3.838  0.9038 -0.4568 -0.4402
  861MOL0     C13573   6.536   7.705   3.819 -0.0642 -0.1212 -0.0697
  861MOL0     C13574   6.654   8.131   3.743 -0.5489 -0.2496  0.2137
  861MOL0     C13575   6.615   8.239   3.824  0.4688  0.4019 -0.8386
  861MOL0     C13576   6.661   8.364   3.798  0.2301  0.2927  0.5174
  861MOL0     C13577   6.756   8.388   3.700  0.0644  0.4949  0.4150
  861MOL0     O13578   6.819   8.502   3.657  1.1039  0.0011  0.0574
  861MOL0     C13579   6.783   8.624   3.733  0.8585  0.6958  0.8124
  861MOL0     C13580   6.915   8.710   3.739  0.4983  0.6319  0.0244
  861MOL0     C13581   6.971   8.758   3.607 -0.3292  0.3374  0.8758
  861MOL0     C13582   6.928   8.898   3.576  0.3319  0.7305 -0.4310
  861MOL0     C13583   6.788   8.897   3.513 -0.4761  0.3995 -0.0195
  861MOL0     C13584   6.672   8.906   3.471  0.2756 -0.3829  0.2597
  861MOL0     C13585   6.795   8.275   3.622 -0.5217  0.3720 -0.0885
  861MOL0     C13586   6.751   8.142   3.649  0.4759 -0.3183  0.4013
  861MOL0     H13587   6.871   7.728   3.723 -1.3469 -0.1607  0.3587
  861MOL0     H13588   6.857   7.482   3.762  0.4218  0.3338  2.6672
  861MOL0     H13589   6.483   7.374   3.692  0.9233  2.3242  2.5573
  861MOL0     H13590   6.439   7.295   3.847 -0.7406  0.1262 -0.3121
  861MOL0     H13591   6.631   7.188   3.646  0.5041  2.4201  1.0475
  861MOL0     H13592   6.463   7.148   3.632  0.6447 -2.0220 -1.2204
  861MOL0     H13593   6.616   7.064   3.885 -1.5620 -2.6721  2.4462
  861MOL0     H13594   6.610   6.959   3.746  1.3824 -0.1440  1.2487
  861MOL0     H13595   6.379   7.078   3.908 -2.5401 -0.8122 -0.6646
  861MOL0     H13596   6.361   6.996   3.752 -0.8828  0.7587  0.0694
  861MOL0     H13597   6.462   6.865   4.013  0.9670  0.1638  0.1078
  861MOL0     H13598   6.461   6.787   3.853 -2.8393 -2.4919  0.1600
  861MOL0     H13599   6.259   6.705   3.957  1.8546 -0.1261  1.6655
  861MOL0     H13600   6.227   6.822   3.825  0.7866 -1.4688 -0.6350
  861MOL0     H13601   6.247   6.898   4.127  4.1023  0.3808 -2.0873
  861MOL0     H13602   6.180   7.002   3.997  3.9604  0.5446  0.8660
  861MOL0     H13603   5.983   6.919   4.129  3.2600  1.8742  0.6184
  861MOL0     H13604   6.052   6.755   4.132  1.8873 -0.3597 -0.5557
  861MOL0     H13605   6.009   6.615   3.913 -0.3687  0.1128 -1.3997
  861MOL0     H13606   5.802   6.663   3.621 -0.6924 -0.9612  1.3276
  861MOL0     H13607   5.905   6.540   3.681  1.4640 -0.9131 -2.9196
  861MOL0     H13608   5.975   6.735   3.474  0.4960  0.2840 -0.7020
  861MOL0     H13609   6.008   6.556   3.497 -1.8254 -0.7040  0.6438
  861MOL0     H13610   6.138   6.795   3.638 -0.9287  1.1727 -2.3858
  861MOL0     H13611   6.189   6.626   3.655 -1.9703 -1.9945 -2.0405
  861MOL0     H13612   6.177   6.793   3.378 -1.5764  1.0264  1.8681
  861MOL0     H13613   6.225   6.626   3.403  0.6264  0.0540  0.4318
  861MOL0     H13614   6.583   6.851   3.571 -1.3080  2.1852 -0.5643
  861MOL0     H13615   6.780   6.879   3.440 -0.3478  2.5205  1.7392
  861MOL0     H13616   6.929   7.036   2.967 -0.8679 -0.5723  1.7261
  861MOL0     H13617   7.146   7.096   2.857  0.6354 -0.9823 -0.0016
  861MOL0     H13618   7.486   7.008   3.060 -1.8637 -0.1657 -0.2511
  861MOL0     H13619   7.503   7.185   3.092  1.8761  0.7517 -2.2432
  861MOL0     H13620   7.695   7.089   2.947 -0.2578 -4.5661 -0.9130
  861MOL0     H13621   7.614   7.217   2.877  1.2525 -0.7332 -0.8801
  861MOL0     H13622   7.654   7.035   2.716 -0.4035  0.4023 -0.0226
  861MOL0     H13623   7.477   7.041   2.732  0.5621 -0.1986 -2.4548
  861MOL0     H13624   7.477   6.843   2.884 -0.5511  1.5072 -0.9383
  861MOL0     H13625   7.544   6.794   2.735 -1.1352  1.6899 -2.1391
  861MOL0     H13626   7.716   6.851   2.984  1.1772  2.5516 -0.9170
  861MOL0     H13627   7.765   6.812   2.826 -0.4673  2.0212 -0.7527
  861MOL0     H13628   7.755   6.603   2.921  1.6655  1.8952  2.4533
  861MOL0     H13629   7.600   6.609   2.828  0.7182 -0.2010 -0.3799
  861MOL0     H13630   7.624   6.659   3.131 -1.1189 -0.6290  0.8598
  861MOL0     H13631   7.478   6.672   3.027  1.0120 -0.6458 -0.7439
  861MOL0     H13632   7.510   6.427   2.987 -1.5437 -1.4605  1.2086
  861MOL0     H13633   7.493   6.473   3.164  2.7507  2.2409  1.5455
  861MOL0     H13634   7.341   7.048   3.232 -1.2384  4.5386  1.6428
  861MOL0     H13635   7.147   6.959   3.337 -1.2520 -0.8651 -0.1293
  861MOL0     H13636   6.535   6.824   3.083  0.7962 -1.5681 -0.4515
  861MOL0     H13637   6.332   6.829   3.225 -1.0661  1.1889  0.9886
  861MOL0     H13638   6.450   7.522   3.881 -2.5058  2.2404 -4.2933
  861MOL0     H13639   6.445   7.763   3.833  0.4840  0.6442  0.3545
  861MOL0     H13640   6.546   8.222   3.906  2.2193  0.6745  0.7398
  861MOL0     H13641   6.611   8.440   3.857 -4.3326 -1.6763 -0.3553
  861MOL0     H13642   6.736   8.603   3.829 -0.8269  1.0637  0.1032
  861MOL0     H13643   6.708   8.678   3.676 -1.5042 -1.8706  1.2621
  861MOL0     H13644   6.895   8.798   3.801 -4.2113 -0.6320  0.6505
  861MOL0     H13645   6.989   8.653   3.797 -0.8937 -3.6517 -2.0155
  861MOL0     H13646   6.945   8.682   3.533 -0.3259 -1.2850  2.4838
  861MOL0     H13647   7.080   8.761   3.612  0.2582 -0.9872 -4.8192
  861MOL0     H13648   6.940   8.948   3.673 -3.2998  0.0315  0.5471
  861MOL0     H13649   6.982   8.957   3.501 -0.2867  0.6868 -0.9151
  861MOL0     H13650   6.567   8.923   3.454  0.3395 -0.3501 -0.0970
  861MOL0     H13651   6.868   8.287   3.542 -2.4097  2.0433 -1.6707
  861MOL0     H13652   6.764   8.051   3.591 -6.2994 -0.9141 -1.0181
  862MOL0     O13653   1.012   1.373   8.834 -0.3250 -0.4574 -0.2245
  862MOL0     C13654   0.993   1.435   8.727 -0.3710  1.1754 -0.3952
  862MOL0     O13655   0.912   1.544   8.719 -0.6275  0.3946 -0.3244
  862MOL0     C13656   0.824   1.578   8.814  0.2525 -0.0707  0.6079
  862MOL0     C13657   0.708   1.511   8.864 -0.1053  0.1387  0.4232
  862MOL0     C13658   0.631   1.563   8.968  0.1989  0.5381 -0.2055
  862MOL0     C13659   0.660   1.684   9.029 -0.0604 -0.2748 -0.1109
  862MOL0     O13660   0.581   1.736   9.133 -0.0529 -0.3841  0.8240
  862MOL0     C13661   0.498   1.664   9.214  0.8054 -0.6327 -0.7946
  862MOL0     C13662   0.457   1.744   9.342  0.1463 -0.0591 -0.0826
  862MOL0     C13663   0.346   1.843   9.324 -0.3525 -0.2575 -0.5208
  862MOL0     C13664   0.217   1.771   9.318  0.6367  0.2742 -0.4014
  862MOL0     C13665   0.089   1.855   9.321 -0.0623 -0.6655 -0.0709
  862MOL0     C13666  -0.039   1.767   9.353 -0.3900  1.2121 -0.2303
  862MOL0     C13667  -0.059   1.731   9.493 -0.4110  0.4612 -1.0769
  862MOL0     C13668  -0.210   1.735   9.543  0.1229  1.0090 -1.0606
  862MOL0     N13669  -0.284   1.625   9.483 -0.9488  0.8237  0.2100
  862MOL0     C13670  -0.405   1.629   9.417 -0.1643 -0.4302 -0.9886
  862MOL0     C13671  -0.430   1.505   9.370  0.1078 -0.6233  0.8459
  862MOL0     C13672  -0.539   1.462   9.277 -0.5973  0.2685  0.1716
  862MOL0     C13673  -0.647   1.383   9.347 -0.0703 -0.8180  0.1736
  862MOL0     C13674  -0.736   1.476   9.432  0.2302  0.3119  0.1675
  862MOL0     C13675  -0.839   1.568   9.354  0.4214  0.7467 -0.0217
  862MOL0     O13676  -0.872   1.677   9.442  0.0745 -0.2166 -0.3015
  862MOL0     C13677  -0.915   1.797   9.372 -0.1032  0.0919 -0.1999
  862MOL0     C13678  -0.829   1.897   9.336  0.5980 -0.3173 -0.0317
  862MOL0     C13679  -0.871   2.005   9.264  0.1410 -0.5046 -0.6133
  862MOL0     C13680  -1.010   2.028   9.244  0.8437 -0.1236  1.3163
  862MOL0     C13681  -1.051   2.152   9.163 -0.4895  0.2370 -0.5853
  862MOL0     O13682  -1.171   2.155   9.106  0.6143  0.7166 -0.0475
  862MOL0     C13683  -1.211   2.269   9.038  0.1905 -0.1332  0.6980
  862MOL0     C13684  -1.259   2.260   8.901 -0.1244 -0.6123 -0.7807
  862MOL0     C13685  -1.305   2.374   8.828  0.3980  0.1251  0.5628
  862MOL0     C13686  -1.299   2.498   8.896 -0.3747  1.0875  0.0108
  862MOL0     O13687  -1.335   2.614   8.831 -0.0324  0.0108 -0.4408
  862MOL0     C13688  -1.354   2.626   8.690 -0.0526 -1.5411 -0.3742
  862MOL0     C13689  -1.323   2.770   8.641 -0.6199  0.8597 -0.3555
  862MOL0     C13690  -1.176   2.805   8.643  0.0728  0.3504 -0.5017
  862MOL0     C13691  -1.165   2.956   8.635  0.7528  0.8094 -0.5599
  862MOL0     C13692  -1.183   3.007   8.490  0.0530  0.3206 -0.7499
  862MOL0     C13693  -1.166   3.153   8.476 -0.0127 -0.3669 -0.5343
  862MOL0     C13694  -1.191   3.200   8.331  0.4961 -0.1611 -0.6452
  862MOL0     C13695  -1.198   3.351   8.307  0.4894  0.4853  0.3968
  862MOL0    Cl13696  -1.296   3.402   8.161  0.4881  0.1422  0.1546
  862MOL0     C13697  -1.276   2.504   9.036  0.2813  0.7232 -0.3735
  862MOL0     C13698  -1.223   2.394   9.103 -0.5105  0.1647 -0.0155
  862MOL0     O13699  -0.963   2.240   9.162  0.1544 -0.4700  0.9289
  862MOL0     C13700  -1.106   1.928   9.284 -0.6795 -0.7237  0.3782
  862MOL0     C13701  -1.051   1.816   9.347  0.0943  0.1984 -0.1293
  862MOL0     N13702  -0.320   1.434   9.393 -0.2383  0.4312 -0.0569
  862MOL0     N13703  -0.228   1.495   9.457  0.1023  0.3194  0.1018
  862MOL0     C13704   0.776   1.746   8.980 -1.2899  0.5913 -0.6903
  862MOL0     C13705   0.856   1.699   8.880  0.3081  0.7394  0.1796
  862MOL0     C13706   1.049   1.382   8.598 -0.5989 -0.7711 -0.0483
  862MOL0     C13707   1.025   1.457   8.476  1.5615  0.5633  0.0220
  862MOL0     C13708   1.097   1.422   8.357  0.8558 -0.6471 -0.9189
  862MOL0     C13709   1.168   1.309   8.343  0.0734 -0.0553 -0.4432
  862MOL0     O13710   1.214   1.266   8.218 -0.2106 -0.1138  0.0813
  862MOL0     C13711   1.122   1.195   8.134 -0.3082 -0.8938  0.5049
  862MOL0     C13712   1.066   1.308   8.038 -0.0272  1.0529 -0.9966
  862MOL0     C13713   0.976   1.235   7.934  0.0120 -0.1383 -0.1268
  862MOL0     C13714   0.961   1.327   7.816 -0.1629 -0.0400  0.8070
  862MOL0     C13715   1.075   1.329   7.733  0.1680  0.2912 -0.2699
  862MOL0     C13716   1.163   1.327   7.655  0.3765 -0.2291  0.7626
  862MOL0     C13717   1.186   1.230   8.462 -0.4172 -0.2799 -0.1310
  862MOL0     C13718   1.132   1.270   8.582  0.4302 -0.3185  0.5681
  862MOL0     H13719   0.670   1.421   8.815 -4.9777  3.1496 -2.0810
  862MOL0     H13720   0.546   1.501   8.996 -0.5881  1.2738 -0.8785
  862MOL0     H13721   0.550   1.576   9.253 -0.1677 -1.3220 -1.0064
  862MOL0     H13722   0.412   1.625   9.159 -0.5586 -1.0538  1.4999
  862MOL0     H13723   0.543   1.798   9.382  1.9482 -3.0330  0.3729
  862MOL0     H13724   0.432   1.677   9.425  0.5503 -0.1038  0.0039
  862MOL0     H13725   0.357   1.899   9.231 -1.6539  0.7307 -0.1309
  862MOL0     H13726   0.351   1.927   9.395 -0.4197 -2.6100  2.4816
  862MOL0     H13727   0.222   1.709   9.228  0.1790  0.3834 -0.5032
  862MOL0     H13728   0.215   1.697   9.398  2.6520 -2.3727 -2.6080
  862MOL0     H13729   0.069   1.907   9.227 -2.6560 -1.6971 -0.1694
  862MOL0     H13730   0.098   1.924   9.406  1.3368 -1.3599  0.3696
  862MOL0     H13731  -0.043   1.674   9.294 -1.6643 -0.3538  2.1730
  862MOL0     H13732  -0.121   1.833   9.326  0.2545  2.2106  0.2019
  862MOL0     H13733  -0.018   1.633   9.521 -4.1605 -0.0448  4.1934
  862MOL0     H13734  -0.018   1.799   9.568 -0.6473  0.6607 -1.1302
  862MOL0     H13735  -0.262   1.830   9.525 -1.0660 -0.1948 -5.0602
  862MOL0     H13736  -0.209   1.720   9.651  2.0923 -3.3589 -1.4872
  862MOL0     H13737  -0.456   1.723   9.403  2.0533  1.0427  0.2309
  862MOL0     H13738  -0.491   1.397   9.204 -0.7657 -1.4324  1.5343
  862MOL0     H13739  -0.580   1.546   9.219  0.5632 -0.3424 -1.6109
  862MOL0     H13740  -0.610   1.299   9.407  1.5840  0.8816  1.6467
  862MOL0     H13741  -0.711   1.355   9.263 -2.1950  1.0797  1.0849
  862MOL0     H13742  -0.797   1.426   9.508  0.1300  1.7184  1.0466
  862MOL0     H13743  -0.667   1.538   9.490  0.3953  0.8035 -0.5490
  862MOL0     H13744  -0.927   1.507   9.333  1.5693 -0.3189 -2.0973
  862MOL0     H13745  -0.789   1.607   9.265 -0.4628  2.8520  0.3628
  862MOL0     H13746  -0.729   1.899   9.378  0.1966  0.7806  0.9285
  862MOL0     H13747  -0.808   2.089   9.234 -1.2984 -0.1226 -2.8378
  862MOL0     H13748  -1.248   2.164   8.851 -0.3932 -0.3034 -1.4419
  862MOL0     H13749  -1.345   2.363   8.728  1.6830 -0.1558  0.0673
  862MOL0     H13750  -1.454   2.609   8.651 -0.6131  1.5760 -0.5899
  862MOL0     H13751  -1.284   2.555   8.645 -0.3854  0.4660 -4.5713
  862MOL0     H13752  -1.381   2.833   8.709  0.2700 -0.2909  1.5618
  862MOL0     H13753  -1.366   2.781   8.542 -1.2394 -1.8519 -0.4659
  862MOL0     H13754  -1.117   2.769   8.558 -2.5518 -1.4045 -1.7095
  862MOL0     H13755  -1.140   2.781   8.744 -0.8222  4.7049  1.0758
  862MOL0     H13756  -1.240   2.989   8.708  0.7991 -3.0936  1.5255
  862MOL0     H13757  -1.071   2.991   8.677  1.9852  0.4723 -2.8850
  862MOL0     H13758  -1.289   2.983   8.477 -0.1832  1.7607 -1.6789
  862MOL0     H13759  -1.132   2.942   8.418 -2.5093 -1.8707 -0.7785
  862MOL0     H13760  -1.066   3.178   8.510  0.7737  1.0995 -3.5504
  862MOL0     H13761  -1.235   3.211   8.537 -0.6521  3.2213 -4.2273
  862MOL0     H13762  -1.127   3.150   8.258 -1.7133 -0.9479 -2.1528
  862MOL0     H13763  -1.293   3.165   8.310  0.3939  0.6493 -1.5812
  862MOL0     H13764  -1.098   3.395   8.293  0.7854 -0.6129 -1.1670
  862MOL0     H13765  -1.241   3.405   8.392 -0.4168 -1.8490  1.5124
  862MOL0     H13766  -1.296   2.604   9.073  0.1975  1.5592 -2.5150
  862MOL0     H13767  -1.215   2.401   9.211 -0.7448  0.2084 -0.0006
  862MOL0     H13768  -1.212   1.950   9.278 -0.4035  0.9502  0.8458
  862MOL0     H13769  -1.123   1.739   9.374  0.0378 -0.2959 -1.6436
  862MOL0     H13770   0.801   1.838   9.032 -0.0051 -0.2435  0.2321
  862MOL0     H13771   0.941   1.764   8.863 -0.0139  1.2633  0.5402
  862MOL0     H13772   0.966   1.548   8.478 -0.5670 -0.7426  1.8720
  862MOL0     H13773   1.088   1.485   8.269  2.5042  0.0326 -0.6217
  862MOL0     H13774   1.040   1.153   8.194 -2.1585  0.0516 -1.2554
  862MOL0     H13775   1.182   1.116   8.088  1.5450  1.1383 -0.7165
  862MOL0     H13776   1.016   1.384   8.098  3.1434  2.9774 -0.5738
  862MOL0     H13777   1.155   1.353   7.993  0.5511  0.5343 -0.3962
  862MOL0     H13778   0.876   1.203   7.963 -1.3705  1.7216 -2.4665
  862MOL0     H13779   1.036   1.152   7.897  1.8131  2.1926 -2.8911
  862MOL0     H13780   0.878   1.301   7.750  1.3858  1.6172 -2.0361
  862MOL0     H13781   0.944   1.431   7.845  0.1617  0.1945  0.1797
  862MOL0     H13782   1.246   1.314   7.589 -0.8715 -3.4905 -0.3565
  862MOL0     H13783   1.231   1.131   8.450  0.8605  0.0154  1.7997
  862MOL0     H13784   1.142   1.192   8.658 -0.3992 -2.7118 -1.6119
  863MOL0     O13785   6.985   8.525   9.722 -0.1091 -0.1648 -0.2788
  863MOL0     C13786   6.910   8.607   9.681  0.1173  0.2487  0.1091
  863MOL0     O13787   6.944   8.715   9.596 -0.4347  0.3171 -0.3852
  863MOL0     C13788   7.071   8.733   9.541 -0.2252 -0.3750  0.3353
  863MOL0     C13789   7.094   8.760   9.408 -0.3141  0.5078  0.5307
  863MOL0     C13790   7.223   8.769   9.361 -0.2230 -0.1590 -0.5529
  863MOL0     C13791   7.336   8.746   9.439  1.5564  0.5857  0.2961
  863MOL0     O13792   7.465   8.752   9.400 -0.6892 -0.3120 -0.0192
  863MOL0     C13793   7.495   8.785   9.268  0.1764  0.0499 -0.7636
  863MOL0     C13794   7.649   8.795   9.243 -0.0151  0.8555  1.2230
  863MOL0     C13795   7.712   8.914   9.298 -1.2811 -0.3881 -0.2324
  863MOL0     C13796   7.862   8.902   9.311 -0.0976 -0.2134  0.0344
  863MOL0     C13797   7.921   9.022   9.378 -0.2365 -0.5719 -0.5339
  863MOL0     C13798   8.072   9.019   9.375  0.8857 -0.2470 -0.1683
  863MOL0     C13799   8.126   9.135   9.446 -0.0106 -0.1336  1.3988
  863MOL0     C13800   8.136   9.266   9.355  0.7017 -0.6946 -1.6444
  863MOL0     N13801   8.213   9.379   9.426  1.1216  0.6736  0.1627
  863MOL0     C13802   8.350   9.375   9.426 -0.1322 -0.3674 -0.0708
  863MOL0     C13803   8.377   9.484   9.507 -0.4540 -0.1917 -0.3291
  863MOL0     C13804   8.521   9.529   9.542 -0.1299  0.1158 -0.3820
  863MOL0     C13805   8.555   9.546   9.682  0.3982 -0.0933  0.0601
  863MOL0     C13806   8.694   9.605   9.710 -0.4084  0.3491 -0.4590
  863MOL0     C13807   8.785   9.481   9.695 -0.5247 -0.3992 -0.1295
  863MOL0     O13808   8.915   9.535   9.743  0.0560  0.0731 -0.1983
  863MOL0     C13809   9.029   9.455   9.765  0.0729  0.0246  0.3095
  863MOL0     C13810   9.134   9.523   9.832  0.0898 -0.0108 -0.9791
  863MOL0     C13811   9.256   9.463   9.863 -0.4691  0.3568  0.4871
  863MOL0     C13812   9.283   9.332   9.792 -0.2633 -1.0009 -0.1169
  863MOL0     C13813   9.415   9.270   9.795 -0.1474  0.4464  0.7533
  863MOL0     O13814   9.528   9.353   9.800 -0.0835 -0.0307  0.3684
  863MOL0     C13815   9.653   9.293   9.821  0.3217  0.2188 -1.6048
  863MOL0     C13816   9.743   9.349   9.910 -0.8567 -0.1315  0.2049
  863MOL0     C13817   9.863   9.291   9.953 -0.0081  0.5739 -0.2582
  863MOL0     C13818   9.907   9.174   9.903  0.0224  0.1971 -0.2267
  863MOL0     O13819  10.032   9.116   9.931  0.1231 -0.6751 -0.5532
  863MOL0     C13820  10.096   9.149  10.052 -0.0720 -0.1845 -0.0958
  863MOL0     C13821  10.239   9.084  10.044  0.1408  0.4277  1.3209
  863MOL0     C13822  10.217   8.936  10.053 -0.0775 -0.3800 -0.4913
  863MOL0     C13823  10.349   8.863  10.049  0.2791  0.2296 -0.4345
  863MOL0     C13824  10.335   8.719  10.093 -0.1633  0.2874 -0.0216
  863MOL0     C13825  10.267   8.626   9.998  0.5524  0.5269 -0.8667
  863MOL0     C13826  10.183   8.511  10.056  0.1283 -1.0732  0.0202
  863MOL0     C13827  10.258   8.409  10.142  0.5074  0.5829  0.8612
  863MOL0    Cl13828  10.314   8.491  10.287  0.6889  0.7059 -0.1287
  863MOL0     C13829   9.827   9.115   9.802  1.1415 -0.1117  0.4503
  863MOL0     C13830   9.703   9.176   9.760 -0.0784  0.5172 -1.0669
  863MOL0     O13831   9.411   9.149   9.780  0.1333  0.4873  0.9965
  863MOL0     C13832   9.184   9.276   9.716  0.7874  1.2610  0.5250
  863MOL0     C13833   9.050   9.329   9.701 -0.4021 -0.7879 -0.0851
  863MOL0     N13834   8.264   9.537   9.558  0.6584  0.7569 -0.4562
  863MOL0     N13835   8.161   9.475   9.506 -0.1839  0.8779  0.2808
  863MOL0     C13836   7.308   8.722   9.576 -0.1080 -0.5423 -0.5278
  863MOL0     C13837   7.181   8.711   9.625 -0.6271 -0.6194 -0.1590
  863MOL0     C13838   6.769   8.604   9.733  0.0454 -0.7281  0.5405
  863MOL0     C13839   6.697   8.725   9.720 -0.1051 -0.2764 -0.3739
  863MOL0     C13840   6.569   8.735   9.759 -0.7704 -0.1898 -0.1905
  863MOL0     C13841   6.506   8.626   9.819  0.3631 -0.3236  0.2938
  863MOL0     O13842   6.372   8.658   9.852 -0.4869  0.4993 -0.7845
  863MOL0     C13843   6.286   8.556   9.902  0.0263  0.6209  0.0898
  863MOL0     C13844   6.295   8.535  10.058 -0.0888  0.1932  1.1982
  863MOL0     C13845   6.246   8.661  10.114 -0.2232 -1.4107 -0.2884
  863MOL0     C13846   6.250   8.644  10.272  0.2608  1.3149 -1.0597
  863MOL0     C13847   6.149   8.546  10.335  0.3484 -0.5596 -0.1400
  863MOL0     C13848   6.065   8.473  10.393  0.3879 -0.2008  0.4272
  863MOL0     C13849   6.570   8.510   9.828 -0.0084 -0.9853  0.0460
  863MOL0     C13850   6.705   8.494   9.794 -1.0135 -0.0319  0.2571
  863MOL0     H13851   7.009   8.783   9.345  1.7199  0.7596 -2.3158
  863MOL0     H13852   7.233   8.793   9.256  1.1481  1.2566 -0.1355
  863MOL0     H13853   7.446   8.881   9.250 -0.4711 -0.0203  0.5145
  863MOL0     H13854   7.455   8.706   9.204 -1.4636  0.0540  0.2142
  863MOL0     H13855   7.681   8.788   9.138 -0.0345  0.6970  1.2269
  863MOL0     H13856   7.699   8.708   9.288  0.5064 -1.8521 -3.8441
  863MOL0     H13857   7.686   8.920   9.405 -0.7978 -0.9550 -0.0791
  863MOL0     H13858   7.694   9.004   9.239  2.2760  0.0905 -0.8254
  863MOL0     H13859   7.879   8.813   9.374 -3.3050 -1.9070 -1.2707
  863MOL0     H13860   7.902   8.891   9.210 -0.7100  0.5631 -0.2946
  863MOL0     H13861   7.893   9.029   9.484 -1.4622 -0.3821 -0.8496
  863MOL0     H13862   7.874   9.115   9.345  0.2787 -0.3031 -0.5224
  863MOL0     H13863   8.109   9.013   9.272 -1.1072  2.1427 -1.1075
  863MOL0     H13864   8.098   8.924   9.423 -0.4326  0.0006  1.1141
  863MOL0     H13865   8.052   9.152   9.525 -1.0583 -5.3475  1.9018
  863MOL0     H13866   8.227   9.114   9.483 -0.6030 -0.6306  2.8003
  863MOL0     H13867   8.032   9.286   9.326  0.2139 -0.5719  0.0999
  863MOL0     H13868   8.178   9.241   9.257 -1.1207  1.7316 -3.1554
  863MOL0     H13869   8.426   9.313   9.378  0.3861 -0.8751  1.3573
  863MOL0     H13870   8.550   9.627   9.504  2.9192  0.1327  1.6216
  863MOL0     H13871   8.577   9.446   9.497 -1.6213 -1.5365  0.6583
  863MOL0     H13872   8.537   9.458   9.745  2.3250 -1.7906 -1.6239
  863MOL0     H13873   8.486   9.621   9.723  1.4408 -0.0162  1.7832
  863MOL0     H13874   8.705   9.671   9.623 -1.7446  0.2902 -0.6919
  863MOL0     H13875   8.703   9.648   9.810 -1.7792 -0.1464 -0.0954
  863MOL0     H13876   8.780   9.433   9.597  1.8792 -1.8079  0.3489
  863MOL0     H13877   8.768   9.401   9.766 -1.3346  0.6257  0.8606
  863MOL0     H13878   9.118   9.623   9.871  0.6513  1.2971 -3.8748
  863MOL0     H13879   9.335   9.510   9.921  0.1559 -0.7513  0.5533
  863MOL0     H13880   9.705   9.442   9.951  1.1695  1.5214 -1.4404
  863MOL0     H13881   9.923   9.340  10.030 -0.1944 -0.3569  0.4905
  863MOL0     H13882  10.045   9.114  10.142  0.1310  1.0177  0.4976
  863MOL0     H13883  10.112   9.257  10.054  0.6342 -0.2873  1.6093
  863MOL0     H13884  10.305   9.125  10.121  0.1363 -2.8663  3.2486
  863MOL0     H13885  10.287   9.097   9.946 -0.7850 -0.9435  0.6670
  863MOL0     H13886  10.150   8.899   9.974 -1.5933  0.5297  0.3201
  863MOL0     H13887  10.157   8.921  10.143 -0.5761  0.7785 -0.6078
  863MOL0     H13888  10.404   8.870   9.955  0.4968 -0.4590 -0.3643
  863MOL0     H13889  10.402   8.919  10.127 -2.8998  1.3637  1.0893
  863MOL0     H13890  10.277   8.735  10.185  2.9915 -1.2595  2.4169
  863MOL0     H13891  10.427   8.669  10.125  0.0681  0.1811 -0.8423
  863MOL0     H13892  10.334   8.563   9.939 -0.1689 -2.2349  1.0628
  863MOL0     H13893  10.203   8.685   9.933 -3.0724 -1.7074  0.3452
  863MOL0     H13894  10.110   8.554  10.125  1.0948 -2.6758  2.1753
  863MOL0     H13895  10.132   8.453   9.978 -0.7384 -3.0718  1.9737
  863MOL0     H13896  10.337   8.373  10.075  1.2212 -1.6703  2.7380
  863MOL0     H13897  10.190   8.327  10.169  1.9611 -0.2381  2.2260
  863MOL0     H13898   9.854   9.026   9.745 -5.4903 -1.9905 -0.5553
  863MOL0     H13899   9.654   9.141   9.670 -2.6192  1.1832 -0.0458
  863MOL0     H13900   9.211   9.184   9.665 -2.0666 -0.6522  2.1892
  863MOL0     H13901   8.982   9.278   9.634 -0.4745  1.0992 -1.5292
  863MOL0     H13902   7.386   8.723   9.652  0.5563 -2.7045 -1.1273
  863MOL0     H13903   7.158   8.683   9.727 -2.1838 -0.8913 -0.5619
  863MOL0     H13904   6.741   8.813   9.674 -0.4774 -0.3944 -0.9680
  863MOL0     H13905   6.514   8.828   9.749  1.2892  0.9544 -1.7265
  863MOL0     H13906   6.325   8.465   9.856 -0.3204  0.4322  0.1657
  863MOL0     H13907   6.183   8.577   9.872 -0.0306 -0.3994 -0.4475
  863MOL0     H13908   6.232   8.450  10.085 -1.1496  0.6194  0.1873
  863MOL0     H13909   6.393   8.506  10.096 -1.3944 -0.8068  4.1083
  863MOL0     H13910   6.142   8.683  10.087  0.0456  1.7423  0.8891
  863MOL0     H13911   6.315   8.740  10.084 -1.0038  0.2544  2.0017
  863MOL0     H13912   6.345   8.606  10.309 -1.7407 -1.0730  2.1547
  863MOL0     H13913   6.238   8.734  10.333 -0.1960  0.8159 -0.3982
  863MOL0     H13914   5.984   8.426  10.444 -0.4850  3.3975  2.6955
  863MOL0     H13915   6.529   8.418   9.868 -0.9948 -2.0637 -3.1551
  863MOL0     H13916   6.756   8.399   9.809 -2.9976 -1.3513 -0.8337
  864MOL0     O13917   3.369   8.437   9.379 -1.1368  0.6102 -1.0456
  864MOL0     C13918   3.372   8.486   9.261 -0.8787 -0.6206 -0.0956
  864MOL0     O13919   3.471   8.568   9.210 -0.2183  0.0953 -0.3804
  864MOL0     C13920   3.600   8.577   9.262  0.7759  0.7683 -0.9381
  864MOL0     C13921   3.627   8.590   9.399  0.2684  0.7015  0.6811
  864MOL0     C13922   3.756   8.609   9.445  0.4823 -0.2011 -0.4276
  864MOL0     C13923   3.873   8.601   9.358  0.7985  0.6994 -0.7461
  864MOL0     O13924   3.986   8.617   9.417 -1.0673  0.1243  0.2788
  864MOL0     C13925   4.107   8.618   9.345  0.3972  0.4071  0.0879
  864MOL0     C13926   4.207   8.698   9.428  1.3095  0.0917 -0.8304
  864MOL0     C13927   4.182   8.846   9.415  0.5557 -0.3049 -0.3341
  864MOL0     C13928   4.310   8.921   9.435  0.3501 -0.4798 -0.6811
  864MOL0     C13929   4.363   8.912   9.579  0.7763 -0.1467  0.2323
  864MOL0     C13930   4.505   8.969   9.590 -0.4465 -1.1047  0.2428
  864MOL0     C13931   4.503   9.108   9.653 -1.3006 -0.6485  0.8962
  864MOL0     C13932   4.650   9.161   9.667 -0.6654  0.8861  0.2360
  864MOL0     N13933   4.662   9.245   9.780  0.1465 -0.8357  1.2795
  864MOL0     C13934   4.612   9.372   9.769 -0.5779  0.5330  0.2066
  864MOL0     C13935   4.630   9.415   9.892  0.3823 -0.3054 -0.7111
  864MOL0     C13936   4.610   9.551   9.940 -1.5642  0.3678 -0.2837
  864MOL0     C13937   4.752   9.625   9.903  0.4265  0.9760  0.2443
  864MOL0     C13938   4.740   9.768   9.956  1.1461  0.7490 -0.0152
  864MOL0     C13939   4.864   9.847   9.924  0.3251  0.6509 -0.2206
  864MOL0     O13940   4.984   9.782   9.987 -0.3053 -0.1275 -0.0329
  864MOL0     C13941   5.094   9.861  10.007 -0.3055  0.5426 -0.0893
  864MOL0     C13942   5.125   9.967   9.916 -0.3904  0.4499 -0.2049
  864MOL0     C13943   5.245  10.037   9.924  0.2497 -0.4068  0.3983
  864MOL0     C13944   5.321  10.015  10.035 -0.4397 -0.4693 -0.7313
  864MOL0     C13945   5.443  10.103  10.060  0.3439  0.1070 -0.7481
  864MOL0     O13946   5.558  10.039  10.096  0.4161  0.2854 -0.4022
  864MOL0     C13947   5.671  10.096  10.127  0.6963  0.2681 -0.0411
  864MOL0     C13948   5.765  10.009  10.191  0.2442  1.1800 -0.3605
  864MOL0     C13949   5.890  10.057  10.221  0.1462  0.5162  0.1189
  864MOL0     C13950   5.933  10.195  10.199  0.6942 -0.8842 -0.3424
  864MOL0     O13951   6.066  10.230  10.238  0.7902 -0.1175  0.2898
  864MOL0     C13952   6.113  10.351  10.184 -0.6454 -0.0719 -0.1443
  864MOL0     C13953   6.227  10.325  10.085 -0.1019  0.2336 -0.8314
  864MOL0     C13954   6.342  10.222  10.130 -0.0610 -0.1677  0.1535
  864MOL0     C13955   6.470  10.222  10.044 -1.6209  0.8566 -0.1070
  864MOL0     C13956   6.585  10.131  10.097  0.8961  0.2032 -0.1623
  864MOL0     C13957   6.706  10.121  10.003 -0.3299 -0.9555 -0.0316
  864MOL0     C13958   6.779   9.994  10.029  0.7733 -0.0665  0.0756
  864MOL0     C13959   6.897  10.007  10.125 -0.4012  0.3785  0.4362
  864MOL0    Cl13960   6.833  10.026  10.291  0.5111 -0.3044 -0.3364
  864MOL0     C13961   5.838  10.284  10.131 -0.5274  0.4169  0.7424
  864MOL0     C13962   5.712  10.234  10.095 -1.0293  0.6804 -0.0218
  864MOL0     O13963   5.423  10.223  10.048 -0.3631  0.1731 -1.0152
  864MOL0     C13964   5.297   9.919  10.131  0.6326 -0.1443  0.1151
  864MOL0     C13965   5.195   9.837  10.109  0.8016  0.0447  0.8689
  864MOL0     N13966   4.678   9.310   9.967  0.5990 -0.4523  0.3093
  864MOL0     N13967   4.695   9.203   9.904  0.1704 -0.1385 -0.2226
  864MOL0     C13968   3.839   8.578   9.220 -0.4183 -1.0492  0.2931
  864MOL0     C13969   3.707   8.574   9.171  1.3398 -0.2401  0.3687
  864MOL0     C13970   3.250   8.458   9.188  1.1200  0.8298  0.6300
  864MOL0     C13971   3.224   8.494   9.056  0.2806  0.7357 -0.1002
  864MOL0     C13972   3.094   8.486   8.991  0.4563  0.2189  0.3278
  864MOL0     C13973   2.987   8.438   9.066 -0.4156 -0.4057  0.4106
  864MOL0     O13974   2.868   8.436   9.000  0.5784  0.0765 -0.5244
  864MOL0     C13975   2.741   8.407   9.063 -1.5535  0.2955 -0.0347
  864MOL0     C13976   2.670   8.533   9.065  0.5152 -0.2289  0.5284
  864MOL0     C13977   2.724   8.633   9.166  0.3912 -0.0605 -0.4683
  864MOL0     C13978   2.618   8.741   9.204  0.1539 -0.3935  0.5688
  864MOL0     C13979   2.502   8.668   9.278 -0.7055  0.5173  0.3939
  864MOL0     C13980   2.432   8.621   9.356 -0.1771  0.8649  0.1364
  864MOL0     C13981   3.011   8.391   9.196  0.2331 -0.8924 -0.8519
  864MOL0     C13982   3.136   8.409   9.262  0.0944  0.1751  0.7053
  864MOL0     H13983   3.556   8.605   9.480  0.7256  1.9184  0.8644
  864MOL0     H13984   3.776   8.629   9.550 -0.4682 -0.1317 -0.2567
  864MOL0     H13985   4.112   8.673   9.251  3.9286 -2.3880 -1.6264
  864MOL0     H13986   4.130   8.514   9.321 -1.1266  0.4547 -1.7637
  864MOL0     H13987   4.297   8.675   9.370  0.7164 -2.1123 -0.9734
  864MOL0     H13988   4.232   8.657   9.526  0.0212 -2.9793 -1.6792
  864MOL0     H13989   4.104   8.887   9.479  0.0519 -1.7532  0.0306
  864MOL0     H13990   4.146   8.866   9.314 -2.4240 -2.3189  0.2122
  864MOL0     H13991   4.385   8.898   9.359  0.5872 -0.5541 -0.4274
  864MOL0     H13992   4.289   9.026   9.413 -0.2693 -0.8422 -1.8883
  864MOL0     H13993   4.373   8.809   9.614 -0.7340 -0.1222  0.7728
  864MOL0     H13994   4.293   8.956   9.650  1.5324  3.9995 -1.3096
  864MOL0     H13995   4.552   8.968   9.491 -1.3427  0.2269 -0.2395
  864MOL0     H13996   4.564   8.907   9.657  3.2106 -0.5370 -2.1680
  864MOL0     H13997   4.445   9.178   9.592  0.5292 -0.5103 -0.7750
  864MOL0     H13998   4.454   9.106   9.751  1.4845  3.6519  2.6661
  864MOL0     H13999   4.693   9.208   9.578  0.2203 -1.5862 -0.6991
  864MOL0     H14000   4.720   9.081   9.693  0.7909  2.1829  0.4783
  864MOL0     H14001   4.576   9.431   9.685 -0.2132  0.8115  0.2440
  864MOL0     H14002   4.595   9.544  10.049 -2.5280  1.5064 -0.3269
  864MOL0     H14003   4.539   9.622   9.897 -0.4235 -0.2873 -3.4781
  864MOL0     H14004   4.771   9.639   9.796  0.0491 -2.7358 -0.4549
  864MOL0     H14005   4.832   9.561   9.941  0.4430 -1.2413 -3.0595
  864MOL0     H14006   4.654   9.824   9.917  0.7484  3.4434  3.9956
  864MOL0     H14007   4.719   9.770  10.064 -0.8999  0.6237 -0.3763
  864MOL0     H14008   4.857   9.949   9.963  1.9439  0.4787  0.5879
  864MOL0     H14009   4.875   9.850   9.815  1.3484 -0.0342 -0.1437
  864MOL0     H14010   5.068   9.966   9.824  1.1711  0.1681 -1.1980
  864MOL0     H14011   5.271  10.110   9.849 -0.9500 -2.6104 -2.3310
  864MOL0     H14012   5.732   9.917  10.237  0.4917  1.4788  0.4267
  864MOL0     H14013   5.955   9.983  10.268 -0.6130 -0.7715 -0.7798
  864MOL0     H14014   6.157  10.409  10.266 -0.9630 -1.1285  0.7964
  864MOL0     H14015   6.043  10.420  10.136 -0.7500 -0.1757 -0.1392
  864MOL0     H14016   6.274  10.420  10.059 -0.6299  1.3509  2.0021
  864MOL0     H14017   6.171  10.275  10.005 -0.3638 -2.7658  1.0577
  864MOL0     H14018   6.306  10.119  10.130 -1.4550  0.2364  2.2764
  864MOL0     H14019   6.370  10.254  10.231 -0.1764  2.3663 -0.5363
  864MOL0     H14020   6.443  10.190   9.943  3.6420  0.1208 -1.5374
  864MOL0     H14021   6.503  10.326  10.043 -0.9803  0.7284  2.0944
  864MOL0     H14022   6.546  10.029  10.103 -2.3941  1.2519 -1.1673
  864MOL0     H14023   6.626  10.177  10.187 -1.2089  1.0861  0.4092
  864MOL0     H14024   6.774  10.206  10.003 -0.2049 -0.9587  2.6455
  864MOL0     H14025   6.676  10.111   9.898  1.7611 -2.7832 -0.5576
  864MOL0     H14026   6.715   9.907  10.047 -2.8598  1.9557 -1.8641
  864MOL0     H14027   6.823   9.977   9.930 -1.5273 -0.0304 -1.0397
  864MOL0     H14028   6.944  10.098  10.087 -3.0560  1.2390 -1.0075
  864MOL0     H14029   6.957   9.917  10.104 -0.2490  1.2524 -3.7234
  864MOL0     H14030   5.852  10.390  10.114 -3.0414  0.5137 -1.4722
  864MOL0     H14031   5.652  10.304  10.037 -3.2263 -1.2244 -0.1626
  864MOL0     H14032   5.367   9.891  10.209 -0.2387 -0.2186  0.8978
  864MOL0     H14033   5.172   9.757  10.179  1.8043  0.7528  2.0481
  864MOL0     H14034   3.922   8.580   9.150 -0.9839  2.5340 -0.5147
  864MOL0     H14035   3.675   8.560   9.068 -0.9694 -0.3520  1.0576
  864MOL0     H14036   3.315   8.524   9.006  1.7889 -2.1592  0.6863
  864MOL0     H14037   3.082   8.512   8.886 -0.5945 -2.8120 -0.4010
  864MOL0     H14038   2.747   8.356   9.160 -0.9071 -0.2075 -0.3272
  864MOL0     H14039   2.689   8.336   8.998 -1.1769 -1.3729  1.3851
  864MOL0     H14040   2.686   8.581   8.968 -0.7621  1.7044  1.2042
  864MOL0     H14041   2.564   8.517   9.085 -0.5475 -0.8925 -4.4699
  864MOL0     H14042   2.806   8.693   9.126  1.1049  1.3346  2.7614
  864MOL0     H14043   2.759   8.588   9.259  1.7691 -1.7748 -1.7466
  864MOL0     H14044   2.666   8.817   9.266 -0.9665  0.5138  0.3428
  864MOL0     H14045   2.580   8.784   9.111  2.0737 -0.6647 -0.3972
  864MOL0     H14046   2.354   8.582   9.419  2.9201 -5.3107  0.8810
  864MOL0     H14047   2.932   8.339   9.249 -2.2555  2.7546 -0.5866
  864MOL0     H14048   3.161   8.360   9.356  3.6721 -1.3297 -0.8302
  865MOL0     O14049   6.113   0.109   0.216 -0.3348  0.2407 -0.5698
  865MOL0     C14050   6.075   0.092   0.102 -0.7039  0.3241  0.4374
  865MOL0     O14051   5.966   0.028   0.068  0.2258  0.5064  0.0699
  865MOL0     C14052   5.886  -0.011   0.174  0.2977  0.9673  0.3122
  865MOL0     C14053   5.914  -0.139   0.229  1.3007  0.2397 -0.0717
  865MOL0     C14054   5.828  -0.190   0.326  0.7465 -0.0640  0.6449
  865MOL0     C14055   5.726  -0.105   0.372 -1.0046 -0.6179 -0.3190
  865MOL0     O14056   5.637  -0.136   0.469 -0.1792  0.4533  0.5814
  865MOL0     C14057   5.680  -0.179   0.596 -0.3953 -0.5018 -0.5015
  865MOL0     C14058   5.747  -0.075   0.695 -0.7111 -0.9803 -0.2281
  865MOL0     C14059   5.664   0.045   0.714  0.3856 -0.0286 -0.2638
  865MOL0     C14060   5.579   0.033   0.845  0.4344  0.3139  1.0636
  865MOL0     C14061   5.511   0.160   0.893 -0.7191 -0.7574  0.1191
  865MOL0     C14062   5.530   0.184   1.043  0.4243 -0.5683  0.0162
  865MOL0     C14063   5.501   0.331   1.085  0.1112  0.4795  0.2674
  865MOL0     C14064   5.359   0.370   1.038 -0.3042 -0.0350 -0.1805
  865MOL0     N14065   5.282   0.482   1.095 -1.0865  0.7938  0.2018
  865MOL0     C14066   5.164   0.476   1.169  0.0246  0.0944 -0.3325
  865MOL0     C14067   5.117   0.596   1.178  0.7061 -0.7501  1.4981
  865MOL0     C14068   4.997   0.638   1.252  0.1417  0.5049 -0.2467
  865MOL0     C14069   5.022   0.689   1.398  0.7766  0.7528 -0.6048
  865MOL0     C14070   5.107   0.581   1.486 -0.6172 -1.2373 -0.1690
  865MOL0     C14071   5.089   0.601   1.636 -0.7114 -0.7497 -0.2254
  865MOL0     O14072   5.129   0.741   1.665  0.5662 -0.7739  0.0418
  865MOL0     C14073   5.264   0.773   1.662 -0.3575  0.6248 -0.4784
  865MOL0     C14074   5.298   0.890   1.600  0.1414  0.3949 -0.7271
  865MOL0     C14075   5.414   0.946   1.616 -0.1885 -0.5706 -0.4757
  865MOL0     C14076   5.509   0.880   1.685 -0.6418 -1.2427  0.4754
  865MOL0     C14077   5.652   0.940   1.687  0.2142  0.9199  0.9057
  865MOL0     O14078   5.758   0.855   1.720  0.7604 -0.5831 -0.0695
  865MOL0     C14079   5.886   0.899   1.697 -0.7547  0.1845 -0.3883
  865MOL0     C14080   5.975   0.842   1.596 -0.2785  0.8733 -0.5202
  865MOL0     C14081   6.100   0.895   1.574  0.4119 -0.1438  0.5657
  865MOL0     C14082   6.133   1.011   1.640 -0.0455 -0.3602  0.2553
  865MOL0     O14083   6.254   1.065   1.621  0.3409 -0.4099  0.0658
  865MOL0     C14084   6.290   1.123   1.493 -0.3321  0.4210 -0.6591
  865MOL0     C14085   6.431   1.070   1.453  0.1244  0.1192  0.0867
  865MOL0     C14086   6.540   1.087   1.559  0.2004 -0.3903 -0.1723
  865MOL0     C14087   6.537   1.235   1.612  0.2378  0.3607 -0.1941
  865MOL0     C14088   6.605   1.331   1.512 -0.0361  0.6916  0.9851
  865MOL0     C14089   6.591   1.477   1.546 -0.3358  0.0241  0.2882
  865MOL0     C14090   6.634   1.553   1.417  0.1721 -0.7615 -0.5153
  865MOL0     C14091   6.614   1.699   1.456 -0.8500 -1.0309  0.7804
  865MOL0    Cl14092   6.654   1.805   1.321 -0.1894  0.3706  0.0433
  865MOL0     C14093   6.048   1.072   1.737 -0.4565 -0.5537  0.6416
  865MOL0     C14094   5.923   1.016   1.759 -0.2610  0.8776  1.4434
  865MOL0     O14095   5.662   1.052   1.647 -0.2287  0.0303 -0.6284
  865MOL0     C14096   5.486   0.760   1.751 -1.3646  0.1951 -0.1279
  865MOL0     C14097   5.356   0.702   1.737 -0.2216 -0.0919 -0.1116
  865MOL0     N14098   5.202   0.680   1.101  0.5655  0.8980 -0.3744
  865MOL0     N14099   5.306   0.605   1.063  0.5037 -0.3682  0.5426
  865MOL0     C14100   5.699   0.023   0.316 -0.7802 -0.0879 -0.8554
  865MOL0     C14101   5.776   0.064   0.213 -0.7546  0.6936  0.4697
  865MOL0     C14102   6.147   0.148  -0.012 -0.7154  1.2050 -0.2825
  865MOL0     C14103   6.275   0.208  -0.004 -0.1285  1.7985  0.3046
  865MOL0     C14104   6.336   0.274  -0.114  0.4681  0.3727  0.5144
  865MOL0     C14105   6.255   0.290  -0.225 -0.8716 -0.1531 -0.6361
  865MOL0     O14106   6.312   0.391  -0.297  0.0681  0.7800  0.4956
  865MOL0     C14107   6.288   0.400  -0.443  0.1286  0.2730  0.2356
  865MOL0     C14108   6.393   0.498  -0.504  0.1996  0.5892  0.3005
  865MOL0     C14109   6.406   0.484  -0.651  0.0526  1.7822  0.2045
  865MOL0     C14110   6.554   0.514  -0.685 -0.8967  0.3675 -0.8260
  865MOL0     C14111   6.580   0.518  -0.828  0.1192  0.8232  0.1855
  865MOL0     C14112   6.575   0.508  -0.953 -0.0498 -0.2033  0.1232
  865MOL0     C14113   6.126   0.231  -0.246 -0.0185  0.0689  0.1830
  865MOL0     C14114   6.076   0.150  -0.141 -0.1880 -0.2147 -0.3859
  865MOL0     H14115   6.002  -0.186   0.185  0.4709  1.1341 -2.8782
  865MOL0     H14116   5.830  -0.288   0.371 -1.1144  1.9570  5.9843
  865MOL0     H14117   5.741  -0.270   0.594  2.8178  1.5238 -1.4113
  865MOL0     H14118   5.589  -0.208   0.649 -1.5672  0.6462 -1.7964
  865MOL0     H14119   5.843  -0.044   0.654 -0.5128 -2.7791 -1.2534
  865MOL0     H14120   5.769  -0.127   0.789 -1.0778  0.9816  0.9943
  865MOL0     H14121   5.608   0.072   0.624 -0.3351 -3.0530 -0.8372
  865MOL0     H14122   5.732   0.130   0.723 -1.4156  1.7655 -2.3629
  865MOL0     H14123   5.509  -0.051   0.838 -0.3641  1.0456  0.0036
  865MOL0     H14124   5.650   0.010   0.926 -0.3168  0.3517  1.7461
  865MOL0     H14125   5.404   0.147   0.873 -0.4527 -0.5600 -1.6212
  865MOL0     H14126   5.556   0.243   0.838 -2.1875 -1.6222 -2.5575
  865MOL0     H14127   5.634   0.155   1.060  0.5895  0.5979  1.1232
  865MOL0     H14128   5.463   0.130   1.110 -1.3223  2.2126  0.6832
  865MOL0     H14129   5.497   0.329   1.195  0.8576  2.7306  0.3714
  865MOL0     H14130   5.574   0.408   1.058 -0.0304  1.0893  1.5535
  865MOL0     H14131   5.300   0.279   1.048 -0.0607 -0.3393 -1.3992
  865MOL0     H14132   5.367   0.372   0.929  0.9108 -1.5389 -0.1478
  865MOL0     H14133   5.120   0.387   1.212 -1.5362  2.0556  2.4807
  865MOL0     H14134   4.924   0.556   1.250  0.1396  0.3862  1.8525
  865MOL0     H14135   4.956   0.726   1.202  2.8908  2.4582  0.6963
  865MOL0     H14136   4.922   0.705   1.437  0.6523  1.7191 -1.2999
  865MOL0     H14137   5.085   0.777   1.409  2.2910 -0.5847  3.1959
  865MOL0     H14138   5.098   0.477   1.454  1.8160 -1.7240  0.5706
  865MOL0     H14139   5.214   0.584   1.463 -0.2843 -4.1038  0.6942
  865MOL0     H14140   5.141   0.531   1.702  2.5435  2.3804  0.8237
  865MOL0     H14141   4.980   0.587   1.641 -0.8116 -0.2167 -0.7889
  865MOL0     H14142   5.226   0.956   1.553 -0.0695  3.5087  3.3827
  865MOL0     H14143   5.430   1.040   1.563  0.5857 -1.6969 -2.3244
  865MOL0     H14144   5.940   0.750   1.551 -1.1642 -0.3648  2.4700
  865MOL0     H14145   6.165   0.862   1.494 -0.3040 -0.2777  0.0191
  865MOL0     H14146   6.277   1.229   1.520 -4.5378  0.1563 -0.9481
  865MOL0     H14147   6.212   1.097   1.422 -1.7237  1.6637  0.3456
  865MOL0     H14148   6.452   1.124   1.359  2.9499  0.1026  0.6251
  865MOL0     H14149   6.422   0.965   1.426  0.4545  0.0483  0.2586
  865MOL0     H14150   6.637   1.067   1.514  1.8348  0.0724  2.8252
  865MOL0     H14151   6.519   1.038   1.655  1.5510  2.9304  2.0306
  865MOL0     H14152   6.444   1.278   1.649  0.5345 -1.2766  2.7620
  865MOL0     H14153   6.598   1.243   1.703 -2.3172  2.3247  1.4859
  865MOL0     H14154   6.574   1.313   1.408 -3.3006  0.1040  1.9312
  865MOL0     H14155   6.712   1.311   1.508 -0.2904 -0.6362  0.5497
  865MOL0     H14156   6.643   1.507   1.637 -0.6811  0.1855  0.4361
  865MOL0     H14157   6.487   1.500   1.572  0.0307  1.6023  0.4142
  865MOL0     H14158   6.741   1.535   1.398  0.3951  0.0996 -0.1611
  865MOL0     H14159   6.573   1.522   1.332 -2.3086  1.7691  0.2072
  865MOL0     H14160   6.678   1.725   1.540  1.9220 -1.0972 -1.1821
  865MOL0     H14161   6.509   1.725   1.473 -0.4871  3.3896 -2.0233
  865MOL0     H14162   6.073   1.163   1.792  0.3892 -1.4874  1.8639
  865MOL0     H14163   5.858   1.062   1.834 -0.1540 -1.4983  3.0936
  865MOL0     H14164   5.565   0.720   1.814 -2.2740 -2.5997 -0.6253
  865MOL0     H14165   5.334   0.617   1.800 -1.0277  1.6129  2.0676
  865MOL0     H14166   5.618   0.085   0.352 -0.7802 -0.7552  0.3396
  865MOL0     H14167   5.757   0.152   0.152 -1.2957  1.7428  2.0904
  865MOL0     H14168   6.336   0.198   0.086  2.7131  3.4087 -1.2942
  865MOL0     H14169   6.426   0.332  -0.097  2.4415 -1.4303 -2.7335
  865MOL0     H14170   6.185   0.422  -0.474  0.3524  0.5435 -0.3204
  865MOL0     H14171   6.305   0.300  -0.485 -0.1849  1.8344 -4.1278
  865MOL0     H14172   6.370   0.602  -0.477 -3.2400 -0.1252  0.5548
  865MOL0     H14173   6.482   0.470  -0.446 -0.7251  1.6827  2.3637
  865MOL0     H14174   6.335   0.550  -0.701  0.5556  1.9154 -0.3441
  865MOL0     H14175   6.381   0.382  -0.680  3.2097  0.9151  0.1196
  865MOL0     H14176   6.573   0.616  -0.648 -1.8118  0.8116 -1.5276
  865MOL0     H14177   6.627   0.449  -0.637 -0.1647  1.3236 -0.6255
  865MOL0     H14178   6.553   0.505  -1.058  1.9976 -2.3568 -0.3239
  865MOL0     H14179   6.063   0.248  -0.332 -0.7064 -0.0421  0.6611
  865MOL0     H14180   5.983   0.103  -0.173  1.6011 -4.9637  0.4678
  866MOL0     O14181   9.249   2.698   1.808  0.1350  0.1055 -0.4970
  866MOL0     C14182   9.233   2.821   1.791  0.2267  0.1240 -0.3570
  866MOL0     O14183   9.331   2.907   1.757  0.2060 -0.8827  0.2489
  866MOL0     C14184   9.459   2.867   1.760 -0.3617 -0.6493 -1.5606
  866MOL0     C14185   9.553   2.941   1.838 -0.0558 -0.3814  0.2603
  866MOL0     C14186   9.677   2.892   1.857 -0.4991 -0.1231  0.3439
  866MOL0     C14187   9.719   2.775   1.799 -0.3186 -0.3393  0.9867
  866MOL0     O14188   9.848   2.733   1.814 -0.2078  0.0320 -0.2798
  866MOL0     C14189   9.872   2.615   1.891 -0.1106 -0.0179 -0.9407
  866MOL0     C14190   9.891   2.654   2.042  0.3779 -0.0717 -0.1045
  866MOL0     C14191   9.983   2.779   2.049 -0.1441 -0.3105 -0.0505
  866MOL0     C14192  10.018   2.817   2.195  0.6492  0.0125  0.3183
  866MOL0     C14193  10.018   2.708   2.305 -0.1794 -0.1382  0.6967
  866MOL0     C14194  10.059   2.751   2.448  0.4769  0.5873  0.5937
  866MOL0     C14195  10.181   2.838   2.473  0.0945  0.5313 -0.0760
  866MOL0     C14196  10.319   2.760   2.471  0.7673  0.4712  0.2669
  866MOL0     N14197  10.429   2.845   2.524  0.4094 -0.1150 -0.3511
  866MOL0     C14198  10.409   2.978   2.553  0.2294 -0.6291 -0.1953
  866MOL0     C14199  10.526   3.024   2.612 -0.1422  0.6042 -0.2824
  866MOL0     C14200  10.557   3.163   2.657 -0.3224  0.6485  0.0373
  866MOL0     C14201  10.691   3.203   2.601 -0.0079  0.5740 -0.7701
  866MOL0     C14202  10.719   3.355   2.606  0.9271 -0.1904 -0.1308
  866MOL0     C14203  10.858   3.395   2.566 -0.7149  0.5599  0.2985
  866MOL0     O14204  10.851   3.379   2.424 -0.5487  0.4227 -0.1366
  866MOL0     C14205  10.967   3.411   2.361  0.2125 -1.1404  0.2560
  866MOL0     C14206  11.093   3.463   2.421 -0.4198  0.1040  0.5349
  866MOL0     C14207  11.207   3.486   2.339  0.3152 -0.5884  0.1153
  866MOL0     C14208  11.205   3.472   2.198  0.0107  0.5411  0.2842
  866MOL0     C14209  11.321   3.517   2.116  0.0693  0.3021  0.5616
  866MOL0     O14210  11.320   3.503   1.976 -0.0206  0.3818  0.0343
  866MOL0     C14211  11.445   3.525   1.931  0.0318  0.4047  0.9800
  866MOL0     C14212  11.536   3.427   1.916  0.1768  0.6643  0.6571
  866MOL0     C14213  11.669   3.451   1.883 -0.1934  0.2862 -0.4258
  866MOL0     C14214  11.714   3.577   1.865  0.6308 -0.0092  0.6065
  866MOL0     O14215  11.842   3.616   1.839 -0.4621  0.0366 -0.4840
  866MOL0     C14216  11.926   3.521   1.762  0.6161 -0.7965 -0.2988
  866MOL0     C14217  12.041   3.604   1.725  0.2115  0.0919 -1.2242
  866MOL0     C14218  12.005   3.708   1.626  0.0902 -0.7888  0.1936
  866MOL0     C14219  11.985   3.668   1.484  0.3635  0.7010 -0.1164
  866MOL0     C14220  11.911   3.775   1.402  0.0749  1.2416  0.1443
  866MOL0     C14221  11.937   3.764   1.255  0.2227  0.2176 -0.2381
  866MOL0     C14222  12.077   3.818   1.228  0.1102 -0.1191 -0.0912
  866MOL0     C14223  12.105   3.805   1.079  0.5071 -0.3052  0.6526
  866MOL0    Cl14224  12.215   3.943   1.023  0.7892 -0.1276 -0.2001
  866MOL0     C14225  11.620   3.681   1.881  0.1673 -0.1469  0.1988
  866MOL0     C14226  11.485   3.658   1.907 -0.1233 -0.1453  0.7008
  866MOL0     O14227  11.403   3.587   2.177  0.6108  1.1015 -0.2076
  866MOL0     C14228  11.091   3.401   2.144  0.0233 -0.2874 -0.7569
  866MOL0     C14229  10.980   3.370   2.225  0.3780  0.6315 -0.0759
  866MOL0     N14230  10.616   2.921   2.598  0.9052  0.6491 -0.0623
  866MOL0     N14231  10.557   2.812   2.551  1.0930  0.4583 -0.8972
  866MOL0     C14232   9.631   2.701   1.707 -1.0744  0.5432  0.3789
  866MOL0     C14233   9.500   2.747   1.688  0.2214 -0.1016  0.2329
  866MOL0     C14234   9.104   2.879   1.819 -0.1475  0.4476 -0.4042
  866MOL0     C14235   8.990   2.799   1.843 -0.1932 -1.0836  0.3355
  866MOL0     C14236   8.864   2.851   1.858  0.0843  0.2300  0.5856
  866MOL0     C14237   8.845   2.988   1.852 -0.5644 -0.2127  0.4126
  866MOL0     O14238   8.718   3.027   1.862  0.5472  0.3681  0.2465
  866MOL0     C14239   8.679   3.165   1.819 -0.1541  0.6376 -0.9943
  866MOL0     C14240   8.658   3.269   1.932  0.9700 -1.2759 -0.9308
  866MOL0     C14241   8.729   3.227   2.061  0.1071  0.6544  0.5458
  866MOL0     C14242   8.728   3.337   2.164 -0.1505  0.1046  0.7841
  866MOL0     C14243   8.786   3.461   2.114 -0.9270 -0.1776 -0.6036
  866MOL0     C14244   8.832   3.560   2.071  0.2459  0.2883  0.1735
  866MOL0     C14245   8.959   3.075   1.833 -0.2740 -0.8271  0.2860
  866MOL0     C14246   9.085   3.017   1.816  0.6023  1.4314  0.1718
  866MOL0     H14247   9.521   3.041   1.867  1.4826  0.2580 -0.1348
  866MOL0     H14248   9.748   2.955   1.909 -1.4913  0.6903  0.7465
  866MOL0     H14249   9.961   2.571   1.844 -0.4563 -0.6197 -1.0389
  866MOL0     H14250   9.796   2.538   1.879 -2.0025  1.5850  0.2176
  866MOL0     H14251   9.929   2.567   2.096 -1.8658 -2.3776 -1.9777
  866MOL0     H14252   9.799   2.677   2.097  0.0205 -4.8131  1.7665
  866MOL0     H14253   9.938   2.863   1.995  2.8653  0.6442 -1.3419
  866MOL0     H14254  10.074   2.754   1.993  1.8708  3.7737  0.9563
  866MOL0     H14255  10.116   2.864   2.206  1.0036 -0.9237  1.4550
  866MOL0     H14256   9.936   2.885   2.218  0.0512 -1.6006  3.5618
  866MOL0     H14257  10.087   2.632   2.266  2.1265  0.7212  2.7683
  866MOL0     H14258   9.920   2.661   2.312  0.0061 -0.7473 -0.5643
  866MOL0     H14259  10.057   2.656   2.502 -2.2801 -0.0894 -0.5268
  866MOL0     H14260   9.981   2.817   2.486 -1.1464  1.5919 -3.9068
  866MOL0     H14261  10.185   2.919   2.399 -0.1226 -1.1677 -2.0467
  866MOL0     H14262  10.170   2.869   2.577  5.4961 -2.0081  1.6328
  866MOL0     H14263  10.352   2.719   2.375 -0.1835 -3.7122  1.5102
  866MOL0     H14264  10.298   2.670   2.530 -1.7040  0.2227 -0.8735
  866MOL0     H14265  10.323   3.043   2.547  0.5287 -0.2862 -0.9164
  866MOL0     H14266  10.572   3.149   2.765 -0.1096  1.0639  0.0639
  866MOL0     H14267  10.478   3.239   2.658  1.6692  2.8696  1.5106
  866MOL0     H14268  10.690   3.173   2.496  2.3498 -2.2670 -0.1388
  866MOL0     H14269  10.767   3.137   2.644 -0.0834  2.5935  2.9283
  866MOL0     H14270  10.648   3.406   2.539 -2.9624 -2.4764  1.8526
  866MOL0     H14271  10.712   3.388   2.710  1.9615 -1.1103  0.2579
  866MOL0     H14272  10.931   3.330   2.616 -1.3697 -1.9802 -1.8099
  866MOL0     H14273  10.874   3.500   2.592 -0.9354  1.0140 -1.2861
  866MOL0     H14274  11.096   3.481   2.528 -1.4576  0.0608  0.5809
  866MOL0     H14275  11.291   3.538   2.384  1.2770  0.7036 -2.8916
  866MOL0     H14276  11.509   3.327   1.946  1.7463  1.1946  4.3749
  866MOL0     H14277  11.731   3.362   1.876 -2.3460 -1.8940  3.9912
  866MOL0     H14278  11.861   3.485   1.682 -2.6313 -0.2588  1.8979
  866MOL0     H14279  11.949   3.434   1.824 -2.5014 -2.5354 -1.3707
  866MOL0     H14280  12.111   3.541   1.668 -0.7324  2.0271 -4.8698
  866MOL0     H14281  12.101   3.631   1.811  0.0925  1.2956 -1.5053
  866MOL0     H14282  12.096   3.769   1.633 -0.7231  0.2377  3.4919
  866MOL0     H14283  11.924   3.772   1.661  0.1598  0.6131 -2.0053
  866MOL0     H14284  12.081   3.638   1.442  0.8129  0.2223  1.1954
  866MOL0     H14285  11.919   3.581   1.487  1.3013 -0.0742 -1.2294
  866MOL0     H14286  11.957   3.866   1.441  3.1936 -0.9657  2.1239
  866MOL0     H14287  11.805   3.789   1.425 -0.1530  2.4775 -1.4371
  866MOL0     H14288  11.870   3.825   1.193  2.4946  2.5867 -0.5278
  866MOL0     H14289  11.929   3.658   1.229 -2.1750  0.1501  0.5106
  866MOL0     H14290  12.105   3.911   1.279  0.7158 -0.8350  0.9133
  866MOL0     H14291  12.153   3.752   1.269 -1.5826 -1.1017  1.6333
  866MOL0     H14292  12.010   3.812   1.025 -1.4529 -2.6862  3.4889
  866MOL0     H14293  12.147   3.709   1.047  0.2032  0.1709 -1.3218
  866MOL0     H14294  11.658   3.779   1.856 -0.6836 -0.2928 -1.8329
  866MOL0     H14295  11.417   3.739   1.935  2.8218  2.7834  0.0340
  866MOL0     H14296  11.095   3.370   2.041  0.7204 -0.9332 -0.5470
  866MOL0     H14297  10.902   3.318   2.170  1.2098 -1.2116  0.4231
  866MOL0     H14298   9.667   2.618   1.646 -3.2526  0.4422 -0.8550
  866MOL0     H14299   9.427   2.694   1.627  0.5318 -1.9442  1.3782
  866MOL0     H14300   8.994   2.692   1.859  0.9112 -0.8769  1.6793
  866MOL0     H14301   8.782   2.783   1.880  0.5928 -0.4394  0.4580
  866MOL0     H14302   8.576   3.150   1.783  0.4663  3.0133 -4.3130
  866MOL0     H14303   8.739   3.192   1.732  3.4861  1.2991  1.5127
  866MOL0     H14304   8.682   3.368   1.891 -1.9886  0.7916  1.8399
  866MOL0     H14305   8.551   3.260   1.955  1.0378 -1.4252 -0.6697
  866MOL0     H14306   8.836   3.204   2.058 -0.3458 -1.8159  0.8230
  866MOL0     H14307   8.683   3.135   2.098 -0.2435  1.3344  1.8244
  866MOL0     H14308   8.623   3.355   2.192 -0.0556  1.1938  0.5223
  866MOL0     H14309   8.794   3.301   2.243  2.9569  0.8619 -1.2861
  866MOL0     H14310   8.867   3.647   2.020  0.0927  0.1047 -0.2461
  866MOL0     H14311   8.953   3.183   1.842  3.1059 -0.7099  5.6296
  866MOL0     H14312   9.165   3.083   1.781  1.4770 -0.1505 -0.9464
  867MOL0     O14313   6.470   9.279   9.289  0.1275 -0.0993 -0.0793
  867MOL0     C14314   6.425   9.307   9.177 -0.5979  0.4930 -0.3593
  867MOL0     O14315   6.429   9.428   9.122 -0.0668  0.1153  0.0287
  867MOL0     C14316   6.493   9.530   9.185  0.8809  0.2948  0.5304
  867MOL0     C14317   6.635   9.530   9.205  0.8875 -0.2891 -0.4410
  867MOL0     C14318   6.701   9.642   9.252  1.4888 -0.9139 -0.0472
  867MOL0     C14319   6.632   9.754   9.300 -0.3722 -0.7632 -0.2631
  867MOL0     O14320   6.696   9.861   9.348 -0.6897 -0.0049 -0.0151
  867MOL0     C14321   6.815   9.839   9.423  1.0080 -0.1511 -0.0826
  867MOL0     C14322   6.864   9.981   9.468 -0.0677 -0.2248  1.5200
  867MOL0     C14323   6.968   9.956   9.584  0.4558 -0.7336  0.5286
  867MOL0     C14324   7.028  10.078   9.658  0.4860  0.2232  0.4291
  867MOL0     C14325   7.179  10.050   9.699 -0.4966 -0.6403 -0.8959
  867MOL0     C14326   7.230  10.142   9.813  0.5283  0.7138  0.0055
  867MOL0     C14327   7.197  10.289   9.791 -0.5712 -0.9498  0.2597
  867MOL0     C14328   7.271  10.350   9.678  0.6680  0.0568  0.2036
  867MOL0     N14329   7.249  10.491   9.660 -0.3072  0.2218 -0.7276
  867MOL0     C14330   7.184  10.569   9.756  0.6446  0.1533  0.0298
  867MOL0     C14331   7.153  10.677   9.686  0.0822  0.7410 -0.5894
  867MOL0     C14332   7.117  10.804   9.746  0.7562  0.0273 -0.0888
  867MOL0     C14333   6.988  10.866   9.672 -0.5144 -0.2285 -1.1800
  867MOL0     C14334   6.998  10.959   9.552 -0.0857 -0.1681 -0.1114
  867MOL0     C14335   7.042  11.106   9.592 -0.1207  0.7996 -0.4831
  867MOL0     O14336   6.992  11.205   9.504  0.1813 -0.5359  0.7108
  867MOL0     C14337   7.071  11.238   9.395 -0.2337 -1.2922  0.0222
  867MOL0     C14338   7.041  11.351   9.322 -0.4047 -0.5843 -0.2903
  867MOL0     C14339   7.106  11.387   9.207 -0.4341  0.3687  0.6071
  867MOL0     C14340   7.222  11.313   9.167  0.2577  0.1081  0.1650
  867MOL0     C14341   7.290  11.361   9.041 -0.3095  0.5146  0.7794
  867MOL0     O14342   7.231  11.454   8.964 -0.8545 -0.2655  0.7481
  867MOL0     C14343   7.298  11.475   8.842  0.6865  0.0168  0.6333
  867MOL0     C14344   7.259  11.415   8.728  0.4277  0.3516  1.0111
  867MOL0     C14345   7.326  11.455   8.606  0.3303  0.7710 -0.1006
  867MOL0     C14346   7.416  11.565   8.604  0.3819 -0.4132 -0.3481
  867MOL0     O14347   7.480  11.604   8.488  0.5635  0.2037  0.2739
  867MOL0     C14348   7.404  11.634   8.372  0.4644  0.0255 -0.2173
  867MOL0     C14349   7.484  11.654   8.240 -0.0449 -0.1870  0.4385
  867MOL0     C14350   7.612  11.559   8.229  0.5251 -0.0344 -0.4200
  867MOL0     C14351   7.693  11.568   8.091  0.6549 -0.2168 -0.1926
  867MOL0     C14352   7.826  11.485   8.100  0.5508  0.2570 -0.2323
  867MOL0     C14353   7.816  11.338   8.136  0.5798 -0.0699 -0.1984
  867MOL0     C14354   7.723  11.244   8.041  0.0449 -0.9558 -0.1543
  867MOL0     C14355   7.746  11.099   8.086 -1.0934  0.4280 -0.4601
  867MOL0    Cl14356   7.689  10.982   7.962  0.3404  0.0412 -0.3926
  867MOL0     C14357   7.456  11.618   8.729  0.1642  0.4325  0.3368
  867MOL0     C14358   7.386  11.582   8.842 -0.9435 -0.1141 -0.5740
  867MOL0     O14359   7.396  11.304   9.015 -0.1966  0.3512  0.7750
  867MOL0     C14360   7.243  11.192   9.238 -0.6316 -0.1302  0.0180
  867MOL0     C14361   7.165  11.151   9.342 -0.4779 -0.7142  0.8523
  867MOL0     N14362   7.178  10.669   9.556 -1.3154  0.0889 -0.5048
  867MOL0     N14363   7.249  10.552   9.545  0.9486 -0.0971  0.0467
  867MOL0     C14364   6.493   9.760   9.293 -0.6637  0.7968  0.3228
  867MOL0     C14365   6.421   9.652   9.225  0.2629 -0.5294 -0.3353
  867MOL0     C14366   6.362   9.203   9.090 -0.9925 -0.6604  0.2577
  867MOL0     C14367   6.322   9.076   9.139 -0.2934  0.3284  0.9793
  867MOL0     C14368   6.249   8.997   9.060 -0.3463  0.6318  0.2092
  867MOL0     C14369   6.205   9.030   8.930  0.2419  0.2820  0.3274
  867MOL0     O14370   6.133   8.947   8.840 -0.3129 -0.0505 -0.3541
  867MOL0     C14371   6.078   8.827   8.886 -0.1550  0.3044 -0.7194
  867MOL0     C14372   6.158   8.710   8.822 -0.3552  0.0459  0.8345
  867MOL0     C14373   6.128   8.694   8.660 -0.0415  0.8568 -1.0694
  867MOL0     C14374   6.173   8.553   8.604 -0.6522 -0.5160  0.0424
  867MOL0     C14375   6.109   8.514   8.480 -0.4483 -0.2289  0.7968
  867MOL0     C14376   6.076   8.468   8.370 -0.0351 -0.0224 -1.0172
  867MOL0     C14377   6.229   9.163   8.888 -0.7109  0.1631 -0.6896
  867MOL0     C14378   6.310   9.245   8.959  0.2011  0.1844 -0.2891
  867MOL0     H14379   6.680   9.433   9.186 -5.8395 -3.8659 -1.1322
  867MOL0     H14380   6.807   9.630   9.270  1.1549 -1.1828  1.8787
  867MOL0     H14381   6.896   9.802   9.359  1.4893  0.0943  0.3747
  867MOL0     H14382   6.804   9.770   9.506  1.0650  1.6423  1.4914
  867MOL0     H14383   6.784  10.046   9.506  0.6593 -0.0979  2.8880
  867MOL0     H14384   6.915  10.026   9.382  0.2789 -1.2800  1.1646
  867MOL0     H14385   7.050   9.911   9.528  1.5170  1.0993  0.5156
  867MOL0     H14386   6.929   9.889   9.661 -4.1414  0.6463 -0.2769
  867MOL0     H14387   7.019  10.165   9.592 -1.7796  0.7441  1.2998
  867MOL0     H14388   6.983  10.088   9.758 -0.6054  1.0424 -0.1281
  867MOL0     H14389   7.235  10.057   9.605  0.4868 -0.0297 -0.2864
  867MOL0     H14390   7.190   9.949   9.739  1.1185 -0.9955 -2.1036
  867MOL0     H14391   7.336  10.130   9.836  0.2620  0.7005  1.3310
  867MOL0     H14392   7.178  10.127   9.908  1.5165  1.4299  0.6786
  867MOL0     H14393   7.089  10.305   9.778 -0.3093  1.4225  0.6311
  867MOL0     H14394   7.237  10.334   9.882  0.5742 -1.1295 -0.1382
  867MOL0     H14395   7.229  10.313   9.584  1.9490 -1.6056  0.2326
  867MOL0     H14396   7.379  10.332   9.672  0.8788  1.3887 -0.5417
  867MOL0     H14397   7.174  10.556   9.863  2.3452  1.5432  0.4059
  867MOL0     H14398   7.207  10.866   9.749  1.8508 -1.5287  0.8193
  867MOL0     H14399   7.083  10.785   9.848 -0.5938 -3.8587 -1.0888
  867MOL0     H14400   6.936  10.923   9.750  0.6862 -0.6464 -0.0316
  867MOL0     H14401   6.926  10.784   9.636 -3.6111  2.6829 -3.0955
  867MOL0     H14402   7.077  10.916   9.490 -2.0814 -1.2635 -2.0496
  867MOL0     H14403   6.893  10.961   9.520 -0.6358  3.5343  1.3792
  867MOL0     H14404   7.151  11.116   9.602 -0.2733  1.5689  0.6056
  867MOL0     H14405   6.998  11.129   9.690 -1.2199  1.4717 -1.1106
  867MOL0     H14406   6.966  11.420   9.360 -0.9952 -0.7728 -1.0833
  867MOL0     H14407   7.058  11.472   9.158 -3.5284 -2.0652 -0.9545
  867MOL0     H14408   7.192  11.330   8.736  2.0926 -0.8180  3.5884
  867MOL0     H14409   7.316  11.409   8.508  1.3937 -0.7505  0.4693
  867MOL0     H14410   7.350  11.728   8.385 -2.5358 -1.8552  2.2205
  867MOL0     H14411   7.335  11.553   8.346 -0.4639  1.7759 -3.9218
  867MOL0     H14412   7.507  11.761   8.241  0.1195 -0.1739  3.2665
  867MOL0     H14413   7.422  11.640   8.151  1.4608  2.6001 -1.1839
  867MOL0     H14414   7.582  11.455   8.242  1.9114 -0.3114  0.7983
  867MOL0     H14415   7.687  11.573   8.308  2.5305 -0.2242 -2.1989
  867MOL0     H14416   7.637  11.546   8.000  3.0115  0.0239 -1.7811
  867MOL0     H14417   7.722  11.671   8.071 -0.8186  0.0805 -0.9042
  867MOL0     H14418   7.880  11.555   8.164 -0.9007  1.4827 -0.2862
  867MOL0     H14419   7.858  11.485   7.996  1.3431  1.0125  0.0007
  867MOL0     H14420   7.801  11.323   8.243  3.2697 -0.9468  0.1276
  867MOL0     H14421   7.915  11.293   8.126  1.1953  1.7442 -3.5925
  867MOL0     H14422   7.616  11.265   8.045 -0.2578 -2.5592  2.2635
  867MOL0     H14423   7.747  11.262   7.936 -0.0316 -0.3205 -0.0692
  867MOL0     H14424   7.689  11.095   8.179 -2.9920  3.8551 -1.2880
  867MOL0     H14425   7.848  11.065   8.107 -0.8177  1.2838 -0.3622
  867MOL0     H14426   7.536  11.690   8.733 -0.4794  1.0942  1.7612
  867MOL0     H14427   7.417  11.627   8.936  0.2182 -0.4737 -0.7741
  867MOL0     H14428   7.331  11.131   9.219  1.4672  1.8266  2.7376
  867MOL0     H14429   7.168  11.052   9.387 -0.5494 -0.5615  1.1989
  867MOL0     H14430   6.441   9.839   9.346 -3.4484 -0.4814 -0.3096
  867MOL0     H14431   6.314   9.656   9.206  0.0694 -1.9326  0.3913
  867MOL0     H14432   6.349   9.040   9.237  2.4206  1.6013  0.7966
  867MOL0     H14433   6.232   8.900   9.105  1.7937 -0.1727 -0.6030
  867MOL0     H14434   5.975   8.816   8.851 -0.1739  0.8439 -0.8356
  867MOL0     H14435   6.076   8.804   8.993  0.8756 -1.0148 -0.9517
  867MOL0     H14436   6.265   8.733   8.831  0.4252 -1.4498 -2.8176
  867MOL0     H14437   6.124   8.615   8.865  0.0122 -1.1236 -1.3528
  867MOL0     H14438   6.173   8.771   8.597  2.4468 -0.0125 -0.4992
  867MOL0     H14439   6.019   8.697   8.660 -0.1673 -1.5855 -0.7650
  867MOL0     H14440   6.281   8.550   8.587 -1.0221 -0.4294 -2.8177
  867MOL0     H14441   6.139   8.471   8.669 -1.9076 -1.2724 -1.4813
  867MOL0     H14442   6.053   8.413   8.282 -4.0291  0.0297 -0.1714
  867MOL0     H14443   6.182   9.195   8.796 -1.8995  3.4320  0.8846
  867MOL0     H14444   6.335   9.345   8.924  1.3061  0.5354  1.3560
  868MOL0     O14445  10.713   1.105   9.031  0.5550 -0.1619 -0.2115
  868MOL0     C14446  10.667   1.097   9.145  0.5342 -0.9108 -1.2453
  868MOL0     O14447  10.682   0.989   9.225  0.3434  0.2791  0.3840
  868MOL0     C14448  10.767   0.892   9.183 -0.6262  0.5350 -0.6293
  868MOL0     C14449  10.767   0.825   9.053  0.9272 -0.3083 -0.1759
  868MOL0     C14450  10.861   0.729   9.019 -0.0199  0.2487 -0.0536
  868MOL0     C14451  10.955   0.691   9.116 -0.3923 -0.1323  0.3266
  868MOL0     O14452  11.070   0.627   9.085 -0.1591  0.6911  0.1855
  868MOL0     C14453  11.075   0.547   8.971 -0.6264  0.8839  0.2830
  868MOL0     C14454  11.221   0.497   8.946  0.3378  1.2540  0.4138
  868MOL0     C14455  11.206   0.350   8.889 -0.6865 -0.9641 -1.0867
  868MOL0     C14456  11.331   0.281   8.854 -0.1396 -0.5638 -0.2437
  868MOL0     C14457  11.322   0.144   8.798  0.7605  0.3200  0.3648
  868MOL0     C14458  11.453   0.070   8.832  0.3219  0.0102  0.2071
  868MOL0     C14459  11.465   0.034   8.986 -0.1060 -0.2571 -1.3468
  868MOL0     C14460  11.586  -0.053   9.018  0.8246 -0.1045 -0.0919
  868MOL0     N14461  11.722   0.002   9.000  0.6665 -0.2830  0.4725
  868MOL0     C14462  11.845  -0.064   8.977  0.0328 -0.5633  1.0145
  868MOL0     C14463  11.934   0.045   8.992  0.2465  0.1604 -0.3420
  868MOL0     C14464  12.081   0.040   8.984 -0.5442 -0.7232 -0.0036
  868MOL0     C14465  12.132  -0.071   8.886  0.2531  0.3112  0.7233
  868MOL0     C14466  12.110  -0.016   8.736  0.3788 -1.3897 -0.5233
  868MOL0     C14467  12.115  -0.134   8.640 -0.6554 -0.7419  0.3793
  868MOL0     O14468  11.994  -0.211   8.653  0.4362 -0.3279  0.5585
  868MOL0     C14469  11.870  -0.164   8.611 -1.1891 -0.5011  0.5895
  868MOL0     C14470  11.750  -0.205   8.669 -0.0825 -0.4547 -1.0278
  868MOL0     C14471  11.625  -0.167   8.618 -0.1752  0.2125  0.0142
  868MOL0     C14472  11.623  -0.081   8.505  0.8094 -0.4113 -0.0480
  868MOL0     C14473  11.496  -0.047   8.440  0.2622 -0.5250 -0.5632
  868MOL0     O14474  11.523   0.046   8.338  1.3327 -0.5505 -0.2142
  868MOL0     C14475  11.414   0.071   8.252 -0.3230  0.2857  1.1076
  868MOL0     C14476  11.413   0.043   8.117  0.5129  0.5608 -0.2220
  868MOL0     C14477  11.305   0.075   8.032 -0.9959 -1.1132  0.0132
  868MOL0     C14478  11.190   0.137   8.086 -0.8715  0.2911 -1.3313
  868MOL0     O14479  11.076   0.167   8.018  0.7724  0.2423  0.6723
  868MOL0     C14480  11.062   0.120   7.886  0.1765  1.0119  0.2854
  868MOL0     C14481  11.037  -0.040   7.876  1.1092 -0.1459 -0.1467
  868MOL0     C14482  10.903  -0.078   7.940  0.1975 -0.2602  0.0973
  868MOL0     C14483  10.770  -0.005   7.886  0.1333 -1.0799 -0.3613
  868MOL0     C14484  10.637  -0.073   7.927 -0.4238  0.0517 -0.6093
  868MOL0     C14485  10.523   0.029   7.893  0.3947  0.8443 -0.0026
  868MOL0     C14486  10.394   0.004   7.968  0.7918 -1.2520 -0.2473
  868MOL0     C14487  10.301   0.135   7.967 -0.2674  0.6881 -1.1239
  868MOL0    Cl14488  10.173   0.123   8.095  0.4367  0.3328 -0.5853
  868MOL0     C14489  11.187   0.165   8.226 -0.5126 -0.5331  0.1652
  868MOL0     C14490  11.299   0.135   8.306 -0.1020  0.0451 -0.0224
  868MOL0     O14491  11.391  -0.082   8.483 -0.6530 -0.2252 -0.1730
  868MOL0     C14492  11.747  -0.026   8.453  0.6631  0.4635  0.4804
  868MOL0     C14493  11.866  -0.070   8.502 -0.6763 -0.2729  0.1148
  868MOL0     N14494  11.864   0.158   9.023  0.3649 -0.1213 -0.6192
  868MOL0     N14495  11.736   0.137   9.028  0.2105 -0.8165  0.4536
  868MOL0     C14496  10.965   0.751   9.240  0.4857  0.2973 -0.4924
  868MOL0     C14497  10.860   0.836   9.287  0.0395 -0.4285  0.6862
  868MOL0     C14498  10.563   1.197   9.182 -0.0773  0.3172  0.2180
  868MOL0     C14499  10.522   1.298   9.083 -0.0797 -0.0192  0.1176
  868MOL0     C14500  10.405   1.367   9.106  0.3890 -0.1268 -0.1125
  868MOL0     C14501  10.319   1.342   9.213  0.0096 -0.1834  0.4774
  868MOL0     O14502  10.209   1.422   9.223 -0.4501  0.8985 -0.3727
  868MOL0     C14503  10.118   1.390   9.337 -0.3135 -0.0195  0.9909
  868MOL0     C14504  10.062   1.256   9.344 -0.1934  0.0001 -0.5637
  868MOL0     C14505   9.941   1.232   9.437  0.1614 -0.1359  0.8398
  868MOL0     C14506   9.961   1.295   9.575  0.1596  0.4878 -0.5532
  868MOL0     C14507  10.076   1.249   9.647 -1.3686  0.3467  0.4004
  868MOL0     C14508  10.185   1.217   9.691 -0.0671  0.3927 -1.0455
  868MOL0     C14509  10.378   1.269   9.323 -0.6990  0.4661  0.8009
  868MOL0     C14510  10.489   1.187   9.303 -0.4213  0.8291  0.1847
  868MOL0     H14511  10.705   0.865   8.973  2.1626  1.6293 -0.2435
  868MOL0     H14512  10.881   0.681   8.924  3.3582 -3.1593  2.0855
  868MOL0     H14513  11.034   0.587   8.877 -2.0536 -4.5279 -1.7872
  868MOL0     H14514  11.023   0.452   8.991  0.9823 -0.5000 -1.6952
  868MOL0     H14515  11.271   0.491   9.043 -2.9256  0.2033  2.1953
  868MOL0     H14516  11.266   0.566   8.874  2.2586  1.4242  1.7189
  868MOL0     H14517  11.147   0.358   8.797  0.1962  1.2224 -1.5265
  868MOL0     H14518  11.174   0.279   8.966  1.1660 -5.4077 -3.9774
  868MOL0     H14519  11.385   0.343   8.781 -1.0575  0.3570 -0.1643
  868MOL0     H14520  11.393   0.284   8.944  2.4541 -2.6959 -1.8103
  868MOL0     H14521  11.318   0.160   8.690  3.0529 -2.8608 -0.3542
  868MOL0     H14522  11.230   0.095   8.831 -1.2095  1.3419 -3.1480
  868MOL0     H14523  11.545   0.125   8.810 -0.8997  2.0170 -0.1700
  868MOL0     H14524  11.452  -0.013   8.761  1.4142 -0.4189  0.6740
  868MOL0     H14525  11.480   0.125   9.046  0.3444 -1.2198  0.0533
  868MOL0     H14526  11.368  -0.007   9.017 -1.0960  0.7219 -2.9774
  868MOL0     H14527  11.567  -0.144   8.959  0.9998  1.4770 -2.7419
  868MOL0     H14528  11.569  -0.080   9.123 -3.4460 -0.8073 -0.7785
  868MOL0     H14529  11.865  -0.170   8.984 -1.3881 -0.8629  0.6823
  868MOL0     H14530  12.118   0.022   9.086  2.6441  0.4580 -0.8490
  868MOL0     H14531  12.129   0.128   8.942  2.2757 -1.5055  1.3505
  868MOL0     H14532  12.072  -0.162   8.893 -3.6579  2.7274  1.4431
  868MOL0     H14533  12.236  -0.096   8.909  0.0802 -1.4105 -0.1954
  868MOL0     H14534  12.011   0.030   8.733  0.4086 -1.3723 -1.4175
  868MOL0     H14535  12.195   0.051   8.725  0.8862 -2.0295 -0.5717
  868MOL0     H14536  12.196  -0.200   8.672 -0.4497 -0.9606 -0.5695
  868MOL0     H14537  12.119  -0.105   8.535 -4.2741  3.1529  1.0549
  868MOL0     H14538  11.762  -0.273   8.752 -2.2477 -0.2096 -0.4639
  868MOL0     H14539  11.529  -0.202   8.656 -1.9507  3.9738 -0.4382
  868MOL0     H14540  11.500  -0.001   8.069  0.1303  0.4172 -0.7938
  868MOL0     H14541  11.310   0.061   7.924 -1.1736  0.6836 -0.2610
  868MOL0     H14542  11.152   0.145   7.829 -0.2525 -0.3286 -1.0343
  868MOL0     H14543  10.978   0.174   7.842 -0.4737 -2.1911 -2.8709
  868MOL0     H14544  11.113  -0.106   7.918 -0.1044 -3.5385 -2.7905
  868MOL0     H14545  11.037  -0.065   7.769  2.6203  0.8359 -0.3954
  868MOL0     H14546  10.911  -0.053   8.046  0.7459 -2.0994  0.5198
  868MOL0     H14547  10.883  -0.185   7.932  1.7390 -0.6296  1.0102
  868MOL0     H14548  10.771   0.095   7.931  0.3660 -0.8736 -0.8169
  868MOL0     H14549  10.775   0.017   7.779 -0.8156  0.2533 -0.1559
  868MOL0     H14550  10.634  -0.099   8.034  1.7066 -0.1266 -0.5654
  868MOL0     H14551  10.625  -0.164   7.868  1.0728 -0.6409  0.1043
  868MOL0     H14552  10.513   0.041   7.785 -0.6266  0.3524  0.0324
  868MOL0     H14553  10.558   0.124   7.936  1.4213 -1.1394  3.9937
  868MOL0     H14554  10.343  -0.083   7.927  0.1305 -1.1379  0.3007
  868MOL0     H14555  10.430  -0.004   8.071  1.8525  0.0477 -0.4855
  868MOL0     H14556  10.251   0.138   7.869 -0.4047 -3.0654 -1.3198
  868MOL0     H14557  10.352   0.229   7.990 -0.2141  0.5597 -0.7239
  868MOL0     H14558  11.099   0.214   8.266 -1.5522 -0.9644 -1.5105
  868MOL0     H14559  11.309   0.167   8.409 -0.3799 -0.4485  0.1626
  868MOL0     H14560  11.741   0.047   8.372 -1.2931  3.3562  3.0233
  868MOL0     H14561  11.962  -0.029   8.474  0.9359 -2.5925  1.8451
  868MOL0     H14562  11.060   0.726   9.285  0.0889 -1.4974 -0.5792
  868MOL0     H14563  10.877   0.877   9.386  1.3939  1.1751 -0.1653
  868MOL0     H14564  10.595   1.314   9.004 -0.0864 -2.6550 -0.4986
  868MOL0     H14565  10.379   1.443   9.034  2.4839 -1.7224 -2.7765
  868MOL0     H14566  10.041   1.468   9.337 -2.4396 -2.0054  0.2404
  868MOL0     H14567  10.181   1.407   9.424  0.7320 -0.7779  0.4036
  868MOL0     H14568  10.027   1.215   9.249 -1.1801 -0.5833  0.0316
  868MOL0     H14569  10.134   1.181   9.377  0.4603  0.0712 -1.7789
  868MOL0     H14570   9.924   1.124   9.449 -2.2093  0.1766  0.8829
  868MOL0     H14571   9.857   1.268   9.377 -0.5241 -3.5987 -0.5222
  868MOL0     H14572   9.961   1.404   9.572  2.8129  0.5097 -2.0370
  868MOL0     H14573   9.884   1.259   9.645  0.7879  0.0476 -0.0821
  868MOL0     H14574  10.288   1.207   9.718  0.4648  0.3521 -2.9492
  868MOL0     H14575  10.335   1.268   9.423 -0.2371  0.5775  0.9999
  868MOL0     H14576  10.525   1.120   9.381  0.3445 -0.4827 -1.2273
  869MOL0     O14577   4.172   9.707   0.426 -0.1667  0.1745  0.3661
  869MOL0     C14578   4.240   9.802   0.447  0.7767  0.2259 -0.4765
  869MOL0     O14579   4.288   9.834   0.562 -0.4973 -0.5214 -0.9796
  869MOL0     C14580   4.297   9.743   0.669  0.4144 -0.2266  0.0007
  869MOL0     C14581   4.378   9.618   0.661 -0.3796  0.7718 -0.0435
  869MOL0     C14582   4.378   9.528   0.768  0.4010  0.5050  0.1809
  869MOL0     C14583   4.306   9.547   0.880  0.2368 -1.1244 -0.1754
  869MOL0     O14584   4.315   9.478   0.999  0.8088 -0.4700  0.9502
  869MOL0     C14585   4.418   9.381   1.004 -0.1784 -0.0647  0.9543
  869MOL0     C14586   4.377   9.235   0.941 -0.3878  0.1756 -0.7870
  869MOL0     C14587   4.256   9.193   1.018 -0.0489  0.2906 -0.1243
  869MOL0     C14588   4.197   9.054   0.977 -0.1557  0.5959 -0.0110
  869MOL0     C14589   4.084   8.993   1.048  0.7057 -0.4221 -0.0713
  869MOL0     C14590   4.117   8.961   1.193 -0.8260  0.0920  0.7858
  869MOL0     C14591   4.213   8.843   1.217 -0.1037 -0.6378  0.1034
  869MOL0     C14592   4.242   8.812   1.365  0.2001 -0.0778  0.5268
  869MOL0     N14593   4.341   8.708   1.365  0.3785 -0.5235 -0.1097
  869MOL0     C14594   4.473   8.726   1.374 -0.5754 -0.1855 -0.1370
  869MOL0     C14595   4.530   8.608   1.340  0.7301  1.1285 -0.7575
  869MOL0     C14596   4.671   8.569   1.356  0.3031  0.1323  0.9924
  869MOL0     C14597   4.733   8.514   1.226  0.7594  0.1167 -0.0713
  869MOL0     C14598   4.872   8.442   1.275  0.2448  0.2702 -0.6095
  869MOL0     C14599   4.965   8.396   1.160  0.6707 -0.0004 -0.1445
  869MOL0     O14600   5.043   8.283   1.206 -0.1381 -0.3862 -0.1077
  869MOL0     C14601   5.124   8.233   1.105  0.1118 -0.5101 -0.6512
  869MOL0     C14602   5.201   8.125   1.143  0.2872 -1.1859 -0.5054
  869MOL0     C14603   5.266   8.040   1.062 -0.1828  0.1166 -0.6666
  869MOL0     C14604   5.268   8.074   0.924  0.2194  0.4497  0.0991
  869MOL0     C14605   5.345   7.984   0.826  0.1820 -0.1765 -1.0516
  869MOL0     O14606   5.366   7.856   0.870  0.4216  0.1499 -0.2746
  869MOL0     C14607   5.442   7.784   0.781 -0.8659 -0.8029 -0.5238
  869MOL0     C14608   5.578   7.768   0.795  0.4390  0.1199 -0.2165
  869MOL0     C14609   5.654   7.674   0.726 -0.6514 -0.3629  0.9038
  869MOL0     C14610   5.589   7.594   0.631 -0.3285 -0.1699 -0.3012
  869MOL0     O14611   5.651   7.489   0.571  0.4059  0.0997  0.8910
  869MOL0     C14612   5.766   7.432   0.637 -0.0851  0.1692 -0.2373
  869MOL0     C14613   5.822   7.324   0.550  0.0424  0.4830  0.1094
  869MOL0     C14614   5.759   7.184   0.561 -0.3593 -0.0215  0.0568
  869MOL0     C14615   5.816   7.100   0.445 -0.5551 -0.3629 -0.7197
  869MOL0     C14616   5.784   6.955   0.470 -0.7805 -0.3736  0.0741
  869MOL0     C14617   5.823   6.859   0.358  0.2124 -0.3900  0.7069
  869MOL0     C14618   5.737   6.846   0.230 -0.4621 -0.6339  0.9279
  869MOL0     C14619   5.753   6.967   0.138  0.0609 -0.4688 -0.3949
  869MOL0    Cl14620   5.717   6.937  -0.030 -0.2250 -0.4348 -0.1715
  869MOL0     C14621   5.460   7.619   0.603  0.6800 -0.5659 -0.1486
  869MOL0     C14622   5.382   7.716   0.680  0.1369 -0.0366  0.4065
  869MOL0     O14623   5.380   8.036   0.724 -0.2076 -0.1665 -0.3407
  869MOL0     C14624   5.196   8.180   0.875 -0.7115  0.2995 -0.2922
  869MOL0     C14625   5.126   8.262   0.967  0.5981 -0.5590  0.2612
  869MOL0     N14626   4.430   8.528   1.299 -0.7728  0.0517  0.8309
  869MOL0     N14627   4.311   8.584   1.312 -0.6754 -0.4874  0.0119
  869MOL0     C14628   4.230   9.665   0.889  0.6860  0.2170  0.6825
  869MOL0     C14629   4.222   9.757   0.785  0.1829 -1.2808 -0.1297
  869MOL0     C14630   4.272   9.898   0.334  0.2961  0.3007 -0.3102
  869MOL0     C14631   4.235   9.863   0.198 -0.2011  0.7240  0.6056
  869MOL0     C14632   4.259   9.962   0.105  0.4321  0.0910  0.4708
  869MOL0     C14633   4.325  10.082   0.130 -0.0205  0.1398 -0.2239
  869MOL0     O14634   4.338  10.167   0.023 -0.0355 -0.6375 -0.2686
  869MOL0     C14635   4.301  10.307   0.058 -0.3449 -1.0400 -0.2424
  869MOL0     C14636   4.256  10.375  -0.074  0.2371 -0.5651 -0.4111
  869MOL0     C14637   4.183  10.513  -0.063  0.4689  0.3330  0.1017
  869MOL0     C14638   4.156  10.578  -0.202 -0.5386 -0.3425 -0.2106
  869MOL0     C14639   4.289  10.615  -0.251  0.8067 -0.0348  0.5365
  869MOL0     C14640   4.401  10.645  -0.291 -0.3292 -0.0951 -0.5915
  869MOL0     C14641   4.362  10.106   0.261  0.7090  0.2559 -0.3222
  869MOL0     C14642   4.328  10.023   0.375  0.2583  0.1216  0.5393
  869MOL0     H14643   4.432   9.590   0.571 -1.6489 -0.2582 -0.5253
  869MOL0     H14644   4.437   9.443   0.738 -0.5585  0.1250 -0.6893
  869MOL0     H14645   4.438   9.376   1.111 -2.3123  1.0630  1.4470
  869MOL0     H14646   4.517   9.416   0.971  0.6372 -1.8785  1.3379
  869MOL0     H14647   4.460   9.164   0.949 -1.0130 -0.5484 -0.6078
  869MOL0     H14648   4.352   9.249   0.836  2.0749  3.0936 -1.1152
  869MOL0     H14649   4.190   9.280   1.011  3.7710  3.3108 -4.7675
  869MOL0     H14650   4.280   9.187   1.125 -0.5663  1.5167  0.0792
  869MOL0     H14651   4.170   9.051   0.871 -0.0106 -1.8970 -0.0511
  869MOL0     H14652   4.281   8.984   0.978  1.1435  2.0719 -1.1302
  869MOL0     H14653   4.044   8.905   0.996  2.6175  0.7423 -3.9536
  869MOL0     H14654   4.005   9.069   1.058 -0.2069 -1.3351 -0.1427
  869MOL0     H14655   4.033   8.957   1.264  0.6919 -0.8155  2.6240
  869MOL0     H14656   4.167   9.052   1.227  1.7836 -1.0611  0.2320
  869MOL0     H14657   4.178   8.758   1.157  0.9686  1.4162 -3.8237
  869MOL0     H14658   4.312   8.873   1.180 -0.9902 -0.3468 -2.1924
  869MOL0     H14659   4.148   8.785   1.415  1.2826 -2.7608  1.3325
  869MOL0     H14660   4.283   8.896   1.422 -0.4908 -1.6606  3.5830
  869MOL0     H14661   4.514   8.823   1.403 -5.4313  2.0375  0.3205
  869MOL0     H14662   4.671   8.482   1.423 -3.4986  1.5466  3.1584
  869MOL0     H14663   4.716   8.659   1.398  0.8641 -1.0087  2.9584
  869MOL0     H14664   4.758   8.591   1.153  3.9258 -1.0510 -0.3724
  869MOL0     H14665   4.671   8.434   1.186  2.0957 -0.3625 -1.2887
  869MOL0     H14666   4.938   8.510   1.330 -2.8914  3.0078  0.1063
  869MOL0     H14667   4.836   8.362   1.339  1.3146  1.8779  2.1550
  869MOL0     H14668   5.032   8.477   1.132  0.0121 -0.1587 -2.3506
  869MOL0     H14669   4.912   8.366   1.069  0.0525 -0.9417  0.5096
  869MOL0     H14670   5.200   8.114   1.251 -1.8128  0.4835 -0.2819
  869MOL0     H14671   5.320   7.955   1.103  1.9257  2.0064  0.7443
  869MOL0     H14672   5.626   7.829   0.871  0.3761  0.4527 -0.4418
  869MOL0     H14673   5.759   7.662   0.750 -0.5308  0.9947  1.1790
  869MOL0     H14674   5.721   7.391   0.729  0.7374 -1.0274 -0.3508
  869MOL0     H14675   5.844   7.506   0.654  1.9235 -0.7510 -4.2075
  869MOL0     H14676   5.920   7.302   0.593  0.5439  2.9403  0.4151
  869MOL0     H14677   5.824   7.358   0.445 -1.9716  3.5683  0.9201
  869MOL0     H14678   5.652   7.188   0.536 -0.1719  2.4788 -0.5913
  869MOL0     H14679   5.782   7.144   0.660  0.8583  1.4573  0.4126
  869MOL0     H14680   5.775   7.129   0.347 -1.4919  2.0654  0.3193
  869MOL0     H14681   5.925   7.107   0.447 -0.6348  0.9549  0.9963
  869MOL0     H14682   5.675   6.950   0.479 -0.6730 -2.7640  0.7015
  869MOL0     H14683   5.846   6.928   0.556  3.1497  1.4872 -1.8948
  869MOL0     H14684   5.818   6.755   0.393 -1.8687 -1.8667 -3.2584
  869MOL0     H14685   5.927   6.876   0.328  0.1994 -3.3674 -1.5256
  869MOL0     H14686   5.776   6.766   0.167  1.1145  0.0535  0.9981
  869MOL0     H14687   5.630   6.836   0.251 -1.2885 -0.0331 -2.4393
  869MOL0     H14688   5.859   6.995   0.136  0.0036  0.0877  1.8739
  869MOL0     H14689   5.688   7.050   0.167 -0.1513 -0.3877 -1.0931
  869MOL0     H14690   5.413   7.552   0.533  1.6043 -5.3555  3.3345
  869MOL0     H14691   5.276   7.727   0.662  0.0069 -0.7666  0.7052
  869MOL0     H14692   5.200   8.213   0.772 -0.1195  1.8464  0.1934
  869MOL0     H14693   5.073   8.350   0.932 -1.5278 -1.4209  1.1578
  869MOL0     H14694   4.177   9.672   0.983  0.4708 -1.6963  0.7498
  869MOL0     H14695   4.169   9.852   0.782  0.0811 -1.3481 -2.1121
  869MOL0     H14696   4.185   9.774   0.161 -1.7935  0.9863  2.0087
  869MOL0     H14697   4.227   9.940   0.004 -0.3181 -4.4026  1.4785
  869MOL0     H14698   4.390  10.352   0.104 -0.0194 -0.8742 -1.0187
  869MOL0     H14699   4.214  10.304   0.125  0.5861 -0.0791  1.0657
  869MOL0     H14700   4.344  10.396  -0.136 -1.2635  0.3382 -2.3658
  869MOL0     H14701   4.196  10.303  -0.132 -1.2275  0.0599  0.2751
  869MOL0     H14702   4.237  10.576   0.008 -1.8103  3.4255 -0.6879
  869MOL0     H14703   4.080  10.506  -0.027 -0.8982  2.4267 -2.9819
  869MOL0     H14704   4.116  10.499  -0.265  0.8109 -2.5637  1.5814
  869MOL0     H14705   4.090  10.665  -0.192  0.6861  0.8432 -1.7653
  869MOL0     H14706   4.492  10.675  -0.340  1.0119 -0.6547  1.3882
  869MOL0     H14707   4.405  10.204   0.282 -1.3466  1.5032 -1.6234
  869MOL0     H14708   4.351  10.056   0.476  0.0458 -4.6944  2.4016
  870MOL0     O14709   1.194   4.411  10.307  0.1341  0.7225  0.7324
  870MOL0     C14710   1.086   4.431  10.257 -0.4992 -1.5067  0.1945
  870MOL0     O14711   1.068   4.460  10.126  0.8228 -0.1664 -0.0211
  870MOL0     C14712   1.172   4.435  10.042 -0.6441 -0.4870 -0.7758
  870MOL0     C14713   1.184   4.319   9.968  0.0590  0.0377  0.0226
  870MOL0     C14714   1.296   4.313   9.882  0.6908  0.2452  0.0464
  870MOL0     C14715   1.400   4.410   9.870  0.3238  0.6308 -0.3503
  870MOL0     O14716   1.498   4.377   9.780 -0.5219 -0.4894 -0.4255
  870MOL0     C14717   1.534   4.486   9.693 -0.4068  1.1789  0.7484
  870MOL0     C14718   1.656   4.449   9.614 -1.7668  0.0612  0.3276
  870MOL0     C14719   1.649   4.358   9.499 -0.4269 -0.6301  1.1671
  870MOL0     C14720   1.733   4.230   9.517 -1.1592  0.4318  0.2266
  870MOL0     C14721   1.768   4.164   9.383 -0.2337  0.1681 -0.2770
  870MOL0     C14722   1.653   4.113   9.292  0.2490  0.1342 -0.1330
  870MOL0     C14723   1.703   4.031   9.175  0.2634  0.9294  0.0977
  870MOL0     C14724   1.719   4.102   9.043  0.6977 -0.2215  0.6210
  870MOL0     N14725   1.595   4.111   8.954 -0.0880 -0.0106 -0.4457
  870MOL0     C14726   1.462   4.125   8.982 -0.0556 -0.2336 -0.4726
  870MOL0     C14727   1.395   4.124   8.861  0.5312 -0.1837  0.0909
  870MOL0     C14728   1.243   4.128   8.850  0.3441  1.0463  0.4352
  870MOL0     C14729   1.189   4.268   8.834  0.4529  0.0135  0.4203
  870MOL0     C14730   1.195   4.357   8.967  0.7321  0.4240 -0.2618
  870MOL0     C14731   1.167   4.500   8.925  0.2312 -0.5415  0.0675
  870MOL0     O14732   1.200   4.593   9.025  0.0336  0.5462 -0.8677
  870MOL0     C14733   1.319   4.663   9.008  0.7044 -1.0823  0.1018
  870MOL0     C14734   1.438   4.624   8.938  0.2454 -0.2701  0.3150
  870MOL0     C14735   1.543   4.710   8.919 -0.3415 -0.8915  0.6918
  870MOL0     C14736   1.553   4.841   8.987  0.4671  0.5876 -0.4527
  870MOL0     C14737   1.673   4.928   8.977  1.0449 -0.7114  0.3450
  870MOL0     O14738   1.694   5.038   9.063  0.2770 -0.1642 -0.4525
  870MOL0     C14739   1.809   5.105   9.043  0.4020 -0.3826  0.3429
  870MOL0     C14740   1.836   5.175   8.924 -0.0670 -0.8112  0.5724
  870MOL0     C14741   1.958   5.258   8.914  0.4771  0.5828  0.0453
  870MOL0     C14742   2.054   5.263   9.017  0.7742  1.7496 -1.0595
  870MOL0     O14743   2.131   5.368   9.002 -0.0884  0.2395  0.5864
  870MOL0     C14744   2.224   5.394   9.109 -0.7507 -0.8597 -0.4516
  870MOL0     C14745   2.332   5.498   9.093 -0.7270 -0.5045  0.9950
  870MOL0     C14746   2.435   5.453   8.987  0.1258  0.6623 -0.0203
  870MOL0     C14747   2.522   5.572   8.955 -0.8221  0.1375 -0.7086
  870MOL0     C14748   2.633   5.528   8.857  0.0710 -0.7613  0.2153
  870MOL0     C14749   2.577   5.474   8.716  0.2563 -0.8512 -0.3707
  870MOL0     C14750   2.489   5.585   8.642  0.3291 -0.4646 -0.3769
  870MOL0     C14751   2.516   5.566   8.490 -0.1091  0.0081  1.0131
  870MOL0    Cl14752   2.464   5.707   8.398 -0.4675 -0.1898 -0.1064
  870MOL0     C14753   2.028   5.179   9.134  0.6698 -0.2887  0.2794
  870MOL0     C14754   1.907   5.103   9.146  0.1730 -0.6184  0.1836
  870MOL0     O14755   1.751   4.886   8.888  0.2000  0.2302 -0.1666
  870MOL0     C14756   1.441   4.877   9.063  0.6948  0.7053 -0.5305
  870MOL0     C14757   1.331   4.793   9.068  0.3013  0.8204 -0.0109
  870MOL0     N14758   1.499   4.119   8.766 -1.3454  0.6914  0.1095
  870MOL0     N14759   1.615   4.108   8.821  0.7325 -0.8697  0.6730
  870MOL0     C14760   1.369   4.533   9.925 -0.1833 -0.9985  1.4205
  870MOL0     C14761   1.259   4.542  10.015  0.0032 -0.4650 -0.4490
  870MOL0     C14762   0.975   4.464  10.357  0.4751 -0.6921 -0.5342
  870MOL0     C14763   0.839   4.469  10.310 -0.0265 -0.3641  0.1574
  870MOL0     C14764   0.734   4.506  10.397 -1.1233  0.9171 -0.9161
  870MOL0     C14765   0.760   4.535  10.529 -0.7869 -0.5357 -1.0099
  870MOL0     O14766   0.650   4.563  10.604  0.1309 -0.4190 -0.5039
  870MOL0     C14767   0.668   4.590  10.749  0.2880  1.4851 -0.4330
  870MOL0     C14768   0.667   4.449  10.821  0.1005 -0.4275 -0.1117
  870MOL0     C14769   0.555   4.360  10.789 -0.8319 -0.5501 -0.4838
  870MOL0     C14770   0.428   4.409  10.730 -0.6166 -0.5071  0.4190
  870MOL0     C14771   0.336   4.296  10.690  0.5547  0.3392  0.9140
  870MOL0     C14772   0.247   4.216  10.655  1.0670  0.1792 -0.6694
  870MOL0     C14773   0.898   4.534  10.574  0.1632 -0.5517 -0.7742
  870MOL0     C14774   1.004   4.498  10.492  0.1464  0.0867  0.4965
  870MOL0     H14775   1.117   4.234   9.970  0.2390 -0.1355 -0.7283
  870MOL0     H14776   1.297   4.215   9.836 -1.5479 -1.3026  2.9694
  870MOL0     H14777   1.563   4.573   9.752 -0.5925  1.3674  0.5649
  870MOL0     H14778   1.453   4.514   9.625 -1.4576 -2.1997  0.4019
  870MOL0     H14779   1.711   4.410   9.699 -2.0136  2.8481  1.8990
  870MOL0     H14780   1.718   4.537   9.594  0.7939 -1.3187  1.7456
  870MOL0     H14781   1.687   4.407   9.409 -1.3302 -0.4540  0.8663
  870MOL0     H14782   1.547   4.326   9.475  1.0267 -3.7930 -1.5672
  870MOL0     H14783   1.827   4.257   9.566 -0.7466 -0.3589 -0.1255
  870MOL0     H14784   1.686   4.159   9.585 -0.1422 -2.4092 -1.8753
  870MOL0     H14785   1.832   4.084   9.421  0.7515  1.8837  1.8625
  870MOL0     H14786   1.839   4.233   9.336  0.4636  0.4499  1.1198
  870MOL0     H14787   1.596   4.191   9.241  0.6181 -1.3451 -3.0052
  870MOL0     H14788   1.580   4.059   9.354 -2.7014 -0.4902 -3.7897
  870MOL0     H14789   1.794   3.983   9.213 -1.0450 -0.2304  1.9918
  870MOL0     H14790   1.639   3.943   9.164 -0.1895  1.1474  0.9096
  870MOL0     H14791   1.803   4.067   8.982  0.1326  2.3797 -1.8721
  870MOL0     H14792   1.747   4.205   9.070 -0.9873  0.3078  0.4250
  870MOL0     H14793   1.423   4.136   9.082 -0.2924  0.8053 -0.6733
  870MOL0     H14794   1.195   4.086   8.939 -0.8743  1.0387 -0.2035
  870MOL0     H14795   1.207   4.071   8.763  0.0013 -0.7752  1.7222
  870MOL0     H14796   1.096   4.281   8.778  1.6742 -0.6467 -1.8452
  870MOL0     H14797   1.257   4.302   8.756  0.6668 -1.7976 -0.2472
  870MOL0     H14798   1.125   4.316   9.040  2.4597 -1.3440  0.4838
  870MOL0     H14799   1.296   4.360   9.008  0.2294  1.5159  0.9410
  870MOL0     H14800   1.065   4.519   8.889  0.5069  2.7964  0.7173
  870MOL0     H14801   1.233   4.519   8.839  3.0033  0.5902  2.3013
  870MOL0     H14802   1.438   4.526   8.892  0.0438  0.2151 -0.7477
  870MOL0     H14803   1.626   4.679   8.856 -0.3656 -0.2249  0.3238
  870MOL0     H14804   1.752   5.177   8.855  0.7116  2.9976 -0.4777
  870MOL0     H14805   1.962   5.311   8.820 -2.3150  0.9306  0.0260
  870MOL0     H14806   2.280   5.302   9.125 -0.1888 -0.7366 -1.5946
  870MOL0     H14807   2.165   5.409   9.200  1.4404 -2.0167  1.2417
  870MOL0     H14808   2.394   5.506   9.182  2.7421 -0.6998 -1.2290
  870MOL0     H14809   2.274   5.589   9.074  0.4836  0.1801  0.4597
  870MOL0     H14810   2.377   5.426   8.898  1.3164  1.7788 -1.1800
  870MOL0     H14811   2.499   5.373   9.027 -0.7147  0.3196  0.6613
  870MOL0     H14812   2.465   5.647   8.899 -1.4760 -1.3452 -2.1233
  870MOL0     H14813   2.560   5.614   9.048  0.8551 -1.0750 -0.7897
  870MOL0     H14814   2.685   5.443   8.901 -0.4730 -1.7244 -0.9297
  870MOL0     H14815   2.709   5.605   8.843 -1.0375  0.7614  2.1111
  870MOL0     H14816   2.529   5.376   8.720  0.4472 -1.2338 -3.9559
  870MOL0     H14817   2.667   5.453   8.656 -0.7931 -1.5727 -1.7419
  870MOL0     H14818   2.383   5.572   8.667 -0.4826 -0.2791 -3.3293
  870MOL0     H14819   2.517   5.686   8.674 -1.4490 -0.1772  0.4212
  870MOL0     H14820   2.471   5.474   8.451  0.2946  0.3201 -0.2583
  870MOL0     H14821   2.624   5.564   8.474  0.0401  1.3176  1.7455
  870MOL0     H14822   2.092   5.201   9.219  2.1042 -1.5909 -0.4031
  870MOL0     H14823   1.891   5.055   9.242 -0.8524  0.6463  0.6775
  870MOL0     H14824   1.444   4.978   9.103 -0.7264  0.0727  1.2931
  870MOL0     H14825   1.239   4.829   9.113  0.9621  3.0388 -0.3181
  870MOL0     H14826   1.433   4.614   9.892 -1.2186 -2.2466 -4.9807
  870MOL0     H14827   1.231   4.639  10.055 -0.4969 -0.2740 -1.2470
  870MOL0     H14828   0.808   4.439  10.211  1.0662 -0.6904 -0.1006
  870MOL0     H14829   0.628   4.514  10.377 -1.4447  0.7783  0.6364
  870MOL0     H14830   0.583   4.653  10.777  0.7757  2.2163 -0.5738
  870MOL0     H14831   0.752   4.651  10.785  0.0260  1.4956  0.1704
  870MOL0     H14832   0.761   4.399  10.795 -0.6208 -1.0765 -1.6230
  870MOL0     H14833   0.663   4.469  10.928 -1.8272  1.9983 -0.5393
  870MOL0     H14834   0.520   4.321  10.885  1.9393 -3.7085 -0.5737
  870MOL0     H14835   0.585   4.276  10.725 -3.0070 -1.4248 -0.4517
  870MOL0     H14836   0.378   4.473  10.804  0.6925  0.8318  0.1974
  870MOL0     H14837   0.435   4.468  10.638 -1.2721 -3.4087 -1.6283
  870MOL0     H14838   0.192   4.133  10.615  0.0066  1.7993 -2.8036
  870MOL0     H14839   0.912   4.559  10.678  1.2074 -1.5514 -0.6619
  870MOL0     H14840   1.102   4.514  10.536 -0.6707  1.4649  1.9210
  871MOL0     O14841   5.253   3.831   3.131 -0.4322  0.1765  0.2508
  871MOL0     C14842   5.308   3.904   3.050 -0.4562 -0.0819 -0.2877
  871MOL0     O14843   5.436   3.904   3.012 -0.2987  0.2045 -0.3382
  871MOL0     C14844   5.536   3.873   3.108  0.2677 -0.2421  1.1958
  871MOL0     C14845   5.668   3.863   3.055  0.1840  0.5731 -0.3306
  871MOL0     C14846   5.769   3.810   3.136  0.8851 -0.3958  1.0296
  871MOL0     C14847   5.742   3.786   3.276 -0.4703 -0.6822 -0.8304
  871MOL0     O14848   5.850   3.764   3.361 -0.3592  0.1273  0.2288
  871MOL0     C14849   5.832   3.765   3.503  0.0121  0.5447 -0.4711
  871MOL0     C14850   5.972   3.771   3.557  0.5012  0.9274  0.1421
  871MOL0     C14851   5.971   3.736   3.707 -0.4849 -0.3528  0.2892
  871MOL0     C14852   6.103   3.777   3.780 -0.3910  0.3227  0.2797
  871MOL0     C14853   6.201   3.659   3.767 -0.3152  0.8937  0.3340
  871MOL0     C14854   6.305   3.670   3.881  0.1205 -0.1802 -0.5281
  871MOL0     C14855   6.394   3.546   3.911 -0.0147 -0.0307 -0.2911
  871MOL0     C14856   6.495   3.523   3.795  0.3506 -0.0391  0.3141
  871MOL0     N14857   6.586   3.405   3.811 -0.1884 -0.3520 -0.4489
  871MOL0     C14858   6.578   3.299   3.727 -0.3061 -0.8429 -0.1668
  871MOL0     C14859   6.696   3.238   3.737  0.3345 -1.0580 -0.1520
  871MOL0     C14860   6.738   3.115   3.660 -0.2028 -0.6816  1.1399
  871MOL0     C14861   6.826   3.157   3.535  0.0259  0.7981 -0.5169
  871MOL0     C14862   6.886   3.033   3.469 -0.4313 -0.3388  0.4294
  871MOL0     C14863   6.795   2.954   3.384  0.1208  0.7997  0.4618
  871MOL0     O14864   6.765   3.017   3.258  0.3710 -0.0075  1.0346
  871MOL0     C14865   6.627   3.033   3.231 -0.7478 -0.2883 -1.0213
  871MOL0     C14866   6.562   3.150   3.249 -0.0536 -0.4447 -0.7509
  871MOL0     C14867   6.430   3.176   3.207 -0.2689  0.5398  0.0692
  871MOL0     C14868   6.357   3.066   3.166 -0.3896  0.8336 -0.6866
  871MOL0     C14869   6.208   3.069   3.128  1.5944 -0.9648  0.3930
  871MOL0     O14870   6.150   2.970   3.067 -0.7356 -0.3476 -0.0710
  871MOL0     C14871   6.035   3.000   3.006 -0.1106  0.1223  0.5168
  871MOL0     C14872   5.901   3.017   3.059  0.4604 -0.5400  0.0879
  871MOL0     C14873   5.796   3.059   2.971 -0.5072  0.1699  0.8999
  871MOL0     C14874   5.822   3.087   2.832  0.4041 -0.0180  0.5696
  871MOL0     O14875   5.715   3.126   2.741 -0.2962  0.8295 -0.1844
  871MOL0     C14876   5.578   3.098   2.777 -0.3512  0.0944 -0.2686
  871MOL0     C14877   5.484   3.092   2.657  1.0014  0.8772  1.2110
  871MOL0     C14878   5.523   3.188   2.539 -0.3405  0.6217  0.8438
  871MOL0     C14879   5.418   3.180   2.430  0.7936  0.3314 -0.1994
  871MOL0     C14880   5.449   3.266   2.305  0.1777  0.2526 -0.6016
  871MOL0     C14881   5.315   3.291   2.237 -0.1310 -1.3554 -0.6998
  871MOL0     C14882   5.317   3.391   2.119 -1.3430 -0.6672 -0.2380
  871MOL0     C14883   5.419   3.346   2.014 -0.5967  1.1454  0.5551
  871MOL0    Cl14884   5.571   3.433   2.065  0.2095 -0.3609  0.2806
  871MOL0     C14885   5.952   3.079   2.792 -0.5365 -0.0488  0.5934
  871MOL0     C14886   6.049   3.028   2.870  0.0056  0.2937 -0.5013
  871MOL0     O14887   6.154   3.164   3.176 -0.0267 -0.0467 -0.9786
  871MOL0     C14888   6.420   2.937   3.156 -0.4180 -0.1551  0.4349
  871MOL0     C14889   6.556   2.921   3.185  0.8281  0.2994  0.8098
  871MOL0     N14890   6.761   3.282   3.850  0.2554  0.5760 -0.1616
  871MOL0     N14891   6.695   3.388   3.891  0.3526  0.2512 -1.3116
  871MOL0     C14892   5.612   3.807   3.334 -0.2582  0.1956 -0.5016
  871MOL0     C14893   5.520   3.854   3.249  0.7793 -0.2976  0.9378
  871MOL0     C14894   5.229   3.978   2.944 -0.0959 -0.4104 -0.3199
  871MOL0     C14895   5.301   4.058   2.849  0.8667 -0.6348 -0.5909
  871MOL0     C14896   5.216   4.133   2.773 -0.5187  0.3118  0.2128
  871MOL0     C14897   5.075   4.123   2.776  0.5106  0.9550 -0.5859
  871MOL0     O14898   4.994   4.204   2.707 -0.4556  0.0748 -0.2092
  871MOL0     C14899   4.851   4.201   2.710  0.0464 -0.2326 -0.7629
  871MOL0     C14900   4.783   4.291   2.603  0.1998 -0.1802 -0.8888
  871MOL0     C14901   4.804   4.439   2.641  0.2927  0.3397 -0.0575
  871MOL0     C14902   4.697   4.509   2.722  0.8606  0.7416  1.1558
  871MOL0     C14903   4.691   4.459   2.860  0.5696  0.2367  0.0047
  871MOL0     C14904   4.688   4.402   2.967 -0.6723  0.1594  1.0766
  871MOL0     C14905   5.016   4.026   2.855 -0.3191 -0.4815 -0.4029
  871MOL0     C14906   5.093   3.961   2.956 -0.4783  0.0946 -0.8755
  871MOL0     H14907   5.686   3.878   2.949 -3.0978 -4.7413 -2.0801
  871MOL0     H14908   5.866   3.802   3.089 -0.0739 -0.5369 -1.0368
  871MOL0     H14909   5.760   3.694   3.544 -0.1727  1.3628  0.6681
  871MOL0     H14910   5.788   3.862   3.529  0.0030  1.0680 -2.3244
  871MOL0     H14911   6.010   3.871   3.532  3.0101 -0.8607 -4.3072
  871MOL0     H14912   6.027   3.692   3.504 -2.7990 -1.4890  0.0066
  871MOL0     H14913   5.948   3.631   3.723 -5.4057  0.5737  0.9186
  871MOL0     H14914   5.895   3.791   3.763 -1.6384 -0.2214 -1.3173
  871MOL0     H14915   6.152   3.868   3.743 -1.0480 -0.2019 -2.0030
  871MOL0     H14916   6.087   3.796   3.887 -0.8253  3.4374 -0.2363
  871MOL0     H14917   6.227   3.671   3.661 -0.2685  0.4487  0.2964
  871MOL0     H14918   6.149   3.564   3.782  5.1659 -2.8564 -1.3846
  871MOL0     H14919   6.246   3.704   3.967 -0.2640  1.6514 -1.4772
  871MOL0     H14920   6.372   3.749   3.845  3.9488 -1.8899  2.0947
  871MOL0     H14921   6.445   3.562   4.006  1.2763 -2.3540 -0.5362
  871MOL0     H14922   6.325   3.463   3.924  0.6522 -0.5314  0.0514
  871MOL0     H14923   6.550   3.618   3.792 -1.0170  0.7598 -0.9673
  871MOL0     H14924   6.442   3.518   3.699  1.7917 -0.6112 -0.4745
  871MOL0     H14925   6.507   3.276   3.647 -0.9601  0.1230  0.1194
  871MOL0     H14926   6.653   3.066   3.610  1.0643 -0.7854 -1.0719
  871MOL0     H14927   6.796   3.049   3.725  2.6827  1.4591  0.9315
  871MOL0     H14928   6.908   3.219   3.574 -2.0544  1.5186  3.1420
  871MOL0     H14929   6.761   3.221   3.475 -1.0394  1.3276  1.1087
  871MOL0     H14930   6.973   3.065   3.411  1.7932 -1.8438  2.7091
  871MOL0     H14931   6.925   2.976   3.554  0.3524 -2.6961 -1.4014
  871MOL0     H14932   6.701   2.936   3.438 -0.3886 -0.0314 -0.6440
  871MOL0     H14933   6.838   2.858   3.357 -1.9240 -0.0323 -0.0781
  871MOL0     H14934   6.614   3.234   3.295 -3.3638 -0.3538  3.4551
  871MOL0     H14935   6.367   3.265   3.208  1.3943  1.8742 -2.7320
  871MOL0     H14936   5.884   2.993   3.164  1.3475 -1.8526 -0.0433
  871MOL0     H14937   5.701   3.081   3.017 -0.4836  3.3995 -0.2880
  871MOL0     H14938   5.540   3.179   2.840 -4.1473 -1.0566 -0.7828
  871MOL0     H14939   5.567   3.002   2.828  2.7453  0.7675  1.9043
  871MOL0     H14940   5.378   3.103   2.681  0.1078  0.3272 -1.9463
  871MOL0     H14941   5.495   2.993   2.611  0.4355 -0.2897  3.4739
  871MOL0     H14942   5.623   3.165   2.501 -1.2164 -2.8502  0.3780
  871MOL0     H14943   5.517   3.290   2.578  0.2829  1.3535 -0.8692
  871MOL0     H14944   5.410   3.078   2.393  0.0192  0.7316 -1.1910
  871MOL0     H14945   5.320   3.203   2.474  0.9266  0.5792 -0.0287
  871MOL0     H14946   5.511   3.203   2.241 -1.1531  0.0845 -1.7795
  871MOL0     H14947   5.502   3.360   2.321  1.7095 -1.0987  3.4322
  871MOL0     H14948   5.255   3.333   2.318  1.8901  0.4514 -0.0452
  871MOL0     H14949   5.264   3.203   2.197 -2.8869  0.4661 -1.4841
  871MOL0     H14950   5.219   3.384   2.073 -1.5660 -1.3646  0.3057
  871MOL0     H14951   5.337   3.492   2.154  1.0533 -1.4062  0.7525
  871MOL0     H14952   5.386   3.375   1.913  0.0745 -0.5178 -0.1772
  871MOL0     H14953   5.442   3.239   2.020  1.0809  1.3930 -0.7174
  871MOL0     H14954   5.977   3.100   2.689  2.7487 -1.8471  0.8815
  871MOL0     H14955   6.151   3.024   2.832  0.2289  0.4513  0.0645
  871MOL0     H14956   6.362   2.857   3.112  0.9043 -1.4324  0.9337
  871MOL0     H14957   6.591   2.819   3.173 -2.2793 -0.6955 -1.1737
  871MOL0     H14958   5.586   3.792   3.438 -1.2932 -1.9700 -0.9974
  871MOL0     H14959   5.418   3.870   3.284  0.1954 -1.7802  0.0053
  871MOL0     H14960   5.407   4.081   2.848  0.1601  3.1166 -1.0661
  871MOL0     H14961   5.252   4.209   2.704  0.7756 -0.1900  0.2978
  871MOL0     H14962   4.816   4.226   2.810 -1.5741 -2.1721 -0.7970
  871MOL0     H14963   4.802   4.104   2.699 -3.2139  0.7737  2.8619
  871MOL0     H14964   4.826   4.265   2.506  1.0124  0.1437 -0.6208
  871MOL0     H14965   4.678   4.261   2.604 -0.3323  1.5406  0.5952
  871MOL0     H14966   4.819   4.501   2.552 -1.4512 -1.1450 -1.4598
  871MOL0     H14967   4.905   4.447   2.682  1.0475 -3.5680 -0.7672
  871MOL0     H14968   4.702   4.618   2.728  2.2168  0.6440  2.4821
  871MOL0     H14969   4.612   4.487   2.658  1.9699  0.9456 -0.4465
  871MOL0     H14970   4.690   4.355   3.063 -0.2048 -1.2950  0.3727
  871MOL0     H14971   4.907   4.022   2.862 -0.1924 -1.8922  2.3012
  871MOL0     H14972   5.049   3.891   3.026 -0.9310 -0.4741 -1.7246
  872MOL0     O14973  10.060   3.622   6.839 -0.2746  0.0060 -0.6135
  872MOL0     C14974  10.043   3.507   6.871 -0.7000  0.3957  0.9408
  872MOL0     O14975  10.063   3.450   6.997  0.6515  0.1099 -0.4252
  872MOL0     C14976  10.083   3.530   7.110  0.0050  1.0347 -0.7411
  872MOL0     C14977  10.070   3.466   7.238 -1.0404  0.5428 -0.2110
  872MOL0     C14978  10.107   3.533   7.359 -0.1505 -1.1036 -0.0243
  872MOL0     C14979  10.144   3.669   7.354 -0.9587  1.9596 -0.1966
  872MOL0     O14980  10.187   3.728   7.468  0.4438  0.2685 -0.3847
  872MOL0     C14981  10.172   3.671   7.605 -0.0866 -0.4161  0.9579
  872MOL0     C14982  10.212   3.762   7.715  0.3048 -0.0581 -0.2734
  872MOL0     C14983  10.187   3.713   7.860 -0.2790  0.1247  1.0775
  872MOL0     C14984  10.183   3.844   7.946  0.6799 -0.2521 -0.2360
  872MOL0     C14985  10.155   3.803   8.088 -0.1836 -0.1229 -0.6410
  872MOL0     C14986  10.163   3.916   8.204 -0.6070  0.5018  1.1707
  872MOL0     C14987  10.293   3.998   8.198 -0.0089 -1.0960  0.4779
  872MOL0     C14988  10.301   4.109   8.313 -0.1521  0.1775 -0.0872
  872MOL0     N14989  10.225   4.231   8.268  0.6896  0.6791 -0.6998
  872MOL0     C14990  10.090   4.231   8.295  0.3158 -0.2461 -0.2121
  872MOL0     C14991  10.061   4.362   8.280  1.0942 -0.2573 -0.9096
  872MOL0     C14992   9.919   4.421   8.290 -0.0442  0.0682  0.0913
  872MOL0     C14993   9.869   4.487   8.163  0.0442 -0.4163  0.0851
  872MOL0     C14994   9.726   4.459   8.132  0.2197  0.0604  0.2393
  872MOL0     C14995   9.713   4.473   7.978  0.0969  0.7118 -1.0142
  872MOL0     O14996   9.782   4.360   7.914 -0.1732 -0.5052 -0.0215
  872MOL0     C14997   9.701   4.253   7.888 -0.3940 -0.4912 -0.8589
  872MOL0     C14998   9.714   4.135   7.971  0.3101 -0.8007 -0.2125
  872MOL0     C14999   9.626   4.036   7.955  0.1260  0.4862  0.8565
  872MOL0     C15000   9.523   4.043   7.860  0.2805 -0.5067  0.6314
  872MOL0     C15001   9.416   3.941   7.856 -0.4221 -0.7034 -0.4048
  872MOL0     O15002   9.421   3.840   7.941 -0.5231 -0.1370 -0.0420
  872MOL0     C15003   9.310   3.770   7.977 -0.7192 -0.0676 -0.1075
  872MOL0     C15004   9.331   3.638   8.029  0.0302  1.1749 -0.7900
  872MOL0     C15005   9.223   3.559   8.065 -0.3160 -0.0443 -0.0375
  872MOL0     C15006   9.085   3.608   8.065  0.1017  0.1601 -0.2924
  872MOL0     O15007   8.991   3.517   8.130  0.1349 -0.5837  0.9472
  872MOL0     C15008   8.857   3.566   8.128 -0.1223 -0.3456 -0.0546
  872MOL0     C15009   8.784   3.530   8.005 -0.6444  0.5930 -0.9308
  872MOL0     C15010   8.635   3.533   8.029  0.5342 -0.6460 -0.2557
  872MOL0     C15011   8.586   3.677   8.027  1.0575 -0.9944 -0.6380
  872MOL0     C15012   8.433   3.659   8.061  0.5466 -0.1552 -0.3015
  872MOL0     C15013   8.367   3.802   8.059 -0.9230  0.3351 -0.1182
  872MOL0     C15014   8.342   3.869   7.916  0.2555  0.1506 -0.2803
  872MOL0     C15015   8.210   3.946   7.909 -0.4704 -0.2334  0.1106
  872MOL0    Cl15016   8.215   4.111   8.004 -0.5507 -0.4065  0.5292
  872MOL0     C15017   9.073   3.745   8.023  0.5303 -0.7791 -0.3208
  872MOL0     C15018   9.178   3.820   7.977  0.5696  0.5591  0.6929
  872MOL0     O15019   9.342   3.944   7.759  0.3890  0.6839 -0.0697
  872MOL0     C15020   9.521   4.153   7.773  0.1970  0.5104 -0.0001
  872MOL0     C15021   9.613   4.263   7.783  0.4418  0.2979 -0.4859
  872MOL0     N15022  10.173   4.426   8.257  0.0551 -0.3034  0.0455
  872MOL0     N15023  10.276   4.354   8.249  0.5232  0.5654 -0.4789
  872MOL0     C15024  10.138   3.737   7.236 -0.1575 -0.0700  0.0826
  872MOL0     C15025  10.107   3.670   7.118  0.1820 -0.3886  1.5342
  872MOL0     C15026  10.009   3.417   6.758  0.6100  0.4271 -0.2963
  872MOL0     C15027   9.968   3.468   6.627  0.1381 -0.4207 -0.2397
  872MOL0     C15028   9.943   3.373   6.522 -0.2007  0.0736  0.0130
  872MOL0     C15029   9.953   3.237   6.543  0.9868  0.2229 -0.5704
  872MOL0     O15030   9.918   3.153   6.434  0.2797 -0.0359  0.4034
  872MOL0     C15031   9.941   3.014   6.433  1.5910 -0.2490 -0.1027
  872MOL0     C15032  10.080   2.978   6.386  0.3942 -0.1265  0.3140
  872MOL0     C15033  10.124   3.022   6.246  0.1746 -0.2363  0.0126
  872MOL0     C15034  10.266   2.962   6.221 -0.2367  0.3821 -0.5603
  872MOL0     C15035  10.264   2.814   6.226 -0.4234  0.3694 -0.0157
  872MOL0     C15036  10.286   2.695   6.218 -1.0715 -0.0222  0.1118
  872MOL0     C15037   9.999   3.189   6.671  0.7951  0.6056 -0.0665
  872MOL0     C15038  10.029   3.280   6.771 -0.3978  0.5322 -0.5265
  872MOL0     H15039  10.052   3.359   7.244 -2.1654  0.5658 -2.1745
  872MOL0     H15040  10.111   3.475   7.450 -1.7193  1.4914  1.8360
  872MOL0     H15041  10.248   3.592   7.608  1.4446  0.9104 -0.8343
  872MOL0     H15042  10.071   3.636   7.629 -0.3390 -1.0051 -0.8206
  872MOL0     H15043  10.135   3.838   7.697 -0.2672 -0.7361 -0.7152
  872MOL0     H15044  10.317   3.795   7.712  0.4722 -0.4807  0.6017
  872MOL0     H15045  10.260   3.637   7.891  1.9636  1.5818 -0.2888
  872MOL0     H15046  10.088   3.668   7.858 -0.1450 -0.1559  0.8087
  872MOL0     H15047  10.280   3.894   7.937  0.4169  0.0554 -1.5323
  872MOL0     H15048  10.108   3.913   7.906  1.3155 -0.0309 -1.0820
  872MOL0     H15049  10.221   3.724   8.124 -2.3245 -0.8802  1.9569
  872MOL0     H15050  10.055   3.758   8.090  0.0808 -0.7280  1.1776
  872MOL0     H15051  10.171   3.854   8.294 -2.1842 -1.7143 -0.1147
  872MOL0     H15052  10.074   3.978   8.217 -0.8025  0.2749  0.9329
  872MOL0     H15053  10.381   3.933   8.201  0.5893 -0.3100  4.2464
  872MOL0     H15054  10.285   4.052   8.103 -0.1341  0.9039  1.5780
  872MOL0     H15055  10.409   4.128   8.315  0.7940 -4.1795  0.4394
  872MOL0     H15056  10.262   4.072   8.408 -0.1090 -0.9590 -0.5028
  872MOL0     H15057  10.024   4.146   8.307  0.0083 -0.0705 -0.6026
  872MOL0     H15058   9.918   4.494   8.372  4.6504  2.6267 -1.7394
  872MOL0     H15059   9.853   4.335   8.306 -2.5237  1.7487 -0.5053
  872MOL0     H15060   9.943   4.465   8.085  0.8683  4.4408 -0.8514
  872MOL0     H15061   9.868   4.596   8.170 -4.0377 -0.2026 -1.1574
  872MOL0     H15062   9.700   4.355   8.156 -0.0024  0.2440  0.8107
  872MOL0     H15063   9.663   4.530   8.186  2.0678  1.0714  1.1614
  872MOL0     H15064   9.753   4.566   7.936  1.1454  1.1572  0.8236
  872MOL0     H15065   9.606   4.465   7.957 -0.4404  2.3180  0.7509
  872MOL0     H15066   9.788   4.120   8.049 -2.4194 -1.4496  2.4457
  872MOL0     H15067   9.632   3.951   8.022 -2.8866  1.1105  2.0604
  872MOL0     H15068   9.434   3.603   8.034  0.1755  1.6786 -0.0262
  872MOL0     H15069   9.234   3.453   8.086  1.5808 -0.1177 -1.1703
  872MOL0     H15070   8.844   3.674   8.136 -3.9062 -0.7735  1.8360
  872MOL0     H15071   8.810   3.523   8.217 -2.2892  3.4026  0.8302
  872MOL0     H15072   8.805   3.425   7.982  0.2469  0.6492 -0.4134
  872MOL0     H15073   8.819   3.589   7.920 -3.4348 -0.6677 -3.1033
  872MOL0     H15074   8.602   3.487   8.123 -4.1187  1.9892 -0.2980
  872MOL0     H15075   8.590   3.471   7.951  2.9443 -2.0559 -0.6270
  872MOL0     H15076   8.627   3.742   8.106 -3.4512  0.2303  0.9709
  872MOL0     H15077   8.605   3.735   7.935  1.3502 -2.5400 -1.5833
  872MOL0     H15078   8.426   3.633   8.167 -2.3256 -1.5410 -0.7308
  872MOL0     H15079   8.385   3.580   8.003 -1.8557  0.1102  1.1516
  872MOL0     H15080   8.432   3.870   8.115  1.2055 -0.9938 -0.8309
  872MOL0     H15081   8.267   3.783   8.100 -0.0848 -0.5867  1.6204
  872MOL0     H15082   8.426   3.936   7.896  0.0546  1.5767  2.9604
  872MOL0     H15083   8.351   3.785   7.846  1.9315 -0.2183  0.3197
  872MOL0     H15084   8.119   3.890   7.936  1.6251 -2.4091  3.3060
  872MOL0     H15085   8.191   3.979   7.806 -1.6842  3.7025  1.4165
  872MOL0     H15086   8.980   3.801   8.023  0.1738 -1.3309 -1.5366
  872MOL0     H15087   9.161   3.924   7.952 -1.0620  0.2813  0.5424
  872MOL0     H15088   9.449   4.172   7.693 -2.6392 -2.6154  1.5311
  872MOL0     H15089   9.604   4.350   7.719  0.1223 -0.4547 -1.4884
  872MOL0     H15090  10.149   3.844   7.239  0.1816  0.0808 -3.1361
  872MOL0     H15091  10.111   3.730   7.027 -0.0310 -2.2055  0.2732
  872MOL0     H15092   9.932   3.570   6.619 -1.2645 -0.5975  2.5785
  872MOL0     H15093   9.916   3.411   6.424  1.5050  2.1556  0.2900
  872MOL0     H15094   9.869   2.965   6.366  1.8269  1.4188 -1.6586
  872MOL0     H15095   9.930   2.973   6.534  1.1069  1.2191  0.4668
  872MOL0     H15096  10.154   3.004   6.462 -2.3986 -1.6474  3.8727
  872MOL0     H15097  10.075   2.869   6.387  2.5514 -0.3264  3.6605
  872MOL0     H15098  10.131   3.131   6.234  2.2244 -0.4414 -1.2037
  872MOL0     H15099  10.061   2.987   6.164 -0.7389  3.6513 -1.1748
  872MOL0     H15100  10.303   2.990   6.122  0.0726 -3.6981 -1.7672
  872MOL0     H15101  10.338   2.988   6.299 -2.0177  3.9486  0.1147
  872MOL0     H15102  10.336   2.600   6.223 -0.1164  0.2825 -2.2431
  872MOL0     H15103  10.012   3.084   6.697  1.7110  0.7957  0.2830
  872MOL0     H15104  10.053   3.244   6.870  3.2536  0.5054 -1.3021
  873MOL0     O15105   6.307   0.886   7.761 -0.2723  0.1724 -1.1337
  873MOL0     C15106   6.337   0.808   7.846 -0.1311  0.2640 -0.6444
  873MOL0     O15107   6.334   0.667   7.831 -0.3648  0.3824  0.0521
  873MOL0     C15108   6.322   0.609   7.709  0.0640 -0.2328  0.5959
  873MOL0     C15109   6.422   0.622   7.612 -0.3932 -0.6916 -0.4235
  873MOL0     C15110   6.430   0.551   7.493 -0.1983 -0.4488  0.0782
  873MOL0     C15111   6.345   0.442   7.482 -0.0755 -0.4803 -0.2013
  873MOL0     O15112   6.363   0.364   7.378 -0.1551 -0.4008  0.9974
  873MOL0     C15113   6.318   0.418   7.255  0.6875 -0.5669  0.2050
  873MOL0     C15114   6.346   0.319   7.140 -0.0832 -0.0773  0.3148
  873MOL0     C15115   6.281   0.179   7.159 -0.4031 -0.7455 -0.1051
  873MOL0     C15116   6.339   0.066   7.081 -1.1618  0.3484  0.5773
  873MOL0     C15117   6.257  -0.067   7.090 -0.2869 -0.1500 -0.7628
  873MOL0     C15118   6.331  -0.172   7.003  0.0688  0.1725 -0.2824
  873MOL0     C15119   6.243  -0.298   6.964  0.2723  0.5295 -0.0536
  873MOL0     C15120   6.139  -0.267   6.853  0.0937  0.2539 -0.1778
  873MOL0     N15121   6.205  -0.218   6.731 -0.3209  0.9431  0.0675
  873MOL0     C15122   6.284  -0.289   6.641  0.3104 -0.1647  0.2243
  873MOL0     C15123   6.344  -0.198   6.558  0.5714 -0.3148 -0.0063
  873MOL0     C15124   6.444  -0.215   6.446 -0.4324  0.1401 -0.4114
  873MOL0     C15125   6.406  -0.340   6.359 -0.0932  0.5538  0.1403
  873MOL0     C15126   6.454  -0.475   6.406 -0.1744  0.0986  0.1089
  873MOL0     C15127   6.445  -0.576   6.289 -0.3598  0.1517  0.2413
  873MOL0     O15128   6.313  -0.601   6.234 -0.1383 -0.0636 -0.1186
  873MOL0     C15129   6.304  -0.710   6.151 -1.0204 -0.0327 -0.1415
  873MOL0     C15130   6.183  -0.727   6.085  0.0218 -0.1411 -0.9064
  873MOL0     C15131   6.159  -0.833   5.992  0.4160 -0.0782  0.9094
  873MOL0     C15132   6.255  -0.927   5.967 -0.1354 -0.0170 -0.8425
  873MOL0     C15133   6.247  -1.024   5.858  0.1958 -0.2082 -0.0694
  873MOL0     O15134   6.361  -1.065   5.793  0.2139  0.0415 -1.2491
  873MOL0     C15135   6.350  -1.155   5.691 -0.0240  0.2407  0.4443
  873MOL0     C15136   6.360  -1.101   5.569  0.5222  0.1921 -0.1284
  873MOL0     C15137   6.366  -1.185   5.452  0.6654 -0.6434 -0.1681
  873MOL0     C15138   6.339  -1.324   5.465  0.2707 -0.3685  1.0398
  873MOL0     O15139   6.339  -1.387   5.341 -0.9349 -0.3858  0.1863
  873MOL0     C15140   6.321  -1.528   5.336 -0.8285  0.2633 -0.4075
  873MOL0     C15141   6.318  -1.579   5.196  0.9055 -0.1440  0.2596
  873MOL0     C15142   6.373  -1.723   5.191  0.4079  0.6941 -0.6605
  873MOL0     C15143   6.406  -1.778   5.048  0.0371  0.1469  0.1029
  873MOL0     C15144   6.288  -1.765   4.950  0.1031  0.0302  0.5391
  873MOL0     C15145   6.334  -1.789   4.808 -0.1893  0.2247 -0.1582
  873MOL0     C15146   6.217  -1.787   4.714  0.2819  1.3740  0.7902
  873MOL0     C15147   6.207  -1.663   4.633  0.1934  0.0889  1.2591
  873MOL0    Cl15148   6.081  -1.540   4.702  0.5946 -0.4108 -0.1342
  873MOL0     C15149   6.337  -1.386   5.590  0.3832 -0.0132  0.0313
  873MOL0     C15150   6.347  -1.297   5.709  0.2556 -0.4814 -0.6558
  873MOL0     O15151   6.130  -1.059   5.824 -0.7815 -0.1139 -0.4472
  873MOL0     C15152   6.377  -0.912   6.043 -0.6308  0.1452  0.4889
  873MOL0     C15153   6.411  -0.803   6.122  0.0579  0.2223  0.2097
  873MOL0     N15154   6.288  -0.075   6.588  0.1278 -0.1023 -0.8104
  873MOL0     N15155   6.197  -0.087   6.683  0.6142 -0.1787  0.7196
  873MOL0     C15156   6.235   0.437   7.565  0.4748 -0.6771  0.1811
  873MOL0     C15157   6.221   0.512   7.685  0.8500  0.2767 -0.6649
  873MOL0     C15158   6.376   0.863   7.979  0.4256  0.2361 -1.3323
  873MOL0     C15159   6.376   1.001   8.010  0.9195 -0.7854 -0.5641
  873MOL0     C15160   6.420   1.048   8.131  0.4306  0.5685 -1.1583
  873MOL0     C15161   6.455   0.951   8.233 -0.8052 -0.1542  0.0109
  873MOL0     O15162   6.476   0.976   8.371 -0.2977 -0.4441  0.1450
  873MOL0     C15163   6.493   1.114   8.429 -0.2248 -0.4501  0.1730
  873MOL0     C15164   6.644   1.120   8.451  0.2293 -0.6992 -0.4958
  873MOL0     C15165   6.693   1.014   8.551  0.2467  0.5206  0.6741
  873MOL0     C15166   6.839   1.026   8.589 -0.2417 -0.6216 -0.6932
  873MOL0     C15167   6.861   0.944   8.713 -0.2154  0.3320 -0.1105
  873MOL0     C15168   6.866   0.858   8.798  0.4460  0.3725 -0.7163
  873MOL0     C15169   6.478   0.820   8.198  0.0603 -0.5042  0.0035
  873MOL0     C15170   6.431   0.773   8.076  0.5749 -0.0740 -0.1311
  873MOL0     H15171   6.501   0.694   7.632 -0.2363 -0.8945 -0.3183
  873MOL0     H15172   6.509   0.566   7.420  0.1637 -0.3884  0.4852
  873MOL0     H15173   6.363   0.512   7.221  0.1682 -0.7482 -1.0668
  873MOL0     H15174   6.210   0.438   7.258  1.0723  1.6502  0.7730
  873MOL0     H15175   6.456   0.316   7.145 -0.0888  1.0613  3.9842
  873MOL0     H15176   6.310   0.363   7.047 -0.5535  0.1612  0.6093
  873MOL0     H15177   6.176   0.187   7.128 -0.7724 -0.3192  1.1791
  873MOL0     H15178   6.284   0.157   7.266  2.9329 -0.4134 -0.0248
  873MOL0     H15179   6.355   0.095   6.977  0.3605 -2.5280 -0.0973
  873MOL0     H15180   6.439   0.046   7.121 -0.4749  2.7235  0.2351
  873MOL0     H15181   6.155  -0.037   7.066  0.2538  1.8698 -0.6930
  873MOL0     H15182   6.268  -0.093   7.195  2.4698  0.8510 -0.7251
  873MOL0     H15183   6.420  -0.204   7.058  0.5442  4.2816  1.6724
  873MOL0     H15184   6.363  -0.130   6.907 -0.2640  1.1779  0.0364
  873MOL0     H15185   6.304  -0.374   6.914  0.6012 -0.7692  2.2039
  873MOL0     H15186   6.195  -0.344   7.051  0.9161 -1.2809 -0.6041
  873MOL0     H15187   6.065  -0.196   6.890 -0.0559 -0.7032  1.4787
  873MOL0     H15188   6.092  -0.363   6.827  1.8900 -0.5154 -0.7705
  873MOL0     H15189   6.317  -0.390   6.658 -2.2851 -0.8754  1.6829
  873MOL0     H15190   6.542  -0.231   6.492  0.9925  4.2371 -1.6706
  873MOL0     H15191   6.437  -0.120   6.393 -1.4718  1.5715  2.1008
  873MOL0     H15192   6.451  -0.330   6.260  2.4167  0.0773  1.1631
  873MOL0     H15193   6.297  -0.350   6.354 -0.1024  0.1295  0.9857
  873MOL0     H15194   6.555  -0.482   6.448  0.5149 -3.4239 -1.7283
  873MOL0     H15195   6.381  -0.507   6.480 -3.4271 -4.2761 -4.3072
  873MOL0     H15196   6.487  -0.670   6.327  3.1500  1.4460 -0.1020
  873MOL0     H15197   6.519  -0.537   6.219  0.4285 -1.7349 -0.0345
  873MOL0     H15198   6.103  -0.654   6.090  0.5983  0.3878  2.3035
  873MOL0     H15199   6.063  -0.840   5.942  1.5665  0.6047 -1.5203
  873MOL0     H15200   6.364  -0.996   5.543 -1.5088  0.0652 -1.1423
  873MOL0     H15201   6.375  -1.144   5.352 -1.5507 -0.9146 -0.5465
  873MOL0     H15202   6.232  -1.561   5.390 -0.4082  2.5701  1.8278
  873MOL0     H15203   6.407  -1.581   5.376 -0.3100  1.1896 -0.2815
  873MOL0     H15204   6.367  -1.505   5.133  0.1091  1.3225  1.2864
  873MOL0     H15205   6.212  -1.573   5.167  0.9836 -0.0087  0.0092
  873MOL0     H15206   6.292  -1.788   5.226 -2.0678  0.9487 -5.1027
  873MOL0     H15207   6.468  -1.739   5.244 -1.7890 -3.2267  2.6519
  873MOL0     H15208   6.497  -1.733   5.007 -0.3926  0.7884 -0.1644
  873MOL0     H15209   6.435  -1.881   5.069  1.1574  0.0866 -1.5497
  873MOL0     H15210   6.245  -1.665   4.962  0.4436  0.6410 -2.4091
  873MOL0     H15211   6.214  -1.841   4.977 -0.8269  0.9099  0.5070
  873MOL0     H15212   6.400  -1.875   4.797  1.2858  0.9962  1.9462
  873MOL0     H15213   6.400  -1.704   4.786 -2.1095  2.2500  1.4827
  873MOL0     H15214   6.249  -1.868   4.648 -0.2363  3.9371 -2.9599
  873MOL0     H15215   6.118  -1.802   4.759 -1.8033  1.8034 -3.1269
  873MOL0     H15216   6.187  -1.682   4.527  0.0086  1.3376  1.0575
  873MOL0     H15217   6.303  -1.612   4.624  0.4985 -0.2132  2.5872
  873MOL0     H15218   6.327  -1.494   5.584 -0.8132  0.1769 -3.2249
  873MOL0     H15219   6.334  -1.332   5.811 -5.3294  2.7172  0.1292
  873MOL0     H15220   6.450  -0.989   6.021 -1.1224 -0.3839  0.6899
  873MOL0     H15221   6.511  -0.801   6.165  0.1579 -0.5426  0.0296
  873MOL0     H15222   6.166   0.353   7.551 -2.8343  1.8693 -0.0559
  873MOL0     H15223   6.140   0.490   7.754  1.1680 -0.8530 -0.6251
  873MOL0     H15224   6.330   1.070   7.940 -0.0600 -1.7492 -0.8980
  873MOL0     H15225   6.407   1.152   8.159 -3.4718  0.2302 -1.1686
  873MOL0     H15226   6.439   1.124   8.523 -0.0050 -0.3023  0.2838
  873MOL0     H15227   6.455   1.196   8.365 -1.3898 -1.5194 -0.5649
  873MOL0     H15228   6.698   1.112   8.356  2.0751  0.2672  0.4294
  873MOL0     H15229   6.663   1.222   8.486  0.0851  0.2825 -3.0253
  873MOL0     H15230   6.690   0.918   8.499 -3.6101  0.4234  0.8229
  873MOL0     H15231   6.618   1.000   8.629  0.8434 -0.7456  1.0520
  873MOL0     H15232   6.913   0.986   8.521  2.3602  2.4610  0.0513
  873MOL0     H15233   6.871   1.130   8.603 -2.0202 -0.2017  0.7275
  873MOL0     H15234   6.870   0.784   8.876 -1.8347  3.1579  2.3136
  873MOL0     H15235   6.524   0.750   8.267  0.1617 -1.1662 -0.7210
  873MOL0     H15236   6.456   0.670   8.053 -0.6133  0.1202 -2.5627
  874MOL0     O15237   5.445   2.707   4.248  0.3735  0.3458 -0.2108
  874MOL0     C15238   5.531   2.793   4.257 -0.0398  0.2892 -0.4700
  874MOL0     O15239   5.555   2.890   4.163 -0.2845 -0.0536  0.4131
  874MOL0     C15240   5.448   2.909   4.072 -0.0101  0.5687 -0.5605
  874MOL0     C15241   5.453   2.865   3.940  0.4800 -0.8710 -0.0205
  874MOL0     C15242   5.351   2.900   3.853 -0.0385 -0.4820 -0.0600
  874MOL0     C15243   5.236   2.968   3.899  0.3059  0.2395  0.4280
  874MOL0     O15244   5.142   3.011   3.809 -0.7068 -0.0513  0.5597
  874MOL0     C15245   5.004   3.012   3.837 -0.2180  0.4746 -1.0065
  874MOL0     C15246   4.923   2.988   3.711 -0.0185 -0.6108  0.1837
  874MOL0     C15247   4.936   3.099   3.606  0.3595  0.8749  0.2588
  874MOL0     C15248   4.876   3.240   3.642  0.0135  0.3728  0.1285
  874MOL0     C15249   4.848   3.329   3.521 -0.1835 -0.0073 -0.2682
  874MOL0     C15250   4.818   3.478   3.567 -0.1742  0.1658  0.3811
  874MOL0     C15251   4.730   3.567   3.478 -0.9600  1.0187 -1.3319
  874MOL0     C15252   4.590   3.535   3.490  0.4253 -0.3759  0.1532
  874MOL0     N15253   4.509   3.642   3.441 -0.4690 -0.8974 -0.1044
  874MOL0     C15254   4.470   3.653   3.306  0.4033 -0.5102 -0.0741
  874MOL0     C15255   4.377   3.751   3.314  0.1528 -0.7286  0.3203
  874MOL0     C15256   4.290   3.800   3.202  0.7498 -0.4667 -0.4991
  874MOL0     C15257   4.196   3.697   3.145 -0.2128  0.1289  0.4944
  874MOL0     C15258   4.142   3.731   3.004 -0.5291 -0.6222 -0.2037
  874MOL0     C15259   4.008   3.681   2.970  0.2472  0.3561  0.3855
  874MOL0     O15260   4.023   3.541   2.944 -0.0626  0.4957  0.7521
  874MOL0     C15261   3.910   3.469   2.897 -0.3041 -0.8801  0.0861
  874MOL0     C15262   3.942   3.342   2.856  0.5352  0.1588 -0.9634
  874MOL0     C15263   3.832   3.264   2.811  0.4135  0.3883 -0.3843
  874MOL0     C15264   3.699   3.315   2.798 -0.2541  0.0157  0.3281
  874MOL0     C15265   3.593   3.233   2.728  0.9650  0.9492  0.6015
  874MOL0     O15266   3.623   3.112   2.677 -0.4042 -0.2229  0.1403
  874MOL0     C15267   3.547   3.046   2.588  0.3295  0.2511 -0.3047
  874MOL0     C15268   3.610   2.946   2.522  0.0769  0.2188  0.5236
  874MOL0     C15269   3.529   2.866   2.442 -0.3445  0.1509  0.8066
  874MOL0     C15270   3.396   2.889   2.410  0.5565  0.3829 -0.7328
  874MOL0     O15271   3.355   2.806   2.318 -0.5498 -0.4013 -0.8854
  874MOL0     C15272   3.214   2.793   2.305 -1.0879  0.9598  1.3996
  874MOL0     C15273   3.185   2.671   2.205 -0.2303 -0.1265 -0.1558
  874MOL0     C15274   3.030   2.650   2.193 -0.1960 -0.0431 -1.2594
  874MOL0     C15275   3.004   2.506   2.162  1.0186 -0.2768 -0.1631
  874MOL0     C15276   3.048   2.446   2.021  0.0226 -0.9913 -0.4018
  874MOL0     C15277   3.041   2.292   2.003 -0.2520  0.0794 -0.0281
  874MOL0     C15278   2.937   2.218   2.077  0.6829  0.4144  0.3207
  874MOL0     C15279   2.805   2.200   2.003 -0.3242  0.6189 -0.8825
  874MOL0    Cl15280   2.808   2.109   1.851 -0.2188  0.2976 -0.1798
  874MOL0     C15281   3.328   2.984   2.482 -0.8027  1.2797  0.2341
  874MOL0     C15282   3.404   3.056   2.579  0.2460  0.8195  0.6358
  874MOL0     O15283   3.484   3.297   2.709 -0.1935  0.1577 -0.4651
  874MOL0     C15284   3.674   3.446   2.834 -0.6488  1.1964 -0.3487
  874MOL0     C15285   3.780   3.521   2.891  0.1654  0.1107  0.3142
  874MOL0     N15286   4.342   3.778   3.448  0.2498  0.6483  0.7402
  874MOL0     N15287   4.424   3.713   3.517  0.0833 -1.2181 -0.2073
  874MOL0     C15288   5.220   2.992   4.040 -0.4328 -0.6575  0.9701
  874MOL0     C15289   5.330   2.972   4.126  0.6180  0.2345  0.1290
  874MOL0     C15290   5.622   2.793   4.372 -0.1303 -0.1465 -0.3908
  874MOL0     C15291   5.683   2.916   4.406  0.0479 -0.3369 -0.2158
  874MOL0     C15292   5.766   2.940   4.523  0.2089  0.1757 -0.2394
  874MOL0     C15293   5.799   2.830   4.605 -0.5922  0.8150  0.7623
  874MOL0     O15294   5.905   2.832   4.688 -0.0500 -0.0591 -0.0912
  874MOL0     C15295   5.871   2.859   4.828 -0.6482 -0.9858 -0.1059
  874MOL0     C15296   5.970   2.957   4.888  0.2690  0.5690 -0.2403
  874MOL0     C15297   6.109   2.895   4.894  1.4747  1.0597 -0.2940
  874MOL0     C15298   6.218   2.987   4.942  0.4986  0.5259  1.1197
  874MOL0     C15299   6.262   3.074   4.829 -1.1035  0.6764  0.2063
  874MOL0     C15300   6.316   3.141   4.739 -0.0609 -0.2665  0.8758
  874MOL0     C15301   5.735   2.704   4.574 -0.5436  0.3309  0.1314
  874MOL0     C15302   5.639   2.691   4.476 -0.0095  0.0290  1.1301
  874MOL0     H15303   5.535   2.807   3.898  1.1527 -0.1462  0.2723
  874MOL0     H15304   5.366   2.883   3.747  1.2375 -3.3552  0.4742
  874MOL0     H15305   4.975   3.112   3.871 -5.0679 -1.6861  2.4550
  874MOL0     H15306   4.994   2.939   3.919  5.0126  0.2026 -0.2492
  874MOL0     H15307   4.818   2.985   3.741  0.2618  2.8390  1.9825
  874MOL0     H15308   4.945   2.888   3.672  0.1956 -0.7793  0.7343
  874MOL0     H15309   4.885   3.058   3.518 -2.6578  0.2064  2.1520
  874MOL0     H15310   5.044   3.105   3.596  0.3981 -0.5134 -0.4901
  874MOL0     H15311   4.784   3.237   3.700  0.0915  2.0682  0.3970
  874MOL0     H15312   4.961   3.271   3.704  0.1612 -1.7780  1.0944
  874MOL0     H15313   4.771   3.289   3.453  1.9278 -2.9085 -1.1756
  874MOL0     H15314   4.945   3.342   3.472  1.1887  4.8414  3.0753
  874MOL0     H15315   4.916   3.524   3.583  1.1384 -2.6062  0.9337
  874MOL0     H15316   4.782   3.480   3.670  3.3454 -0.4798  1.7660
  874MOL0     H15317   4.753   3.668   3.513  2.2238  0.2440 -0.8607
  874MOL0     H15318   4.756   3.559   3.372  1.4613  1.6714 -0.8659
  874MOL0     H15319   4.568   3.517   3.595  2.2754 -4.3529  0.0578
  874MOL0     H15320   4.560   3.444   3.436  4.2386 -0.2257 -2.6608
  874MOL0     H15321   4.510   3.602   3.219 -3.3718 -2.5315 -0.8195
  874MOL0     H15322   4.350   3.846   3.122  1.9244 -1.2002 -0.0735
  874MOL0     H15323   4.217   3.873   3.237  1.3477  1.1031 -2.3102
  874MOL0     H15324   4.109   3.693   3.212  0.5389  2.3108  1.7144
  874MOL0     H15325   4.252   3.606   3.125  0.3244  0.3663  0.8847
  874MOL0     H15326   4.139   3.841   3.002 -0.5240 -0.5672  1.2711
  874MOL0     H15327   4.221   3.701   2.934  0.6938  0.2438  0.7533
  874MOL0     H15328   3.970   3.738   2.885  4.3599  0.2754 -1.7382
  874MOL0     H15329   3.945   3.680   3.060  2.2797 -3.9372  2.0537
  874MOL0     H15330   4.040   3.296   2.850 -0.6752 -2.9113  0.7540
  874MOL0     H15331   3.873   3.184   2.750  0.5183  0.5083 -0.4689
  874MOL0     H15332   3.717   2.931   2.524 -0.1212 -1.3531  1.2628
  874MOL0     H15333   3.576   2.784   2.389 -1.6162  0.4850 -0.9252
  874MOL0     H15334   3.188   2.887   2.255 -0.0632  1.1777  1.2517
  874MOL0     H15335   3.168   2.766   2.400 -0.2717 -0.7454  1.3453
  874MOL0     H15336   3.236   2.579   2.236  0.0312 -0.7835 -2.3534
  874MOL0     H15337   3.213   2.693   2.102  2.4853  2.0066  0.9101
  874MOL0     H15338   2.992   2.714   2.112 -2.1922 -1.9081 -1.8917
  874MOL0     H15339   2.974   2.677   2.283  1.6274  1.2555 -0.4328
  874MOL0     H15340   3.048   2.450   2.245 -1.0496  4.1148  4.4128
  874MOL0     H15341   2.895   2.493   2.167  1.0558 -0.2493  1.0636
  874MOL0     H15342   3.143   2.492   1.991 -2.0216  4.2297 -0.0378
  874MOL0     H15343   2.980   2.485   1.944  1.2411 -1.3292 -1.6944
  874MOL0     H15344   3.140   2.257   2.032 -0.7618  0.2270  2.0690
  874MOL0     H15345   3.022   2.273   1.897 -1.9909 -1.6759  0.5361
  874MOL0     H15346   2.985   2.123   2.102  3.2303  0.5228 -3.3884
  874MOL0     H15347   2.921   2.260   2.177 -1.5982 -1.2644  0.7734
  874MOL0     H15348   2.772   2.303   1.986 -2.3286  0.1443 -0.1474
  874MOL0     H15349   2.743   2.149   2.078  3.0102  1.0170  2.4493
  874MOL0     H15350   3.221   3.004   2.481 -0.9096  2.1378  5.0565
  874MOL0     H15351   3.340   3.118   2.641 -2.8794 -2.6744  1.2404
  874MOL0     H15352   3.572   3.481   2.826 -0.3948  1.5876 -2.3921
  874MOL0     H15353   3.761   3.622   2.924 -1.4813 -0.0659  0.0169
  874MOL0     H15354   5.129   3.038   4.076  1.2215  0.6276  3.8290
  874MOL0     H15355   5.310   3.008   4.226  0.5922  2.0132 -0.4909
  874MOL0     H15356   5.668   3.003   4.344  1.2025 -0.5916 -0.8949
  874MOL0     H15357   5.809   3.038   4.534  0.3853 -0.1664  2.6536
  874MOL0     H15358   5.879   2.764   4.881 -0.6633  0.4353  2.5961
  874MOL0     H15359   5.774   2.906   4.844  0.1748  0.9945 -0.6226
  874MOL0     H15360   5.974   3.048   4.827  4.4738  0.9156  0.2371
  874MOL0     H15361   5.940   2.979   4.991 -1.2073  0.3215 -0.5890
  874MOL0     H15362   6.141   2.871   4.792 -0.3344  0.4395 -0.7421
  874MOL0     H15363   6.101   2.810   4.963 -1.5002  3.0646  2.0700
  874MOL0     H15364   6.183   3.055   5.019 -0.5446 -0.2271  1.3269
  874MOL0     H15365   6.297   2.921   4.979 -0.3025 -2.0713 -1.4037
  874MOL0     H15366   6.359   3.197   4.657  1.6054 -2.4208  0.1864
  874MOL0     H15367   5.759   2.618   4.637 -0.9318  0.3353  0.2867
  874MOL0     H15368   5.580   2.603   4.455 -1.5484  1.7500 -2.6792
  875MOL0     O15369   8.618   2.502   3.057  0.4369  0.3076  0.3085
  875MOL0     C15370   8.596   2.399   2.996 -0.9533  0.3743 -0.5274
  875MOL0     O15371   8.608   2.375   2.855  0.6798  0.2296 -1.1507
  875MOL0     C15372   8.639   2.484   2.777  0.1845 -0.2919  0.7083
  875MOL0     C15373   8.570   2.501   2.651 -0.0243  0.3600  0.0133
  875MOL0     C15374   8.578   2.609   2.569 -0.3012 -0.2028  1.0622
  875MOL0     C15375   8.701   2.688   2.581 -0.0231  0.4498 -0.8029
  875MOL0     O15376   8.721   2.787   2.488  0.6432  1.0844  0.5875
  875MOL0     C15377   8.661   2.784   2.355  0.6103 -1.0683  0.0432
  875MOL0     C15378   8.744   2.884   2.265 -0.4348  0.0118  1.1822
  875MOL0     C15379   8.896   2.861   2.274  0.5586  0.0586  0.3766
  875MOL0     C15380   8.962   2.970   2.180  0.5418 -0.2588 -1.4255
  875MOL0     C15381   9.113   2.961   2.185 -0.4735  0.1512  0.3617
  875MOL0     C15382   9.186   2.821   2.184  0.4285 -0.6380  0.5181
  875MOL0     C15383   9.340   2.827   2.206 -0.2743 -0.6728 -0.6813
  875MOL0     C15384   9.398   2.701   2.266 -0.0316 -0.7383 -0.1283
  875MOL0     N15385   9.385   2.585   2.179  0.2602  0.8206  0.0664
  875MOL0     C15386   9.452   2.573   2.058  0.3056  0.8790 -0.5914
  875MOL0     C15387   9.408   2.447   2.013 -0.5280 -0.4399 -0.1793
  875MOL0     C15388   9.442   2.383   1.885 -0.6358  0.2755  0.3494
  875MOL0     C15389   9.320   2.372   1.802  0.2067 -0.1969  0.6151
  875MOL0     C15390   9.336   2.303   1.662  0.0944 -0.4258  0.8128
  875MOL0     C15391   9.430   2.388   1.568  0.2339 -0.2155  0.1814
  875MOL0     O15392   9.364   2.405   1.436 -0.2207  0.2336  0.8507
  875MOL0     C15393   9.404   2.492   1.343 -0.8112  0.1648 -0.5404
  875MOL0     C15394   9.334   2.510   1.236 -0.0670 -0.3560 -0.1153
  875MOL0     C15395   9.370   2.613   1.141  0.2067  0.2160  1.3495
  875MOL0     C15396   9.479   2.703   1.175 -0.2326 -0.0779 -0.0916
  875MOL0     C15397   9.505   2.827   1.087  0.2889 -0.4609 -0.3089
  875MOL0     O15398   9.410   2.843   0.983 -0.5008  0.6872  0.2417
  875MOL0     C15399   9.416   2.940   0.885 -0.6991  0.0206  0.7044
  875MOL0     C15400   9.309   2.970   0.805  0.1048 -0.3717  0.0314
  875MOL0     C15401   9.330   3.062   0.699  0.4039  0.6596 -0.2188
  875MOL0     C15402   9.445   3.142   0.676 -0.3995  0.5224 -0.0642
  875MOL0     O15403   9.435   3.224   0.564  0.3615 -0.3462  0.2176
  875MOL0     C15404   9.540   3.282   0.506 -1.0668  0.1775  0.5622
  875MOL0     C15405   9.586   3.410   0.580  1.1039 -0.4288  0.2799
  875MOL0     C15406   9.689   3.492   0.497  0.7929  0.0343  0.3645
  875MOL0     C15407   9.818   3.418   0.444  1.8739 -0.2240 -0.3743
  875MOL0     C15408   9.920   3.510   0.374 -0.1502  0.2775  0.3318
  875MOL0     C15409   9.889   3.511   0.222 -0.1483 -0.3969 -0.1799
  875MOL0     C15410  10.016   3.557   0.141  0.5216 -0.6057 -0.4587
  875MOL0     C15411  10.012   3.584  -0.013  0.2654 -0.5343  0.6857
  875MOL0    Cl15412  10.142   3.681  -0.077 -0.2774 -0.3124 -0.2042
  875MOL0     C15413   9.552   3.106   0.758 -0.5235 -0.5511 -0.5546
  875MOL0     C15414   9.541   3.004   0.856  1.5292 -0.2099  0.6551
  875MOL0     O15415   9.591   2.908   1.119 -0.1459  0.2582 -0.7553
  875MOL0     C15416   9.566   2.664   1.274  0.0589  0.2011 -0.6642
  875MOL0     C15417   9.529   2.553   1.358  0.8373  0.0964 -0.3775
  875MOL0     N15418   9.338   2.383   2.117 -0.1570  1.4610 -0.7504
  875MOL0     N15419   9.321   2.467   2.207  0.5169  0.0989  0.4358
  875MOL0     C15420   8.783   2.673   2.697 -0.2104  0.0701  0.1141
  875MOL0     C15421   8.745   2.576   2.796  0.0463 -0.6529  0.2808
  875MOL0     C15422   8.561   2.292   3.086  1.0047  0.2939  0.3098
  875MOL0     C15423   8.553   2.299   3.229 -0.0575  0.8598  0.4666
  875MOL0     C15424   8.495   2.204   3.317 -0.4392  0.7951  0.9595
  875MOL0     C15425   8.442   2.087   3.244  0.4251 -0.4120 -1.9601
  875MOL0     O15426   8.359   1.997   3.296 -0.2886  0.2544  0.2184
  875MOL0     C15427   8.344   1.987   3.440 -0.2435  0.3260 -1.2701
  875MOL0     C15428   8.216   2.076   3.488 -0.3576 -0.5062  0.1623
  875MOL0     C15429   8.089   2.029   3.431  0.2435  0.9503  0.1918
  875MOL0     C15430   8.044   1.879   3.474 -0.3283 -0.2454  0.4175
  875MOL0     C15431   7.942   1.841   3.380 -0.3557  0.1356 -0.7112
  875MOL0     C15432   7.856   1.799   3.308  0.1200 -0.1990 -0.4806
  875MOL0     C15433   8.458   2.076   3.111  0.1927  0.0449 -0.1424
  875MOL0     C15434   8.521   2.170   3.035  0.3813  0.1660 -0.0473
  875MOL0     H15435   8.487   2.432   2.647  0.5026 -0.2667 -0.1583
  875MOL0     H15436   8.506   2.614   2.488 -2.1582  1.9188  2.7086
  875MOL0     H15437   8.564   2.833   2.363  0.7360 -0.1592 -2.8517
  875MOL0     H15438   8.643   2.680   2.326 -2.7692 -2.1377  4.8194
  875MOL0     H15439   8.706   2.986   2.281 -0.3278  0.5928 -1.7742
  875MOL0     H15440   8.717   2.862   2.162 -0.1350  2.7567  0.4266
  875MOL0     H15441   8.920   2.758   2.248  1.4733  0.4209 -0.2476
  875MOL0     H15442   8.936   2.878   2.374  1.5341  0.7629 -0.1093
  875MOL0     H15443   8.914   2.957   2.083 -0.8346 -1.2332 -0.6674
  875MOL0     H15444   8.949   3.065   2.233  3.1170 -1.4330  1.7061
  875MOL0     H15445   9.142   2.993   2.286 -3.5937 -1.5591  1.9669
  875MOL0     H15446   9.148   3.027   2.105 -1.8627 -1.4199 -1.6323
  875MOL0     H15447   9.168   2.767   2.090 -0.0316 -0.8355  0.7161
  875MOL0     H15448   9.138   2.761   2.261 -0.7424  4.8431  4.7271
  875MOL0     H15449   9.393   2.865   2.118 -3.0760  2.3677 -1.2433
  875MOL0     H15450   9.362   2.910   2.273  2.0374  0.2764 -2.4610
  875MOL0     H15451   9.347   2.689   2.362 -0.6921  0.1250 -0.3613
  875MOL0     H15452   9.506   2.713   2.278 -0.2279  0.3713  0.6723
  875MOL0     H15453   9.508   2.647   2.001  0.8279  3.2416  2.7314
  875MOL0     H15454   9.478   2.281   1.901  1.5365  0.0246 -4.3533
  875MOL0     H15455   9.521   2.427   1.824  0.0681 -3.1586 -1.4921
  875MOL0     H15456   9.269   2.469   1.793 -1.2325 -0.8639  1.3344
  875MOL0     H15457   9.247   2.298   1.836 -0.5551 -1.0459 -2.5372
  875MOL0     H15458   9.397   2.213   1.677  0.7682  0.3241  2.9524
  875MOL0     H15459   9.243   2.272   1.614  0.9418  0.3326 -1.4423
  875MOL0     H15460   9.529   2.344   1.554 -0.0218 -1.2242  1.3587
  875MOL0     H15461   9.450   2.485   1.614  1.9636 -1.2748  1.7967
  875MOL0     H15462   9.245   2.450   1.216 -0.2143  0.2370 -1.3401
  875MOL0     H15463   9.305   2.623   1.055 -2.8240 -2.8488  3.0346
  875MOL0     H15464   9.221   2.912   0.833  0.0475 -0.5209 -0.4503
  875MOL0     H15465   9.241   3.059   0.637  1.1405  1.0637 -1.3236
  875MOL0     H15466   9.505   3.298   0.403 -1.2667  1.2861  0.7868
  875MOL0     H15467   9.627   3.216   0.511  1.1557  2.4209 -3.2393
  875MOL0     H15468   9.631   3.383   0.675  2.9647  1.1700 -0.0916
  875MOL0     H15469   9.497   3.470   0.599  2.6585  2.7193 -1.5830
  875MOL0     H15470   9.723   3.581   0.551  0.3265  0.5684 -0.2092
  875MOL0     H15471   9.643   3.520   0.402  3.0762 -1.8521 -1.4347
  875MOL0     H15472   9.868   3.378   0.533  0.1694 -0.9921  0.2901
  875MOL0     H15473   9.792   3.328   0.388  2.4931 -2.3814  2.5423
  875MOL0     H15474  10.019   3.472   0.399 -1.1350 -3.7204 -1.0745
  875MOL0     H15475   9.927   3.613   0.410 -0.5370  1.0466 -1.6444
  875MOL0     H15476   9.819   3.593   0.205  0.5286  0.1586 -0.3520
  875MOL0     H15477   9.846   3.418   0.183 -0.6075 -0.2280 -0.0792
  875MOL0     H15478  10.052   3.645   0.194  1.2371 -1.5142  0.5957
  875MOL0     H15479  10.088   3.477   0.158  2.2265  0.3879 -2.5793
  875MOL0     H15480   9.915   3.631  -0.030 -0.6682 -0.7404  4.5962
  875MOL0     H15481  10.012   3.488  -0.066 -2.3362 -0.8761  1.1530
  875MOL0     H15482   9.647   3.157   0.746  0.8167 -2.7260  0.4285
  875MOL0     H15483   9.634   2.985   0.909  1.4667 -1.0085  0.4988
  875MOL0     H15484   9.659   2.717   1.291  1.6376 -2.5053 -0.3342
  875MOL0     H15485   9.599   2.524   1.435  2.2437  1.7043 -0.9590
  875MOL0     H15486   8.868   2.740   2.703  0.0381 -0.2843  0.6976
  875MOL0     H15487   8.810   2.561   2.882 -1.1229  2.9295  1.9552
  875MOL0     H15488   8.568   2.390   3.285 -1.9941  0.8846  1.0228
  875MOL0     H15489   8.490   2.226   3.423  0.0398  2.0455  0.7356
  875MOL0     H15490   8.431   2.017   3.498 -2.2050 -1.3149  2.9522
  875MOL0     H15491   8.327   1.884   3.471  1.5203  0.7826  1.5655
  875MOL0     H15492   8.216   2.065   3.597  3.4766  0.0185  0.3525
  875MOL0     H15493   8.229   2.177   3.450  0.4035 -0.2054  1.1560
  875MOL0     H15494   8.090   2.043   3.322 -1.2185  2.2882  0.2994
  875MOL0     H15495   8.014   2.100   3.470  0.2385  1.5587 -0.8680
  875MOL0     H15496   8.130   1.812   3.469 -2.3369 -3.0111  0.0623
  875MOL0     H15497   8.012   1.897   3.577  0.0457  2.3159  0.1557
  875MOL0     H15498   7.772   1.759   3.257 -0.5540 -0.9389  1.1429
  875MOL0     H15499   8.413   1.983   3.078  0.3773 -0.2191  0.3349
  875MOL0     H15500   8.548   2.152   2.932  0.6295  1.2594 -0.1840
  876MOL0     O15501   3.356   9.151   8.754  1.4322 -0.3569 -0.3433
  876MOL0     C15502   3.350   9.056   8.831 -0.2936  0.4199  0.0664
  876MOL0     O15503   3.302   8.930   8.800 -0.1808 -1.5365 -0.4673
  876MOL0     C15504   3.281   8.886   8.673 -0.3271  0.2828  0.4271
  876MOL0     C15505   3.168   8.816   8.648 -0.0384  0.3805  0.0949
  876MOL0     C15506   3.148   8.762   8.520  0.6575  0.6079  0.0212
  876MOL0     C15507   3.235   8.783   8.419 -0.1846  0.3729 -0.1831
  876MOL0     O15508   3.187   8.754   8.296  0.5209  0.2488 -0.0440
  876MOL0     C15509   3.274   8.759   8.187 -0.3928 -0.2095 -0.5862
  876MOL0     C15510   3.208   8.725   8.055 -0.7289  0.0014 -0.1763
  876MOL0     C15511   3.124   8.592   8.053  0.3186  0.2085  0.4569
  876MOL0     C15512   3.097   8.564   7.905  0.7787 -0.1595 -0.0844
  876MOL0     C15513   2.965   8.639   7.854  0.5897 -0.5193 -0.6558
  876MOL0     C15514   2.930   8.598   7.707  0.3923  0.5083 -0.9370
  876MOL0     C15515   3.001   8.669   7.595  0.1347 -0.2289  0.5157
  876MOL0     C15516   2.940   8.615   7.464  0.5675  0.4465  1.0028
  876MOL0     N15517   3.009   8.654   7.342  0.8486  0.2483 -1.0516
  876MOL0     C15518   2.943   8.733   7.249 -0.2183 -0.1839 -0.4215
  876MOL0     C15519   3.047   8.762   7.162 -0.7381  0.4514 -1.2318
  876MOL0     C15520   3.006   8.860   7.058 -0.4197 -0.1548  0.2524
  876MOL0     C15521   3.028   9.014   7.104 -0.9335 -0.7191  0.1668
  876MOL0     C15522   3.181   9.049   7.091 -0.6432 -0.8121  0.5175
  876MOL0     C15523   3.206   9.208   7.086 -0.9125  0.4241  0.1162
  876MOL0     O15524   3.207   9.254   7.225  1.0016 -0.1541  0.4546
  876MOL0     C15525   3.209   9.390   7.256  0.6653 -0.6696 -0.7594
  876MOL0     C15526   3.262   9.418   7.387 -1.6587 -0.2615  0.8201
  876MOL0     C15527   3.269   9.555   7.430  0.0480  0.7651 -0.3008
  876MOL0     C15528   3.213   9.661   7.352 -0.2654 -0.1066 -0.3857
  876MOL0     C15529   3.197   9.796   7.405 -0.1797 -0.2608 -0.0723
  876MOL0     O15530   3.191   9.889   7.300 -0.4326  0.6338  0.5674
  876MOL0     C15531   3.185  10.025   7.323  0.2847 -0.2771  0.3117
  876MOL0     C15532   3.199  10.095   7.450  0.1176  0.5862  0.5687
  876MOL0     C15533   3.189  10.239   7.460 -0.1322 -0.1895 -0.3576
  876MOL0     C15534   3.163  10.310   7.341 -0.1000  0.9246  0.3256
  876MOL0     O15535   3.166  10.445   7.360 -0.2425  0.1607  0.3831
  876MOL0     C15536   3.142  10.541   7.255  0.9865  0.8402  0.3093
  876MOL0     C15537   3.096  10.674   7.327 -0.6586  1.1818 -0.0307
  876MOL0     C15538   3.047  10.784   7.237 -0.0654  0.4133 -0.2326
  876MOL0     C15539   3.158  10.865   7.171 -0.1587 -1.4871  0.1482
  876MOL0     C15540   3.102  10.989   7.083 -0.8348  0.8641  0.1075
  876MOL0     C15541   2.973  11.053   7.138  0.0825 -0.2563  0.7698
  876MOL0     C15542   2.920  11.157   7.039 -0.0064 -0.3773 -1.0606
  876MOL0     C15543   2.771  11.197   7.075 -0.9167 -0.6867  0.2386
  876MOL0    Cl15544   2.727  11.346   6.981 -0.3526 -0.0652  0.2084
  876MOL0     C15545   3.141  10.238   7.223 -0.5390  0.0584  0.2254
  876MOL0     C15546   3.144  10.097   7.215  0.1040  0.0693  0.3134
  876MOL0     O15547   3.171   9.819   7.523  0.2229  0.1272 -0.3028
  876MOL0     C15548   3.164   9.621   7.223 -0.2452  0.9169 -0.6098
  876MOL0     C15549   3.153   9.490   7.178  0.1875  1.0931 -0.2901
  876MOL0     N15550   3.169   8.709   7.212  0.0624 -0.3541 -0.3317
  876MOL0     N15551   3.137   8.642   7.318 -0.3969 -0.0723 -1.1252
  876MOL0     C15552   3.350   8.854   8.440  1.2850  0.3981 -0.5292
  876MOL0     C15553   3.375   8.904   8.567  0.1702 -0.4813 -0.0610
  876MOL0     C15554   3.404   9.077   8.966 -0.6394 -0.3681  0.1166
  876MOL0     C15555   3.421   8.968   9.059 -0.9432  0.2626  0.9239
  876MOL0     C15556   3.461   9.002   9.191  0.8902  0.7535 -0.8320
  876MOL0     C15557   3.524   9.116   9.224  0.6617 -0.2599 -1.0429
  876MOL0     O15558   3.557   9.156   9.355  0.3642 -0.0571 -1.0463
  876MOL0     C15559   3.601   9.053   9.438 -1.9038 -0.9470  0.0907
  876MOL0     C15560   3.689   9.126   9.546  0.5368  0.5842 -0.0111
  876MOL0     C15561   3.605   9.203   9.654  0.2173 -0.0766  0.1097
  876MOL0     C15562   3.689   9.232   9.775 -1.3198 -0.4033  0.4274
  876MOL0     C15563   3.761   9.364   9.764  0.5770  1.0942 -0.5178
  876MOL0     C15564   3.804   9.478   9.777 -0.1461  0.6508 -0.2507
  876MOL0     C15565   3.509   9.223   9.135  0.0871 -0.3166 -0.1854
  876MOL0     C15566   3.455   9.203   9.007 -0.0024 -0.6343 -0.1548
  876MOL0     H15567   3.092   8.804   8.724  1.2980 -3.8464  0.9627
  876MOL0     H15568   3.050   8.720   8.500  0.0206  2.3101 -0.6263
  876MOL0     H15569   3.361   8.693   8.194  0.4955  1.0035  0.0923
  876MOL0     H15570   3.322   8.857   8.178 -1.1153  0.3318  1.1281
  876MOL0     H15571   3.291   8.716   7.984 -0.5471  0.0599  0.0306
  876MOL0     H15572   3.136   8.804   8.033  0.3783  0.6622 -1.6297
  876MOL0     H15573   3.024   8.610   8.096 -1.5297 -0.7739 -3.0242
  876MOL0     H15574   3.172   8.510   8.107 -0.4557 -2.0250 -2.0168
  876MOL0     H15575   3.188   8.578   7.847  0.9094 -2.0205 -0.4129
  876MOL0     H15576   3.084   8.455   7.896 -2.2918  0.3019 -4.6914
  876MOL0     H15577   2.982   8.747   7.853  0.3395 -0.3132  2.9802
  876MOL0     H15578   2.885   8.626   7.927 -0.7861  3.7537 -1.1353
  876MOL0     H15579   2.822   8.616   7.701  0.5789  2.3976  0.2211
  876MOL0     H15580   2.953   8.492   7.710 -1.2524  0.1338  1.6316
  876MOL0     H15581   2.991   8.778   7.604  1.0602 -0.1851  1.1082
  876MOL0     H15582   3.107   8.653   7.614  0.1431  2.6851  4.2117
  876MOL0     H15583   2.843   8.666   7.463  1.1667  1.7361 -1.8481
  876MOL0     H15584   2.921   8.508   7.465  1.3971  0.2965  1.5611
  876MOL0     H15585   2.838   8.760   7.253  0.6088  4.0233 -2.1228
  876MOL0     H15586   2.897   8.848   7.052 -0.3509 -0.2833 -0.8869
  876MOL0     H15587   3.056   8.828   6.966  3.7591 -3.7589  3.3617
  876MOL0     H15588   3.003   9.036   7.208  0.6371 -0.8301  0.6053
  876MOL0     H15589   2.974   9.076   7.032 -2.0968 -3.2077 -1.2485
  876MOL0     H15590   3.244   9.006   7.170  2.0157 -1.8188 -1.9680
  876MOL0     H15591   3.205   9.010   6.992 -2.2550 -0.6817  0.0468
  876MOL0     H15592   3.129   9.257   7.025  0.9938  0.2979 -2.5583
  876MOL0     H15593   3.304   9.231   7.042 -0.0847 -0.7004  1.2841
  876MOL0     H15594   3.311   9.351   7.455  1.1257 -0.9062 -1.6309
  876MOL0     H15595   3.296   9.585   7.531 -2.5464  2.9578 -0.1260
  876MOL0     H15596   3.215  10.049   7.547 -0.6038  1.0251  0.9033
  876MOL0     H15597   3.196  10.288   7.556 -1.3460 -2.1796  0.8243
  876MOL0     H15598   3.064  10.512   7.183  0.2625 -1.1362  1.8041
  876MOL0     H15599   3.237  10.569   7.208  0.3167  2.0609 -0.3500
  876MOL0     H15600   3.165  10.701   7.408 -0.8229 -1.5350  1.1342
  876MOL0     H15601   3.015  10.646   7.395  0.6194 -2.0920  0.3283
  876MOL0     H15602   2.989  10.850   7.302  0.3887  2.5108 -1.8721
  876MOL0     H15603   2.986  10.744   7.155 -0.3577  3.1994 -1.4890
  876MOL0     H15604   3.225  10.909   7.246  0.9576  0.8584 -2.0764
  876MOL0     H15605   3.213  10.806   7.098 -0.5156  0.7092 -2.0253
  876MOL0     H15606   3.077  10.948   6.985  4.3593  0.1507 -1.2264
  876MOL0     H15607   3.178  11.059   7.046 -3.0994  1.6077 -3.6328
  876MOL0     H15608   3.014  11.097   7.229  3.0202 -2.3710  0.6238
  876MOL0     H15609   2.895  10.982   7.167 -1.1851  1.2411  1.1664
  876MOL0     H15610   2.986  11.244   7.030 -1.2010  0.8567  1.1163
  876MOL0     H15611   2.913  11.109   6.941 -3.1811 -2.4504  0.0382
  876MOL0     H15612   2.762  11.206   7.183  0.5508  2.2852  0.2205
  876MOL0     H15613   2.694  11.124   7.050 -1.1064 -0.0043 -1.3399
  876MOL0     H15614   3.121  10.287   7.129  2.0843 -1.3307 -1.1763
  876MOL0     H15615   3.131  10.043   7.122 -0.3794  1.3862 -0.4115
  876MOL0     H15616   3.128   9.697   7.154 -2.7893 -0.0520 -0.4626
  876MOL0     H15617   3.117   9.460   7.080  0.4438 -2.1049  0.4928
  876MOL0     H15618   3.419   8.887   8.363  2.0017 -1.3114 -0.6568
  876MOL0     H15619   3.465   8.964   8.575  1.0752 -1.9602  1.4606
  876MOL0     H15620   3.393   8.868   9.028 -2.1531  1.5959 -2.7374
  876MOL0     H15621   3.443   8.925   9.265 -1.1548  0.4317 -1.5964
  876MOL0     H15622   3.665   8.983   9.384 -2.2244 -3.2918  2.5481
  876MOL0     H15623   3.518   8.995   9.479 -3.1085 -2.1261 -3.6010
  876MOL0     H15624   3.746   9.050   9.601  0.1243 -0.7396 -1.3477
  876MOL0     H15625   3.759   9.187   9.487 -0.2675  1.1614 -0.3827
  876MOL0     H15626   3.534   9.130   9.695  0.5407 -0.2709  0.3416
  876MOL0     H15627   3.562   9.298   9.623  0.4043  0.1185  0.4422
  876MOL0     H15628   3.625   9.222   9.863 -1.4466  2.1383  0.6923
  876MOL0     H15629   3.756   9.148   9.797 -0.8314  0.5256  2.8082
  876MOL0     H15630   3.836   9.580   9.779 -2.8629  1.5851 -0.9711
  876MOL0     H15631   3.535   9.328   9.149 -1.2035  0.7190 -4.1851
  876MOL0     H15632   3.457   9.293   8.946 -3.4835 -0.8356 -0.7444
  877MOL0     O15633   3.347  10.991  10.513 -0.0267 -0.6485  0.6919
  877MOL0     C15634   3.411  11.092  10.560 -0.1233 -0.8307 -0.1808
  877MOL0     O15635   3.499  11.167  10.496 -0.4058 -0.0505 -0.5657
  877MOL0     C15636   3.531  11.139  10.363 -0.0227 -0.7288  0.4656
  877MOL0     C15637   3.444  11.110  10.247  0.0714 -0.3402 -0.7814
  877MOL0     C15638   3.503  11.084  10.115  0.6172  1.0551 -0.2912
  877MOL0     C15639   3.644  11.079  10.106  0.3655 -0.3033  0.2340
  877MOL0     O15640   3.707  11.027   9.995  0.0261  0.0024 -0.2256
  877MOL0     C15641   3.635  11.022   9.865 -0.4328  0.7889 -0.3451
  877MOL0     C15642   3.752  11.000   9.770  0.3251  0.0823  0.3850
  877MOL0     C15643   3.701  10.953   9.630 -0.0704 -0.6511  0.1079
  877MOL0     C15644   3.810  10.950   9.520  0.1434 -0.2713  0.2224
  877MOL0     C15645   3.930  10.870   9.565  0.0792 -0.2679  0.0159
  877MOL0     C15646   4.050  10.861   9.463  0.0482  0.2633 -0.1645
  877MOL0     C15647   4.024  10.802   9.326  0.0205 -0.6059 -1.1084
  877MOL0     C15648   4.162  10.836   9.255  0.2558 -0.2967 -0.6545
  877MOL0     N15649   4.208  10.733   9.164 -0.2899 -0.6979  0.7314
  877MOL0     C15650   4.192  10.594   9.194 -0.3043 -0.2990  1.0685
  877MOL0     C15651   4.257  10.533   9.093 -0.3360  0.1061 -0.2276
  877MOL0     C15652   4.266  10.387   9.080 -0.7700  0.1317  0.1190
  877MOL0     C15653   4.145  10.337   9.015 -0.4477 -0.3193  0.5547
  877MOL0     C15654   4.176  10.212   8.930 -0.0422  0.4050  0.4611
  877MOL0     C15655   4.054  10.163   8.856  0.1191  0.1804  0.5698
  877MOL0     O15656   3.971  10.101   8.950  0.1460 -0.4529 -0.4797
  877MOL0     C15657   3.838  10.100   8.925 -0.3625  0.8363  0.3717
  877MOL0     C15658   3.782  10.106   8.799 -0.0447 -0.3262 -0.7785
  877MOL0     C15659   3.639  10.088   8.790  0.5604  0.5488 -0.3766
  877MOL0     C15660   3.556  10.079   8.907  0.2949 -0.1123  0.2284
  877MOL0     C15661   3.406  10.080   8.897 -0.5177  0.1936  0.5283
  877MOL0     O15662   3.352  10.085   8.769  0.4561  0.3006  0.1625
  877MOL0     C15663   3.216  10.094   8.741  0.2776 -0.4169  0.2813
  877MOL0     C15664   3.107  10.039   8.817 -1.4766 -0.1464 -0.3359
  877MOL0     C15665   2.976  10.063   8.776 -0.2046  0.3339  0.0261
  877MOL0     C15666   2.943  10.141   8.668  0.3681  0.6232  0.2633
  877MOL0     O15667   2.822  10.170   8.635  0.6672 -0.0026 -0.1332
  877MOL0     C15668   2.759  10.256   8.729 -0.2131 -0.6106 -0.1209
  877MOL0     C15669   2.619  10.310   8.677 -0.7111  1.0506  0.2768
  877MOL0     C15670   2.558  10.413   8.774 -0.6293 -0.7716  1.0812
  877MOL0     C15671   2.425  10.469   8.738 -0.5345 -0.2350 -0.9424
  877MOL0     C15672   2.360  10.568   8.835  0.3567  0.1419  0.6790
  877MOL0     C15673   2.361  10.502   8.979  0.6870  0.4136 -0.7369
  877MOL0     C15674   2.290  10.609   9.063  0.1552  0.7427  0.5034
  877MOL0     C15675   2.278  10.564   9.207  0.0746  1.3383 -0.1010
  877MOL0    Cl15676   2.139  10.447   9.222  0.2010  0.5307  0.2685
  877MOL0     C15677   3.045  10.200   8.587  0.1493 -0.6932 -0.1507
  877MOL0     C15678   3.175  10.168   8.633 -0.9004  1.2343 -0.2814
  877MOL0     O15679   3.349  10.089   9.001 -0.4669  0.9680  0.5484
  877MOL0     C15680   3.621  10.064   9.035  0.5603 -0.0628  0.2873
  877MOL0     C15681   3.758  10.078   9.035  0.6362  0.7172  0.0560
  877MOL0     N15682   4.329  10.619   9.011 -0.2154 -0.2954 -0.0463
  877MOL0     N15683   4.296  10.742   9.059  0.2790  1.5620  0.7455
  877MOL0     C15684   3.718  11.115  10.209 -1.0590  0.2392  0.2130
  877MOL0     C15685   3.670  11.143  10.334 -0.0987  0.3160  0.1071
  877MOL0     C15686   3.400  11.115  10.712  0.5461  0.7866 -1.4008
  877MOL0     C15687   3.453  11.229  10.776  1.0964  0.0679  0.8452
  877MOL0     C15688   3.455  11.241  10.910 -0.3588 -1.2470  0.2718
  877MOL0     C15689   3.424  11.141  10.996 -0.5468  1.0704  0.5988
  877MOL0     O15690   3.434  11.151  11.135 -0.6289 -0.1075 -0.3950
  877MOL0     C15691   3.443  11.280  11.195  0.2371 -0.2527 -0.6391
  877MOL0     C15692   3.303  11.339  11.212  0.5699  0.3028  0.0963
  877MOL0     C15693   3.208  11.251  11.294 -0.9378  1.0706  0.0410
  877MOL0     C15694   3.274  11.181  11.413  0.4977  0.4639  0.3050
  877MOL0     C15695   3.183  11.079  11.483  0.1776  0.0049  0.5484
  877MOL0     C15696   3.121  11.006  11.557  0.4250  0.0470 -0.1020
  877MOL0     C15697   3.375  11.019  10.942 -0.3165  0.2492  0.6855
  877MOL0     C15698   3.376  11.006  10.803  0.5007 -0.4747 -0.0372
  877MOL0     H15699   3.336  11.117  10.257  0.1885 -1.1392  1.4368
  877MOL0     H15700   3.435  11.073  10.031 -2.8346  3.9390  1.8143
  877MOL0     H15701   3.580  11.109   9.828  0.0143 -0.2293 -3.7719
  877MOL0     H15702   3.565  10.938   9.861 -0.8718  1.1838 -1.5566
  877MOL0     H15703   3.827  10.935   9.816  1.3233  0.7529 -0.2428
  877MOL0     H15704   3.804  11.096   9.764  1.4868 -0.5601 -0.4008
  877MOL0     H15705   3.616  11.017   9.604 -0.5561  0.0106  2.9820
  877MOL0     H15706   3.659  10.852   9.633 -2.0337  0.0985 -0.3574
  877MOL0     H15707   3.761  10.915   9.429  2.5028 -0.8932 -0.9078
  877MOL0     H15708   3.848  11.051   9.501 -1.1670  0.0402 -0.7906
  877MOL0     H15709   3.920  10.765   9.596  3.3727 -0.5807  0.3346
  877MOL0     H15710   3.973  10.912   9.656 -0.0638  1.6451 -0.7532
  877MOL0     H15711   4.118  10.799   9.522 -0.6028  2.8406  3.6512
  877MOL0     H15712   4.102  10.958   9.461  2.8471 -1.1523 -0.6919
  877MOL0     H15713   4.000  10.696   9.336 -1.5357 -0.0470  1.9339
  877MOL0     H15714   3.948  10.858   9.271  1.0936  0.2274 -1.7809
  877MOL0     H15715   4.244  10.873   9.316  0.5797  2.8936 -2.7974
  877MOL0     H15716   4.135  10.925   9.196  1.3836 -0.8014 -1.9880
  877MOL0     H15717   4.128  10.546   9.268 -2.5851 -0.7084 -1.0295
  877MOL0     H15718   4.286  10.348   9.180 -2.4335  1.9961  1.2571
  877MOL0     H15719   4.352  10.362   9.017 -0.0850 -0.2833  1.1850
  877MOL0     H15720   4.115  10.413   8.942 -3.9113 -2.4418 -0.4829
  877MOL0     H15721   4.067  10.326   9.091 -0.6122 -1.8528  0.2070
  877MOL0     H15722   4.235  10.242   8.843 -3.4260  1.6367 -1.5919
  877MOL0     H15723   4.221  10.133   8.991 -0.6763 -2.8110 -2.9110
  877MOL0     H15724   4.082  10.094   8.776 -3.3474  0.1403 -0.7977
  877MOL0     H15725   4.009  10.249   8.805  1.6588 -0.4451 -2.0760
  877MOL0     H15726   3.825  10.111   8.699  0.0104 -0.4182 -0.7600
  877MOL0     H15727   3.588  10.102   8.695  0.3397  2.0660 -0.0562
  877MOL0     H15728   3.130   9.988   8.910  0.6411  3.3635  1.2736
  877MOL0     H15729   2.900  10.026   8.844  3.5688  0.5974  4.9291
  877MOL0     H15730   2.833  10.335   8.746  4.2705 -3.4286 -4.1178
  877MOL0     H15731   2.733  10.197   8.818  0.2821 -0.1764  0.3196
  877MOL0     H15732   2.566  10.216   8.661 -0.7975  1.0817  0.3812
  877MOL0     H15733   2.625  10.357   8.578  2.5488 -1.1189 -0.7105
  877MOL0     H15734   2.634  10.491   8.764 -0.9705 -0.5874 -0.1821
  877MOL0     H15735   2.573  10.369   8.873  1.2395  1.0977  1.7084
  877MOL0     H15736   2.417  10.525   8.644  0.4485  0.3954 -0.6629
  877MOL0     H15737   2.356  10.384   8.727 -0.9924 -0.1655  1.0785
  877MOL0     H15738   2.256  10.578   8.802  1.3765  1.1642 -2.6703
  877MOL0     H15739   2.406  10.667   8.834  3.2164 -1.0142 -2.3776
  877MOL0     H15740   2.464  10.486   9.014  1.5159 -1.1594 -3.5934
  877MOL0     H15741   2.305  10.408   8.976 -3.7279  2.7402 -0.0471
  877MOL0     H15742   2.346  10.703   9.061  0.1437  0.7594 -1.3582
  877MOL0     H15743   2.197  10.638   9.013  1.0836  1.8942 -0.6399
  877MOL0     H15744   2.279  10.653   9.270  4.3796  3.5743 -2.8532
  877MOL0     H15745   2.369  10.512   9.238  0.8931  3.2152  0.8458
  877MOL0     H15746   3.031  10.264   8.501  1.5894  3.2348  2.2833
  877MOL0     H15747   3.266  10.191   8.578  0.1230 -1.1126  0.3069
  877MOL0     H15748   3.560  10.048   9.123 -1.3297  1.0864 -0.7220
  877MOL0     H15749   3.791  10.066   9.137 -2.3547 -0.3433  1.0102
  877MOL0     H15750   3.825  11.122  10.193 -0.7091  0.7267  2.5405
  877MOL0     H15751   3.750  11.165  10.404  0.5677 -0.3658 -0.4163
  877MOL0     H15752   3.486  11.311  10.712  0.3930  1.3402  2.0729
  877MOL0     H15753   3.503  11.329  10.952 -3.8817  0.4167  1.1768
  877MOL0     H15754   3.499  11.353  11.135 -0.2239 -0.8072 -1.7887
  877MOL0     H15755   3.492  11.279  11.292 -1.8008 -1.2892  0.4248
  877MOL0     H15756   3.291  11.440  11.252 -1.0608  0.2235 -0.1248
  877MOL0     H15757   3.255  11.344  11.114 -0.8839  0.0647  0.7649
  877MOL0     H15758   3.179  11.174  11.224  0.4932  1.6398 -1.2392
  877MOL0     H15759   3.125  11.316  11.325 -2.2799  0.4231 -1.9871
  877MOL0     H15760   3.356  11.116  11.382 -0.5723  0.3638 -2.6820
  877MOL0     H15761   3.303  11.258  11.485  4.2456 -1.3105  0.8918
  877MOL0     H15762   3.055  10.949  11.620 -1.0624  0.6586 -1.0486
  877MOL0     H15763   3.351  10.941  11.012  2.2088 -0.4484  0.8598
  877MOL0     H15764   3.353  10.904  10.775  1.0729 -1.1558  1.7959
  878MOL0     O15765   9.220   6.600   6.622 -0.0292  0.2686  0.6322
  878MOL0     C15766   9.147   6.692   6.581 -0.3537  0.6463 -0.5423
  878MOL0     O15767   9.011   6.700   6.597  1.0174  0.0620  1.0104
  878MOL0     C15768   8.928   6.592   6.612 -0.2112  0.4034  0.3805
  878MOL0     C15769   8.796   6.610   6.655  0.2673  0.2644 -0.6158
  878MOL0     C15770   8.718   6.498   6.689 -0.2721  0.7046 -0.8195
  878MOL0     C15771   8.752   6.368   6.653  0.2766  0.2495 -0.1041
  878MOL0     O15772   8.688   6.252   6.683  0.6730  0.5304 -0.3751
  878MOL0     C15773   8.577   6.250   6.781 -0.9775 -0.1875 -0.1284
  878MOL0     C15774   8.490   6.119   6.788  0.0465  0.4140  0.2924
  878MOL0     C15775   8.416   6.098   6.923  0.5325 -0.1227  0.0887
  878MOL0     C15776   8.335   5.969   6.914 -0.0337 -0.1306 -0.3564
  878MOL0     C15777   8.232   5.958   7.043  0.1918 -0.9947  1.2026
  878MOL0     C15778   8.137   5.839   7.050 -0.2487  0.2250 -0.2081
  878MOL0     C15779   8.076   5.804   7.189  0.2248 -0.6556 -1.2605
  878MOL0     C15780   7.943   5.889   7.200 -0.4419  0.6786  1.3971
  878MOL0     N15781   7.881   5.845   7.333  0.9245  0.6793  0.1605
  878MOL0     C15782   7.933   5.847   7.453 -0.5284 -0.6321 -1.1417
  878MOL0     C15783   7.823   5.831   7.538  0.7822 -0.9073  0.7348
  878MOL0     C15784   7.837   5.827   7.685 -0.4156  0.6882  0.1810
  878MOL0     C15785   7.710   5.807   7.768  0.2967  0.8214  0.2969
  878MOL0     C15786   7.643   5.937   7.809  0.2691 -1.0640  0.4749
  878MOL0     C15787   7.706   6.021   7.921 -0.8491  0.4310  0.1076
  878MOL0     O15788   7.724   5.958   8.051  0.1131 -0.1748 -0.3415
  878MOL0     C15789   7.613   5.947   8.127  0.8169 -0.8799  0.7288
  878MOL0     C15790   7.613   5.841   8.205 -0.0681  0.7205 -0.5339
  878MOL0     C15791   7.543   5.842   8.326  0.8858  0.3907 -0.2403
  878MOL0     C15792   7.449   5.951   8.354 -0.1712 -0.0964 -0.2414
  878MOL0     C15793   7.360   5.940   8.478 -0.2513 -0.5550  0.3083
  878MOL0     O15794   7.249   6.029   8.490  0.2720 -0.0543 -0.5134
  878MOL0     C15795   7.135   5.998   8.566  0.1165  0.1884 -0.1141
  878MOL0     C15796   7.055   6.086   8.640  0.0399 -0.2333  0.4984
  878MOL0     C15797   6.940   6.045   8.707  0.1305  0.0221  0.0928
  878MOL0     C15798   6.892   5.913   8.691  0.8310  0.0232  0.1570
  878MOL0     O15799   6.772   5.853   8.734 -0.2102  0.0897  0.2897
  878MOL0     C15800   6.708   5.896   8.850  0.0481  0.8321  0.6940
  878MOL0     C15801   6.627   5.780   8.907 -0.1680 -0.9769  0.6565
  878MOL0     C15802   6.486   5.777   8.858 -0.2605  0.0593  0.0179
  878MOL0     C15803   6.406   5.883   8.934 -0.0064  0.5358 -0.3358
  878MOL0     C15804   6.264   5.884   8.885 -0.8188  0.5239  1.2766
  878MOL0     C15805   6.248   5.964   8.751 -0.7479  0.9190 -0.5221
  878MOL0     C15806   6.227   6.108   8.765  0.0196  0.0655  0.1268
  878MOL0     C15807   6.089   6.142   8.714  0.2474 -0.2954  0.3101
  878MOL0    Cl15808   6.083   6.318   8.735 -0.1460 -0.5113 -0.4786
  878MOL0     C15809   6.967   5.821   8.616  0.1107  0.4356  0.2265
  878MOL0     C15810   7.087   5.870   8.556 -0.3636 -0.2694  0.1633
  878MOL0     O15811   7.377   5.838   8.544  0.1927  0.3226  0.2020
  878MOL0     C15812   7.440   6.052   8.259 -0.3003  1.0235  1.0484
  878MOL0     C15813   7.526   6.062   8.146 -1.3609 -0.2238 -0.9985
  878MOL0     N15814   7.714   5.794   7.468  0.0191  0.4183 -0.5517
  878MOL0     N15815   7.748   5.806   7.338  0.5700 -0.1639  0.5592
  878MOL0     C15816   8.878   6.363   6.589 -0.0050  0.4616 -0.1617
  878MOL0     C15817   8.967   6.463   6.580  1.0069 -0.4732  0.4983
  878MOL0     C15818   9.219   6.821   6.541  0.1153  0.8645 -0.5760
  878MOL0     C15819   9.137   6.935   6.532  0.1879  0.2857  1.1787
  878MOL0     C15820   9.198   7.058   6.485  0.0468 -1.0630  0.5797
  878MOL0     C15821   9.336   7.053   6.438 -0.0764 -0.0297 -0.7938
  878MOL0     O15822   9.420   7.165   6.416 -0.2033  0.1674  1.1593
  878MOL0     C15823   9.393   7.292   6.469  1.0247 -1.1964 -1.2232
  878MOL0     C15824   9.473   7.320   6.600  0.7626  0.2926 -0.1455
  878MOL0     C15825   9.413   7.255   6.728 -0.3476 -0.0427  1.0878
  878MOL0     C15826   9.284   7.337   6.775  0.6281 -0.4714  0.3200
  878MOL0     C15827   9.301   7.481   6.786 -0.5290  0.1091 -0.2333
  878MOL0     C15828   9.321   7.603   6.801 -0.2844  0.0751 -0.6203
  878MOL0     C15829   9.400   6.925   6.435  0.9469  0.4207 -0.4151
  878MOL0     C15830   9.346   6.811   6.496  0.6880  0.1256  0.4754
  878MOL0     H15831   8.745   6.704   6.671 -2.2738 -0.9570 -1.0739
  878MOL0     H15832   8.634   6.520   6.754 -1.7805 -1.3856 -1.9583
  878MOL0     H15833   8.510   6.335   6.763  0.0656  0.7955  0.4899
  878MOL0     H15834   8.635   6.257   6.873  0.3826 -4.1215 -0.5002
  878MOL0     H15835   8.545   6.034   6.747  1.2676  1.9978 -1.6212
  878MOL0     H15836   8.409   6.142   6.718 -0.9278  0.5419  1.4382
  878MOL0     H15837   8.359   6.187   6.952 -0.3466 -0.2752 -1.1231
  878MOL0     H15838   8.497   6.084   6.995 -0.7529  0.9729  1.8295
  878MOL0     H15839   8.270   5.970   6.825 -2.0285 -0.1823  1.0389
  878MOL0     H15840   8.408   5.888   6.905  1.5952  1.1095  1.1308
  878MOL0     H15841   8.167   6.046   7.043  0.0905 -1.0683  0.9423
  878MOL0     H15842   8.305   5.967   7.124  3.1519 -2.4763 -1.1027
  878MOL0     H15843   8.196   5.748   7.030  2.7584  1.6605  1.4548
  878MOL0     H15844   8.058   5.824   6.976  1.1784 -0.8343 -1.5919
  878MOL0     H15845   8.052   5.698   7.198  0.6601 -0.7172 -0.7981
  878MOL0     H15846   8.151   5.842   7.258 -0.4430  0.2071 -0.9985
  878MOL0     H15847   7.881   5.843   7.123  0.6890 -1.8841  1.9032
  878MOL0     H15848   7.964   5.997   7.197  0.7999  0.4287  0.0906
  878MOL0     H15849   8.040   5.854   7.473 -0.6833 -3.4519  1.3508
  878MOL0     H15850   7.887   5.914   7.727 -4.1404  4.0641 -1.6879
  878MOL0     H15851   7.906   5.748   7.715  2.6900  3.0877 -0.1667
  878MOL0     H15852   7.721   5.743   7.856  2.4144 -1.4503 -1.4609
  878MOL0     H15853   7.656   5.738   7.702 -0.7732 -0.0858  2.0328
  878MOL0     H15854   7.644   6.005   7.724  2.6884  1.6245  2.4725
  878MOL0     H15855   7.539   5.915   7.836  0.1321 -1.8446 -0.6336
  878MOL0     H15856   7.651   6.116   7.925 -1.2129  0.2233  0.1241
  878MOL0     H15857   7.804   6.055   7.887 -1.9311  0.9117 -2.8019
  878MOL0     H15858   7.677   5.759   8.175  1.9941  1.8591  0.4972
  878MOL0     H15859   7.551   5.755   8.390  3.2816 -0.3785 -1.4507
  878MOL0     H15860   7.085   6.189   8.653 -2.1151  0.4104  0.6749
  878MOL0     H15861   6.894   6.110   8.781  0.0905 -1.3699  1.3244
  878MOL0     H15862   6.657   5.991   8.832 -1.8336 -0.8653 -5.1758
  878MOL0     H15863   6.796   5.908   8.913  2.9298 -0.9253 -2.6354
  878MOL0     H15864   6.626   5.783   9.016 -0.3759 -1.5587  0.6756
  878MOL0     H15865   6.686   5.690   8.884  3.0744  0.8145  1.4216
  878MOL0     H15866   6.443   5.682   8.891 -0.3847  0.0555 -0.1542
  878MOL0     H15867   6.498   5.808   8.754  1.8990  2.9648  1.0121
  878MOL0     H15868   6.403   5.853   9.039  1.1166 -0.2353 -0.5078
  878MOL0     H15869   6.445   5.985   8.934 -1.9509  1.3221  0.2443
  878MOL0     H15870   6.191   5.934   8.948 -1.0889  3.0364 -0.8419
  878MOL0     H15871   6.217   5.787   8.870 -2.4406  1.2283  1.6355
  878MOL0     H15872   6.156   5.924   8.707 -2.5699  1.5364  2.4455
  878MOL0     H15873   6.334   5.938   8.689  0.8191  0.0945  1.8417
  878MOL0     H15874   6.235   6.136   8.870 -5.6970 -1.7389  1.3997
  878MOL0     H15875   6.303   6.160   8.706 -1.9803  3.4160  0.2664
  878MOL0     H15876   6.014   6.089   8.774  0.9330  0.2123  1.6761
  878MOL0     H15877   6.062   6.099   8.617 -0.1532 -2.0741  1.1635
  878MOL0     H15878   6.921   5.724   8.599  0.0533  0.0250  2.4653
  878MOL0     H15879   7.127   5.800   8.484  1.3098  0.3480  0.4318
  878MOL0     H15880   7.374   6.138   8.268  0.4147  1.8132 -0.7189
  878MOL0     H15881   7.511   6.151   8.085  0.1738  1.5591  1.0613
  878MOL0     H15882   8.915   6.274   6.539 -3.3131 -1.6758  0.8522
  878MOL0     H15883   9.057   6.434   6.527 -0.2062 -1.7308 -0.9820
  878MOL0     H15884   9.032   6.927   6.562  0.0150 -0.5739  0.3881
  878MOL0     H15885   9.154   7.156   6.469  0.1230 -1.4129 -2.2696
  878MOL0     H15886   9.285   7.310   6.481  1.2368 -0.6196  0.0471
  878MOL0     H15887   9.422   7.355   6.384 -1.3307  0.2518 -1.0529
  878MOL0     H15888   9.576   7.299   6.570  0.6327  3.0901 -3.1711
  878MOL0     H15889   9.480   7.429   6.602  0.2890  0.3208  2.2395
  878MOL0     H15890   9.496   7.258   6.800  1.1937  1.0458 -0.6553
  878MOL0     H15891   9.375   7.156   6.700 -0.6006  0.6317 -1.1001
  878MOL0     H15892   9.191   7.317   6.722 -0.6836  3.4676  0.7382
  878MOL0     H15893   9.261   7.311   6.879  0.4440 -1.2201  0.0939
  878MOL0     H15894   9.342   7.703   6.834  0.2858 -0.5639  1.0818
  878MOL0     H15895   9.505   6.923   6.411  0.8860  2.9801 -1.2525
  878MOL0     H15896   9.402   6.719   6.498 -0.7960 -0.8829 -1.3253
  879MOL0     O15897   9.614   7.177  10.898  0.2757  0.0192  0.1907
  879MOL0     C15898   9.613   7.057  10.894  0.0949  0.5054  0.2391
  879MOL0     O15899   9.549   6.976  10.809  0.2815 -0.0759 -0.2461
  879MOL0     C15900   9.491   7.040  10.705  1.0053  1.0923 -0.1740
  879MOL0     C15901   9.544   7.031  10.588  0.0052 -0.5716  0.1795
  879MOL0     C15902   9.503   7.106  10.485  0.2833 -0.9420 -0.2715
  879MOL0     C15903   9.391   7.199  10.508 -0.5913 -0.1602 -0.6547
  879MOL0     O15904   9.346   7.292  10.412 -0.1375 -0.4117  0.5455
  879MOL0     C15905   9.444   7.359  10.325  0.0655  0.3431  0.0210
  879MOL0     C15906   9.385   7.489  10.270  0.7197 -0.2808  0.6999
  879MOL0     C15907   9.459   7.566  10.160  0.7717  0.2043  1.2337
  879MOL0     C15908   9.591   7.617  10.227  1.0647 -0.4022  0.1229
  879MOL0     C15909   9.646   7.731  10.137  0.0067 -0.0381 -0.3871
  879MOL0     C15910   9.761   7.809  10.207  0.3949  0.0891 -0.3186
  879MOL0     C15911   9.704   7.897  10.315 -0.8605  0.4026 -0.9507
  879MOL0     C15912   9.595   7.989  10.274 -0.5490  0.2855 -1.1893
  879MOL0     N15913   9.473   7.948  10.352 -0.5004 -0.2438  0.0275
  879MOL0     C15914   9.450   7.970  10.486 -0.1516 -0.0692 -0.4873
  879MOL0     C15915   9.344   7.894  10.524 -0.2718 -0.6728  0.4048
  879MOL0     C15916   9.256   7.888  10.650 -0.7164 -0.3251 -0.1804
  879MOL0     C15917   9.283   7.762  10.734 -1.7184  0.3977 -0.6752
  879MOL0     C15918   9.309   7.632  10.653  0.1005 -0.1586  0.8517
  879MOL0     C15919   9.182   7.590  10.582 -0.8414 -0.5146  0.8817
  879MOL0     O15920   9.070   7.586  10.671 -0.4130 -0.1105 -0.1016
  879MOL0     C15921   9.022   7.461  10.715 -0.3564  0.4409  0.8495
  879MOL0     C15922   9.023   7.422  10.849 -0.8032 -0.0512 -0.2538
  879MOL0     C15923   8.992   7.298  10.883 -0.0531 -0.2189 -0.7822
  879MOL0     C15924   8.923   7.207  10.799  0.5715  0.0571 -0.9655
  879MOL0     C15925   8.871   7.084  10.864 -0.5463 -0.8952 -0.0168
  879MOL0     O15926   8.886   7.077  11.000  0.9753 -0.1917 -0.2416
  879MOL0     C15927   8.843   6.960  11.047 -0.5235  0.2913 -0.1119
  879MOL0     C15928   8.752   6.957  11.149 -1.2348 -0.1021  0.2523
  879MOL0     C15929   8.706   6.837  11.210  0.7225  0.5954  1.3196
  879MOL0     C15930   8.743   6.711  11.161  0.3218  0.4494 -0.9884
  879MOL0     O15931   8.702   6.590  11.215  0.4011 -0.0577 -0.2632
  879MOL0     C15932   8.681   6.475  11.129  0.3885  0.2254 -0.1855
  879MOL0     C15933   8.533   6.472  11.084 -0.3619 -0.1619  0.4275
  879MOL0     C15934   8.472   6.338  11.072  0.4444  0.6766 -1.3010
  879MOL0     C15935   8.317   6.351  11.066  0.3864 -0.5812 -0.1923
  879MOL0     C15936   8.251   6.213  11.065  1.0503  0.3654 -0.2748
  879MOL0     C15937   8.107   6.225  11.109  0.2572  0.6118  0.0213
  879MOL0     C15938   8.035   6.082  11.135 -0.9569 -0.1358  0.4451
  879MOL0     C15939   7.897   6.100  11.197 -0.3930  0.8292 -0.6070
  879MOL0    Cl15940   7.792   6.155  11.063 -0.6276 -0.0536 -0.3430
  879MOL0     C15941   8.832   6.721  11.058 -0.3217 -0.1789  0.1554
  879MOL0     C15942   8.888   6.838  11.000 -0.1502 -0.4472 -0.4830
  879MOL0     O15943   8.811   7.014  10.789  0.1432  0.3836  0.3785
  879MOL0     C15944   8.920   7.240  10.662 -0.1598  0.9644 -0.3160
  879MOL0     C15945   8.974   7.361  10.620  0.6245 -0.7123 -0.1002
  879MOL0     N15946   9.298   7.833  10.409 -1.0366 -0.6595  0.4688
  879MOL0     N15947   9.378   7.863  10.309  0.2390 -0.0859  0.5378
  879MOL0     C15948   9.330   7.192  10.624 -0.1379  0.0279  0.1314
  879MOL0     C15949   9.373   7.108  10.727  0.0534  0.5109 -0.6374
  879MOL0     C15950   9.680   6.983  11.002 -0.3643  0.1545  0.0337
  879MOL0     C15951   9.720   7.040  11.126 -0.2859  0.4740  0.0326
  879MOL0     C15952   9.769   6.955  11.230  0.0451  0.1251  0.2830
  879MOL0     C15953   9.777   6.813  11.220  0.5940  0.3788 -0.1663
  879MOL0     O15954   9.830   6.738  11.325 -0.4572 -0.3727  0.3273
  879MOL0     C15955   9.830   6.597  11.333 -0.9523  0.5985  0.0186
  879MOL0     C15956   9.694   6.553  11.394 -0.1059 -0.2467 -0.1397
  879MOL0     C15957   9.645   6.414  11.322 -0.1103  1.0268  0.0359
  879MOL0     C15958   9.508   6.379  11.340 -0.6681  0.1471 -0.9156
  879MOL0     C15959   9.471   6.353  11.484 -0.6147 -1.0129 -0.5483
  879MOL0     C15960   9.457   6.317  11.604 -0.9535  0.3010 -0.4835
  879MOL0     C15961   9.734   6.763  11.101 -0.4826  1.1358 -0.1822
  879MOL0     C15962   9.684   6.842  11.000 -0.7647 -0.0330 -0.2747
  879MOL0     H15963   9.635   6.971  10.590  1.1038  1.0349  1.3351
  879MOL0     H15964   9.563   7.099  10.395  0.6404 -4.7133  0.1258
  879MOL0     H15965   9.466   7.295  10.239 -1.8142 -0.1160 -0.1639
  879MOL0     H15966   9.536   7.382  10.378 -0.1941  0.2503  0.5148
  879MOL0     H15967   9.355   7.554  10.352  1.3866  1.3695 -0.3160
  879MOL0     H15968   9.286   7.466  10.229  0.1076  4.8456 -1.3651
  879MOL0     H15969   9.398   7.650  10.126 -2.0057 -2.1488  0.0240
  879MOL0     H15970   9.474   7.497  10.076  0.1787 -0.2085  1.4613
  879MOL0     H15971   9.582   7.653  10.330  3.0241 -1.6490  0.7899
  879MOL0     H15972   9.666   7.537  10.226  1.9548  0.3785 -1.7309
  879MOL0     H15973   9.570   7.800  10.101 -1.2909 -0.7830  0.8226
  879MOL0     H15974   9.695   7.689  10.048 -1.1035 -1.2939 -0.4381
  879MOL0     H15975   9.805   7.871  10.128  2.2629  0.1121  0.6768
  879MOL0     H15976   9.846   7.749  10.242 -0.3693  0.8278  3.1856
  879MOL0     H15977   9.678   7.847  10.409 -0.3217  2.9454  0.6405
  879MOL0     H15978   9.791   7.953  10.351  0.7046 -2.3906 -0.0121
  879MOL0     H15979   9.575   7.984  10.166 -3.5310  1.8064 -0.8154
  879MOL0     H15980   9.622   8.090  10.307 -1.9531 -0.3796  2.5134
  879MOL0     H15981   9.508   8.038  10.549 -0.8909 -0.4469  0.6320
  879MOL0     H15982   9.148   7.904  10.643 -0.6103  1.2052  1.2177
  879MOL0     H15983   9.282   7.972  10.715 -1.7597 -0.4325  0.3884
  879MOL0     H15984   9.197   7.747  10.800  0.4660 -2.2417  1.8514
  879MOL0     H15985   9.370   7.779  10.797 -3.6029  2.3091  1.5766
  879MOL0     H15986   9.402   7.644  10.597  0.4704 -1.1810  1.2292
  879MOL0     H15987   9.333   7.550  10.721  1.2701  0.1234  0.8025
  879MOL0     H15988   9.193   7.488  10.543 -0.0303  0.2501 -1.0544
  879MOL0     H15989   9.180   7.648  10.489  2.9009 -0.1484  0.8794
  879MOL0     H15990   9.067   7.488  10.923  1.3470 -1.5738 -0.0884
  879MOL0     H15991   9.015   7.263  10.983 -2.1706 -1.2374 -0.5768
  879MOL0     H15992   8.727   7.056  11.187  0.3380  1.1815 -1.8288
  879MOL0     H15993   8.639   6.849  11.295 -0.7700 -0.7346  0.3690
  879MOL0     H15994   8.709   6.387  11.189  3.2479  0.2922 -1.2764
  879MOL0     H15995   8.745   6.483  11.041 -0.9504  0.2803 -1.1917
  879MOL0     H15996   8.518   6.521  10.987 -2.3609  3.2425  2.2441
  879MOL0     H15997   8.474   6.522  11.161 -0.1942  0.2512  0.2872
  879MOL0     H15998   8.493   6.283  11.164  0.3824 -0.2745 -1.8412
  879MOL0     H15999   8.501   6.288  10.979 -0.9167  0.0719 -1.4138
  879MOL0     H16000   8.266   6.400  11.150  2.0334 -0.9785  1.0853
  879MOL0     H16001   8.286   6.417  10.985 -0.1055  0.0601  0.5042
  879MOL0     H16002   8.308   6.158  11.141  3.4343  1.3915 -1.2173
  879MOL0     H16003   8.270   6.158  10.972  0.2400 -0.8650  0.2551
  879MOL0     H16004   8.041   6.277  11.039 -2.2036 -1.8576  0.3210
  879MOL0     H16005   8.112   6.286  11.199 -1.0376  0.5039  0.1825
  879MOL0     H16006   8.028   6.029  11.040 -2.0667 -0.6284  0.7852
  879MOL0     H16007   8.109   6.026  11.194  2.6061  0.5302 -2.9457
  879MOL0     H16008   7.910   6.182  11.267  1.3871 -0.7371  1.0317
  879MOL0     H16009   7.852   6.007  11.235 -2.8383  2.1771 -0.0423
  879MOL0     H16010   8.884   6.632  11.024  1.3561  1.8707 -3.2647
  879MOL0     H16011   8.964   6.821  10.925 -2.6524  2.0264 -3.8894
  879MOL0     H16012   8.867   7.174  10.594 -4.0748  2.3759  1.1032
  879MOL0     H16013   8.963   7.382  10.514  0.2249 -1.5797 -0.2345
  879MOL0     H16014   9.253   7.266  10.643 -0.9895 -0.6489 -0.5936
  879MOL0     H16015   9.325   7.133  10.821  2.6137 -0.0981  0.9324
  879MOL0     H16016   9.711   7.145  11.153 -0.1201  0.4554  0.1619
  879MOL0     H16017   9.777   6.999  11.329 -1.8118  1.1693  0.0221
  879MOL0     H16018   9.906   6.566  11.405 -2.6807 -0.9275  1.2803
  879MOL0     H16019   9.836   6.545  11.237 -1.5559 -1.2537  0.9362
  879MOL0     H16020   9.701   6.541  11.502  0.0937  1.5097  0.0704
  879MOL0     H16021   9.619   6.629  11.374 -0.6992  0.1789  3.2152
  879MOL0     H16022   9.702   6.329  11.358  0.9108  0.6649 -2.2720
  879MOL0     H16023   9.664   6.413  11.214 -0.0255 -4.3638 -0.1711
  879MOL0     H16024   9.437   6.451  11.298 -3.4092 -2.8992 -1.9483
  879MOL0     H16025   9.494   6.288  11.280 -0.3648  2.3080 -4.5290
  879MOL0     H16026   9.447   6.277  11.703  1.1466 -0.0798 -0.3596
  879MOL0     H16027   9.734   6.655  11.090 -0.6236  1.0635  0.4829
  879MOL0     H16028   9.662   6.786  10.909  1.6818 -0.3763 -0.7247
  880MOL0     O16029   5.936   6.586   7.891 -0.6225 -0.4058  0.5693
  880MOL0     C16030   5.821   6.561   7.863  1.3828 -0.0768 -0.8991
  880MOL0     O16031   5.784   6.450   7.799  0.4413 -0.1827 -0.0250
  880MOL0     C16032   5.878   6.363   7.759  0.7269  0.2381 -0.3588
  880MOL0     C16033   5.910   6.254   7.842  0.7814  0.1482 -0.3316
  880MOL0     C16034   6.001   6.157   7.811 -0.7540 -0.5929 -0.4831
  880MOL0     C16035   6.068   6.161   7.686  0.0260  0.6072 -0.5115
  880MOL0     O16036   6.143   6.051   7.651  0.1696 -0.3837 -0.2408
  880MOL0     C16037   6.251   6.067   7.554 -1.4475 -0.4697  0.7929
  880MOL0     C16038   6.365   5.963   7.558 -0.2203 -0.2848 -0.1609
  880MOL0     C16039   6.503   6.006   7.500 -0.1281  0.8188 -0.0967
  880MOL0     C16040   6.511   5.987   7.346 -0.0784  0.8307  0.4096
  880MOL0     C16041   6.650   6.014   7.299 -0.0847 -0.7238 -1.0343
  880MOL0     C16042   6.753   5.922   7.374 -0.2129 -0.9385  0.2710
  880MOL0     C16043   6.888   5.911   7.302 -0.3844  0.9707  0.4839
  880MOL0     C16044   6.864   5.807   7.185  0.0245 -0.3616  0.0956
  880MOL0     N16045   6.957   5.838   7.086 -0.3574 -0.2295  0.1052
  880MOL0     C16046   6.999   5.963   7.042 -0.1979  0.6270  0.2022
  880MOL0     C16047   7.107   5.936   6.963  0.2755 -1.2149  0.0299
  880MOL0     C16048   7.176   6.050   6.895 -0.9440 -0.1550  0.4472
  880MOL0     C16049   7.144   6.061   6.750 -0.4509  0.7997 -0.4094
  880MOL0     C16050   7.190   6.196   6.685  0.0816 -0.0394 -0.5118
  880MOL0     C16051   7.342   6.186   6.668  1.1559  0.5582 -0.5331
  880MOL0     O16052   7.414   6.221   6.784  0.0149  0.2143 -0.6891
  880MOL0     C16053   7.553   6.221   6.770  0.5867 -0.1743  0.3094
  880MOL0     C16054   7.638   6.199   6.656 -1.2104  0.3648 -0.9148
  880MOL0     C16055   7.774   6.226   6.661 -0.2086 -0.5140 -0.6283
  880MOL0     C16056   7.824   6.313   6.765  0.2685 -0.3062  0.0297
  880MOL0     C16057   7.962   6.366   6.758 -0.1036 -0.5024  0.6001
  880MOL0     O16058   7.990   6.479   6.839  0.6374  0.4520 -0.3244
  880MOL0     C16059   8.113   6.535   6.834 -0.3967  0.0472  0.3540
  880MOL0     C16060   8.144   6.650   6.767 -0.0888 -0.2715 -0.2880
  880MOL0     C16061   8.283   6.699   6.751  0.4141 -0.1461  0.0313
  880MOL0     C16062   8.379   6.644   6.831  0.3814 -0.0877 -1.0952
  880MOL0     O16063   8.504   6.699   6.851 -0.4627 -0.4691 -0.6669
  880MOL0     C16064   8.525   6.843   6.825  0.7364  1.1111 -0.0290
  880MOL0     C16065   8.651   6.890   6.904 -1.1089 -0.3256 -0.5105
  880MOL0     C16066   8.631   6.907   7.063 -0.1944  0.3278  0.0246
  880MOL0     C16067   8.756   6.958   7.134 -0.0756  0.5438 -0.1097
  880MOL0     C16068   8.758   6.940   7.286 -0.2615 -0.0657  0.7543
  880MOL0     C16069   8.679   7.044   7.368  0.0246 -0.7032 -0.1039
  880MOL0     C16070   8.657   7.007   7.511 -0.2167 -0.3455  0.2392
  880MOL0     C16071   8.560   7.111   7.577 -0.6580  0.5311 -0.1076
  880MOL0    Cl16072   8.635   7.273   7.585 -0.4610 -0.0850  0.1356
  880MOL0     C16073   8.341   6.535   6.912 -1.4906 -0.2144 -0.3258
  880MOL0     C16074   8.216   6.479   6.915  0.0929  0.8314 -0.4687
  880MOL0     O16075   8.042   6.298   6.693  0.1668 -0.2152 -0.4184
  880MOL0     C16076   7.747   6.342   6.876  0.3608  0.1230 -0.0342
  880MOL0     C16077   7.614   6.293   6.881  0.2048 -0.2124  0.1151
  880MOL0     N16078   7.141   5.808   6.972 -0.3577 -0.0801  0.1779
  880MOL0     N16079   7.050   5.750   7.033  0.0887 -0.4189  0.2385
  880MOL0     C16080   6.037   6.263   7.598  0.8730  0.8899  0.0224
  880MOL0     C16081   5.936   6.359   7.627 -0.3135  1.1679 -0.3466
  880MOL0     C16082   5.722   6.645   7.926  0.5616  0.3156  0.5972
  880MOL0     C16083   5.742   6.730   8.037  0.4938  0.5529  0.5918
  880MOL0     C16084   5.637   6.786   8.107  0.1422 -0.0440  0.4839
  880MOL0     C16085   5.506   6.772   8.056 -1.3017  0.4942  0.1530
  880MOL0     O16086   5.392   6.817   8.127  0.2620  0.2207 -1.4892
  880MOL0     C16087   5.326   6.713   8.194  0.9428  0.0473 -0.2699
  880MOL0     C16088   5.194   6.761   8.260 -0.9380  1.4136  0.1650
  880MOL0     C16089   5.224   6.904   8.310  0.1084  1.0785 -1.0893
  880MOL0     C16090   5.111   6.966   8.390 -0.2903  0.1948  0.1134
  880MOL0     C16091   5.082   6.919   8.521  0.7111 -0.0279  0.9372
  880MOL0     C16092   5.048   6.891   8.634 -0.4170 -0.1461 -0.1566
  880MOL0     C16093   5.487   6.691   7.943  0.7972 -0.0317 -0.2365
  880MOL0     C16094   5.587   6.624   7.874  0.4106  1.3066 -0.9311
  880MOL0     H16095   5.858   6.245   7.937  3.1806  0.9029  1.1469
  880MOL0     H16096   6.030   6.082   7.885 -0.4352  0.1056  0.1052
  880MOL0     H16097   6.294   6.166   7.572 -2.0256  0.1405 -0.9411
  880MOL0     H16098   6.196   6.067   7.459 -1.2297 -0.3418  0.6630
  880MOL0     H16099   6.330   5.866   7.522  1.3092 -0.5964 -0.9211
  880MOL0     H16100   6.386   5.942   7.663 -0.7686 -3.8016 -0.6371
  880MOL0     H16101   6.586   5.962   7.556 -1.5689  1.2976  2.5965
  880MOL0     H16102   6.512   6.112   7.522  1.1168  0.4544  1.3319
  880MOL0     H16103   6.477   5.887   7.318  2.5424 -0.5198  1.6653
  880MOL0     H16104   6.435   6.058   7.310 -4.3618 -1.9375  3.0330
  880MOL0     H16105   6.674   6.119   7.321 -0.8103 -0.5088 -1.2498
  880MOL0     H16106   6.659   6.007   7.191 -0.8859  1.2259 -1.2737
  880MOL0     H16107   6.723   5.818   7.390  1.3541 -1.5170 -0.3328
  880MOL0     H16108   6.778   5.971   7.469 -0.0242 -0.0156 -0.2431
  880MOL0     H16109   6.931   6.007   7.273  4.4419 -0.2363  2.6765
  880MOL0     H16110   6.967   5.865   7.362  0.5739 -1.1862 -2.2166
  880MOL0     H16111   6.764   5.792   7.142  1.0043 -3.2031 -1.4591
  880MOL0     H16112   6.892   5.708   7.223 -2.3617 -0.3860  2.0300
  880MOL0     H16113   6.961   6.065   7.048  1.1136  1.0814  1.4333
  880MOL0     H16114   7.284   6.038   6.907 -0.4124  1.2186 -2.0962
  880MOL0     H16115   7.162   6.139   6.956 -0.1325 -2.2939  4.0134
  880MOL0     H16116   7.036   6.051   6.735 -0.6894 -0.1320  1.6377
  880MOL0     H16117   7.189   5.970   6.709 -0.5510 -0.2108  1.6104
  880MOL0     H16118   7.148   6.229   6.590  1.4921  3.6506 -0.0084
  880MOL0     H16119   7.165   6.275   6.757  1.6883  0.8502 -0.8910
  880MOL0     H16120   7.369   6.257   6.590  0.0959 -0.5135 -1.9166
  880MOL0     H16121   7.371   6.084   6.641 -2.2508 -0.6246 -0.1467
  880MOL0     H16122   7.592   6.152   6.570 -1.7283  1.4587 -1.2468
  880MOL0     H16123   7.848   6.205   6.585  3.6656  0.5814  2.4936
  880MOL0     H16124   8.058   6.687   6.713 -0.6629  0.7983  1.2948
  880MOL0     H16125   8.301   6.787   6.691  0.2193  0.0468  0.2586
  880MOL0     H16126   8.436   6.896   6.860  0.1213 -0.7072  1.3306
  880MOL0     H16127   8.540   6.840   6.717 -1.0879 -0.1583 -0.2962
  880MOL0     H16128   8.674   6.991   6.868  3.4131 -0.7154  0.7227
  880MOL0     H16129   8.735   6.828   6.874 -1.9496 -2.2520  0.9258
  880MOL0     H16130   8.602   6.810   7.105 -3.1240  2.4733  3.5760
  880MOL0     H16131   8.545   6.973   7.080 -0.1736 -0.0734  1.8570
  880MOL0     H16132   8.842   6.911   7.088 -0.8722 -2.7646  1.4904
  880MOL0     H16133   8.763   7.064   7.109 -0.7392  0.6676  0.1987
  880MOL0     H16134   8.864   6.958   7.307  0.2486 -2.2703  0.2290
  880MOL0     H16135   8.750   6.837   7.321 -1.2200 -0.1812  0.2116
  880MOL0     H16136   8.577   7.052   7.330 -0.6425  2.3199  2.0027
  880MOL0     H16137   8.723   7.143   7.356  0.9824 -0.5670  3.3554
  880MOL0     H16138   8.601   6.913   7.519 -0.9141  0.0055 -0.3192
  880MOL0     H16139   8.757   6.984   7.548 -0.4174 -1.1631  0.2979
  880MOL0     H16140   8.540   7.074   7.678 -1.5553 -0.7321 -0.7091
  880MOL0     H16141   8.464   7.108   7.524 -1.2983  0.5644  1.0060
  880MOL0     H16142   8.425   6.486   6.961 -0.6079  3.1579  1.8769
  880MOL0     H16143   8.196   6.386   6.968 -0.6929  0.4893 -1.3359
  880MOL0     H16144   7.780   6.399   6.962 -0.7354  0.3564  0.2599
  880MOL0     H16145   7.554   6.320   6.968  1.5849 -0.1077  1.0563
  880MOL0     H16146   6.081   6.262   7.499 -1.3627 -2.4342 -1.0916
  880MOL0     H16147   5.925   6.452   7.571  2.4863  2.1451  0.5109
  880MOL0     H16148   5.843   6.750   8.073  1.3110 -1.0534 -0.6809
  880MOL0     H16149   5.652   6.843   8.198  0.3851 -0.0882  0.4721
  880MOL0     H16150   5.394   6.677   8.272 -1.0654 -6.0604 -0.7998
  880MOL0     H16151   5.304   6.641   8.115 -1.1060  2.3491 -1.9795
  880MOL0     H16152   5.123   6.762   8.177  0.4582  1.5132 -1.0599
  880MOL0     H16153   5.174   6.689   8.340  2.9235 -0.9041 -0.6719
  880MOL0     H16154   5.230   6.964   8.218 -1.6934 -0.6679 -2.4151
  880MOL0     H16155   5.320   6.913   8.361 -0.0688  0.0825 -0.5725
  880MOL0     H16156   5.126   7.074   8.382  2.1628 -0.0413  0.7062
  880MOL0     H16157   5.018   6.949   8.335 -1.3713 -2.3803  2.5118
  880MOL0     H16158   5.023   6.877   8.737  0.9224  0.2927  0.2398
  880MOL0     H16159   5.383   6.682   7.911  1.6053 -2.2498 -2.5924
  880MOL0     H16160   5.556   6.569   7.786 -0.3586 -2.4378  1.4706
  881MOL0     O16161   0.834  10.050   8.326  0.6341 -0.6766 -0.1601
  881MOL0     C16162   0.902  10.094   8.243 -0.4346 -0.7266 -0.1108
  881MOL0     O16163   0.978  10.201   8.255  0.0049  0.2923 -0.5581
  881MOL0     C16164   1.008  10.259   8.376  0.4341  0.3948 -0.2859
  881MOL0     C16165   0.998  10.187   8.503  0.0940 -0.0029 -0.0136
  881MOL0     C16166   1.045  10.258   8.614  0.9498 -0.5380 -0.4601
  881MOL0     C16167   1.082  10.394   8.619 -0.3314 -0.2894  1.3341
  881MOL0     O16168   1.094  10.463   8.728  0.3429 -0.1232 -0.6274
  881MOL0     C16169   1.017  10.430   8.846  1.1187  0.3590  0.8972
  881MOL0     C16170   0.881  10.493   8.826  0.1417 -0.3923 -0.0924
  881MOL0     C16171   0.866  10.625   8.886 -0.2333  0.1380 -0.0921
  881MOL0     C16172   0.743  10.706   8.836  0.3896  0.6268  0.5734
  881MOL0     C16173   0.702  10.825   8.925  1.5034  0.5745  1.0899
  881MOL0     C16174   0.780  10.951   8.890  0.5726 -0.2849  0.8254
  881MOL0     C16175   0.792  11.033   9.009  0.4084  0.7316  0.4727
  881MOL0     C16176   0.666  11.037   9.093  0.9777 -0.1023 -0.7543
  881MOL0     N16177   0.656  11.152   9.188  0.5841  0.9867 -0.6289
  881MOL0     C16178   0.536  11.207   9.223  0.4409 -0.3746 -0.1787
  881MOL0     C16179   0.567  11.286   9.326  0.2143 -0.3546 -0.7240
  881MOL0     C16180   0.474  11.363   9.431 -0.9125  0.0958 -1.1741
  881MOL0     C16181   0.386  11.467   9.378  0.6956  0.0477  0.7952
  881MOL0     C16182   0.280  11.502   9.487  0.3378  0.6623 -0.2313
  881MOL0     C16183   0.178  11.601   9.419  1.0383  0.1621  0.1475
  881MOL0     O16184   0.074  11.543   9.336 -0.6900 -0.1469  0.1917
  881MOL0     C16185  -0.054  11.539   9.398 -0.9801  0.1040 -0.0697
  881MOL0     C16186  -0.162  11.573   9.319 -0.2379  0.9016 -0.4648
  881MOL0     C16187  -0.287  11.562   9.379 -0.2089  0.3909 -0.4937
  881MOL0     C16188  -0.306  11.508   9.511  0.1609  0.2454  0.9686
  881MOL0     C16189  -0.438  11.517   9.568 -0.2109  0.3859 -0.0789
  881MOL0     O16190  -0.460  11.515   9.701  0.0893  0.3457 -0.4010
  881MOL0     C16191  -0.581  11.536   9.755  0.2030 -0.4251  0.8188
  881MOL0     C16192  -0.598  11.633   9.857 -0.5403 -0.1519 -0.1551
  881MOL0     C16193  -0.712  11.628   9.942 -0.0168 -0.1480  0.3997
  881MOL0     C16194  -0.807  11.537   9.919  0.1218  1.2612 -0.2743
  881MOL0     O16195  -0.914  11.510  10.006 -0.0450 -0.1378  1.0649
  881MOL0     C16196  -0.919  11.599  10.116  0.2766 -0.6707  0.5402
  881MOL0     C16197  -1.026  11.563  10.217  0.0095  0.0209 -0.3097
  881MOL0     C16198  -1.011  11.651  10.341  0.5279 -1.1814 -0.0417
  881MOL0     C16199  -1.144  11.621  10.411 -0.4214 -0.4649  0.6774
  881MOL0     C16200  -1.134  11.659  10.549  0.6549 -0.5647  0.2855
  881MOL0     C16201  -1.232  11.591  10.638 -0.1202 -1.0437  0.2502
  881MOL0     C16202  -1.209  11.624  10.781  0.4068  0.8454  0.1117
  881MOL0     C16203  -1.239  11.765  10.826  0.2572 -0.7157 -0.1682
  881MOL0    Cl16204  -1.416  11.789  10.821 -0.2233  0.4155  0.1207
  881MOL0     C16205  -0.806  11.460   9.797  0.3200  0.2171 -1.0753
  881MOL0     C16206  -0.693  11.464   9.717  0.5122 -0.4294 -0.7406
  881MOL0     O16207  -0.521  11.504   9.484 -0.6094  0.2438 -0.6081
  881MOL0     C16208  -0.191  11.487   9.596  0.0652  0.0758  0.2275
  881MOL0     C16209  -0.068  11.496   9.534  0.5926  0.5933 -0.1617
  881MOL0     N16210   0.702  11.289   9.342 -0.6077 -0.2458 -1.0239
  881MOL0     N16211   0.757  11.212   9.256  0.6048  0.0662  0.0610
  881MOL0     C16212   1.088  10.458   8.500  0.3764 -0.4280  0.2550
  881MOL0     C16213   1.042  10.398   8.380  0.2100  0.5938 -0.1883
  881MOL0     C16214   0.890  10.024   8.107 -0.2639 -0.5443 -0.2922
  881MOL0     C16215   0.877   9.885   8.111 -0.1371  0.3159  1.0241
  881MOL0     C16216   0.885   9.811   7.985  0.0856 -0.4549 -0.6452
  881MOL0     C16217   0.892   9.881   7.861  0.4122  0.6080 -0.0807
  881MOL0     O16218   0.854   9.799   7.746  0.1914 -0.2584 -0.0017
  881MOL0     C16219   0.749   9.826   7.661 -0.2699  0.8382  0.1610
  881MOL0     C16220   0.624   9.895   7.730 -0.2066  1.0048  0.0158
  881MOL0     C16221   0.563   9.790   7.831 -0.3043  0.4284  1.6192
  881MOL0     C16222   0.435   9.843   7.893  0.0878 -0.5094 -0.2124
  881MOL0     C16223   0.320   9.838   7.792 -0.1520 -0.8332 -0.2250
  881MOL0     C16224   0.226   9.864   7.722  0.4521 -0.2678  0.2303
  881MOL0     C16225   0.916  10.023   7.863 -0.9676  0.2489 -0.2438
  881MOL0     C16226   0.917  10.090   7.982  0.4498 -0.1168 -0.4417
  881MOL0     H16227   0.974  10.084   8.525 -2.0188  0.2354 -1.0114
  881MOL0     H16228   1.047  10.204   8.708 -1.3312  1.0083  0.5563
  881MOL0     H16229   1.073  10.467   8.933  1.4082  2.4024 -0.0922
  881MOL0     H16230   0.985  10.325   8.851 -3.7130  1.4909 -0.8692
  881MOL0     H16231   0.804  10.432   8.874 -1.7246  2.6623  1.1127
  881MOL0     H16232   0.859  10.485   8.719  4.6623 -1.5694 -1.1697
  881MOL0     H16233   0.957  10.681   8.864  1.6501 -0.9276  3.9572
  881MOL0     H16234   0.869  10.608   8.994 -2.1629 -0.2850 -0.0672
  881MOL0     H16235   0.773  10.746   8.738  0.2923 -1.4923 -0.3802
  881MOL0     H16236   0.661  10.635   8.828 -0.4605  1.6103  0.2942
  881MOL0     H16237   0.721  10.793   9.028 -0.2376  1.6142  1.7630
  881MOL0     H16238   0.597  10.840   8.900  1.0542 -2.3630  0.8566
  881MOL0     H16239   0.737  11.008   8.807  4.0478 -0.7588 -1.5220
  881MOL0     H16240   0.877  10.915   8.854  1.0825 -3.7142  4.8328
  881MOL0     H16241   0.859  10.973   9.071 -2.8905 -4.1050 -0.0917
  881MOL0     H16242   0.825  11.134   8.982  0.7650  0.5093  0.0763
  881MOL0     H16243   0.664  10.942   9.147  2.1796  0.4955  0.3976
  881MOL0     H16244   0.581  11.058   9.027  0.2428 -2.0687 -0.5136
  881MOL0     H16245   0.437  11.192   9.181 -0.9891  4.2564  1.0174
  881MOL0     H16246   0.533  11.398   9.516 -1.9502 -1.0047  0.0195
  881MOL0     H16247   0.413  11.282   9.471  0.9628  0.0513  1.8908
  881MOL0     H16248   0.350  11.444   9.277  1.8293 -0.1324  0.4086
  881MOL0     H16249   0.458  11.547   9.358 -0.5409  0.3406 -3.6672
  881MOL0     H16250   0.231  11.408   9.514  1.2198  0.2979  0.1238
  881MOL0     H16251   0.316  11.547   9.579  0.5181  1.8231 -0.8537
  881MOL0     H16252   0.237  11.670   9.358  1.3284 -0.2566 -0.0519
  881MOL0     H16253   0.135  11.667   9.495 -0.6521  0.8929 -1.3854
  881MOL0     H16254  -0.162  11.612   9.218 -0.9030  2.0981 -0.0164
  881MOL0     H16255  -0.376  11.583   9.319 -0.3652 -2.4800 -1.4524
  881MOL0     H16256  -0.517  11.692   9.898 -1.0744  0.4919 -0.0190
  881MOL0     H16257  -0.699  11.684  10.034 -0.2846 -3.0005  2.3108
  881MOL0     H16258  -0.941  11.701  10.083  0.0099 -0.5547  1.0800
  881MOL0     H16259  -0.822  11.600  10.167 -0.1912 -2.6616  1.5750
  881MOL0     H16260  -1.018  11.456  10.239  1.6406  0.5056  1.7129
  881MOL0     H16261  -1.119  11.586  10.164 -0.1510  1.6523  0.6269
  881MOL0     H16262  -1.001  11.758  10.324  2.5448 -1.2727  0.3584
  881MOL0     H16263  -0.913  11.632  10.386  1.5724  1.8883 -0.7775
  881MOL0     H16264  -1.224  11.676  10.361 -0.0536 -0.6509 -0.1215
  881MOL0     H16265  -1.142  11.512  10.418  4.4917 -0.4764  3.3427
  881MOL0     H16266  -1.144  11.768  10.557 -1.0085 -0.7497  1.0976
  881MOL0     H16267  -1.036  11.642  10.595 -0.1417 -0.2219  2.2056
  881MOL0     H16268  -1.212  11.485  10.625  1.0274 -1.3983  3.8084
  881MOL0     H16269  -1.333  11.611  10.602  1.5872  0.6986 -4.2940
  881MOL0     H16270  -1.277  11.558  10.837 -1.5151  1.3776 -1.4670
  881MOL0     H16271  -1.108  11.597  10.812  0.7462  0.3084 -1.4142
  881MOL0     H16272  -1.189  11.830  10.753 -1.3879  0.3454 -0.4205
  881MOL0     H16273  -1.199  11.791  10.924  1.6624  2.2632 -1.3976
  881MOL0     H16274  -0.891  11.399   9.770  1.7511 -0.1646 -5.4863
  881MOL0     H16275  -0.692  11.402   9.627  0.9644 -1.1602 -0.2417
  881MOL0     H16276  -0.201  11.461   9.701  1.9394 -2.7851 -0.1722
  881MOL0     H16277   0.019  11.485   9.597 -0.2280  2.3046  1.3245
  881MOL0     H16278   1.122  10.561   8.506 -2.9195  0.7060  3.3032
  881MOL0     H16279   1.034  10.468   8.297 -0.9570  0.7514  0.0412
  881MOL0     H16280   0.862   9.837   8.207 -0.6768  2.3023  1.9898
  881MOL0     H16281   0.884   9.703   7.997 -0.0053 -0.2574  1.5717
  881MOL0     H16282   0.697   9.747   7.606 -1.0767  0.5868  1.2618
  881MOL0     H16283   0.785   9.896   7.585  0.2026  0.4024 -0.0182
  881MOL0     H16284   0.637   9.988   7.785 -2.4189  0.4198  1.6361
  881MOL0     H16285   0.547   9.915   7.655 -0.2835  2.7368  0.5001
  881MOL0     H16286   0.638   9.767   7.907  0.1177 -1.5994  0.6575
  881MOL0     H16287   0.540   9.701   7.772 -0.6755  0.0150  2.3762
  881MOL0     H16288   0.401   9.772   7.969  2.6714  1.0917  2.7146
  881MOL0     H16289   0.468   9.937   7.940 -2.0629 -0.8476  2.1726
  881MOL0     H16290   0.136   9.888   7.670  0.1515 -0.9540  0.4222
  881MOL0     H16291   0.913  10.079   7.770  3.0891  0.6478 -0.3222
  881MOL0     H16292   0.939  10.195   7.967 -1.9170  0.1710 -2.4073
  882MOL0     O16293   0.038   6.638   7.367  0.0512 -0.3108  0.0546
  882MOL0     C16294   0.029   6.751   7.322  0.9605 -0.4587  0.7220
  882MOL0     O16295  -0.076   6.795   7.238 -0.1580 -0.2063 -0.7982
  882MOL0     C16296  -0.170   6.703   7.206  0.6754 -0.0400  0.1024
  882MOL0     C16297  -0.165   6.650   7.080  1.0066  0.1293  0.6326
  882MOL0     C16298  -0.277   6.577   7.027 -0.8026 -0.8284  0.2810
  882MOL0     C16299  -0.372   6.543   7.113 -0.1672  0.5013  0.2070
  882MOL0     O16300  -0.486   6.487   7.066  0.2210  0.2454  0.4565
  882MOL0     C16301  -0.612   6.531   7.109  0.5589 -0.1688 -0.3560
  882MOL0     C16302  -0.689   6.425   7.206  0.0865  0.6456 -0.1415
  882MOL0     C16303  -0.701   6.280   7.147 -0.0772 -0.2781 -0.7132
  882MOL0     C16304  -0.732   6.173   7.260 -0.5868 -0.5673  0.9042
  882MOL0     C16305  -0.876   6.142   7.287  0.3973  0.6714 -0.0077
  882MOL0     C16306  -0.918   6.220   7.400 -0.6838 -0.1835 -0.2829
  882MOL0     C16307  -1.062   6.256   7.394 -0.1436 -0.6315  0.0963
  882MOL0     C16308  -1.145   6.150   7.476  0.3022  0.7510  0.6752
  882MOL0     N16309  -1.260   6.204   7.548  0.2315  0.5223 -0.5030
  882MOL0     C16310  -1.254   6.281   7.659  0.8785  0.0480 -1.2169
  882MOL0     C16311  -1.376   6.340   7.677 -0.3823 -0.0440 -0.6347
  882MOL0     C16312  -1.426   6.419   7.795  0.5108  0.3788  1.3733
  882MOL0     C16313  -1.495   6.335   7.904 -1.1540  0.8417  0.7049
  882MOL0     C16314  -1.478   6.393   8.039 -0.2133  0.6235  0.2205
  882MOL0     C16315  -1.570   6.323   8.154 -0.6779  0.6145  0.2941
  882MOL0     O16316  -1.706   6.331   8.098 -0.3319  0.9230 -0.0550
  882MOL0     C16317  -1.811   6.348   8.185 -0.5306  0.2199 -0.3779
  882MOL0     C16318  -1.847   6.472   8.227 -0.8736 -0.2826 -0.0061
  882MOL0     C16319  -1.954   6.491   8.314  0.7133 -0.0793 -0.3897
  882MOL0     C16320  -2.026   6.383   8.371  0.5994  0.1253  0.2192
  882MOL0     C16321  -2.135   6.401   8.470  0.0163  0.3372  0.8762
  882MOL0     O16322  -2.248   6.337   8.454  0.2111 -0.1108  0.4708
  882MOL0     C16323  -2.272   6.274   8.337  0.5620 -0.0771 -0.4036
  882MOL0     C16324  -2.296   6.361   8.233  0.1406 -1.3092 -0.9715
  882MOL0     C16325  -2.351   6.306   8.116 -0.1867 -0.7574  0.7595
  882MOL0     C16326  -2.363   6.170   8.098  0.0525 -0.3070  0.2260
  882MOL0     O16327  -2.409   6.113   7.989  0.3643  0.3627  0.6961
  882MOL0     C16328  -2.433   6.186   7.867 -0.8609  0.0652 -0.4817
  882MOL0     C16329  -2.578   6.200   7.836  0.7328  0.3790 -0.3319
  882MOL0     C16330  -2.636   6.319   7.935  0.2764 -0.1863  0.7008
  882MOL0     C16331  -2.786   6.343   7.902 -0.6334  1.0929  0.1131
  882MOL0     C16332  -2.817   6.497   7.878 -0.7305 -0.3753 -0.4075
  882MOL0     C16333  -2.752   6.563   7.754  0.1820 -0.3265  0.8800
  882MOL0     C16334  -2.800   6.505   7.625 -0.2447  0.7135  0.2434
  882MOL0     C16335  -2.763   6.588   7.503  0.1043  0.1884 -0.5456
  882MOL0    Cl16336  -2.778   6.491   7.358 -0.1219 -0.1362 -0.4001
  882MOL0     C16337  -2.332   6.087   8.212 -0.6694 -0.3224  0.6993
  882MOL0     C16338  -2.285   6.137   8.327 -0.6718 -0.5866  0.0468
  882MOL0     O16339  -2.110   6.478   8.560  0.9376 -0.7491 -0.0238
  882MOL0     C16340  -1.981   6.256   8.341  0.3159  0.4905  0.5503
  882MOL0     C16341  -1.875   6.239   8.244  0.0907  0.3240  0.3170
  882MOL0     N16342  -1.450   6.300   7.572  0.3604 -0.1944  0.5557
  882MOL0     N16343  -1.387   6.202   7.509  0.0857  0.1638  1.0825
  882MOL0     C16344  -0.372   6.585   7.251 -0.5687 -0.3004  1.2538
  882MOL0     C16345  -0.273   6.673   7.293  0.1393 -1.0174  0.4548
  882MOL0     C16346   0.125   6.864   7.346 -0.1328 -0.6314  0.3874
  882MOL0     C16347   0.105   7.003   7.313 -0.6936 -0.2636 -0.4380
  882MOL0     C16348   0.204   7.100   7.354 -0.2469 -0.9336  1.3206
  882MOL0     C16349   0.322   7.060   7.410  0.2407 -0.7038 -1.0103
  882MOL0     O16350   0.419   7.148   7.441 -0.3751  0.8033  0.0506
  882MOL0     C16351   0.391   7.257   7.518 -0.1033  0.6780 -0.6040
  882MOL0     C16352   0.495   7.272   7.626  1.0048  0.3843  0.6183
  882MOL0     C16353   0.511   7.149   7.712 -0.1577 -0.2720 -0.2456
  882MOL0     C16354   0.587   7.175   7.842 -0.1999 -0.0823  0.2929
  882MOL0     C16355   0.517   7.135   7.959 -0.3811  0.8130  0.2296
  882MOL0     C16356   0.456   7.091   8.046  0.9279  1.5019  0.0528
  882MOL0     C16357   0.348   6.922   7.425  0.2009  1.0170 -0.4499
  882MOL0     C16358   0.246   6.831   7.404 -0.6353 -0.4686  1.2861
  882MOL0     H16359  -0.101   6.689   7.001 -0.6056  1.6739  0.0145
  882MOL0     H16360  -0.282   6.556   6.921  3.9129  2.7265 -1.0117
  882MOL0     H16361  -0.681   6.531   7.024 -0.4388 -1.4406  0.4143
  882MOL0     H16362  -0.614   6.630   7.155  4.2146 -0.3410  0.4831
  882MOL0     H16363  -0.786   6.460   7.241 -0.1121 -0.8203  0.8654
  882MOL0     H16364  -0.630   6.426   7.299 -2.1153  2.8433  1.3386
  882MOL0     H16365  -0.607   6.242   7.108 -1.2285 -2.0022 -1.9970
  882MOL0     H16366  -0.763   6.265   7.057  0.3612  0.6593 -1.1880
  882MOL0     H16367  -0.690   6.087   7.206  1.7569  1.9709 -1.6219
  882MOL0     H16368  -0.689   6.196   7.357 -1.6535 -1.3883  1.5993
  882MOL0     H16369  -0.887   6.034   7.305  0.3630  0.9711  1.9818
  882MOL0     H16370  -0.930   6.177   7.198 -1.0921  1.2507  1.0931
  882MOL0     H16371  -0.866   6.314   7.383  2.2147 -2.0014 -2.4118
  882MOL0     H16372  -0.882   6.187   7.498 -0.1272 -0.3370 -0.5381
  882MOL0     H16373  -1.075   6.360   7.425 -0.3034  0.3607 -3.0218
  882MOL0     H16374  -1.094   6.258   7.290  2.3084  2.7965 -0.7572
  882MOL0     H16375  -1.077   6.103   7.548  1.8130 -1.8212 -2.2136
  882MOL0     H16376  -1.188   6.082   7.402 -1.0610  1.9383  0.3232
  882MOL0     H16377  -1.174   6.287   7.732  1.7566 -0.6664 -2.1052
  882MOL0     H16378  -1.499   6.492   7.759 -1.4337 -1.6924  0.9249
  882MOL0     H16379  -1.344   6.482   7.833  1.0759 -0.0147  0.8326
  882MOL0     H16380  -1.446   6.238   7.909 -0.4884  1.2211  2.1554
  882MOL0     H16381  -1.602   6.324   7.888 -0.8490 -0.5221 -0.7153
  882MOL0     H16382  -1.374   6.385   8.072 -0.0687 -1.4340 -0.5617
  882MOL0     H16383  -1.510   6.496   8.022  3.0981  1.1602 -4.8163
  882MOL0     H16384  -1.569   6.379   8.248  0.1449 -0.1892  0.7897
  882MOL0     H16385  -1.542   6.219   8.177  1.6490  1.6326  2.6178
  882MOL0     H16386  -1.782   6.557   8.214 -1.5656  0.0977 -1.0825
  882MOL0     H16387  -1.968   6.584   8.369 -0.2828  0.6808 -1.8637
  882MOL0     H16388  -2.293   6.465   8.263  0.4913 -1.5774 -0.0280
  882MOL0     H16389  -2.399   6.371   8.044 -3.1983 -0.5752  2.7281
  882MOL0     H16390  -2.400   6.120   7.786 -1.7255 -0.9356 -0.0519
  882MOL0     H16391  -2.389   6.285   7.862  0.9149 -0.4982  2.1403
  882MOL0     H16392  -2.636   6.108   7.849  1.4502  0.1450  1.4633
  882MOL0     H16393  -2.580   6.238   7.733  3.0933  1.1639 -0.1353
  882MOL0     H16394  -2.575   6.407   7.910 -0.0135 -0.7400 -2.3691
  882MOL0     H16395  -2.629   6.287   8.039 -1.3111 -5.6369 -0.5346
  882MOL0     H16396  -2.823   6.288   7.815  3.4358 -1.2054 -0.4385
  882MOL0     H16397  -2.835   6.308   7.993 -1.7842  0.5656 -0.6838
  882MOL0     H16398  -2.778   6.554   7.964 -1.7986  0.0597 -0.2030
  882MOL0     H16399  -2.925   6.493   7.867 -0.7410 -0.4014 -0.3017
  882MOL0     H16400  -2.643   6.550   7.754  0.7341  2.9844 -1.1989
  882MOL0     H16401  -2.762   6.672   7.745 -0.5506 -0.4197  0.4974
  882MOL0     H16402  -2.739   6.414   7.616  1.9998  2.2330 -1.0214
  882MOL0     H16403  -2.906   6.481   7.616 -0.6969  2.1697  1.3597
  882MOL0     H16404  -2.660   6.623   7.506 -0.0490  1.0368 -3.0736
  882MOL0     H16405  -2.829   6.675   7.500 -0.2607 -0.0202  0.7055
  882MOL0     H16406  -2.343   5.980   8.198  0.4942 -0.5099  1.1338
  882MOL0     H16407  -2.250   6.077   8.412  1.6854 -0.4004 -0.7132
  882MOL0     H16408  -2.027   6.165   8.377  0.8704 -0.5852 -1.3045
  882MOL0     H16409  -1.854   6.140   8.203  0.1908 -1.0804  3.4898
  882MOL0     H16410  -0.454   6.545   7.309 -0.3914 -1.6043  0.6649
  882MOL0     H16411  -0.277   6.722   7.390  1.5424  0.1647 -0.0415
  882MOL0     H16412   0.008   7.033   7.274 -1.3002  1.3905  2.0954
  882MOL0     H16413   0.176   7.203   7.334 -1.2969 -1.2506  1.0999
  882MOL0     H16414   0.296   7.248   7.571 -0.7354 -0.6770 -1.8882
  882MOL0     H16415   0.408   7.345   7.457  1.3618 -0.8738 -2.5712
  882MOL0     H16416   0.594   7.302   7.590  2.1934 -0.4069  3.0238
  882MOL0     H16417   0.468   7.357   7.690  1.8662  0.7340  0.5333
  882MOL0     H16418   0.574   7.073   7.665  1.8513 -0.4535  2.5349
  882MOL0     H16419   0.413   7.101   7.724 -0.3669 -0.3709 -1.9875
  882MOL0     H16420   0.677   7.114   7.830 -0.1134 -0.1080  1.0414
  882MOL0     H16421   0.626   7.273   7.869 -0.4713 -0.1518  0.9729
  882MOL0     H16422   0.396   7.054   8.127 -1.4621  1.1234 -1.7761
  882MOL0     H16423   0.434   6.869   7.463 -0.6028  1.2882  1.8574
  882MOL0     H16424   0.271   6.727   7.418  3.2615 -0.5037 -3.4923
  883MOL0     O16425   0.398   9.053   5.225 -0.5353  0.0539 -0.2930
  883MOL0     C16426   0.361   9.167   5.191  0.0713  0.0191  1.2412
  883MOL0     O16427   0.236   9.207   5.135  0.0474 -0.6382 -0.3574
  883MOL0     C16428   0.157   9.102   5.097  0.3149  0.2322  0.6623
  883MOL0     C16429   0.042   9.073   5.180 -0.9122  0.1646 -0.0757
  883MOL0     C16430  -0.053   8.982   5.133  1.6382  0.3744  1.1972
  883MOL0     C16431  -0.022   8.896   5.028 -0.0552 -0.5719 -1.5552
  883MOL0     O16432  -0.108   8.804   4.989  0.3888  0.1614  0.2048
  883MOL0     C16433  -0.242   8.842   4.967  0.3000 -1.0784 -0.1781
  883MOL0     C16434  -0.275   8.960   4.864 -0.0941  0.3234  0.3004
  883MOL0     C16435  -0.227   8.942   4.724  0.3609 -0.0063  0.5275
  883MOL0     C16436  -0.324   8.895   4.621 -0.3152  1.1061 -0.4160
  883MOL0     C16437  -0.263   8.874   4.479  0.5628  1.1966  0.7595
  883MOL0     C16438  -0.370   8.824   4.381  0.0841 -0.3376  0.5277
  883MOL0     C16439  -0.464   8.941   4.334  0.0138 -0.2730  0.3099
  883MOL0     C16440  -0.564   8.909   4.222  0.3322  0.0113 -0.8188
  883MOL0     N16441  -0.506   8.892   4.091  0.5253 -0.3556  0.2066
  883MOL0     C16442  -0.521   8.778   4.012  0.1020 -0.6023 -0.1969
  883MOL0     C16443  -0.483   8.810   3.887 -0.3510  0.6594 -1.4458
  883MOL0     C16444  -0.480   8.695   3.787 -0.1410 -0.1612 -0.1532
  883MOL0     C16445  -0.348   8.630   3.808 -1.0118 -0.0402 -0.0096
  883MOL0     C16446  -0.297   8.562   3.678 -0.1550 -0.9280 -0.1228
  883MOL0     C16447  -0.214   8.639   3.576 -0.2128  0.1936  0.3406
  883MOL0     O16448  -0.288   8.754   3.516  0.7706  0.0359 -0.5310
  883MOL0     C16449  -0.238   8.879   3.505  0.3555  0.0746 -0.3460
  883MOL0     C16450  -0.142   8.928   3.588  0.0492 -0.4023  0.4251
  883MOL0     C16451  -0.086   9.061   3.571 -1.2815  0.2502  0.2593
  883MOL0     C16452  -0.137   9.141   3.473 -0.2721 -0.3036 -0.5687
  883MOL0     C16453  -0.088   9.279   3.445  0.0925 -0.7383 -0.4056
  883MOL0     O16454  -0.134   9.348   3.331 -0.1920  0.1543  0.0904
  883MOL0     C16455  -0.121   9.491   3.308  0.0627 -0.0879 -0.5095
  883MOL0     C16456  -0.203   9.530   3.201 -0.5570 -0.1686 -0.2638
  883MOL0     C16457  -0.213   9.668   3.164  0.7187  0.8280  0.0573
  883MOL0     C16458  -0.142   9.766   3.242 -0.0549  0.5347 -0.4486
  883MOL0     O16459  -0.156   9.901   3.236  0.0158 -0.4857 -0.6450
  883MOL0     C16460  -0.100   9.955   3.115  0.0469 -1.1573 -0.4423
  883MOL0     C16461  -0.023  10.078   3.140 -0.7523 -0.0082 -0.4495
  883MOL0     C16462   0.105  10.055   3.218 -0.0166  0.1847  0.3136
  883MOL0     C16463   0.182  10.190   3.244 -1.2234 -0.2758  1.2779
  883MOL0     C16464   0.280  10.215   3.126 -0.3691  1.0156 -0.1928
  883MOL0     C16465   0.330  10.363   3.130  0.0074 -1.3169 -0.4150
  883MOL0     C16466   0.369  10.411   2.993 -0.4705 -0.8099  0.4770
  883MOL0     C16467   0.465  10.532   2.986 -1.1841  0.2967  0.7440
  883MOL0    Cl16468   0.396  10.688   3.045 -0.5298 -0.2947  0.1345
  883MOL0     C16469  -0.070   9.722   3.344 -0.4618 -0.3964  0.0775
  883MOL0     C16470  -0.057   9.589   3.389  0.4160 -0.9945  0.1395
  883MOL0     O16471   0.003   9.328   3.522  0.7805  0.9524 -0.9336
  883MOL0     C16472  -0.246   9.089   3.394 -0.8444 -1.1662  1.7357
  883MOL0     C16473  -0.297   8.963   3.416 -0.4403 -0.5372 -0.3365
  883MOL0     N16474  -0.450   8.942   3.886  0.0371  0.3363  0.3957
  883MOL0     N16475  -0.464   8.986   4.005 -0.1125 -0.5226 -0.0844
  883MOL0     C16476   0.097   8.906   4.958 -0.6187 -0.0227 -0.6482
  883MOL0     C16477   0.187   9.015   4.987 -0.4356 -0.2013  0.4520
  883MOL0     C16478   0.453   9.271   5.212  1.1241  0.0397  0.5633
  883MOL0     C16479   0.425   9.395   5.147  0.4804  0.4382  0.0143
  883MOL0     C16480   0.518   9.499   5.150 -1.2670 -0.0275 -0.5961
  883MOL0     C16481   0.630   9.499   5.233  0.1157  0.4103  0.2761
  883MOL0     O16482   0.724   9.608   5.239 -0.4081  0.3312 -0.8062
  883MOL0     C16483   0.719   9.702   5.345  0.4843  0.7835 -0.1322
  883MOL0     C16484   0.630   9.820   5.300 -0.8837  0.2119  0.2434
  883MOL0     C16485   0.712   9.903   5.191  0.6087 -0.6335  0.3130
  883MOL0     C16486   0.760  10.046   5.238  0.8500  0.3557  0.2425
  883MOL0     C16487   0.802  10.133   5.120 -0.3127  0.3077 -0.2927
  883MOL0     C16488   0.827  10.189   5.016 -0.6437  0.6204  0.0720
  883MOL0     C16489   0.650   9.380   5.307  0.3721 -0.2011 -0.3918
  883MOL0     C16490   0.572   9.266   5.288 -0.8003  1.2534 -0.0773
  883MOL0     H16491   0.017   9.123   5.273 -1.4052  0.2514 -0.2472
  883MOL0     H16492  -0.147   8.975   5.186 -0.0305  2.9521 -1.1350
  883MOL0     H16493  -0.291   8.844   5.065 -0.2499 -1.6259 -0.4301
  883MOL0     H16494  -0.287   8.750   4.927 -1.2844 -0.4573  0.1126
  883MOL0     H16495  -0.247   9.059   4.901  2.9112 -0.2876 -0.0813
  883MOL0     H16496  -0.384   8.966   4.865 -0.1911  0.2370  3.8798
  883MOL0     H16497  -0.147   8.868   4.709 -0.7170 -0.9105 -1.0818
  883MOL0     H16498  -0.190   9.037   4.684 -0.9909 -1.2915 -4.5531
  883MOL0     H16499  -0.358   8.801   4.665  1.5403 -0.1693 -1.5494
  883MOL0     H16500  -0.407   8.967   4.620  2.4634  4.6305  0.4818
  883MOL0     H16501  -0.196   8.788   4.490 -1.9947 -0.6098  4.2334
  883MOL0     H16502  -0.209   8.956   4.431  1.5805 -1.8571 -3.9990
  883MOL0     H16503  -0.428   8.748   4.434  0.0303 -1.2714 -0.8146
  883MOL0     H16504  -0.320   8.782   4.293  0.6751  1.5743 -0.0966
  883MOL0     H16505  -0.527   8.966   4.420  1.2744 -2.6727  2.0428
  883MOL0     H16506  -0.416   9.038   4.314  0.9406 -0.1305  2.7968
  883MOL0     H16507  -0.623   9.001   4.226  0.8728  0.3312 -0.1138
  883MOL0     H16508  -0.625   8.823   4.252  0.3867 -0.8928 -3.1013
  883MOL0     H16509  -0.554   8.683   4.052  0.0510 -0.8865 -0.9040
  883MOL0     H16510  -0.481   8.729   3.683 -1.1496  0.7453  0.1322
  883MOL0     H16511  -0.550   8.612   3.802  0.1730 -0.2658  0.8129
  883MOL0     H16512  -0.352   8.562   3.893 -0.4829  1.8340  1.6061
  883MOL0     H16513  -0.280   8.711   3.836 -1.1272  0.8480 -2.1163
  883MOL0     H16514  -0.231   8.482   3.710  0.6925  0.3183  1.3866
  883MOL0     H16515  -0.381   8.513   3.627  1.0495 -2.5810 -0.5678
  883MOL0     H16516  -0.187   8.574   3.493  0.5428  1.4951 -0.4656
  883MOL0     H16517  -0.118   8.667   3.619 -1.1479  1.2099  1.9005
  883MOL0     H16518  -0.104   8.866   3.669 -1.7717 -1.9262  0.1830
  883MOL0     H16519  -0.006   9.096   3.635 -2.3189 -3.9839  4.5034
  883MOL0     H16520  -0.256   9.453   3.145 -2.7891  1.5424 -0.6373
  883MOL0     H16521  -0.275   9.686   3.076  1.0003 -1.1414 -0.6014
  883MOL0     H16522  -0.173   9.973   3.036  0.5502 -2.5788 -1.2706
  883MOL0     H16523  -0.033   9.875   3.081  1.0141  0.8962 -3.8844
  883MOL0     H16524  -0.094  10.144   3.190 -1.8370 -0.3584 -1.4893
  883MOL0     H16525   0.005  10.127   3.046 -0.3988 -0.2173 -0.4555
  883MOL0     H16526   0.169   9.981   3.169  0.6600  2.1659 -2.0224
  883MOL0     H16527   0.089  10.014   3.318  0.1126 -2.7368 -0.7723
  883MOL0     H16528   0.100  10.262   3.241  0.1918  1.4039 -1.3801
  883MOL0     H16529   0.237  10.196   3.338  3.5422 -0.3862 -1.2013
  883MOL0     H16530   0.229  10.186   3.034  2.8388  1.2417 -2.1921
  883MOL0     H16531   0.362  10.143   3.138 -0.8767  0.4087 -0.3006
  883MOL0     H16532   0.422  10.374   3.188  1.0337 -0.8513 -2.0892
  883MOL0     H16533   0.262  10.432   3.182  3.0348  0.6946  1.1911
  883MOL0     H16534   0.416  10.328   2.939 -0.7361 -0.1479 -0.8313
  883MOL0     H16535   0.279  10.449   2.943 -0.3033  1.8331  1.9818
  883MOL0     H16536   0.496  10.545   2.882 -1.1984 -0.3621  0.6531
  883MOL0     H16537   0.556  10.504   3.040 -0.3961 -1.3302 -1.3083
  883MOL0     H16538  -0.011   9.792   3.402  0.8414  1.2706 -3.0558
  883MOL0     H16539   0.023   9.562   3.457  2.7677 -1.9468 -2.7765
  883MOL0     H16540  -0.283   9.158   3.319  3.0859 -0.9465 -0.2600
  883MOL0     H16541  -0.386   8.941   3.357  0.6030 -0.7528 -1.8855
  883MOL0     H16542   0.111   8.848   4.868 -2.2199  0.3106 -1.1406
  883MOL0     H16543   0.254   9.029   4.903 -4.1739 -1.8689 -3.1516
  883MOL0     H16544   0.335   9.410   5.088 -0.8111  0.5223  1.9448
  883MOL0     H16545   0.515   9.598   5.105  0.9012  1.7677  2.8299
  883MOL0     H16546   0.822   9.726   5.372  0.2960  2.9269 -1.1611
  883MOL0     H16547   0.673   9.660   5.435  1.3476  3.1817  1.5325
  883MOL0     H16548   0.528   9.787   5.277 -1.4240  1.1026  1.2978
  883MOL0     H16549   0.613   9.879   5.390  0.2999  1.9133 -0.5881
  883MOL0     H16550   0.638   9.931   5.116  0.5725 -1.4077  0.0512
  883MOL0     H16551   0.792   9.840   5.150 -1.5269 -4.2356  1.2096
  883MOL0     H16552   0.675  10.104   5.272  0.3347  0.2541 -0.8257
  883MOL0     H16553   0.836  10.054   5.316  1.6436 -2.8993 -0.0122
  883MOL0     H16554   0.851  10.239   4.925  5.0414 -1.0074  0.2666
  883MOL0     H16555   0.738   9.363   5.368  0.1198 -0.2890 -0.0526
  883MOL0     H16556   0.593   9.173   5.340  0.9298  2.3367  1.2782
  884MOL0     O16557   0.357   2.716   2.616 -0.1501 -0.4115 -1.1861
  884MOL0     C16558   0.234   2.718   2.620  0.6423 -0.0972 -0.0664
  884MOL0     O16559   0.153   2.632   2.540 -0.1066  0.7015 -0.5070
  884MOL0     C16560   0.219   2.537   2.461 -0.4528  0.6249  0.2853
  884MOL0     C16561   0.249   2.407   2.504 -0.5972  0.3732 -0.4746
  884MOL0     C16562   0.289   2.314   2.408 -0.0883 -0.0500  0.0848
  884MOL0     C16563   0.272   2.338   2.270  0.5007  0.1611 -0.1934
  884MOL0     O16564   0.301   2.244   2.168  0.5047 -0.3274  0.1148
  884MOL0     C16565   0.246   2.111   2.183 -0.1711 -0.7275  0.2940
  884MOL0     C16566   0.275   2.031   2.049  0.4713  0.2422 -0.5411
  884MOL0     C16567   0.205   1.890   2.045 -0.3568  0.4442  0.4100
  884MOL0     C16568   0.243   1.797   2.168  0.0285 -0.1185  0.0886
  884MOL0     C16569   0.187   1.662   2.159  0.6322  0.3850 -0.5225
  884MOL0     C16570   0.201   1.604   2.017 -0.4801  0.3916 -0.9003
  884MOL0     C16571   0.160   1.465   2.018 -0.2600  0.2212  0.1633
  884MOL0     C16572   0.253   1.357   2.072  0.8997 -0.1434 -0.0739
  884MOL0     N16573   0.404   1.377   2.061 -0.1897  0.1347  0.2779
  884MOL0     C16574   0.507   1.415   2.148 -0.1934 -0.8223 -0.1075
  884MOL0     C16575   0.620   1.413   2.068  0.0574  0.6926 -0.2047
  884MOL0     C16576   0.755   1.452   2.110 -0.3239 -0.8300  0.3368
  884MOL0     C16577   0.753   1.606   2.137 -0.3819 -1.0248  0.0014
  884MOL0     C16578   0.749   1.706   2.016 -0.6870  0.6489  0.0458
  884MOL0     C16579   0.777   1.851   2.077  0.4334 -0.1059 -0.1412
  884MOL0     O16580   0.809   1.941   1.980  0.0002  0.7695 -0.0790
  884MOL0     C16581   0.831   2.071   2.008 -0.6505 -0.5429  0.4255
  884MOL0     C16582   0.957   2.118   2.035  0.3847 -0.3433  0.1928
  884MOL0     C16583   0.969   2.250   2.074  0.1579  0.1062  0.9479
  884MOL0     C16584   0.870   2.344   2.081 -0.0062 -0.8236 -0.8397
  884MOL0     C16585   0.896   2.489   2.118 -0.2048 -0.6753  0.5676
  884MOL0     O16586   0.800   2.578   2.080  0.6162  0.1541 -0.0109
  884MOL0     C16587   0.821   2.717   2.075 -0.5684 -0.4104  0.6901
  884MOL0     C16588   0.755   2.796   1.982  0.3537 -0.6407  1.0764
  884MOL0     C16589   0.770   2.939   1.990  0.8495  0.5146 -0.8167
  884MOL0     C16590   0.847   2.996   2.093  0.3110  0.7809  0.2257
  884MOL0     O16591   0.848   3.127   2.122 -0.0646  0.4451  0.4082
  884MOL0     C16592   0.739   3.217   2.068  0.1857 -0.5016 -0.5650
  884MOL0     C16593   0.755   3.356   2.126 -0.1007 -0.2513 -0.4171
  884MOL0     C16594   0.631   3.442   2.129 -0.0736  1.3691 -0.2508
  884MOL0     C16595   0.663   3.588   2.165  0.0589  0.1530  0.0234
  884MOL0     C16596   0.552   3.682   2.120  0.1024 -0.0510 -0.2082
  884MOL0     C16597   0.411   3.658   2.171 -0.0128  0.0989 -0.2271
  884MOL0     C16598   0.414   3.696   2.313 -0.0057 -0.4187  0.6428
  884MOL0     C16599   0.291   3.655   2.391  0.8989 -0.3924 -0.1766
  884MOL0    Cl16600   0.153   3.764   2.354 -0.4151 -0.5786 -0.2236
  884MOL0     C16601   0.905   2.913   2.185 -0.0254 -0.1966  0.6336
  884MOL0     C16602   0.892   2.776   2.182 -0.0390  0.4938  0.3194
  884MOL0     O16603   1.009   2.516   2.157 -0.3882  0.0113 -0.0880
  884MOL0     C16604   0.742   2.299   2.045  0.1515  0.1966  0.9921
  884MOL0     C16605   0.721   2.165   2.001 -0.0556 -0.7095  0.6618
  884MOL0     N16606   0.581   1.381   1.938  0.3601  0.4352  0.0741
  884MOL0     N16607   0.452   1.360   1.937  0.2856 -0.5694  0.4515
  884MOL0     C16608   0.243   2.473   2.235  0.0710  1.5555  0.5560
  884MOL0     C16609   0.204   2.565   2.326  0.1041 -0.7637 -0.7820
  884MOL0     C16610   0.180   2.826   2.708  0.5497  0.3058 -0.6519
  884MOL0     C16611   0.259   2.923   2.778 -0.2744  0.0670  0.7836
  884MOL0     C16612   0.207   3.023   2.856  0.4259  0.1142 -0.3957
  884MOL0     C16613   0.076   3.036   2.868 -0.1842 -0.8558 -0.0730
  884MOL0     O16614   0.024   3.141   2.936 -0.2455  0.9601 -0.6597
  884MOL0     C16615  -0.076   3.108   3.035  0.3951 -0.2711  0.8148
  884MOL0     C16616  -0.085   3.226   3.123 -0.0269 -0.1103  0.2600
  884MOL0     C16617  -0.206   3.206   3.222 -0.1404  0.3464  0.6952
  884MOL0     C16618  -0.221   3.308   3.337  0.0653  0.1489 -0.0159
  884MOL0     C16619  -0.296   3.429   3.287  0.4122 -0.3892  0.4521
  884MOL0     C16620  -0.352   3.527   3.250 -0.2823 -0.1947  0.7670
  884MOL0     C16621  -0.011   2.937   2.811  0.2443 -0.3067  0.1892
  884MOL0     C16622   0.039   2.829   2.730  0.0370 -0.2741 -0.8398
  884MOL0     H16623   0.252   2.380   2.609  0.1420 -3.8074 -1.3917
  884MOL0     H16624   0.317   2.216   2.443  0.7334 -0.2531 -1.1007
  884MOL0     H16625   0.137   2.121   2.186 -0.3675 -1.4534 -2.1657
  884MOL0     H16626   0.288   2.062   2.272 -2.3202 -0.5347  1.4750
  884MOL0     H16627   0.382   2.024   2.027 -0.0150 -0.3568 -3.1761
  884MOL0     H16628   0.243   2.094   1.965 -1.7353  2.0016  1.5109
  884MOL0     H16629   0.236   1.847   1.949  4.9522  0.6220  1.7546
  884MOL0     H16630   0.097   1.906   2.049 -0.0862  2.4601  0.4366
  884MOL0     H16631   0.352   1.792   2.165  0.0400  0.5013 -2.0433
  884MOL0     H16632   0.209   1.838   2.264 -4.3996  2.9675 -2.4682
  884MOL0     H16633   0.081   1.668   2.185  0.1573  4.3408 -2.4876
  884MOL0     H16634   0.242   1.599   2.230 -1.1063 -0.2237  0.3252
  884MOL0     H16635   0.298   1.621   1.968 -1.3114  2.4007 -1.9827
  884MOL0     H16636   0.134   1.660   1.951  0.8094 -0.5853 -3.1831
  884MOL0     H16637   0.069   1.447   2.076  0.2767  1.8787  1.6107
  884MOL0     H16638   0.135   1.435   1.916  0.3170 -0.0808  0.1029
  884MOL0     H16639   0.222   1.267   2.017 -0.7068 -1.2028  2.3618
  884MOL0     H16640   0.227   1.334   2.176 -1.5987  0.4086 -0.5033
  884MOL0     H16641   0.491   1.440   2.253  0.4537  3.4719 -0.8383
  884MOL0     H16642   0.827   1.419   2.035  1.6596 -0.4151  1.9976
  884MOL0     H16643   0.776   1.400   2.204 -2.6537  0.5265  1.7147
  884MOL0     H16644   0.836   1.633   2.202 -1.8996  2.4574  0.7022
  884MOL0     H16645   0.662   1.635   2.191 -0.7123 -1.4341 -0.3275
  884MOL0     H16646   0.810   1.673   1.932 -0.6309 -2.7470  1.2992
  884MOL0     H16647   0.641   1.696   1.999 -0.9276  0.2433  1.7069
  884MOL0     H16648   0.861   1.851   2.148  0.7681 -0.1056 -0.5315
  884MOL0     H16649   0.686   1.889   2.125  0.4584  2.5535 -1.9848
  884MOL0     H16650   1.040   2.048   2.034 -0.8202 -1.8108 -0.2625
  884MOL0     H16651   1.069   2.285   2.098  0.2603  0.1499  0.4716
  884MOL0     H16652   0.714   2.751   1.892  1.9117 -0.3617  0.2005
  884MOL0     H16653   0.735   3.007   1.912 -4.2690 -0.3721  0.3565
  884MOL0     H16654   0.639   3.183   2.098 -0.8585  1.9391 -1.0238
  884MOL0     H16655   0.744   3.236   1.961 -1.1572 -0.7193 -0.6906
  884MOL0     H16656   0.830   3.398   2.059  0.2874 -1.3564 -0.6954
  884MOL0     H16657   0.793   3.351   2.229  1.6678 -0.5065 -1.0601
  884MOL0     H16658   0.570   3.413   2.215  1.6144 -2.4397 -0.1409
  884MOL0     H16659   0.570   3.428   2.040  1.6723 -0.9726 -1.1805
  884MOL0     H16660   0.682   3.590   2.273 -0.1700  3.1810  0.0819
  884MOL0     H16661   0.758   3.615   2.120  1.7013  0.2689  3.2513
  884MOL0     H16662   0.561   3.667   2.012  4.7361 -0.6995  0.0598
  884MOL0     H16663   0.586   3.785   2.136 -0.8730  0.4029 -0.9609
  884MOL0     H16664   0.375   3.558   2.144 -0.3927  0.1670  0.0227
  884MOL0     H16665   0.350   3.737   2.126 -1.0591 -1.3766 -1.5107
  884MOL0     H16666   0.499   3.656   2.368  2.2199  0.0283 -2.2538
  884MOL0     H16667   0.419   3.805   2.324 -4.1907 -0.0685  0.8134
  884MOL0     H16668   0.312   3.653   2.498  1.0165 -0.0846 -0.1948
  884MOL0     H16669   0.257   3.554   2.364  4.3508 -2.8714  3.5538
  884MOL0     H16670   0.961   2.966   2.261  1.4131 -0.0058 -0.5024
  884MOL0     H16671   0.938   2.719   2.262 -1.1707 -0.0293  0.6207
  884MOL0     H16672   0.658   2.367   2.057  0.4705  0.6169  0.8472
  884MOL0     H16673   0.622   2.138   1.968  1.1410 -0.7101 -3.5285
  884MOL0     H16674   0.238   2.489   2.128  1.0911 -1.4194 -0.0361
  884MOL0     H16675   0.158   2.656   2.290  1.1862 -0.6905 -2.0322
  884MOL0     H16676   0.366   2.916   2.760 -0.6659 -2.9874 -1.1130
  884MOL0     H16677   0.271   3.097   2.904 -1.5647  2.6155 -1.3963
  884MOL0     H16678  -0.053   3.017   3.091  0.3969 -2.4548 -2.4521
  884MOL0     H16679  -0.172   3.089   2.986  0.8238  1.0918 -0.6555
  884MOL0     H16680   0.005   3.236   3.185  0.8050  3.5186 -1.3203
  884MOL0     H16681  -0.107   3.311   3.059 -0.0688 -1.6111 -1.8438
  884MOL0     H16682  -0.185   3.112   3.273  2.8230  2.8112  4.6813
  884MOL0     H16683  -0.303   3.212   3.173 -0.4151 -0.7883  1.0775
  884MOL0     H16684  -0.259   3.249   3.421 -0.1965 -0.4927 -0.5823
  884MOL0     H16685  -0.126   3.347   3.376  0.4026 -1.6727  1.0977
  884MOL0     H16686  -0.404   3.612   3.210 -1.1947 -1.1365 -0.0885
  884MOL0     H16687  -0.117   2.940   2.831  0.1072  1.5303 -0.5697
  884MOL0     H16688  -0.029   2.766   2.674 -0.2721 -0.6390 -0.0625
  885MOL0     O16689   9.939   4.886   8.082  0.0072  0.0484 -0.0361
  885MOL0     C16690  10.014   4.976   8.118 -0.3007 -0.7548  0.0059
  885MOL0     O16691  10.077   4.990   8.235 -0.1948 -0.1615 -0.0668
  885MOL0     C16692  10.051   4.901   8.339 -0.6035  0.0519  1.3649
  885MOL0     C16693  10.115   4.783   8.346  0.9742  0.1504  0.4294
  885MOL0     C16694  10.100   4.705   8.453  0.5428 -0.3117 -0.2203
  885MOL0     C16695   9.997   4.733   8.557 -0.2725 -0.2380  0.4349
  885MOL0     O16696   9.969   4.674   8.676 -0.0618 -0.0268  0.5986
  885MOL0     C16697  10.058   4.562   8.701  0.2725  0.4560  0.6850
  885MOL0     C16698  10.007   4.486   8.823  0.4354 -0.0194  0.0232
  885MOL0     C16699  10.104   4.363   8.844 -0.6010 -0.9363  0.1333
  885MOL0     C16700  10.073   4.287   8.972  0.7585  0.4877 -0.6567
  885MOL0     C16701  10.145   4.153   8.972 -0.1366  0.7711 -0.7038
  885MOL0     C16702  10.268   4.157   9.055 -0.2923  0.3734 -0.2016
  885MOL0     C16703  10.315   4.010   9.068 -0.4352 -0.3816  0.2160
  885MOL0     C16704  10.422   3.991   9.168  0.8989  0.1034  1.1516
  885MOL0     N16705  10.557   4.014   9.102  0.6975 -0.5434 -0.8159
  885MOL0     C16706  10.636   4.127   9.099 -0.5125 -0.1649 -0.3537
  885MOL0     C16707  10.735   4.089   9.008  0.1583  0.9281 -0.4230
  885MOL0     C16708  10.843   4.181   8.990 -0.3186 -0.0543  0.6062
  885MOL0     C16709  10.835   4.251   8.859 -0.6305  0.5282  0.5867
  885MOL0     C16710  10.934   4.360   8.838  0.3814  0.3434 -0.3923
  885MOL0     C16711  10.921   4.433   8.709  0.5699  0.4393  0.0025
  885MOL0     O16712  11.044   4.503   8.680  0.0341 -0.0785  0.8081
  885MOL0     C16713  11.078   4.616   8.748 -0.2211 -0.5823  0.1126
  885MOL0     C16714  10.983   4.690   8.835 -0.7603 -0.2927 -0.2265
  885MOL0     C16715  11.021   4.789   8.915  0.0310 -0.0282  0.2919
  885MOL0     C16716  11.156   4.824   8.926  0.7112 -0.4527 -0.5159
  885MOL0     C16717  11.202   4.929   9.017 -2.1893  0.6084  0.0558
  885MOL0     O16718  11.330   4.888   9.076  0.1548 -0.6967 -0.1678
  885MOL0     C16719  11.377   4.971   9.178 -0.3294  0.1313 -0.5792
  885MOL0     C16720  11.299   5.008   9.297  0.7117 -0.0975  0.0456
  885MOL0     C16721  11.363   5.072   9.405 -0.3733  0.4318 -0.0652
  885MOL0     C16722  11.499   5.093   9.403 -0.0109  0.3010 -0.0741
  885MOL0     O16723  11.547   5.138   9.517  0.3278 -0.0983 -0.2537
  885MOL0     C16724  11.669   5.227   9.507  0.3644  0.1763  0.4522
  885MOL0     C16725  11.643   5.365   9.432 -0.3309 -0.6729 -0.5357
  885MOL0     C16726  11.546   5.457   9.508 -0.4161  0.2183 -0.3597
  885MOL0     C16727  11.528   5.603   9.466 -0.0783 -0.4489 -0.2337
  885MOL0     C16728  11.428   5.678   9.547  0.0154 -1.3798  0.0026
  885MOL0     C16729  11.356   5.779   9.466  0.1938 -0.8475 -0.0533
  885MOL0     C16730  11.439   5.888   9.404 -1.0066  0.8220 -0.4743
  885MOL0     C16731  11.526   5.967   9.511  0.3091  0.5216  0.2256
  885MOL0    Cl16732  11.594   6.106   9.426 -0.2808 -0.3745 -0.6472
  885MOL0     C16733  11.574   5.068   9.288  0.7678 -0.7708  0.7833
  885MOL0     C16734  11.516   5.000   9.178 -0.5227 -0.4737 -0.0663
  885MOL0     O16735  11.132   5.035   9.026 -0.7752 -0.2212 -0.5171
  885MOL0     C16736  11.246   4.756   8.839 -0.0629 -0.5865 -0.1847
  885MOL0     C16737  11.219   4.644   8.762 -0.6327 -0.2420 -0.3287
  885MOL0     N16738  10.717   3.958   8.967 -0.2767  0.2712  0.7333
  885MOL0     N16739  10.611   3.914   9.022  0.3832 -0.1101 -0.1786
  885MOL0     C16740   9.924   4.857   8.533 -0.1194 -0.3507 -0.9121
  885MOL0     C16741   9.954   4.935   8.425  0.5334 -0.1350  0.2829
  885MOL0     C16742  10.038   5.083   8.014 -0.7120  0.6619 -0.8655
  885MOL0     C16743   9.978   5.103   7.890 -0.1661  0.0418  0.0499
  885MOL0     C16744  10.017   5.203   7.803  0.3206 -0.2229 -0.0038
  885MOL0     C16745  10.106   5.304   7.837 -0.4546 -0.0450 -0.8698
  885MOL0     O16746  10.138   5.392   7.733 -0.1571 -0.3016 -0.1885
  885MOL0     C16747  10.245   5.480   7.726 -0.6219 -0.0052 -0.2433
  885MOL0     C16748  10.385   5.415   7.723  0.2874  0.2229 -0.2694
  885MOL0     C16749  10.499   5.516   7.732  1.0982 -0.0094  0.8029
  885MOL0     C16750  10.599   5.512   7.848  0.5352 -0.0750  0.8082
  885MOL0     C16751  10.545   5.545   7.978  0.7516 -0.5817  0.0743
  885MOL0     C16752  10.503   5.558   8.088  0.4993 -0.1636  0.1963
  885MOL0     C16753  10.173   5.291   7.960  0.7207 -0.0670 -0.1976
  885MOL0     C16754  10.136   5.183   8.044  0.3557 -0.3272  0.4451
  885MOL0     H16755  10.196   4.757   8.279  1.0394  0.0729  0.5370
  885MOL0     H16756  10.159   4.615   8.466 -1.7409 -1.9182 -0.3564
  885MOL0     H16757  10.165   4.582   8.713  0.6746 -0.7721 -0.6077
  885MOL0     H16758  10.053   4.492   8.617  2.2208  0.2649  0.6703
  885MOL0     H16759   9.904   4.451   8.815 -0.5194  2.3279  1.1258
  885MOL0     H16760  10.002   4.547   8.914 -2.7984  0.1059 -0.1267
  885MOL0     H16761  10.209   4.395   8.852  0.1528 -1.2895 -5.0854
  885MOL0     H16762  10.095   4.302   8.754  0.1208  1.1440 -1.4279
  885MOL0     H16763  10.076   4.340   9.067  0.2686  1.4927 -1.1842
  885MOL0     H16764   9.968   4.261   8.960  1.0889 -1.5219  0.3852
  885MOL0     H16765  10.180   4.115   8.876 -0.2899 -0.0602 -0.4361
  885MOL0     H16766  10.093   4.076   9.029  6.1240 -2.4197  1.7444
  885MOL0     H16767  10.249   4.192   9.157  2.7467  1.8078  0.0078
  885MOL0     H16768  10.349   4.217   9.012 -1.8063  2.1900 -0.6327
  885MOL0     H16769  10.236   3.946   9.108  0.5836 -2.1594 -0.4720
  885MOL0     H16770  10.358   3.963   8.979  0.1450 -0.5546  0.5816
  885MOL0     H16771  10.418   3.886   9.197 -3.9851 -0.0404  0.8221
  885MOL0     H16772  10.403   4.054   9.255 -1.0808 -0.3448  1.0913
  885MOL0     H16773  10.623   4.222   9.148  2.3010 -0.6283  1.5230
  885MOL0     H16774  10.925   4.111   8.971 -1.6313 -1.4146 -0.3584
  885MOL0     H16775  10.862   4.250   9.072  4.9401 -2.5570  1.9403
  885MOL0     H16776  10.740   4.303   8.844 -0.3245  0.7241 -0.9037
  885MOL0     H16777  10.847   4.182   8.774  0.5608  1.2348  0.1509
  885MOL0     H16778  10.938   4.422   8.928  1.0843 -3.0874  2.1761
  885MOL0     H16779  11.031   4.311   8.849  0.1011  0.0595  0.9507
  885MOL0     H16780  10.830   4.491   8.691  1.0147  1.7513  1.7100
  885MOL0     H16781  10.914   4.359   8.629  0.4561  1.2811 -0.7909
  885MOL0     H16782  10.879   4.670   8.815 -0.5597 -2.0129  0.2561
  885MOL0     H16783  10.944   4.853   8.958 -0.7560  0.4860 -1.7261
  885MOL0     H16784  11.192   4.988   9.295  1.0122 -1.9734  0.5340
  885MOL0     H16785  11.301   5.094   9.492  1.2463  0.7316  1.0523
  885MOL0     H16786  11.750   5.171   9.460  0.4911  0.3400  0.4728
  885MOL0     H16787  11.696   5.254   9.609 -0.8097  0.1266  0.7833
  885MOL0     H16788  11.608   5.359   9.328  1.4016  4.2472 -1.6889
  885MOL0     H16789  11.740   5.412   9.414 -1.3115  1.0748 -1.4254
  885MOL0     H16790  11.579   5.463   9.612  0.7123 -2.7736 -0.4571
  885MOL0     H16791  11.452   5.402   9.517 -0.0369 -0.3220  0.4225
  885MOL0     H16792  11.625   5.652   9.479  0.2928 -1.0181 -0.7752
  885MOL0     H16793  11.506   5.600   9.358 -0.8530 -0.1147 -0.0918
  885MOL0     H16794  11.469   5.731   9.633 -3.2589  0.1270  0.8103
  885MOL0     H16795  11.350   5.622   9.599 -0.0132 -3.3572 -1.9960
  885MOL0     H16796  11.271   5.816   9.524 -3.2222 -0.8021 -4.5922
  885MOL0     H16797  11.305   5.732   9.382  0.6833  1.7691 -1.9438
  885MOL0     H16798  11.509   5.854   9.326 -2.1713 -3.6647  0.1499
  885MOL0     H16799  11.372   5.964   9.365  0.8158  2.7505 -0.0147
  885MOL0     H16800  11.606   5.903   9.549 -0.6259 -1.2564 -0.6992
  885MOL0     H16801  11.450   6.005   9.580 -0.3322 -2.6317  1.4134
  885MOL0     H16802  11.675   5.109   9.287  0.2447  0.5511 -0.9922
  885MOL0     H16803  11.584   4.965   9.101  2.8777 -0.1877  2.5397
  885MOL0     H16804  11.349   4.785   8.860 -1.5565  4.8324  1.4343
  885MOL0     H16805  11.302   4.583   8.727 -0.3022 -0.0943  0.1901
  885MOL0     H16806   9.836   4.878   8.593 -0.1438 -0.4765 -0.9027
  885MOL0     H16807   9.908   5.031   8.410  0.4448 -0.1784  0.2774
  885MOL0     H16808   9.904   5.037   7.847 -0.6547  0.9229 -0.4901
  885MOL0     H16809   9.968   5.223   7.708 -1.5039  0.3578  1.0049
  885MOL0     H16810  10.236   5.527   7.825  0.9060 -2.0117  0.9268
  885MOL0     H16811  10.236   5.557   7.649 -0.8912  1.0770  0.8240
  885MOL0     H16812  10.388   5.347   7.808  0.4010  0.0189 -0.4358
  885MOL0     H16813  10.401   5.363   7.628 -0.9450 -0.4648 -0.1262
  885MOL0     H16814  10.462   5.618   7.731  3.0936  0.7666 -0.3205
  885MOL0     H16815  10.550   5.496   7.637  3.6243  0.8270  1.8976
  885MOL0     H16816  10.625   5.407   7.866 -2.2531 -0.9326  0.2151
  885MOL0     H16817  10.694   5.552   7.811  0.0404 -1.4840 -2.2842
  885MOL0     H16818  10.471   5.560   8.190 -1.8239 -0.8994 -0.4566
  885MOL0     H16819  10.234   5.369   8.005 -1.4556  1.2881  0.5584
  885MOL0     H16820  10.180   5.187   8.143  7.2996  0.2857 -2.0783
  886MOL0     O16821   2.401   3.401   0.225  0.0152 -0.3104 -0.4653
  886MOL0     C16822   2.329   3.484   0.167  0.5606  0.3781  0.3851
  886MOL0     O16823   2.297   3.608   0.211  0.6874  0.6502 -0.4336
  886MOL0     C16824   2.329   3.643   0.340 -0.1828 -0.0298 -0.4636
  886MOL0     C16825   2.434   3.726   0.353 -0.3263 -0.4695 -0.6447
  886MOL0     C16826   2.468   3.776   0.485  0.5281  0.4566 -0.3937
  886MOL0     C16827   2.395   3.735   0.592  0.1075 -0.5498 -0.9633
  886MOL0     O16828   2.433   3.795   0.709  0.0022  0.1466  0.4306
  886MOL0     C16829   2.327   3.850   0.782 -0.5122  0.5685 -0.7716
  886MOL0     C16830   2.394   3.959   0.869 -0.2301 -0.1164 -0.6972
  886MOL0     C16831   2.306   4.083   0.885  0.2066  0.2964 -0.6773
  886MOL0     C16832   2.372   4.200   0.958 -0.0337 -0.8313  0.7205
  886MOL0     C16833   2.279   4.328   0.930 -0.9884 -0.5667  0.5141
  886MOL0     C16834   2.318   4.454   1.020 -0.3140  0.8398  0.2693
  886MOL0     C16835   2.245   4.576   0.989 -0.7463 -0.4325 -0.6201
  886MOL0     C16836   2.268   4.681   1.095  0.1360  1.1001  0.3830
  886MOL0     N16837   2.182   4.797   1.079  0.5852 -0.1691 -0.9599
  886MOL0     C16838   2.160   4.867   0.962  0.3930  0.5313 -0.0050
  886MOL0     C16839   2.043   4.922   0.983  0.3777 -0.0459 -1.0120
  886MOL0     C16840   1.980   5.018   0.879  1.0087  0.3162  0.5749
  886MOL0     C16841   2.074   5.144   0.863  0.2296  0.3060  0.4331
  886MOL0     C16842   2.043   5.230   0.730 -0.0007  0.2018  0.4145
  886MOL0     C16843   2.124   5.365   0.740  0.1987 -0.2766 -0.4333
  886MOL0     O16844   2.243   5.357   0.823 -1.0022  0.0150 -0.3079
  886MOL0     C16845   2.326   5.473   0.812 -0.6597  0.3652  0.9417
  886MOL0     C16846   2.325   5.582   0.724  0.5994 -0.2144 -0.8350
  886MOL0     C16847   2.422   5.675   0.718 -0.3943 -0.7482  0.0513
  886MOL0     C16848   2.531   5.662   0.796  0.1778  0.0278  0.6050
  886MOL0     C16849   2.642   5.759   0.772 -1.2775  0.3365  0.8000
  886MOL0     O16850   2.760   5.730   0.852  0.9068 -0.0657 -0.4529
  886MOL0     C16851   2.859   5.822   0.849  0.9426  0.1193  1.1015
  886MOL0     C16852   2.959   5.806   0.750  0.6116 -0.7441 -0.1005
  886MOL0     C16853   3.051   5.901   0.741  0.3310  0.2402 -0.5293
  886MOL0     C16854   3.061   6.008   0.821 -0.3554  0.3572 -0.1567
  886MOL0     O16855   3.163   6.096   0.816 -0.3820  0.1149 -1.2864
  886MOL0     C16856   3.300   6.046   0.795 -0.7681  0.0233 -0.4369
  886MOL0     C16857   3.392   6.151   0.722  0.1037  0.0306 -0.2894
  886MOL0     C16858   3.343   6.152   0.577  0.0963  0.1369  0.0494
  886MOL0     C16859   3.402   6.257   0.485  0.2143 -0.5227 -0.2876
  886MOL0     C16860   3.400   6.227   0.329  0.3103 -0.4330 -0.7825
  886MOL0     C16861   3.465   6.345   0.265 -0.4264 -0.3649  0.2724
  886MOL0     C16862   3.458   6.331   0.113 -0.6513  0.1255  0.8543
  886MOL0     C16863   3.488   6.198   0.049  0.5783 -0.4962  0.5984
  886MOL0    Cl16864   3.649   6.137   0.091  0.1477  0.3066 -0.0717
  886MOL0     C16865   2.963   6.022   0.924 -0.6335  0.0889 -0.5259
  886MOL0     C16866   2.852   5.935   0.935 -0.1960 -0.0849 -1.0111
  886MOL0     O16867   2.623   5.861   0.698  0.6606  0.7514 -0.0670
  886MOL0     C16868   2.533   5.551   0.885 -0.0332  0.7498 -0.3611
  886MOL0     C16869   2.428   5.460   0.887  0.6416  0.3281 -0.2544
  886MOL0     N16870   2.009   4.894   1.109  0.3665  0.2176  0.2440
  886MOL0     N16871   2.087   4.827   1.177  0.1828 -0.5804  0.4769
  886MOL0     C16872   2.303   3.637   0.583  0.4252 -0.4027  0.5443
  886MOL0     C16873   2.271   3.584   0.451  0.3518 -0.1892 -0.6896
  886MOL0     C16874   2.273   3.437   0.037 -0.5439 -0.4751  0.2302
  886MOL0     C16875   2.200   3.534  -0.041  0.2033 -0.2713 -0.1602
  886MOL0     C16876   2.143   3.504  -0.158 -0.4099  1.6596  0.5909
  886MOL0     C16877   2.173   3.376  -0.223  0.5911  0.2490 -0.1089
  886MOL0     O16878   2.119   3.328  -0.343 -0.7084  0.0565  0.1783
  886MOL0     C16879   2.025   3.408  -0.417  0.7893 -0.2137  0.3319
  886MOL0     C16880   2.019   3.362  -0.556  0.2164  1.0216  0.3233
  886MOL0     C16881   1.959   3.219  -0.559  0.2964  0.0424 -0.2438
  886MOL0     C16882   1.953   3.169  -0.707  0.5800  0.6732 -0.5792
  886MOL0     C16883   1.878   3.039  -0.720 -0.8805 -0.2180 -0.1919
  886MOL0     C16884   1.821   2.938  -0.754 -0.6666  0.5486  0.7416
  886MOL0     C16885   2.230   3.274  -0.144  0.5507 -0.1660  0.8495
  886MOL0     C16886   2.282   3.311  -0.018 -0.0048 -0.4215 -0.1090
  886MOL0     H16887   2.476   3.753   0.257 -1.6994  2.1544 -0.5773
  886MOL0     H16888   2.552   3.843   0.492  1.3028 -0.6304  1.4285
  886MOL0     H16889   2.269   3.777   0.840 -1.7638  0.9894 -1.4447
  886MOL0     H16890   2.254   3.901   0.719  0.5315  4.1664  0.6610
  886MOL0     H16891   2.492   3.987   0.830 -0.8911  3.4120 -0.1814
  886MOL0     H16892   2.401   3.921   0.971 -0.6652 -0.5214 -0.8187
  886MOL0     H16893   2.212   4.063   0.937  1.0504 -1.9322  0.0970
  886MOL0     H16894   2.277   4.103   0.782 -0.2000 -1.2370 -0.8721
  886MOL0     H16895   2.385   4.170   1.063 -2.3347 -1.1660  0.9706
  886MOL0     H16896   2.464   4.240   0.916 -1.4183 -0.8926 -2.7004
  886MOL0     H16897   2.174   4.300   0.945 -1.2361 -1.1547 -1.8872
  886MOL0     H16898   2.294   4.370   0.831  0.4267  1.6559  1.5880
  886MOL0     H16899   2.426   4.467   1.025  0.5014 -2.4955 -3.4681
  886MOL0     H16900   2.305   4.417   1.122  2.3533 -2.5169 -0.4558
  886MOL0     H16901   2.280   4.619   0.895 -1.5479  1.5109 -0.0692
  886MOL0     H16902   2.137   4.555   0.990 -0.9926  0.8017  0.4688
  886MOL0     H16903   2.372   4.712   1.078  0.9478 -0.6518  1.7396
  886MOL0     H16904   2.250   4.632   1.191 -0.4840 -0.2655 -0.3998
  886MOL0     H16905   2.232   4.870   0.881 -0.0958 -3.2081 -0.7792
  886MOL0     H16906   1.882   5.047   0.917 -0.7455  1.0945 -3.8734
  886MOL0     H16907   1.958   4.979   0.779  1.2972 -3.9701  2.0088
  886MOL0     H16908   2.173   5.098   0.858 -0.7481 -2.1363  1.7953
  886MOL0     H16909   2.077   5.207   0.953 -0.5062 -1.3634  1.6655
  886MOL0     H16910   2.080   5.182   0.639 -1.0351 -1.3640  0.7742
  886MOL0     H16911   1.934   5.241   0.720  0.1757  0.1179 -2.5924
  886MOL0     H16912   2.055   5.443   0.773 -0.9668 -1.0528 -0.9773
  886MOL0     H16913   2.148   5.402   0.640 -0.4694  0.1237 -0.4517
  886MOL0     H16914   2.243   5.592   0.653 -2.3764 -0.3453  2.3141
  886MOL0     H16915   2.412   5.746   0.637  0.2227 -2.9375 -2.0361
  886MOL0     H16916   2.930   5.723   0.686 -2.2912  0.4432 -0.4947
  886MOL0     H16917   3.120   5.895   0.657  0.6049  2.1266 -0.4825
  886MOL0     H16918   3.307   5.950   0.742  0.9815  0.9484 -2.0364
  886MOL0     H16919   3.347   6.027   0.892 -3.2720 -1.6591  0.5364
  886MOL0     H16920   3.499   6.128   0.723  0.1949  0.4289  1.4588
  886MOL0     H16921   3.372   6.242   0.779 -0.4166 -0.8651  1.0144
  886MOL0     H16922   3.238   6.183   0.579 -0.2616 -1.0357  2.0133
  886MOL0     H16923   3.358   6.057   0.524  0.6155  1.2607 -1.9580
  886MOL0     H16924   3.349   6.352   0.500 -0.2423 -1.1442  2.8345
  886MOL0     H16925   3.503   6.278   0.520 -0.8279  3.7466  0.7193
  886MOL0     H16926   3.295   6.220   0.298  0.1424  2.9696 -1.2881
  886MOL0     H16927   3.458   6.135   0.315 -0.8083 -1.5118  1.2713
  886MOL0     H16928   3.569   6.346   0.300  0.5794  1.3775 -2.4226
  886MOL0     H16929   3.412   6.436   0.297 -0.2171 -0.0926 -0.1371
  886MOL0     H16930   3.354   6.356   0.087  0.5366  2.6051 -2.0836
  886MOL0     H16931   3.523   6.411   0.076 -1.1519 -0.2517 -0.8971
  886MOL0     H16932   3.476   6.211  -0.059 -0.0098 -2.6442  0.3658
  886MOL0     H16933   3.424   6.121   0.092  1.7415 -3.9213 -3.2106
  886MOL0     H16934   2.977   6.106   0.991  3.1932 -2.1971  1.9548
  886MOL0     H16935   2.776   5.941   1.012  1.3523 -0.7504  0.6419
  886MOL0     H16936   2.616   5.538   0.954 -0.3301  2.0380  0.2503
  886MOL0     H16937   2.431   5.381   0.961 -0.4418  0.1809 -0.3436
  886MOL0     H16938   2.246   3.616   0.673 -0.3569  3.8536  1.2447
  886MOL0     H16939   2.184   3.521   0.440 -1.7886  2.2050  1.1094
  886MOL0     H16940   2.193   3.636  -0.006  0.6409  0.7527 -2.7849
  886MOL0     H16941   2.086   3.583  -0.206  0.8765  1.4141 -1.4889
  886MOL0     H16942   2.043   3.516  -0.417  1.3449 -0.2690  2.1830
  886MOL0     H16943   1.929   3.398  -0.367  0.3327  3.7096  0.6195
  886MOL0     H16944   1.960   3.433  -0.614  2.5221  0.8753 -2.4172
  886MOL0     H16945   2.117   3.379  -0.601  0.8971 -0.4692  1.1469
  886MOL0     H16946   1.862   3.209  -0.510  0.3601 -1.0550 -0.3027
  886MOL0     H16947   2.023   3.140  -0.517 -0.0171 -1.0866 -1.7718
  886MOL0     H16948   1.905   3.252  -0.760 -1.5962 -0.0158  0.2111
  886MOL0     H16949   2.055   3.154  -0.744  1.5525 -1.2650  2.4786
  886MOL0     H16950   1.772   2.854  -0.798  1.1522 -0.0804 -0.1875
  886MOL0     H16951   2.245   3.178  -0.193  1.5451  0.0740  0.6732
  886MOL0     H16952   2.347   3.247   0.042  0.2020 -1.1645 -1.0865
  887MOL0     O16953   3.032   7.736   0.766  0.3857 -0.0966  0.7423
  887MOL0     C16954   3.100   7.790   0.852 -0.0722  0.6765  0.0056
  887MOL0     O16955   3.092   7.917   0.901 -0.1270  0.7172 -0.0121
  887MOL0     C16956   3.028   8.025   0.834  0.2492  0.5051  1.2054
  887MOL0     C16957   3.030   8.148   0.901  0.6210  0.7685 -0.0723
  887MOL0     C16958   2.988   8.264   0.844  0.8597 -0.0328  0.3963
  887MOL0     C16959   2.921   8.267   0.725 -0.4930  0.6400  1.0035
  887MOL0     O16960   2.858   8.374   0.670 -0.0630 -0.2507  0.1065
  887MOL0     C16961   2.730   8.409   0.733 -0.1434 -0.7095 -0.3331
  887MOL0     C16962   2.733   8.514   0.854 -0.2466  0.1012 -0.5086
  887MOL0     C16963   2.780   8.651   0.800  0.4061 -0.8604  1.0533
  887MOL0     C16964   2.816   8.755   0.908 -0.6863 -1.3099 -0.4654
  887MOL0     C16965   2.715   8.774   1.023 -0.1472 -0.4695  0.5180
  887MOL0     C16966   2.747   8.893   1.115 -0.1534 -0.0666  0.0977
  887MOL0     C16967   2.636   8.895   1.228 -0.1348  0.0508 -0.5927
  887MOL0     C16968   2.656   8.797   1.354  0.7193  0.9283  0.6711
  887MOL0     N16969   2.645   8.653   1.322  0.5141  0.0170  0.6121
  887MOL0     C16970   2.538   8.598   1.261  0.5907  0.0868  0.5467
  887MOL0     C16971   2.569   8.474   1.227 -0.2438 -0.3228  0.1215
  887MOL0     C16972   2.477   8.369   1.156 -0.3837 -0.6835  0.0589
  887MOL0     C16973   2.529   8.233   1.167  0.1325 -0.2798 -0.8015
  887MOL0     C16974   2.431   8.127   1.122 -0.8309 -0.2367 -0.3212
  887MOL0     C16975   2.362   8.145   0.980 -0.1555  0.3530  0.1070
  887MOL0     O16976   2.462   8.140   0.879  0.2007 -0.2884 -0.1513
  887MOL0     C16977   2.444   8.051   0.775 -0.0960  0.5307 -0.3950
  887MOL0     C16978   2.347   7.952   0.747 -0.4063  0.1238  0.0258
  887MOL0     C16979   2.354   7.873   0.636 -0.6447 -0.1182  0.7388
  887MOL0     C16980   2.457   7.888   0.543  0.1103 -0.3852 -0.4575
  887MOL0     C16981   2.463   7.799   0.428  0.3606 -0.2601  1.1338
  887MOL0     O16982   2.358   7.709   0.403 -0.5173 -0.1440  0.3638
  887MOL0     C16983   2.358   7.652   0.281  0.0612 -1.0419  0.1543
  887MOL0     C16984   2.282   7.705   0.179 -0.4537 -0.2822  0.5235
  887MOL0     C16985   2.268   7.633   0.053  0.5424  1.0864 -0.5781
  887MOL0     C16986   2.339   7.511   0.024 -0.6912 -0.6607 -0.2548
  887MOL0     O16987   2.347   7.450  -0.102  0.1177  0.4884  0.6148
  887MOL0     C16988   2.242   7.481  -0.207  0.0532  0.5670  0.4081
  887MOL0     C16989   2.184   7.344  -0.249  0.7080 -0.4910  0.0262
  887MOL0     C16990   2.051   7.359  -0.329  0.1733 -1.1833 -0.1986
  887MOL0     C16991   1.986   7.227  -0.348  0.3351 -0.2515 -0.3687
  887MOL0     C16992   2.031   7.154  -0.486  1.1589 -0.1418  0.4144
  887MOL0     C16993   2.168   7.093  -0.481 -0.2393 -0.7036  0.0239
  887MOL0     C16994   2.196   6.989  -0.584 -0.5107  0.2610  0.2866
  887MOL0     C16995   2.339   6.940  -0.552  0.1474 -0.4337  0.1284
  887MOL0    Cl16996   2.387   6.813  -0.666  0.1899 -0.5495  0.4564
  887MOL0     C16997   2.412   7.456   0.130  0.1155  0.3259 -0.5576
  887MOL0     C16998   2.424   7.526   0.257  0.5427 -0.5655 -0.4928
  887MOL0     O16999   2.560   7.835   0.352 -0.2770 -0.4258 -0.0917
  887MOL0     C17000   2.557   7.985   0.568 -1.0601 -0.2178 -0.3233
  887MOL0     C17001   2.545   8.055   0.685 -0.0321 -0.1491  0.5230
  887MOL0     N17002   2.698   8.458   1.271 -0.0470 -0.3256  0.4200
  887MOL0     N17003   2.735   8.555   1.337  0.1138  0.0075 -0.7009
  887MOL0     C17004   2.916   8.151   0.647 -0.4583  1.2244 -0.7709
  887MOL0     C17005   2.980   8.028   0.697 -1.0955 -0.2597  0.0539
  887MOL0     C17006   3.197   7.707   0.924 -0.1361  0.1405 -0.2996
  887MOL0     C17007   3.204   7.570   0.891 -0.2584  0.4327  0.1146
  887MOL0     C17008   3.296   7.488   0.959 -0.8078  0.0852  0.7591
  887MOL0     C17009   3.385   7.533   1.058 -0.1365  0.2753 -0.8375
  887MOL0     O17010   3.472   7.451   1.119 -0.2328  0.3964 -0.5969
  887MOL0     C17011   3.574   7.485   1.214 -0.2794 -0.0384  0.4536
  887MOL0     C17012   3.533   7.450   1.353  0.1525  0.3196  0.6366
  887MOL0     C17013   3.532   7.303   1.395  0.3569 -1.3517 -0.1479
  887MOL0     C17014   3.434   7.270   1.507 -0.4658  0.6664  0.4509
  887MOL0     C17015   3.441   7.125   1.517 -0.0024  0.3213  0.0053
  887MOL0     C17016   3.476   7.013   1.515 -0.1691 -0.5216  0.1560
  887MOL0     C17017   3.369   7.671   1.092 -0.5641  0.6089  0.3560
  887MOL0     C17018   3.290   7.759   1.016  0.0714 -0.5350  0.2545
  887MOL0     H17019   3.079   8.153   0.997 -0.9526 -0.1064  0.8055
  887MOL0     H17020   3.001   8.356   0.900  2.1021 -0.4094  0.7490
  887MOL0     H17021   2.679   8.320   0.772 -0.1030 -0.8733 -0.6569
  887MOL0     H17022   2.671   8.452   0.652 -0.8216 -0.4313  0.2955
  887MOL0     H17023   2.804   8.475   0.927 -1.4501 -0.7305  0.2447
  887MOL0     H17024   2.635   8.521   0.902  0.5598 -0.9571  1.3821
  887MOL0     H17025   2.705   8.717   0.755  2.6226  2.8273  2.2413
  887MOL0     H17026   2.867   8.645   0.733 -1.4553  0.7497 -1.7189
  887MOL0     H17027   2.913   8.728   0.951 -1.0124 -1.4453  0.1983
  887MOL0     H17028   2.822   8.851   0.857 -3.4266  0.7849  2.7600
  887MOL0     H17029   2.729   8.682   1.079  0.2542  0.0978  1.3687
  887MOL0     H17030   2.616   8.783   0.978  0.9589  0.4860 -1.9386
  887MOL0     H17031   2.756   8.980   1.050  3.1989 -1.4580 -1.5262
  887MOL0     H17032   2.844   8.875   1.162 -0.3148 -0.3752  0.3197
  887MOL0     H17033   2.640   8.999   1.262 -2.4803 -0.2201  0.7253
  887MOL0     H17034   2.542   8.879   1.174 -0.4597 -2.2693  0.4940
  887MOL0     H17035   2.572   8.819   1.421  0.5596  1.9937  0.1387
  887MOL0     H17036   2.752   8.804   1.405 -0.0733 -0.5453  2.5020
  887MOL0     H17037   2.438   8.637   1.243 -1.3373 -3.3307  2.5494
  887MOL0     H17038   2.444   8.398   1.056  2.8659  1.5267 -0.4973
  887MOL0     H17039   2.388   8.369   1.220  2.7677  1.6164  4.9727
  887MOL0     H17040   2.543   8.213   1.273  1.6635  1.1658 -0.6897
  887MOL0     H17041   2.620   8.210   1.110  0.1545 -1.4450 -0.3194
  887MOL0     H17042   2.483   8.031   1.112  0.2558  0.1882  1.1046
  887MOL0     H17043   2.357   8.111   1.201  0.5577 -1.8708  0.7057
  887MOL0     H17044   2.304   8.238   0.983 -5.4890 -2.5627  0.9673
  887MOL0     H17045   2.288   8.066   0.969  1.1559 -0.5276 -3.9504
  887MOL0     H17046   2.266   7.933   0.816  1.4546 -1.1350  2.0105
  887MOL0     H17047   2.275   7.801   0.618 -0.4991  0.1518 -1.1921
  887MOL0     H17048   2.230   7.800   0.184  0.9873  0.4980  1.2624
  887MOL0     H17049   2.213   7.685  -0.025  0.1722 -0.1897 -1.1957
  887MOL0     H17050   2.282   7.528  -0.298 -0.8374  0.1906 -0.1851
  887MOL0     H17051   2.166   7.549  -0.167 -1.8460  0.9820 -3.4707
  887MOL0     H17052   2.168   7.280  -0.162 -1.6403  2.6786  2.1477
  887MOL0     H17053   2.261   7.301  -0.314  2.5093  1.1116  0.9703
  887MOL0     H17054   2.078   7.411  -0.422 -0.9385 -2.4255 -1.2731
  887MOL0     H17055   1.978   7.423  -0.280 -0.1025 -1.7775  0.1805
  887MOL0     H17056   1.981   7.163  -0.259  3.6106 -1.9548 -1.2442
  887MOL0     H17057   1.878   7.242  -0.357  0.2455 -0.8895 -0.4152
  887MOL0     H17058   2.001   7.203  -0.579 -4.2294 -1.8821  0.9293
  887MOL0     H17059   1.963   7.069  -0.485  1.4738 -0.4071 -0.3243
  887MOL0     H17060   2.164   7.049  -0.381 -0.9191  3.4356  2.0457
  887MOL0     H17061   2.228   7.184  -0.491 -0.5337 -0.2359  2.0714
  887MOL0     H17062   2.116   6.915  -0.584 -1.7038  1.4981  2.0705
  887MOL0     H17063   2.210   7.027  -0.686 -0.1478 -2.8290 -0.9332
  887MOL0     H17064   2.346   6.898  -0.451 -0.1959  1.2711  0.8927
  887MOL0     H17065   2.406   7.026  -0.547 -0.3634 -0.0916  2.4566
  887MOL0     H17066   2.450   7.354   0.128 -1.5679 -0.5286  2.4373
  887MOL0     H17067   2.487   7.487   0.336  0.2836 -1.4250 -0.6945
  887MOL0     H17068   2.637   8.002   0.498 -1.0181  1.9476  0.1907
  887MOL0     H17069   2.624   8.128   0.706  0.2053 -0.1873 -0.2301
  887MOL0     H17070   2.859   8.139   0.555 -0.4530  0.3254 -0.6662
  887MOL0     H17071   2.984   7.940   0.634  0.3162  1.9748 -3.2526
  887MOL0     H17072   3.145   7.536   0.806 -1.2502  2.3830 -0.0419
  887MOL0     H17073   3.285   7.386   0.925 -4.8309  1.2727 -2.3326
  887MOL0     H17074   3.602   7.591   1.216  1.0334 -0.3688  0.2186
  887MOL0     H17075   3.671   7.436   1.203 -0.3693 -0.2316  0.5257
  887MOL0     H17076   3.606   7.502   1.416  0.7863  3.0918 -2.1555
  887MOL0     H17077   3.430   7.484   1.370 -0.4413 -2.3821  3.3665
  887MOL0     H17078   3.633   7.271   1.423  1.0539  0.8590  0.0851
  887MOL0     H17079   3.506   7.241   1.309 -3.8896 -0.8318  0.5816
  887MOL0     H17080   3.468   7.310   1.603 -3.7702  1.8407  1.2670
  887MOL0     H17081   3.330   7.302   1.492 -0.8721  0.3456  2.3775
  887MOL0     H17082   3.525   6.918   1.512  0.4071 -0.2411  0.4286
  887MOL0     H17083   3.435   7.711   1.168  0.5082  1.0199 -0.7597
  887MOL0     H17084   3.285   7.865   1.038 -2.2714 -0.4587 -0.4214
  888MOL0     O17085   3.638   5.929   3.757  0.5475  0.2051 -0.4662
  888MOL0     C17086   3.523   5.911   3.706  0.1812 -0.2677 -0.4439
  888MOL0     O17087   3.421   5.842   3.759  0.0035 -0.2018 -0.4194
  888MOL0     C17088   3.439   5.731   3.842  0.2243 -0.6797 -0.3521
  888MOL0     C17089   3.327   5.665   3.894  0.3188  0.0910 -1.1274
  888MOL0     C17090   3.344   5.558   3.987 -0.6252 -0.2817 -0.8065
  888MOL0     C17091   3.472   5.522   4.029  0.3871  0.2214 -0.3449
  888MOL0     O17092   3.484   5.422   4.121 -0.0564  0.6742 -0.6083
  888MOL0     C17093   3.603   5.410   4.206 -0.4376  0.4127 -0.7159
  888MOL0     C17094   3.597   5.487   4.334 -0.9268  0.4238  0.3016
  888MOL0     C17095   3.512   5.424   4.443 -0.1606  0.8187  0.4961
  888MOL0     C17096   3.462   5.516   4.555  0.1500 -0.5473 -0.0635
  888MOL0     C17097   3.355   5.621   4.511 -0.8546 -0.4601  0.3530
  888MOL0     C17098   3.317   5.722   4.624 -0.2477  0.6205 -0.3608
  888MOL0     C17099   3.299   5.674   4.765 -0.9339  0.9865  0.1222
  888MOL0     C17100   3.296   5.786   4.866  0.1669 -0.4415  0.3316
  888MOL0     N17101   3.439   5.836   4.881  0.2197 -1.0143  0.7248
  888MOL0     C17102   3.558   5.771   4.921  0.5557 -0.0638 -0.6616
  888MOL0     C17103   3.654   5.872   4.921 -0.7047  0.5665 -0.2323
  888MOL0     C17104   3.806   5.844   4.947  0.3285  0.2984 -0.4194
  888MOL0     C17105   3.890   5.938   4.860 -0.7570  0.8469  0.4996
  888MOL0     C17106   3.899   5.890   4.711 -0.2952  0.2271 -1.1058
  888MOL0     C17107   4.018   5.954   4.634  0.2916  0.5802  0.6101
  888MOL0     O17108   3.982   6.084   4.594  0.0923  0.4874  0.4070
  888MOL0     C17109   4.044   6.159   4.493  0.3061 -0.3260  0.0081
  888MOL0     C17110   4.156   6.242   4.524  0.6021  0.0645 -0.0413
  888MOL0     C17111   4.210   6.306   4.417 -0.5822  0.4555  1.1243
  888MOL0     C17112   4.159   6.294   4.282 -0.0721 -0.2183  0.0022
  888MOL0     C17113   4.222   6.379   4.172  0.0314  0.9238 -0.0931
  888MOL0     O17114   4.266   6.500   4.205 -0.6525  0.6548 -0.0955
  888MOL0     C17115   4.333   6.561   4.106  0.5409  0.1459 -0.4712
  888MOL0     C17116   4.466   6.553   4.132 -0.3257  0.2280 -0.6104
  888MOL0     C17117   4.559   6.617   4.052  0.0947 -0.8360 -0.3577
  888MOL0     C17118   4.517   6.686   3.937 -1.2894  0.7600  0.2268
  888MOL0     O17119   4.618   6.726   3.852 -0.0194  0.5457 -0.2087
  888MOL0     C17120   4.586   6.794   3.729  0.3460  0.2308  1.2342
  888MOL0     C17121   4.718   6.824   3.654 -0.4016 -0.1063 -2.0303
  888MOL0     C17122   4.805   6.951   3.703  0.0861  1.0348 -0.1598
  888MOL0     C17123   4.850   6.953   3.855 -0.4780  0.1883 -0.1763
  888MOL0     C17124   4.979   7.045   3.863  0.1659  0.2875 -0.5082
  888MOL0     C17125   5.021   7.077   4.010 -0.5868 -0.5981  0.0649
  888MOL0     C17126   5.149   7.161   4.022 -0.4841 -0.5904 -0.4066
  888MOL0     C17127   5.177   7.183   4.174 -0.6742  0.7342  0.4543
  888MOL0    Cl17128   5.324   7.304   4.176  0.1509 -0.8483 -0.1392
  888MOL0     C17129   4.381   6.702   3.915 -0.7718 -0.3893 -0.6425
  888MOL0     C17130   4.289   6.644   4.001 -0.2665  1.2114 -0.1936
  888MOL0     O17131   4.196   6.336   4.062 -0.4748  0.0375 -0.1347
  888MOL0     C17132   4.034   6.226   4.266 -0.8434 -0.8033 -0.0738
  888MOL0     C17133   3.986   6.155   4.369 -0.1307 -0.2278  0.0133
  888MOL0     N17134   3.594   5.986   4.875  0.1715  0.7269  0.8815
  888MOL0     N17135   3.474   5.968   4.847 -0.8025 -0.0724  0.4168
  888MOL0     C17136   3.575   5.592   3.977  0.4724 -0.3455 -0.2220
  888MOL0     C17137   3.563   5.684   3.873 -0.5356 -0.7323 -1.3499
  888MOL0     C17138   3.484   5.967   3.571  0.8404 -0.4535 -0.2995
  888MOL0     C17139   3.557   6.072   3.511  0.0358 -0.1579 -0.6968
  888MOL0     C17140   3.529   6.113   3.377 -0.8599 -0.0328 -0.3400
  888MOL0     C17141   3.411   6.062   3.311 -1.2454  0.0836  0.1947
  888MOL0     O17142   3.368   6.115   3.188  1.1847  0.2963 -0.2486
  888MOL0     C17143   3.391   6.254   3.154  0.3876  0.0890 -0.4727
  888MOL0     C17144   3.319   6.300   3.025 -0.5279 -0.2523 -0.3250
  888MOL0     C17145   3.159   6.292   3.035  0.3606  0.0020 -0.7093
  888MOL0     C17146   3.107   6.147   3.017  0.2819 -0.7614 -0.0164
  888MOL0     C17147   3.151   6.080   2.889 -0.0623 -0.0584 -0.6823
  888MOL0     C17148   3.169   6.029   2.779  0.4464  0.8631  0.7045
  888MOL0     C17149   3.335   5.970   3.377 -0.2802  0.1060  0.2184
  888MOL0     C17150   3.371   5.919   3.506  0.2002  0.2763  0.5848
  888MOL0     H17151   3.221   5.681   3.876  0.6754 -0.9333 -5.0730
  888MOL0     H17152   3.254   5.506   4.020 -0.5193 -0.6025 -1.0150
  888MOL0     H17153   3.699   5.420   4.154  0.7460  0.1544  1.2986
  888MOL0     H17154   3.601   5.304   4.236 -0.0218  0.4679 -0.4818
  888MOL0     H17155   3.575   5.593   4.318  2.4035  1.5243  1.9378
  888MOL0     H17156   3.699   5.490   4.375  0.2203  4.0423 -2.2549
  888MOL0     H17157   3.566   5.337   4.483 -2.0186 -0.6347 -0.0323
  888MOL0     H17158   3.435   5.369   4.389  2.3435 -1.7850 -0.6877
  888MOL0     H17159   3.427   5.447   4.631  0.6915  0.4129  1.0810
  888MOL0     H17160   3.547   5.570   4.598 -0.5315 -0.1437  0.8077
  888MOL0     H17161   3.272   5.572   4.460 -0.2563  0.4262 -1.5890
  888MOL0     H17162   3.389   5.688   4.431 -2.2451 -1.5103 -1.1676
  888MOL0     H17163   3.229   5.784   4.602  0.4497  1.5359 -0.6029
  888MOL0     H17164   3.403   5.789   4.628  2.9051 -3.1362  1.9641
  888MOL0     H17165   3.210   5.611   4.777  0.5465 -1.0182  1.0538
  888MOL0     H17166   3.376   5.602   4.796 -1.4014  0.1600 -0.5798
  888MOL0     H17167   3.266   5.753   4.966 -0.0550  1.6695  1.0241
  888MOL0     H17168   3.237   5.870   4.829 -1.5672 -2.8873 -2.9460
  888MOL0     H17169   3.570   5.664   4.924 -0.2166 -0.1817 -1.3229
  888MOL0     H17170   3.830   5.739   4.925  1.1439 -0.1762  2.3353
  888MOL0     H17171   3.819   5.855   5.055  1.3657  1.7648 -0.6738
  888MOL0     H17172   3.990   5.943   4.905 -0.6728  1.0794  0.2902
  888MOL0     H17173   3.849   6.039   4.873  2.7227  2.1556  2.8720
  888MOL0     H17174   3.907   5.781   4.704 -0.0472  0.0050  1.6826
  888MOL0     H17175   3.809   5.922   4.658 -2.7563  2.1756  3.6908
  888MOL0     H17176   4.029   5.891   4.545  0.4133 -2.8527  2.8781
  888MOL0     H17177   4.105   5.933   4.696 -0.9689  1.2595  2.6815
  888MOL0     H17178   4.196   6.240   4.624  4.5208 -1.4995 -1.4359
  888MOL0     H17179   4.304   6.352   4.445  1.1261 -2.9342  1.3815
  888MOL0     H17180   4.502   6.474   4.197  1.2925 -0.4778 -2.2718
  888MOL0     H17181   4.665   6.617   4.074  0.2449  4.3449  0.3102
  888MOL0     H17182   4.539   6.889   3.754  4.8502  2.8237  0.8378
  888MOL0     H17183   4.521   6.736   3.662  0.1879  0.2167  1.3973
  888MOL0     H17184   4.705   6.847   3.548  1.2604  0.4545 -2.1479
  888MOL0     H17185   4.777   6.733   3.670 -0.5556  0.4226  3.9825
  888MOL0     H17186   4.738   7.034   3.679 -4.6867 -2.3037  0.1387
  888MOL0     H17187   4.889   6.960   3.634 -0.4045 -0.0968 -0.9352
  888MOL0     H17188   4.775   6.973   3.932 -1.8110 -3.2335 -0.4281
  888MOL0     H17189   4.886   6.855   3.886  1.2248  0.9286  0.2775
  888MOL0     H17190   4.951   7.141   3.818 -1.4068  1.5543  2.8726
  888MOL0     H17191   5.069   7.004   3.816 -0.9872 -3.1904  0.0578
  888MOL0     H17192   5.039   6.984   4.066 -0.6831 -0.2688  0.6496
  888MOL0     H17193   4.937   7.136   4.047 -3.0774 -1.0985 -4.1273
  888MOL0     H17194   5.239   7.109   3.987  1.7249  2.1372  0.8264
  888MOL0     H17195   5.138   7.261   3.980  3.2403  0.7996  1.4688
  888MOL0     H17196   5.189   7.087   4.224 -0.0371 -0.5941 -2.1093
  888MOL0     H17197   5.091   7.233   4.221  0.5932  2.4274  1.0545
  888MOL0     H17198   4.343   6.748   3.825 -0.1712  1.6527  0.0984
  888MOL0     H17199   4.182   6.638   3.981 -0.4943  0.8727  0.9979
  888MOL0     H17200   3.994   6.215   4.166  2.2319 -1.4957 -1.3478
  888MOL0     H17201   3.897   6.102   4.338 -1.1868  1.4815  0.0099
  888MOL0     H17202   3.671   5.553   4.011  0.1396 -0.7474  0.2932
  888MOL0     H17203   3.661   5.721   3.844 -0.0830  0.0004  0.9140
  888MOL0     H17204   3.650   6.113   3.550  0.4643  1.2688 -3.0245
  888MOL0     H17205   3.595   6.172   3.314 -0.3992  0.7194  0.8035
  888MOL0     H17206   3.498   6.267   3.137  0.2121  2.3883 -0.1606
  888MOL0     H17207   3.364   6.322   3.235  0.7599 -0.6527  0.2864
  888MOL0     H17208   3.342   6.406   3.015  2.1337 -0.5923  1.2059
  888MOL0     H17209   3.364   6.247   2.940 -0.3738 -0.9629  0.1904
  888MOL0     H17210   3.114   6.356   2.958 -3.8564 -0.5217  1.0536
  888MOL0     H17211   3.137   6.328   3.136 -0.8159 -1.4624 -0.4225
  888MOL0     H17212   3.137   6.092   3.107 -1.1512  2.2929  2.4766
  888MOL0     H17213   2.999   6.137   3.006  0.2094 -1.4237  1.1504
  888MOL0     H17214   3.180   5.987   2.682 -2.0583 -0.2098  0.7949
  888MOL0     H17215   3.241   5.928   3.342 -0.0607 -2.5402  2.4097
  888MOL0     H17216   3.307   5.844   3.550 -1.8646  2.6264  1.8186
  889MOL0     O17217  10.657   7.278  10.762 -0.0944  0.0035  0.2313
  889MOL0     C17218  10.774   7.247  10.750 -0.1373  0.3298 -0.1178
  889MOL0     O17219  10.870   7.282  10.848 -0.9637 -0.4767  0.6884
  889MOL0     C17220  10.836   7.331  10.971  0.1964  0.1368  0.7160
  889MOL0     C17221  10.875   7.268  11.080  0.0087  0.6315  0.7312
  889MOL0     C17222  10.830   7.300  11.209 -1.1843  0.3877  0.3188
  889MOL0     C17223  10.750   7.418  11.229  0.0191  0.7565 -0.7399
  889MOL0     O17224  10.717   7.452  11.364 -0.6122 -0.3537  0.3492
  889MOL0     C17225  10.609   7.551  11.374 -0.4830 -0.2807  0.2160
  889MOL0     C17226  10.556   7.553  11.520  0.2556  0.2801  0.9663
  889MOL0     C17227  10.458   7.435  11.549  0.2712 -0.0965 -0.5202
  889MOL0     C17228  10.318   7.486  11.600  0.5390 -0.0126 -0.0723
  889MOL0     C17229  10.228   7.377  11.645  0.7799 -1.0188 -0.0859
  889MOL0     C17230  10.092   7.445  11.685  1.2279 -1.2079  0.5527
  889MOL0     C17231  10.022   7.381  11.804 -0.4710 -0.5406  0.8710
  889MOL0     C17232   9.935   7.260  11.760  0.4538  0.0979 -0.5186
  889MOL0     N17233   9.983   7.176  11.654 -0.2186 -0.4923  0.1763
  889MOL0     C17234  10.090   7.097  11.673 -0.1928 -0.1077 -0.7669
  889MOL0     C17235  10.105   7.032  11.556  1.4651  0.4349 -0.2970
  889MOL0     C17236  10.213   6.919  11.526  0.2287  0.5684  0.0397
  889MOL0     C17237  10.216   6.795  11.620 -0.3285 -0.2099  0.6526
  889MOL0     C17238  10.086   6.723  11.628 -0.6952 -0.0757 -0.1309
  889MOL0     C17239  10.102   6.574  11.646  0.3318  0.0083  0.2660
  889MOL0     O17240   9.971   6.511  11.652  1.0528  0.2691 -0.4614
  889MOL0     C17241   9.962   6.385  11.709 -0.1405  0.3373  0.0557
  889MOL0     C17242  10.065   6.302  11.763 -0.1109 -0.2336 -0.7255
  889MOL0     C17243  10.045   6.177  11.817  0.4277 -0.0396 -0.0090
  889MOL0     C17244   9.912   6.122  11.821  0.1522  0.1725 -0.5059
  889MOL0     C17245   9.887   5.986  11.884  0.0734  0.0971  0.4391
  889MOL0     O17246   9.970   5.951  11.973 -0.2717 -0.5275  0.5405
  889MOL0     C17247   9.982   5.821  12.021  0.1603 -1.0297 -0.8326
  889MOL0     C17248  10.012   5.717  11.939  0.2616 -0.5725  0.7824
  889MOL0     C17249  10.037   5.590  11.979  0.5645  0.6821 -0.6099
  889MOL0     C17250  10.038   5.569  12.119  0.1146 -0.0997  0.7361
  889MOL0     O17251  10.072   5.445  12.160 -0.5171  0.1521 -0.0070
  889MOL0     C17252  10.154   5.350  12.088 -0.6112 -1.4327 -0.0564
  889MOL0     C17253  10.181   5.242  12.178 -0.3251  0.4891 -0.1805
  889MOL0     C17254  10.266   5.131  12.107  0.3260 -1.5541  0.6922
  889MOL0     C17255  10.335   5.040  12.209 -1.3704 -0.3708 -1.1429
  889MOL0     C17256  10.389   4.910  12.166 -0.4147 -0.1872  1.0385
  889MOL0     C17257  10.512   4.914  12.064  0.5669 -0.0724 -0.2658
  889MOL0     C17258  10.565   4.769  12.049  0.3456 -0.9243 -0.0141
  889MOL0     C17259  10.631   4.732  11.917  0.0443  0.3924 -0.4818
  889MOL0    Cl17260  10.789   4.829  11.900 -0.1105 -0.1324  0.4851
  889MOL0     C17261  10.017   5.679  12.208 -0.0055  0.3397  0.4968
  889MOL0     C17262  10.003   5.804  12.157 -0.1712 -1.5859  0.7940
  889MOL0     O17263   9.784   5.918  11.854  0.0046 -0.1998  0.6322
  889MOL0     C17264   9.809   6.199  11.768  0.0952 -0.5003  0.1577
  889MOL0     C17265   9.836   6.329  11.718 -0.6846  0.7392 -0.0905
  889MOL0     N17266  10.004   7.076  11.467  0.1588 -0.3265 -0.3625
  889MOL0     N17267   9.929   7.163  11.530 -0.2436  0.8211 -0.3541
  889MOL0     C17268  10.724   7.493  11.114  0.2815 -0.4867 -1.1629
  889MOL0     C17269  10.766   7.448  10.985  0.0515  0.0026  0.8527
  889MOL0     C17270  10.819   7.157  10.640  0.8781  0.5570  0.2685
  889MOL0     C17271  10.956   7.126  10.625 -0.4711  0.0504 -0.6405
  889MOL0     C17272  11.005   7.025  10.538  0.5938 -0.2490  0.5399
  889MOL0     C17273  10.911   6.951  10.462 -1.1889  0.7665 -0.0666
  889MOL0     O17274  10.946   6.837  10.392  0.2203 -0.0613 -0.2348
  889MOL0     C17275  11.042   6.754  10.460  0.2626 -0.0673  0.3959
  889MOL0     C17276  11.037   6.621  10.400  0.2924  0.3883 -0.7389
  889MOL0     C17277  11.118   6.604  10.263  0.4471 -0.3243 -0.2974
  889MOL0     C17278  11.277   6.585  10.293  0.2089 -0.5053  0.0024
  889MOL0     C17279  11.346   6.538  10.173  0.0139  0.0962 -0.8122
  889MOL0     C17280  11.407   6.502  10.079 -0.5463  0.2085  0.8034
  889MOL0     C17281  10.782   6.994  10.452 -0.9587 -0.8159 -0.0929
  889MOL0     C17282  10.729   7.089  10.553 -0.1745 -0.8946 -0.4884
  889MOL0     H17283  10.942   7.185  11.059 -1.2091 -0.3793  0.7014
  889MOL0     H17284  10.862   7.238  11.292 -1.6536  1.2087  1.1340
  889MOL0     H17285  10.527   7.530  11.305 -0.2597  0.0886 -0.1679
  889MOL0     H17286  10.653   7.649  11.355  1.1382 -1.3040 -1.7780
  889MOL0     H17287  10.494   7.642  11.530 -3.5164 -1.8761 -0.8828
  889MOL0     H17288  10.641   7.549  11.589  0.8457 -0.4410  0.2205
  889MOL0     H17289  10.500   7.378  11.631 -0.0558 -1.4177 -1.2417
  889MOL0     H17290  10.428   7.360  11.475 -1.7512  1.0710 -0.9685
  889MOL0     H17291  10.335   7.555  11.683 -2.3441  1.2403 -0.4102
  889MOL0     H17292  10.269   7.553  11.529 -0.3299  0.1042  0.6129
  889MOL0     H17293  10.271   7.328  11.733  0.2475 -0.9374  0.2272
  889MOL0     H17294  10.200   7.298  11.575 -0.6268 -3.3413  2.8463
  889MOL0     H17295  10.029   7.461  11.597 -0.2310  2.3578  2.0506
  889MOL0     H17296  10.116   7.543  11.727  3.1598 -0.5192 -1.8765
  889MOL0     H17297  10.104   7.354  11.872 -1.0703 -1.4560  1.2562
  889MOL0     H17298   9.956   7.454  11.851 -1.6738 -2.5995  2.5817
  889MOL0     H17299   9.846   7.308  11.717 -0.9936 -0.6982  1.4656
  889MOL0     H17300   9.907   7.194  11.842 -0.6140 -0.1443 -1.0551
  889MOL0     H17301  10.147   7.090  11.766  0.9722  3.0011 -1.1405
  889MOL0     H17302  10.316   6.952  11.507 -0.6166  2.6845 -1.2833
  889MOL0     H17303  10.187   6.874  11.429  1.1177  0.3171 -0.0947
  889MOL0     H17304  10.251   6.834  11.716 -0.1061 -0.4454  0.6682
  889MOL0     H17305  10.293   6.732  11.576  0.9216  1.1891  0.7745
  889MOL0     H17306  10.034   6.757  11.719 -0.0500 -0.6381  0.4626
  889MOL0     H17307  10.026   6.749  11.541  1.8680  2.5594 -1.2933
  889MOL0     H17308  10.154   6.546  11.739 -1.6238  0.9956  1.7292
  889MOL0     H17309  10.146   6.526  11.558 -0.7757 -1.1009  0.2892
  889MOL0     H17310  10.168   6.333  11.770 -0.6533  1.4743  0.1871
  889MOL0     H17311  10.115   6.115  11.872  0.4216  1.0062  1.2242
  889MOL0     H17312  10.011   5.743  11.833 -2.1511  2.1785  1.3526
  889MOL0     H17313  10.048   5.505  11.913 -1.6024  0.4609 -0.7437
  889MOL0     H17314  10.240   5.406  12.051  0.2482 -1.9381  1.1214
  889MOL0     H17315  10.096   5.311  12.004 -1.2604 -0.1280 -0.2337
  889MOL0     H17316  10.090   5.202  12.224 -0.6455  2.6474  1.1783
  889MOL0     H17317  10.241   5.274  12.264 -2.7474  1.0564  1.3669
  889MOL0     H17318  10.333   5.185  12.039 -1.8784 -0.3844 -0.6972
  889MOL0     H17319  10.199   5.071  12.044 -0.5013  0.4256 -0.4158
  889MOL0     H17320  10.421   5.096  12.248 -0.9227 -1.0626 -1.1289
  889MOL0     H17321  10.256   5.021  12.283  0.5130 -1.0089  0.8227
  889MOL0     H17322  10.303   4.869  12.113 -0.5270  0.5055  0.6646
  889MOL0     H17323  10.404   4.855  12.259  0.2389 -0.3324  0.8528
  889MOL0     H17324  10.587   4.989  12.092  0.3076 -0.0494  0.3906
  889MOL0     H17325  10.475   4.953  11.969  0.8018  1.5896  0.2844
  889MOL0     H17326  10.629   4.747  12.135 -3.0286 -0.5611  2.8009
  889MOL0     H17327  10.479   4.703  12.062 -0.7371 -0.3849 -3.3262
  889MOL0     H17328  10.557   4.746  11.838  0.0669  4.2697 -0.0138
  889MOL0     H17329  10.644   4.625  11.937  0.3050  0.7120  1.2870
  889MOL0     H17330  10.019   5.652  12.313  1.6796  0.1638  0.4460
  889MOL0     H17331  10.008   5.897  12.214 -1.5751 -0.2174 -1.1616
  889MOL0     H17332   9.709   6.158  11.777  0.1619 -0.2575  2.8076
  889MOL0     H17333   9.750   6.389  11.690 -1.6357 -0.1714  0.8069
  889MOL0     H17334  10.670   7.587  11.112  2.6631  1.2464  2.7043
  889MOL0     H17335  10.730   7.500  10.896  0.9040 -0.1372  0.4189
  889MOL0     H17336  11.032   7.178  10.682  0.9432 -1.2472 -1.2568
  889MOL0     H17337  11.106   6.988  10.545  0.3205 -1.2839 -0.6959
  889MOL0     H17338  11.015   6.746  10.566  1.7352  1.5286  0.9380
  889MOL0     H17339  11.145   6.786  10.443  0.0850 -1.0517 -3.3189
  889MOL0     H17340  11.075   6.545  10.470 -0.5130  0.6563  0.0106
  889MOL0     H17341  10.933   6.597  10.379 -0.1709 -1.4369  2.7734
  889MOL0     H17342  11.108   6.690  10.195  2.6341 -0.5122 -0.9325
  889MOL0     H17343  11.084   6.514  10.210 -0.0909  0.1405 -0.7524
  889MOL0     H17344  11.307   6.686  10.321 -0.3472 -0.1472 -0.6911
  889MOL0     H17345  11.288   6.503  10.366 -3.7319  0.4451  1.9148
  889MOL0     H17346  11.468   6.482   9.994 -1.9905  0.9573 -0.4653
  889MOL0     H17347  10.713   6.938  10.389 -1.0776  1.0909 -1.7818
  889MOL0     H17348  10.627   7.123  10.544  0.2915  1.3550  1.7576
  890MOL0     O17349   3.937  11.274   9.161 -0.5512  0.2525 -0.6378
  890MOL0     C17350   3.819  11.291   9.163 -0.3018 -0.1963  0.0244
  890MOL0     O17351   3.736  11.307   9.054  0.6815  0.2628 -0.1186
  890MOL0     C17352   3.774  11.308   8.927 -0.0236 -0.3736  0.3323
  890MOL0     C17353   3.901  11.361   8.880  0.6255 -0.7654 -0.2009
  890MOL0     C17354   3.930  11.363   8.744  0.2906  0.9342 -0.4473
  890MOL0     C17355   3.832  11.310   8.654  0.7822 -0.6103 -0.3773
  890MOL0     O17356   3.852  11.293   8.514 -0.0479 -0.2069 -0.2950
  890MOL0     C17357   3.938  11.380   8.444 -0.2625 -0.0129 -0.0002
  890MOL0     C17358   3.851  11.460   8.338 -0.4037 -0.3480 -1.6560
  890MOL0     C17359   3.746  11.538   8.410  1.6032  1.6128 -0.7234
  890MOL0     C17360   3.641  11.610   8.326 -0.4236  0.3860 -1.2104
  890MOL0     C17361   3.595  11.537   8.203  0.9220  0.3009  0.2732
  890MOL0     C17362   3.513  11.406   8.235 -0.8554  0.6685  0.4435
  890MOL0     C17363   3.388  11.434   8.301  0.0053 -0.4245  0.5232
  890MOL0     C17364   3.286  11.534   8.239 -0.8055 -1.0357  1.2631
  890MOL0     N17365   3.170  11.538   8.322  0.0984 -1.3188  0.0187
  890MOL0     C17366   3.159  11.635   8.425  0.4401 -0.4087  0.0684
  890MOL0     C17367   3.071  11.577   8.504 -0.1404  0.3895  1.3666
  890MOL0     C17368   3.029  11.630   8.645 -0.6595  0.7921  0.2256
  890MOL0     C17369   3.035  11.518   8.754 -0.2527  0.5108 -0.2039
  890MOL0     C17370   3.167  11.439   8.768 -0.7576  0.0089  0.5955
  890MOL0     C17371   3.290  11.520   8.784 -0.1897  1.1134  0.0295
  890MOL0     O17372   3.382  11.454   8.877 -0.1404  0.7558  0.3194
  890MOL0     C17373   3.343  11.440   9.010  0.5381  0.1441 -0.7234
  890MOL0     C17374   3.301  11.556   9.078 -0.6215  0.4254 -0.4898
  890MOL0     C17375   3.247  11.547   9.207 -0.3578  0.0140  0.3515
  890MOL0     C17376   3.227  11.432   9.269  1.1210  0.7620  0.4746
  890MOL0     C17377   3.178  11.433   9.409 -0.1004 -0.2008  0.5102
  890MOL0     O17378   3.135  11.547   9.470 -0.2393  0.1728  0.0395
  890MOL0     C17379   3.103  11.562   9.602 -0.2057 -1.0853 -1.3740
  890MOL0     C17380   3.027  11.468   9.677 -0.5571 -0.1004 -0.1892
  890MOL0     C17381   2.979  11.496   9.800 -0.9676  0.9462 -0.4799
  890MOL0     C17382   2.991  11.631   9.843  0.1911 -0.5907  0.6534
  890MOL0     O17383   2.921  11.674   9.959  0.6061 -0.3407 -0.2618
  890MOL0     C17384   2.796  11.749   9.930 -0.6413 -0.7119 -0.0911
  890MOL0     C17385   2.776  11.853  10.037 -0.1100 -0.4845 -0.0348
  890MOL0     C17386   2.667  11.949   9.993 -0.9925  0.2825 -0.5111
  890MOL0     C17387   2.620  12.037  10.112 -0.1035  0.7207 -1.2315
  890MOL0     C17388   2.474  12.095  10.100  0.1344 -0.2308  0.3594
  890MOL0     C17389   2.367  11.990  10.127  1.1168  0.3961  1.0225
  890MOL0     C17390   2.233  12.048  10.154 -0.6920 -0.3217  0.1735
  890MOL0     C17391   2.124  11.938  10.140 -0.7580 -0.5172 -0.7876
  890MOL0    Cl17392   1.967  12.033  10.128  0.0301 -0.4426  0.3025
  890MOL0     C17393   3.059  11.730   9.767 -0.1403 -0.2157 -0.0943
  890MOL0     C17394   3.112  11.690   9.642 -1.2251 -0.1064 -0.9074
  890MOL0     O17395   3.173  11.322   9.456 -0.2306  0.8242 -0.1950
  890MOL0     C17396   3.253  11.309   9.195 -0.7602 -0.7414  1.3016
  890MOL0     C17397   3.321  11.315   9.074  0.2815 -0.1603  0.3496
  890MOL0     N17398   3.019  11.457   8.454 -0.1093  0.5595  0.3996
  890MOL0     N17399   3.067  11.442   8.334 -0.1037 -0.6142 -0.2036
  890MOL0     C17400   3.711  11.261   8.697 -0.3390 -0.1615 -0.0564
  890MOL0     C17401   3.682  11.269   8.836  0.2001  0.3928  0.2836
  890MOL0     C17402   3.752  11.286   9.296 -0.1635 -0.5828  0.6014
  890MOL0     C17403   3.818  11.299   9.420 -0.5509 -0.7266 -0.3353
  890MOL0     C17404   3.744  11.305   9.547  0.8756 -0.2610  0.1771
  890MOL0     C17405   3.605  11.299   9.545  0.5624 -1.0314 -0.9469
  890MOL0     O17406   3.553  11.305   9.675 -0.0258 -0.0423  0.9208
  890MOL0     C17407   3.414  11.337   9.674 -0.3759 -0.2413  0.0918
  890MOL0     C17408   3.371  11.353   9.815  0.1017 -0.3328  0.2332
  890MOL0     C17409   3.381  11.498   9.850  0.3316 -0.6099 -0.1398
  890MOL0     C17410   3.305  11.518   9.983 -0.1557 -0.9522 -0.6265
  890MOL0     C17411   3.375  11.477  10.101 -0.8356 -1.2495 -0.9360
  890MOL0     C17412   3.455  11.449  10.191 -0.6653  0.6507 -0.0293
  890MOL0     C17413   3.537  11.280   9.422 -0.4829 -1.0642  0.0641
  890MOL0     C17414   3.602  11.278   9.301 -0.1376  0.8136 -0.0929
  890MOL0     H17415   3.970  11.406   8.951 -1.3532 -0.8058  1.8695
  890MOL0     H17416   4.024  11.403   8.708  0.8353 -2.2250 -2.9850
  890MOL0     H17417   4.006  11.309   8.396  0.1194 -0.1553  0.7470
  890MOL0     H17418   4.002  11.444   8.506 -0.8267 -0.4497  1.0593
  890MOL0     H17419   3.809  11.382   8.273 -2.1197 -0.9378  0.0672
  890MOL0     H17420   3.911  11.529   8.279 -0.1740 -0.2676 -1.3305
  890MOL0     H17421   3.784  11.613   8.480 -0.0266 -0.7823  3.1172
  890MOL0     H17422   3.684  11.471   8.471 -1.8928  5.0860 -0.0283
  890MOL0     H17423   3.555  11.636   8.388 -0.2235  2.4532 -1.7196
  890MOL0     H17424   3.682  11.705   8.292 -1.5355  0.7626 -1.5574
  890MOL0     H17425   3.686  11.523   8.145  0.2310 -1.3459 -0.4604
  890MOL0     H17426   3.523  11.596   8.145 -2.5084 -3.1902  0.5536
  890MOL0     H17427   3.576  11.333   8.287  0.7646  0.5636 -1.5693
  890MOL0     H17428   3.486  11.363   8.138  2.5269  0.8538 -0.7100
  890MOL0     H17429   3.331  11.340   8.302  0.2063 -0.5987 -1.1482
  890MOL0     H17430   3.410  11.463   8.404  0.3863 -1.5956  0.7871
  890MOL0     H17431   3.239  11.524   8.140 -1.0169  1.0598  1.1094
  890MOL0     H17432   3.329  11.634   8.225 -1.5558 -0.9588 -1.0123
  890MOL0     H17433   3.219  11.717   8.461 -1.3775  0.1637  1.9851
  890MOL0     H17434   2.926  11.666   8.646 -1.3418 -0.8907  3.5033
  890MOL0     H17435   3.084  11.720   8.675  0.3114  0.4683 -0.5353
  890MOL0     H17436   2.955  11.445   8.736 -1.4112  0.8156  2.9997
  890MOL0     H17437   2.994  11.554   8.849  2.1519  4.0111 -0.2956
  890MOL0     H17438   3.145  11.365   8.847 -0.0153 -0.4968  0.3395
  890MOL0     H17439   3.175  11.376   8.679 -2.1170  0.2132  0.3046
  890MOL0     H17440   3.276  11.624   8.816 -1.1016  0.1999  2.8918
  890MOL0     H17441   3.340  11.534   8.688 -0.8487 -1.4048 -0.7450
  890MOL0     H17442   3.304  11.657   9.037  0.0096  1.2964  1.5744
  890MOL0     H17443   3.245  11.647   9.251  2.6947  0.0367  0.6098
  890MOL0     H17444   3.014  11.366   9.641 -1.8963  0.2164 -0.6379
  890MOL0     H17445   2.927  11.422   9.859 -0.0327 -1.6705 -2.7022
  890MOL0     H17446   2.717  11.673   9.933  0.4861 -1.8769  1.4372
  890MOL0     H17447   2.807  11.795   9.831 -0.1557 -1.1624 -0.2494
  890MOL0     H17448   2.872  11.904  10.046 -0.5626  0.4849 -0.6497
  890MOL0     H17449   2.750  11.799  10.129 -2.9885  1.7664  0.6146
  890MOL0     H17450   2.577  11.889   9.978 -0.6016 -0.2319 -0.8285
  890MOL0     H17451   2.708  12.001   9.906 -1.8166 -0.1257 -1.1495
  890MOL0     H17452   2.610  11.980  10.205 -4.2577  2.0455 -0.6742
  890MOL0     H17453   2.696  12.114  10.132  1.7244 -1.5876  1.5306
  890MOL0     H17454   2.458  12.117   9.994 -0.5559 -1.0912  0.2750
  890MOL0     H17455   2.469  12.188  10.157 -0.5683 -0.2469  0.3309
  890MOL0     H17456   2.407  11.926  10.206  4.8869 -0.2247 -1.1196
  890MOL0     H17457   2.368  11.929  10.036 -0.3537  0.6577  0.8034
  890MOL0     H17458   2.238  12.088  10.255 -2.2181  0.9362 -0.2114
  890MOL0     H17459   2.218  12.120  10.072  1.1919 -4.0941 -3.9080
  890MOL0     H17460   2.110  11.868  10.223 -1.3289 -0.0014 -0.4430
  890MOL0     H17461   2.123  11.881  10.047  4.7835  0.7034 -1.9521
  890MOL0     H17462   3.063  11.835   9.795 -1.2129 -0.7554  2.3113
  890MOL0     H17463   3.154  11.778   9.594  0.1435  0.2837  0.8821
  890MOL0     H17464   3.230  11.207   9.224  0.3245 -1.5057 -0.3624
  890MOL0     H17465   3.348  11.223   9.023  1.8154  0.7718 -0.5944
  890MOL0     H17466   3.643  11.219   8.624  1.1465 -1.9497 -0.4682
  890MOL0     H17467   3.592  11.232   8.884  2.0259 -2.0999  2.0468
  890MOL0     H17468   3.925  11.315   9.419 -0.9645  2.6639 -1.3595
  890MOL0     H17469   3.799  11.343   9.633  2.4295  1.5463 -1.5216
  890MOL0     H17470   3.352  11.262   9.624  1.0480  0.2422 -2.5422
  890MOL0     H17471   3.407  11.430   9.617 -1.2071  0.6907  1.6246
  890MOL0     H17472   3.266  11.321   9.811 -0.0524 -0.0667  1.6058
  890MOL0     H17473   3.421  11.282   9.881  2.0573 -0.9218 -1.7718
  890MOL0     H17474   3.336  11.574   9.785 -1.7939  0.0772  2.0037
  890MOL0     H17475   3.487  11.523   9.859  0.5767 -0.7548 -2.2085
  890MOL0     H17476   3.256  11.616   9.990 -0.8563 -1.4124  2.4444
  890MOL0     H17477   3.208  11.468   9.995 -0.2955 -0.1623  2.3374
  890MOL0     H17478   3.515  11.429  10.278 -2.7940 -1.0678  1.1574
  890MOL0     H17479   3.429  11.262   9.422 -1.0122  1.6994  0.0907
  890MOL0     H17480   3.539  11.268   9.214 -0.5562  1.6307  0.1023
  891MOL0     O17481   5.972   3.378   7.319 -0.0010  0.3470  0.3984
  891MOL0     C17482   5.983   3.488   7.269  0.1987 -0.4010 -0.3578
  891MOL0     O17483   6.103   3.556   7.252  0.0082  0.3863  0.0824
  891MOL0     C17484   6.217   3.482   7.281  0.8959 -0.3356  0.3661
  891MOL0     C17485   6.280   3.404   7.183  0.0112 -0.0924  0.1552
  891MOL0     C17486   6.401   3.343   7.224  0.3168  0.7888 -0.1662
  891MOL0     C17487   6.462   3.356   7.343 -0.3771 -1.2328 -0.4940
  891MOL0     O17488   6.584   3.295   7.385  0.0287  0.2738 -0.2926
  891MOL0     C17489   6.690   3.382   7.426  0.2871 -0.2294  0.5521
  891MOL0     C17490   6.830   3.352   7.375 -0.2695  0.2408  0.1847
  891MOL0     C17491   6.882   3.227   7.461 -0.4202 -0.2532 -0.5089
  891MOL0     C17492   7.043   3.207   7.456  0.9559  0.0141  0.3541
  891MOL0     C17493   7.097   3.093   7.552 -0.1894  0.5162 -0.3606
  891MOL0     C17494   7.251   3.067   7.528  0.4630  0.3116  0.1689
  891MOL0     C17495   7.311   2.953   7.617 -1.0095  0.2187  0.5143
  891MOL0     C17496   7.315   2.994   7.762 -0.7967  0.1742 -0.7239
  891MOL0     N17497   7.382   2.903   7.848 -0.4373 -0.4082 -0.3427
  891MOL0     C17498   7.323   2.796   7.905 -0.8114 -0.8092  0.7735
  891MOL0     C17499   7.387   2.781   8.032  0.3941 -0.3237 -0.5836
  891MOL0     C17500   7.354   2.662   8.122  0.1627 -0.3706 -0.1891
  891MOL0     C17501   7.227   2.687   8.203 -0.0251 -0.6559 -0.2600
  891MOL0     C17502   7.254   2.789   8.316  0.6179  0.7204  0.1510
  891MOL0     C17503   7.153   2.782   8.431 -0.1600  0.9334 -0.6120
  891MOL0     O17504   7.010   2.772   8.393  1.0448 -0.7743 -1.1498
  891MOL0     C17505   6.907   2.768   8.485  0.4402  0.4714 -1.2594
  891MOL0     C17506   6.773   2.778   8.450 -0.3620  1.2743 -0.3239
  891MOL0     C17507   6.663   2.763   8.542  0.8820 -0.1190 -0.2494
  891MOL0     C17508   6.701   2.769   8.682  0.0565  0.7379 -0.0078
  891MOL0     C17509   6.593   2.784   8.779 -0.7185 -0.2450 -0.3661
  891MOL0     O17510   6.467   2.824   8.729  0.1897 -0.5950  0.4775
  891MOL0     C17511   6.364   2.832   8.813  0.1864  0.1572 -0.0689
  891MOL0     C17512   6.266   2.912   8.771 -0.3672 -0.2835  0.2031
  891MOL0     C17513   6.147   2.918   8.829 -0.0690 -0.5287 -0.6576
  891MOL0     C17514   6.123   2.839   8.950  0.6551  0.0412 -0.0333
  891MOL0     O17515   6.003   2.832   9.019  0.1615 -0.2865 -0.9013
  891MOL0     C17516   5.890   2.916   8.977 -0.0436 -0.1176 -0.9162
  891MOL0     C17517   5.891   3.047   9.041 -0.7122 -0.3982  0.0126
  891MOL0     C17518   5.838   3.062   9.176  0.5155  0.0295 -0.6396
  891MOL0     C17519   5.689   3.040   9.183  0.5749 -0.4046 -0.6105
  891MOL0     C17520   5.608   3.176   9.170 -0.0629 -0.7214  0.6108
  891MOL0     C17521   5.608   3.264   9.303  0.4138  0.1440 -0.7668
  891MOL0     C17522   5.501   3.204   9.395  0.5519 -0.2384  0.1932
  891MOL0     C17523   5.500   3.279   9.531 -0.1928  0.6801  1.8190
  891MOL0    Cl17524   5.347   3.234   9.620 -0.0171  0.0656 -0.0167
  891MOL0     C17525   6.224   2.756   8.997 -0.1191 -0.3668  0.3516
  891MOL0     C17526   6.349   2.753   8.927 -0.2253 -0.3776 -0.1763
  891MOL0     O17527   6.627   2.757   8.897 -0.8680  0.5415  0.2573
  891MOL0     C17528   6.836   2.752   8.716  0.0826  0.7826  1.2886
  891MOL0     C17529   6.939   2.757   8.624  1.4505 -0.7513 -0.6065
  891MOL0     N17530   7.477   2.882   8.045 -0.7261 -0.6576  0.3519
  891MOL0     N17531   7.485   2.944   7.933 -0.4943 -0.2327 -0.1038
  891MOL0     C17532   6.390   3.435   7.435  0.4508 -0.0140 -0.5920
  891MOL0     C17533   6.276   3.503   7.405  0.6447  0.0297  0.5049
  891MOL0     C17534   5.864   3.550   7.205 -0.1118  1.2355 -0.3383
  891MOL0     C17535   5.867   3.678   7.154 -0.6846  0.8767 -0.1827
  891MOL0     C17536   5.753   3.723   7.080  0.5894 -0.4405 -0.0525
  891MOL0     C17537   5.634   3.650   7.056 -0.3875  0.0345  0.0639
  891MOL0     O17538   5.534   3.688   6.969  0.1406  0.1883 -0.3789
  891MOL0     C17539   5.512   3.617   6.842  0.1775 -0.2724 -1.4197
  891MOL0     C17540   5.360   3.570   6.848  0.3500 -0.1634  0.0834
  891MOL0     C17541   5.266   3.693   6.831 -0.1594  0.4926 -0.0942
  891MOL0     C17542   5.113   3.652   6.821  0.6738  0.4856  1.1811
  891MOL0     C17543   5.068   3.620   6.682  0.1303  0.8957  0.1309
  891MOL0     C17544   5.039   3.564   6.577  0.4692 -0.3694  0.9205
  891MOL0     C17545   5.626   3.527   7.121 -0.0195  0.6670  1.1045
  891MOL0     C17546   5.738   3.474   7.187 -0.5416 -0.1579  0.0051
  891MOL0     H17547   6.242   3.392   7.082  0.9770 -1.3504 -0.0811
  891MOL0     H17548   6.456   3.272   7.163  0.3213 -0.7528  1.5301
  891MOL0     H17549   6.689   3.366   7.534 -0.2938 -0.1813  0.5574
  891MOL0     H17550   6.670   3.488   7.408 -1.0643 -0.4927  0.4143
  891MOL0     H17551   6.891   3.434   7.411 -0.1881  0.1862  0.1719
  891MOL0     H17552   6.843   3.330   7.268  0.0114  0.2269  0.2215
  891MOL0     H17553   6.829   3.134   7.439  0.9547 -1.4419  0.9397
  891MOL0     H17554   6.860   3.236   7.567  2.2896  1.7408  0.0003
  891MOL0     H17555   7.062   3.178   7.352 -0.3613  0.9518 -0.1733
  891MOL0     H17556   7.108   3.290   7.487  1.4466 -0.9469  2.0212
  891MOL0     H17557   7.039   3.001   7.539 -0.3359  0.6098 -0.3685
  891MOL0     H17558   7.085   3.129   7.654 -1.8886  2.8652 -1.2934
  891MOL0     H17559   7.307   3.160   7.543 -0.6857  1.3280 -1.4535
  891MOL0     H17560   7.260   3.040   7.422  3.3138 -0.0252  0.4261
  891MOL0     H17561   7.245   2.866   7.618 -0.7570 -0.0067 -0.4185
  891MOL0     H17562   7.413   2.928   7.585 -0.2422 -0.6582  3.3630
  891MOL0     H17563   7.217   3.006   7.810 -0.3617 -2.6600  1.1686
  891MOL0     H17564   7.362   3.092   7.766 -0.5308  0.1094  4.3018
  891MOL0     H17565   7.239   2.736   7.871 -1.0952 -0.9031  1.6134
  891MOL0     H17566   7.442   2.629   8.178 -0.0633 -0.5906  0.0361
  891MOL0     H17567   7.324   2.586   8.049 -1.7985 -1.8539  2.0331
  891MOL0     H17568   7.192   2.591   8.242  0.6221 -0.1881  1.5708
  891MOL0     H17569   7.147   2.717   8.133 -2.0427 -2.2298  1.2495
  891MOL0     H17570   7.360   2.772   8.336 -0.0326 -3.9719  0.7877
  891MOL0     H17571   7.244   2.891   8.277  0.0251  0.2881 -0.8604
  891MOL0     H17572   7.172   2.868   8.497  3.0095  0.2650 -0.5070
  891MOL0     H17573   7.173   2.698   8.499 -0.3848  0.7297 -0.7967
  891MOL0     H17574   6.759   2.781   8.342 -0.1376 -1.4177 -0.4759
  891MOL0     H17575   6.561   2.773   8.506  0.7538  0.5456  0.2656
  891MOL0     H17576   6.290   2.975   8.686  1.4519 -1.0364  0.1189
  891MOL0     H17577   6.079   2.997   8.800  1.0387  1.3708  1.5660
  891MOL0     H17578   5.802   2.855   8.996 -0.0386  0.0425 -0.3586
  891MOL0     H17579   5.897   2.925   8.868  0.0510 -2.1431 -1.1075
  891MOL0     H17580   5.847   3.126   8.979 -1.8989 -0.1250  1.1675
  891MOL0     H17581   5.997   3.075   9.045 -0.8199 -0.0850  0.7168
  891MOL0     H17582   5.858   3.160   9.220  1.1992  1.0396 -3.0383
  891MOL0     H17583   5.894   2.993   9.240  1.1266  1.0870 -0.0091
  891MOL0     H17584   5.669   2.975   9.097  1.9441 -0.3072 -1.0289
  891MOL0     H17585   5.649   2.980   9.265  0.9377 -1.4350 -1.1632
  891MOL0     H17586   5.507   3.162   9.129  0.1202  0.5155 -0.3468
  891MOL0     H17587   5.641   3.226   9.078 -2.3764 -2.0410 -1.0452
  891MOL0     H17588   5.582   3.367   9.278 -1.6558 -0.1521  0.0001
  891MOL0     H17589   5.709   3.245   9.340  1.6715  1.0275 -3.4571
  891MOL0     H17590   5.407   3.220   9.342  1.1631  1.8780 -0.3233
  891MOL0     H17591   5.509   3.096   9.413 -0.5404 -0.3126  0.2717
  891MOL0     H17592   5.499   3.384   9.501 -0.8134 -0.4712 -2.9684
  891MOL0     H17593   5.588   3.241   9.584  0.7139 -1.9837 -1.2316
  891MOL0     H17594   6.217   2.685   9.079  0.9241 -1.1781 -0.2479
  891MOL0     H17595   6.426   2.686   8.964 -1.0557 -1.2131  0.0640
  891MOL0     H17596   6.872   2.739   8.817 -1.5563  1.3172  1.9774
  891MOL0     H17597   7.042   2.756   8.659  1.4614 -1.6183 -0.6336
  891MOL0     H17598   6.423   3.448   7.538  2.0578 -0.4017 -1.0301
  891MOL0     H17599   6.231   3.573   7.475  1.1109  1.5156 -0.6188
  891MOL0     H17600   5.968   3.719   7.162 -0.1524 -0.6898  2.0275
  891MOL0     H17601   5.783   3.815   7.033  2.7824 -0.0296  1.9325
  891MOL0     H17602   5.578   3.530   6.835  0.2743 -0.7827  2.9786
  891MOL0     H17603   5.529   3.688   6.760  0.7090  2.8144  1.1387
  891MOL0     H17604   5.343   3.506   6.761  2.8217 -4.0180  2.1301
  891MOL0     H17605   5.331   3.517   6.939 -3.3207 -1.2670 -1.5394
  891MOL0     H17606   5.287   3.752   6.741 -0.4226  0.8203  0.0580
  891MOL0     H17607   5.284   3.760   6.915 -0.3554  0.4142  0.0117
  891MOL0     H17608   5.098   3.566   6.887 -0.4873  1.1102  1.7612
  891MOL0     H17609   5.041   3.726   6.857 -3.7925 -3.3654  1.1055
  891MOL0     H17610   5.024   3.513   6.484 -4.2136  1.4883  0.3714
  891MOL0     H17611   5.525   3.487   7.126  0.1439  0.2648  1.1873
  891MOL0     H17612   5.729   3.374   7.227 -1.3897 -1.1104 -2.4103
  892MOL0     O17613   5.907  11.062   9.706 -0.4598 -0.1926  0.8031
  892MOL0     C17614   5.846  11.165   9.664 -0.0464  0.8757 -0.6077
  892MOL0     O17615   5.711  11.170   9.649  0.1289  0.3002 -0.5990
  892MOL0     C17616   5.644  11.051   9.664  1.2725 -0.2487 -1.0962
  892MOL0     C17617   5.641  10.953   9.566 -0.5216  0.1159  0.2051
  892MOL0     C17618   5.600  10.822   9.600 -0.5233 -0.4868 -0.3862
  892MOL0     C17619   5.570  10.792   9.734 -0.4499  0.5878 -0.0618
  892MOL0     O17620   5.549  10.665   9.785 -0.1777 -0.0965 -0.5972
  892MOL0     C17621   5.545  10.548   9.691  0.8878 -0.2526 -0.5240
  892MOL0     C17622   5.403  10.497   9.651  0.2104 -0.0444 -0.9129
  892MOL0     C17623   5.306  10.474   9.765 -0.4069 -0.3171  0.3229
  892MOL0     C17624   5.185  10.394   9.746  0.7225 -0.4053 -0.7812
  892MOL0     C17625   5.078  10.464   9.656  0.6867  0.1071 -0.2456
  892MOL0     C17626   4.941  10.391   9.677 -0.0659  0.2139  0.9829
  892MOL0     C17627   4.807  10.462   9.618 -0.8115 -0.4015  0.8271
  892MOL0     C17628   4.673  10.392   9.673  0.1199 -0.5422 -0.0660
  892MOL0     N17629   4.698  10.250   9.648  0.1728  0.0970  0.3584
  892MOL0     C17630   4.672  10.188   9.527 -0.2490  0.0185  0.2260
  892MOL0     C17631   4.719  10.057   9.549 -0.9280 -0.4429 -0.5766
  892MOL0     C17632   4.697   9.944   9.455 -0.3801 -0.6428 -0.4431
  892MOL0     C17633   4.553   9.940   9.407 -0.0162  0.2767  0.6634
  892MOL0     C17634   4.497   9.802   9.389  0.1879 -0.0549  0.2286
  892MOL0     C17635   4.539   9.735   9.248 -1.1333 -0.2700 -1.0256
  892MOL0     O17636   4.534   9.827   9.134 -0.1729  0.3932 -1.4686
  892MOL0     C17637   4.429   9.805   9.051  0.2228 -0.1702  0.4140
  892MOL0     C17638   4.295   9.842   9.080 -0.5962  0.1338 -0.4969
  892MOL0     C17639   4.194   9.841   8.991 -0.8759 -0.3069 -0.3184
  892MOL0     C17640   4.220   9.790   8.859  0.3173  0.0681 -0.1217
  892MOL0     C17641   4.104   9.778   8.765  0.0601  0.6276 -0.6970
  892MOL0     O17642   4.111   9.678   8.674  0.2099 -0.4968  0.5739
  892MOL0     C17643   4.035   9.689   8.562 -0.1083  0.6747 -0.1907
  892MOL0     C17644   4.011   9.567   8.502 -0.0201 -0.3810  0.0042
  892MOL0     C17645   3.930   9.563   8.393 -0.8552 -0.2438  0.7416
  892MOL0     C17646   3.882   9.676   8.329  0.4600  0.6432  0.7038
  892MOL0     O17647   3.791   9.674   8.222 -0.5004 -0.7767 -0.0375
  892MOL0     C17648   3.762   9.554   8.153 -0.3430  0.2870 -0.3575
  892MOL0     C17649   3.707   9.579   8.012  1.1884  0.4457 -0.2633
  892MOL0     C17650   3.808   9.650   7.910  0.4158 -0.3410  0.2336
  892MOL0     C17651   3.751   9.650   7.764 -0.2445  0.4836  0.2449
  892MOL0     C17652   3.840   9.725   7.661  0.0861 -0.1983 -0.5734
  892MOL0     C17653   3.983   9.683   7.675 -0.1917  0.3014  0.8166
  892MOL0     C17654   4.067   9.729   7.565  0.4138  0.3198  0.2291
  892MOL0     C17655   4.126   9.865   7.578 -0.2923 -0.2790  0.0348
  892MOL0    Cl17656   4.211   9.879   7.730  0.1193 -0.3746 -0.5866
  892MOL0     C17657   3.911   9.799   8.375 -0.1181 -0.1433 -0.6203
  892MOL0     C17658   3.998   9.802   8.495 -0.2202  0.1811  0.5908
  892MOL0     O17659   4.002   9.842   8.787 -0.0005 -0.6561  0.2931
  892MOL0     C17660   4.349   9.734   8.831  0.4159  0.1240 -0.4260
  892MOL0     C17661   4.445   9.748   8.924 -0.0658 -0.4221  0.6143
  892MOL0     N17662   4.758  10.038   9.681  0.0737  0.4178 -0.3889
  892MOL0     N17663   4.754  10.157   9.735 -0.1593 -0.1851  0.4938
  892MOL0     C17664   5.575  10.891   9.826 -0.0884  1.2244 -0.2665
  892MOL0     C17665   5.611  11.025   9.798  0.9424  0.6025  0.5724
  892MOL0     C17666   5.917  11.286   9.633 -0.3962 -0.2450  0.3353
  892MOL0     C17667   6.059  11.288   9.640 -0.8475 -0.4458 -0.1215
  892MOL0     C17668   6.126  11.402   9.604 -0.1032 -0.1363 -0.1211
  892MOL0     C17669   6.056  11.513   9.550  0.2555 -0.3076 -0.3425
  892MOL0     O17670   6.123  11.618   9.503 -0.1358 -0.2027 -0.2968
  892MOL0     C17671   6.117  11.738   9.583  0.4060  1.3078 -0.5329
  892MOL0     C17672   6.218  11.841   9.535  0.0379 -0.5188  0.4481
  892MOL0     C17673   6.175  11.898   9.395 -0.2965  0.0499  0.3742
  892MOL0     C17674   6.045  11.975   9.391  0.9418  0.0608 -0.3260
  892MOL0     C17675   5.935  11.889   9.341 -0.4402 -0.1455  0.8776
  892MOL0     C17676   5.854  11.817   9.282 -1.0017 -0.1045 -0.2563
  892MOL0     C17677   5.914  11.512   9.546  0.5230 -0.3179  0.0960
  892MOL0     C17678   5.849  11.407   9.590  0.3507  0.7267 -1.5855
  892MOL0     H17679   5.674  10.978   9.465 -0.9203  0.3718  0.1355
  892MOL0     H17680   5.616  10.745   9.525 -0.5216 -0.1443 -0.7405
  892MOL0     H17681   5.590  10.464   9.744 -0.8597 -1.8776 -1.5149
  892MOL0     H17682   5.605  10.562   9.600  0.7377  3.8106 -0.1824
  892MOL0     H17683   5.409  10.402   9.597 -2.3136  0.0498 -1.4975
  892MOL0     H17684   5.352  10.565   9.582 -0.3223 -0.6134 -1.0907
  892MOL0     H17685   5.270  10.575   9.788  1.3992  0.2674  0.7527
  892MOL0     H17686   5.357  10.426   9.849  0.6372  2.6029  1.4830
  892MOL0     H17687   5.194  10.291   9.711  0.7323 -0.2429 -1.2583
  892MOL0     H17688   5.140  10.383   9.845 -0.8303  2.1600 -1.1193
  892MOL0     H17689   5.097  10.445   9.550  2.8234 -2.1214  0.4471
  892MOL0     H17690   5.072  10.572   9.676 -0.2902  0.3703 -1.8056
  892MOL0     H17691   4.924  10.391   9.785  2.4042  2.5549  1.4831
  892MOL0     H17692   4.950  10.288   9.640 -1.7967 -0.9121  3.4336
  892MOL0     H17693   4.803  10.567   9.647 -2.4056  0.8209 -3.2684
  892MOL0     H17694   4.806  10.457   9.509 -0.2746 -3.5920  0.8658
  892MOL0     H17695   4.595  10.429   9.606 -0.8304  0.5879  1.6121
  892MOL0     H17696   4.657  10.416   9.779  3.7856  0.1022  0.4902
  892MOL0     H17697   4.622  10.224   9.437  1.6480  0.4010 -0.7167
  892MOL0     H17698   4.725   9.855   9.513  0.5452 -0.0970 -0.0265
  892MOL0     H17699   4.763   9.948   9.367  0.5735 -0.1087  0.2767
  892MOL0     H17700   4.526  10.013   9.330  0.3264 -0.3338 -0.0451
  892MOL0     H17701   4.499   9.974   9.496 -3.7498  1.3892 -1.7954
  892MOL0     H17702   4.523   9.735   9.472  2.6024  2.3891  1.6336
  892MOL0     H17703   4.389   9.810   9.404  0.3367  1.9351  0.5638
  892MOL0     H17704   4.474   9.647   9.248 -0.9422 -0.4159 -2.1704
  892MOL0     H17705   4.646   9.716   9.249 -1.3771 -1.9668 -2.8354
  892MOL0     H17706   4.274   9.880   9.180  1.7326 -0.1819  0.1665
  892MOL0     H17707   4.098   9.884   9.015 -0.4979  0.0004  0.7138
  892MOL0     H17708   4.045   9.476   8.550 -1.6528 -0.8654  0.3206
  892MOL0     H17709   3.922   9.462   8.354  0.2282 -1.6118  3.7408
  892MOL0     H17710   3.698   9.491   8.214  1.8972  0.2103  2.0908
  892MOL0     H17711   3.859   9.504   8.139 -0.3371 -0.6612  2.5412
  892MOL0     H17712   3.616   9.639   8.028  1.0076  0.1090 -0.0265
  892MOL0     H17713   3.676   9.485   7.966  2.1341  0.2942 -0.5997
  892MOL0     H17714   3.900   9.591   7.912 -2.2537 -4.9757  2.8232
  892MOL0     H17715   3.827   9.749   7.953 -1.0801 -0.2799  0.7936
  892MOL0     H17716   3.732   9.550   7.725 -1.9237  0.9052 -0.0956
  892MOL0     H17717   3.656   9.705   7.764 -0.8845 -0.5893 -0.5049
  892MOL0     H17718   3.835   9.834   7.673 -0.9461 -0.2668 -0.2965
  892MOL0     H17719   3.796   9.695   7.565 -2.8557 -1.5620  1.0679
  892MOL0     H17720   3.979   9.574   7.662  0.0683  0.1376  1.9984
  892MOL0     H17721   4.032   9.710   7.769  0.5485  0.9970  0.2433
  892MOL0     H17722   4.150   9.660   7.551 -1.5616 -2.1534  0.0897
  892MOL0     H17723   4.024   9.729   7.465  0.1146  2.3936  0.3126
  892MOL0     H17724   4.054   9.946   7.595  1.4650  0.8937  2.7464
  892MOL0     H17725   4.183   9.897   7.491 -3.2583  1.1656 -1.5176
  892MOL0     H17726   3.879   9.890   8.325  0.2670  1.6619  2.1875
  892MOL0     H17727   4.044   9.899   8.509  0.3525 -0.0032  0.0264
  892MOL0     H17728   4.368   9.681   8.739  1.0446 -1.7188  0.7119
  892MOL0     H17729   4.545   9.721   8.891  1.1521  3.6303  0.4615
  892MOL0     H17730   5.552  10.873   9.931 -2.1767 -2.5949 -1.2073
  892MOL0     H17731   5.642  11.084   9.883  4.7924  0.6131 -0.6468
  892MOL0     H17732   6.105  11.197   9.677 -1.0247 -0.7221 -0.5875
  892MOL0     H17733   6.234  11.408   9.605 -0.0998  0.4775 -1.2932
  892MOL0     H17734   6.146  11.724   9.687 -3.5038  1.6004  0.7414
  892MOL0     H17735   6.015  11.777   9.576  0.2333  0.9710  0.0414
  892MOL0     H17736   6.227  11.922   9.609  1.5691 -0.8652  0.6727
  892MOL0     H17737   6.319  11.803   9.518 -0.6035 -0.4730 -5.3562
  892MOL0     H17738   6.192  11.823   9.316  1.1048 -1.7062  2.2330
  892MOL0     H17739   6.252  11.969   9.364  0.8526 -0.0782  2.6915
  892MOL0     H17740   6.013  12.014   9.488  1.3012  1.0416 -0.5852
  892MOL0     H17741   6.055  12.049   9.311  2.3101 -1.6738 -1.8461
  892MOL0     H17742   5.776  11.751   9.249  0.6858 -2.8528  0.9793
  892MOL0     H17743   5.861  11.597   9.504  0.4792  1.1059  2.7848
  892MOL0     H17744   5.741  11.411   9.602  0.6246  0.1177  3.9588
  893MOL0     O17745   2.494   2.738  10.419 -0.2033 -1.0277 -0.0051
  893MOL0     C17746   2.585   2.783  10.495 -0.3446  1.3011 -1.0791
  893MOL0     O17747   2.683   2.713  10.556 -0.1758  0.3251  0.1112
  893MOL0     C17748   2.685   2.576  10.548  0.6268  0.0386  0.1544
  893MOL0     C17749   2.716   2.516  10.432  0.3026 -1.3735  0.8943
  893MOL0     C17750   2.742   2.384  10.429 -0.4190  0.0365  0.1320
  893MOL0     C17751   2.729   2.309  10.551 -0.8854 -0.0196 -0.0420
  893MOL0     O17752   2.742   2.168  10.554  0.7367  0.5813 -0.0182
  893MOL0     C17753   2.882   2.140  10.601  0.3238 -0.6361  0.5202
  893MOL0     C17754   2.885   2.036  10.711 -0.3189 -0.9842  0.0745
  893MOL0     C17755   2.985   2.069  10.827  0.8566 -0.1113  0.0430
  893MOL0     C17756   2.923   2.173  10.916  0.5323 -0.2364  0.2015
  893MOL0     C17757   2.820   2.124  11.018 -0.3011  0.5637  0.3222
  893MOL0     C17758   2.869   2.027  11.125  0.0707 -0.6175 -0.2769
  893MOL0     C17759   2.754   1.930  11.173 -0.4993 -0.6051 -0.4980
  893MOL0     C17760   2.751   1.895  11.314 -0.7126  0.1193  0.9977
  893MOL0     N17761   2.866   1.810  11.351  0.1798  0.3648  0.1429
  893MOL0     C17762   2.907   1.695  11.293 -0.2066  0.1962  0.8978
  893MOL0     C17763   3.013   1.667  11.366  0.2995 -1.4585  0.5655
  893MOL0     C17764   3.080   1.534  11.350  0.2536 -0.1314  0.8784
  893MOL0     C17765   3.183   1.531  11.225  0.1962 -0.4775 -0.5956
  893MOL0     C17766   3.302   1.627  11.253  1.0628  0.1331 -0.5704
  893MOL0     C17767   3.428   1.575  11.185 -0.4968 -0.3064  0.4848
  893MOL0     O17768   3.390   1.550  11.043 -0.4450  0.3431  0.3437
  893MOL0     C17769   3.477   1.502  10.949  0.0823  0.6441  0.1605
  893MOL0     C17770   3.611   1.477  10.989 -0.2001 -0.3937  1.0096
  893MOL0     C17771   3.695   1.401  10.903  0.3090  1.2177 -1.4035
  893MOL0     C17772   3.654   1.364  10.779  0.0849  0.8515  0.7804
  893MOL0     C17773   3.745   1.277  10.695  0.6958 -1.2632  0.5801
  893MOL0     O17774   3.869   1.301  10.721 -0.5292  1.0507 -0.1549
  893MOL0     C17775   3.967   1.218  10.659 -0.5759  0.6495  0.9393
  893MOL0     C17776   4.062   1.275  10.583  0.7887 -0.0810 -0.0632
  893MOL0     C17777   4.177   1.204  10.535 -0.2944  0.4145  1.0649
  893MOL0     C17778   4.175   1.068  10.540  0.1205 -0.1993  0.7385
  893MOL0     O17779   4.274   0.998  10.478 -0.6873 -0.3656  0.6490
  893MOL0     C17780   4.237   0.884  10.397 -0.5259 -0.4125 -0.3467
  893MOL0     C17781   4.284   0.756  10.477  1.0635 -0.8627  0.3793
  893MOL0     C17782   4.269   0.629  10.400 -0.5107 -0.0347  0.9318
  893MOL0     C17783   4.290   0.505  10.488  0.1484  0.2932  0.1802
  893MOL0     C17784   4.429   0.508  10.552  0.2747 -0.0513  0.4945
  893MOL0     C17785   4.441   0.378  10.646  0.2961  0.9084 -1.0234
  893MOL0     C17786   4.560   0.397  10.747  0.7217 -0.5835  0.2279
  893MOL0     C17787   4.541   0.507  10.855  0.0410  0.0885 -0.6281
  893MOL0    Cl17788   4.675   0.500  10.973  0.2331 -0.4711  0.0635
  893MOL0     C17789   4.063   1.005  10.605  0.7786  0.9842  1.2308
  893MOL0     C17790   3.967   1.078  10.668  0.3045 -0.3289  0.5152
  893MOL0     O17791   3.695   1.183  10.624 -0.4893 -0.0088 -0.4310
  893MOL0     C17792   3.528   1.388  10.732  0.0755 -0.4929 -1.5946
  893MOL0     C17793   3.438   1.463  10.822 -0.7014  0.3229  0.1494
  893MOL0     N17794   3.048   1.763  11.460 -0.3424 -0.1508 -1.0411
  893MOL0     N17795   2.946   1.847  11.457 -0.2392 -0.5933 -0.2773
  893MOL0     C17796   2.669   2.368  10.663 -0.6081  0.0772  0.2677
  893MOL0     C17797   2.645   2.504  10.665 -1.0199 -0.2916 -0.3614
  893MOL0     C17798   2.561   2.924  10.529 -0.2069  0.2391  1.7979
  893MOL0     C17799   2.441   2.989  10.501  0.3036  0.8729 -0.3788
  893MOL0     C17800   2.430   3.127  10.537 -0.0208 -0.3001 -0.1104
  893MOL0     C17801   2.528   3.186  10.619  0.7127  0.5848  0.4875
  893MOL0     O17802   2.515   3.311  10.672  0.8492 -0.4476  0.1393
  893MOL0     C17803   2.508   3.313  10.819 -0.2156  0.8072  0.0843
  893MOL0     C17804   2.519   3.465  10.859 -1.1094 -0.8065 -0.5130
  893MOL0     C17805   2.378   3.518  10.879  0.7072  1.1179 -0.2806
  893MOL0     C17806   2.357   3.667  10.855 -0.5213  0.3784  0.0896
  893MOL0     C17807   2.296   3.734  10.973  0.2104 -0.0484 -0.5164
  893MOL0     C17808   2.249   3.781  11.073 -0.6238 -0.4877  0.0778
  893MOL0     C17809   2.633   3.118  10.655 -0.4504 -0.4590 -0.2479
  893MOL0     C17810   2.660   2.993  10.602 -0.8788  0.2353  0.0100
  893MOL0     H17811   2.736   2.585  10.350 -0.8464 -0.6759  1.1800
  893MOL0     H17812   2.777   2.326  10.344 -2.3565 -1.3079  0.1891
  893MOL0     H17813   2.927   2.229  10.644 -0.3022 -2.1506  4.7034
  893MOL0     H17814   2.947   2.107  10.519 -0.0120 -4.5692  1.6125
  893MOL0     H17815   2.900   1.939  10.663 -4.2086 -1.6394 -0.1251
  893MOL0     H17816   2.787   2.019  10.756  1.0363  1.3523  4.5015
  893MOL0     H17817   3.081   2.093  10.780 -0.6080  2.0961 -2.1045
  893MOL0     H17818   3.006   1.977  10.882 -1.0658  0.1677  1.3521
  893MOL0     H17819   2.999   2.216  10.981 -0.9971  0.1967  1.7780
  893MOL0     H17820   2.888   2.251  10.847 -2.2307  0.3831  2.0993
  893MOL0     H17821   2.737   2.077  10.965  0.1639  0.0736  0.0062
  893MOL0     H17822   2.782   2.207  11.078 -2.6424 -2.0369  2.7125
  893MOL0     H17823   2.891   2.091  11.212  1.2867 -1.9893  0.4612
  893MOL0     H17824   2.959   1.972  11.100 -0.1212 -1.6918  1.2741
  893MOL0     H17825   2.652   1.966  11.154 -0.4355  0.1336  0.4764
  893MOL0     H17826   2.767   1.840  11.113  1.4897  0.4860 -1.8144
  893MOL0     H17827   2.656   1.850  11.344 -1.5782  2.4710  2.1041
  893MOL0     H17828   2.770   1.985  11.374  0.3758  0.2164  0.5258
  893MOL0     H17829   2.864   1.630  11.219 -0.0144  2.7052 -1.5987
  893MOL0     H17830   2.997   1.464  11.356 -1.1556  1.3121 -0.6513
  893MOL0     H17831   3.131   1.497  11.439 -1.2965  1.9867  2.7825
  893MOL0     H17832   3.130   1.571  11.137  3.2120  5.2561 -0.3064
  893MOL0     H17833   3.224   1.434  11.198  0.0321 -0.3554 -1.3133
  893MOL0     H17834   3.280   1.725  11.209 -0.5955 -1.1626 -2.9001
  893MOL0     H17835   3.311   1.630  11.362 -1.5662  0.6464 -0.2953
  893MOL0     H17836   3.462   1.482  11.231  1.5428 -0.4371 -1.1136
  893MOL0     H17837   3.502   1.654  11.202 -1.4310  0.5514  0.6814
  893MOL0     H17838   3.646   1.505  11.088 -0.2589  0.7050  0.7250
  893MOL0     H17839   3.791   1.375  10.946 -0.7383  1.5735  1.3368
  893MOL0     H17840   4.063   1.383  10.574  2.4044 -0.2072 -2.3885
  893MOL0     H17841   4.255   1.260  10.486  0.2893  1.8371  3.4407
  893MOL0     H17842   4.299   0.884  10.307  2.1295 -3.2895  1.2910
  893MOL0     H17843   4.130   0.887  10.376 -0.8333  1.4128  1.1645
  893MOL0     H17844   4.217   0.744  10.563 -0.5131  1.1253 -0.5067
  893MOL0     H17845   4.389   0.768  10.506  1.2126  2.0150 -1.0517
  893MOL0     H17846   4.337   0.637  10.315 -2.6638  0.6112 -0.8105
  893MOL0     H17847   4.165   0.625  10.369 -0.6611 -0.1465  1.4353
  893MOL0     H17848   4.208   0.501  10.561 -0.3162 -2.7203 -0.3525
  893MOL0     H17849   4.274   0.417  10.425  1.7163 -0.8270  1.2918
  893MOL0     H17850   4.446   0.600  10.609 -1.6051  1.2148 -0.8702
  893MOL0     H17851   4.511   0.489  10.483  3.4545 -0.6620  4.0755
  893MOL0     H17852   4.470   0.298  10.576 -0.9905  0.8425 -1.4997
  893MOL0     H17853   4.351   0.352  10.702  1.1391 -0.8697 -0.4169
  893MOL0     H17854   4.584   0.306  10.802  1.7162 -0.4406  0.0654
  893MOL0     H17855   4.648   0.426  10.687 -0.8006  1.8599 -0.9677
  893MOL0     H17856   4.453   0.470  10.908  0.9737 -2.3129 -0.6351
  893MOL0     H17857   4.542   0.608  10.814  3.1377  0.4756  0.1585
  893MOL0     H17858   4.052   0.897  10.605  2.0717  0.8415  1.1934
  893MOL0     H17859   3.881   1.026  10.710  1.2750 -0.4728  2.4110
  893MOL0     H17860   3.482   1.344  10.644 -0.5915 -1.7197 -0.6543
  893MOL0     H17861   3.332   1.472  10.800 -0.9958  0.1460  1.4232
  893MOL0     H17862   2.644   2.310  10.751 -3.3551 -1.6072 -1.4551
  893MOL0     H17863   2.608   2.546  10.759 -2.5472 -1.0791 -0.5916
  893MOL0     H17864   2.362   2.943  10.442 -2.3248  3.3881  0.9177
  893MOL0     H17865   2.343   3.185  10.508 -1.7431 -2.6079  0.1165
  893MOL0     H17866   2.587   3.255  10.866 -1.1859 -0.1211  0.6283
  893MOL0     H17867   2.415   3.267  10.853 -0.5569  0.4598 -1.2488
  893MOL0     H17868   2.558   3.473  10.961  2.1581  0.0723 -1.6940
  893MOL0     H17869   2.573   3.528  10.788 -0.8780  2.1180  2.0461
  893MOL0     H17870   2.339   3.491  10.977  0.5919  2.2603 -0.0037
  893MOL0     H17871   2.318   3.460  10.808  0.2439  0.3942  0.6791
  893MOL0     H17872   2.446   3.717  10.817  1.1905 -0.6436  2.5126
  893MOL0     H17873   2.298   3.670  10.763 -3.4096  1.3703  1.8375
  893MOL0     H17874   2.204   3.812  11.166  0.9193  0.1846  0.6291
  893MOL0     H17875   2.710   3.167  10.714 -1.2823  0.9951 -0.3169
  893MOL0     H17876   2.749   2.934  10.622 -1.3646 -0.9285 -1.0996
  894MOL0     O17877   6.412   3.095  10.267 -0.1461  0.3106  0.5571
  894MOL0     C17878   6.371   3.213  10.250 -0.2983  0.1806 -0.1948
  894MOL0     O17879   6.292   3.276  10.335  0.2343 -0.7179 -0.0714
  894MOL0     C17880   6.262   3.208  10.455 -0.1639  0.2424  0.4166
  894MOL0     C17881   6.292   3.284  10.569  0.4747  0.0648 -0.2001
  894MOL0     C17882   6.279   3.228  10.690  0.8734  0.5002  0.0990
  894MOL0     C17883   6.223   3.098  10.702 -0.9250  0.2073 -0.1848
  894MOL0     O17884   6.189   3.064  10.832 -0.4995 -0.0831  0.3315
  894MOL0     C17885   6.137   2.937  10.868  0.6798  0.1554 -0.4847
  894MOL0     C17886   6.137   2.915  11.011 -0.0643  0.9175  1.2930
  894MOL0     C17887   6.060   2.784  11.043 -0.0975 -0.3363 -0.0665
  894MOL0     C17888   5.951   2.820  11.150 -0.1979  0.0140  0.3744
  894MOL0     C17889   5.840   2.726  11.161 -0.3383  0.1801 -0.1854
  894MOL0     C17890   5.868   2.603  11.253 -0.5348 -0.2370 -0.3387
  894MOL0     C17891   5.773   2.483  11.221 -0.0839 -0.3350  0.1906
  894MOL0     C17892   5.640   2.477  11.314  0.4407 -0.7772 -0.1241
  894MOL0     N17893   5.571   2.609  11.323 -0.4067 -0.3928  0.4282
  894MOL0     C17894   5.483   2.653  11.224  0.3788 -0.0721  0.4155
  894MOL0     C17895   5.434   2.771  11.269 -0.6336 -0.0556 -0.5610
  894MOL0     C17896   5.339   2.874  11.223  0.1410  0.5100 -0.5115
  894MOL0     C17897   5.406   2.966  11.132  0.7738  0.3734  0.7652
  894MOL0     C17898   5.301   3.029  11.046 -0.0194 -1.0124  0.0360
  894MOL0     C17899   5.366   3.123  10.943  0.3061 -0.2924 -0.6720
  894MOL0     O17900   5.273   3.211  10.877 -0.5038 -0.1758 -0.2310
  894MOL0     C17901   5.328   3.266  10.766 -0.8218  0.2702  1.6084
  894MOL0     C17902   5.433   3.356  10.765 -0.3174 -0.1224 -0.7052
  894MOL0     C17903   5.472   3.409  10.644  0.0643  0.1372 -0.5301
  894MOL0     C17904   5.414   3.368  10.522  0.1575  0.6468  0.8506
  894MOL0     C17905   5.477   3.425  10.397 -0.2271  0.7468  0.2693
  894MOL0     O17906   5.424   3.388  10.279  0.0197  0.0218  0.1148
  894MOL0     C17907   5.477   3.422  10.154  0.2728  0.8214  0.2518
  894MOL0     C17908   5.506   3.322  10.058 -1.0844 -0.2783  0.2306
  894MOL0     C17909   5.527   3.355   9.929 -1.1848  0.0674 -0.0562
  894MOL0     C17910   5.538   3.491   9.895  0.1190 -0.0230  0.3446
  894MOL0     O17911   5.564   3.510   9.758 -0.1407 -0.1604 -0.4226
  894MOL0     C17912   5.493   3.631   9.695 -0.2867  0.0714 -0.6961
  894MOL0     C17913   5.332   3.638   9.698 -0.5712 -0.3285  0.1050
  894MOL0     C17914   5.284   3.783   9.675  0.3006 -0.3981  0.1786
  894MOL0     C17915   5.146   3.811   9.754 -1.0281 -0.0552  0.5162
  894MOL0     C17916   5.119   3.962   9.728  0.7184  0.7342  0.0731
  894MOL0     C17917   5.148   4.027   9.599  0.1945  1.0426  0.4214
  894MOL0     C17918   5.101   4.173   9.609 -0.4165  0.1070  0.4971
  894MOL0     C17919   5.159   4.275   9.506 -0.9716 -0.3225  1.1046
  894MOL0    Cl17920   5.110   4.253   9.342 -0.2577 -0.1767  0.1490
  894MOL0     C17921   5.506   3.589   9.989 -0.2448  0.4130 -0.4340
  894MOL0     C17922   5.481   3.556  10.132  0.8194 -0.2079  0.8274
  894MOL0     O17923   5.582   3.492  10.409  0.1027 -0.3357  0.2105
  894MOL0     C17924   5.305   3.281  10.516  1.1058 -0.2818  0.4848
  894MOL0     C17925   5.259   3.236  10.645 -0.2762 -0.1680  0.9101
  894MOL0     N17926   5.508   2.790  11.389 -0.1413  0.5140 -0.0894
  894MOL0     N17927   5.578   2.688  11.421 -0.6240  0.3912 -0.4811
  894MOL0     C17928   6.180   3.019  10.588  0.3367 -0.2451  0.4928
  894MOL0     C17929   6.193   3.077  10.462  0.1227  0.3362 -0.6508
  894MOL0     C17930   6.385   3.288  10.118  0.4467  0.0905  1.6726
  894MOL0     C17931   6.384   3.221   9.992 -0.3661  0.7056 -0.4695
  894MOL0     C17932   6.397   3.296   9.873 -0.9329  0.6778  0.8968
  894MOL0     C17933   6.404   3.437   9.871 -1.1666  0.0339  0.0388
  894MOL0     O17934   6.409   3.512   9.751 -0.3412  0.4152 -0.6885
  894MOL0     C17935   6.300   3.607   9.742 -1.1414  0.0981 -0.1471
  894MOL0     C17936   6.299   3.682   9.607  0.4327 -0.6339 -0.1331
  894MOL0     C17937   6.308   3.586   9.487  0.4644 -0.3354 -0.1159
  894MOL0     C17938   6.197   3.479   9.488  0.0873  0.3705  0.3313
  894MOL0     C17939   6.054   3.514   9.501 -0.0955  0.5654  0.1642
  894MOL0     C17940   5.935   3.526   9.514 -0.2843 -0.2519 -0.0501
  894MOL0     C17941   6.415   3.505   9.995 -0.3454  0.5178 -0.5198
  894MOL0     C17942   6.402   3.427  10.112  0.1790  0.9586 -0.4037
  894MOL0     H17943   6.341   3.381  10.566  1.9975 -0.6625  0.0318
  894MOL0     H17944   6.307   3.285  10.779 -1.2417 -0.9865  1.8323
  894MOL0     H17945   6.172   2.854  10.805 -3.8934 -0.5193 -2.5329
  894MOL0     H17946   6.031   2.936  10.839 -0.2456 -1.4055  2.5548
  894MOL0     H17947   6.096   3.008  11.051 -2.5926  1.1355 -1.4686
  894MOL0     H17948   6.240   2.899  11.045  0.6726  1.5273 -0.5403
  894MOL0     H17949   6.126   2.707  11.082 -2.3076 -0.1609  4.6501
  894MOL0     H17950   5.994   2.750  10.962 -1.1424 -0.2831  0.7496
  894MOL0     H17951   5.992   2.827  11.251 -0.0386 -1.4397  0.4330
  894MOL0     H17952   5.907   2.912  11.110  0.3417  0.0666 -0.1065
  894MOL0     H17953   5.806   2.680  11.068 -0.1928 -1.6388  0.6282
  894MOL0     H17954   5.757   2.783  11.205 -0.7043 -2.0210  2.1661
  894MOL0     H17955   5.855   2.635  11.356  1.4608 -0.8386  0.1567
  894MOL0     H17956   5.968   2.560  11.239 -0.6073  0.1824 -2.6871
  894MOL0     H17957   5.740   2.480  11.117  0.3297  1.0061  0.0063
  894MOL0     H17958   5.833   2.391  11.221 -3.5729 -2.8905 -2.8995
  894MOL0     H17959   5.663   2.441  11.414 -0.8343 -1.6012 -0.1058
  894MOL0     H17960   5.574   2.399  11.277 -1.1823  0.5841 -0.2009
  894MOL0     H17961   5.463   2.592  11.137  0.6244  0.7477 -0.2310
  894MOL0     H17962   5.301   2.942  11.299  0.6273 -1.0652  1.2162
  894MOL0     H17963   5.253   2.821  11.181  0.5726  1.3679 -2.6159
  894MOL0     H17964   5.476   2.919  11.062  1.0004  0.2688  1.0618
  894MOL0     H17965   5.470   3.041  11.178  0.1586  2.8977 -2.1385
  894MOL0     H17966   5.245   2.954  10.990 -3.7973 -1.9554  4.4648
  894MOL0     H17967   5.241   3.096  11.110  3.5100  2.2822  0.2289
  894MOL0     H17968   5.410   3.065  10.861  2.7487 -0.3847  0.6101
  894MOL0     H17969   5.452   3.176  10.986  3.1529 -1.6710 -4.1162
  894MOL0     H17970   5.486   3.403  10.847  3.2296  1.3492 -3.5972
  894MOL0     H17971   5.556   3.476  10.633 -0.6659  1.2910  0.7086
  894MOL0     H17972   5.504   3.215  10.079 -0.3222 -0.4314 -0.4084
  894MOL0     H17973   5.514   3.276   9.856 -2.5634  0.6370 -0.4752
  894MOL0     H17974   5.512   3.633   9.587  1.4810 -1.3121 -0.4563
  894MOL0     H17975   5.526   3.724   9.741 -1.6823  1.6110 -2.6456
  894MOL0     H17976   5.307   3.610   9.800 -1.0257  0.4173  0.2067
  894MOL0     H17977   5.302   3.566   9.622  0.8809 -0.7669 -0.0823
  894MOL0     H17978   5.283   3.784   9.565 -1.7615  0.0346  0.1670
  894MOL0     H17979   5.354   3.866   9.686 -1.3155  1.3450 -1.8644
  894MOL0     H17980   5.065   3.751   9.712 -0.8043 -0.1744  0.2497
  894MOL0     H17981   5.162   3.798   9.862  2.5467  2.4312  0.4515
  894MOL0     H17982   5.179   4.020   9.798  2.1508 -1.4505  0.7656
  894MOL0     H17983   5.017   3.981   9.761  1.3413  2.9668  0.8502
  894MOL0     H17984   5.087   3.975   9.524 -0.2605  1.8678  0.2063
  894MOL0     H17985   5.257   4.018   9.589  0.2137  0.7022  0.9128
  894MOL0     H17986   4.992   4.173   9.600 -0.5342 -1.8163  1.3516
  894MOL0     H17987   5.140   4.200   9.707  0.1279 -0.4689  0.4527
  894MOL0     H17988   5.266   4.263   9.529 -0.9671  2.3822  3.0790
  894MOL0     H17989   5.145   4.376   9.545  0.8590  1.1175 -1.6365
  894MOL0     H17990   5.506   3.693   9.960  2.7756  0.5247 -0.2867
  894MOL0     H17991   5.456   3.634  10.204  2.4792  0.4118  0.7860
  894MOL0     H17992   5.270   3.244  10.420  4.2220  2.3142 -1.9119
  894MOL0     H17993   5.189   3.154  10.652  2.9455 -3.0502  2.7532
  894MOL0     H17994   6.133   2.921  10.597  0.8719 -0.5318  0.1968
  894MOL0     H17995   6.174   3.025  10.369 -0.6116 -0.9940  0.2092
  894MOL0     H17996   6.377   3.113   9.992  0.0686  0.6551  0.9976
  894MOL0     H17997   6.391   3.242   9.779 -1.3148  2.3057 -0.0527
  894MOL0     H17998   6.319   3.681   9.820 -0.5947 -1.6204  1.4193
  894MOL0     H17999   6.203   3.560   9.752 -1.0773  0.0387  0.1953
  894MOL0     H18000   6.197   3.720   9.597  0.3577 -1.1263 -1.6205
  894MOL0     H18001   6.384   3.750   9.599  0.0095 -0.3020 -2.5143
  894MOL0     H18002   6.405   3.535   9.482  0.8115 -0.1035  2.7222
  894MOL0     H18003   6.299   3.657   9.403 -6.7532  0.7809  0.9455
  894MOL0     H18004   6.210   3.430   9.391  2.5409  1.1894  0.1806
  894MOL0     H18005   6.223   3.408   9.567 -2.0143  0.5801  1.2794
  894MOL0     H18006   5.834   3.540   9.549  0.7379  0.7298  2.8395
  894MOL0     H18007   6.411   3.613  10.007 -2.1756  0.2237  2.6057
  894MOL0     H18008   6.394   3.489  10.201  1.2356  2.1837 -1.1074
  895MOL0     O18009   3.628  10.505   0.864 -0.6562  0.8918 -0.4659
  895MOL0     C18010   3.566  10.547   0.773 -1.3765 -0.0921 -0.4601
  895MOL0     O18011   3.480  10.656   0.783 -0.3061 -0.1077 -0.7351
  895MOL0     C18012   3.486  10.718   0.909  0.1738 -0.3289 -0.3130
  895MOL0     C18013   3.579  10.824   0.933 -0.3509  0.2116 -0.4548
  895MOL0     C18014   3.572  10.888   1.064 -0.3568  0.3144  0.2673
  895MOL0     C18015   3.484  10.843   1.172  0.6524 -0.0537 -0.3855
  895MOL0     O18016   3.473  10.888   1.306 -0.1581 -0.2761  0.9428
  895MOL0     C18017   3.584  10.959   1.368  0.2000  0.4916  1.0209
  895MOL0     C18018   3.587  10.972   1.521  0.6001  0.8421  0.0474
  895MOL0     C18019   3.659  11.101   1.570  0.2782  0.4357  0.0020
  895MOL0     C18020   3.617  11.129   1.717  0.1929  0.4678 -0.3719
  895MOL0     C18021   3.717  11.217   1.783  0.1391 -0.1364 -0.1063
  895MOL0     C18022   3.678  11.267   1.920  0.0436  0.1347  0.7178
  895MOL0     C18023   3.789  11.348   1.985  0.1002  0.0852 -0.3987
  895MOL0     C18024   3.738  11.442   2.101  0.5800  0.4058  0.4896
  895MOL0     N18025   3.668  11.562   2.047 -0.2727  0.5014 -0.3641
  895MOL0     C18026   3.535  11.598   2.070 -0.8854  0.3888 -0.5347
  895MOL0     C18027   3.538  11.716   2.004  0.2548 -1.4254  0.0024
  895MOL0     C18028   3.424  11.819   1.997 -0.5402 -0.0608  0.4146
  895MOL0     C18029   3.437  11.920   2.120 -0.1007  0.1972  0.2195
  895MOL0     C18030   3.307  11.994   2.151  0.2118  0.0084  0.5969
  895MOL0     C18031   3.291  12.104   2.055 -0.1476 -0.2206  0.2985
  895MOL0     O18032   3.260  12.054   1.926 -0.2405 -0.0284  0.5650
  895MOL0     C18033   3.299  12.142   1.825 -0.1942 -0.0580 -1.2256
  895MOL0     C18034   3.437  12.176   1.803 -0.6509  0.7709  0.2307
  895MOL0     C18035   3.470  12.256   1.699  1.4895 -0.0583  0.5438
  895MOL0     C18036   3.375  12.298   1.611 -0.2140  0.1903  0.4307
  895MOL0     C18037   3.409  12.389   1.492  1.2595  0.1587 -0.0344
  895MOL0     O18038   3.538  12.432   1.487 -0.1795  0.8719  0.2552
  895MOL0     C18039   3.567  12.500   1.370 -0.6629  0.2165  0.2684
  895MOL0     C18040   3.587  12.430   1.260 -0.7219 -0.8072 -0.4186
  895MOL0     C18041   3.609  12.503   1.140  0.6819  0.3401  0.7599
  895MOL0     C18042   3.617  12.645   1.128  0.0798  0.4132 -0.9446
  895MOL0     O18043   3.646  12.706   1.009 -0.0551 -0.0564 -0.0932
  895MOL0     C18044   3.676  12.640   0.884  0.1225 -0.5720  0.7252
  895MOL0     C18045   3.741  12.736   0.789 -0.5681 -0.2270  0.6132
  895MOL0     C18046   3.742  12.685   0.653  0.2864 -0.4312 -0.0299
  895MOL0     C18047   3.793  12.782   0.556 -0.2169 -1.1220 -0.2658
  895MOL0     C18048   3.842  12.713   0.433 -0.0950 -0.0609  0.4431
  895MOL0     C18049   3.837  12.817   0.317  0.0689 -0.9866  0.2719
  895MOL0     C18050   3.911  12.769   0.194  0.4962 -0.9114  0.7633
  895MOL0     C18051   3.907  12.854   0.068  0.3628  0.2362  0.8895
  895MOL0    Cl18052   3.935  13.020   0.103 -0.6865 -0.1740  0.0767
  895MOL0     C18053   3.582  12.711   1.250 -1.2116  0.2053  1.0298
  895MOL0     C18054   3.571  12.634   1.373 -0.5335  0.0753  0.8735
  895MOL0     O18055   3.323  12.408   1.408 -1.2247 -0.3484 -0.4066
  895MOL0     C18056   3.245  12.247   1.618  0.8657 -0.5839  0.0957
  895MOL0     C18057   3.207  12.177   1.731  0.3126 -0.3063  0.2334
  895MOL0     N18058   3.659  11.743   1.947 -0.2906 -0.1427  0.2693
  895MOL0     N18059   3.739  11.647   1.979  0.4891 -0.1715 -0.4523
  895MOL0     C18060   3.410  10.730   1.149 -0.3876 -0.0568  0.3010
  895MOL0     C18061   3.406  10.676   1.016  0.8959 -0.1466  0.1562
  895MOL0     C18062   3.588  10.480   0.642 -0.2269 -0.5096 -1.3086
  895MOL0     C18063   3.592  10.558   0.530 -0.2033 -0.7020 -0.6243
  895MOL0     C18064   3.629  10.498   0.407 -0.1289  0.2995 -0.0690
  895MOL0     C18065   3.678  10.363   0.405  0.4112 -0.4104 -0.5479
  895MOL0     O18066   3.735  10.322   0.284  0.2759 -0.1488 -0.3017
  895MOL0     C18067   3.779  10.185   0.261 -0.5836  1.1855  0.5035
  895MOL0     C18068   3.759  10.141   0.115 -0.2386 -0.0522 -0.5817
  895MOL0     C18069   3.884  10.173   0.030  0.3969 -0.3062 -1.5267
  895MOL0     C18070   3.865  10.131  -0.109 -0.0360 -0.7001 -0.5754
  895MOL0     C18071   3.835  10.236  -0.204 -0.8917 -0.2496 -0.6124
  895MOL0     C18072   3.776  10.286  -0.294  0.7301 -0.2035  0.9225
  895MOL0     C18073   3.665  10.288   0.521 -0.5475 -0.2316 -0.7615
  895MOL0     C18074   3.609  10.340   0.635 -0.1388  0.4685 -0.5001
  895MOL0     H18075   3.649  10.854   0.855 -1.4467 -0.6807 -1.8337
  895MOL0     H18076   3.648  10.963   1.084  0.5031 -1.0263  2.4528
  895MOL0     H18077   3.574  11.060   1.327 -2.3789 -0.4887 -1.0229
  895MOL0     H18078   3.675  10.909   1.332 -0.6590  1.1905 -2.5049
  895MOL0     H18079   3.616  10.881   1.573  1.2820  1.9370  1.6908
  895MOL0     H18080   3.483  10.974   1.555 -0.0977  2.2605 -1.9816
  895MOL0     H18081   3.630  11.184   1.504 -1.3380  0.0948  0.2253
  895MOL0     H18082   3.768  11.090   1.567  0.6275  3.3051 -0.5268
  895MOL0     H18083   3.517  11.173   1.726  1.6245  3.8521  0.9047
  895MOL0     H18084   3.623  11.037   1.776 -1.1759  0.4313 -0.2670
  895MOL0     H18085   3.744  11.298   1.715  1.1344 -1.9250 -1.9687
  895MOL0     H18086   3.805  11.153   1.796 -0.3626 -1.4221 -2.4217
  895MOL0     H18087   3.651  11.187   1.990  0.0832  0.8351  1.5641
  895MOL0     H18088   3.589  11.329   1.905  0.2000  1.1363  3.3100
  895MOL0     H18089   3.851  11.269   2.028 -1.6254 -0.4973  1.1196
  895MOL0     H18090   3.853  11.401   1.914  3.0829  0.0170  2.0434
  895MOL0     H18091   3.828  11.467   2.158  2.4365 -2.0104 -1.1716
  895MOL0     H18092   3.676  11.375   2.161  0.2213 -0.4534 -0.7840
  895MOL0     H18093   3.455  11.553   2.127  1.0067 -0.8942  1.2582
  895MOL0     H18094   3.327  11.771   1.982  0.1225 -0.6272 -2.7271
  895MOL0     H18095   3.435  11.882   1.909 -2.0096  1.8707  1.5250
  895MOL0     H18096   3.520  11.991   2.107 -1.0383  1.4522  0.9058
  895MOL0     H18097   3.459  11.865   2.212  3.0980  0.5440 -0.2245
  895MOL0     H18098   3.217  11.934   2.154  0.2664 -0.2904 -2.1033
  895MOL0     H18099   3.321  12.045   2.247 -0.5740 -0.0069  0.7216
  895MOL0     H18100   3.380  12.168   2.059 -0.8907  0.9207 -0.6069
  895MOL0     H18101   3.205  12.170   2.074  0.2068  1.2004 -2.5089
  895MOL0     H18102   3.502  12.116   1.866 -0.3096  0.3937 -0.4722
  895MOL0     H18103   3.574  12.281   1.677  1.2265 -0.0491 -0.7487
  895MOL0     H18104   3.595  12.322   1.259  0.7169 -0.7946 -3.9132
  895MOL0     H18105   3.638  12.442   1.056 -0.5094 -1.3448  1.5220
  895MOL0     H18106   3.585  12.597   0.841  1.2891  0.0098 -2.6443
  895MOL0     H18107   3.748  12.558   0.901  0.0117 -1.2108 -1.5357
  895MOL0     H18108   3.840  12.758   0.830 -0.8644 -0.4688  1.4893
  895MOL0     H18109   3.684  12.830   0.786 -0.6277 -0.1560 -4.8784
  895MOL0     H18110   3.639  12.668   0.623 -0.2811  1.1504  0.9117
  895MOL0     H18111   3.797  12.590   0.655  1.1769  0.0745 -0.2292
  895MOL0     H18112   3.712  12.854   0.542 -1.4119 -2.6390 -1.5644
  895MOL0     H18113   3.879  12.839   0.594 -0.8743 -0.5452  0.3782
  895MOL0     H18114   3.780  12.625   0.414  0.4189 -0.3673  0.1742
  895MOL0     H18115   3.941  12.669   0.441 -1.2676 -3.1632 -0.5944
  895MOL0     H18116   3.884  12.910   0.349 -0.3050 -0.9902  0.8561
  895MOL0     H18117   3.732  12.844   0.299  0.0482 -2.3141 -1.9484
  895MOL0     H18118   4.014  12.749   0.226  1.0540  2.4443  1.4556
  895MOL0     H18119   3.859  12.676   0.170  0.3447 -0.6471  0.0288
  895MOL0     H18120   3.805  12.840   0.030 -0.2227  3.3104  1.0754
  895MOL0     H18121   3.986  12.817   0.001  0.6704  2.0741  0.1871
  895MOL0     H18122   3.597  12.819   1.252 -0.1761  0.0961  0.2132
  895MOL0     H18123   3.537  12.692   1.458 -2.3362  0.8046 -0.2841
  895MOL0     H18124   3.174  12.281   1.543  2.3884 -2.1975 -2.2157
  895MOL0     H18125   3.107  12.134   1.737 -0.7111  1.6794 -1.4507
  895MOL0     H18126   3.345  10.684   1.223  0.3463  1.8182  2.1903
  895MOL0     H18127   3.335  10.594   1.007 -0.6819  1.1279  0.4996
  895MOL0     H18128   3.562  10.661   0.546 -0.0713 -1.1511  3.6383
  895MOL0     H18129   3.630  10.553   0.314 -0.2316 -0.7558 -0.7184
  895MOL0     H18130   3.712  10.116   0.311 -0.6054 -0.6740 -1.9447
  895MOL0     H18131   3.881  10.173   0.300 -0.3846  3.8515  1.0028
  895MOL0     H18132   3.728  10.037   0.131 -1.5947  0.4535  0.2454
  895MOL0     H18133   3.686  10.202   0.062 -0.4731 -0.0465 -0.2555
  895MOL0     H18134   3.969  10.120   0.076 -0.5790 -0.4247  0.2135
  895MOL0     H18135   3.910  10.279   0.037  0.4484 -0.1788 -3.2941
  895MOL0     H18136   3.959  10.079  -0.131 -2.8214 -6.4525 -0.5281
  895MOL0     H18137   3.789  10.053  -0.117  0.2912 -1.3058  1.6261
  895MOL0     H18138   3.731  10.329  -0.381 -2.2905 -0.6931  2.1063
  895MOL0     H18139   3.690  10.182   0.522 -2.3963 -0.7157  1.4803
  895MOL0     H18140   3.590  10.289   0.728  1.7844 -2.3275 -1.5077
  896MOL0     O18141   6.788   4.884   8.156 -0.5837 -0.5340  0.1104
  896MOL0     C18142   6.718   4.819   8.230 -1.4033 -0.9507 -0.2642
  896MOL0     O18143   6.585   4.807   8.228 -0.1355  0.0055  0.5335
  896MOL0     C18144   6.498   4.882   8.147  0.2084 -0.4375 -1.2974
  896MOL0     C18145   6.368   4.896   8.193  0.1573 -0.1358  0.4750
  896MOL0     C18146   6.272   4.965   8.117 -0.7365 -0.0705 -0.6292
  896MOL0     C18147   6.314   5.035   8.003  0.5487  0.1894  0.0624
  896MOL0     O18148   6.232   5.124   7.930 -0.7323  0.4305 -0.1104
  896MOL0     C18149   6.281   5.263   7.925  0.0212  0.9205 -0.5531
  896MOL0     C18150   6.226   5.336   8.052 -0.2912  0.1872  0.5829
  896MOL0     C18151   6.070   5.346   8.064 -0.0984 -0.8820  0.5060
  896MOL0     C18152   6.019   5.410   8.206 -0.6171  0.1885  0.3259
  896MOL0     C18153   5.869   5.398   8.241 -0.4549  0.4294  0.1920
  896MOL0     C18154   5.833   5.469   8.375  0.2314 -0.3778  0.4396
  896MOL0     C18155   5.682   5.452   8.396 -0.2914 -0.6381 -0.3911
  896MOL0     C18156   5.612   5.569   8.315  0.6547 -0.2053  0.3322
  896MOL0     N18157   5.467   5.549   8.334  0.6706 -0.2868  0.2852
  896MOL0     C18158   5.396   5.552   8.455  0.1075 -0.7328 -0.0208
  896MOL0     C18159   5.270   5.512   8.419 -0.3423  0.2472 -0.5393
  896MOL0     C18160   5.148   5.502   8.497  0.5209  0.4327 -0.6893
  896MOL0     C18161   5.143   5.600   8.620  0.4572 -0.5345  1.5616
  896MOL0     C18162   5.012   5.627   8.690 -0.2373  0.3704  0.2318
  896MOL0     C18163   4.888   5.572   8.616 -0.3524  0.4089 -0.0676
  896MOL0     O18164   4.770   5.611   8.679  0.0327  1.0260 -0.3132
  896MOL0     C18165   4.733   5.743   8.693 -0.3054 -0.2195  0.4395
  896MOL0     C18166   4.772   5.845   8.601 -0.1985  0.0217 -0.7471
  896MOL0     C18167   4.718   5.976   8.622  0.5325  0.0550 -1.1109
  896MOL0     C18168   4.633   6.014   8.728  0.2002 -0.1151  0.2216
  896MOL0     C18169   4.596   6.155   8.761  1.3350  0.1073  0.5648
  896MOL0     O18170   4.483   6.170   8.843 -0.2320 -0.5388  1.0112
  896MOL0     C18171   4.442   6.291   8.887 -0.3897  0.0278 -0.8841
  896MOL0     C18172   4.531   6.382   8.936  0.1172  0.4769  1.0540
  896MOL0     C18173   4.479   6.501   8.986  0.0248 -0.1865 -0.0613
  896MOL0     C18174   4.344   6.535   8.990  0.6541  0.3404 -0.1816
  896MOL0     O18175   4.294   6.647   9.059 -0.6284 -0.3139 -0.2124
  896MOL0     C18176   4.202   6.724   8.984 -0.7017 -0.2585  1.2507
  896MOL0     C18177   4.281   6.788   8.879  1.0547  0.1166  0.6228
  896MOL0     C18178   4.237   6.935   8.823  0.0613 -0.3432  0.4602
  896MOL0     C18179   4.328   6.992   8.715  0.5307 -0.1497 -0.4947
  896MOL0     C18180   4.306   7.142   8.685 -0.7893 -1.5884 -0.4881
  896MOL0     C18181   4.396   7.184   8.573  0.7236 -0.4435  0.3772
  896MOL0     C18182   4.364   7.324   8.543 -0.2328  0.1949  0.7747
  896MOL0     C18183   4.449   7.357   8.419 -0.6528  0.0326 -0.3606
  896MOL0    Cl18184   4.382   7.518   8.367 -0.1864 -0.2234  0.1295
  896MOL0     C18185   4.255   6.430   8.957  0.1280 -0.2916 -0.6103
  896MOL0     C18186   4.305   6.308   8.912  0.8288 -1.0505  0.0729
  896MOL0     O18187   4.644   6.249   8.703 -0.2355  0.1114 -0.2111
  896MOL0     C18188   4.611   5.913   8.825  0.4751 -0.9540  0.7082
  896MOL0     C18189   4.657   5.782   8.803  0.3983  1.1216  0.2529
  896MOL0     N18190   5.273   5.489   8.278 -0.0665 -0.1751 -0.5009
  896MOL0     N18191   5.390   5.506   8.235 -0.0322 -0.3751 -0.0475
  896MOL0     C18192   6.432   5.003   7.943  0.4261  0.0909  1.2974
  896MOL0     C18193   6.526   4.939   8.028 -0.5368 -0.4962  0.1752
  896MOL0     C18194   6.797   4.739   8.324  1.0593  1.0387  0.1670
  896MOL0     C18195   6.740   4.682   8.431  0.2797  0.4952 -0.6522
  896MOL0     C18196   6.817   4.608   8.524  0.2884  0.1733  0.5833
  896MOL0     C18197   6.949   4.577   8.504 -0.4248 -0.5073  0.4850
  896MOL0     O18198   7.004   4.486   8.592 -0.1227 -0.9322  0.5037
  896MOL0     C18199   7.138   4.442   8.588  0.4272 -0.7015  0.0847
  896MOL0     C18200   7.162   4.356   8.705  0.5455 -0.4697  0.0561
  896MOL0     C18201   7.179   4.448   8.829  0.6349 -0.2626 -0.1588
  896MOL0     C18202   7.256   4.575   8.814  0.0766  0.1013 -0.9646
  896MOL0     C18203   7.319   4.609   8.939 -0.1100 -0.4494 -0.2434
  896MOL0     C18204   7.365   4.643   9.052 -0.2186  0.0569  0.3752
  896MOL0     C18205   7.008   4.637   8.400  0.2282  0.0975 -0.4239
  896MOL0     C18206   6.940   4.722   8.317  0.5262  0.0095 -0.0047
  896MOL0     H18207   6.354   4.848   8.290 -2.3432 -2.2140 -0.7971
  896MOL0     H18208   6.181   4.974   8.176  0.8417 -1.7912  2.3117
  896MOL0     H18209   6.241   5.307   7.834  0.7426 -2.1160 -2.4765
  896MOL0     H18210   6.390   5.267   7.922  0.1298 -0.4845  0.3471
  896MOL0     H18211   6.275   5.434   8.055 -1.3206  0.6900  1.8832
  896MOL0     H18212   6.259   5.285   8.142  1.2692  1.5761  0.8527
  896MOL0     H18213   6.020   5.251   8.046  0.8812 -1.9860  3.0492
  896MOL0     H18214   6.034   5.405   7.980  0.9807  2.3508  2.1306
  896MOL0     H18215   6.084   5.370   8.284 -0.0977 -0.6748 -0.5401
  896MOL0     H18216   6.043   5.516   8.191 -0.0251 -0.3618 -3.6690
  896MOL0     H18217   5.850   5.291   8.252 -0.4548  0.4384  0.2772
  896MOL0     H18218   5.812   5.445   8.160  1.5153  3.4813  0.4238
  896MOL0     H18219   5.860   5.574   8.359 -2.4451  0.4845  1.0731
  896MOL0     H18220   5.899   5.419   8.446  1.6995  3.2703  1.8656
  896MOL0     H18221   5.647   5.357   8.355  1.9099 -1.4415 -0.5364
  896MOL0     H18222   5.659   5.458   8.503  1.6914  2.3143 -0.0071
  896MOL0     H18223   5.642   5.565   8.210  0.4551 -1.1762  0.3012
  896MOL0     H18224   5.635   5.666   8.361 -1.0682  0.9136 -1.0521
  896MOL0     H18225   5.436   5.564   8.556  2.2772 -1.8071 -0.6858
  896MOL0     H18226   5.139   5.403   8.542  0.2841  0.5959 -0.3747
  896MOL0     H18227   5.069   5.503   8.421  1.4439 -1.1745 -1.7392
  896MOL0     H18228   5.174   5.696   8.577 -0.0840 -1.0881 -0.1238
  896MOL0     H18229   5.219   5.556   8.686  1.7331 -1.2833 -0.3205
  896MOL0     H18230   5.011   5.586   8.792  1.8563  2.4030  1.1442
  896MOL0     H18231   5.002   5.735   8.697  2.2772  0.7049 -0.3401
  896MOL0     H18232   4.888   5.462   8.620  1.6433  0.3280 -1.0717
  896MOL0     H18233   4.894   5.604   8.512 -1.0539  0.3661 -0.1258
  896MOL0     H18234   4.839   5.828   8.518 -3.2439  1.2242 -3.6920
  896MOL0     H18235   4.734   6.068   8.567  2.5705  1.2989  1.3523
  896MOL0     H18236   4.636   6.353   8.936  0.0601  0.0629 -1.3666
  896MOL0     H18237   4.558   6.562   9.028  1.1777 -1.8633  0.3386
  896MOL0     H18238   4.165   6.808   9.043 -4.5656 -1.0760  0.2790
  896MOL0     H18239   4.109   6.681   8.946 -0.0741  1.0820 -2.2519
  896MOL0     H18240   4.283   6.717   8.795  4.9570 -0.3727  0.9602
  896MOL0     H18241   4.380   6.815   8.917 -0.0183  4.6980  0.6845
  896MOL0     H18242   4.237   7.000   8.911  0.9108 -1.1232  1.0641
  896MOL0     H18243   4.134   6.925   8.787 -0.3998  0.1828  1.5624
  896MOL0     H18244   4.429   6.974   8.752  0.0476 -1.9194  0.0867
  896MOL0     H18245   4.322   6.926   8.628  0.6264 -0.6217 -0.1539
  896MOL0     H18246   4.324   7.198   8.777 -0.4014  1.4191 -2.2704
  896MOL0     H18247   4.203   7.161   8.655 -0.1655 -2.8547 -3.8832
  896MOL0     H18248   4.382   7.122   8.485 -2.3819  3.1825 -1.9941
  896MOL0     H18249   4.502   7.181   8.602  0.5066 -1.8174  1.0977
  896MOL0     H18250   4.257   7.329   8.519  0.0640 -1.7841 -1.4482
  896MOL0     H18251   4.386   7.395   8.623 -0.7645 -0.4850  1.5467
  896MOL0     H18252   4.430   7.283   8.341 -1.9594  1.1669 -1.1889
  896MOL0     H18253   4.558   7.357   8.431 -0.6927 -4.0229  1.5018
  896MOL0     H18254   4.147   6.444   8.954  0.2382  0.7602 -0.1288
  896MOL0     H18255   4.230   6.229   8.901 -2.5740  1.1747  4.2349
  896MOL0     H18256   4.544   5.927   8.909 -1.3224 -4.1827  0.0123
  896MOL0     H18257   4.637   5.692   8.860  0.6636 -0.4098 -1.9279
  896MOL0     H18258   6.446   5.031   7.839 -0.0503  0.8815  1.4391
  896MOL0     H18259   6.627   4.946   7.990  0.4762 -0.7509  2.6143
  896MOL0     H18260   6.634   4.693   8.449  0.7413  3.6367  1.0399
  896MOL0     H18261   6.779   4.564   8.616 -0.3274 -0.8278 -0.1451
  896MOL0     H18262   7.205   4.527   8.601  1.2514 -1.0876 -1.3568
  896MOL0     H18263   7.152   4.393   8.491 -0.3768  1.4656 -1.2129
  896MOL0     H18264   7.082   4.284   8.720  0.4684 -0.3834  0.0619
  896MOL0     H18265   7.257   4.306   8.683  0.4148 -0.5631 -0.3126
  896MOL0     H18266   7.228   4.390   8.907 -0.9098 -1.3834  0.0255
  896MOL0     H18267   7.081   4.474   8.870  0.3945 -0.8525 -0.3499
  896MOL0     H18268   7.335   4.559   8.739 -0.6016 -2.2672 -1.2548
  896MOL0     H18269   7.191   4.656   8.780  1.0246  1.4673  0.3513
  896MOL0     H18270   7.409   4.662   9.148 -2.0853 -1.9046  1.7222
  896MOL0     H18271   7.115   4.617   8.397 -0.0673 -2.8108  2.5253
  896MOL0     H18272   6.994   4.785   8.247  1.4499  1.0581  1.5940
  897MOL0     O18273   2.317   5.417   9.525 -0.1689  0.3894 -0.5444
  897MOL0     C18274   2.284   5.538   9.528  1.4270  0.1975  0.1853
  897MOL0     O18275   2.370   5.641   9.534  0.5284 -0.9564  0.9420
  897MOL0     C18276   2.502   5.630   9.539 -0.0282  0.3734 -0.6129
  897MOL0     C18277   2.574   5.669   9.650  0.0233  0.1316  0.4497
  897MOL0     C18278   2.709   5.672   9.642 -0.9905  0.0705 -0.5484
  897MOL0     C18279   2.787   5.653   9.521  0.2932  0.4729 -0.2454
  897MOL0     O18280   2.925   5.656   9.530 -0.0158  0.3146  0.7637
  897MOL0     C18281   2.980   5.707   9.405  0.7460  0.5478 -0.0489
  897MOL0     C18282   3.128   5.738   9.414 -1.0600  0.6130  0.0446
  897MOL0     C18283   3.191   5.731   9.275 -0.5765 -0.1840 -0.6965
  897MOL0     C18284   3.334   5.763   9.252  1.2944 -0.0702  0.6293
  897MOL0     C18285   3.391   5.668   9.139 -0.9634  0.5276 -0.6095
  897MOL0     C18286   3.546   5.689   9.136  0.7388  0.6379  0.0164
  897MOL0     C18287   3.618   5.624   9.008  0.5940 -0.8206 -0.9399
  897MOL0     C18288   3.770   5.633   9.036  0.6213 -0.3157 -0.2748
  897MOL0     N18289   3.845   5.573   8.922  0.7462 -0.5122 -0.3805
  897MOL0     C18290   3.937   5.471   8.922 -0.2302 -1.1595  0.1827
  897MOL0     C18291   3.946   5.445   8.787 -0.4269  0.5099 -0.8049
  897MOL0     C18292   4.035   5.358   8.709  0.1442  0.4603  0.0417
  897MOL0     C18293   4.011   5.359   8.550  0.2928 -0.1054  0.3138
  897MOL0     C18294   3.898   5.275   8.498 -0.0162  0.0092  0.4146
  897MOL0     C18295   3.896   5.294   8.351 -0.0793  0.1337  1.4628
  897MOL0     O18296   3.771   5.263   8.289 -0.7709  0.0465  0.0014
  897MOL0     C18297   3.755   5.273   8.157 -0.6421 -0.9318 -0.5513
  897MOL0     C18298   3.618   5.265   8.125 -0.0716  0.4540 -0.0510
  897MOL0     C18299   3.579   5.287   7.989  0.8099  0.0307  0.7571
  897MOL0     C18300   3.684   5.304   7.887 -0.7313  0.4364  0.0842
  897MOL0     C18301   3.646   5.310   7.744 -0.0618 -0.3533 -0.1471
  897MOL0     O18302   3.517   5.330   7.706 -0.1288  0.2153  0.4708
  897MOL0     C18303   3.474   5.331   7.575 -0.7028 -0.1189  0.5427
  897MOL0     C18304   3.364   5.409   7.526  0.1015  0.0100 -0.0915
  897MOL0     C18305   3.341   5.413   7.387 -0.8961 -0.1210  0.6959
  897MOL0     C18306   3.412   5.329   7.296 -0.0166 -0.4556 -0.1739
  897MOL0     O18307   3.395   5.341   7.164  0.4636 -0.2041  1.2250
  897MOL0     C18308   3.365   5.465   7.094  0.2726  0.1607  0.0141
  897MOL0     C18309   3.218   5.470   7.058  0.3105 -0.7264  0.2106
  897MOL0     C18310   3.169   5.351   6.989 -0.0620 -0.2753  0.5915
  897MOL0     C18311   3.016   5.364   6.974  0.8288 -0.9455  0.7375
  897MOL0     C18312   2.948   5.228   6.986 -0.3301 -0.0166 -0.0154
  897MOL0     C18313   2.794   5.234   6.938 -0.2927  0.8572 -0.1420
  897MOL0     C18314   2.741   5.093   6.895  0.2714 -0.3872  0.2316
  897MOL0     C18315   2.754   4.991   7.009  0.4417  0.1260 -0.2026
  897MOL0    Cl18316   2.674   4.840   6.951  0.3317 -0.0057 -0.1768
  897MOL0     C18317   3.502   5.247   7.352 -0.6835  1.6046 -0.8367
  897MOL0     C18318   3.523   5.240   7.490  0.0258  0.7322 -0.1020
  897MOL0     O18319   3.739   5.298   7.667 -0.2366 -0.5851  0.4320
  897MOL0     C18320   3.818   5.313   7.929  0.6831  0.4309  0.1208
  897MOL0     C18321   3.852   5.300   8.055  0.4273  0.5720 -0.1495
  897MOL0     N18322   3.845   5.524   8.725 -0.3319  0.0328 -0.1533
  897MOL0     N18323   3.803   5.615   8.810 -1.0078 -0.4300 -0.4124
  897MOL0     C18324   2.714   5.617   9.410  0.3789 -0.1237  0.5719
  897MOL0     C18325   2.576   5.592   9.419 -0.8741  0.6332  0.1135
  897MOL0     C18326   2.136   5.572   9.529 -0.4551  0.0513  0.8344
  897MOL0     C18327   2.037   5.480   9.491 -0.0353  0.5268  0.7050
  897MOL0     C18328   1.901   5.515   9.487  0.5355  0.4235  0.0121
  897MOL0     C18329   1.861   5.644   9.526  0.4181 -0.1525  0.1369
  897MOL0     O18330   1.720   5.660   9.528  0.3724 -0.1458  0.6015
  897MOL0     C18331   1.674   5.793   9.538 -0.8781 -0.4040 -0.1659
  897MOL0     C18332   1.517   5.816   9.528  0.2459  0.0138 -0.1738
  897MOL0     C18333   1.481   5.962   9.530  1.0840  0.0715 -0.2866
  897MOL0     C18334   1.329   6.003   9.536 -0.9600 -1.5595  0.3263
  897MOL0     C18335   1.276   6.003   9.668 -1.0480 -1.6883  0.6146
  897MOL0     C18336   1.217   6.008   9.776 -0.6694  0.1494  1.0086
  897MOL0     C18337   1.959   5.740   9.559  0.2555 -0.6429  0.4580
  897MOL0     C18338   2.092   5.706   9.561 -0.1506  0.3959 -0.2684
  897MOL0     H18339   2.514   5.706   9.733 -2.4230 -0.0652 -1.1291
  897MOL0     H18340   2.758   5.695   9.735 -1.7394  1.0948 -0.3925
  897MOL0     H18341   2.926   5.798   9.378 -3.6085 -1.7608 -0.0266
  897MOL0     H18342   2.974   5.633   9.325  3.3384 -0.6740  0.7692
  897MOL0     H18343   3.187   5.686   9.490 -2.6996  3.3963  3.5204
  897MOL0     H18344   3.139   5.845   9.432 -2.0934  1.5675 -3.8709
  897MOL0     H18345   3.145   5.819   9.230 -2.5467 -1.4406 -1.2315
  897MOL0     H18346   3.167   5.636   9.225 -0.2367 -3.2594  4.2549
  897MOL0     H18347   3.355   5.869   9.233  4.2036 -0.1926  2.4918
  897MOL0     H18348   3.381   5.730   9.345 -1.7815 -4.6531  0.8573
  897MOL0     H18349   3.347   5.698   9.043 -3.0903 -0.2061  0.0912
  897MOL0     H18350   3.377   5.564   9.169  0.5292  1.0969  2.4184
  897MOL0     H18351   3.592   5.668   9.233 -0.6456 -0.9308  0.3741
  897MOL0     H18352   3.563   5.797   9.125  2.3021  0.4234  0.2084
  897MOL0     H18353   3.585   5.519   9.004 -1.7429 -0.3485  2.2671
  897MOL0     H18354   3.587   5.685   8.922  0.3122 -0.5841 -0.6691
  897MOL0     H18355   3.783   5.573   9.127 -1.0930 -0.2903  0.0256
  897MOL0     H18356   3.807   5.733   9.062  0.2187 -0.1274 -0.4124
  897MOL0     H18357   3.983   5.431   9.012 -1.6643  1.6817  2.3423
  897MOL0     H18358   4.036   5.255   8.743  0.9171  0.3303 -0.3428
  897MOL0     H18359   4.138   5.395   8.705  0.9955 -1.8392 -3.0131
  897MOL0     H18360   4.103   5.321   8.505  1.1167  2.9082 -0.8372
  897MOL0     H18361   3.998   5.464   8.522  0.5337  0.5588  2.5109
  897MOL0     H18362   3.910   5.168   8.519  2.4361  0.7874  3.6825
  897MOL0     H18363   3.798   5.302   8.534 -0.5106  1.3162 -1.7525
  897MOL0     H18364   3.986   5.254   8.302 -0.6161 -0.1021  0.6453
  897MOL0     H18365   3.911   5.400   8.329  5.1727 -1.1417 -3.5881
  897MOL0     H18366   3.545   5.248   8.203 -0.2538 -1.8856 -0.6589
  897MOL0     H18367   3.473   5.291   7.968  0.6424 -1.4286  1.1589
  897MOL0     H18368   3.317   5.472   7.601  1.5112 -1.7914  2.4665
  897MOL0     H18369   3.262   5.479   7.353  0.8845  1.2363 -1.0780
  897MOL0     H18370   3.406   5.467   6.993  0.5188 -1.3777  0.0630
  897MOL0     H18371   3.407   5.552   7.145  2.5483 -0.7243 -0.2168
  897MOL0     H18372   3.200   5.551   6.987 -2.6868 -1.2085  0.3088
  897MOL0     H18373   3.153   5.483   7.145 -2.2199 -4.4919 -0.8357
  897MOL0     H18374   3.186   5.264   7.054 -1.8755  0.9590  2.8696
  897MOL0     H18375   3.206   5.339   6.887 -1.7142 -1.8159  0.1315
  897MOL0     H18376   2.966   5.433   7.043 -1.8778 -0.2209 -1.7640
  897MOL0     H18377   3.011   5.399   6.871  4.1660 -1.6185  0.2120
  897MOL0     H18378   2.953   5.178   7.083  2.0854 -1.2294 -0.6859
  897MOL0     H18379   2.998   5.156   6.920 -2.9455 -1.0904 -0.9608
  897MOL0     H18380   2.788   5.306   6.856 -4.6040  0.7070 -0.1585
  897MOL0     H18381   2.726   5.276   7.013  0.8899  0.8987  0.9443
  897MOL0     H18382   2.634   5.097   6.875  0.1987  0.9612  0.7743
  897MOL0     H18383   2.785   5.061   6.800 -1.7865 -0.6871 -0.6826
  897MOL0     H18384   2.707   5.032   7.098 -0.2462  1.9312 -1.3508
  897MOL0     H18385   2.863   4.979   7.018  0.3627 -0.1897  0.3719
  897MOL0     H18386   3.553   5.174   7.291 -3.0176  1.3795 -2.6402
  897MOL0     H18387   3.579   5.157   7.532 -1.0909 -0.4676 -0.9170
  897MOL0     H18388   3.903   5.300   7.863  1.7663  1.0194  1.3438
  897MOL0     H18389   3.953   5.310   8.092 -0.6143 -0.4998  3.3444
  897MOL0     H18390   2.761   5.600   9.314  1.3807 -1.0547  1.1978
  897MOL0     H18391   2.515   5.565   9.333  0.1118 -2.1344  0.1974
  897MOL0     H18392   2.062   5.375   9.483 -0.7443  0.4588 -1.1803
  897MOL0     H18393   1.823   5.441   9.471  1.1486 -0.2886  0.2352
  897MOL0     H18394   1.725   5.850   9.459  1.3701 -4.1925 -1.7087
  897MOL0     H18395   1.707   5.838   9.632 -2.4786  3.4226 -1.2344
  897MOL0     H18396   1.480   5.765   9.439 -1.5340  0.0355  0.5080
  897MOL0     H18397   1.466   5.773   9.615  2.5218  1.0680  1.8185
  897MOL0     H18398   1.527   6.005   9.441  4.2846  1.1479  1.7062
  897MOL0     H18399   1.515   6.002   9.626 -3.2668 -1.7596  2.3243
  897MOL0     H18400   1.323   6.107   9.501  2.8839 -1.6238 -1.0345
  897MOL0     H18401   1.271   5.929   9.481  0.9251 -1.8121 -1.4630
  897MOL0     H18402   1.174   6.015   9.873  0.4816 -2.1299  1.7447
  897MOL0     H18403   1.940   5.844   9.584  2.7637 -0.2849  1.1486
  897MOL0     H18404   2.162   5.784   9.589  1.3238 -0.6039 -1.0784
  898MOL0     O18405  11.426  10.277   7.905 -0.1475 -0.2462 -0.3090
  898MOL0     C18406  11.376  10.389   7.874  0.0836  0.1355 -1.1632
  898MOL0     O18407  11.268  10.453   7.950 -0.4207  0.5808  0.4351
  898MOL0     C18408  11.283  10.444   8.085  0.0518  0.1627  0.1922
  898MOL0     C18409  11.258  10.319   8.136  0.6037 -0.0853 -0.4601
  898MOL0     C18410  11.258  10.299   8.275  0.3832  0.2536  1.0168
  898MOL0     C18411  11.278  10.409   8.362 -0.0175  0.4805 -0.6632
  898MOL0     O18412  11.278  10.400   8.498 -0.6722  0.1911  0.5576
  898MOL0     C18413  11.216  10.276   8.547 -0.4077  0.6138  0.0483
  898MOL0     C18414  11.186  10.262   8.695 -0.0041  0.1778 -0.3326
  898MOL0     C18415  11.137  10.121   8.717 -0.7520  0.2012 -0.8135
  898MOL0     C18416  11.100  10.078   8.856  0.1749 -0.2822  0.1103
  898MOL0     C18417  11.045   9.927   8.856 -0.8170  0.1036  0.2912
  898MOL0     C18418  10.904   9.897   8.796  0.0873  0.0318  0.0389
  898MOL0     C18419  10.848   9.751   8.808  0.8203 -0.3760 -0.3595
  898MOL0     C18420  10.695   9.731   8.755  0.0791 -0.7264  1.0112
  898MOL0     N18421  10.599   9.805   8.834  0.5930  0.5448 -0.1386
  898MOL0     C18422  10.530   9.753   8.938 -0.3413 -0.2582 -0.0885
  898MOL0     C18423  10.430   9.838   8.959 -0.8383 -0.2949  0.6565
  898MOL0     C18424  10.313   9.810   9.047 -0.1380 -0.1415 -0.1444
  898MOL0     C18425  10.324   9.885   9.184  0.1768  0.2142 -0.1299
  898MOL0     C18426  10.273   9.798   9.303  0.6727  1.0889  0.1960
  898MOL0     C18427  10.133   9.854   9.352 -0.0486 -1.2612 -0.7530
  898MOL0     O18428  10.150   9.972   9.427 -0.1173 -0.6016 -0.0804
  898MOL0     C18429  10.046  10.015   9.500 -1.0738 -0.7234 -0.4759
  898MOL0     C18430   9.912   9.956   9.499 -1.2422 -0.6696 -0.3184
  898MOL0     C18431   9.805  10.017   9.562  0.1785  0.1862 -0.3520
  898MOL0     C18432   9.832  10.122   9.658  0.5822  0.2270 -0.6181
  898MOL0     C18433   9.719  10.184   9.742 -0.3615 -0.1218  0.2477
  898MOL0     O18434   9.761  10.294   9.810 -0.1627 -0.4231  0.6361
  898MOL0     C18435   9.653  10.373   9.852 -0.1954 -0.5429  0.5397
  898MOL0     C18436   9.664  10.412   9.994  0.4598 -0.2226  0.1345
  898MOL0     C18437   9.556  10.481  10.051  0.4190  0.5869 -0.0272
  898MOL0     C18438   9.443  10.519   9.972 -0.2147 -1.2181  0.2724
  898MOL0     O18439   9.362  10.595  10.035  0.1005  0.1184  0.1003
  898MOL0     C18440   9.222  10.594  10.006 -0.8775 -0.9677 -0.3409
  898MOL0     C18441   9.136  10.665  10.108  0.1148  1.0719 -0.6740
  898MOL0     C18442   9.198  10.672  10.252 -0.6211  0.5255  1.0506
  898MOL0     C18443   9.120  10.772  10.336  0.1622  0.1691 -0.3433
  898MOL0     C18444   9.159  10.744  10.477 -0.3637 -0.3308 -0.3935
  898MOL0     C18445   9.106  10.847  10.581  0.7918  0.3947  0.5265
  898MOL0     C18446   9.128  10.818  10.720 -0.1774 -0.1353  0.1942
  898MOL0     C18447   9.114  10.943  10.809 -0.1064 -0.1867 -0.0436
  898MOL0    Cl18448   9.121  10.890  10.980 -0.0496 -0.1084 -0.1247
  898MOL0     C18449   9.431  10.484   9.835  0.2541 -0.6270 -1.1369
  898MOL0     C18450   9.538  10.414   9.780  1.3961 -0.0999 -0.0989
  898MOL0     O18451   9.597  10.149   9.734 -0.5416  0.2718 -0.6353
  898MOL0     C18452   9.973  10.175   9.665 -0.4072 -0.0579  1.3805
  898MOL0     C18453  10.074  10.119   9.585 -0.7632 -0.8431 -0.8447
  898MOL0     N18454  10.441   9.940   8.868  0.0829  0.4170  0.2666
  898MOL0     N18455  10.541   9.918   8.791 -0.0781 -1.0499 -0.9407
  898MOL0     C18456  11.308  10.528   8.307  0.2895 -0.9430 -0.8085
  898MOL0     C18457  11.312  10.557   8.171  0.4355 -0.0375  0.2531
  898MOL0     C18458  11.405  10.455   7.748  0.3308 -0.2015  0.1556
  898MOL0     C18459  11.362  10.584   7.712 -0.1985  0.0527 -0.7340
  898MOL0     C18460  11.404  10.643   7.600 -0.4095  0.0231  0.3757
  898MOL0     C18461  11.487  10.572   7.500 -0.6885 -0.0858 -0.0751
  898MOL0     O18462  11.541  10.623   7.385  0.4368  0.5084 -0.1825
  898MOL0     C18463  11.465  10.723   7.327 -0.8263  0.5482 -0.1609
  898MOL0     C18464  11.497  10.696   7.178  0.5585  0.2388  0.5702
  898MOL0     C18465  11.450  10.563   7.123 -0.3743  0.7556  0.3241
  898MOL0     C18466  11.482  10.564   6.969 -0.7536  0.3432 -0.3589
  898MOL0     C18467  11.386  10.638   6.895  0.3477  0.1431  0.3158
  898MOL0     C18468  11.326  10.719   6.829 -0.1248  0.2733  0.4485
  898MOL0     C18469  11.531  10.447   7.535  0.0996  0.2569 -0.2307
  898MOL0     C18470  11.489  10.382   7.652  0.2634 -0.0652 -0.6266
  898MOL0     H18471  11.229  10.238   8.070 -2.8344  1.5013 -1.1034
  898MOL0     H18472  11.238  10.199   8.312 -2.5033 -0.6613 -2.4184
  898MOL0     H18473  11.277  10.188   8.525 -0.7123  0.5211 -0.4522
  898MOL0     H18474  11.117  10.265   8.502  0.4627 -1.8480 -1.4912
  898MOL0     H18475  11.113  10.333   8.736 -2.2433 -2.2377  0.1661
  898MOL0     H18476  11.275  10.270   8.758 -0.7824 -0.5053  0.8996
  898MOL0     H18477  11.213  10.048   8.688  0.0613 -0.8525  3.2674
  898MOL0     H18478  11.043  10.112   8.661 -2.8721 -3.0287  2.7908
  898MOL0     H18479  11.176  10.081   8.934  0.1318 -3.4465  0.3751
  898MOL0     H18480  11.017  10.146   8.877 -0.4858 -0.3420 -2.0719
  898MOL0     H18481  11.049   9.893   8.960  0.9102  2.5048  1.0751
  898MOL0     H18482  11.118   9.866   8.803  1.1569  2.6803 -0.1322
  898MOL0     H18483  10.905   9.934   8.692 -1.0262  0.7334  0.2601
  898MOL0     H18484  10.833   9.965   8.843  0.8702 -0.1776  1.5611
  898MOL0     H18485  10.908   9.705   8.729  0.1831 -0.1961 -0.9661
  898MOL0     H18486  10.866   9.703   8.904 -1.2280 -1.2085 -0.3229
  898MOL0     H18487  10.673   9.624   8.752 -0.1018 -0.6652 -0.8923
  898MOL0     H18488  10.681   9.753   8.649  1.3578 -2.6308  0.4026
  898MOL0     H18489  10.547   9.661   8.992  0.0602  0.3383  0.8311
  898MOL0     H18490  10.315   9.701   9.062 -0.1681  0.1505  2.2443
  898MOL0     H18491  10.227   9.829   8.982  2.2518 -1.2694 -4.0449
  898MOL0     H18492  10.277   9.984   9.182 -0.3314 -0.0428 -1.4372
  898MOL0     H18493  10.428   9.906   9.210 -0.8816  3.3581  2.1874
  898MOL0     H18494  10.247   9.699   9.265  0.9419  0.8208  0.7024
  898MOL0     H18495  10.357   9.787   9.372 -0.1849  1.5042  1.3416
  898MOL0     H18496  10.083   9.780   9.415 -0.0991  1.3226  2.5976
  898MOL0     H18497  10.080   9.892   9.264 -2.8548 -0.0837  1.2790
  898MOL0     H18498   9.893   9.869   9.436 -0.2224 -1.1947  0.0782
  898MOL0     H18499   9.705   9.979   9.548  1.1035 -1.7832 -2.0644
  898MOL0     H18500   9.759  10.385  10.037  0.1154  1.9830  2.5299
  898MOL0     H18501   9.564  10.517  10.153 -1.5125  1.2482 -0.0737
  898MOL0     H18502   9.199  10.488  10.016  0.6574 -1.2999 -0.1133
  898MOL0     H18503   9.202  10.630   9.905  2.2107 -2.1891 -1.5060
  898MOL0     H18504   9.042  10.610  10.094 -0.6688  2.5626 -1.5442
  898MOL0     H18505   9.115  10.766  10.070  0.8530 -0.3165 -5.3642
  898MOL0     H18506   9.305  10.691  10.237 -1.0447  1.3470 -1.4668
  898MOL0     H18507   9.184  10.576  10.302  1.7526 -1.6009 -1.9294
  898MOL0     H18508   9.142  10.877  10.316  1.8136  0.5344  2.8132
  898MOL0     H18509   9.013  10.749  10.328  0.6513 -1.7927 -2.1816
  898MOL0     H18510   9.268  10.754  10.478 -0.2747 -0.1761 -3.3089
  898MOL0     H18511   9.143  10.640  10.509  0.5001 -0.8507 -1.6015
  898MOL0     H18512   9.000  10.835  10.561 -0.2642  0.8584  4.9042
  898MOL0     H18513   9.140  10.948  10.556  1.7131 -0.6389 -3.0453
  898MOL0     H18514   9.067  10.732  10.746  0.2452  0.0867  2.0818
  898MOL0     H18515   9.233  10.791  10.736  0.4715  1.0879 -1.5906
  898MOL0     H18516   9.021  10.998  10.790  0.6953  2.7833  3.4522
  898MOL0     H18517   9.192  11.018  10.791 -1.7665  1.3083 -1.3780
  898MOL0     H18518   9.356  10.541   9.782  0.2883  1.1853  0.6392
  898MOL0     H18519   9.538  10.394   9.674  0.5329 -2.1600  0.2292
  898MOL0     H18520   9.982  10.262   9.729 -0.3150  0.0368  1.2391
  898MOL0     H18521  10.173  10.160   9.599 -1.5990  1.1852 -0.5373
  898MOL0     H18522  11.327  10.612   8.373 -1.7598 -0.4683 -0.7739
  898MOL0     H18523  11.343  10.654   8.134  0.1673  1.7007  4.1626
  898MOL0     H18524  11.300  10.632   7.787  1.1795 -0.2279  0.6470
  898MOL0     H18525  11.355  10.736   7.569 -0.8799 -0.4234 -0.2571
  898MOL0     H18526  11.497  10.827   7.343  2.3816 -0.2182 -1.0356
  898MOL0     H18527  11.359  10.721   7.354 -1.5898  0.9805 -2.7881
  898MOL0     H18528  11.461  10.773   7.110  3.0715  1.6386  0.7011
  898MOL0     H18529  11.606  10.707   7.178  0.5829  0.1542 -0.6805
  898MOL0     H18530  11.343  10.552   7.142 -0.5563  2.0615  0.1293
  898MOL0     H18531  11.507  10.489   7.179 -4.1906 -3.1101 -0.3023
  898MOL0     H18532  11.580  10.604   6.940  0.4387  0.4624  3.2051
  898MOL0     H18533  11.477  10.462   6.931 -0.8202  1.4407 -3.5126
  898MOL0     H18534  11.266  10.796   6.783 -0.0967  1.0240  1.6119
  898MOL0     H18535  11.585  10.396   7.456 -2.7853 -1.8448 -1.0273
  898MOL0     H18536  11.509  10.277   7.674 -3.8407 -0.8646  0.1445
  899MOL0     O18537   1.760   4.505   4.876 -0.0258  0.5619 -0.2788
  899MOL0     C18538   1.801   4.412   4.948 -0.3613 -0.1811 -0.3516
  899MOL0     O18539   1.794   4.270   4.933 -0.1335 -0.0785  0.1923
  899MOL0     C18540   1.707   4.217   4.838 -0.0453 -0.3768  0.0413
  899MOL0     C18541   1.752   4.198   4.707 -1.2672  0.3240 -0.1376
  899MOL0     C18542   1.675   4.140   4.607 -0.2151  0.2560  0.0049
  899MOL0     C18543   1.546   4.086   4.647  0.2961  0.4580  0.4071
  899MOL0     O18544   1.473   4.017   4.553  0.2010  0.7413  0.0967
  899MOL0     C18545   1.397   3.904   4.591 -0.8528  0.0502  0.3557
  899MOL0     C18546   1.366   3.825   4.460  0.2233 -0.9981 -0.6155
  899MOL0     C18547   1.462   3.821   4.352  0.3322  0.0536 -0.7649
  899MOL0     C18548   1.433   3.730   4.230  0.7399  0.0136  0.7281
  899MOL0     C18549   1.546   3.735   4.126  0.2081  1.2654  0.7222
  899MOL0     C18550   1.552   3.605   4.038 -0.1112 -0.2711 -0.0155
  899MOL0     C18551   1.577   3.480   4.122  0.0851  0.1498  0.2801
  899MOL0     C18552   1.637   3.368   4.042 -0.4692 -0.5838 -0.5414
  899MOL0     N18553   1.554   3.324   3.931 -0.2779  0.1770  1.0895
  899MOL0     C18554   1.476   3.216   3.938  0.6467  0.4529  0.2608
  899MOL0     C18555   1.457   3.177   3.809  0.0119 -0.2553  1.2540
  899MOL0     C18556   1.409   3.040   3.767  0.4698 -0.3875  0.7485
  899MOL0     C18557   1.513   2.936   3.734  0.1767  0.0984  1.1735
  899MOL0     C18558   1.436   2.823   3.666  0.9644 -0.1597 -0.7136
  899MOL0     C18559   1.504   2.694   3.680 -0.5084  0.2957  0.3205
  899MOL0     O18560   1.628   2.719   3.605  0.0555  0.7656  0.3010
  899MOL0     C18561   1.650   2.670   3.476  1.1002 -0.6966 -0.7597
  899MOL0     C18562   1.540   2.644   3.392  0.0634  0.4224  0.4672
  899MOL0     C18563   1.559   2.591   3.264 -0.0957 -0.6418 -1.1370
  899MOL0     C18564   1.686   2.553   3.215 -0.0332 -0.5305  0.4255
  899MOL0     C18565   1.712   2.488   3.090  0.2336 -0.8408 -0.6174
  899MOL0     O18566   1.606   2.472   3.011  0.5019 -0.4627  0.0936
  899MOL0     C18567   1.622   2.431   2.882 -0.4022  0.4254 -0.2914
  899MOL0     C18568   1.616   2.295   2.855  0.5974  0.3062 -0.8775
  899MOL0     C18569   1.672   2.248   2.731 -0.5971 -0.8555  0.2134
  899MOL0     C18570   1.718   2.342   2.637  0.8429 -0.1231 -0.8696
  899MOL0     O18571   1.751   2.296   2.517  0.6158 -1.2977  0.1071
  899MOL0     C18572   1.889   2.280   2.497 -0.5500 -0.1493  0.6342
  899MOL0     C18573   1.906   2.277   2.333  0.0374  0.6288 -1.0014
  899MOL0     C18574   2.022   2.195   2.279 -0.1724  0.3090 -0.5977
  899MOL0     C18575   2.156   2.278   2.295  0.3293  0.3681 -0.2268
  899MOL0     C18576   2.266   2.212   2.224  0.0185 -0.1606  0.3587
  899MOL0     C18577   2.245   2.190   2.075  1.0331  0.0761 -0.4734
  899MOL0     C18578   2.380   2.140   2.011 -0.0829  0.6108 -0.4381
  899MOL0     C18579   2.367   2.104   1.866 -0.2335 -0.2319 -0.8276
  899MOL0    Cl18580   2.481   1.951   1.821 -0.3004 -0.0837 -0.1993
  899MOL0     C18581   1.695   2.483   2.657  0.1855  0.0741  0.1870
  899MOL0     C18582   1.662   2.525   2.787  0.0612  0.3330 -0.4566
  899MOL0     O18583   1.831   2.460   3.054  0.7298  0.6090  0.2051
  899MOL0     C18584   1.796   2.578   3.300 -0.0224  0.7769  1.0589
  899MOL0     C18585   1.778   2.636   3.428 -0.1976  0.2874 -0.6650
  899MOL0     N18586   1.526   3.264   3.727  0.4096 -0.3916 -0.3031
  899MOL0     N18587   1.579   3.357   3.801 -0.8232 -0.5542  0.6161
  899MOL0     C18588   1.498   4.103   4.779 -0.0703 -0.6331  0.2381
  899MOL0     C18589   1.581   4.183   4.866 -0.1752  0.1064 -0.0237
  899MOL0     C18590   1.890   4.436   5.061 -0.4911 -0.1562  0.4575
  899MOL0     C18591   1.842   4.476   5.186 -0.2309 -0.1020  0.3183
  899MOL0     C18592   1.931   4.487   5.289 -0.2168 -0.5337  0.2126
  899MOL0     C18593   2.071   4.452   5.282  0.0948 -0.0713 -0.0510
  899MOL0     O18594   2.139   4.443   5.403 -0.0637  0.7985  0.0618
  899MOL0     C18595   2.277   4.398   5.394  0.4540 -0.0621  0.6126
  899MOL0     C18596   2.323   4.351   5.537 -0.0429 -0.1775  0.2276
  899MOL0     C18597   2.282   4.434   5.662 -0.3974 -0.4149  0.4621
  899MOL0     C18598   2.336   4.580   5.642  1.1953 -0.1476 -0.1242
  899MOL0     C18599   2.343   4.658   5.765 -1.1498 -0.3651 -0.1368
  899MOL0     C18600   2.368   4.718   5.866  0.2330 -0.0181 -0.9558
  899MOL0     C18601   2.114   4.431   5.154 -0.1611  0.7429  0.7425
  899MOL0     C18602   2.029   4.423   5.043  0.0250  1.3437 -0.2433
  899MOL0     H18603   1.844   4.244   4.674 -1.5267  1.1447  0.2433
  899MOL0     H18604   1.696   4.146   4.501  1.3963 -0.3629  0.2613
  899MOL0     H18605   1.307   3.942   4.640 -1.1367 -0.8511  0.5536
  899MOL0     H18606   1.454   3.841   4.660 -0.0641  0.0907 -0.2380
  899MOL0     H18607   1.277   3.881   4.430  0.5163  0.4763  1.0528
  899MOL0     H18608   1.340   3.725   4.496  1.2250 -0.9700  0.2446
  899MOL0     H18609   1.556   3.786   4.396 -0.5959  0.1476  1.4453
  899MOL0     H18610   1.483   3.923   4.318  1.9434 -0.5713 -1.7531
  899MOL0     H18611   1.395   3.631   4.259 -1.4891  0.9185  1.1005
  899MOL0     H18612   1.345   3.780   4.188  0.6024 -0.5964  0.2705
  899MOL0     H18613   1.637   3.735   4.187  0.9977  2.6230 -0.4166
  899MOL0     H18614   1.547   3.819   4.056  1.8055  0.8584  0.2152
  899MOL0     H18615   1.627   3.620   3.960 -0.0263 -0.5224  0.0174
  899MOL0     H18616   1.452   3.591   3.995  0.0468  0.3635 -0.6150
  899MOL0     H18617   1.651   3.507   4.197  1.8486  1.8121 -1.9294
  899MOL0     H18618   1.481   3.469   4.174 -0.0781  2.8508  0.6590
  899MOL0     H18619   1.664   3.281   4.103 -0.1835  1.6093  2.7109
  899MOL0     H18620   1.710   3.421   3.980 -1.5336 -0.2459 -1.5375
  899MOL0     H18621   1.448   3.159   4.025 -1.5056 -1.4316 -1.5387
  899MOL0     H18622   1.347   3.056   3.679 -0.6328  0.8275  1.7038
  899MOL0     H18623   1.358   2.994   3.852 -0.3275  1.1231  1.1368
  899MOL0     H18624   1.571   2.903   3.821  0.5757 -4.0464 -0.4385
  899MOL0     H18625   1.588   2.985   3.671  0.0069 -1.2133 -0.0856
  899MOL0     H18626   1.333   2.807   3.700  0.9139  4.1995  1.8871
  899MOL0     H18627   1.424   2.844   3.559 -1.5291  0.4714 -0.3722
  899MOL0     H18628   1.436   2.619   3.638  1.6655 -0.7346 -1.5455
  899MOL0     H18629   1.539   2.667   3.780  0.7767  2.7367  0.6121
  899MOL0     H18630   1.438   2.673   3.414 -0.0930  1.9621 -1.9739
  899MOL0     H18631   1.473   2.591   3.198 -0.8125  3.0958 -0.4494
  899MOL0     H18632   1.569   2.230   2.928 -3.0295  4.4967  1.0139
  899MOL0     H18633   1.673   2.146   2.695  2.5192 -0.5254 -0.9919
  899MOL0     H18634   1.925   2.185   2.536 -2.7963 -1.8127 -1.0866
  899MOL0     H18635   1.951   2.361   2.538  2.7402  0.1827 -4.1005
  899MOL0     H18636   1.907   2.381   2.302 -0.8415  1.1529  0.5869
  899MOL0     H18637   1.812   2.232   2.298  0.1545 -4.3090  3.6237
  899MOL0     H18638   1.992   2.172   2.176 -0.1632 -1.6924 -0.1916
  899MOL0     H18639   2.026   2.105   2.341 -2.1229 -0.0885 -0.9846
  899MOL0     H18640   2.134   2.383   2.274  0.5426  0.4785  0.0918
  899MOL0     H18641   2.179   2.264   2.401 -1.9979 -0.1776  0.2587
  899MOL0     H18642   2.271   2.112   2.268 -0.0568 -1.2939 -2.0658
  899MOL0     H18643   2.357   2.272   2.239  2.1648 -3.1968  0.4700
  899MOL0     H18644   2.200   2.281   2.033 -0.1206  1.0797  2.5900
  899MOL0     H18645   2.171   2.110   2.066  4.5635 -3.3303 -2.0996
  899MOL0     H18646   2.453   2.215   2.043  0.6433 -0.8532  1.5285
  899MOL0     H18647   2.414   2.052   2.067 -3.2135  0.4381  1.4320
  899MOL0     H18648   2.406   2.195   1.819 -1.1936  0.2022 -0.8167
  899MOL0     H18649   2.265   2.076   1.837 -0.2730  0.2311 -1.1518
  899MOL0     H18650   1.725   2.547   2.575  5.5087 -1.6787  0.4031
  899MOL0     H18651   1.648   2.628   2.819 -1.7258  0.0554 -0.2199
  899MOL0     H18652   1.894   2.552   3.262 -0.7422 -1.5979  0.5932
  899MOL0     H18653   1.861   2.658   3.493 -0.3121  3.0365 -1.3430
  899MOL0     H18654   1.403   4.060   4.810 -0.4309  0.0336  0.0712
  899MOL0     H18655   1.538   4.206   4.963 -2.7795  1.4802 -1.3794
  899MOL0     H18656   1.736   4.492   5.205 -0.8086 -1.3022 -1.5899
  899MOL0     H18657   1.891   4.502   5.389  1.9580 -1.5517  1.3251
  899MOL0     H18658   2.340   4.483   5.369  0.0837 -0.1502 -0.6901
  899MOL0     H18659   2.285   4.315   5.322 -2.3536  0.3219 -0.2905
  899MOL0     H18660   2.293   4.246   5.546 -0.9335 -0.0864 -1.3921
  899MOL0     H18661   2.432   4.349   5.539 -0.0227 -0.8712  2.9960
  899MOL0     H18662   2.329   4.395   5.753  1.2848  2.2389  0.8485
  899MOL0     H18663   2.173   4.444   5.661 -0.3368  0.3933  0.8372
  899MOL0     H18664   2.440   4.568   5.607  1.9022  0.3127  1.7278
  899MOL0     H18665   2.267   4.632   5.575  0.2203  2.3940  2.6434
  899MOL0     H18666   2.391   4.775   5.954  0.8728 -0.8193 -0.5894
  899MOL0     H18667   2.220   4.415   5.140 -0.4512  0.0944 -0.8729
  899MOL0     H18668   2.071   4.393   4.947 -1.2840 -0.6536 -0.2688
  900MOL0     O18669   2.628   0.249   5.877 -0.7856 -1.2918 -0.2438
  900MOL0     C18670   2.524   0.231   5.816  0.1377  0.9821  0.0743
  900MOL0     O18671   2.450   0.320   5.743 -0.0505 -0.4559 -0.2743
  900MOL0     C18672   2.496   0.445   5.723  0.0951  0.2928 -0.2150
  900MOL0     C18673   2.419   0.554   5.748  0.8122  0.5252 -0.9771
  900MOL0     C18674   2.475   0.685   5.723  0.2080 -0.3366 -0.6651
  900MOL0     C18675   2.603   0.706   5.667 -0.8438 -0.9663  0.9638
  900MOL0     O18676   2.646   0.834   5.647  0.0669 -0.4742 -0.1339
  900MOL0     C18677   2.711   0.860   5.519  0.5737  0.8544 -1.1806
  900MOL0     C18678   2.674   0.990   5.455 -1.3061  0.7882 -0.2383
  900MOL0     C18679   2.529   0.989   5.411  0.2627  0.2863  0.1233
  900MOL0     C18680   2.521   0.898   5.291 -0.4048  0.5736  0.3948
  900MOL0     C18681   2.411   0.937   5.193 -0.2063 -0.0453  0.5888
  900MOL0     C18682   2.266   0.942   5.247 -0.2936 -0.0538 -0.4477
  900MOL0     C18683   2.203   0.818   5.316  0.2364 -1.0391 -0.1821
  900MOL0     C18684   2.192   0.707   5.205  0.3918  0.0113 -0.6786
  900MOL0     N18685   2.086   0.726   5.100  0.1418 -0.1429 -0.5003
  900MOL0     C18686   2.039   0.625   5.026  0.4704  0.1200 -0.1699
  900MOL0     C18687   1.958   0.676   4.935  0.0192 -0.2272 -0.2187
  900MOL0     C18688   1.898   0.606   4.824  0.4163  1.1354  0.8816
  900MOL0     C18689   1.983   0.577   4.705 -0.5710  0.0282  0.6864
  900MOL0     C18690   1.897   0.534   4.583 -0.2645  0.0015  0.5981
  900MOL0     C18691   1.830   0.395   4.611 -0.5885  0.4288  0.7141
  900MOL0     O18692   1.810   0.339   4.475 -0.4361 -0.7343  0.6159
  900MOL0     C18693   1.721   0.235   4.463  0.3280  0.1968 -0.7909
  900MOL0     C18694   1.699   0.151   4.564  0.6030  0.2461  0.3580
  900MOL0     C18695   1.620   0.038   4.547 -0.5992 -0.0412 -0.3367
  900MOL0     C18696   1.548   0.021   4.428  0.0602 -0.4931  0.1487
  900MOL0     C18697   1.451  -0.084   4.413  0.3313  0.2142 -0.7217
  900MOL0     O18698   1.463  -0.193   4.493  0.3344  0.5772  0.1197
  900MOL0     C18699   1.358  -0.289   4.482 -0.3658  1.6866 -0.0611
  900MOL0     C18700   1.399  -0.422   4.448  0.0253 -1.0221 -0.0975
  900MOL0     C18701   1.308  -0.520   4.450  0.6658  1.5350  0.6812
  900MOL0     C18702   1.171  -0.495   4.464 -0.3672  0.4677  0.2460
  900MOL0     O18703   1.074  -0.585   4.472 -0.3255 -0.0330  0.2315
  900MOL0     C18704   1.112  -0.723   4.454  0.2527 -0.6326  0.8308
  900MOL0     C18705   0.979  -0.793   4.459 -0.2307 -0.1000  0.2815
  900MOL0     C18706   1.007  -0.939   4.485 -1.0549  0.3807  0.4500
  900MOL0     C18707   0.883  -1.021   4.504  0.3610  1.2292 -0.1569
  900MOL0     C18708   0.802  -0.987   4.635  0.2370  0.0078 -0.4343
  900MOL0     C18709   0.667  -1.066   4.636  0.2145  0.2488  0.3855
  900MOL0     C18710   0.581  -1.029   4.766 -0.0293 -0.4178  1.0417
  900MOL0     C18711   0.536  -0.878   4.772 -0.6340 -0.6094  0.3784
  900MOL0    Cl18712   0.411  -0.854   4.883  0.3247 -0.0532 -0.2435
  900MOL0     C18713   1.135  -0.366   4.485 -0.2549 -0.1707 -0.3568
  900MOL0     C18714   1.229  -0.266   4.500 -0.0441  0.4161 -0.7989
  900MOL0     O18715   1.375  -0.071   4.317 -0.4418  0.4201  0.6698
  900MOL0     C18716   1.578   0.111   4.318  0.9149  0.3127 -0.1383
  900MOL0     C18717   1.664   0.217   4.341 -0.6877  0.0299 -0.3682
  900MOL0     N18718   1.959   0.815   4.952  0.6063  0.2993 -0.1128
  900MOL0     N18719   2.034   0.841   5.056 -0.5414 -0.0959 -0.5683
  900MOL0     C18720   2.681   0.593   5.641  0.0229  0.3237  0.3373
  900MOL0     C18721   2.630   0.472   5.672  0.4368  0.4263 -0.0551
  900MOL0     C18722   2.456   0.099   5.828  0.3034  0.1129 -0.3411
  900MOL0     C18723   2.310   0.094   5.837 -0.6973 -0.2920 -0.0688
  900MOL0     C18724   2.249  -0.039   5.848 -0.0232  0.6008  0.2756
  900MOL0     C18725   2.330  -0.159   5.839  0.6182  0.1214  0.0912
  900MOL0     O18726   2.271  -0.286   5.854 -0.8930 -1.1298  0.1670
  900MOL0     C18727   2.327  -0.401   5.793 -0.4983  0.1988  0.3599
  900MOL0     C18728   2.233  -0.517   5.781  0.2472  0.1749  0.3155
  900MOL0     C18729   2.172  -0.558   5.914 -0.5512  0.5033 -0.7392
  900MOL0     C18730   2.121  -0.703   5.911 -0.9790  1.2491  0.1680
  900MOL0     C18731   2.234  -0.797   5.911 -0.7208  0.3576  0.4808
  900MOL0     C18732   2.335  -0.867   5.900 -1.4977 -0.0848  0.6272
  900MOL0     C18733   2.470  -0.142   5.824  0.0731 -0.1959 -0.0935
  900MOL0     C18734   2.531  -0.012   5.831  0.1502  0.9807 -0.3746
  900MOL0     H18735   2.316   0.557   5.781  0.8701 -0.5700 -0.6746
  900MOL0     H18736   2.409   0.770   5.738 -2.4008 -2.0064 -1.7795
  900MOL0     H18737   2.689   0.772   5.458 -0.3080 -1.3493  2.0873
  900MOL0     H18738   2.819   0.861   5.536  0.2545 -0.3786  1.3193
  900MOL0     H18739   2.752   1.017   5.383  0.3387  1.4895  1.6848
  900MOL0     H18740   2.685   1.060   5.539 -1.0122 -2.8035  3.0179
  900MOL0     H18741   2.490   1.087   5.383 -1.5286 -0.6319 -0.8347
  900MOL0     H18742   2.456   0.951   5.484 -4.1187 -0.2792 -4.0321
  900MOL0     H18743   2.617   0.905   5.240 -0.5145  2.6036  0.3852
  900MOL0     H18744   2.510   0.794   5.323  0.2080  0.8767  1.6238
  900MOL0     H18745   2.408   0.868   5.108 -0.0364  1.3456 -0.5711
  900MOL0     H18746   2.439   1.038   5.164  1.4073  0.2397  2.9243
  900MOL0     H18747   2.214   0.968   5.154  2.8061  4.1495 -1.2857
  900MOL0     H18748   2.251   1.024   5.318 -2.5766  1.1335 -2.1379
  900MOL0     H18749   2.267   0.785   5.398  2.7536  0.4165 -1.4109
  900MOL0     H18750   2.104   0.843   5.354  1.7626  2.7214  1.9041
  900MOL0     H18751   2.154   0.617   5.255  1.1656 -0.4964 -0.9804
  900MOL0     H18752   2.282   0.667   5.158 -0.6549 -0.7937 -2.1024
  900MOL0     H18753   2.061   0.519   5.036  0.5295  0.2859  2.2728
  900MOL0     H18754   1.822   0.672   4.782  0.9926 -0.8689 -3.9488
  900MOL0     H18755   1.847   0.515   4.856 -1.8703  1.9307 -0.3195
  900MOL0     H18756   2.055   0.495   4.716 -0.7774 -0.3341 -0.5267
  900MOL0     H18757   2.037   0.668   4.678 -1.7544 -0.2541 -3.2784
  900MOL0     H18758   1.818   0.607   4.564  2.4830  2.2653 -3.7265
  900MOL0     H18759   1.954   0.536   4.489 -3.5422 -1.7515 -1.6210
  900MOL0     H18760   1.743   0.409   4.674 -0.5562 -2.5696  1.6040
  900MOL0     H18761   1.891   0.327   4.671 -1.8511 -1.1003  0.3565
  900MOL0     H18762   1.757   0.160   4.654  0.6485 -0.2774  0.3857
  900MOL0     H18763   1.618  -0.038   4.625 -1.5424  0.3689  0.0424
  900MOL0     H18764   1.505  -0.431   4.427  0.0197 -1.1909 -0.0513
  900MOL0     H18765   1.337  -0.624   4.433 -0.2522  1.4620 -0.5940
  900MOL0     H18766   1.187  -0.748   4.530  2.6923  1.8177 -0.6133
  900MOL0     H18767   1.155  -0.738   4.355 -1.1878 -0.5200  0.1532
  900MOL0     H18768   0.941  -0.790   4.356  2.1167  2.1840 -0.6418
  900MOL0     H18769   0.910  -0.746   4.530 -0.1440 -0.7075  0.7784
  900MOL0     H18770   1.082  -0.943   4.565  1.2727  2.3908 -1.4632
  900MOL0     H18771   1.073  -0.970   4.403  0.7667  3.1684  0.7108
  900MOL0     H18772   0.811  -1.008   4.422 -0.7029 -1.6970  0.1835
  900MOL0     H18773   0.916  -1.125   4.500 -2.3350  0.1708  1.8892
  900MOL0     H18774   0.784  -0.880   4.623  1.7400  0.7852  3.0629
  900MOL0     H18775   0.863  -0.998   4.726  0.1853 -1.1264 -0.5110
  900MOL0     H18776   0.688  -1.173   4.637 -1.6338 -0.2776  4.5138
  900MOL0     H18777   0.606  -1.040   4.549 -0.7587 -0.1577  0.9268
  900MOL0     H18778   0.492  -1.092   4.759 -0.6742  0.6174 -0.3205
  900MOL0     H18779   0.637  -1.058   4.856  3.6357 -1.6627 -1.4064
  900MOL0     H18780   0.516  -0.839   4.672 -0.2591 -0.5607  0.3234
  900MOL0     H18781   0.621  -0.819   4.809 -0.3805 -0.9625  0.3556
  900MOL0     H18782   1.030  -0.347   4.504 -0.1914  1.2573 -1.2825
  900MOL0     H18783   1.195  -0.168   4.529  1.1192 -0.1970  3.2886
  900MOL0     H18784   1.528   0.109   4.222 -0.7016  0.9938  0.6527
  900MOL0     H18785   1.689   0.291   4.265 -1.2915  0.3863 -0.2357
  900MOL0     H18786   2.783   0.607   5.609 -0.1801  1.1610  0.0303
  900MOL0     H18787   2.690   0.385   5.647 -0.7333  0.4850 -3.5742
  900MOL0     H18788   2.262   0.192   5.843  2.3390  1.3417 -0.4997
  900MOL0     H18789   2.142  -0.053   5.863  0.0049 -1.0111 -0.7988
  900MOL0     H18790   2.409  -0.437   5.856 -2.8047 -1.4553  2.6712
  900MOL0     H18791   2.364  -0.370   5.695 -0.2738  0.2739  0.4671
  900MOL0     H18792   2.147  -0.491   5.718  0.4277 -0.2975 -0.1364
  900MOL0     H18793   2.278  -0.597   5.721 -0.7620 -0.7220  0.7164
  900MOL0     H18794   2.094  -0.488   5.946  0.0074  0.3259  1.1209
  900MOL0     H18795   2.241  -0.558   5.999 -2.7955 -2.5404  1.3061
  900MOL0     H18796   2.050  -0.722   5.992 -6.9922  1.9928 -4.2505
  900MOL0     H18797   2.056  -0.719   5.824  0.6509  0.0546 -0.8784
  900MOL0     H18798   2.429  -0.919   5.903 -1.2504  0.3031 -0.1979
  900MOL0     H18799   2.540  -0.223   5.808  0.1830 -0.0181 -0.5326
  900MOL0     H18800   2.637   0.009   5.818  0.1220  1.7265  0.4752
  901MOL0     O18801  11.196   7.190   6.135  0.7373 -0.6552  0.4250
  901MOL0     C18802  11.240   7.079   6.142  0.3442 -0.3651 -0.6559
  901MOL0     O18803  11.185   6.979   6.230 -0.0142 -0.1498 -0.3458
  901MOL0     C18804  11.074   7.016   6.307 -0.5968 -0.0281 -0.0464
  901MOL0     C18805  10.943   6.976   6.281 -0.5970  0.0870 -0.1123
  901MOL0     C18806  10.844   7.007   6.365 -0.3201  0.0546 -0.1781
  901MOL0     C18807  10.875   7.075   6.486  0.6064 -0.0912 -1.3197
  901MOL0     O18808  10.780   7.100   6.585 -0.4499 -1.1017 -0.0618
  901MOL0     C18809  10.706   7.220   6.554 -0.2265  1.1852 -0.2936
  901MOL0     C18810  10.636   7.278   6.681 -0.8840 -0.1346  0.6166
  901MOL0     C18811  10.527   7.188   6.724  0.2458  0.0310  0.4277
  901MOL0     C18812  10.471   7.251   6.847  0.8990  0.1763 -0.1464
  901MOL0     C18813  10.353   7.182   6.901  0.7405 -0.0126 -1.9077
  901MOL0     C18814  10.285   7.247   7.020 -0.6818 -1.2339  0.1478
  901MOL0     C18815  10.186   7.156   7.094 -0.1630  0.1849  0.2266
  901MOL0     C18816  10.234   7.036   7.173 -1.0431 -0.3920 -0.0342
  901MOL0     N18817  10.126   6.979   7.258  0.1356 -1.3448  0.3690
  901MOL0     C18818  10.020   6.893   7.230  0.2591 -0.3663 -0.3399
  901MOL0     C18819   9.973   6.852   7.349  0.6877  0.1872 -0.4312
  901MOL0     C18820   9.869   6.750   7.373  0.2152 -0.5222  0.1337
  901MOL0     C18821   9.726   6.809   7.374 -0.5435  0.2178 -0.1506
  901MOL0     C18822   9.672   6.823   7.220 -0.1719 -0.1569 -0.7069
  901MOL0     C18823   9.539   6.750   7.191 -0.1575  0.8684 -0.4237
  901MOL0     O18824   9.419   6.828   7.226  0.3445  0.3772 -0.2491
  901MOL0     C18825   9.411   6.851   7.353 -0.6046  0.1131 -1.4358
  901MOL0     C18826   9.409   6.755   7.449 -0.0168  0.4665 -0.5402
  901MOL0     C18827   9.406   6.801   7.585  1.0345  0.3667 -1.1130
  901MOL0     C18828   9.398   6.939   7.612 -0.0214  0.3703 -0.0225
  901MOL0     C18829   9.378   6.972   7.758  0.3339 -0.5723  0.0753
  901MOL0     O18830   9.405   6.876   7.856 -0.2059 -0.9682 -0.1617
  901MOL0     C18831   9.366   6.899   7.983  0.4339 -0.4988  1.2419
  901MOL0     C18832   9.331   6.783   8.050 -0.0300 -0.3006  0.1112
  901MOL0     C18833   9.303   6.794   8.184  0.3027 -0.3795  0.3236
  901MOL0     C18834   9.303   6.918   8.257  0.3757 -0.5052  0.0885
  901MOL0     O18835   9.295   6.933   8.398  0.1253 -0.2937  0.5558
  901MOL0     C18836   9.255   6.825   8.484 -0.0646  0.9698 -0.0900
  901MOL0     C18837   9.327   6.833   8.622 -0.3479 -0.6635 -0.8787
  901MOL0     C18838   9.284   6.966   8.692 -0.2629  0.0577  0.5151
  901MOL0     C18839   9.310   6.958   8.846  0.0415  0.3970  0.2661
  901MOL0     C18840   9.229   7.064   8.917  0.5096 -0.9542  0.4046
  901MOL0     C18841   9.269   7.204   8.854 -0.0099 -0.6644 -0.3336
  901MOL0     C18842   9.256   7.318   8.957  0.1906 -0.8149 -0.2577
  901MOL0     C18843   9.311   7.461   8.934  1.1208 -0.2720  0.0947
  901MOL0    Cl18844   9.223   7.558   9.046  0.1416  0.3654 -0.4840
  901MOL0     C18845   9.334   7.026   8.186  1.0834 -0.1552  0.5613
  901MOL0     C18846   9.376   7.018   8.052 -0.8574 -0.1576  0.3416
  901MOL0     O18847   9.333   7.087   7.767  0.0380 -0.1652  0.6910
  901MOL0     C18848   9.381   7.031   7.515  0.3649 -0.4136  0.9034
  901MOL0     C18849   9.386   6.986   7.388 -0.2606 -0.5989  0.0857
  901MOL0     N18850  10.060   6.889   7.447  0.7016 -0.0992  1.0600
  901MOL0     N18851  10.149   6.975   7.393 -0.7124 -0.1221  0.2702
  901MOL0     C18852  11.000   7.127   6.508 -0.2133  0.0042  0.0459
  901MOL0     C18853  11.100   7.104   6.410  0.2839 -0.1491 -0.8103
  901MOL0     C18854  11.366   7.045   6.075  0.4713  0.5381 -0.1923
  901MOL0     C18855  11.430   7.137   5.996 -0.0686 -0.4810  0.3741
  901MOL0     C18856  11.538   7.102   5.907  0.1878  0.8895 -0.5854
  901MOL0     C18857  11.599   6.977   5.932 -0.3137  0.2869 -0.4168
  901MOL0     O18858  11.707   6.940   5.860 -0.7725 -0.4908  0.9491
  901MOL0     C18859  11.754   6.799   5.866 -0.4499 -0.6272  0.7681
  901MOL0     C18860  11.886   6.787   5.778  0.1223 -0.3686 -0.8998
  901MOL0     C18861  11.854   6.798   5.627  0.4620  0.4243  0.4973
  901MOL0     C18862  11.955   6.713   5.546  0.9165  0.7209 -0.4425
  901MOL0     C18863  11.921   6.695   5.401 -0.7869 -0.3903 -0.2908
  901MOL0     C18864  11.899   6.689   5.283 -0.9089  0.2179 -0.4491
  901MOL0     C18865  11.531   6.884   6.012  0.0940 -0.4323 -0.4513
  901MOL0     C18866  11.418   6.923   6.084  0.0257 -0.0879 -0.4695
  901MOL0     H18867  10.931   6.901   6.202 -1.8607 -0.0569  0.1890
  901MOL0     H18868  10.744   6.967   6.349 -1.3173  2.7675 -1.3971
  901MOL0     H18869  10.639   7.208   6.469 -1.1041  0.9876  0.4166
  901MOL0     H18870  10.784   7.290   6.520  0.1031  1.3308  0.7269
  901MOL0     H18871  10.596   7.377   6.656  1.2964  0.4186 -1.0751
  901MOL0     H18872  10.714   7.303   6.753 -1.7286  0.2486  1.4111
  901MOL0     H18873  10.565   7.089   6.750 -0.6437 -1.9608 -4.5753
  901MOL0     H18874  10.444   7.170   6.654 -0.5855 -2.2790  1.8922
  901MOL0     H18875  10.547   7.240   6.924 -0.2729  0.9604  1.1547
  901MOL0     H18876  10.447   7.357   6.830  0.8720  0.2838  0.5399
  901MOL0     H18877  10.387   7.081   6.927  1.3619  0.2313 -1.7535
  901MOL0     H18878  10.274   7.159   6.830  0.0024  0.5421 -1.2802
  901MOL0     H18879  10.225   7.333   6.990  3.0828  2.2140  1.6376
  901MOL0     H18880  10.351   7.292   7.095 -1.2157  0.2948 -0.2639
  901MOL0     H18881  10.138   7.229   7.160  3.7030  1.6163  1.8050
  901MOL0     H18882  10.109   7.128   7.021  0.9307 -3.3400  0.2287
  901MOL0     H18883  10.331   7.053   7.221 -1.3221  0.8983  0.0989
  901MOL0     H18884  10.250   6.959   7.096 -0.3499  0.7386 -1.0621
  901MOL0     H18885   9.966   6.873   7.138 -0.2103 -0.9307  0.0516
  901MOL0     H18886   9.892   6.699   7.467 -1.6097 -0.5894  0.5923
  901MOL0     H18887   9.877   6.675   7.294  0.5707 -0.3758  0.0331
  901MOL0     H18888   9.714   6.907   7.421  1.8482 -0.2833  1.6885
  901MOL0     H18889   9.660   6.742   7.430 -3.2593  1.9501 -1.0802
  901MOL0     H18890   9.664   6.929   7.195  2.6676  0.4956  0.6927
  901MOL0     H18891   9.745   6.779   7.151  0.0081  0.4687 -0.9303
  901MOL0     H18892   9.545   6.656   7.247  0.7765 -0.1522 -2.1476
  901MOL0     H18893   9.529   6.724   7.086 -1.5086  2.6150 -0.7729
  901MOL0     H18894   9.419   6.651   7.420 -0.2857  0.1461  0.4692
  901MOL0     H18895   9.406   6.729   7.667 -0.0803  2.2790  0.6667
  901MOL0     H18896   9.340   6.683   8.008  2.6515 -1.4514  3.0088
  901MOL0     H18897   9.287   6.703   8.241 -2.5978 -0.9732 -1.2446
  901MOL0     H18898   9.289   6.727   8.450 -0.8218  0.6631  0.0131
  901MOL0     H18899   9.146   6.813   8.481  0.2581 -3.3739 -1.6721
  901MOL0     H18900   9.436   6.839   8.621 -0.4466  2.9550 -0.9702
  901MOL0     H18901   9.302   6.740   8.674  2.0084 -1.4180 -0.9633
  901MOL0     H18902   9.176   6.976   8.673  0.2131  1.6505 -1.7352
  901MOL0     H18903   9.344   7.048   8.654  0.6834 -1.4563 -1.4395
  901MOL0     H18904   9.274   6.865   8.892  0.8969  0.4710  1.1198
  901MOL0     H18905   9.415   6.976   8.871  0.4456  0.5253 -1.4068
  901MOL0     H18906   9.253   7.061   9.023  0.8316 -0.4493  0.3512
  901MOL0     H18907   9.124   7.035   8.906  0.9882 -2.8401  0.5356
  901MOL0     H18908   9.208   7.218   8.765  2.4978  1.0665 -1.9046
  901MOL0     H18909   9.368   7.207   8.807 -1.1095 -2.4228 -2.9691
  901MOL0     H18910   9.149   7.337   8.974  0.1995 -0.3373 -0.6991
  901MOL0     H18911   9.314   7.297   9.048 -0.2475  2.1359  0.8435
  901MOL0     H18912   9.283   7.501   8.837  2.3283  0.3303 -0.0318
  901MOL0     H18913   9.420   7.477   8.938  0.7496  2.5273  1.5607
  901MOL0     H18914   9.346   7.123   8.233  2.5454  0.1962 -0.4651
  901MOL0     H18915   9.409   7.112   8.008 -0.7649 -0.4902 -0.3186
  901MOL0     H18916   9.374   7.139   7.525 -1.9303 -0.5072  0.6204
  901MOL0     H18917   9.381   7.059   7.308  0.3954 -2.2091 -1.5050
  901MOL0     H18918  11.019   7.181   6.600  1.4284 -0.5191  0.0509
  901MOL0     H18919  11.199   7.150   6.410 -0.6930  2.6154  4.1258
  901MOL0     H18920  11.407   7.243   5.996  0.0452 -0.3969 -1.8225
  901MOL0     H18921  11.593   7.156   5.830 -2.3738  3.3427 -0.8745
  901MOL0     H18922  11.679   6.726   5.833 -0.2194 -0.8585  0.7527
  901MOL0     H18923  11.780   6.777   5.970 -2.3221  0.3854  1.5041
  901MOL0     H18924  11.961   6.859   5.811 -0.2895 -0.7205  0.9182
  901MOL0     H18925  11.909   6.682   5.801 -4.9059 -1.7446 -0.8198
  901MOL0     H18926  11.870   6.904   5.603  1.2369  0.2585  0.2733
  901MOL0     H18927  11.750   6.774   5.603  1.3883 -1.2458 -2.2560
  901MOL0     H18928  12.061   6.739   5.555  0.7292  1.2822  0.2217
  901MOL0     H18929  11.953   6.608   5.574 -0.6195  0.4071 -1.5831
  901MOL0     H18930  11.881   6.691   5.178  0.1576 -2.6145 -0.7740
  901MOL0     H18931  11.577   6.788   6.031  4.2922  0.4883 -4.1746
  901MOL0     H18932  11.372   6.852   6.152 -2.9697  1.8326 -0.3155
  902MOL0     O18933  11.088   4.677   2.405  0.3964  0.3644  0.5342
  902MOL0     C18934  10.987   4.677   2.336  0.6441 -0.1792 -0.1186
  902MOL0     O18935  10.901   4.572   2.327 -0.1864  0.2311  0.6451
  902MOL0     C18936  10.920   4.452   2.393  0.6028  1.2946 -0.9121
  902MOL0     C18937  10.941   4.443   2.534 -0.4465 -0.4683  0.7263
  902MOL0     C18938  10.958   4.320   2.586  0.2945 -0.3742 -1.1117
  902MOL0     C18939  10.939   4.205   2.513  0.2477  0.9637  0.4282
  902MOL0     O18940  10.944   4.086   2.586  0.8107 -0.2461 -0.5384
  902MOL0     C18941  10.972   3.962   2.521  0.4050 -0.3204  0.6191
  902MOL0     C18942  10.843   3.906   2.462 -0.0061  1.0320 -0.5422
  902MOL0     C18943  10.863   3.805   2.353  0.1313 -0.2112 -0.2357
  902MOL0     C18944  10.744   3.714   2.315  0.0374 -0.0677  0.3899
  902MOL0     C18945  10.759   3.676   2.171 -0.0788 -0.0106  0.1568
  902MOL0     C18946  10.627   3.604   2.137  1.0916  0.5057 -0.1544
  902MOL0     C18947  10.629   3.580   1.987 -0.1306 -0.3602 -1.3385
  902MOL0     C18948  10.532   3.463   1.951 -0.3614 -0.1393  0.2575
  902MOL0     N18949  10.549   3.413   1.815  0.6983  0.6686  0.9559
  902MOL0     C18950  10.619   3.296   1.798 -0.1328  0.0357  0.7903
  902MOL0     C18951  10.639   3.286   1.665 -0.0901  0.8605 -0.7240
  902MOL0     C18952  10.731   3.195   1.585 -0.2794 -0.1768  0.3744
  902MOL0     C18953  10.652   3.115   1.482  0.7470 -0.4503  0.4494
  902MOL0     C18954  10.550   2.999   1.517 -0.4582  0.0879 -0.2388
  902MOL0     C18955  10.610   2.911   1.624 -0.9478 -0.3619 -0.3066
  902MOL0     O18956  10.535   2.792   1.637  0.0453 -0.0841 -0.3507
  902MOL0     C18957  10.607   2.678   1.678  0.4131 -0.8407  0.1747
  902MOL0     C18958  10.733   2.678   1.738 -0.6969 -0.0128 -0.8057
  902MOL0     C18959  10.802   2.557   1.761 -0.1996 -0.7809 -0.8428
  902MOL0     C18960  10.755   2.438   1.725  0.7984  0.1325  0.6597
  902MOL0     C18961  10.824   2.312   1.751  0.6013 -0.6683  0.0406
  902MOL0     O18962  10.953   2.317   1.805  0.4404 -0.0559 -0.0918
  902MOL0     C18963  11.007   2.196   1.839 -0.3945  0.6875  0.1670
  902MOL0     C18964  11.134   2.175   1.786 -0.0778  0.4330  0.6834
  902MOL0     C18965  11.201   2.055   1.830  0.4886 -0.7568 -0.2624
  902MOL0     C18966  11.150   1.978   1.933  0.1608  0.0099 -1.3298
  902MOL0     O18967  11.244   1.897   1.999  0.2824  0.4599  0.7342
  902MOL0     C18968  11.267   1.917   2.140 -0.4939  0.1717 -0.0526
  902MOL0     C18969  11.307   2.063   2.164 -0.1347  1.2203 -1.3728
  902MOL0     C18970  11.200   2.143   2.247 -0.1579  0.3850 -0.8635
  902MOL0     C18971  11.220   2.293   2.220  0.2898  0.1222 -0.6031
  902MOL0     C18972  11.128   2.382   2.305 -0.4400 -0.6773 -0.6512
  902MOL0     C18973  10.979   2.371   2.269 -0.9997  0.2827 -0.1170
  902MOL0     C18974  10.916   2.501   2.292  0.8706  0.9699  0.2226
  902MOL0     C18975  10.770   2.511   2.246  0.5317  0.2106  0.4829
  902MOL0    Cl18976  10.703   2.684   2.255 -0.6013 -0.6263 -0.1542
  902MOL0     C18977  11.016   2.003   1.985  0.1219 -0.4546  0.0152
  902MOL0     C18978  10.939   2.112   1.929 -0.5446 -0.0009 -0.6275
  902MOL0     O18979  10.768   2.211   1.714  0.3094 -0.1158 -0.0396
  902MOL0     C18980  10.627   2.435   1.671  0.3776 -0.3913  0.2359
  902MOL0     C18981  10.553   2.550   1.647  0.4277 -0.2968  0.9567
  902MOL0     N18982  10.568   3.386   1.613  0.2749 -0.6678  0.1872
  902MOL0     N18983  10.523   3.473   1.700  0.3840 -0.4044 -0.0663
  902MOL0     C18984  10.914   4.206   2.377  0.0325  0.0277  0.4042
  902MOL0     C18985  10.915   4.329   2.318  0.8851 -0.0454 -0.0316
  902MOL0     C18986  10.960   4.795   2.244  0.1566 -0.0168  0.0270
  902MOL0     C18987  10.833   4.816   2.183 -0.4082 -0.4999  0.5365
  902MOL0     C18988  10.823   4.919   2.089  0.0756  0.3287  0.1542
  902MOL0     C18989  10.933   5.001   2.056  0.3356 -0.8990  0.4955
  902MOL0     O18990  10.903   5.104   1.965  0.3828  0.5492  0.7781
  902MOL0     C18991  10.910   5.237   2.017  0.6826  0.4084  0.0387
  902MOL0     C18992  11.003   5.329   1.945  0.2168 -0.8434 -0.2087
  902MOL0     C18993  11.154   5.289   1.946 -0.5517 -0.5896  0.6073
  902MOL0     C18994  11.227   5.339   2.069 -0.5076  0.1785  0.0816
  902MOL0     C18995  11.212   5.480   2.085  0.0778 -1.2266  0.6354
  902MOL0     C18996  11.187   5.604   2.082  1.0709  0.5849 -0.2909
  902MOL0     C18997  11.059   4.983   2.118 -0.2910  0.8105  0.6751
  902MOL0     C18998  11.070   4.872   2.207  0.0650 -1.3700 -0.6147
  902MOL0     H18999  10.930   4.526   2.604  0.9555 -1.5525  2.3103
  902MOL0     H19000  10.978   4.307   2.691  3.1254 -0.6418 -1.6057
  902MOL0     H19001  11.000   3.890   2.598  1.9152 -0.4341 -0.0053
  902MOL0     H19002  11.043   3.962   2.438 -0.1926  3.6018 -0.1104
  902MOL0     H19003  10.780   3.981   2.414  0.7194 -0.1385 -3.5832
  902MOL0     H19004  10.794   3.850   2.542 -0.0464 -0.9078 -1.8500
  902MOL0     H19005  10.942   3.735   2.383 -0.4452 -0.5335  0.5728
  902MOL0     H19006  10.904   3.859   2.268 -3.0615  1.0954 -1.0747
  902MOL0     H19007  10.728   3.626   2.377 -0.8853  0.6423  1.2110
  902MOL0     H19008  10.645   3.760   2.325 -1.6855 -3.6459  1.2464
  902MOL0     H19009  10.852   3.619   2.165 -1.7261 -2.7512 -2.5132
  902MOL0     H19010  10.770   3.772   2.121 -0.0742  1.0226  2.0632
  902MOL0     H19011  10.537   3.663   2.160  0.8862 -0.1673  0.7717
  902MOL0     H19012  10.630   3.510   2.192 -0.6840  1.2529  1.3295
  902MOL0     H19013  10.596   3.663   1.925 -2.5099  1.0497  1.5343
  902MOL0     H19014  10.727   3.542   1.956  0.5187  0.1985 -0.0489
  902MOL0     H19015  10.432   3.505   1.965 -0.2757  0.6394 -1.2497
  902MOL0     H19016  10.544   3.382   2.023  0.5903 -2.1611 -2.0514
  902MOL0     H19017  10.675   3.239   1.872 -0.3664 -2.0369 -0.5319
  902MOL0     H19018  10.773   3.123   1.657  1.8014  0.5380 -0.0467
  902MOL0     H19019  10.813   3.254   1.542 -0.6646 -0.8449 -1.3742
  902MOL0     H19020  10.727   3.073   1.415 -0.2663 -3.3476  0.9920
  902MOL0     H19021  10.598   3.188   1.421  3.0004  0.5750 -0.4440
  902MOL0     H19022  10.462   3.046   1.561 -1.7474 -2.4016  0.0339
  902MOL0     H19023  10.532   2.945   1.424  0.4468  1.3385 -1.1591
  902MOL0     H19024  10.619   2.966   1.717  0.1439 -0.7765 -0.1511
  902MOL0     H19025  10.714   2.895   1.594 -0.3460 -0.3052  1.6613
  902MOL0     H19026  10.780   2.772   1.766  0.6148 -1.3923  2.0211
  902MOL0     H19027  10.898   2.551   1.812 -0.8481 -0.4286  0.4771
  902MOL0     H19028  11.185   2.234   1.710 -0.2561 -1.5074 -1.0396
  902MOL0     H19029  11.305   2.053   1.799  0.6649  0.6510  0.1317
  902MOL0     H19030  11.342   1.845   2.173 -1.2584 -0.4948  0.2573
  902MOL0     H19031  11.173   1.894   2.190 -0.9357  1.3636 -0.3059
  902MOL0     H19032  11.341   2.107   2.069  2.4648 -1.8654 -2.0513
  902MOL0     H19033  11.407   2.055   2.207 -0.9906  2.9363  1.1584
  902MOL0     H19034  11.209   2.126   2.355  2.0196  2.6339 -0.6013
  902MOL0     H19035  11.104   2.108   2.208 -0.8667  1.3518 -0.0394
  902MOL0     H19036  11.325   2.322   2.236  2.5305 -3.5375 -5.7407
  902MOL0     H19037  11.186   2.322   2.120 -0.4239  0.0787 -0.3730
  902MOL0     H19038  11.175   2.475   2.272  0.6278 -1.3714 -1.1437
  902MOL0     H19039  11.142   2.372   2.413 -2.1616 -0.5533 -0.3821
  902MOL0     H19040  10.934   2.292   2.329  6.0543 -3.3993  1.4589
  902MOL0     H19041  10.956   2.345   2.166  0.4266 -1.5650 -0.0063
  902MOL0     H19042  10.937   2.537   2.393  1.4595  3.2757 -0.6563
  902MOL0     H19043  10.978   2.570   2.234  1.6876 -0.1543 -0.2941
  902MOL0     H19044  10.704   2.440   2.297  0.0340 -1.6546 -2.4482
  902MOL0     H19045  10.752   2.470   2.146  0.7862 -2.3197  1.4030
  902MOL0     H19046  10.978   1.953   2.073  1.0180  0.8298  1.1665
  902MOL0     H19047  10.843   2.143   1.968 -1.5736 -0.1327 -2.8768
  902MOL0     H19048  10.583   2.344   1.632  1.3535  0.5055 -3.2344
  902MOL0     H19049  10.461   2.550   1.590  2.3827 -1.7542 -2.5390
  902MOL0     H19050  10.902   4.129   2.302  0.2927  2.2956 -2.1247
  902MOL0     H19051  10.895   4.331   2.211  0.0369 -0.5751  0.1056
  902MOL0     H19052  10.753   4.754   2.221  1.4383 -1.8063  2.5461
  902MOL0     H19053  10.721   4.928   2.055  0.0169 -0.7067  0.0417
  902MOL0     H19054  10.931   5.229   2.124 -1.9318 -2.7397  0.4695
  902MOL0     H19055  10.807   5.270   2.000 -0.7082 -3.1564  0.5960
  902MOL0     H19056  10.960   5.328   1.845 -1.8238 -3.5313  0.5567
  902MOL0     H19057  10.980   5.430   1.979  1.0977 -0.3885 -0.9387
  902MOL0     H19058  11.193   5.334   1.855 -1.0522  3.3050  2.1257
  902MOL0     H19059  11.158   5.181   1.928  2.7695 -0.4335 -0.2805
  902MOL0     H19060  11.195   5.272   2.150  1.6575 -0.1652  0.7338
  902MOL0     H19061  11.334   5.324   2.050 -0.9029 -0.6446 -1.6470
  902MOL0     H19062  11.150   5.703   2.095 -4.9627 -1.5433  2.3943
  902MOL0     H19063  11.147   5.040   2.090 -2.0451  2.6483 -1.4107
  902MOL0     H19064  11.166   4.850   2.252 -0.0124  0.5674  0.6274
  903MOL0     O19065  10.481   3.884  10.286  0.7351  0.5878 -0.0472
  903MOL0     C19066  10.452   3.773  10.248  0.2017 -0.0542 -0.3663
  903MOL0     O19067  10.366   3.745  10.141  0.9454 -0.5600 -0.0671
  903MOL0     C19068  10.313   3.842  10.066  0.4874 -0.0678  0.3240
  903MOL0     C19069  10.298   3.806   9.933  0.0081 -0.0492 -0.1769
  903MOL0     C19070  10.214   3.886   9.848 -0.3568  0.3293  0.6689
  903MOL0     C19071  10.149   4.002   9.894  0.6354 -0.5284 -0.7245
  903MOL0     O19072  10.066   4.086   9.822 -0.2088  0.1019  0.0098
  903MOL0     C19073   9.973   4.029   9.733 -0.0193  0.1058 -0.3706
  903MOL0     C19074  10.033   4.041   9.596  0.3131 -0.4953  0.4489
  903MOL0     C19075   9.927   4.008   9.490  0.0616 -0.0065 -0.1249
  903MOL0     C19076   9.971   4.045   9.347 -0.2587  0.2309 -0.0825
  903MOL0     C19077   9.863   4.029   9.238 -0.3788  0.7155  0.5401
  903MOL0     C19078   9.857   3.876   9.191 -1.0796 -0.4805 -0.8596
  903MOL0     C19079   9.774   3.859   9.061  0.0948  0.6929  0.0975
  903MOL0     C19080   9.618   3.869   9.087 -0.5042  0.0306 -0.8173
  903MOL0     N19081   9.542   3.816   8.968 -0.3058 -0.9184  0.6404
  903MOL0     C19082   9.553   3.696   8.905  0.9015 -0.7771 -0.2674
  903MOL0     C19083   9.478   3.713   8.788 -0.9773  1.0208 -0.2638
  903MOL0     C19084   9.443   3.604   8.691  0.6167  0.5119  0.1408
  903MOL0     C19085   9.576   3.543   8.630  0.4327 -0.2510 -0.7520
  903MOL0     C19086   9.547   3.422   8.549 -0.6370  0.2150  0.2010
  903MOL0     C19087   9.501   3.458   8.412  0.1371  0.1579 -0.3359
  903MOL0     O19088   9.506   3.355   8.310  0.3959  0.3900  0.3172
  903MOL0     C19089   9.423   3.243   8.302 -0.2019 -0.6832 -0.6647
  903MOL0     C19090   9.327   3.204   8.406  0.6214  0.9605  0.0263
  903MOL0     C19091   9.258   3.089   8.389 -0.0302  0.4261 -0.6939
  903MOL0     C19092   9.283   3.001   8.280  0.6290 -0.3287  0.1146
  903MOL0     C19093   9.206   2.871   8.270 -0.0706 -0.2250 -0.4428
  903MOL0     O19094   9.138   2.823   8.375 -0.0644 -0.4213 -0.4999
  903MOL0     C19095   9.047   2.728   8.374  0.5374  1.0227 -0.2456
  903MOL0     C19096   9.055   2.638   8.483  0.8110 -0.0631  0.1088
  903MOL0     C19097   8.965   2.536   8.498 -0.6207 -0.9072 -0.0698
  903MOL0     C19098   8.870   2.512   8.396  0.6570  0.2218 -1.3952
  903MOL0     O19099   8.784   2.402   8.416 -0.3728  0.6041  0.2026
  903MOL0     C19100   8.646   2.408   8.444  0.2948 -0.3187 -0.2851
  903MOL0     C19101   8.576   2.318   8.340  0.2171  0.1261  0.9914
  903MOL0     C19102   8.433   2.365   8.328 -0.5810 -0.2722 -0.3323
  903MOL0     C19103   8.348   2.327   8.453  0.4913 -0.1465  0.2639
  903MOL0     C19104   8.234   2.429   8.482 -0.5179 -0.0973 -0.1758
  903MOL0     C19105   8.153   2.375   8.600 -0.0112 -0.2732  0.5827
  903MOL0     C19106   8.091   2.486   8.679 -0.7638 -0.1702  0.0611
  903MOL0     C19107   7.957   2.440   8.747 -0.9065  0.9968 -1.1165
  903MOL0    Cl19108   8.013   2.324   8.874  0.2317  0.1505 -0.2516
  903MOL0     C19109   8.863   2.609   8.294  0.0345  1.0174 -0.3391
  903MOL0     C19110   8.944   2.718   8.284 -0.2327  0.1064  0.1275
  903MOL0     O19111   9.214   2.816   8.157  0.0952  0.0145 -1.1483
  903MOL0     C19112   9.370   3.039   8.182  0.5599  0.3212 -0.4264
  903MOL0     C19113   9.441   3.159   8.197  0.1212 -0.0621 -0.7703
  903MOL0     N19114   9.442   3.844   8.775 -0.3129 -0.2072 -0.4975
  903MOL0     N19115   9.469   3.896   8.887 -0.0529  0.1548 -0.3923
  903MOL0     C19116  10.166   4.032  10.031  0.3936 -0.7174 -1.3736
  903MOL0     C19117  10.256   3.961  10.116 -0.1718  0.5080 -0.4262
  903MOL0     C19118  10.498   3.664  10.329  0.1688  0.8241  0.2015
  903MOL0     C19119  10.415   3.553  10.333  0.4544 -0.6897  0.2007
  903MOL0     C19120  10.445   3.439  10.411  0.2315  0.8202  0.5612
  903MOL0     C19121  10.562   3.435  10.490 -0.0857 -0.7807 -0.0453
  903MOL0     O19122  10.584   3.352  10.595  0.4393  0.2783 -0.3317
  903MOL0     C19123  10.462   3.291  10.648 -0.6693  0.2272  0.3436
  903MOL0     C19124  10.357   3.378  10.726  0.5617  0.5734 -0.7766
  903MOL0     C19125  10.275   3.282  10.821 -1.0502 -0.2990 -0.0585
  903MOL0     C19126  10.173   3.344  10.902  0.7044  0.8391 -0.5404
  903MOL0     C19127  10.065   3.380  10.811 -0.2761 -1.1201 -0.4327
  903MOL0     C19128   9.966   3.409  10.741 -0.5072  0.4950 -0.4987
  903MOL0     C19129  10.642   3.552  10.495  0.5006 -0.2151  0.1302
  903MOL0     C19130  10.612   3.669  10.417 -0.7101 -0.3072  0.2191
  903MOL0     H19131  10.338   3.715   9.890  1.8860  0.7886 -0.3115
  903MOL0     H19132  10.210   3.841   9.750 -1.4902  0.0691  0.8233
  903MOL0     H19133   9.885   4.094   9.729  0.3691  0.9783  2.7001
  903MOL0     H19134   9.946   3.929   9.767  2.8201 -0.1394  1.5088
  903MOL0     H19135  10.120   3.977   9.580  2.3193  2.8591 -4.9645
  903MOL0     H19136  10.066   4.144   9.579 -1.6169 -0.2404 -2.4104
  903MOL0     H19137   9.835   4.063   9.512 -0.3284 -0.4302 -0.6840
  903MOL0     H19138   9.907   3.901   9.500 -2.0903  0.4513  1.1953
  903MOL0     H19139  10.008   4.147   9.333  1.5957 -0.5452 -1.2741
  903MOL0     H19140  10.055   3.979   9.326  1.1672  1.8017  0.4269
  903MOL0     H19141   9.907   4.073   9.148  1.2977 -0.1642  0.8915
  903MOL0     H19142   9.769   4.078   9.264  0.5411  1.6180  2.3832
  903MOL0     H19143   9.820   3.820   9.277 -2.2570  3.5743  1.5659
  903MOL0     H19144   9.956   3.837   9.163 -0.2735 -3.2833  4.4729
  903MOL0     H19145   9.803   3.929   8.982 -1.8333  0.1222 -1.1984
  903MOL0     H19146   9.803   3.765   9.015  2.0993  0.7645  1.1054
  903MOL0     H19147   9.602   3.973   9.118  4.3436  1.4051 -2.0739
  903MOL0     H19148   9.582   3.818   9.176 -0.5042  1.0786 -0.1919
  903MOL0     H19149   9.590   3.607   8.956 -4.7320 -2.1782  2.1252
  903MOL0     H19150   9.379   3.649   8.614  0.7936  0.2019 -0.1928
  903MOL0     H19151   9.385   3.525   8.740  2.0826 -1.8241 -1.6375
  903MOL0     H19152   9.634   3.528   8.721  1.7944 -1.1853 -1.7288
  903MOL0     H19153   9.637   3.614   8.573  2.9417 -1.0140  0.8332
  903MOL0     H19154   9.639   3.374   8.517 -1.2967 -0.2041 -1.1613
  903MOL0     H19155   9.470   3.354   8.586 -2.4914  2.0976  0.0410
  903MOL0     H19156   9.558   3.541   8.369 -0.8221  0.6584 -0.6726
  903MOL0     H19157   9.397   3.492   8.410 -0.1912 -0.8045 -0.4125
  903MOL0     H19158   9.302   3.266   8.492 -2.9645 -0.5613  0.2683
  903MOL0     H19159   9.187   3.051   8.461  1.1723  0.3583  0.5031
  903MOL0     H19160   9.128   2.652   8.561 -2.2690  3.2897  2.7423
  903MOL0     H19161   8.971   2.464   8.579 -1.2442  0.9423  1.6980
  903MOL0     H19162   8.627   2.516   8.444  2.3015  0.0784  0.1180
  903MOL0     H19163   8.642   2.362   8.543 -2.2622 -0.0474 -0.1975
  903MOL0     H19164   8.584   2.211   8.362 -2.2666 -0.4438 -0.5568
  903MOL0     H19165   8.625   2.330   8.243  0.7085  1.4222  1.3751
  903MOL0     H19166   8.394   2.323   8.235  0.1728  0.5404 -1.0346
  903MOL0     H19167   8.438   2.474   8.316  1.5907 -0.2907 -0.0049
  903MOL0     H19168   8.303   2.228   8.447 -0.8510  0.2226  2.9157
  903MOL0     H19169   8.415   2.318   8.539  1.3553  0.2663 -0.3505
  903MOL0     H19170   8.165   2.438   8.398 -2.4761 -2.6129  1.0305
  903MOL0     H19171   8.283   2.523   8.509 -1.0068  0.1362 -0.1033
  903MOL0     H19172   8.204   2.309   8.671 -0.7129  0.0602  1.4015
  903MOL0     H19173   8.072   2.310   8.565 -0.4783 -0.1508  1.4089
  903MOL0     H19174   8.153   2.537   8.754  0.1675  3.0824 -2.7000
  903MOL0     H19175   8.071   2.566   8.607 -0.1438  0.5709  0.6870
  903MOL0     H19176   7.894   2.380   8.681 -1.8420  0.3527  0.3114
  903MOL0     H19177   7.896   2.525   8.778  0.0065  1.5267 -0.6996
  903MOL0     H19178   8.786   2.587   8.220  1.9472  1.5571 -2.6151
  903MOL0     H19179   8.935   2.785   8.199  1.5345 -0.5910 -0.6509
  903MOL0     H19180   9.397   2.982   8.093  1.7906  2.5367 -1.5473
  903MOL0     H19181   9.522   3.194   8.134  1.8320  2.7511  2.6100
  903MOL0     H19182  10.113   4.118  10.068  3.4482  0.3225  1.0774
  903MOL0     H19183  10.270   3.994  10.218  1.4220 -1.0272 -0.1021
  903MOL0     H19184  10.328   3.546  10.268 -0.9950  2.1372  1.6768
  903MOL0     H19185  10.368   3.363  10.409 -0.2027  0.9653 -5.1496
  903MOL0     H19186  10.497   3.210  10.712  2.7207  0.9597 -0.4224
  903MOL0     H19187  10.412   3.234  10.570 -1.6272  0.3820  0.8241
  903MOL0     H19188  10.415   3.447  10.788  2.0135 -2.7000  1.8681
  903MOL0     H19189  10.290   3.429  10.657  2.2142 -0.1511 -3.0102
  903MOL0     H19190  10.348   3.249  10.895 -0.4745  1.6477  0.2852
  903MOL0     H19191  10.234   3.204  10.756  1.0925  1.3576 -3.7052
  903MOL0     H19192  10.136   3.267  10.969  5.1310 -1.0877  0.0711
  903MOL0     H19193  10.219   3.433  10.947 -2.6420  2.7032 -0.4488
  903MOL0     H19194   9.876   3.426  10.685  0.0601 -1.8681 -2.2560
  903MOL0     H19195  10.734   3.554  10.553  0.1277 -1.7886  0.8328
  903MOL0     H19196  10.675   3.757  10.403 -1.3417 -0.0970 -1.5272
  904MOL0     O19197   9.608   4.849   1.736 -0.0892 -0.0628  0.1073
  904MOL0     C19198   9.514   4.890   1.668 -1.1117 -0.7092  0.6999
  904MOL0     O19199   9.482   5.022   1.635 -0.4120 -0.2829 -0.8420
  904MOL0     C19200   9.566   5.119   1.673  0.6247 -0.2775 -0.1095
  904MOL0     C19201   9.525   5.206   1.771  0.0643 -0.0216 -0.7060
  904MOL0     C19202   9.602   5.314   1.815  0.1653 -0.7089 -0.6676
  904MOL0     C19203   9.712   5.353   1.742  1.6062 -1.0259 -0.8423
  904MOL0     O19204   9.786   5.459   1.778  0.3666 -0.2660  0.9507
  904MOL0     C19205   9.716   5.585   1.785  0.2612 -0.0161 -0.5439
  904MOL0     C19206   9.707   5.632   1.930  0.0680 -0.2545  0.7605
  904MOL0     C19207   9.668   5.778   1.954 -0.1925  0.3841 -0.6083
  904MOL0     C19208   9.627   5.775   2.105  1.0203  0.1720 -0.8273
  904MOL0     C19209   9.625   5.922   2.159  0.1088  0.3046  0.2840
  904MOL0     C19210   9.582   5.928   2.296 -0.9270  0.2283  0.2685
  904MOL0     C19211   9.675   5.831   2.389  0.7910  0.1096 -0.1670
  904MOL0     C19212   9.675   5.863   2.543  0.5965 -0.5035  0.1685
  904MOL0     N19213   9.554   5.879   2.618 -0.3637 -0.0575  0.2361
  904MOL0     C19214   9.437   5.935   2.571 -0.7313  0.7234  0.7058
  904MOL0     C19215   9.335   5.891   2.641 -0.3838 -0.0001 -0.2003
  904MOL0     C19216   9.194   5.917   2.630  0.1919  0.5421  0.1020
  904MOL0     C19217   9.140   5.814   2.543 -0.0472  0.9907  0.3736
  904MOL0     C19218   8.987   5.821   2.519 -0.0856  0.8879  0.9002
  904MOL0     C19219   8.944   5.961   2.460  0.1835 -0.1189 -1.2299
  904MOL0     O19220   8.961   6.081   2.541 -0.0826 -0.7314 -0.7706
  904MOL0     C19221   8.866   6.087   2.646 -0.7518  0.0184  0.7682
  904MOL0     C19222   8.899   6.071   2.779 -1.0529  0.3404 -0.2239
  904MOL0     C19223   8.812   6.095   2.880  0.4071 -0.1200  0.2647
  904MOL0     C19224   8.673   6.093   2.844 -0.3800 -0.2527  0.3194
  904MOL0     C19225   8.569   6.104   2.952  0.0170  1.1372  0.2943
  904MOL0     O19226   8.616   6.138   3.076  0.0548  0.1674 -0.4297
  904MOL0     C19227   8.518   6.175   3.164  0.4291  0.3326 -0.7984
  904MOL0     C19228   8.474   6.071   3.252 -0.9767  0.4291  0.6980
  904MOL0     C19229   8.376   6.099   3.341 -0.2485  0.2827 -0.0585
  904MOL0     C19230   8.315   6.226   3.347  0.0572 -0.0213  0.7644
  904MOL0     O19231   8.199   6.230   3.419 -0.2285 -0.2896  0.0879
  904MOL0     C19232   8.096   6.297   3.347  0.2537 -0.4255 -0.1612
  904MOL0     C19233   7.972   6.308   3.436  0.1530 -0.9603  0.4494
  904MOL0     C19234   7.984   6.438   3.514  0.0354  0.2402 -0.0580
  904MOL0     C19235   7.877   6.438   3.619  0.2842  0.2219  0.5220
  904MOL0     C19236   7.837   6.584   3.655 -0.4444 -0.3105  0.1731
  904MOL0     C19237   7.761   6.592   3.788 -1.0781  1.5257 -0.2850
  904MOL0     C19238   7.726   6.741   3.808  0.0932 -0.1208 -0.1238
  904MOL0     C19239   7.652   6.766   3.948 -0.2078 -0.1499 -0.1390
  904MOL0    Cl19240   7.782   6.756   4.072  0.6641  0.0004 -0.4453
  904MOL0     C19241   8.371   6.331   3.265  0.2693 -0.1365  0.0333
  904MOL0     C19242   8.473   6.307   3.178  0.0641  1.4702  0.7904
  904MOL0     O19243   8.453   6.105   2.913  0.0218  0.8257  0.6020
  904MOL0     C19244   8.635   6.104   2.707 -0.3082 -0.3305  0.0498
  904MOL0     C19245   8.735   6.111   2.611 -0.0917  0.4102  0.7459
  904MOL0     N19246   9.384   5.815   2.741 -0.0759 -0.0206 -0.4424
  904MOL0     N19247   9.517   5.809   2.735 -0.7666  0.6425 -0.0008
  904MOL0     C19248   9.762   5.267   1.653  0.3345 -0.0574  0.9238
  904MOL0     C19249   9.692   5.155   1.611 -0.3702  0.7529 -0.5262
  904MOL0     C19250   9.415   4.792   1.600  0.3790  0.2687  0.2439
  904MOL0     C19251   9.341   4.832   1.485  0.4563 -0.2793 -0.4898
  904MOL0     C19252   9.253   4.752   1.415 -0.5049 -0.2124 -0.6976
  904MOL0     C19253   9.220   4.629   1.461 -0.2884  0.0257  0.2641
  904MOL0     O19254   9.122   4.543   1.411  0.1202 -1.0805 -0.6697
  904MOL0     C19255   9.043   4.585   1.303 -0.2182  0.1717 -0.6723
  904MOL0     C19256   8.965   4.473   1.247 -0.0210 -0.1058 -0.1978
  904MOL0     C19257   8.830   4.454   1.313 -0.1005 -1.0208 -0.6959
  904MOL0     C19258   8.784   4.306   1.290 -0.6060 -0.2130  0.0109
  904MOL0     C19259   8.763   4.275   1.143  0.4827 -0.1603 -0.0033
  904MOL0     C19260   8.733   4.261   1.024  0.5197 -0.4012  0.4220
  904MOL0     C19261   9.295   4.583   1.573 -0.7308 -0.3767 -0.0493
  904MOL0     C19262   9.383   4.662   1.646 -0.0952 -1.0985  0.0448
  904MOL0     H19263   9.437   5.191   1.834  0.9200  0.1497  0.5718
  904MOL0     H19264   9.561   5.372   1.896  3.3759 -0.7994  1.2070
  904MOL0     H19265   9.622   5.580   1.728 -0.1277  3.0249 -0.3307
  904MOL0     H19266   9.778   5.655   1.730  0.8392  0.5847  0.8381
  904MOL0     H19267   9.808   5.623   1.972  0.0838  1.2704  1.0777
  904MOL0     H19268   9.641   5.560   1.980  0.1471  0.0510  1.3187
  904MOL0     H19269   9.585   5.804   1.888 -0.1966  0.3831 -0.6032
  904MOL0     H19270   9.746   5.853   1.942  2.2791 -1.6422  1.5981
  904MOL0     H19271   9.529   5.733   2.128  2.5591 -1.8053  2.9601
  904MOL0     H19272   9.701   5.713   2.156  1.1385 -0.7220 -2.0527
  904MOL0     H19273   9.561   5.980   2.092 -2.7558 -0.8350  1.8878
  904MOL0     H19274   9.729   5.957   2.159 -0.3140  1.7179  2.3295
  904MOL0     H19275   9.480   5.888   2.301 -1.2207  1.0591  2.2384
  904MOL0     H19276   9.572   6.030   2.335  1.1098  1.1774 -1.4935
  904MOL0     H19277   9.627   5.733   2.388 -0.6704  0.6382  3.4159
  904MOL0     H19278   9.779   5.827   2.355  1.0841  3.5500 -0.0470
  904MOL0     H19279   9.757   5.929   2.573  0.9918 -1.0002  0.1965
  904MOL0     H19280   9.706   5.772   2.594  1.2011  1.6481  4.0659
  904MOL0     H19281   9.406   5.999   2.490 -2.9535 -0.6275  0.4062
  904MOL0     H19282   9.177   6.013   2.581 -2.4998  0.5165  0.8520
  904MOL0     H19283   9.144   5.919   2.727 -1.0878  1.0641 -0.5586
  904MOL0     H19284   9.173   5.716   2.580 -2.1073 -0.3523 -1.0822
  904MOL0     H19285   9.181   5.827   2.442  1.5991 -0.0257  0.8621
  904MOL0     H19286   8.960   5.751   2.440  3.3485 -0.5194  0.8241
  904MOL0     H19287   8.931   5.791   2.608 -1.4772 -0.8755 -0.5124
  904MOL0     H19288   8.847   5.965   2.410 -2.0353  2.6076  2.8001
  904MOL0     H19289   9.017   5.987   2.382  0.1188  2.3322 -0.5614
  904MOL0     H19290   9.001   6.045   2.805 -1.7126 -1.9990  0.2524
  904MOL0     H19291   8.836   6.077   2.984 -2.3118 -0.0396  0.9839
  904MOL0     H19292   8.514   5.970   3.240  3.5833  1.7018  2.8787
  904MOL0     H19293   8.364   6.019   3.413  1.6058 -2.0367 -2.1388
  904MOL0     H19294   8.063   6.219   3.278 -1.0946 -1.5422  1.6673
  904MOL0     H19295   8.120   6.388   3.291 -3.2405  0.9482  0.2652
  904MOL0     H19296   7.954   6.227   3.508  1.0961  0.0360  1.8612
  904MOL0     H19297   7.884   6.308   3.372  0.0895  1.3337  0.4780
  904MOL0     H19298   7.970   6.518   3.442 -1.7145  0.7034  0.7443
  904MOL0     H19299   8.080   6.441   3.568  1.3725  2.5956 -2.3399
  904MOL0     H19300   7.787   6.399   3.570  0.0657  1.9862 -0.5704
  904MOL0     H19301   7.904   6.373   3.703  2.5050 -0.5553 -0.7227
  904MOL0     H19302   7.786   6.633   3.572  0.9022  1.4067  0.2913
  904MOL0     H19303   7.928   6.641   3.680  0.5109 -2.3692  1.7138
  904MOL0     H19304   7.823   6.550   3.868 -3.3712 -1.6121  0.0729
  904MOL0     H19305   7.669   6.533   3.800 -1.1102  1.9652  2.0488
  904MOL0     H19306   7.820   6.796   3.818  0.7141 -0.4556 -3.2117
  904MOL0     H19307   7.672   6.776   3.720  1.1157 -1.4823 -1.3398
  904MOL0     H19308   7.564   6.702   3.962 -0.6477  1.0643  3.4756
  904MOL0     H19309   7.612   6.867   3.957  3.0331  1.6552 -3.3882
  904MOL0     H19310   8.342   6.436   3.271  2.1167  0.3437  3.5754
  904MOL0     H19311   8.521   6.377   3.110  2.8229 -2.2572 -1.4982
  904MOL0     H19312   8.533   6.106   2.670 -0.3252 -1.5050 -0.0027
  904MOL0     H19313   8.708   6.127   2.507 -1.5600 -4.0420  0.2433
  904MOL0     H19314   9.866   5.282   1.625  0.4738 -0.6319  1.1290
  904MOL0     H19315   9.727   5.076   1.546  0.7304 -1.5352  2.6176
  904MOL0     H19316   9.359   4.933   1.450  1.6894 -1.5752 -4.0953
  904MOL0     H19317   9.210   4.781   1.320  1.4659  2.9208 -0.7844
  904MOL0     H19318   9.119   4.609   1.228  2.4822 -0.4620  1.6512
  904MOL0     H19319   8.984   4.672   1.334 -2.1916 -1.9676  2.0652
  904MOL0     H19320   8.954   4.484   1.139 -0.9063 -0.9361 -0.2083
  904MOL0     H19321   9.027   4.383   1.246  3.2190  1.9765 -1.4812
  904MOL0     H19322   8.755   4.519   1.269  0.9676 -0.2610 -1.4326
  904MOL0     H19323   8.831   4.471   1.421 -1.4023  1.5744 -1.0276
  904MOL0     H19324   8.856   4.232   1.326 -1.6073 -0.4035  1.7270
  904MOL0     H19325   8.695   4.279   1.348 -0.7722 -0.3809 -0.3160
  904MOL0     H19326   8.723   4.250   0.918  1.1597 -0.7409  0.3914
  904MOL0     H19327   9.276   4.484   1.613  2.5781 -0.9130  0.4437
  904MOL0     H19328   9.441   4.624   1.730  0.7024 -0.4885 -0.2110
  905MOL0     O19329   8.323   1.881   5.331 -0.2048 -0.0782  0.1348
  905MOL0     C19330   8.332   1.827   5.220 -0.1492 -1.0738 -0.1627
  905MOL0     O19331   8.256   1.725   5.173 -0.6482 -0.9327  0.3869
  905MOL0     C19332   8.182   1.650   5.259  1.0953 -0.5908  0.7171
  905MOL0     C19333   8.104   1.690   5.363  0.7071 -0.1840 -0.0993
  905MOL0     C19334   8.043   1.604   5.453  0.5774 -0.2289  0.0165
  905MOL0     C19335   8.048   1.464   5.435  0.0252 -0.7247  0.5489
  905MOL0     O19336   7.989   1.391   5.529  0.2776  0.3869 -0.5774
  905MOL0     C19337   7.951   1.254   5.491  1.0398 -0.2486 -0.6851
  905MOL0     C19338   7.840   1.210   5.601 -0.7307 -0.1395 -0.3023
  905MOL0     C19339   7.798   1.063   5.599  0.7548  0.6492 -0.6463
  905MOL0     C19340   7.807   0.989   5.470 -1.0691  0.3190  0.1106
  905MOL0     C19341   7.720   0.869   5.472 -0.5990 -0.1067 -0.0354
  905MOL0     C19342   7.723   0.793   5.340 -0.7871  0.4231  0.6843
  905MOL0     C19343   7.586   0.753   5.287  0.2947  0.1840 -0.8721
  905MOL0     C19344   7.586   0.666   5.168 -0.9738 -0.4315  0.9840
  905MOL0     N19345   7.455   0.623   5.129 -0.1612  0.2696  0.0090
  905MOL0     C19346   7.394   0.649   5.004  0.6122 -0.1453 -0.5905
  905MOL0     C19347   7.280   0.573   5.002 -0.4523 -0.0351 -0.8362
  905MOL0     C19348   7.201   0.559   4.879  1.0197  1.0604  0.6612
  905MOL0     C19349   7.140   0.414   4.867 -0.9303 -0.3370  0.0067
  905MOL0     C19350   7.136   0.366   4.725  0.5968 -0.3772 -0.0320
  905MOL0     C19351   7.056   0.453   4.637  0.4988 -0.5295  0.6237
  905MOL0     O19352   7.092   0.419   4.503  1.6924  1.0545  0.2271
  905MOL0     C19353   6.995   0.477   4.418 -0.0969 -0.0490 -0.2867
  905MOL0     C19354   7.043   0.580   4.336 -0.4150  0.0657  0.4829
  905MOL0     C19355   6.964   0.644   4.252 -0.3310  0.5467  0.4358
  905MOL0     C19356   6.830   0.599   4.230 -0.0909  0.1223 -0.5827
  905MOL0     C19357   6.748   0.647   4.127  0.1274  0.3427  0.1834
  905MOL0     O19358   6.628   0.589   4.116  0.7032 -0.1308  0.8461
  905MOL0     C19359   6.513   0.615   4.043 -0.3611 -0.5739 -0.2710
  905MOL0     C19360   6.509   0.680   3.914 -0.3455  0.3791 -0.2253
  905MOL0     C19361   6.383   0.689   3.861 -0.1430 -0.2023  0.4895
  905MOL0     C19362   6.265   0.636   3.906 -0.5941 -0.8126  0.4627
  905MOL0     O19363   6.143   0.620   3.840  0.2911 -0.2374 -0.8392
  905MOL0     C19364   6.134   0.632   3.700 -0.1788 -1.2966 -0.3412
  905MOL0     C19365   5.988   0.611   3.651 -0.0952 -0.2366  0.1915
  905MOL0     C19366   5.948   0.469   3.622  1.1122 -1.0980  0.0000
  905MOL0     C19367   5.803   0.475   3.572 -0.1388  0.4132 -0.4024
  905MOL0     C19368   5.769   0.341   3.510  0.0376 -0.2199 -0.6156
  905MOL0     C19369   5.640   0.325   3.431 -0.3415  0.1264 -1.0756
  905MOL0     C19370   5.617   0.185   3.378 -0.2444 -0.4320  0.0930
  905MOL0     C19371   5.468   0.164   3.332  0.7213  0.0166 -0.6805
  905MOL0    Cl19372   5.471  -0.019   3.306 -0.3555  0.3579 -0.0911
  905MOL0     C19373   6.275   0.574   4.021  1.5140  0.0378 -0.1321
  905MOL0     C19374   6.394   0.562   4.092 -0.2536 -0.8520  0.7222
  905MOL0     O19375   6.803   0.721   4.046  0.6685  0.2705  0.3448
  905MOL0     C19376   6.784   0.489   4.304  0.0918  0.4989  0.2659
  905MOL0     C19377   6.863   0.432   4.402  0.2793 -0.4484 -0.0010
  905MOL0     N19378   7.275   0.496   5.116  0.0869 -0.4494  0.0084
  905MOL0     N19379   7.371   0.530   5.196 -0.2960  0.4647  0.7057
  905MOL0     C19380   8.129   1.417   5.327  0.4150  0.1785 -0.0561
  905MOL0     C19381   8.191   1.509   5.242  0.4108  0.2899 -0.4819
  905MOL0     C19382   8.410   1.899   5.116  0.2099 -0.0590  0.2932
  905MOL0     C19383   8.469   2.021   5.146  0.5676  0.3209  0.3640
  905MOL0     C19384   8.547   2.083   5.046  0.1861  0.4278 -0.5864
  905MOL0     C19385   8.555   2.032   4.922 -0.1690  0.1187  0.1713
  905MOL0     O19386   8.633   2.098   4.830 -0.5653  0.3645  0.7075
  905MOL0     C19387   8.606   2.074   4.690 -0.0155  0.2366  1.2700
  905MOL0     C19388   8.650   2.187   4.588  1.1551 -0.2090 -0.1725
  905MOL0     C19389   8.589   2.324   4.640 -1.2229  0.3857  0.6201
  905MOL0     C19390   8.667   2.447   4.600  0.0214  0.2451  0.2483
  905MOL0     C19391   8.793   2.468   4.671 -0.4334  0.3270 -0.0297
  905MOL0     C19392   8.893   2.508   4.723 -0.8839 -0.1546 -0.5957
  905MOL0     C19393   8.485   1.920   4.886 -1.1502  0.1687 -1.1580
  905MOL0     C19394   8.420   1.843   4.981 -0.4476  0.0722  0.3607
  905MOL0     H19395   8.086   1.796   5.378  0.4833  0.5229 -4.1945
  905MOL0     H19396   7.998   1.645   5.543  1.9796 -0.9625  1.0910
  905MOL0     H19397   8.046   1.199   5.483  0.6174 -1.0859 -0.0582
  905MOL0     H19398   7.903   1.252   5.393 -3.1545  1.3867  1.1240
  905MOL0     H19399   7.751   1.273   5.593 -0.4085  0.4365  0.4697
  905MOL0     H19400   7.888   1.224   5.699 -2.2701 -3.0788  1.0067
  905MOL0     H19401   7.692   1.074   5.624  0.4413  0.1901 -1.7171
  905MOL0     H19402   7.846   1.003   5.677  1.5949 -1.7730 -2.8603
  905MOL0     H19403   7.771   1.049   5.386  0.4905  0.4172 -0.5331
  905MOL0     H19404   7.914   0.973   5.450 -1.5257  0.2721 -2.7665
  905MOL0     H19405   7.618   0.904   5.488 -0.8331 -1.4163  1.6004
  905MOL0     H19406   7.756   0.805   5.553 -4.0299 -1.2118  0.7614
  905MOL0     H19407   7.772   0.698   5.363 -3.3046 -0.6304  2.0463
  905MOL0     H19408   7.777   0.855   5.266 -1.8585  1.5304  0.7987
  905MOL0     H19409   7.546   0.696   5.371  2.4212  0.7523  0.6312
  905MOL0     H19410   7.513   0.831   5.265 -2.2387 -2.4715 -2.4616
  905MOL0     H19411   7.644   0.576   5.192 -1.1778 -1.4088 -1.8759
  905MOL0     H19412   7.642   0.706   5.083  0.9149 -1.3410  1.7349
  905MOL0     H19413   7.423   0.718   4.926  3.8518 -0.8910 -0.2049
  905MOL0     H19414   7.247   0.578   4.782  0.6470  2.0556  0.6646
  905MOL0     H19415   7.124   0.637   4.877  5.2965  5.7950 -1.7774
  905MOL0     H19416   7.042   0.401   4.913 -2.2694 -0.3465 -2.6432
  905MOL0     H19417   7.205   0.355   4.932 -1.7050 -0.8900  0.2898
  905MOL0     H19418   7.237   0.371   4.684  0.3904  0.8723 -0.4210
  905MOL0     H19419   7.118   0.258   4.722  1.4038 -0.5223  0.1924
  905MOL0     H19420   7.078   0.559   4.655 -1.1586 -0.0356 -0.1397
  905MOL0     H19421   6.951   0.430   4.655 -0.0222  1.4634  0.4112
  905MOL0     H19422   7.149   0.605   4.339 -0.0798 -0.9692 -1.4007
  905MOL0     H19423   7.005   0.717   4.184  3.1421  0.2782  2.0312
  905MOL0     H19424   6.599   0.715   3.864  1.7927 -2.6314  1.1643
  905MOL0     H19425   6.381   0.727   3.759  0.9738  1.1804  0.9612
  905MOL0     H19426   6.194   0.555   3.650  0.6200  0.3353 -2.0453
  905MOL0     H19427   6.177   0.727   3.668 -0.7584 -1.7275 -2.6110
  905MOL0     H19428   5.976   0.671   3.560  1.4414 -0.1514  0.0212
  905MOL0     H19429   5.921   0.654   3.727  1.8406  1.7191  0.9215
  905MOL0     H19430   5.961   0.410   3.713  0.1242 -0.9171  0.2760
  905MOL0     H19431   6.003   0.425   3.538  1.8450 -2.7039  1.2732
  905MOL0     H19432   5.744   0.496   3.661  0.6593 -0.0269  0.2444
  905MOL0     H19433   5.793   0.552   3.495  0.6785 -0.4540 -1.4116
  905MOL0     H19434   5.785   0.261   3.583 -0.2689 -1.8300 -2.2497
  905MOL0     H19435   5.857   0.326   3.446  0.7835  1.8782 -0.1699
  905MOL0     H19436   5.650   0.396   3.349  2.6069  2.0228  0.7555
  905MOL0     H19437   5.562   0.350   3.504  1.2173 -2.0523  1.5586
  905MOL0     H19438   5.692   0.186   3.299  1.8315  2.3834  1.8944
  905MOL0     H19439   5.649   0.108   3.450  1.2734  1.6545  1.8060
  905MOL0     H19440   5.445   0.215   3.238  0.6711 -1.0562 -1.2704
  905MOL0     H19441   5.401   0.200   3.410 -0.1387  2.9010 -2.5883
  905MOL0     H19442   6.185   0.519   4.050  0.4976  2.8937  2.6739
  905MOL0     H19443   6.403   0.481   4.165  3.0610 -3.1032 -1.8487
  905MOL0     H19444   6.686   0.446   4.283  0.6594  0.9703 -4.6942
  905MOL0     H19445   6.831   0.338   4.446  0.1410 -2.2471 -3.5783
  905MOL0     H19446   8.168   1.316   5.319  3.9112  1.1646  2.3279
  905MOL0     H19447   8.246   1.482   5.152 -0.3908  0.1947 -0.9527
  905MOL0     H19448   8.439   2.084   5.230  1.2049  1.3792 -0.1722
  905MOL0     H19449   8.602   2.175   5.061 -0.4061  1.1432 -2.4646
  905MOL0     H19450   8.500   2.054   4.675 -0.5106  2.7252  1.1553
  905MOL0     H19451   8.656   1.983   4.655 -1.0403 -1.2274  3.3214
  905MOL0     H19452   8.760   2.190   4.586  1.1472  0.0196 -0.2291
  905MOL0     H19453   8.628   2.167   4.483  3.4715 -4.8492 -0.0244
  905MOL0     H19454   8.585   2.318   4.749 -0.2559 -3.1889  0.5964
  905MOL0     H19455   8.483   2.326   4.612 -1.3630  0.0801  1.1030
  905MOL0     H19456   8.680   2.446   4.492  0.3322 -0.7056  0.2854
  905MOL0     H19457   8.615   2.538   4.631  0.9095  1.8378 -2.5842
  905MOL0     H19458   8.980   2.552   4.768 -1.4572  0.4550 -0.0697
  905MOL0     H19459   8.505   1.882   4.786 -0.1945 -0.3433 -0.7919
  905MOL0     H19460   8.383   1.743   4.962 -1.5930  0.9640 -2.6991
  906MOL0     O19461   7.867   7.403   6.437 -0.3211  0.0837  0.1350
  906MOL0     C19462   7.758   7.448   6.422 -0.8637  0.3639 -0.8041
  906MOL0     O19463   7.666   7.396   6.335  1.2932 -0.5656  0.6024
  906MOL0     C19464   7.692   7.272   6.282 -0.0623  0.9761 -0.0657
  906MOL0     C19465   7.687   7.151   6.356 -0.1372  0.2840 -0.4865
  906MOL0     C19466   7.719   7.034   6.295 -0.4535  0.8860  0.3127
  906MOL0     C19467   7.743   7.022   6.149 -1.1907 -0.3681 -1.4108
  906MOL0     O19468   7.745   6.898   6.088 -0.3036 -0.4448  0.6017
  906MOL0     C19469   7.848   6.864   6.000 -0.7605 -0.2271 -0.3038
  906MOL0     C19470   7.971   6.810   6.086  0.0434 -0.3516  0.1829
  906MOL0     C19471   8.084   6.784   5.985 -0.7842 -0.4080  0.2793
  906MOL0     C19472   8.062   6.704   5.858 -0.0715  1.1993  0.0308
  906MOL0     C19473   8.193   6.653   5.807 -0.4370  0.0449  0.0043
  906MOL0     C19474   8.190   6.492   5.824 -0.7471  0.0627 -0.0842
  906MOL0     C19475   8.207   6.463   5.978  0.2767 -0.5827  0.0513
  906MOL0     C19476   8.199   6.320   6.015  1.0865 -0.7589 -0.5305
  906MOL0     N19477   8.283   6.243   5.933  0.7550  0.0566  0.0355
  906MOL0     C19478   8.413   6.245   5.945  0.5087 -0.1699  0.1931
  906MOL0     C19479   8.463   6.129   5.890  0.4135  1.1215 -0.8308
  906MOL0     C19480   8.604   6.081   5.896 -1.2038 -0.3652  0.1184
  906MOL0     C19481   8.709   6.198   5.873 -0.0595 -0.5536  0.3871
  906MOL0     C19482   8.736   6.217   5.726  0.1992 -0.3107 -0.2017
  906MOL0     C19483   8.827   6.329   5.695 -0.5535  0.4431  0.4837
  906MOL0     O19484   8.958   6.300   5.745  0.0709  0.4232  0.7523
  906MOL0     C19485   9.053   6.403   5.742 -0.0891  0.0834 -0.0858
  906MOL0     C19486   9.166   6.383   5.822 -0.4635  0.1813 -0.0375
  906MOL0     C19487   9.270   6.473   5.804 -0.1560 -0.2239 -0.2235
  906MOL0     C19488   9.271   6.576   5.710 -0.0861  0.1280  0.1440
  906MOL0     C19489   9.380   6.674   5.719 -0.6908  0.3716 -0.2149
  906MOL0     O19490   9.492   6.623   5.763 -0.3878  0.0182  0.9910
  906MOL0     C19491   9.576   6.701   5.840  0.4414  0.5173  0.7050
  906MOL0     C19492   9.639   6.818   5.787 -0.1188  0.7658 -0.0554
  906MOL0     C19493   9.706   6.895   5.879 -0.4835 -0.1723  0.4722
  906MOL0     C19494   9.714   6.866   6.014 -0.2453  0.6581 -0.4189
  906MOL0     O19495   9.798   6.945   6.095  0.3195  0.5842 -0.0722
  906MOL0     C19496   9.742   7.079   6.089 -0.7794  0.4173  0.0517
  906MOL0     C19497   9.809   7.157   6.192 -0.0162 -0.0065  0.5306
  906MOL0     C19498   9.743   7.298   6.216 -0.3140  0.1702 -0.4712
  906MOL0     C19499   9.846   7.388   6.286 -0.6666 -0.8334 -0.9300
  906MOL0     C19500   9.783   7.527   6.311 -0.0072 -0.9715  0.4980
  906MOL0     C19501   9.903   7.614   6.353  0.3555 -0.4503 -0.2792
  906MOL0     C19502   9.838   7.742   6.422  0.4050 -0.3702 -0.5294
  906MOL0     C19503   9.791   7.720   6.566 -0.2044 -0.2549  0.3616
  906MOL0    Cl19504   9.639   7.805   6.606 -0.0743  0.3082 -0.2005
  906MOL0     C19505   9.658   6.746   6.063  0.0837 -0.8345 -0.3375
  906MOL0     C19506   9.591   6.667   5.978 -0.2499  0.4696  0.0749
  906MOL0     O19507   9.357   6.792   5.698 -0.9299 -0.6760  0.0611
  906MOL0     C19508   9.170   6.589   5.620 -0.3953 -0.1962  0.8810
  906MOL0     C19509   9.062   6.501   5.634 -0.2932  0.0989  0.4038
  906MOL0     N19510   8.349   6.054   5.849  0.1794 -0.0461 -0.0048
  906MOL0     N19511   8.246   6.126   5.872 -1.2075 -0.1304 -0.0889
  906MOL0     C19512   7.750   7.148   6.084  0.2881 -0.4553 -0.5847
  906MOL0     C19513   7.742   7.273   6.151  0.8869 -0.2585  0.3439
  906MOL0     C19514   7.723   7.585   6.482 -0.1553 -0.0348  0.5667
  906MOL0     C19515   7.626   7.660   6.407  0.5805  0.5453 -0.8844
  906MOL0     C19516   7.592   7.787   6.441  0.4346  0.3067 -0.1308
  906MOL0     C19517   7.656   7.842   6.553 -0.1085  0.1189  0.2907
  906MOL0     O19518   7.618   7.965   6.601  1.3117  0.4675  0.2665
  906MOL0     C19519   7.679   8.035   6.718  0.8350  0.2391 -0.3812
  906MOL0     C19520   7.807   8.119   6.670  0.0747 -0.4585 -0.1231
  906MOL0     C19521   7.774   8.232   6.568  0.6882 -0.3207  1.0069
  906MOL0     C19522   7.792   8.182   6.424 -0.7712 -0.7523  0.3838
  906MOL0     C19523   7.745   8.269   6.316  0.3314 -0.9145 -0.2368
  906MOL0     C19524   7.705   8.338   6.220 -0.0858 -0.0844 -0.5346
  906MOL0     C19525   7.769   7.782   6.603  0.1841  0.0393 -0.2590
  906MOL0     C19526   7.800   7.648   6.576 -0.1674  0.1697  0.7443
  906MOL0     H19527   7.659   7.157   6.460 -1.2734 -4.1756 -0.3264
  906MOL0     H19528   7.727   6.938   6.345 -1.6313 -1.2870 -3.3244
  906MOL0     H19529   7.872   6.949   5.935 -0.1037 -0.9608 -1.0368
  906MOL0     H19530   7.796   6.787   5.942 -1.2516 -0.7296  0.7710
  906MOL0     H19531   7.936   6.726   6.147 -0.0961  0.2460  0.9485
  906MOL0     H19532   7.996   6.897   6.149 -2.7761  0.5226  0.2223
  906MOL0     H19533   8.161   6.738   6.048 -1.6192 -2.1425  0.0941
  906MOL0     H19534   8.114   6.876   5.933 -3.5634 -0.3843 -1.4913
  906MOL0     H19535   7.987   6.628   5.884 -1.8054  2.8810  0.1512
  906MOL0     H19536   8.017   6.769   5.783  0.7290 -0.6278 -2.1694
  906MOL0     H19537   8.286   6.690   5.851 -0.5089  0.8445 -0.4977
  906MOL0     H19538   8.197   6.674   5.700 -2.5092  0.0417 -0.0980
  906MOL0     H19539   8.271   6.456   5.761  0.4496  0.5319  1.1356
  906MOL0     H19540   8.103   6.443   5.779 -0.7855  2.4268 -2.8654
  906MOL0     H19541   8.306   6.497   6.007  0.8764 -1.4131 -0.9346
  906MOL0     H19542   8.127   6.515   6.032 -1.4157 -1.8617 -1.0933
  906MOL0     H19543   8.092   6.298   6.016  1.2793 -1.7250 -0.3758
  906MOL0     H19544   8.238   6.290   6.113  2.6694 -4.5889 -2.1387
  906MOL0     H19545   8.473   6.315   6.001  0.2278 -1.7973  2.7092
  906MOL0     H19546   8.615   6.006   5.816  1.9022 -0.3290  0.4023
  906MOL0     H19547   8.641   6.025   5.982  1.7800 -0.7375 -1.2811
  906MOL0     H19548   8.804   6.170   5.920 -0.0600 -0.5527  0.3883
  906MOL0     H19549   8.672   6.293   5.912  2.8983  2.3103 -3.1564
  906MOL0     H19550   8.782   6.119   5.707  3.0557  0.0204  3.6957
  906MOL0     H19551   8.642   6.230   5.672  1.2977 -0.9626 -2.3995
  906MOL0     H19552   8.792   6.431   5.717 -0.7357  0.4114  0.3504
  906MOL0     H19553   8.833   6.316   5.586 -0.2836  1.1990  0.3991
  906MOL0     H19554   9.173   6.293   5.882  0.4794 -0.5716 -1.2348
  906MOL0     H19555   9.354   6.461   5.871 -1.8521 -0.1898  2.0284
  906MOL0     H19556   9.619   6.844   5.684 -1.5716 -0.5006 -0.1338
  906MOL0     H19557   9.762   6.977   5.836 -0.3919 -1.1584 -1.3560
  906MOL0     H19558   9.639   7.075   6.126  0.4694  1.1723  4.0745
  906MOL0     H19559   9.753   7.116   5.987 -1.7140  0.8009  0.0792
  906MOL0     H19560   9.913   7.168   6.158  0.8789 -0.2403  3.0410
  906MOL0     H19561   9.799   7.108   6.289  0.1887 -0.4888  0.3129
  906MOL0     H19562   9.648   7.290   6.268 -1.7061  1.6636 -2.6351
  906MOL0     H19563   9.720   7.351   6.124 -3.4759  0.8471  0.5869
  906MOL0     H19564   9.873   7.350   6.385 -0.4183 -2.1392 -1.4815
  906MOL0     H19565   9.940   7.394   6.230  0.0804 -0.4738  0.3218
  906MOL0     H19566   9.700   7.521   6.383  0.6915 -2.4413  1.2257
  906MOL0     H19567   9.751   7.572   6.217  1.3178  1.1669  1.0057
  906MOL0     H19568   9.959   7.642   6.264 -0.9474 -2.7935 -1.9618
  906MOL0     H19569   9.965   7.549   6.416  0.6460 -2.6326 -2.6408
  906MOL0     H19570   9.911   7.822   6.432 -0.4405  0.2645  0.9504
  906MOL0     H19571   9.757   7.775   6.357  0.4378  1.0852  0.1376
  906MOL0     H19572   9.862   7.759   6.640  0.0256 -0.2794  0.1540
  906MOL0     H19573   9.791   7.611   6.575 -2.9607 -0.3519  0.1194
  906MOL0     H19574   9.665   6.718   6.168  0.0360 -0.5071 -0.2479
  906MOL0     H19575   9.535   6.581   6.015 -0.9134  0.7546 -0.2521
  906MOL0     H19576   9.171   6.663   5.540 -2.5877  1.1818  2.0396
  906MOL0     H19577   8.988   6.505   5.555  0.4801  1.3453 -0.2869
  906MOL0     H19578   7.778   7.143   5.979  2.4981 -1.0804 -0.0177
  906MOL0     H19579   7.766   7.359   6.089  1.5503 -2.0064 -1.9695
  906MOL0     H19580   7.582   7.604   6.325 -0.0543 -1.1618  0.5748
  906MOL0     H19581   7.521   7.843   6.381  2.3194  1.4411 -1.4133
  906MOL0     H19582   7.700   7.978   6.808 -5.0902  0.2746  1.4357
  906MOL0     H19583   7.601   8.104   6.752 -0.2409 -0.4593 -1.3672
  906MOL0     H19584   7.841   8.166   6.763  0.6756 -2.5857  0.7898
  906MOL0     H19585   7.879   8.046   6.632  1.4569  1.9804 -2.5599
  906MOL0     H19586   7.836   8.320   6.582  1.7407 -0.6265 -1.2787
  906MOL0     H19587   7.668   8.261   6.569  1.3325  2.5622 -1.3123
  906MOL0     H19588   7.900   8.182   6.405 -0.0953  5.1598  1.9559
  906MOL0     H19589   7.749   8.084   6.405  4.2234 -2.4583 -5.6466
  906MOL0     H19590   7.676   8.397   6.136  0.2618 -0.6838 -1.0895
  906MOL0     H19591   7.833   7.841   6.668  1.1774 -1.2673 -0.0182
  906MOL0     H19592   7.883   7.592   6.616 -0.7670 -1.9891 -0.8642
  907MOL0     O19593   2.303   4.935   0.659 -0.0918  1.0375 -0.0469
  907MOL0     C19594   2.395   5.017   0.639  0.3349 -0.7487 -0.1113
  907MOL0     O19595   2.509   5.023   0.710 -0.2876 -0.9415 -0.6607
  907MOL0     C19596   2.545   4.932   0.799 -0.1851  0.0246 -1.9495
  907MOL0     C19597   2.558   4.795   0.761  0.0245 -0.5982 -0.6416
  907MOL0     C19598   2.614   4.709   0.853  0.2793 -0.0363  0.6017
  907MOL0     C19599   2.638   4.757   0.984 -0.8352  0.5383  0.1058
  907MOL0     O19600   2.673   4.656   1.064 -0.3896  0.4958 -0.7856
  907MOL0     C19601   2.690   4.685   1.205 -0.1870  0.4143 -0.7338
  907MOL0     C19602   2.618   4.570   1.281  0.8071  1.4219  0.1628
  907MOL0     C19603   2.648   4.589   1.429  0.5006 -0.3049 -0.5122
  907MOL0     C19604   2.538   4.694   1.492 -0.8729  0.0458 -0.0554
  907MOL0     C19605   2.582   4.716   1.643  0.9537 -0.0200  0.1230
  907MOL0     C19606   2.499   4.843   1.694 -0.8460 -1.2536  0.5966
  907MOL0     C19607   2.501   4.880   1.846  0.2485  0.1966  1.2568
  907MOL0     C19608   2.637   4.846   1.915  0.2560 -0.3190  0.8108
  907MOL0     N19609   2.746   4.912   1.844 -0.1178  0.9400  0.7991
  907MOL0     C19610   2.749   5.039   1.785 -0.6817 -0.4626  1.2910
  907MOL0     C19611   2.878   5.049   1.750  0.1205 -0.3924  1.1223
  907MOL0     C19612   2.922   5.162   1.672 -1.3072  0.2952  0.5586
  907MOL0     C19613   2.992   5.260   1.756  0.0634  0.5705 -0.2552
  907MOL0     C19614   3.054   5.372   1.672 -0.9992 -0.0205 -0.2531
  907MOL0     C19615   2.961   5.487   1.646 -0.8435 -0.0970 -0.0147
  907MOL0     O19616   2.889   5.522   1.767  0.3898  0.2187 -0.8332
  907MOL0     C19617   2.764   5.581   1.771 -0.0587  0.0180  0.5776
  907MOL0     C19618   2.710   5.649   1.652 -0.6809  0.7364 -0.0980
  907MOL0     C19619   2.581   5.699   1.666  0.6778  1.0005 -0.2109
  907MOL0     C19620   2.502   5.690   1.787  0.1884 -0.5795  0.4673
  907MOL0     C19621   2.357   5.741   1.781  0.1951  0.7262 -0.5234
  907MOL0     O19622   2.294   5.776   1.900 -0.0674 -0.4194  0.3042
  907MOL0     C19623   2.157   5.780   1.908  0.6546  0.0840 -0.0526
  907MOL0     C19624   2.107   5.897   1.961  0.8801  0.1980  0.4724
  907MOL0     C19625   1.971   5.894   1.995 -0.1365  0.4973  0.2796
  907MOL0     C19626   1.878   5.796   1.965  0.7117  0.4165 -0.1617
  907MOL0     O19627   1.750   5.819   2.014 -0.2707 -0.6812  1.1881
  907MOL0     C19628   1.650   5.746   1.935 -1.0566  0.0534  0.0271
  907MOL0     C19629   1.501   5.769   1.984  0.5102  0.1433 -0.2711
  907MOL0     C19630   1.468   5.718   2.128 -0.5278 -0.2215  0.4258
  907MOL0     C19631   1.321   5.679   2.152  0.7350  0.6878 -1.1815
  907MOL0     C19632   1.225   5.794   2.129  0.0928  0.1782 -0.8973
  907MOL0     C19633   1.085   5.761   2.064 -0.8750  0.3120  0.0041
  907MOL0     C19634   0.985   5.691   2.156  1.1743 -0.5952 -0.6171
  907MOL0     C19635   0.896   5.789   2.243 -0.2686 -0.3095 -0.1053
  907MOL0    Cl19636   0.814   5.913   2.137  0.1622 -0.2282 -0.1995
  907MOL0     C19637   1.920   5.686   1.886  0.8288  0.4765 -0.7946
  907MOL0     C19638   2.058   5.681   1.861 -0.1755 -0.3047 -0.0254
  907MOL0     O19639   2.304   5.743   1.668 -0.0912  0.1996  0.1519
  907MOL0     C19640   2.556   5.627   1.895  0.1412 -0.9977  0.0258
  907MOL0     C19641   2.687   5.569   1.891  1.1471  0.1542  0.0657
  907MOL0     N19642   2.954   4.934   1.796  0.3345  0.1551  1.0061
  907MOL0     N19643   2.866   4.857   1.835  0.1202  0.0142 -0.2138
  907MOL0     C19644   2.628   4.890   1.018  0.8975  0.6047 -1.2756
  907MOL0     C19645   2.588   4.979   0.926 -0.0102  0.0114  0.1994
  907MOL0     C19646   2.388   5.110   0.525  1.3166 -0.4309 -1.0608
  907MOL0     C19647   2.494   5.194   0.492 -0.0394 -0.1474  0.8186
  907MOL0     C19648   2.498   5.275   0.386  0.2198  0.2550  0.6959
  907MOL0     C19649   2.378   5.282   0.304 -0.2374  0.4144 -0.6111
  907MOL0     O19650   2.365   5.358   0.187  0.7843  0.2563  0.6475
  907MOL0     C19651   2.488   5.430   0.143 -0.0981 -0.7483  1.8920
  907MOL0     C19652   2.516   5.552   0.234  0.1265 -0.2577 -1.1226
  907MOL0     C19653   2.390   5.636   0.248  1.1502 -0.9676 -1.1891
  907MOL0     C19654   2.425   5.764   0.330  0.0937  0.0658 -0.8954
  907MOL0     C19655   2.302   5.841   0.364  0.7056 -0.7017  0.5011
  907MOL0     C19656   2.202   5.915   0.383 -0.8345  0.6271  0.1427
  907MOL0     C19657   2.268   5.199   0.340 -0.1733 -0.5952 -0.6538
  907MOL0     C19658   2.274   5.115   0.454  0.1208  0.3120  0.3648
  907MOL0     H19659   2.521   4.767   0.663 -0.6475  0.3151 -0.6587
  907MOL0     H19660   2.633   4.604   0.834 -2.1228 -0.2726 -1.0147
  907MOL0     H19661   2.645   4.780   1.235 -0.4223  0.4285 -1.1249
  907MOL0     H19662   2.798   4.685   1.227 -0.4574 -0.4560  0.7616
  907MOL0     H19663   2.642   4.471   1.241 -0.7373  2.0421 -2.6200
  907MOL0     H19664   2.512   4.570   1.255  0.9863  0.9053 -0.6181
  907MOL0     H19665   2.747   4.629   1.454 -0.6055  2.2366  0.1162
  907MOL0     H19666   2.643   4.493   1.481 -0.8448 -0.7730 -1.4736
  907MOL0     H19667   2.557   4.791   1.444  0.9870  0.0427  0.5947
  907MOL0     H19668   2.434   4.677   1.462 -0.6599  0.2058 -0.9122
  907MOL0     H19669   2.687   4.741   1.662  0.2775  4.2613 -0.5786
  907MOL0     H19670   2.541   4.635   1.704  3.4593 -1.8466 -0.4749
  907MOL0     H19671   2.401   4.822   1.650  0.1108 -3.3025 -0.6751
  907MOL0     H19672   2.538   4.933   1.645 -1.4591 -0.3895  1.6327
  907MOL0     H19673   2.468   4.984   1.842 -3.7749 -0.8683  1.9656
  907MOL0     H19674   2.422   4.825   1.900 -1.0686  1.6273  0.8679
  907MOL0     H19675   2.650   4.737   1.911 -1.0014 -0.4502 -0.6317
  907MOL0     H19676   2.640   4.871   2.021  2.9460 -1.3756  1.0514
  907MOL0     H19677   2.661   5.103   1.778 -1.6986 -1.9069  0.2983
  907MOL0     H19678   2.834   5.195   1.617 -2.2525 -4.0911 -0.9764
  907MOL0     H19679   2.996   5.137   1.595  2.9054  2.2845  3.5682
  907MOL0     H19680   3.068   5.210   1.815  0.7971 -1.1679 -2.5105
  907MOL0     H19681   2.922   5.306   1.826  0.2005  1.9899 -1.0033
  907MOL0     H19682   3.129   5.420   1.734  1.5185 -1.3115 -2.1207
  907MOL0     H19683   3.110   5.334   1.586  2.4823 -1.1039  2.2574
  907MOL0     H19684   2.902   5.472   1.555 -1.1152 -0.3179  0.1985
  907MOL0     H19685   3.015   5.580   1.625  1.8906 -0.9365  2.6809
  907MOL0     H19686   2.773   5.643   1.564  0.9346  0.1532  1.0487
  907MOL0     H19687   2.543   5.724   1.568 -0.2065  0.6119  0.0311
  907MOL0     H19688   2.178   5.965   2.007  1.0701 -1.4704  2.7829
  907MOL0     H19689   1.944   5.965   2.073 -4.3045 -2.4553  1.8431
  907MOL0     H19690   1.671   5.639   1.951 -0.4398  0.2592  0.6526
  907MOL0     H19691   1.653   5.779   1.831  0.7429  0.6820  0.2480
  907MOL0     H19692   1.434   5.725   1.911 -1.6250  2.5312  0.0916
  907MOL0     H19693   1.481   5.876   1.981 -0.7857  0.2065  4.0461
  907MOL0     H19694   1.496   5.791   2.205 -1.8446 -1.5208  2.2306
  907MOL0     H19695   1.529   5.627   2.134  2.2640  1.4718 -0.1854
  907MOL0     H19696   1.288   5.594   2.091  0.5570 -1.5518  1.8152
  907MOL0     H19697   1.325   5.649   2.257  0.1821  0.1940 -1.2980
  907MOL0     H19698   1.289   5.871   2.083  1.3316 -0.4869 -0.3163
  907MOL0     H19699   1.194   5.827   2.229 -0.6545 -1.9031 -0.4054
  907MOL0     H19700   1.102   5.697   1.978 -0.4322 -0.2910  0.5320
  907MOL0     H19701   1.041   5.854   2.026  4.1422  2.2193 -2.0484
  907MOL0     H19702   0.924   5.624   2.095 -0.2149 -0.5656  0.6870
  907MOL0     H19703   1.036   5.632   2.232  0.7254 -1.1495 -0.7365
  907MOL0     H19704   0.954   5.843   2.318 -1.1917 -0.0259  0.4301
  907MOL0     H19705   0.821   5.725   2.291 -0.1467 -1.3876 -1.2973
  907MOL0     H19706   1.846   5.616   1.847 -2.3841  1.5121  2.8001
  907MOL0     H19707   2.089   5.587   1.817  1.4309 -0.2194  0.8563
  907MOL0     H19708   2.498   5.613   1.986 -2.3322  0.3837 -1.2564
  907MOL0     H19709   2.723   5.526   1.983 -1.3951 -2.9999 -0.2534
  907MOL0     H19710   2.660   4.929   1.114 -0.2991 -3.8939  1.2555
  907MOL0     H19711   2.600   5.083   0.953  1.1256  0.0080 -0.2739
  907MOL0     H19712   2.581   5.200   0.556  0.5558  0.7925 -0.0558
  907MOL0     H19713   2.583   5.334   0.353  2.7583 -2.6588  1.5075
  907MOL0     H19714   2.465   5.478   0.047  0.2870 -1.5313  1.3994
  907MOL0     H19715   2.568   5.359   0.121 -2.5345 -3.1269  0.1674
  907MOL0     H19716   2.548   5.536   0.337 -5.1026  2.4640  1.3047
  907MOL0     H19717   2.590   5.617   0.185 -1.1485  2.3936  0.2372
  907MOL0     H19718   2.317   5.582   0.310  2.3172 -1.8639 -0.5479
  907MOL0     H19719   2.347   5.666   0.153  0.5999  4.6322  0.4908
  907MOL0     H19720   2.490   5.740   0.415 -0.6956  0.4070 -0.1887
  907MOL0     H19721   2.484   5.835   0.270 -0.0782 -0.1223 -1.2919
  907MOL0     H19722   2.104   5.958   0.391 -1.8011 -1.1665 -1.0687
  907MOL0     H19723   2.185   5.205   0.269 -1.8243  1.3839  1.2831
  907MOL0     H19724   2.191   5.046   0.467  1.9062 -1.7212  1.8531
  908MOL0     O19725  10.877   0.675   5.721  0.6576  0.8579  0.6424
  908MOL0     C19726  10.924   0.780   5.675 -0.7296  0.4387  0.6181
  908MOL0     O19727  10.878   0.842   5.568 -0.2239 -0.5027  0.3261
  908MOL0     C19728  10.822   0.769   5.461  0.0324  0.5782  0.2650
  908MOL0     C19729  10.884   0.659   5.394  0.6693 -0.0770 -0.2235
  908MOL0     C19730  10.812   0.588   5.288  0.9385 -0.5558 -0.4350
  908MOL0     C19731  10.703   0.642   5.224  0.5020  0.1851 -0.3868
  908MOL0     O19732  10.652   0.577   5.115  0.3018  0.3631  0.4565
  908MOL0     C19733  10.667   0.643   4.991 -0.2507  0.8943 -0.1169
  908MOL0     C19734  10.819   0.632   4.957 -1.2897  1.1239 -0.2075
  908MOL0     C19735  10.865   0.485   4.939 -0.0199 -0.9254 -0.8264
  908MOL0     C19736  10.995   0.464   4.874  0.1576  0.0808 -0.6071
  908MOL0     C19737  11.000   0.338   4.793  0.3975 -0.3561 -0.3902
  908MOL0     C19738  11.037   0.216   4.867 -0.9278 -0.1691  0.0197
  908MOL0     C19739  11.069   0.094   4.775 -0.3977  0.2444  0.8175
  908MOL0     C19740  11.124  -0.027   4.857  0.5528 -0.6938 -0.1895
  908MOL0     N19741  11.152  -0.138   4.768 -0.0460  0.3919  0.1194
  908MOL0     C19742  11.072  -0.211   4.681 -0.0425 -0.6161 -0.2988
  908MOL0     C19743  11.143  -0.319   4.643 -0.5824  0.2916 -0.1885
  908MOL0     C19744  11.108  -0.435   4.550  0.4038  0.2977  0.0579
  908MOL0     C19745  11.116  -0.399   4.401 -0.1045 -0.8022  0.1923
  908MOL0     C19746  10.992  -0.326   4.356 -0.6763  1.0998  0.7753
  908MOL0     C19747  11.001  -0.270   4.213 -0.1219 -0.3384  0.0785
  908MOL0     O19748  11.038  -0.358   4.111  0.3525 -0.3914  0.0170
  908MOL0     C19749  11.150  -0.316   4.040 -0.3966  0.5072 -0.3660
  908MOL0     C19750  11.270  -0.392   4.053  0.3860 -0.1484 -1.2909
  908MOL0     C19751  11.385  -0.350   3.987  0.2531 -0.8061 -0.2821
  908MOL0     C19752  11.383  -0.243   3.901 -1.0679 -1.2338  0.7321
  908MOL0     C19753  11.505  -0.194   3.823 -0.6448  0.8487  0.2214
  908MOL0     O19754  11.621  -0.247   3.846  0.1342  0.0626  0.6639
  908MOL0     C19755  11.734  -0.186   3.809 -0.2348  0.2336 -0.8243
  908MOL0     C19756  11.834  -0.188   3.910 -0.4191  0.2218 -0.5723
  908MOL0     C19757  11.958  -0.128   3.883  0.1996 -0.1933 -0.0587
  908MOL0     C19758  11.990  -0.087   3.750 -0.5648 -0.1522 -1.0022
  908MOL0     O19759  12.099  -0.007   3.719 -0.4708 -0.4442  0.2538
  908MOL0     C19760  12.234  -0.031   3.774 -0.5213  0.4407 -0.5319
  908MOL0     C19761  12.322  -0.124   3.686 -0.0992  1.1241 -0.7223
  908MOL0     C19762  12.290  -0.276   3.707  1.3602 -0.3285  0.4715
  908MOL0     C19763  12.339  -0.366   3.586 -0.2455  0.4670 -0.3866
  908MOL0     C19764  12.276  -0.329   3.453 -0.2578  0.9311  0.7113
  908MOL0     C19765  12.116  -0.351   3.456  0.4100 -0.8754 -0.4214
  908MOL0     C19766  12.057  -0.311   3.324 -0.3092 -0.1238  0.6347
  908MOL0     C19767  11.912  -0.360   3.313  0.3749 -0.4790 -0.1486
  908MOL0    Cl19768  11.844  -0.282   3.162  0.4454 -0.3946  0.0799
  908MOL0     C19769  11.895  -0.095   3.651  0.3225 -0.0890  0.6894
  908MOL0     C19770  11.768  -0.142   3.677 -0.3452 -0.1682 -1.0922
  908MOL0     O19771  11.483  -0.105   3.738  0.5443 -0.4241 -0.3701
  908MOL0     C19772  11.267  -0.163   3.895  0.1084  0.1393 -0.2701
  908MOL0     C19773  11.157  -0.194   3.968 -0.3103  0.2216 -0.4426
  908MOL0     N19774  11.281  -0.293   4.685  1.1506 -0.3484 -0.0312
  908MOL0     N19775  11.286  -0.185   4.753 -0.3528 -0.0238 -0.6963
  908MOL0     C19776  10.650   0.753   5.282  0.0225  0.1340 -0.1760
  908MOL0     C19777  10.689   0.809   5.407 -0.0111 -0.0695  0.3795
  908MOL0     C19778  11.026   0.846   5.757  0.7339 -0.9246  0.7735
  908MOL0     C19779  11.094   0.955   5.700 -0.0638  0.0018  0.0506
  908MOL0     C19780  11.200   1.012   5.761  0.4299  0.7582  0.2528
  908MOL0     C19781  11.251   0.963   5.874 -0.6094 -0.8210 -0.6112
  908MOL0     O19782  11.362   1.009   5.945  0.1426  0.0234  1.4137
  908MOL0     C19783  11.431   1.128   5.905 -0.7751 -0.7489  0.5753
  908MOL0     C19784  11.558   1.104   5.821 -0.0140  1.1755 -0.4068
  908MOL0     C19785  11.662   1.056   5.917 -0.2440  0.4694 -0.0316
  908MOL0     C19786  11.788   1.024   5.843  0.0879 -0.6676 -0.0836
  908MOL0     C19787  11.906   0.999   5.932 -0.6084 -0.3701  0.0387
  908MOL0     C19788  12.004   0.979   6.001  0.0766  0.7159  0.3379
  908MOL0     C19789  11.190   0.855   5.931 -0.7762 -0.3564  1.0838
  908MOL0     C19790  11.077   0.794   5.871 -0.8110 -1.3229 -0.3859
  908MOL0     H19791  10.986   0.644   5.430  2.5713  0.0645 -4.8523
  908MOL0     H19792  10.866   0.505   5.243  0.5144  0.3079 -2.6192
  908MOL0     H19793  10.628   0.745   4.983 -0.4229  0.7878 -0.6492
  908MOL0     H19794  10.608   0.583   4.922 -1.7509  1.3237  0.7483
  908MOL0     H19795  10.887   0.673   5.033 -1.5786 -0.7318  1.1100
  908MOL0     H19796  10.839   0.685   4.863  0.0951 -0.1945 -0.7062
  908MOL0     H19797  10.785   0.436   4.884 -1.2910 -1.3770  1.2904
  908MOL0     H19798  10.872   0.433   5.035  0.1089  0.5532  0.0067
  908MOL0     H19799  11.023   0.546   4.808  0.4697  0.9943  0.6090
  908MOL0     H19800  11.076   0.458   4.948 -2.5034 -1.9289  2.4061
  908MOL0     H19801  11.068   0.367   4.712 -3.6393 -0.6566 -4.2343
  908MOL0     H19802  10.908   0.335   4.734 -1.2396  0.9687  1.9208
  908MOL0     H19803  10.971   0.182   4.948 -2.3302 -1.8651 -1.7424
  908MOL0     H19804  11.129   0.249   4.917 -1.4053 -0.6874  1.2780
  908MOL0     H19805  10.978   0.071   4.719  1.4791 -0.0419 -2.3583
  908MOL0     H19806  11.147   0.116   4.701 -0.6707  0.9856  0.7388
  908MOL0     H19807  11.046  -0.057   4.928 -0.7410  1.9769 -0.3245
  908MOL0     H19808  11.218  -0.013   4.911  0.3051 -1.3076  0.4169
  908MOL0     H19809  10.969  -0.189   4.656 -0.4411 -1.9853  0.0139
  908MOL0     H19810  11.012  -0.480   4.575 -0.2895  2.1359  0.9345
  908MOL0     H19811  11.182  -0.511   4.577  0.2942 -1.0054 -2.9496
  908MOL0     H19812  11.130  -0.491   4.343  0.2642 -2.8000  3.2230
  908MOL0     H19813  11.206  -0.339   4.381 -0.1777 -0.8876 -0.4211
  908MOL0     H19814  10.908  -0.396   4.367  1.4170 -1.3795  2.3270
  908MOL0     H19815  10.974  -0.246   4.429 -2.7245  0.7371  0.7266
  908MOL0     H19816  11.066  -0.182   4.214 -0.1630 -0.3118  0.6239
  908MOL0     H19817  10.902  -0.240   4.177  0.1925 -1.9672 -2.3125
  908MOL0     H19818  11.278  -0.478   4.119 -1.1651 -0.0626 -0.9442
  908MOL0     H19819  11.477  -0.406   4.000  1.8876  1.2707 -2.0725
  908MOL0     H19820  11.821  -0.230   4.009  4.9324 -1.1381 -0.1521
  908MOL0     H19821  12.011  -0.121   3.978 -0.4031 -2.4829  0.5295
  908MOL0     H19822  12.241  -0.062   3.879  1.1869  0.7911 -0.5254
  908MOL0     H19823  12.293   0.061   3.776  0.1480  0.0362  2.0816
  908MOL0     H19824  12.427  -0.096   3.696 -0.5227  2.2295  1.1437
  908MOL0     H19825  12.277  -0.105   3.588 -2.8821  0.0978  0.2396
  908MOL0     H19826  12.182  -0.275   3.724  1.2984  3.6951  0.7578
  908MOL0     H19827  12.338  -0.309   3.800  2.0023  1.8478  0.9634
  908MOL0     H19828  12.448  -0.351   3.591 -0.3468  1.5121 -1.0490
  908MOL0     H19829  12.322  -0.473   3.605  4.4735 -0.7487 -1.6786
  908MOL0     H19830  12.317  -0.401   3.381 -2.1549 -1.5511  1.9495
  908MOL0     H19831  12.307  -0.228   3.424 -0.7992  0.5644 -1.3218
  908MOL0     H19832  12.084  -0.280   3.533  2.8023  0.2040 -0.3257
  908MOL0     H19833  12.097  -0.455   3.483 -2.2760 -0.2860  0.2260
  908MOL0     H19834  12.066  -0.206   3.294  1.7365 -0.9239 -1.9697
  908MOL0     H19835  12.116  -0.360   3.246  2.4176  4.0161 -0.2601
  908MOL0     H19836  11.862  -0.324   3.404  3.2256  3.2886  0.2221
  908MOL0     H19837  11.906  -0.469   3.310 -1.2336 -0.4420  0.6355
  908MOL0     H19838  11.926  -0.055   3.555  2.1120  1.5536  1.8772
  908MOL0     H19839  11.691  -0.146   3.601 -4.7096 -4.2094  2.9186
  908MOL0     H19840  11.274  -0.067   3.845  1.0122  0.7634  1.0053
  908MOL0     H19841  11.086  -0.112   3.969 -0.0207  0.6004 -3.0005
  908MOL0     H19842  10.558   0.788   5.237 -1.0503 -1.9986  0.2227
  908MOL0     H19843  10.625   0.874   5.466  1.0536  0.9933  0.3963
  908MOL0     H19844  11.068   1.000   5.605  2.9968  1.1186 -0.3492
  908MOL0     H19845  11.240   1.101   5.714  0.8879  0.4369  0.0256
  908MOL0     H19846  11.467   1.175   5.997 -3.1523  4.0643 -0.6475
  908MOL0     H19847  11.365   1.200   5.857 -1.7645 -0.9626  1.6052
  908MOL0     H19848  11.534   1.029   5.745 -1.3057 -0.2086  1.2617
  908MOL0     H19849  11.587   1.196   5.770 -0.4133  1.0992 -0.7735
  908MOL0     H19850  11.620   0.973   5.974  2.7672 -0.9582  0.3091
  908MOL0     H19851  11.677   1.133   5.994 -0.2434 -0.7685  1.2445
  908MOL0     H19852  11.773   0.930   5.789 -2.4611  0.4643 -1.5538
  908MOL0     H19853  11.810   1.098   5.766  1.4405 -1.6256 -0.6580
  908MOL0     H19854  12.087   0.946   6.061  0.5849  3.4444  1.2777
  908MOL0     H19855  11.239   0.813   6.018 -0.6782 -2.6151  0.0091
  908MOL0     H19856  11.040   0.708   5.926  2.2114 -1.2500  2.0840
  909MOL0     O19857   2.847   3.858   1.924  0.4427  0.0385  0.1585
  909MOL0     C19858   2.931   3.765   1.948 -0.2241 -0.2321  0.3865
  909MOL0     O19859   2.932   3.688   2.057  0.7768 -0.2483  0.3551
  909MOL0     C19860   2.809   3.663   2.121  0.3248  0.7641 -0.1425
  909MOL0     C19861   2.785   3.681   2.256  0.5980 -0.6714 -0.8759
  909MOL0     C19862   2.658   3.647   2.312 -0.3470 -0.2422  1.1312
  909MOL0     C19863   2.560   3.584   2.232  0.3307 -0.1827 -0.1578
  909MOL0     O19864   2.447   3.543   2.292  0.4479  0.0472  0.2308
  909MOL0     C19865   2.431   3.403   2.300  0.1337  0.5101 -0.6427
  909MOL0     C19866   2.508   3.342   2.417  0.1054  0.5145 -0.2254
  909MOL0     C19867   2.446   3.338   2.557  0.5508 -0.3018 -0.1018
  909MOL0     C19868   2.535   3.278   2.660 -0.7173 -0.1597 -0.2092
  909MOL0     C19869   2.485   3.142   2.727  0.5813  0.6034 -0.5855
  909MOL0     C19870   2.341   3.140   2.789 -0.5734  0.8071  0.3047
  909MOL0     C19871   2.344   3.224   2.915  0.7876  0.1771 -0.3608
  909MOL0     C19872   2.270   3.174   3.034 -0.3047 -0.2474  0.2121
  909MOL0     N19873   2.271   3.278   3.133  0.5607  0.4594  1.2384
  909MOL0     C19874   2.178   3.387   3.128  0.5041  0.4138 -0.4348
  909MOL0     C19875   2.215   3.449   3.246  0.6136  0.6892 -0.0461
  909MOL0     C19876   2.150   3.573   3.302  0.0682 -0.0851  0.3724
  909MOL0     C19877   2.250   3.687   3.289  1.1245 -0.7031  0.3694
  909MOL0     C19878   2.367   3.661   3.384  0.7260  0.2682  0.1772
  909MOL0     C19879   2.448   3.794   3.377  0.1551 -0.6912 -0.8895
  909MOL0     O19880   2.506   3.808   3.251 -0.8464  0.1483  0.5641
  909MOL0     C19881   2.609   3.903   3.251  0.7382  1.3293 -0.5355
  909MOL0     C19882   2.576   4.040   3.231 -0.9294 -0.2882 -0.4870
  909MOL0     C19883   2.683   4.134   3.241 -0.2029 -0.5018  0.9239
  909MOL0     C19884   2.819   4.100   3.255  0.4301 -0.3285  0.3648
  909MOL0     C19885   2.929   4.201   3.236  0.9753  0.8212 -0.7204
  909MOL0     O19886   3.047   4.166   3.189 -0.1325  0.0772 -0.1469
  909MOL0     C19887   3.146   4.265   3.193 -0.2138  0.4451 -0.2931
  909MOL0     C19888   3.223   4.287   3.309  0.2322 -0.5963  0.5608
  909MOL0     C19889   3.331   4.376   3.306  0.0769 -1.0877  0.6343
  909MOL0     C19890   3.368   4.440   3.189 -0.4842 -0.5835 -0.2676
  909MOL0     O19891   3.483   4.519   3.184  0.3327 -0.4010 -0.1941
  909MOL0     C19892   3.578   4.505   3.076  0.3069 -0.4513 -0.1322
  909MOL0     C19893   3.567   4.618   2.983  0.4647 -0.5989 -0.2227
  909MOL0     C19894   3.700   4.643   2.901 -0.1442  0.3690 -0.3064
  909MOL0     C19895   3.825   4.691   2.983  0.3027  0.0668  0.3385
  909MOL0     C19896   3.931   4.764   2.898  0.4193  1.0152  0.5953
  909MOL0     C19897   4.048   4.667   2.861 -0.4093  0.4423  0.3853
  909MOL0     C19898   4.147   4.738   2.776 -1.2278 -0.7722  0.6474
  909MOL0     C19899   4.272   4.662   2.745  0.5671 -0.2218 -0.4799
  909MOL0    Cl19900   4.223   4.489   2.684  0.5883 -0.3268  0.1437
  909MOL0     C19901   3.291   4.412   3.074 -0.0247 -0.2838  0.7898
  909MOL0     C19902   3.185   4.325   3.076  0.9241 -0.2622  0.1111
  909MOL0     O19903   2.895   4.309   3.275 -0.8634  0.0414  0.5896
  909MOL0     C19904   2.847   3.966   3.271 -0.0024  0.1847 -0.2537
  909MOL0     C19905   2.745   3.870   3.265 -0.3023  0.7921 -0.5550
  909MOL0     N19906   2.309   3.369   3.321  0.2081 -0.5237 -0.4750
  909MOL0     N19907   2.347   3.275   3.247  0.0529 -0.1917  0.3859
  909MOL0     C19908   2.588   3.560   2.096 -0.9179 -0.5337  1.0568
  909MOL0     C19909   2.711   3.596   2.043 -0.7559 -0.2186  0.7627
  909MOL0     C19910   3.050   3.747   1.867  0.2848  0.1970  0.4052
  909MOL0     C19911   3.157   3.655   1.896  0.0760  0.2637  0.5977
  909MOL0     C19912   3.263   3.650   1.803 -0.1799 -0.6707 -0.9533
  909MOL0     C19913   3.267   3.739   1.697 -0.5410  1.7623 -0.4769
  909MOL0     O19914   3.380   3.735   1.614  0.0270 -0.3565  0.1811
  909MOL0     C19915   3.369   3.648   1.500 -0.6879  0.4940 -0.5151
  909MOL0     C19916   3.492   3.647   1.418 -0.3149 -0.5378  0.0197
  909MOL0     C19917   3.608   3.571   1.486 -0.0422  0.5873 -0.6412
  909MOL0     C19918   3.605   3.419   1.475  0.6039 -0.2579  0.1182
  909MOL0     C19919   3.577   3.370   1.342  0.7174  0.4714 -0.0046
  909MOL0     C19920   3.544   3.328   1.233 -1.0032 -0.4511  0.3359
  909MOL0     C19921   3.161   3.824   1.673 -0.4915 -0.0621 -0.6320
  909MOL0     C19922   3.050   3.826   1.748  1.1074 -0.3152  0.1022
  909MOL0     H19923   2.862   3.711   2.326 -0.6021  0.9516 -0.1782
  909MOL0     H19924   2.635   3.669   2.416 -3.2006  1.4732  0.2453
  909MOL0     H19925   2.447   3.345   2.208  1.0510  1.9720 -1.4372
  909MOL0     H19926   2.327   3.388   2.330  1.3112 -1.2075  3.2035
  909MOL0     H19927   2.607   3.389   2.418 -0.0039  0.8609 -2.0326
  909MOL0     H19928   2.523   3.235   2.400 -0.7495  0.2974  0.3401
  909MOL0     H19929   2.350   3.286   2.559 -0.9257  2.2572 -0.8216
  909MOL0     H19930   2.430   3.445   2.572 -0.5273  0.0985 -3.3004
  909MOL0     H19931   2.639   3.259   2.631  0.1062  4.0878 -0.6873
  909MOL0     H19932   2.558   3.358   2.731 -1.7211 -2.0083  2.3516
  909MOL0     H19933   2.557   3.108   2.802  1.6538 -2.7347 -2.8902
  909MOL0     H19934   2.478   3.071   2.645 -0.4245 -0.7907  0.6382
  909MOL0     H19935   2.308   3.039   2.813 -2.6019  0.9524 -1.5796
  909MOL0     H19936   2.268   3.173   2.714  1.1154 -2.2699 -3.0447
  909MOL0     H19937   2.444   3.261   2.942  0.6859 -0.0248  0.3139
  909MOL0     H19938   2.289   3.311   2.879  1.7630  1.0592  0.2037
  909MOL0     H19939   2.322   3.084   3.068  0.6659  0.0663 -0.3866
  909MOL0     H19940   2.171   3.141   3.002 -0.0230 -1.1101  0.1956
  909MOL0     H19941   2.095   3.418   3.065 -2.4151 -0.5284  2.6009
  909MOL0     H19942   2.119   3.565   3.406  2.4032  3.7091  1.5537
  909MOL0     H19943   2.059   3.589   3.243  0.5292 -1.6650 -0.8406
  909MOL0     H19944   2.202   3.782   3.312  1.0668  0.0606 -2.5168
  909MOL0     H19945   2.282   3.694   3.185  1.0512  2.3236  0.4740
  909MOL0     H19946   2.355   3.636   3.489  1.0303  1.1517  0.4310
  909MOL0     H19947   2.432   3.590   3.332  1.4265  1.3019 -0.4004
  909MOL0     H19948   2.520   3.784   3.458  0.5913  3.0670 -0.6727
  909MOL0     H19949   2.395   3.888   3.393  2.6902  0.4876  1.3956
  909MOL0     H19950   2.474   4.076   3.229 -0.1505  2.0856 -1.1310
  909MOL0     H19951   2.659   4.238   3.218 -0.0145 -0.5141  0.6586
  909MOL0     H19952   3.188   4.242   3.401  0.2391  0.5649  1.1445
  909MOL0     H19953   3.386   4.396   3.398  0.0279 -4.9395  1.6970
  909MOL0     H19954   3.567   4.408   3.027  2.9574 -0.6552 -0.4416
  909MOL0     H19955   3.679   4.513   3.118  1.1708  0.1502 -2.1894
  909MOL0     H19956   3.547   4.709   3.040  0.7181  0.9270 -2.4841
  909MOL0     H19957   3.483   4.615   2.914  0.6468  3.6067 -0.8853
  909MOL0     H19958   3.681   4.728   2.836 -3.0743 -0.2627 -0.4246
  909MOL0     H19959   3.732   4.562   2.835 -1.2095 -0.1487 -0.2234
  909MOL0     H19960   3.791   4.759   3.062  2.5455  0.7155  0.8242
  909MOL0     H19961   3.880   4.614   3.038  2.1625  2.2265  1.6731
  909MOL0     H19962   3.964   4.860   2.939  1.6856  0.2875  1.3522
  909MOL0     H19963   3.886   4.784   2.800 -4.7255 -4.4974  1.2803
  909MOL0     H19964   4.020   4.572   2.815  1.7639  1.0759 -2.4800
  909MOL0     H19965   4.105   4.638   2.950 -1.7503 -0.8161  0.8809
  909MOL0     H19966   4.100   4.750   2.678 -4.2408 -3.6654  1.5511
  909MOL0     H19967   4.185   4.827   2.827 -0.8978 -0.6816  0.2500
  909MOL0     H19968   4.328   4.644   2.838 -0.0822 -1.2225 -0.2671
  909MOL0     H19969   4.328   4.720   2.672  2.3095  1.7485  2.2239
  909MOL0     H19970   3.315   4.460   2.979 -1.8916  0.0217  0.4369
  909MOL0     H19971   3.127   4.312   2.985  0.9057  2.0120 -0.2707
  909MOL0     H19972   2.949   3.935   3.289 -0.0451  1.5306  2.7833
  909MOL0     H19973   2.778   3.767   3.269  1.2140  1.1813 -1.8216
  909MOL0     H19974   2.525   3.494   2.038  1.8959 -4.5732  2.2325
  909MOL0     H19975   2.728   3.568   1.939 -1.5891  2.9503 -0.3490
  909MOL0     H19976   3.158   3.602   1.991  2.9856 -1.5112 -0.2851
  909MOL0     H19977   3.347   3.585   1.825  0.4325  1.0253  2.2341
  909MOL0     H19978   3.289   3.685   1.436 -0.9928 -0.9418 -1.0018
  909MOL0     H19979   3.353   3.544   1.530  1.9848  0.1219 -0.0960
  909MOL0     H19980   3.463   3.611   1.319  3.0377 -0.3318 -1.1598
  909MOL0     H19981   3.525   3.752   1.413 -2.7685  0.3308  0.8452
  909MOL0     H19982   3.642   3.606   1.583  1.3441  1.4904 -1.4197
  909MOL0     H19983   3.699   3.584   1.427 -0.0968  3.1480 -0.2894
  909MOL0     H19984   3.703   3.376   1.498  1.3190  1.3750  0.2730
  909MOL0     H19985   3.533   3.379   1.546  2.5020 -1.3255  1.5516
  909MOL0     H19986   3.523   3.277   1.142 -0.8190 -0.2208  0.1629
  909MOL0     H19987   3.152   3.878   1.580  0.9499  3.2176  0.9806
  909MOL0     H19988   2.962   3.872   1.705  1.5628  0.5710  0.0923
  910MOL0     O19989   5.790   3.692   0.829  0.1446 -0.1221 -0.0790
  910MOL0     C19990   5.706   3.714   0.914 -0.7054 -0.1167  0.0898
  910MOL0     O19991   5.717   3.723   1.046 -0.7319  0.4239  0.0080
  910MOL0     C19992   5.847   3.745   1.094 -0.1210 -0.3769  0.4028
  910MOL0     C19993   5.929   3.640   1.082  0.0995  0.2807 -1.0807
  910MOL0     C19994   6.066   3.654   1.125  0.1792 -0.0019  0.6619
  910MOL0     C19995   6.116   3.778   1.167 -1.3355  0.3120 -0.8060
  910MOL0     O19996   6.247   3.785   1.207  0.0646  0.4505  0.3942
  910MOL0     C19997   6.269   3.804   1.348  0.4655  0.5891  1.4106
  910MOL0     C19998   6.410   3.857   1.351  1.0026  0.0842  0.4330
  910MOL0     C19999   6.435   3.932   1.478 -0.1779 -0.1787  0.8039
  910MOL0     C20000   6.582   3.940   1.515  0.7409 -0.5996 -0.2130
  910MOL0     C20001   6.648   3.801   1.554  0.4761 -0.8220  0.7723
  910MOL0     C20002   6.803   3.830   1.573  0.0563 -0.7379  0.5896
  910MOL0     C20003   6.881   3.699   1.594 -0.4850  0.6326  0.3189
  910MOL0     C20004   7.030   3.732   1.596  0.1875 -0.3548 -0.4550
  910MOL0     N20005   7.059   3.796   1.729 -0.4219 -0.1964 -0.2306
  910MOL0     C20006   7.039   3.721   1.846  0.3678  0.7412  0.0224
  910MOL0     C20007   7.027   3.816   1.945  0.1553 -1.3772 -0.5928
  910MOL0     C20008   7.026   3.787   2.090 -0.2529  0.7383  0.2672
  910MOL0     C20009   6.895   3.729   2.147 -0.2938 -0.0522  0.4537
  910MOL0     C20010   6.893   3.691   2.297 -0.3511  0.4768  0.0266
  910MOL0     C20011   6.915   3.814   2.387  1.0856 -0.0125 -0.3889
  910MOL0     O20012   6.867   3.788   2.525  0.9298  0.1327 -0.2214
  910MOL0     C20013   6.950   3.707   2.593  0.0674 -0.4611 -0.7407
  910MOL0     C20014   6.916   3.570   2.594 -1.1289 -0.0041  0.1311
  910MOL0     C20015   7.002   3.480   2.661 -0.8289 -0.4573  0.9389
  910MOL0     C20016   7.138   3.513   2.697  1.2550  0.2904  0.4808
  910MOL0     C20017   7.227   3.420   2.760 -0.6551 -0.6435 -0.4070
  910MOL0     O20018   7.208   3.287   2.735  0.3082 -0.0938 -0.5591
  910MOL0     C20019   7.290   3.195   2.787 -0.2186  0.2687  1.1150
  910MOL0     C20020   7.251   3.119   2.885 -0.3378 -0.5008 -0.4027
  910MOL0     C20021   7.331   3.018   2.937  0.6932  0.5951 -0.1892
  910MOL0     C20022   7.456   3.010   2.901 -0.1696 -0.4258 -1.0906
  910MOL0     O20023   7.527   2.922   2.978 -0.3751  0.4780 -0.2190
  910MOL0     C20024   7.648   2.854   2.925  0.3310 -0.2804  0.8059
  910MOL0     C20025   7.667   2.740   3.035  0.3998 -0.6041 -0.7381
  910MOL0     C20026   7.561   2.623   3.032 -0.1711 -0.0458 -2.0570
  910MOL0     C20027   7.569   2.547   3.168 -0.0702 -0.1239 -1.0452
  910MOL0     C20028   7.709   2.477   3.195 -0.0493  0.3234 -0.7848
  910MOL0     C20029   7.683   2.394   3.321  0.5340  0.0913 -0.2721
  910MOL0     C20030   7.757   2.270   3.302  0.1995 -0.3928 -0.0854
  910MOL0     C20031   7.696   2.153   3.220 -0.0673 -0.1814  1.2151
  910MOL0    Cl20032   7.543   2.092   3.277 -0.2891  0.1771  0.2350
  910MOL0     C20033   7.511   3.087   2.805  0.0385 -0.2017  0.5637
  910MOL0     C20034   7.417   3.172   2.736 -0.3122  1.0351  0.7587
  910MOL0     O20035   7.324   3.473   2.812 -0.1820 -0.2978  0.5827
  910MOL0     C20036   7.163   3.650   2.693 -0.0380  0.0405 -0.3346
  910MOL0     C20037   7.074   3.748   2.645  1.1177  0.2040 -0.5659
  910MOL0     N20038   7.056   3.944   1.891  0.7850  0.3173  0.2068
  910MOL0     N20039   7.079   3.927   1.761 -0.2699  0.2317  0.9323
  910MOL0     C20040   6.028   3.890   1.179  0.1960  0.3067 -0.0700
  910MOL0     C20041   5.889   3.866   1.153  0.5750  0.8735  0.1849
  910MOL0     C20042   5.569   3.709   0.869 -0.0049 -0.6601 -0.0493
  910MOL0     C20043   5.538   3.651   0.740  0.1436  0.5196 -0.2419
  910MOL0     C20044   5.404   3.630   0.704 -0.4236  1.1334  0.0286
  910MOL0     C20045   5.302   3.662   0.790  0.1697 -0.0408  0.0151
  910MOL0     O20046   5.184   3.617   0.759 -0.1422  0.4980  0.1275
  910MOL0     C20047   5.061   3.653   0.823 -0.2229 -0.0073  0.5965
  910MOL0     C20048   4.945   3.596   0.758  1.1513 -0.1720 -0.0593
  910MOL0     C20049   4.910   3.673   0.629 -0.4684  0.4258  0.5183
  910MOL0     C20050   4.785   3.605   0.573 -0.0703  0.8022  0.3338
  910MOL0     C20051   4.713   3.704   0.495 -0.1561 -0.4745 -0.4084
  910MOL0     C20052   4.647   3.798   0.441 -1.4426 -0.8302  0.1519
  910MOL0     C20053   5.329   3.726   0.913 -0.1764 -0.2856  0.2874
  910MOL0     C20054   5.463   3.754   0.948 -0.1063  0.0455 -1.2720
  910MOL0     H20055   5.894   3.545   1.042  2.5396  0.1112 -3.0688
  910MOL0     H20056   6.148   3.583   1.113  1.4097  1.2604  1.2827
  910MOL0     H20057   6.260   3.709   1.402  1.5448 -0.3450  0.0353
  910MOL0     H20058   6.200   3.877   1.391  0.7423  1.9077 -0.2769
  910MOL0     H20059   6.421   3.927   1.267  0.9448  0.5576  0.8175
  910MOL0     H20060   6.487   3.780   1.339  0.4455 -0.2192 -1.5472
  910MOL0     H20061   6.391   3.886   1.567  1.7214 -2.1652  0.8035
  910MOL0     H20062   6.386   4.030   1.467  5.9070  3.3916  0.8456
  910MOL0     H20063   6.640   3.992   1.439  2.1125  2.4540  2.6458
  910MOL0     H20064   6.586   3.997   1.609  1.7687 -2.0230  0.6542
  910MOL0     H20065   6.628   3.726   1.477  2.1090 -3.2066  2.5246
  910MOL0     H20066   6.607   3.769   1.650 -0.7570  1.5309  1.1170
  910MOL0     H20067   6.816   3.889   1.664  1.4612  0.1868 -0.1939
  910MOL0     H20068   6.842   3.888   1.489 -0.3582  0.4430  1.1876
  910MOL0     H20069   6.843   3.630   1.670  0.8992 -1.9953 -1.2130
  910MOL0     H20070   6.867   3.641   1.503 -1.4563  2.6494 -0.8735
  910MOL0     H20071   7.061   3.790   1.508 -0.0122 -0.6149 -0.6988
  910MOL0     H20072   7.088   3.640   1.595  0.9006  0.0874 -1.2102
  910MOL0     H20073   7.013   3.616   1.840 -0.4007  0.8042  1.7217
  910MOL0     H20074   7.055   3.878   2.143 -1.9691  1.1165  0.6248
  910MOL0     H20075   7.106   3.717   2.115 -0.9548 -0.1966 -0.0390
  910MOL0     H20076   6.858   3.644   2.091  0.9004 -1.6483  1.9621
  910MOL0     H20077   6.813   3.801   2.142 -0.4083  0.0745  2.8735
  910MOL0     H20078   6.790   3.660   2.314 -1.1902  3.4112  1.0008
  910MOL0     H20079   6.969   3.615   2.316 -1.8023 -0.9423  0.3184
  910MOL0     H20080   6.856   3.900   2.356  1.1027  1.4250  3.0475
  910MOL0     H20081   7.021   3.841   2.385  0.5330  2.3366 -1.1609
  910MOL0     H20082   6.818   3.538   2.559 -0.5506  1.3293 -3.0882
  910MOL0     H20083   6.968   3.379   2.682 -1.3152 -0.0923  2.0030
  910MOL0     H20084   7.148   3.133   2.917  0.4374  0.4660  1.8328
  910MOL0     H20085   7.281   2.964   3.017  1.4440  1.3728  0.8250
  910MOL0     H20086   7.739   2.914   2.916 -0.9413  1.4540 -1.5799
  910MOL0     H20087   7.630   2.811   2.826  1.7734  0.9933 -0.0500
  910MOL0     H20088   7.647   2.792   3.129 -1.6723  0.0889 -1.5028
  910MOL0     H20089   7.766   2.694   3.034  0.4630 -0.4595 -1.4982
  910MOL0     H20090   7.595   2.560   2.949  1.0054  0.3358 -1.8811
  910MOL0     H20091   7.458   2.659   3.020 -0.3309  0.4628  0.2843
  910MOL0     H20092   7.545   2.606   3.257 -1.0646  0.1207 -1.4514
  910MOL0     H20093   7.497   2.466   3.152 -1.9945  2.0225 -4.6580
  910MOL0     H20094   7.789   2.548   3.215  1.0033 -0.9999 -0.0836
  910MOL0     H20095   7.741   2.419   3.108  4.4991  1.5893 -0.1879
  910MOL0     H20096   7.576   2.373   3.334  0.6354 -0.4211 -0.2382
  910MOL0     H20097   7.730   2.455   3.399  4.1499 -1.1655 -1.2794
  910MOL0     H20098   7.848   2.297   3.248 -1.6187  1.6964 -2.3430
  910MOL0     H20099   7.782   2.240   3.404 -4.2108 -0.4808  1.2026
  910MOL0     H20100   7.776   2.079   3.223  2.5038  2.4274  1.4316
  910MOL0     H20101   7.665   2.180   3.119  0.3683  0.0409  1.1411
  910MOL0     H20102   7.613   3.091   2.767  0.3191 -0.0625  1.3057
  910MOL0     H20103   7.454   3.224   2.649 -2.5973 -1.2200 -1.7355
  910MOL0     H20104   7.263   3.681   2.723 -0.8474  2.7255 -0.1240
  910MOL0     H20105   7.087   3.856   2.649  1.6219  0.1128  1.0619
  910MOL0     H20106   6.070   3.979   1.225 -2.1426  0.8291  1.2232
  910MOL0     H20107   5.822   3.950   1.169 -0.1562  0.8879 -2.4187
  910MOL0     H20108   5.613   3.622   0.668  1.2864  1.2322  0.6227
  910MOL0     H20109   5.387   3.590   0.604 -2.2095 -0.5497  0.9500
  910MOL0     H20110   5.055   3.759   0.850 -0.9702 -0.4950  2.5574
  910MOL0     H20111   5.054   3.607   0.922 -2.0081 -0.1635  0.4163
  910MOL0     H20112   4.957   3.488   0.746  1.1549  0.0897 -3.2832
  910MOL0     H20113   4.864   3.618   0.829  0.4307 -0.8967 -0.6333
  910MOL0     H20114   4.994   3.675   0.558  0.9939  0.3253  2.1950
  910MOL0     H20115   4.883   3.775   0.659 -0.2951  0.7360 -0.3218
  910MOL0     H20116   4.816   3.512   0.526  4.8832  2.4629 -0.3020
  910MOL0     H20117   4.718   3.578   0.655  0.0184  0.7955  0.4042
  910MOL0     H20118   4.594   3.878   0.395 -2.5512 -0.8885  1.2661
  910MOL0     H20119   5.247   3.751   0.980  0.7673  0.5636  1.1654
  910MOL0     H20120   5.486   3.800   1.043 -1.0527 -3.1540  0.6723
  911MOL0     O20121   4.630   1.682   3.160 -1.1338 -0.6967  0.2195
  911MOL0     C20122   4.521   1.741   3.174 -0.0422  0.6212  0.0356
  911MOL0     O20123   4.491   1.853   3.099  0.2820  0.4155 -0.1208
  911MOL0     C20124   4.578   1.921   3.017  1.2558  0.1255 -0.3764
  911MOL0     C20125   4.708   1.956   3.055  0.4884  0.1504  0.6733
  911MOL0     C20126   4.771   2.033   2.958 -0.0591  0.2348 -0.7316
  911MOL0     C20127   4.707   2.088   2.850 -0.1339  0.0719  0.3919
  911MOL0     O20128   4.776   2.186   2.779  0.2998 -0.0868 -0.3002
  911MOL0     C20129   4.729   2.224   2.649  0.3304 -0.6895  0.9666
  911MOL0     C20130   4.839   2.308   2.595 -0.0670  0.3924  0.2716
  911MOL0     C20131   4.800   2.374   2.462 -0.2921  0.5953  0.7960
  911MOL0     C20132   4.871   2.509   2.438 -0.1874 -0.4236 -0.1580
  911MOL0     C20133   4.894   2.547   2.284 -0.1853 -0.5173 -0.7903
  911MOL0     C20134   4.753   2.547   2.226  0.1779 -0.5786  0.6367
  911MOL0     C20135   4.756   2.589   2.070  0.0709 -0.2502  0.5959
  911MOL0     C20136   4.644   2.519   1.998  1.1761 -0.5220  0.2641
  911MOL0     N20137   4.515   2.568   2.016 -0.3341 -0.7648  0.5557
  911MOL0     C20138   4.420   2.504   2.090 -0.6113 -0.3075  0.1226
  911MOL0     C20139   4.303   2.549   2.044  1.2394 -0.0838  0.4428
  911MOL0     C20140   4.166   2.511   2.083 -0.2378  0.1983 -0.3034
  911MOL0     C20141   4.091   2.427   1.977 -0.8687 -0.7431  0.0621
  911MOL0     C20142   4.151   2.288   1.960  0.6114  0.6434  0.0607
  911MOL0     C20143   4.113   2.236   1.818 -0.3169 -1.3515 -0.3107
  911MOL0     O20144   4.184   2.111   1.799  0.3143  0.4170  0.2849
  911MOL0     C20145   4.277   2.118   1.690 -0.3787 -0.4309 -0.0762
  911MOL0     C20146   4.373   2.221   1.685 -1.2639  0.1789 -0.7331
  911MOL0     C20147   4.466   2.235   1.580 -0.3377  0.3904 -0.0539
  911MOL0     C20148   4.469   2.142   1.480  0.0057  0.2352  0.5008
  911MOL0     C20149   4.560   2.161   1.358 -0.3169 -0.5438 -0.4786
  911MOL0     O20150   4.570   2.056   1.268  1.1255  0.8290  0.1975
  911MOL0     C20151   4.638   2.077   1.149 -1.3019 -0.3125 -0.8759
  911MOL0     C20152   4.575   2.037   1.032 -0.4651  0.5008  0.6282
  911MOL0     C20153   4.651   2.017   0.911 -0.8031  0.2869 -0.2987
  911MOL0     C20154   4.787   2.062   0.910 -0.2768  1.2644  0.1651
  911MOL0     O20155   4.855   2.077   0.797  0.2554 -1.2303 -0.5117
  911MOL0     C20156   4.780   2.096   0.676 -0.5402  0.5672 -0.0688
  911MOL0     C20157   4.885   2.101   0.569  0.4397  0.0040 -0.2521
  911MOL0     C20158   4.950   2.235   0.577  0.2861 -0.3459 -0.2388
  911MOL0     C20159   5.092   2.231   0.516 -0.3139  0.0509  0.8126
  911MOL0     C20160   5.088   2.240   0.364  0.1473  1.2162  0.2878
  911MOL0     C20161   5.228   2.228   0.300  0.0907 -0.2491 -0.2150
  911MOL0     C20162   5.216   2.217   0.151  1.1710 -0.7697  0.1744
  911MOL0     C20163   5.336   2.238   0.060  0.1527 -0.6063 -1.7182
  911MOL0    Cl20164   5.380   2.411   0.039 -0.1617  0.1822 -0.2523
  911MOL0     C20165   4.843   2.115   1.029  0.5989  0.5269  0.6091
  911MOL0     C20166   4.773   2.131   1.145  0.5209  0.6109  0.8726
  911MOL0     O20167   4.623   2.265   1.349 -0.5901 -0.3952 -0.3513
  911MOL0     C20168   4.380   2.032   1.479  0.7502 -0.4675 -0.3892
  911MOL0     C20169   4.288   2.022   1.585 -0.1705 -0.3434  0.4366
  911MOL0     N20170   4.329   2.655   1.956  0.4203  0.0917  0.5344
  911MOL0     N20171   4.457   2.652   1.935 -0.3549 -0.3929  0.5330
  911MOL0     C20172   4.580   2.045   2.813 -0.9323 -0.3756  1.1028
  911MOL0     C20173   4.514   1.955   2.894 -0.1004  0.0031  0.6889
  911MOL0     C20174   4.419   1.682   3.272 -0.4171  0.0494  0.6003
  911MOL0     C20175   4.456   1.590   3.376 -0.8080  0.8066 -0.1968
  911MOL0     C20176   4.370   1.552   3.476  0.1149 -0.4037  0.9683
  911MOL0     C20177   4.243   1.604   3.469  0.4024 -0.0027 -0.2863
  911MOL0     O20178   4.147   1.577   3.571  0.3856 -0.6197 -0.1467
  911MOL0     C20179   4.164   1.457   3.651 -0.2773  0.3130  0.3174
  911MOL0     C20180   4.082   1.344   3.597  0.5226 -0.3589  0.2305
  911MOL0     C20181   4.070   1.238   3.703 -0.0046 -0.0277  0.9481
  911MOL0     C20182   3.938   1.158   3.688 -0.6457 -0.2686 -0.8684
  911MOL0     C20183   3.823   1.239   3.698  1.2140 -0.4699  0.0991
  911MOL0     C20184   3.714   1.291   3.699  0.7617 -0.6300 -0.0525
  911MOL0     C20185   4.200   1.688   3.369  0.5153  0.8290  0.7627
  911MOL0     C20186   4.289   1.727   3.275 -0.0417  0.3289 -0.6212
  911MOL0     H20187   4.749   1.908   3.143 -0.0746  2.0346  2.0372
  911MOL0     H20188   4.866   2.064   3.001 -0.8086 -0.5964  1.6923
  911MOL0     H20189   4.630   2.271   2.648  1.2119  1.2939  1.8072
  911MOL0     H20190   4.713   2.141   2.580 -0.4820 -1.0795  1.6001
  911MOL0     H20191   4.934   2.254   2.583  0.3607  1.2792 -0.4293
  911MOL0     H20192   4.866   2.377   2.676 -0.2426 -0.5650  1.1779
  911MOL0     H20193   4.694   2.398   2.448  0.4792  3.0257 -1.6888
  911MOL0     H20194   4.829   2.303   2.384 -0.1653  0.4602  0.9634
  911MOL0     H20195   4.825   2.587   2.500 -1.0637 -0.2486 -1.0056
  911MOL0     H20196   4.972   2.503   2.479  1.1128 -4.3508 -3.3663
  911MOL0     H20197   4.958   2.471   2.239  2.6296  1.2550 -0.0391
  911MOL0     H20198   4.940   2.646   2.278 -3.2827  1.1384  0.5651
  911MOL0     H20199   4.682   2.610   2.279 -1.4389  0.0758 -2.0919
  911MOL0     H20200   4.715   2.445   2.236 -0.8760 -0.3058 -0.3406
  911MOL0     H20201   4.761   2.698   2.062 -0.3403 -0.1957  1.0549
  911MOL0     H20202   4.852   2.549   2.037  0.3258  2.6004 -2.6561
  911MOL0     H20203   4.636   2.414   2.030  0.5054 -0.5127  0.1526
  911MOL0     H20204   4.666   2.512   1.891  1.5481 -1.9422  0.4051
  911MOL0     H20205   4.432   2.423   2.160 -4.6092 -0.5522  0.8039
  911MOL0     H20206   4.103   2.599   2.090  0.6487  0.7005  2.8788
  911MOL0     H20207   4.153   2.462   2.180  0.9776 -1.0759 -0.7314
  911MOL0     H20208   4.099   2.476   1.879 -0.5379 -1.5118 -0.3046
  911MOL0     H20209   3.989   2.417   2.015 -0.5944 -0.9091  0.7715
  911MOL0     H20210   4.260   2.296   1.970  0.8839  0.1888 -2.0625
  911MOL0     H20211   4.119   2.207   2.025  2.8235  1.3537  2.1820
  911MOL0     H20212   4.149   2.306   1.742 -1.0540 -2.8285 -2.1167
  911MOL0     H20213   4.004   2.224   1.808 -0.4805 -3.0258  2.5712
  911MOL0     H20214   4.364   2.294   1.764 -1.9177 -0.5676 -0.0931
  911MOL0     H20215   4.530   2.323   1.570  1.4788 -0.3839  3.3357
  911MOL0     H20216   4.473   2.002   1.035  0.0952 -1.3511 -0.5068
  911MOL0     H20217   4.598   1.976   0.826 -0.7101 -3.1254  1.1108
  911MOL0     H20218   4.715   2.184   0.674 -2.1085 -0.5432  0.4940
  911MOL0     H20219   4.715   2.011   0.655  2.2134 -1.1302 -2.4547
  911MOL0     H20220   4.833   2.092   0.473  0.9539 -0.7711 -0.4645
  911MOL0     H20221   4.954   2.017   0.583 -0.9440 -0.8036  2.2327
  911MOL0     H20222   4.974   2.259   0.681  0.3014  0.2584 -0.3752
  911MOL0     H20223   4.896   2.318   0.530 -0.3680 -0.7767 -0.2687
  911MOL0     H20224   5.154   2.311   0.556  0.0878 -0.9076  2.1760
  911MOL0     H20225   5.138   2.135   0.542  0.5708  0.5171  1.0202
  911MOL0     H20226   5.022   2.324   0.338 -4.7966 -2.0996  0.6491
  911MOL0     H20227   5.038   2.147   0.335  4.6986 -0.9669 -1.5693
  911MOL0     H20228   5.278   2.134   0.326  1.7801 -0.1543 -2.7545
  911MOL0     H20229   5.293   2.311   0.329  3.1968 -1.8531 -1.9863
  911MOL0     H20230   5.176   2.119   0.124  1.6183 -0.4451 -1.8257
  911MOL0     H20231   5.146   2.294   0.115 -1.3326 -3.0104 -0.0105
  911MOL0     H20232   5.320   2.192  -0.038 -1.8254 -0.4662 -1.4843
  911MOL0     H20233   5.419   2.190   0.112 -1.7284 -1.7282  0.4110
  911MOL0     H20234   4.945   2.152   1.024  1.5873 -2.0524  0.1203
  911MOL0     H20235   4.810   2.195   1.224 -1.4499  2.3060  0.5100
  911MOL0     H20236   4.374   1.955   1.402  2.2962 -3.0224  1.8663
  911MOL0     H20237   4.226   1.932   1.585  0.0661 -0.5385 -1.4950
  911MOL0     H20238   4.524   2.074   2.724 -0.3166 -1.0488  0.4751
  911MOL0     H20239   4.413   1.930   2.863  1.4016 -2.8140 -2.5786
  911MOL0     H20240   4.555   1.546   3.367 -0.3132  2.0472 -1.1727
  911MOL0     H20241   4.414   1.494   3.557 -1.1688 -0.9583  1.2931
  911MOL0     H20242   4.122   1.482   3.748 -2.0474 -2.4212  0.3678
  911MOL0     H20243   4.260   1.419   3.687 -1.1716 -3.5569 -0.9213
  911MOL0     H20244   3.984   1.386   3.575  0.0160 -1.4757  0.2714
  911MOL0     H20245   4.133   1.315   3.504 -1.9459  3.0655 -2.4238
  911MOL0     H20246   4.051   1.292   3.795 -1.4242 -0.6748  1.0644
  911MOL0     H20247   4.161   1.177   3.707  0.7447  1.1306  1.8053
  911MOL0     H20248   3.942   1.102   3.595 -4.1204  0.9966 -1.9177
  911MOL0     H20249   3.926   1.086   3.769  0.8809  1.0887  0.6510
  911MOL0     H20250   3.618   1.339   3.703 -0.8404 -3.6125  0.2124
  911MOL0     H20251   4.097   1.720   3.369 -0.3490 -1.6812 -1.5897
  911MOL0     H20252   4.260   1.799   3.199 -3.3485  1.5347  1.6019
  912MOL0     O20253  10.333   4.035   1.842 -0.4135 -0.3497 -0.2776
  912MOL0     C20254  10.422   3.947   1.834 -0.0848  0.0681  0.4320
  912MOL0     O20255  10.414   3.822   1.894  0.0242 -0.7595 -0.0375
  912MOL0     C20256  10.297   3.796   1.960 -0.0471 -0.5798 -0.0211
  912MOL0     C20257  10.261   3.851   2.087  0.4465 -0.1245  0.1962
  912MOL0     C20258  10.151   3.804   2.157  0.1441  0.5195 -0.0602
  912MOL0     C20259  10.065   3.705   2.094 -0.2859 -0.4064  0.3200
  912MOL0     O20260   9.945   3.678   2.144  0.1154  0.8638 -0.2045
  912MOL0     C20261   9.922   3.682   2.289  0.2835 -0.1684 -0.2709
  912MOL0     C20262   9.795   3.599   2.340 -0.8309 -0.3155  0.3288
  912MOL0     C20263   9.654   3.637   2.285 -0.0660  0.7646 -0.0837
  912MOL0     C20264   9.560   3.526   2.320  0.6775 -0.2529 -0.4293
  912MOL0     C20265   9.423   3.550   2.262  0.3961  0.0565  0.7689
  912MOL0     C20266   9.329   3.419   2.266 -0.2259 -0.8935 -0.2194
  912MOL0     C20267   9.185   3.430   2.222 -0.2497 -0.3369  0.2106
  912MOL0     C20268   9.117   3.297   2.245  0.5414  0.9400  0.7770
  912MOL0     N20269   9.046   3.288   2.372 -0.5974  0.3752  0.7962
  912MOL0     C20270   8.970   3.385   2.423  0.2433  0.3618 -0.9061
  912MOL0     C20271   8.947   3.344   2.556  0.4025 -0.0475 -0.7277
  912MOL0     C20272   8.848   3.419   2.640  0.0541 -0.5909 -0.1104
  912MOL0     C20273   8.734   3.336   2.696  1.0384 -0.1920  0.2750
  912MOL0     C20274   8.666   3.249   2.579 -0.3481 -1.0973  0.1942
  912MOL0     C20275   8.594   3.123   2.626  0.2976 -0.5624  0.5171
  912MOL0     O20276   8.469   3.164   2.671  0.0056 -0.5477 -0.7670
  912MOL0     C20277   8.358   3.075   2.688  0.5743 -0.5845  0.7061
  912MOL0     C20278   8.384   2.940   2.683  0.4506 -0.0716  0.4836
  912MOL0     C20279   8.273   2.856   2.700  0.4073 -0.2638  0.0822
  912MOL0     C20280   8.142   2.896   2.732 -0.6517  0.9135 -1.1065
  912MOL0     C20281   8.035   2.794   2.738  0.4839  0.1922  0.4390
  912MOL0     O20282   8.068   2.657   2.736  0.1268  0.8416 -0.7649
  912MOL0     C20283   7.972   2.559   2.750  0.1771  0.7270 -0.2734
  912MOL0     C20284   7.986   2.458   2.845  0.5931  0.6952  0.1023
  912MOL0     C20285   7.878   2.376   2.865  0.0276  0.0610 -1.2125
  912MOL0     C20286   7.766   2.366   2.776  0.5005 -0.8167 -0.1040
  912MOL0     O20287   7.671   2.274   2.811 -0.1388 -0.6809 -0.3420
  912MOL0     C20288   7.538   2.304   2.775  0.3200  0.0967  0.6516
  912MOL0     C20289   7.450   2.265   2.896 -0.7485 -0.0254  0.1934
  912MOL0     C20290   7.299   2.278   2.873  0.7645  0.2749 -0.6847
  912MOL0     C20291   7.230   2.255   2.999 -0.9579 -0.8371 -0.0246
  912MOL0     C20292   7.078   2.251   2.990  0.6375 -0.7398 -0.3804
  912MOL0     C20293   7.013   2.386   3.004 -0.5885  0.5511 -0.0634
  912MOL0     C20294   6.978   2.428   3.156 -1.5819  0.7329  0.7358
  912MOL0     C20295   6.903   2.561   3.164 -0.3963 -0.3845 -0.0729
  912MOL0    Cl20296   7.018   2.680   3.101  0.5050  0.8919  0.1438
  912MOL0     C20297   7.758   2.464   2.674  0.2247 -0.7669 -0.4345
  912MOL0     C20298   7.866   2.553   2.655  0.3432  0.4332  0.0576
  912MOL0     O20299   7.926   2.841   2.739  0.2011  0.7903 -0.6902
  912MOL0     C20300   8.125   3.035   2.736 -0.5338  0.2566 -0.7738
  912MOL0     C20301   8.229   3.125   2.721 -0.0338  0.0880  1.1625
  912MOL0     N20302   9.027   3.236   2.587 -0.3997 -0.1307  0.0980
  912MOL0     N20303   9.088   3.203   2.475 -0.0618 -0.0300  0.5204
  912MOL0     C20304  10.093   3.657   1.973 -0.2356  0.1712 -0.4183
  912MOL0     C20305  10.212   3.696   1.912  0.4556 -0.4766  0.2714
  912MOL0     C20306  10.539   3.974   1.751 -0.0164 -0.4174 -0.1606
  912MOL0     C20307  10.629   3.876   1.719  0.2991 -0.1247  0.6348
  912MOL0     C20308  10.736   3.896   1.628  0.3104 -0.7882  0.2870
  912MOL0     C20309  10.759   4.020   1.572 -0.1015 -1.1741  0.1809
  912MOL0     O20310  10.871   4.040   1.496  0.3747  0.1822  0.3494
  912MOL0     C20311  10.871   4.135   1.386 -0.7845  0.3415 -0.0802
  912MOL0     C20312  10.918   4.074   1.253 -0.2248  0.7950 -0.0498
  912MOL0     C20313  11.067   4.077   1.226  0.0159 -0.8775 -0.2109
  912MOL0     C20314  11.097   4.017   1.091 -0.2336  0.5374 -0.4989
  912MOL0     C20315  11.176   3.906   1.112 -0.5632 -0.1050 -0.5489
  912MOL0     C20316  11.275   3.831   1.128 -0.1970 -0.1597  0.3536
  912MOL0     C20317  10.668   4.125   1.602  0.4190  0.1167  0.1580
  912MOL0     C20318  10.564   4.107   1.694  0.9897  0.7832  0.2661
  912MOL0     H20319  10.324   3.926   2.133 -0.5652  1.5358 -0.9889
  912MOL0     H20320  10.124   3.839   2.257 -2.9598 -0.5565 -0.3997
  912MOL0     H20321   9.909   3.788   2.314  0.7110 -0.5233  1.6454
  912MOL0     H20322  10.003   3.632   2.344 -1.1282 -6.2952 -2.9216
  912MOL0     H20323   9.784   3.601   2.448 -1.2593 -1.0634  0.3085
  912MOL0     H20324   9.815   3.497   2.305 -1.0736  0.7779 -3.4909
  912MOL0     H20325   9.669   3.646   2.177  2.2651  2.3014  0.3030
  912MOL0     H20326   9.629   3.733   2.331  0.8739  0.9929 -0.0389
  912MOL0     H20327   9.597   3.427   2.293  0.5756 -0.0349 -1.4158
  912MOL0     H20328   9.546   3.523   2.429 -0.2051  0.4182 -0.5072
  912MOL0     H20329   9.443   3.569   2.156 -2.4043 -1.4017 -0.1174
  912MOL0     H20330   9.371   3.639   2.301  0.3837  1.4620 -2.1730
  912MOL0     H20331   9.327   3.397   2.373  2.7588  0.5236  0.2275
  912MOL0     H20332   9.379   3.338   2.212  0.0477  0.5067 -2.1517
  912MOL0     H20333   9.145   3.509   2.286 -2.1417 -2.3268  1.6353
  912MOL0     H20334   9.172   3.474   2.123 -4.6451  4.1945  2.3314
  912MOL0     H20335   9.192   3.217   2.246 -0.6122 -0.2600 -1.3554
  912MOL0     H20336   9.060   3.271   2.155  0.1922  3.2358  0.2719
  912MOL0     H20337   8.936   3.469   2.362 -3.5905 -0.4606 -0.1633
  912MOL0     H20338   8.816   3.500   2.574  0.2949  0.9180  1.5140
  912MOL0     H20339   8.889   3.477   2.724 -2.8604  1.3259  0.1183
  912MOL0     H20340   8.663   3.402   2.748 -0.2289  0.0697 -1.6598
  912MOL0     H20341   8.784   3.276   2.772 -0.8566  0.2992  2.0067
  912MOL0     H20342   8.605   3.315   2.517  0.4696  0.9116  1.4358
  912MOL0     H20343   8.747   3.208   2.517 -1.6113 -2.5870 -0.5433
  912MOL0     H20344   8.652   3.068   2.701  1.8538  1.2377  0.7342
  912MOL0     H20345   8.574   3.047   2.550 -0.1051 -0.0965  0.1533
  912MOL0     H20346   8.469   2.899   2.630  0.3602  0.0812  0.2147
  912MOL0     H20347   8.286   2.751   2.674 -0.2770  0.5532 -4.2731
  912MOL0     H20348   8.084   2.448   2.890  0.5188  0.2293  0.1632
  912MOL0     H20349   7.884   2.303   2.945 -2.8036 -0.7618 -1.6433
  912MOL0     H20350   7.504   2.235   2.697  2.3148  1.0620 -1.1702
  912MOL0     H20351   7.518   2.406   2.740  0.0099 -0.5293 -1.1113
  912MOL0     H20352   7.486   2.328   2.978 -1.3625  2.5741 -1.4434
  912MOL0     H20353   7.472   2.159   2.915  3.4203  0.5295 -0.5632
  912MOL0     H20354   7.271   2.206   2.795 -0.6345 -0.5918  0.5630
  912MOL0     H20355   7.275   2.382   2.849 -0.7317 -0.5498 -3.0752
  912MOL0     H20356   7.262   2.158   3.040  0.2577  0.0857  1.3277
  912MOL0     H20357   7.259   2.336   3.067 -1.6562 -0.0457 -0.6512
  912MOL0     H20358   7.034   2.187   3.068 -0.3774  1.2328  0.7387
  912MOL0     H20359   7.052   2.213   2.891 -1.9923 -3.9902  1.3287
  912MOL0     H20360   6.925   2.375   2.941  0.9972 -1.0794 -2.1660
  912MOL0     H20361   7.089   2.450   2.958 -4.2354  4.4092 -1.3697
  912MOL0     H20362   6.906   2.355   3.194 -0.8792  0.5032  1.6283
  912MOL0     H20363   7.069   2.416   3.214 -0.8335  0.9818 -0.3588
  912MOL0     H20364   6.872   2.583   3.267 -0.1691 -0.1865 -0.0471
  912MOL0     H20365   6.815   2.547   3.101  0.1426 -0.1064 -0.9001
  912MOL0     H20366   7.686   2.473   2.594  1.5931 -1.5949 -1.8159
  912MOL0     H20367   7.860   2.618   2.569  0.7193 -1.7433 -1.7012
  912MOL0     H20368   8.028   3.077   2.760 -1.0468 -2.8559  3.9334
  912MOL0     H20369   8.213   3.232   2.726  1.0601  0.2901  0.6143
  912MOL0     H20370  10.026   3.591   1.919  0.3619  0.9609 -2.1895
  912MOL0     H20371  10.222   3.668   1.808 -1.1885  2.3594 -0.7672
  912MOL0     H20372  10.638   3.772   1.749  1.2866  0.2779  1.8166
  912MOL0     H20373  10.787   3.804   1.601 -0.4902 -0.6198 -2.0597
  912MOL0     H20374  10.927   4.227   1.407  1.0230  0.4311 -4.2696
  912MOL0     H20375  10.766   4.158   1.370 -1.2340 -1.1358  0.5345
  912MOL0     H20376  10.885   3.970   1.260  0.5010  0.6287  1.2704
  912MOL0     H20377  10.861   4.130   1.178 -6.1152  0.3791  3.4510
  912MOL0     H20378  11.124   4.029   1.306  2.5254  0.1836 -1.2542
  912MOL0     H20379  11.097   4.182   1.215 -4.1411  0.4064 -1.0907
  912MOL0     H20380  11.002   3.988   1.046 -1.8049  0.4902  2.5515
  912MOL0     H20381  11.139   4.085   1.017  2.0545 -2.0612 -1.7618
  912MOL0     H20382  11.362   3.771   1.143  0.4454  0.4912 -0.6103
  912MOL0     H20383  10.685   4.223   1.558  4.1843 -0.2756  0.4444
  912MOL0     H20384  10.486   4.179   1.716 -0.0436 -0.0531 -0.5732
  913MOL0     O20385   8.880   1.094   7.500  0.4038 -0.0238 -0.2437
  913MOL0     C20386   8.846   0.976   7.502  0.4235 -0.8354  0.0387
  913MOL0     O20387   8.717   0.939   7.520  0.6838 -0.7247 -0.2762
  913MOL0     C20388   8.622   1.029   7.520 -0.3701  0.0608  0.2761
  913MOL0     C20389   8.598   1.126   7.615 -0.5538 -0.6200 -0.3563
  913MOL0     C20390   8.489   1.215   7.623  0.1118 -0.1047 -0.3018
  913MOL0     C20391   8.395   1.199   7.520 -0.0447  0.1622  0.9230
  913MOL0     O20392   8.282   1.281   7.508 -0.2623 -0.5956 -0.7651
  913MOL0     C20393   8.161   1.218   7.450  0.1789 -0.8040 -0.4685
  913MOL0     C20394   8.112   1.306   7.333 -0.3289 -0.3007 -0.4272
  913MOL0     C20395   7.972   1.275   7.282 -0.3247 -0.6005 -0.1592
  913MOL0     C20396   7.869   1.303   7.382  0.0667  0.9428 -0.0309
  913MOL0     C20397   7.727   1.272   7.334 -0.0112 -0.1937  0.8293
  913MOL0     C20398   7.632   1.274   7.449 -0.1219  0.4348 -0.9493
  913MOL0     C20399   7.595   1.413   7.501  0.8241  0.1150 -0.1437
  913MOL0     C20400   7.505   1.420   7.620  0.8633  0.2802 -0.0341
  913MOL0     N20401   7.581   1.381   7.745  0.0148 -0.4268  0.2313
  913MOL0     C20402   7.576   1.255   7.816 -0.4526 -0.8832 -0.7943
  913MOL0     C20403   7.654   1.280   7.924 -0.5581  1.1327 -0.2313
  913MOL0     C20404   7.669   1.185   8.035 -0.5301  0.4100  0.1491
  913MOL0     C20405   7.632   1.242   8.175 -0.7806  0.3106  0.0551
  913MOL0     C20406   7.487   1.293   8.186 -0.1988  0.5977  0.3963
  913MOL0     C20407   7.402   1.182   8.251 -0.2313  0.6268  0.3989
  913MOL0     O20408   7.434   1.044   8.225  0.8377  0.9421  0.3991
  913MOL0     C20409   7.335   0.955   8.262 -1.2324  0.7462 -0.2981
  913MOL0     C20410   7.366   0.818   8.229 -0.2371  0.3445 -0.1643
  913MOL0     C20411   7.293   0.708   8.272 -0.8073  0.5918  0.0003
  913MOL0     C20412   7.196   0.726   8.369 -0.2731 -0.3474  0.4963
  913MOL0     C20413   7.106   0.608   8.399  0.0838 -0.7444 -0.2486
  913MOL0     O20414   7.160   0.487   8.403 -0.2795 -0.8518  0.3613
  913MOL0     C20415   7.087   0.379   8.426 -0.6210 -0.6860  0.2041
  913MOL0     C20416   6.977   0.350   8.334 -0.4514  0.6768 -0.3016
  913MOL0     C20417   6.896   0.235   8.353  0.2950 -0.8392 -0.7656
  913MOL0     C20418   6.923   0.147   8.462  0.4186 -0.3114  0.3332
  913MOL0     O20419   6.845   0.037   8.469  0.6323  0.8814 -0.3236
  913MOL0     C20420   6.707   0.063   8.475  0.6308 -1.1058 -1.0379
  913MOL0     C20421   6.646  -0.027   8.367 -0.7735 -0.7671 -0.1670
  913MOL0     C20422   6.596  -0.154   8.431 -0.3333  0.6921  0.5622
  913MOL0     C20423   6.539  -0.244   8.323 -0.2682  0.8647  0.4946
  913MOL0     C20424   6.495  -0.377   8.368 -0.2872  0.0310  0.0677
  913MOL0     C20425   6.444  -0.446   8.234  0.0948  0.8914  0.3492
  913MOL0     C20426   6.385  -0.589   8.258  0.5309 -0.1316 -0.2678
  913MOL0     C20427   6.321  -0.651   8.131 -0.9412 -0.3763 -1.0177
  913MOL0    Cl20428   6.412  -0.607   7.985 -0.3512 -0.6404 -0.2459
  913MOL0     C20429   7.031   0.166   8.543 -0.3408 -0.3912 -0.1311
  913MOL0     C20430   7.112   0.283   8.527 -0.2211 -0.0650 -0.2103
  913MOL0     O20431   7.006   0.648   8.453 -0.4807 -0.1908  0.2554
  913MOL0     C20432   7.173   0.858   8.425 -0.5829  0.3179  1.8726
  913MOL0     C20433   7.241   0.965   8.365 -0.1329 -0.3664  0.1720
  913MOL0     N20434   7.701   1.399   7.917  0.5666 -0.3057 -0.0060
  913MOL0     N20435   7.654   1.468   7.812  0.0430 -0.7952 -0.1957
  913MOL0     C20436   8.418   1.099   7.424  0.0987  0.4102 -0.1540
  913MOL0     C20437   8.533   1.022   7.413  0.5591  0.6630  0.3191
  913MOL0     C20438   8.944   0.870   7.488 -1.0241 -0.2524 -0.2592
  913MOL0     C20439   8.904   0.738   7.481  0.0175 -0.4788  0.3823
  913MOL0     C20440   8.987   0.629   7.460  0.2432  0.3796 -0.1585
  913MOL0     C20441   9.116   0.651   7.431  0.1845 -0.3345  0.0578
  913MOL0     O20442   9.207   0.554   7.407  0.0989 -0.4373 -0.9203
  913MOL0     C20443   9.179   0.419   7.462  0.3309 -0.4510  1.2259
  913MOL0     C20444   9.290   0.328   7.420 -0.6781  0.7109  0.3823
  913MOL0     C20445   9.299   0.291   7.273 -0.6309 -0.2960  0.1048
  913MOL0     C20446   9.346   0.400   7.182  0.1990  0.1426  1.0141
  913MOL0     C20447   9.489   0.445   7.217  0.5000  1.2291 -0.9385
  913MOL0     C20448   9.601   0.490   7.242 -0.2471  0.0897 -0.0956
  913MOL0     C20449   9.165   0.790   7.441 -0.7270  0.5868 -0.3909
  913MOL0     C20450   9.084   0.896   7.476  0.5280  0.1436  0.8511
  913MOL0     H20451   8.667   1.132   7.698  0.7840  1.3569 -1.5196
  913MOL0     H20452   8.486   1.296   7.694 -1.8058 -0.0780 -0.3665
  913MOL0     H20453   8.076   1.237   7.516  0.1422  1.6770 -1.1201
  913MOL0     H20454   8.165   1.110   7.436  0.5311 -1.0358  1.2102
  913MOL0     H20455   8.185   1.283   7.255  1.6212 -1.6799  1.6532
  913MOL0     H20456   8.126   1.410   7.364 -0.9769 -0.1401 -0.6549
  913MOL0     H20457   7.988   1.171   7.253 -1.9862 -1.2418  1.0452
  913MOL0     H20458   7.947   1.346   7.203  2.5682  3.2750  2.0853
  913MOL0     H20459   7.888   1.229   7.461  1.7588  0.3444 -0.9523
  913MOL0     H20460   7.882   1.407   7.416 -2.2887  1.2040  0.2349
  913MOL0     H20461   7.728   1.164   7.313  1.3342 -0.0044 -0.1880
  913MOL0     H20462   7.692   1.341   7.257  0.6567 -0.3808  0.3516
  913MOL0     H20463   7.675   1.217   7.532 -1.2228  0.7665 -0.1286
  913MOL0     H20464   7.547   1.210   7.426  0.5818 -0.7218 -0.3977
  913MOL0     H20465   7.691   1.462   7.519  0.4308  1.7043 -2.1045
  913MOL0     H20466   7.548   1.465   7.417 -0.2551 -3.0239 -1.6400
  913MOL0     H20467   7.417   1.358   7.600 -0.4686  2.3692 -0.9878
  913MOL0     H20468   7.469   1.523   7.627  1.6996  0.6375 -0.8200
  913MOL0     H20469   7.518   1.164   7.804  0.2074 -1.1687 -1.9802
  913MOL0     H20470   7.777   1.166   8.025 -0.6622  0.7957 -5.1452
  913MOL0     H20471   7.624   1.090   8.007  1.8382 -0.2546 -1.8207
  913MOL0     H20472   7.698   1.324   8.201 -0.8775  0.5940 -0.5766
  913MOL0     H20473   7.658   1.173   8.256  0.5336  1.5495  0.7176
  913MOL0     H20474   7.472   1.387   8.239 -0.1564  1.5285 -1.1862
  913MOL0     H20475   7.445   1.308   8.086 -0.8505 -0.6545  0.4588
  913MOL0     H20476   7.294   1.199   8.245 -0.3450 -0.1519  0.0664
  913MOL0     H20477   7.431   1.177   8.357 -1.0730 -0.6721  0.6045
  913MOL0     H20478   7.445   0.806   8.155 -0.9376  3.0382 -1.4764
  913MOL0     H20479   7.319   0.617   8.219  1.4174  2.4129 -2.2275
  913MOL0     H20480   6.960   0.432   8.267  0.5413  1.1347 -0.0120
  913MOL0     H20481   6.813   0.209   8.289 -1.9282  0.0822  1.5584
  913MOL0     H20482   6.669   0.165   8.463  0.4343 -0.0218  5.3730
  913MOL0     H20483   6.673   0.031   8.574  0.7177  0.1076 -0.5994
  913MOL0     H20484   6.721  -0.052   8.292  3.3595 -1.9009  3.8799
  913MOL0     H20485   6.561   0.025   8.321 -1.5106 -2.6692 -1.0837
  913MOL0     H20486   6.525  -0.127   8.511  2.8575  0.6989  3.6496
  913MOL0     H20487   6.678  -0.210   8.477 -2.2332 -0.4038  2.8520
  913MOL0     H20488   6.448  -0.192   8.292 -0.4821  0.7430  0.9235
  913MOL0     H20489   6.597  -0.253   8.231  0.5698 -2.2899  1.2311
  913MOL0     H20490   6.416  -0.367   8.443 -3.3097  2.5133 -3.1399
  913MOL0     H20491   6.590  -0.420   8.404 -1.4612  0.5653  4.4110
  913MOL0     H20492   6.532  -0.458   8.171 -2.0519 -0.9801 -2.5190
  913MOL0     H20493   6.365  -0.395   8.179 -2.5826 -0.1022  2.9523
  913MOL0     H20494   6.474  -0.645   8.289  0.3730 -0.2938 -0.1035
  913MOL0     H20495   6.312  -0.606   8.337  3.9748 -2.5608  2.7293
  913MOL0     H20496   6.227  -0.600   8.112 -2.0588 -1.5749  0.9313
  913MOL0     H20497   6.302  -0.759   8.137 -0.4612 -0.6204 -3.2303
  913MOL0     H20498   7.062   0.102   8.625  0.0177 -1.7113 -1.2482
  913MOL0     H20499   7.197   0.289   8.594  0.3762 -2.3952 -0.6582
  913MOL0     H20500   7.091   0.869   8.495 -1.6667 -0.2901  0.7496
  913MOL0     H20501   7.219   1.061   8.411 -1.1644 -0.8688  0.7565
  913MOL0     H20502   8.336   1.082   7.355  0.3902  3.8119 -1.5772
  913MOL0     H20503   8.540   0.953   7.330  2.0145  1.6257 -0.4099
  913MOL0     H20504   8.800   0.708   7.489 -0.5688 -0.9318 -5.1051
  913MOL0     H20505   8.938   0.532   7.454 -2.6366  1.7873 -1.1771
  913MOL0     H20506   9.090   0.374   7.417  1.0692  1.1633 -2.1349
  913MOL0     H20507   9.161   0.412   7.570 -1.7515 -1.7120  0.8430
  913MOL0     H20508   9.375   0.373   7.472 -2.5433  1.5282  2.9253
  913MOL0     H20509   9.278   0.232   7.471 -1.9719  0.3465 -0.5669
  913MOL0     H20510   9.198   0.267   7.239  0.0898 -1.8212 -1.1360
  913MOL0     H20511   9.364   0.205   7.255 -0.0010  0.3147 -0.6292
  913MOL0     H20512   9.341   0.371   7.077 -2.0660 -4.6616  2.1541
  913MOL0     H20513   9.273   0.481   7.191 -0.6643 -0.3731 -0.9167
  913MOL0     H20514   9.702   0.520   7.258 -0.5083  0.2442  1.4599
  913MOL0     H20515   9.272   0.805   7.434 -0.7476  0.0702 -2.6018
  913MOL0     H20516   9.125   0.995   7.488  0.7577 -0.0434  1.6625
  914MOL0     O20517   6.746   3.138   7.790  0.1117 -0.0720 -0.0620
  914MOL0     C20518   6.654   3.218   7.802 -0.0800 -0.3476  0.2180
  914MOL0     O20519   6.521   3.176   7.792 -0.9003  0.0502  0.4045
  914MOL0     C20520   6.490   3.049   7.760 -0.6309  0.1315 -1.0489
  914MOL0     C20521   6.532   2.982   7.636  0.4671 -0.2920 -0.8993
  914MOL0     C20522   6.466   2.867   7.607  0.0247 -0.2147  0.5455
  914MOL0     C20523   6.366   2.808   7.685 -1.9080  0.4994  0.2659
  914MOL0     O20524   6.301   2.694   7.658 -0.2906  0.6215  0.4402
  914MOL0     C20525   6.270   2.644   7.526 -0.0425 -0.9367 -0.0396
  914MOL0     C20526   6.137   2.575   7.530  0.7339 -0.5752 -0.0471
  914MOL0     C20527   6.118   2.459   7.633 -0.9413 -0.0547 -0.1520
  914MOL0     C20528   6.168   2.323   7.573  0.3977 -0.0673  0.0893
  914MOL0     C20529   6.170   2.213   7.684  0.9993  0.3083  0.6529
  914MOL0     C20530   6.297   2.234   7.763 -1.3308  0.7620 -0.3011
  914MOL0     C20531   6.340   2.108   7.841 -0.1693  0.0913  0.3369
  914MOL0     C20532   6.230   2.042   7.919  1.8731  0.8198 -0.4399
  914MOL0     N20533   6.301   1.943   8.005 -0.2163 -1.0237 -0.7487
  914MOL0     C20534   6.345   1.823   7.967 -0.4944  0.6922  0.4975
  914MOL0     C20535   6.456   1.797   8.055  0.7453  0.0811  0.1257
  914MOL0     C20536   6.546   1.690   8.050 -0.1033  0.2087  0.6838
  914MOL0     C20537   6.496   1.570   8.129 -0.1271  0.5909 -0.2900
  914MOL0     C20538   6.538   1.591   8.276 -0.3148  0.0936 -0.2915
  914MOL0     C20539   6.450   1.491   8.360 -0.8276 -1.1151  0.0061
  914MOL0     O20540   6.533   1.471   8.477  0.5576 -0.1050  0.3437
  914MOL0     C20541   6.564   1.561   8.575  0.6156 -0.0378 -0.0398
  914MOL0     C20542   6.516   1.698   8.590 -1.2971 -0.2211 -0.4116
  914MOL0     C20543   6.544   1.766   8.707  0.7002  0.3922 -0.8458
  914MOL0     C20544   6.631   1.712   8.807  0.0862 -0.9250 -0.3113
  914MOL0     C20545   6.658   1.781   8.932  0.1092  0.5423  0.3562
  914MOL0     O20546   6.686   1.912   8.934  0.2796  0.5099  0.0666
  914MOL0     C20547   6.696   1.966   9.061  0.1011  0.4271 -0.5906
  914MOL0     C20548   6.586   1.997   9.146  0.8029  0.5050 -0.5090
  914MOL0     C20549   6.608   2.060   9.271  0.2689 -0.1785  0.7785
  914MOL0     C20550   6.728   2.096   9.310 -0.8634  0.4568  0.3076
  914MOL0     O20551   6.756   2.146   9.429  0.0444 -0.1805 -1.0528
  914MOL0     C20552   6.698   2.270   9.472  0.4224  0.0712  0.5302
  914MOL0     C20553   6.734   2.303   9.610  0.2587 -0.4961 -0.8363
  914MOL0     C20554   6.670   2.442   9.651  0.3143 -0.9815 -0.0377
  914MOL0     C20555   6.509   2.459   9.664 -0.5644 -0.0131 -0.0141
  914MOL0     C20556   6.463   2.590   9.716  0.6958 -0.5153 -0.2536
  914MOL0     C20557   6.450   2.702   9.608 -0.2790  0.1606 -0.1997
  914MOL0     C20558   6.469   2.844   9.660 -0.5295 -0.2440 -0.5326
  914MOL0     C20559   6.365   2.897   9.759  0.3041 -0.5938 -1.0892
  914MOL0    Cl20560   6.426   2.857   9.928 -0.3077  0.3707  0.4788
  914MOL0     C20561   6.832   2.070   9.222 -0.2848  0.3175 -0.4761
  914MOL0     C20562   6.820   2.007   9.101 -0.2427  1.2209  0.4370
  914MOL0     O20563   6.653   1.706   9.029 -0.3454 -0.2508 -1.2033
  914MOL0     C20564   6.675   1.581   8.787 -0.5739 -0.4260  0.3384
  914MOL0     C20565   6.643   1.504   8.676  0.2234  0.9781 -0.2629
  914MOL0     N20566   6.462   1.905   8.143 -1.2557  0.8512 -0.3856
  914MOL0     N20567   6.378   1.990   8.102  0.0235 -1.0598  0.2174
  914MOL0     C20568   6.351   2.858   7.811 -0.3848 -0.3880 -0.3446
  914MOL0     C20569   6.400   2.987   7.847  0.5410 -0.3549  0.0409
  914MOL0     C20570   6.693   3.364   7.839  0.6516  0.3638 -0.2691
  914MOL0     C20571   6.588   3.458   7.862  0.0767 -0.0911 -0.1253
  914MOL0     C20572   6.627   3.583   7.917 -0.2028  0.1027 -0.6388
  914MOL0     C20573   6.768   3.607   7.940 -0.0763  0.6135  1.0781
  914MOL0     O20574   6.811   3.730   7.986  0.5593  0.1901  0.3720
  914MOL0     C20575   6.792   3.747   8.127 -0.9906  0.2230  0.3964
  914MOL0     C20576   6.683   3.859   8.148 -0.2800  1.7490  0.7280
  914MOL0     C20577   6.685   3.935   8.275 -1.1618  0.1361  0.4598
  914MOL0     C20578   6.566   4.035   8.282 -0.0496 -0.5397 -0.8945
  914MOL0     C20579   6.592   4.134   8.386 -0.4860  1.4746  0.3760
  914MOL0     C20580   6.612   4.218   8.467 -0.2877 -0.8926 -0.1468
  914MOL0     C20581   6.863   3.513   7.900  0.7370  0.5465 -0.1321
  914MOL0     C20582   6.824   3.394   7.852 -0.4333  0.4611 -0.3065
  914MOL0     H20583   6.599   3.023   7.561 -1.1538 -0.1217 -2.3126
  914MOL0     H20584   6.473   2.829   7.505 -1.4657 -1.7096  0.9679
  914MOL0     H20585   6.347   2.576   7.489 -0.7271  0.7259 -5.4675
  914MOL0     H20586   6.257   2.727   7.455 -1.0613 -3.0271 -2.5003
  914MOL0     H20587   6.101   2.546   7.431 -0.4022  2.0505 -0.5027
  914MOL0     H20588   6.073   2.660   7.558  3.7745  2.0825 -0.6268
  914MOL0     H20589   6.011   2.446   7.656 -0.5789  2.0848  3.4521
  914MOL0     H20590   6.167   2.489   7.726  1.1822  2.0499 -1.8528
  914MOL0     H20591   6.101   2.291   7.492  0.0663 -1.1757  0.7717
  914MOL0     H20592   6.266   2.333   7.526 -0.1706 -0.5931 -1.2662
  914MOL0     H20593   6.165   2.115   7.636  0.4014  0.5632  0.1819
  914MOL0     H20594   6.080   2.221   7.746  0.4998  4.3584 -0.3044
  914MOL0     H20595   6.296   2.319   7.832 -4.0374  1.2114 -0.7656
  914MOL0     H20596   6.374   2.243   7.686  0.5670 -2.7648  0.9833
  914MOL0     H20597   6.367   2.034   7.765 -3.4421 -0.1717 -0.7145
  914MOL0     H20598   6.424   2.137   7.905  1.3325  2.7437 -2.5275
  914MOL0     H20599   6.165   1.985   7.853  2.0771  1.0505 -0.8404
  914MOL0     H20600   6.167   2.117   7.969 -1.8609  1.3485 -5.2648
  914MOL0     H20601   6.321   1.762   7.880 -2.3620  0.9636  0.7736
  914MOL0     H20602   6.647   1.727   8.070  0.0849  0.0839  0.0065
  914MOL0     H20603   6.562   1.665   7.945 -2.0718 -0.1007  0.4270
  914MOL0     H20604   6.538   1.477   8.088  2.0700  1.5903 -0.4546
  914MOL0     H20605   6.387   1.573   8.130 -0.1265  0.7586  1.1769
  914MOL0     H20606   6.645   1.568   8.282 -1.1655 -4.3118  0.9240
  914MOL0     H20607   6.516   1.695   8.301  2.1031  0.8018 -0.8173
  914MOL0     H20608   6.442   1.393   8.313 -2.8746 -1.6471  1.3575
  914MOL0     H20609   6.351   1.534   8.377 -1.8425 -2.9312 -0.9843
  914MOL0     H20610   6.467   1.767   8.522  2.1994  3.5892  0.4859
  914MOL0     H20611   6.491   1.859   8.721 -1.6224 -0.7239 -1.6857
  914MOL0     H20612   6.493   1.945   9.124  0.7135 -1.1470  3.1110
  914MOL0     H20613   6.536   2.074   9.351 -2.1681 -0.8033 -1.1677
  914MOL0     H20614   6.589   2.272   9.469  0.1371 -1.2750  4.7270
  914MOL0     H20615   6.735   2.352   9.409  0.9462 -1.6745 -1.5622
  914MOL0     H20616   6.843   2.301   9.611  0.2908  0.3419  0.2576
  914MOL0     H20617   6.689   2.220   9.666 -1.6302  0.5225 -0.7444
  914MOL0     H20618   6.705   2.522   9.585  1.9427  0.0426  1.9480
  914MOL0     H20619   6.710   2.478   9.746 -1.7382  2.0321 -0.1882
  914MOL0     H20620   6.470   2.443   9.563 -0.1319 -2.5758  0.1533
  914MOL0     H20621   6.467   2.388   9.736 -2.5550  2.2190  1.2007
  914MOL0     H20622   6.524   2.619   9.802  1.1531 -2.1996  0.0318
  914MOL0     H20623   6.363   2.579   9.761  2.2299 -0.2813  3.5795
  914MOL0     H20624   6.348   2.697   9.568 -0.2576  1.8791 -0.5651
  914MOL0     H20625   6.518   2.684   9.524  0.1118 -0.3747  0.2258
  914MOL0     H20626   6.567   2.854   9.707  0.0014 -1.7613 -1.2527
  914MOL0     H20627   6.470   2.913   9.575  1.1434  1.9142  1.1170
  914MOL0     H20628   6.273   2.844   9.736 -1.1766  1.4539 -0.1727
  914MOL0     H20629   6.344   3.004   9.757  4.2942  0.4521  1.0000
  914MOL0     H20630   6.932   2.089   9.259  0.1771 -2.7299  0.1108
  914MOL0     H20631   6.904   1.979   9.039 -0.2956 -0.4760  1.0856
  914MOL0     H20632   6.732   1.529   8.864  1.6872  0.6012 -0.5473
  914MOL0     H20633   6.678   1.402   8.687  3.1337  2.1112  2.4965
  914MOL0     H20634   6.275   2.813   7.873 -1.3133 -1.3284 -2.0645
  914MOL0     H20635   6.363   3.039   7.935  0.2182  2.8462 -1.8174
  914MOL0     H20636   6.486   3.431   7.836 -0.7833  0.1302  2.7120
  914MOL0     H20637   6.555   3.664   7.925  1.6975  1.6887  2.1317
  914MOL0     H20638   6.882   3.773   8.182 -0.3836  1.0724 -0.9596
  914MOL0     H20639   6.748   3.662   8.181 -0.4900  0.2782  0.9038
  914MOL0     H20640   6.673   3.924   8.061  1.2872  0.8975 -0.1336
  914MOL0     H20641   6.594   3.796   8.146  0.8545  0.0976 -0.4222
  914MOL0     H20642   6.774   3.998   8.271  0.8170 -2.5042 -0.3634
  914MOL0     H20643   6.697   3.868   8.360 -1.5114 -0.4328  0.0737
  914MOL0     H20644   6.561   4.096   8.192 -1.9859  0.0852 -0.4108
  914MOL0     H20645   6.472   3.983   8.301 -1.0233  1.4823  0.1651
  914MOL0     H20646   6.600   4.311   8.518  1.5908 -0.7309  0.0527
  914MOL0     H20647   6.966   3.548   7.903  1.6113 -1.9086  0.6602
  914MOL0     H20648   6.897   3.317   7.830 -0.6400  0.0700  0.3575
  915MOL0     O20649   7.282   4.773   8.492  0.1522  0.5904 -0.5801
  915MOL0     C20650   7.386   4.831   8.472 -0.2454 -0.4841 -0.3280
  915MOL0     O20651   7.426   4.854   8.348  0.3214 -0.4139 -0.5839
  915MOL0     C20652   7.330   4.912   8.268 -0.0890  0.7298 -1.2778
  915MOL0     C20653   7.295   5.047   8.295 -0.3850 -1.0376  1.3619
  915MOL0     C20654   7.231   5.124   8.204  0.5918  0.8145  0.8706
  915MOL0     C20655   7.175   5.065   8.090 -0.2010  0.0621 -0.1970
  915MOL0     O20656   7.108   5.145   8.006 -0.0990 -0.5679  0.1809
  915MOL0     C20657   7.134   5.145   7.867 -0.0479  0.7334 -0.1567
  915MOL0     C20658   7.076   5.261   7.796 -0.4747 -0.4126  1.5002
  915MOL0     C20659   6.938   5.226   7.746 -0.1346 -0.9225 -0.3375
  915MOL0     C20660   6.824   5.263   7.852 -0.6093  0.2723 -0.2812
  915MOL0     C20661   6.681   5.289   7.785 -0.3101  0.8882 -0.4787
  915MOL0     C20662   6.670   5.416   7.698  0.0226 -0.1571 -0.0916
  915MOL0     C20663   6.526   5.451   7.658  0.6507  0.2808  0.0504
  915MOL0     C20664   6.502   5.603   7.633 -0.0919  1.0728  0.2742
  915MOL0     N20665   6.374   5.608   7.570  0.5265 -0.8376  1.6748
  915MOL0     C20666   6.251   5.629   7.637 -0.4297 -0.5356  0.4635
  915MOL0     C20667   6.168   5.610   7.536  0.2941  0.8866  0.9774
  915MOL0     C20668   6.021   5.585   7.566 -0.1258  0.3473 -0.6605
  915MOL0     C20669   6.004   5.461   7.652  0.5230  0.2271  0.3325
  915MOL0     C20670   5.852   5.430   7.671  1.0870  0.8586  0.3487
  915MOL0     C20671   5.769   5.509   7.779 -0.0825 -0.2852  0.2198
  915MOL0     O20672   5.758   5.659   7.765 -0.4195  0.4818  0.0021
  915MOL0     C20673   5.756   5.727   7.886  0.6406  0.9810  0.5298
  915MOL0     C20674   5.628   5.736   7.936 -0.6518  1.0226 -0.4000
  915MOL0     C20675   5.600   5.807   8.044 -0.0435 -0.2110 -0.3850
  915MOL0     C20676   5.701   5.899   8.100  0.9330  1.0726  0.0031
  915MOL0     C20677   5.676   6.004   8.198 -0.1665  0.1970  0.9881
  915MOL0     O20678   5.779   6.109   8.195  0.4171  0.6144 -0.4014
  915MOL0     C20679   5.763   6.215   8.282  0.4024  0.9102  0.4819
  915MOL0     C20680   5.743   6.348   8.242 -0.1262  0.4709 -0.2339
  915MOL0     C20681   5.720   6.444   8.343 -0.0830  0.2712  0.3895
  915MOL0     C20682   5.727   6.409   8.479 -0.1294  0.4006 -0.1914
  915MOL0     O20683   5.707   6.505   8.574 -0.0368 -0.0551 -0.1801
  915MOL0     C20684   5.810   6.510   8.678  0.3539  0.3323 -0.2858
  915MOL0     C20685   5.802   6.632   8.766  0.1537 -0.3497 -0.5892
  915MOL0     C20686   5.686   6.616   8.865 -0.0284 -0.0129  0.8912
  915MOL0     C20687   5.737   6.671   8.994 -1.4462 -0.0195  0.5435
  915MOL0     C20688   5.625   6.678   9.098 -0.7530  0.3688  0.7975
  915MOL0     C20689   5.643   6.765   9.222  0.2148 -0.3532 -0.2335
  915MOL0     C20690   5.498   6.756   9.290 -0.8937 -0.2833 -0.7432
  915MOL0     C20691   5.492   6.827   9.420 -0.3881  0.5151  0.9885
  915MOL0    Cl20692   5.457   7.013   9.402  0.4184  0.2852 -0.2041
  915MOL0     C20693   5.749   6.277   8.517 -0.4163  0.5028  0.6181
  915MOL0     C20694   5.771   6.178   8.419  0.1046 -1.0131  0.9606
  915MOL0     O20695   5.583   5.994   8.276  0.2667 -0.2958 -0.0534
  915MOL0     C20696   5.833   5.892   8.046  0.6127  0.1258 -0.3775
  915MOL0     C20697   5.865   5.796   7.947  0.2433  0.0847  0.4938
  915MOL0     N20698   6.226   5.591   7.418  0.0091 -1.2034 -0.5617
  915MOL0     N20699   6.355   5.594   7.429 -0.4724 -0.3139 -0.6466
  915MOL0     C20700   7.176   4.923   8.072  0.2500 -0.1752  0.1424
  915MOL0     C20701   7.266   4.854   8.157 -0.4538  0.6402  0.5660
  915MOL0     C20702   7.484   4.864   8.583 -0.0550 -0.0822  0.6249
  915MOL0     C20703   7.456   4.881   8.723  0.8962  0.8482  0.9128
  915MOL0     C20704   7.560   4.930   8.809  0.6337  0.8534  0.1750
  915MOL0     C20705   7.679   4.975   8.754  0.7046 -1.4239  0.2740
  915MOL0     O20706   7.758   5.051   8.842  0.4015  0.2255  0.4312
  915MOL0     C20707   7.889   5.086   8.788  0.9729  0.5416  0.4356
  915MOL0     C20708   7.985   5.153   8.878  0.3913 -0.1530 -0.9187
  915MOL0     C20709   8.004   5.305   8.870  0.5187 -0.5912  0.3380
  915MOL0     C20710   8.132   5.349   8.798 -0.5501 -0.5437  0.7176
  915MOL0     C20711   8.148   5.346   8.648  0.0330 -0.0370  1.2296
  915MOL0     C20712   8.143   5.367   8.526  0.0643 -0.1898 -0.7602
  915MOL0     C20713   7.707   4.944   8.621 -0.5321  0.2644 -0.4395
  915MOL0     C20714   7.616   4.887   8.540 -0.3406  0.7576  0.5843
  915MOL0     H20715   7.326   5.103   8.382 -2.4353  1.6484  0.5112
  915MOL0     H20716   7.205   5.227   8.225 -1.7027  0.2001  1.3361
  915MOL0     H20717   7.105   5.053   7.817  1.5748  0.5888 -0.8983
  915MOL0     H20718   7.243   5.151   7.853 -0.1707  3.1351 -0.5084
  915MOL0     H20719   7.140   5.274   7.708 -1.7639 -3.3189 -0.0168
  915MOL0     H20720   7.075   5.350   7.859  1.1470  2.6639 -2.3684
  915MOL0     H20721   6.926   5.119   7.725  0.6097 -0.6442 -2.3457
  915MOL0     H20722   6.941   5.280   7.651  5.1922  1.5967  0.8806
  915MOL0     H20723   6.814   5.183   7.927 -2.1976  2.7121  2.2973
  915MOL0     H20724   6.866   5.351   7.901  3.2820 -0.5916 -1.6818
  915MOL0     H20725   6.604   5.294   7.863 -0.6263  0.2561 -0.7431
  915MOL0     H20726   6.659   5.201   7.724 -2.2838 -1.3567  3.0813
  915MOL0     H20727   6.737   5.411   7.613  1.1404 -0.3950  0.7769
  915MOL0     H20728   6.704   5.492   7.769 -1.2280  1.1781 -0.8670
  915MOL0     H20729   6.488   5.394   7.573 -1.7990 -3.8167  3.4896
  915MOL0     H20730   6.453   5.416   7.732  0.4907 -2.6296 -1.3528
  915MOL0     H20731   6.580   5.639   7.565 -1.2822  2.6080 -0.3318
  915MOL0     H20732   6.507   5.659   7.727  2.6632 -2.8196  2.7434
  915MOL0     H20733   6.222   5.643   7.740 -0.3402 -2.5498  0.7990
  915MOL0     H20734   5.955   5.576   7.479 -3.1386 -2.0208  1.6595
  915MOL0     H20735   5.978   5.671   7.617  1.4818  0.8622 -0.1304
  915MOL0     H20736   6.057   5.466   7.748 -0.1258 -0.2823  0.7287
  915MOL0     H20737   6.046   5.378   7.596 -2.2578  0.9298 -3.1546
  915MOL0     H20738   5.794   5.422   7.579 -0.7811  1.8906  1.3877
  915MOL0     H20739   5.857   5.329   7.712  1.0301  1.1163  1.0051
  915MOL0     H20740   5.811   5.479   7.875  0.9642  0.2395 -0.0615
  915MOL0     H20741   5.665   5.476   7.770 -0.4466  1.2853 -2.2505
  915MOL0     H20742   5.551   5.675   7.888 -0.0829 -0.2916  0.2941
  915MOL0     H20743   5.501   5.820   8.087  0.3020  0.1513  0.3201
  915MOL0     H20744   5.756   6.367   8.135  0.5207 -2.7058 -0.8188
  915MOL0     H20745   5.705   6.548   8.314  0.7928  0.5849  0.9993
  915MOL0     H20746   5.909   6.501   8.631  1.7885 -0.2444  2.6150
  915MOL0     H20747   5.807   6.418   8.737  0.3766  1.0578  0.8657
  915MOL0     H20748   5.779   6.718   8.703  3.2226  1.6187  0.7222
  915MOL0     H20749   5.899   6.664   8.806 -0.0392  0.0206 -0.4123
  915MOL0     H20750   5.655   6.511   8.864 -0.0269 -0.0601 -1.6416
  915MOL0     H20751   5.593   6.669   8.841 -0.1866  1.1880  3.6975
  915MOL0     H20752   5.821   6.614   9.035 -1.6002  0.5764  1.7658
  915MOL0     H20753   5.781   6.770   8.982  0.9426 -1.3990 -4.5064
  915MOL0     H20754   5.583   6.579   9.119 -2.3335  0.7380 -0.3704
  915MOL0     H20755   5.545   6.729   9.043  0.9922  0.4981 -1.8022
  915MOL0     H20756   5.681   6.862   9.188  1.0167 -0.9579 -1.1198
  915MOL0     H20757   5.718   6.727   9.292  0.1820 -0.2531 -0.1441
  915MOL0     H20758   5.436   6.812   9.219  2.5400  1.6115 -2.4898
  915MOL0     H20759   5.467   6.654   9.316 -3.2885  0.8632  1.3829
  915MOL0     H20760   5.588   6.795   9.462  0.4359 -2.3421 -2.6039
  915MOL0     H20761   5.417   6.792   9.491 -0.0912  3.8925  3.2315
  915MOL0     H20762   5.755   6.254   8.623 -0.8416  2.1864  1.0447
  915MOL0     H20763   5.801   6.081   8.456 -1.1028 -1.5333  0.6288
  915MOL0     H20764   5.911   5.958   8.084  0.0636  0.2801  0.5167
  915MOL0     H20765   5.959   5.790   7.894  0.1281  3.0969 -0.2162
  915MOL0     H20766   7.127   4.880   7.986 -0.1167  1.0233 -0.2710
  915MOL0     H20767   7.284   4.752   8.122  0.6223  1.7322 -2.4041
  915MOL0     H20768   7.363   4.854   8.773  1.3758  1.1526  1.9783
  915MOL0     H20769   7.547   4.943   8.916 -0.3168 -2.6960  0.6151
  915MOL0     H20770   7.862   5.167   8.719 -1.2181  1.5257  2.2639
  915MOL0     H20771   7.938   5.004   8.736  3.2621  0.1457  3.0228
  915MOL0     H20772   7.971   5.124   8.983 -1.6265 -3.4075 -1.9274
  915MOL0     H20773   8.084   5.111   8.864  0.3403  0.1601 -2.3172
  915MOL0     H20774   8.014   5.338   8.974  0.3653  1.4756 -0.2624
  915MOL0     H20775   7.912   5.353   8.835  0.2074 -0.5263  1.2212
  915MOL0     H20776   8.148   5.454   8.821  0.0559  0.0305 -2.0531
  915MOL0     H20777   8.219   5.296   8.839  1.1094  1.1530 -0.5088
  915MOL0     H20778   8.158   5.412   8.429 -2.3614  7.0797  1.5553
  915MOL0     H20779   7.804   4.964   8.576  0.3626  0.7185  1.5883
  915MOL0     H20780   7.650   4.858   8.441  0.0574  1.5587  0.4779
  916MOL0     O20781   8.189  11.211   2.366 -0.3257 -0.5276 -0.1923
  916MOL0     C20782   8.249  11.273   2.451  0.2897  0.1181  0.1091
  916MOL0     O20783   8.278  11.219   2.577 -0.2273 -0.4934 -1.1174
  916MOL0     C20784   8.227  11.098   2.615 -0.1407  1.2077 -0.6832
  916MOL0     C20785   8.117  11.082   2.696  0.7410  0.2696  0.0340
  916MOL0     C20786   8.074  10.954   2.737  0.5189 -0.4180  0.6027
  916MOL0     C20787   8.127  10.844   2.679 -0.5881  1.2873 -1.3788
  916MOL0     O20788   8.089  10.715   2.715  0.1064 -0.4579  0.7884
  916MOL0     C20789   7.993  10.703   2.823 -0.4103 -0.4164  0.4726
  916MOL0     C20790   7.956  10.548   2.829 -0.0093 -0.0190 -0.4456
  916MOL0     C20791   7.853  10.540   2.941  0.3919 -0.3599 -0.0353
  916MOL0     C20792   7.822  10.400   2.960  0.0524  0.5773  0.3004
  916MOL0     C20793   7.724  10.371   3.075 -0.4743 -0.1034 -0.5984
  916MOL0     C20794   7.678  10.224   3.079 -0.8378 -0.3793 -0.9438
  916MOL0     C20795   7.772  10.112   3.105  0.6079  0.6035 -0.2971
  916MOL0     C20796   7.697   9.981   3.062 -0.2152 -0.6808  1.0647
  916MOL0     N20797   7.797   9.882   3.035 -0.7361 -0.4858  0.1991
  916MOL0     C20798   7.873   9.867   2.919 -0.3853  0.3507  0.5873
  916MOL0     C20799   7.950   9.755   2.920  0.1452 -0.1642 -0.4234
  916MOL0     C20800   8.050   9.698   2.832  0.1471  0.0469 -0.6205
  916MOL0     C20801   7.971   9.634   2.716 -0.4997  0.3400 -0.0849
  916MOL0     C20802   8.069   9.585   2.602 -0.4897  0.5560  0.6699
  916MOL0     C20803   8.141   9.462   2.632  0.0106 -0.1292  0.0593
  916MOL0     O20804   8.076   9.383   2.723  0.3575  0.0549  0.7499
  916MOL0     C20805   8.156   9.287   2.774  0.9494 -0.3850  0.1644
  916MOL0     C20806   8.227   9.308   2.893 -0.4852  0.6168 -1.0514
  916MOL0     C20807   8.341   9.223   2.912 -1.2005 -0.1629  1.2267
  916MOL0     C20808   8.355   9.100   2.834  0.4462  0.0695 -1.0937
  916MOL0     C20809   8.463   9.014   2.875 -0.0911 -0.3842  0.2086
  916MOL0     O20810   8.479   8.907   2.794  0.1192 -0.4876 -0.1342
  916MOL0     C20811   8.554   8.801   2.816 -0.5239 -0.3053 -0.1306
  916MOL0     C20812   8.560   8.697   2.715 -0.6704  0.0556 -0.6535
  916MOL0     C20813   8.641   8.581   2.727  1.0824 -0.2358 -0.7905
  916MOL0     C20814   8.712   8.564   2.840 -0.0737  0.8217 -0.2564
  916MOL0     O20815   8.766   8.433   2.854  0.0240  0.8780  0.3327
  916MOL0     C20816   8.896   8.416   2.917  0.2145 -0.9090  0.8579
  916MOL0     C20817   8.961   8.282   2.875  0.7906  0.2481 -0.4870
  916MOL0     C20818   8.892   8.153   2.918  0.2749 -0.8673  0.0226
  916MOL0     C20819   8.900   8.132   3.067 -0.1997 -0.4721  0.4135
  916MOL0     C20820   8.875   7.979   3.093 -0.4888 -0.6748  0.5613
  916MOL0     C20821   8.883   7.948   3.241 -0.3201 -0.2227  0.2421
  916MOL0     C20822   9.025   7.965   3.286 -0.5876 -0.8638  0.5081
  916MOL0     C20823   9.025   8.015   3.429  0.9880  0.2043  0.2984
  916MOL0    Cl20824   9.196   8.037   3.492 -0.1078  0.3168 -0.0919
  916MOL0     C20825   8.702   8.660   2.945  1.0595 -1.3875  0.6806
  916MOL0     C20826   8.624   8.773   2.931  0.3562  0.0886  0.8229
  916MOL0     O20827   8.534   9.048   2.966 -0.8494 -0.3453 -0.1707
  916MOL0     C20828   8.271   9.071   2.723  0.3057  0.4573  1.3552
  916MOL0     C20829   8.185   9.171   2.689 -0.6332  0.2183  0.2528
  916MOL0     N20830   7.899   9.696   3.047 -0.1993  0.1821  0.0569
  916MOL0     N20831   7.808   9.767   3.098  0.3896 -0.1368 -0.2501
  916MOL0     C20832   8.235  10.847   2.589  0.1531 -0.5590 -0.8361
  916MOL0     C20833   8.285  10.982   2.560 -0.3870 -0.2161 -0.0107
  916MOL0     C20834   8.313  11.395   2.411  0.6726 -0.1404 -0.5959
  916MOL0     C20835   8.257  11.489   2.321 -0.0447  0.9321 -0.0688
  916MOL0     C20836   8.338  11.601   2.290  1.2989 -1.1748 -0.5121
  916MOL0     C20837   8.471  11.613   2.328 -0.1221 -0.0258  0.0277
  916MOL0     O20838   8.537  11.732   2.294  0.3139  0.0284 -0.7144
  916MOL0     C20839   8.673  11.709   2.251 -0.1932  0.0512 -0.7800
  916MOL0     C20840   8.718  11.822   2.150 -0.7732  1.0787  0.5760
  916MOL0     C20841   8.681  11.960   2.197 -0.4695  0.0578 -0.4716
  916MOL0     C20842   8.746  12.068   2.111  0.0144  0.5194  0.4495
  916MOL0     C20843   8.697  12.209   2.133 -0.0773 -1.0097  0.5263
  916MOL0     C20844   8.663  12.326   2.147 -0.2495 -0.6575 -0.4981
  916MOL0     C20845   8.528  11.509   2.399  0.1008  0.2221  0.5969
  916MOL0     C20846   8.447  11.408   2.450 -0.3580 -0.4898 -0.3649
  916MOL0     H20847   8.073  11.172   2.738 -1.8212 -0.8495 -0.0254
  916MOL0     H20848   8.011  10.952   2.825 -3.5449  2.4856 -1.8885
  916MOL0     H20849   7.902  10.762   2.814 -0.1810 -0.3639 -2.9192
  916MOL0     H20850   8.044  10.725   2.917  1.0916 -0.3424 -0.3218
  916MOL0     H20851   8.051  10.500   2.851  0.1557 -0.2712 -1.6464
  916MOL0     H20852   7.900  10.520   2.739  1.0544  0.9658 -1.4497
  916MOL0     H20853   7.773  10.607   2.910  2.6225  1.3414 -2.6299
  916MOL0     H20854   7.887  10.574   3.039  2.5934  1.8744 -1.4443
  916MOL0     H20855   7.785  10.366   2.863  0.3098 -1.8323  0.9666
  916MOL0     H20856   7.915  10.344   2.974  0.9037  2.1277  1.1335
  916MOL0     H20857   7.635  10.434   3.073  0.9442  2.1422  1.1995
  916MOL0     H20858   7.750  10.411   3.174 -3.7500  0.6890  0.0617
  916MOL0     H20859   7.631  10.211   2.981 -4.2414 -1.0043  0.6400
  916MOL0     H20860   7.604  10.220   3.160 -0.8963  0.4694 -0.9489
  916MOL0     H20861   7.863  10.129   3.048  1.4910  0.3624  0.9932
  916MOL0     H20862   7.791  10.110   3.213 -0.4275 -3.4453 -0.0004
  916MOL0     H20863   7.652  10.007   2.966 -4.4018  1.3849  3.2893
  916MOL0     H20864   7.614   9.945   3.124 -0.4225  0.7016  1.6341
  916MOL0     H20865   7.868   9.925   2.827  0.1919 -1.5544 -0.6804
  916MOL0     H20866   8.103   9.621   2.888 -0.0030  0.6108  0.3061
  916MOL0     H20867   8.126   9.771   2.805  2.1125  0.1438  4.2601
  916MOL0     H20868   7.908   9.702   2.658 -1.3952 -2.9716 -3.3970
  916MOL0     H20869   7.895   9.562   2.745  0.9533 -0.8319  0.9961
  916MOL0     H20870   8.024   9.575   2.503  1.9048  0.4679 -0.4888
  916MOL0     H20871   8.136   9.669   2.580  0.1740 -0.1701 -0.2045
  916MOL0     H20872   8.241   9.477   2.673 -0.6151 -0.4289  1.7477
  916MOL0     H20873   8.153   9.408   2.538 -0.2595 -2.0637  1.0985
  916MOL0     H20874   8.214   9.395   2.957 -0.4028  0.5111 -0.8927
  916MOL0     H20875   8.413   9.254   2.987  1.8174 -1.2479 -1.0035
  916MOL0     H20876   8.495   8.719   2.631  0.7818  2.1124 -1.2933
  916MOL0     H20877   8.635   8.512   2.644  0.9519 -1.2489  0.0483
  916MOL0     H20878   8.897   8.419   3.026 -0.9697  2.0053  0.8716
  916MOL0     H20879   8.969   8.492   2.888  0.0645 -1.0863 -0.0015
  916MOL0     H20880   9.058   8.276   2.926  1.3204 -1.6154 -1.6339
  916MOL0     H20881   8.994   8.290   2.771  1.8333  4.6132 -0.0158
  916MOL0     H20882   8.952   8.080   2.863 -2.8198 -1.1011 -3.4127
  916MOL0     H20883   8.788   8.145   2.883  0.2585 -3.6644  0.4745
  916MOL0     H20884   8.991   8.168   3.116  0.2355 -2.5040  1.1931
  916MOL0     H20885   8.810   8.183   3.103  0.1632  0.5506 -0.0990
  916MOL0     H20886   8.946   7.914   3.042  4.2807  4.5990 -0.5746
  916MOL0     H20887   8.774   7.957   3.057  0.1136  1.3163 -2.8960
  916MOL0     H20888   8.856   7.845   3.269 -2.0287 -1.1128 -3.8792
  916MOL0     H20889   8.817   8.022   3.287 -0.0281 -0.2445  0.6955
  916MOL0     H20890   9.081   7.873   3.266  0.8571  0.2872 -1.0160
  916MOL0     H20891   9.082   8.041   3.231 -0.1014 -0.0508  2.0790
  916MOL0     H20892   8.968   7.947   3.494  1.0199 -0.0720  0.0423
  916MOL0     H20893   8.983   8.115   3.442 -0.0044  0.4251 -3.4647
  916MOL0     H20894   8.750   8.636   3.039 -0.1465 -0.0437  1.6885
  916MOL0     H20895   8.620   8.831   3.023  3.7414  0.6519  0.7459
  916MOL0     H20896   8.291   8.991   2.652  0.1975  2.2096 -0.7726
  916MOL0     H20897   8.119   9.158   2.604  0.8776 -0.2593 -0.8779
  916MOL0     H20898   8.289  10.759   2.555 -0.0853 -0.4876 -1.4170
  916MOL0     H20899   8.372  10.986   2.495 -1.3412 -0.9927 -1.4085
  916MOL0     H20900   8.163  11.466   2.273 -0.3362  1.7167  0.1042
  916MOL0     H20901   8.297  11.673   2.219 -0.1390 -0.7493  0.6982
  916MOL0     H20902   8.687  11.617   2.193 -2.0184  0.7727 -2.4866
  916MOL0     H20903   8.741  11.710   2.336 -1.4861  1.1950  0.2911
  916MOL0     H20904   8.824  11.804   2.127 -1.9076 -0.5953 -4.4629
  916MOL0     H20905   8.670  11.813   2.053  1.9058 -0.3113 -0.7445
  916MOL0     H20906   8.711  11.980   2.300  1.2974  1.5903 -1.2316
  916MOL0     H20907   8.572  11.965   2.199 -0.4157  4.7164  1.7577
  916MOL0     H20908   8.854  12.061   2.122 -0.1438 -1.1012  1.2740
  916MOL0     H20909   8.718  12.043   2.008  1.5324 -0.0018  0.1482
  916MOL0     H20910   8.630  12.428   2.150 -2.0341 -1.2097  0.6799
  916MOL0     H20911   8.636  11.503   2.412 -0.0986 -3.9397  1.7122
  916MOL0     H20912   8.490  11.333   2.516 -1.0081  1.5972  2.6184
  917MOL0     O20913   0.511  10.461  10.777  0.1055  0.5978  0.3549
  917MOL0     C20914   0.568  10.510  10.871  0.3333  0.3419 -0.1604
  917MOL0     O20915   0.543  10.478  10.999 -0.0765  0.1038  0.1219
  917MOL0     C20916   0.475  10.365  11.032 -0.0392  0.4594  0.7932
  917MOL0     C20917   0.423  10.366  11.157  0.5086 -0.8695  0.6649
  917MOL0     C20918   0.345  10.258  11.202 -0.2959 -0.1727 -0.6482
  917MOL0     C20919   0.335  10.138  11.125 -0.5305  0.2331 -0.3278
  917MOL0     O20920   0.269  10.027  11.177 -1.0563  0.3972 -0.7306
  917MOL0     C20921   0.349   9.914  11.211  0.2414  0.5167  0.5407
  917MOL0     C20922   0.318   9.780  11.122 -0.5405 -0.2324 -0.6303
  917MOL0     C20923   0.202   9.707  11.166  0.8821 -0.0174  0.2091
  917MOL0     C20924   0.141   9.629  11.045  0.1500  0.1612  0.0037
  917MOL0     C20925   0.023   9.530  11.079 -0.4960  0.1024 -0.0594
  917MOL0     C20926  -0.098   9.611  11.090  0.0244  1.4948 -0.3390
  917MOL0     C20927  -0.222   9.537  11.135  0.2895 -0.8749  0.4057
  917MOL0     C20928  -0.208   9.449  11.262  0.7686 -0.0046 -0.4250
  917MOL0     N20929  -0.337   9.383  11.288 -0.5352 -0.6266 -0.6480
  917MOL0     C20930  -0.374   9.265  11.222  0.4292 -0.4888 -0.1267
  917MOL0     C20931  -0.476   9.219  11.305 -0.7398 -0.7100 -0.4204
  917MOL0     C20932  -0.561   9.096  11.281 -0.0960 -1.0401  0.9282
  917MOL0     C20933  -0.683   9.075  11.372  0.1486  0.2438 -0.1353
  917MOL0     C20934  -0.765   8.949  11.342 -0.0948  0.4437 -0.4826
  917MOL0     C20935  -0.831   8.936  11.200 -0.3341  0.6446 -0.2771
  917MOL0     O20936  -0.930   9.032  11.176  1.1226 -0.3815 -0.3812
  917MOL0     C20937  -1.045   9.013  11.099  0.1035  0.3319  0.7990
  917MOL0     C20938  -1.047   8.914  10.996 -0.7251  0.4065 -0.3093
  917MOL0     C20939  -1.148   8.913  10.899 -0.7849 -0.2682  0.0001
  917MOL0     C20940  -1.258   9.006  10.901  0.8202 -0.8315  0.1228
  917MOL0     C20941  -1.361   9.019  10.792 -0.1237 -0.1914  0.1196
  917MOL0     O20942  -1.365   8.907  10.709 -0.5178 -0.3050 -0.1231
  917MOL0     C20943  -1.434   8.887  10.589 -0.2308  1.4261 -0.0435
  917MOL0     C20944  -1.543   8.958  10.535  0.7239 -0.3252 -0.2726
  917MOL0     C20945  -1.597   8.920  10.406  0.2359  0.7527 -0.3845
  917MOL0     C20946  -1.547   8.805  10.334  0.7307  0.1844  0.6354
  917MOL0     O20947  -1.585   8.773  10.206 -0.3825 -0.3396  0.3322
  917MOL0     C20948  -1.694   8.838  10.150  0.4765 -0.6773 -0.6345
  917MOL0     C20949  -1.749   8.774  10.022  0.0110  0.1777 -0.4125
  917MOL0     C20950  -1.638   8.721   9.931  0.5327 -0.5811  0.4119
  917MOL0     C20951  -1.689   8.649   9.811 -0.5470 -0.3665 -0.5547
  917MOL0     C20952  -1.569   8.611   9.717  0.2814  0.7872 -0.6599
  917MOL0     C20953  -1.614   8.524   9.594 -0.6782 -0.9047 -0.2103
  917MOL0     C20954  -1.502   8.477   9.508 -0.3194  0.6189  0.0007
  917MOL0     C20955  -1.565   8.409   9.377  0.2848  0.0207 -0.1585
  917MOL0    Cl20956  -1.643   8.256   9.386 -0.1178 -0.2331 -0.3131
  917MOL0     C20957  -1.437   8.736  10.393  0.2047 -0.8717 -0.6883
  917MOL0     C20958  -1.383   8.774  10.521 -0.2394  1.0605  0.9276
  917MOL0     O20959  -1.427   9.124  10.777  0.0768  0.6789 -0.1127
  917MOL0     C20960  -1.254   9.101  11.005  0.2175 -0.6020  0.3489
  917MOL0     C20961  -1.153   9.108  11.102 -0.5528  0.8815  0.0118
  917MOL0     N20962  -0.487   9.299  11.405 -0.0904 -0.5687  0.5490
  917MOL0     N20963  -0.402   9.397  11.401  0.2991  0.4801 -0.1166
  917MOL0     C20964   0.380  10.141  10.997  0.5337  0.2472  0.4956
  917MOL0     C20965   0.451  10.253  10.951 -1.2258  0.5428 -0.0625
  917MOL0     C20966   0.663  10.621  10.863  0.3256  0.6932  0.3098
  917MOL0     C20967   0.723  10.641  10.743  0.6847  0.0653 -0.3042
  917MOL0     C20968   0.807  10.744  10.716 -0.3955  0.4436 -0.6635
  917MOL0     C20969   0.835  10.837  10.813 -0.2814 -0.5211 -0.5030
  917MOL0     O20970   0.927  10.944  10.810 -0.0241 -0.8003  0.2402
  917MOL0     C20971   1.026  10.954  10.704  0.0431  0.7536  0.5002
  917MOL0     C20972   1.159  10.893  10.750  0.0495  0.4228  0.7457
  917MOL0     C20973   1.260  10.881  10.627  0.1455 -0.0195 -0.1040
  917MOL0     C20974   1.364  10.775  10.664 -0.2721  1.1034  0.1606
  917MOL0     C20975   1.466  10.757  10.559 -0.1200  0.0887 -1.1384
  917MOL0     C20976   1.532  10.761  10.462 -0.3393  0.0997  0.4674
  917MOL0     C20977   0.777  10.817  10.938  0.3219 -0.0342 -0.5390
  917MOL0     C20978   0.687  10.712  10.962 -0.3534  0.1352  0.5224
  917MOL0     H20979   0.443  10.452  11.220 -1.9972  1.0680 -0.9759
  917MOL0     H20980   0.296  10.281  11.296  3.3253  1.8526  0.9735
  917MOL0     H20981   0.343   9.885  11.317  0.3170 -3.6559 -0.4243
  917MOL0     H20982   0.456   9.935  11.199  0.6399 -2.4172 -2.3302
  917MOL0     H20983   0.408   9.719  11.118 -0.6986 -0.4209 -1.6272
  917MOL0     H20984   0.305   9.809  11.017  0.4408 -1.0451 -0.9886
  917MOL0     H20985   0.134   9.788  11.193  1.4031 -0.0446  1.6500
  917MOL0     H20986   0.219   9.637  11.248 -4.0182 -2.1730 -0.2305
  917MOL0     H20987   0.115   9.703  10.969  1.0960 -0.1185 -0.6056
  917MOL0     H20988   0.221   9.566  11.005  1.0137  1.6855 -0.7639
  917MOL0     H20989   0.060   9.494  11.176 -0.5117  1.9323  0.6635
  917MOL0     H20990   0.008   9.451  11.005  1.1052 -0.1850 -0.1158
  917MOL0     H20991  -0.110   9.664  10.996  1.6726  0.7203 -1.0284
  917MOL0     H20992  -0.088   9.688  11.167  1.0716 -0.0524  1.1652
  917MOL0     H20993  -0.305   9.608  11.140  2.7905  2.3089 -0.1101
  917MOL0     H20994  -0.242   9.467  11.053 -1.0632  0.7392 -0.7010
  917MOL0     H20995  -0.182   9.518  11.343  0.3789 -0.2785 -0.0596
  917MOL0     H20996  -0.127   9.376  11.255  2.8197  2.1419 -0.3371
  917MOL0     H20997  -0.313   9.222  11.143  2.1978  0.5589  0.6014
  917MOL0     H20998  -0.496   9.007  11.279 -0.1453 -1.0644  0.0152
  917MOL0     H20999  -0.599   9.128  11.184  2.3944  2.4576  0.9331
  917MOL0     H21000  -0.750   9.158  11.351 -0.1045 -0.0778 -0.6220
  917MOL0     H21001  -0.658   9.080  11.479 -0.0593 -1.3569  0.0259
  917MOL0     H21002  -0.701   8.864  11.368 -0.1840  0.5276  0.0049
  917MOL0     H21003  -0.845   8.952  11.416  2.3475  1.2199  2.2715
  917MOL0     H21004  -0.880   8.838  11.190 -0.1975  0.7751 -2.5914
  917MOL0     H21005  -0.767   8.948  11.113  1.4104 -2.1629  0.4653
  917MOL0     H21006  -0.957   8.860  10.968 -0.3355  2.5788 -3.8842
  917MOL0     H21007  -1.142   8.839  10.820  1.7687 -1.0808  0.8487
  917MOL0     H21008  -1.587   9.033  10.599  2.9176  0.9825 -0.1775
  917MOL0     H21009  -1.690   8.970  10.380 -0.2840 -0.4733 -0.9530
  917MOL0     H21010  -1.662   8.938  10.119 -0.6199  0.3482  1.3495
  917MOL0     H21011  -1.772   8.842  10.226 -0.5615 -1.6253 -1.6272
  917MOL0     H21012  -1.807   8.851   9.971  3.9878  1.3610 -3.7148
  917MOL0     H21013  -1.809   8.690  10.060  2.1695 -0.0362  2.8952
  917MOL0     H21014  -1.574   8.657   9.992 -0.3460 -4.3420 -2.2779
  917MOL0     H21015  -1.576   8.809   9.912  1.0906 -0.5360  2.2224
  917MOL0     H21016  -1.748   8.560   9.837 -0.1926 -1.7087 -3.7669
  917MOL0     H21017  -1.759   8.713   9.756  0.5421  0.0041 -1.5471
  917MOL0     H21018  -1.496   8.562   9.781 -1.9034 -0.1843  1.2229
  917MOL0     H21019  -1.538   8.713   9.693  0.0094  1.7232  2.5785
  917MOL0     H21020  -1.684   8.586   9.537  1.1447  1.4512 -0.0394
  917MOL0     H21021  -1.660   8.429   9.622 -3.0460 -0.0690 -0.9926
  917MOL0     H21022  -1.443   8.566   9.483  0.2100  1.3870  3.4290
  917MOL0     H21023  -1.426   8.411   9.553 -2.4317 -1.0038  1.3853
  917MOL0     H21024  -1.475   8.397   9.316  2.4038  3.4966  1.9020
  917MOL0     H21025  -1.634   8.482   9.336 -1.4479 -1.2291  0.3981
  917MOL0     H21026  -1.396   8.652  10.338 -0.7443 -1.7940 -0.0225
  917MOL0     H21027  -1.297   8.721  10.561  0.0758  1.2334  0.4874
  917MOL0     H21028  -1.332   9.172  11.031  2.0442  0.6241  2.9767
  917MOL0     H21029  -1.158   9.195  11.167 -1.3041  0.1317  0.9870
  917MOL0     H21030   0.361  10.056  10.932  0.7741  0.2344  0.4421
  917MOL0     H21031   0.485  10.253  10.848 -1.2990 -1.1133 -0.1228
  917MOL0     H21032   0.697  10.574  10.662  0.7140  2.0619 -2.0523
  917MOL0     H21033   0.847  10.767  10.617  1.9074  1.0801  0.3527
  917MOL0     H21034   1.032  11.057  10.670 -2.5699  1.1330  0.9891
  917MOL0     H21035   0.996  10.894  10.618  2.0879  0.4467 -0.0559
  917MOL0     H21036   1.200  10.961  10.826 -0.6640  1.6372  0.0764
  917MOL0     H21037   1.143  10.798  10.801 -1.2038  0.7748  1.0545
  917MOL0     H21038   1.306  10.978  10.610 -1.6243  1.1638  1.4125
  917MOL0     H21039   1.221  10.830  10.538 -2.3768 -1.2566  1.5804
  917MOL0     H21040   1.417  10.815  10.751  0.5609  2.9286 -1.1236
  917MOL0     H21041   1.317  10.680  10.692  0.5401  0.5639 -0.2686
  917MOL0     H21042   1.588  10.764  10.371  0.7178 -0.5867  1.0689
  917MOL0     H21043   0.804  10.879  11.023 -2.2249  0.5207 -0.0601
  917MOL0     H21044   0.652  10.702  11.064 -2.7910  0.0525 -0.2478
  918MOL0     O21045   2.946   4.835   4.169  0.2835 -0.7714  0.0683
  918MOL0     C21046   2.837   4.795   4.172  0.3053  0.2823 -0.1566
  918MOL0     O21047   2.754   4.792   4.283  0.1200  0.1252 -0.0748
  918MOL0     C21048   2.818   4.828   4.404  0.5399  0.9212  0.5469
  918MOL0     C21049   2.816   4.952   4.454 -0.3171  0.0373 -0.2688
  918MOL0     C21050   2.887   5.001   4.559 -0.8237 -0.6768 -0.8254
  918MOL0     C21051   2.984   4.914   4.623  0.7576 -0.6572  0.0057
  918MOL0     O21052   3.075   4.936   4.718 -0.1937 -0.6172 -0.7555
  918MOL0     C21053   3.125   5.075   4.730  0.6827 -0.9215 -0.2493
  918MOL0     C21054   3.284   5.073   4.737 -1.0651 -0.0105 -0.1207
  918MOL0     C21055   3.348   5.213   4.751  0.0963 -0.4316  0.2091
  918MOL0     C21056   3.355   5.275   4.890 -0.2486  0.6665 -0.1295
  918MOL0     C21057   3.231   5.292   4.972  0.2766 -0.2484  0.4844
  918MOL0     C21058   3.130   5.386   4.919 -0.2810 -0.8372  0.7332
  918MOL0     C21059   2.996   5.369   4.995  0.4460  0.6521  0.0496
  918MOL0     C21060   2.900   5.480   4.966 -1.2507 -0.2066  0.3109
  918MOL0     N21061   2.947   5.609   5.016 -0.5554 -0.0069 -0.5765
  918MOL0     C21062   2.927   5.673   5.137 -1.0339  0.7589 -0.1741
  918MOL0     C21063   2.937   5.812   5.106  0.4916  1.2350  0.1356
  918MOL0     C21064   2.938   5.913   5.222  0.6495 -0.8477  0.1370
  918MOL0     C21065   3.078   5.921   5.283 -0.3661 -0.0613 -1.0198
  918MOL0     C21066   3.073   5.998   5.419 -0.1399 -1.6851  0.5775
  918MOL0     C21067   3.032   5.904   5.534  0.3536 -0.2534 -0.0142
  918MOL0     O21068   3.058   5.984   5.649 -0.0380  0.4692 -0.3767
  918MOL0     C21069   3.050   5.928   5.772 -0.1267 -0.3933 -0.3885
  918MOL0     C21070   3.112   6.003   5.875 -0.6711  0.2658  1.2897
  918MOL0     C21071   3.117   5.959   6.004  0.2185 -1.2057 -0.4453
  918MOL0     C21072   3.060   5.834   6.038 -0.3405  1.0129  0.2092
  918MOL0     C21073   3.053   5.797   6.179  0.4792 -0.7451 -0.1446
  918MOL0     O21074   3.165   5.826   6.262 -0.3633 -0.5097  0.7688
  918MOL0     C21075   3.174   5.792   6.395  0.8900  0.3250  0.4034
  918MOL0     C21076   3.074   5.727   6.478  0.4894 -0.5799  1.0922
  918MOL0     C21077   3.088   5.709   6.615  0.4519  0.5163 -0.3957
  918MOL0     C21078   3.205   5.750   6.679 -0.8244  0.1037 -0.0754
  918MOL0     O21079   3.212   5.747   6.816  0.6336 -0.4250 -0.5154
  918MOL0     C21080   3.285   5.856   6.880 -0.2992  0.1900 -0.4352
  918MOL0     C21081   3.241   5.868   7.031 -0.3074  0.1053 -0.2950
  918MOL0     C21082   3.293   6.001   7.087  0.6602  0.4438 -0.1802
  918MOL0     C21083   3.440   5.994   7.140 -0.2917  0.6881 -0.2639
  918MOL0     C21084   3.477   6.123   7.216  0.8704 -0.2277 -0.0281
  918MOL0     C21085   3.619   6.120   7.262 -1.1898  0.2115 -0.6752
  918MOL0     C21086   3.663   6.248   7.333  0.2478 -0.3994  0.3889
  918MOL0     C21087   3.671   6.375   7.261 -0.3040 -1.5657  1.0494
  918MOL0    Cl21088   3.512   6.463   7.273 -0.1228 -0.2726 -0.2064
  918MOL0     C21089   3.303   5.808   6.599  0.1992 -0.6509  0.3158
  918MOL0     C21090   3.290   5.825   6.465 -0.0417 -0.4278 -0.0250
  918MOL0     O21091   2.947   5.737   6.213 -0.0413  0.6924  0.0836
  918MOL0     C21092   3.018   5.751   5.932 -0.0302  0.0727  0.2763
  918MOL0     C21093   3.006   5.802   5.801  1.1731  0.8871 -0.6534
  918MOL0     N21094   2.970   5.820   4.977 -0.5038  1.1642  0.2117
  918MOL0     N21095   2.978   5.701   4.921  0.8962 -0.3807 -0.1362
  918MOL0     C21096   2.992   4.782   4.575  0.3694 -0.1195  0.3953
  918MOL0     C21097   2.912   4.747   4.461 -0.8610  0.2450 -0.9583
  918MOL0     C21098   2.793   4.787   4.031  0.0829  0.0973  0.2204
  918MOL0     C21099   2.872   4.828   3.911  0.5670  0.3442 -0.3484
  918MOL0     C21100   2.813   4.828   3.785 -0.0195  0.0950  0.8199
  918MOL0     C21101   2.682   4.791   3.764 -0.8749  0.6321 -0.1033
  918MOL0     O21102   2.626   4.802   3.643 -0.0297 -0.2127  0.3600
  918MOL0     C21103   2.661   4.699   3.554 -0.9845 -0.5615  0.4885
  918MOL0     C21104   2.575   4.693   3.431 -0.6938 -1.1111  0.6439
  918MOL0     C21105   2.598   4.571   3.339 -0.6456 -0.3012  0.9621
  918MOL0     C21106   2.523   4.444   3.366  0.2642  0.1756 -0.4012
  918MOL0     C21107   2.582   4.354   3.462 -1.2219 -0.3585  0.0414
  918MOL0     C21108   2.655   4.293   3.538  0.4049 -0.3851 -0.0735
  918MOL0     C21109   2.601   4.764   3.870 -0.1754  0.4309  0.5434
  918MOL0     C21110   2.657   4.767   4.000 -0.2367  0.5739 -0.3458
  918MOL0     H21111   2.743   5.014   4.402  0.0225  1.5079  0.9481
  918MOL0     H21112   2.847   5.091   4.607 -1.9928 -1.8140  0.4222
  918MOL0     H21113   3.085   5.139   4.809  3.5591  0.1065  0.5103
  918MOL0     H21114   3.115   5.125   4.633  0.0727  0.0919  0.3131
  918MOL0     H21115   3.316   5.021   4.646 -0.7520 -0.1996  0.0979
  918MOL0     H21116   3.312   5.018   4.827 -1.8155 -2.3460 -1.2340
  918MOL0     H21117   3.298   5.287   4.688  1.2281  0.3803  0.2314
  918MOL0     H21118   3.450   5.204   4.714  0.6235 -0.5458  1.6220
  918MOL0     H21119   3.421   5.212   4.951 -1.5860 -0.7082 -0.0268
  918MOL0     H21120   3.407   5.371   4.889  1.9847 -0.3691  2.5131
  918MOL0     H21121   3.262   5.334   5.068  4.7380 -2.2081  0.1534
  918MOL0     H21122   3.177   5.197   4.979 -1.3017  0.4663 -1.4196
  918MOL0     H21123   3.116   5.381   4.811 -2.4662 -1.7560  1.0008
  918MOL0     H21124   3.178   5.482   4.940  1.6252 -1.3716 -0.8592
  918MOL0     H21125   2.957   5.276   4.952  3.5977  0.1632 -2.1191
  918MOL0     H21126   3.002   5.360   5.103  1.3753 -2.2655 -0.1695
  918MOL0     H21127   2.804   5.462   5.015  0.1933 -2.3209  2.5906
  918MOL0     H21128   2.876   5.488   4.860  3.4450  2.6079 -0.8800
  918MOL0     H21129   2.912   5.640   5.239  1.3204 -1.0270 -0.3068
  918MOL0     H21130   2.867   5.885   5.301  2.4330 -1.9246  1.4243
  918MOL0     H21131   2.904   6.011   5.188 -0.6618 -1.6055 -0.8211
  918MOL0     H21132   3.145   5.975   5.217  0.0698 -2.6097 -2.7911
  918MOL0     H21133   3.125   5.823   5.293 -0.9872 -0.3789 -1.1485
  918MOL0     H21134   3.168   6.051   5.432 -1.0176 -0.2615  1.5424
  918MOL0     H21135   3.013   6.089   5.415  2.5986  0.2324  0.5914
  918MOL0     H21136   3.088   5.810   5.533  0.7551 -0.3148  4.5718
  918MOL0     H21137   2.924   5.893   5.542 -0.4505  4.1494 -1.9175
  918MOL0     H21138   3.145   6.104   5.853 -2.5531  0.9960  1.6259
  918MOL0     H21139   3.168   6.006   6.088 -1.9075 -1.0691  0.8273
  918MOL0     H21140   3.000   5.668   6.425  1.4141  1.3518 -2.6996
  918MOL0     H21141   3.000   5.673   6.668  0.6708  1.6705  0.8036
  918MOL0     H21142   3.288   5.947   6.819  1.2068 -0.5200 -1.4867
  918MOL0     H21143   3.384   5.811   6.863 -1.2506 -1.4044 -2.2051
  918MOL0     H21144   3.279   5.784   7.089 -1.7639  1.7058  3.2278
  918MOL0     H21145   3.132   5.861   7.028 -0.2238 -1.5224  0.0337
  918MOL0     H21146   3.223   6.021   7.169 -0.5684  0.1886 -1.1396
  918MOL0     H21147   3.281   6.085   7.018 -1.1429  0.1549 -0.2645
  918MOL0     H21148   3.468   5.898   7.184  1.7408  0.8420 -1.1109
  918MOL0     H21149   3.504   5.993   7.052  0.7800 -1.4797  0.4669
  918MOL0     H21150   3.402   6.142   7.294  2.1490 -0.5887  1.3208
  918MOL0     H21151   3.459   6.205   7.145 -2.9452  1.6261  2.6969
  918MOL0     H21152   3.686   6.112   7.176 -0.8311  0.5554 -0.4332
  918MOL0     H21153   3.636   6.037   7.330 -0.0361 -0.3498 -1.6176
  918MOL0     H21154   3.594   6.264   7.415 -0.2154  1.9052 -0.3820
  918MOL0     H21155   3.766   6.221   7.359 -0.1231 -2.5897 -0.1880
  918MOL0     H21156   3.699   6.366   7.156 -0.4442 -0.8758  0.9441
  918MOL0     H21157   3.757   6.433   7.296 -0.9361 -1.6757  2.9075
  918MOL0     H21158   3.395   5.844   6.644  0.2218 -0.4558  0.1165
  918MOL0     H21159   3.362   5.884   6.410  1.2641 -0.7547  1.2762
  918MOL0     H21160   2.972   5.655   5.953 -1.6874  0.3856 -1.6043
  918MOL0     H21161   2.964   5.739   5.723  0.3835  1.2335 -0.5223
  918MOL0     H21162   3.066   4.718   4.622  0.5810  0.1683  0.4600
  918MOL0     H21163   2.947   4.659   4.407 -0.9460  1.1946 -2.6019
  918MOL0     H21164   2.975   4.858   3.928  0.3786  0.3015  0.9325
  918MOL0     H21165   2.862   4.872   3.699  0.6430 -1.2062  0.5071
  918MOL0     H21166   2.650   4.606   3.610  2.6691 -1.2735  0.2881
  918MOL0     H21167   2.766   4.722   3.534 -1.6536  2.9008  0.3256
  918MOL0     H21168   2.472   4.702   3.467 -1.0113 -2.0187  0.0169
  918MOL0     H21169   2.604   4.781   3.373 -2.1337 -1.0257  0.0048
  918MOL0     H21170   2.702   4.552   3.310 -1.0045  0.5328 -0.9889
  918MOL0     H21171   2.563   4.617   3.247 -1.5343  1.7533  2.2682
  918MOL0     H21172   2.430   4.467   3.419 -0.0674  0.4536 -1.0862
  918MOL0     H21173   2.500   4.396   3.270 -0.3325 -0.1648 -0.0976
  918MOL0     H21174   2.711   4.247   3.617 -1.1676 -1.6395  0.3689
  918MOL0     H21175   2.494   4.752   3.852 -0.8426  4.0519  1.2831
  918MOL0     H21176   2.588   4.742   4.080 -2.1372  0.8032 -1.8543
  919MOL0     O21177   9.445   9.215   0.600 -0.9239  0.0686  0.4852
  919MOL0     C21178   9.483   9.177   0.708  1.3623 -0.9623 -0.6076
  919MOL0     O21179   9.502   9.257   0.815 -0.5370 -0.2342  0.5041
  919MOL0     C21180   9.452   9.384   0.807  0.1784  0.7287 -0.5277
  919MOL0     C21181   9.320   9.413   0.764 -1.1924  1.1744 -0.2764
  919MOL0     C21182   9.283   9.542   0.759  0.0556  0.8087  0.4441
  919MOL0     C21183   9.366   9.639   0.773  0.1402 -0.6272  0.7605
  919MOL0     O21184   9.329   9.768   0.733  0.5667 -0.2527 -0.1401
  919MOL0     C21185   9.219   9.795   0.645 -0.3087 -0.3536  0.0979
  919MOL0     C21186   9.205   9.951   0.662 -0.0284 -0.1506 -0.0527
  919MOL0     C21187   9.104  10.029   0.567  0.5176 -0.6710  0.9140
  919MOL0     C21188   9.061  10.160   0.635  0.3978  0.7592  0.3443
  919MOL0     C21189   8.975  10.253   0.550  0.4437  0.1794  0.5629
  919MOL0     C21190   9.000  10.393   0.613 -0.6655  0.6148  0.3174
  919MOL0     C21191   8.915  10.512   0.557 -1.0353  0.2522 -0.4467
  919MOL0     C21192   8.943  10.632   0.643  0.1363 -0.0497  0.9118
  919MOL0     N21193   8.860  10.742   0.592  0.0452 -1.3905  0.2714
  919MOL0     C21194   8.737  10.773   0.641  0.3175 -0.4964 -0.7526
  919MOL0     C21195   8.663  10.820   0.536  0.0978  0.6294  0.4616
  919MOL0     C21196   8.531  10.874   0.544 -1.1934 -0.5114 -0.9848
  919MOL0     C21197   8.479  10.964   0.429  0.1694 -0.0129 -0.0717
  919MOL0     C21198   8.348  11.043   0.454  0.1565  0.4158  0.1777
  919MOL0     C21199   8.315  11.147   0.349  0.2552 -0.5246  0.3719
  919MOL0     O21200   8.221  11.237   0.420  0.5582 -0.0078 -0.2987
  919MOL0     C21201   8.148  11.337   0.350 -0.1276 -0.2577 -0.0600
  919MOL0     C21202   8.050  11.405   0.416  0.5229  0.1938  0.0711
  919MOL0     C21203   7.979  11.515   0.367  0.3006 -0.2949  1.7245
  919MOL0     C21204   7.989  11.555   0.227  0.1118 -0.3734 -1.3541
  919MOL0     C21205   7.913  11.675   0.180  0.6420  0.0857 -0.8277
  919MOL0     O21206   7.893  11.691   0.048  0.5626  0.0724  0.5962
  919MOL0     C21207   7.800  11.787   0.004 -0.3547  0.2149  0.5560
  919MOL0     C21208   7.680  11.818   0.067  0.2794  0.2433 -0.6730
  919MOL0     C21209   7.603  11.932   0.018 -0.3703  0.0823 -0.0160
  919MOL0     C21210   7.651  12.014  -0.090  0.8496 -0.7323 -0.1227
  919MOL0     O21211   7.570  12.114  -0.134  1.0559 -0.1479 -0.3101
  919MOL0     C21212   7.427  12.120  -0.121  0.0308  0.2091  0.2890
  919MOL0     C21213   7.361  12.185  -0.249 -0.1937 -0.5702  0.4278
  919MOL0     C21214   7.389  12.103  -0.381 -0.2098 -0.7414 -0.1398
  919MOL0     C21215   7.317  12.156  -0.506 -0.4166  0.7927 -1.1291
  919MOL0     C21216   7.347  12.306  -0.538  0.4822  0.4505  0.0601
  919MOL0     C21217   7.501  12.320  -0.578 -0.7367  0.7314  0.0757
  919MOL0     C21218   7.542  12.453  -0.645 -0.0916 -0.0187  0.3062
  919MOL0     C21219   7.458  12.466  -0.764 -0.7667 -1.4612  0.9240
  919MOL0    Cl21220   7.531  12.584  -0.866  0.1344  0.1674 -0.3614
  919MOL0     C21221   7.768  11.975  -0.146 -0.1217  0.4385 -0.1803
  919MOL0     C21222   7.832  11.853  -0.104 -0.5447 -0.1978 -0.5699
  919MOL0     O21223   7.875  11.748   0.264  0.6766 -0.5229 -0.4914
  919MOL0     C21224   8.084  11.477   0.156  0.0583  0.5204 -0.0200
  919MOL0     C21225   8.173  11.379   0.218  0.3724  0.3055  0.6490
  919MOL0     N21226   8.754  10.826   0.422  0.9700 -0.1883  0.5504
  919MOL0     N21227   8.866  10.784   0.462 -0.2195 -0.6629  0.2859
  919MOL0     C21228   9.503   9.621   0.805  0.1024  0.6272 -0.1403
  919MOL0     C21229   9.548   9.486   0.830  0.4661 -0.1627  0.0333
  919MOL0     C21230   9.475   9.034   0.746 -0.3901  0.0652 -0.0606
  919MOL0     C21231   9.444   8.987   0.870 -0.1258 -0.2164 -0.7098
  919MOL0     C21232   9.457   8.851   0.906 -0.5863  0.0622 -0.2417
  919MOL0     C21233   9.492   8.755   0.812 -0.6018  0.2692  0.2985
  919MOL0     O21234   9.510   8.614   0.831 -0.0140 -0.2877 -0.4906
  919MOL0     C21235   9.499   8.568   0.960  0.6288 -0.6205 -0.9675
  919MOL0     C21236   9.451   8.418   0.971 -1.4616 -0.3583 -0.2092
  919MOL0     C21237   9.532   8.305   0.906 -0.2749 -1.0715  0.1211
  919MOL0     C21238   9.672   8.342   0.864  0.0208 -0.1838 -0.0872
  919MOL0     C21239   9.732   8.225   0.813 -0.6358 -0.3830  0.4425
  919MOL0     C21240   9.789   8.127   0.769 -1.3926 -0.1233  0.1484
  919MOL0     C21241   9.508   8.798   0.684  0.9937  0.3088  0.2952
  919MOL0     C21242   9.507   8.934   0.653 -0.5061 -0.0496 -0.8302
  919MOL0     H21243   9.236   9.344   0.758 -1.0983  0.9729  0.5431
  919MOL0     H21244   9.175   9.549   0.747 -0.6579 -3.2858  2.6731
  919MOL0     H21245   9.128   9.735   0.657 -0.6472 -0.1111 -1.1126
  919MOL0     H21246   9.249   9.777   0.541 -2.3837 -0.3525 -0.5514
  919MOL0     H21247   9.294  10.014   0.671 -1.9905  2.7855  0.4703
  919MOL0     H21248   9.162   9.960   0.763  1.3554  1.9777  0.4170
  919MOL0     H21249   9.018   9.963   0.555  0.4244 -0.3406 -0.3832
  919MOL0     H21250   9.141  10.042   0.465 -0.0717  0.5186  0.8387
  919MOL0     H21251   9.002  10.145   0.725  0.1675  0.9726  0.2292
  919MOL0     H21252   9.159  10.204   0.655  1.0705 -0.7384  0.4823
  919MOL0     H21253   8.868  10.230   0.544  0.3646  0.3771  1.1375
  919MOL0     H21254   9.006  10.277   0.448 -0.2652  0.7523  0.4710
  919MOL0     H21255   9.106  10.407   0.592 -0.3531 -0.5203  1.0057
  919MOL0     H21256   8.976  10.385   0.720  1.1622  0.1983  0.7183
  919MOL0     H21257   8.944  10.523   0.452 -1.4029 -0.0465 -0.5814
  919MOL0     H21258   8.808  10.488   0.551 -0.0342 -5.6388 -0.1205
  919MOL0     H21259   9.043  10.666   0.615 -1.5494  5.0438 -0.0217
  919MOL0     H21260   8.921  10.615   0.748 -1.6234 -0.3249  0.5410
  919MOL0     H21261   8.686  10.771   0.737  0.9369  4.4042 -0.0687
  919MOL0     H21262   8.545  10.936   0.633  2.6906 -2.3160 -0.1393
  919MOL0     H21263   8.458  10.796   0.566 -2.4799  0.7195 -0.6906
  919MOL0     H21264   8.446  10.895   0.350  0.2004 -0.6659  0.4779
  919MOL0     H21265   8.559  11.033   0.401  0.3017  0.1671  0.7314
  919MOL0     H21266   8.259  10.979   0.457  0.5504 -0.1006  1.8837
  919MOL0     H21267   8.353  11.088   0.554 -1.7892  4.2420 -1.2490
  919MOL0     H21268   8.264  11.106   0.261  1.3784  1.3244 -1.2200
  919MOL0     H21269   8.402  11.202   0.312  0.9720 -2.5848 -1.1833
  919MOL0     H21270   8.038  11.366   0.517 -0.1202 -2.3883 -0.9243
  919MOL0     H21271   7.917  11.574   0.434 -0.2517 -1.0573  1.8984
  919MOL0     H21272   7.655  11.755   0.152  1.5691 -0.9680 -1.1495
  919MOL0     H21273   7.515  11.949   0.078 -1.7093 -1.2855 -1.4708
  919MOL0     H21274   7.389  12.174  -0.034 -2.5574  0.1118 -0.6727
  919MOL0     H21275   7.392  12.017  -0.123  1.5468 -0.4632  3.2336
  919MOL0     H21276   7.394  12.289  -0.255 -5.7178  1.4223 -2.2117
  919MOL0     H21277   7.255  12.195  -0.223 -0.2275 -1.3132  0.6031
  919MOL0     H21278   7.371  11.997  -0.359  1.1929 -1.4115 -1.9829
  919MOL0     H21279   7.494  12.107  -0.409 -0.5888  1.0230 -1.4605
  919MOL0     H21280   7.345  12.096  -0.593  1.5331 -3.2738  1.9217
  919MOL0     H21281   7.210  12.151  -0.487 -0.5255  2.8172 -1.0671
  919MOL0     H21282   7.322  12.370  -0.453  0.7888 -0.1518  0.6154
  919MOL0     H21283   7.291  12.333  -0.628 -0.5394 -0.3356  0.4294
  919MOL0     H21284   7.531  12.238  -0.644 -0.7079  3.1617 -3.2092
  919MOL0     H21285   7.562  12.314  -0.488 -0.2170 -2.5751 -0.3757
  919MOL0     H21286   7.517  12.538  -0.581  3.2528  2.0879 -0.8940
  919MOL0     H21287   7.650  12.462  -0.662 -0.4137 -0.6844 -2.4926
  919MOL0     H21288   7.358  12.506  -0.742  0.0316  0.9042  0.4972
  919MOL0     H21289   7.463  12.373  -0.820  1.1110  0.1959 -1.9050
  919MOL0     H21290   7.803  12.033  -0.230 -2.2571  1.1585 -0.6295
  919MOL0     H21291   7.924  11.835  -0.158  0.9773  2.0045  1.1009
  919MOL0     H21292   8.097  11.496   0.049  2.9601  1.1555  0.3732
  919MOL0     H21293   8.245  11.331   0.153  1.9244  3.8182 -0.4803
  919MOL0     H21294   9.588   9.686   0.821  2.1885 -2.5099  3.2183
  919MOL0     H21295   9.654   9.468   0.846  0.2867  0.3331  2.0173
  919MOL0     H21296   9.413   9.053   0.950 -2.6203 -1.3728 -0.6065
  919MOL0     H21297   9.439   8.825   1.010  0.4303 -2.1720 -0.5669
  919MOL0     H21298   9.430   8.626   1.021 -0.8813 -2.3120 -0.9777
  919MOL0     H21299   9.597   8.586   1.005 -0.9322 -0.0597  2.5725
  919MOL0     H21300   9.464   8.408   1.079  1.8275  1.0666 -0.3493
  919MOL0     H21301   9.346   8.408   0.943 -1.4248 -0.1193 -0.4374
  919MOL0     H21302   9.475   8.275   0.818  0.2407 -0.3628 -0.4727
  919MOL0     H21303   9.534   8.224   0.979 -0.0764  0.6388  2.1124
  919MOL0     H21304   9.677   8.419   0.786  4.9675  3.2717  3.0639
  919MOL0     H21305   9.722   8.388   0.950 -2.0608  1.6527  0.2437
  919MOL0     H21306   9.847   8.040   0.748 -0.9877  0.3290 -0.6401
  919MOL0     H21307   9.527   8.721   0.610 -0.9354 -1.1015  1.1716
  919MOL0     H21308   9.528   8.971   0.554  1.8558 -1.0486 -0.7610
  920MOL0     O21309   7.715   8.255   5.894  0.5003 -0.5460 -0.2587
  920MOL0     C21310   7.618   8.204   5.937  0.4006  0.2490  0.4989
  920MOL0     O21311   7.605   8.075   5.981 -0.5359  0.0299  0.0526
  920MOL0     C21312   7.698   7.982   5.971 -1.1794  0.6008 -0.1068
  920MOL0     C21313   7.719   7.887   6.075  0.3021  0.7540  0.1302
  920MOL0     C21314   7.827   7.795   6.080 -0.0645  1.0265  0.4854
  920MOL0     C21315   7.915   7.783   5.969  0.5727 -0.1701 -1.0786
  920MOL0     O21316   8.011   7.685   5.964  0.4379  0.2805  0.1030
  920MOL0     C21317   7.990   7.574   6.051  0.4365 -0.3622 -0.6240
  920MOL0     C21318   8.108   7.476   6.016 -0.5493 -0.1022 -0.4188
  920MOL0     C21319   8.114   7.344   6.078  0.0345 -0.0118  0.3630
  920MOL0     C21320   8.133   7.345   6.230  0.8755  0.7474  0.5436
  920MOL0     C21321   8.116   7.202   6.284 -0.4697  0.0599  0.4449
  920MOL0     C21322   8.215   7.104   6.220  0.3704  0.0843 -0.6461
  920MOL0     C21323   8.241   6.980   6.308 -0.6640  0.1839 -0.0513
  920MOL0     C21324   8.308   6.987   6.454  0.6817 -0.1489  0.2499
  920MOL0     N21325   8.435   7.046   6.463  0.0190  0.0203 -0.5373
  920MOL0     C21326   8.472   7.166   6.510 -0.1474 -0.2201  0.3350
  920MOL0     C21327   8.597   7.164   6.547  0.7641  0.2195 -0.7023
  920MOL0     C21328   8.671   7.283   6.592  0.1480 -0.1647 -0.0835
  920MOL0     C21329   8.725   7.259   6.731  0.3788 -0.1583 -0.5447
  920MOL0     C21330   8.787   7.379   6.797 -0.1617 -0.2995  0.1888
  920MOL0     C21331   8.789   7.365   6.952 -0.2986 -0.4463  0.4799
  920MOL0     O21332   8.665   7.344   7.016  0.3537 -0.3299  0.1887
  920MOL0     C21333   8.632   7.452   7.101  0.6220 -0.5443 -0.9978
  920MOL0     C21334   8.590   7.576   7.053  0.5681  0.8729 -1.1039
  920MOL0     C21335   8.558   7.686   7.140 -0.3381  0.0311  0.0528
  920MOL0     C21336   8.555   7.674   7.282 -0.3407  0.0507  0.6719
  920MOL0     C21337   8.498   7.783   7.362  1.2203 -0.4802  0.6459
  920MOL0     O21338   8.464   7.900   7.298  0.9927 -0.0927  0.3122
  920MOL0     C21339   8.390   7.994   7.362 -0.1308 -0.2979  0.0521
  920MOL0     C21340   8.427   8.128   7.382  0.2057 -0.0383 -0.7981
  920MOL0     C21341   8.341   8.220   7.449  0.6013 -0.7017  0.2114
  920MOL0     C21342   8.222   8.177   7.491  0.3101 -0.9000  0.4814
  920MOL0     O21343   8.135   8.258   7.561 -0.1231 -0.0027  0.3123
  920MOL0     C21344   8.176   8.369   7.646 -0.3874 -0.2256  0.3907
  920MOL0     C21345   8.150   8.501   7.587 -0.1123  0.0487  0.2968
  920MOL0     C21346   8.001   8.528   7.598  0.4823  0.4494 -0.3933
  920MOL0     C21347   7.930   8.532   7.459 -0.6727 -0.7876  0.2892
  920MOL0     C21348   7.964   8.651   7.365 -0.8385 -0.7756  0.4764
  920MOL0     C21349   7.895   8.656   7.225 -0.3119  0.0739  0.8130
  920MOL0     C21350   7.958   8.761   7.121  0.2192  0.8575  0.7339
  920MOL0     C21351   7.945   8.904   7.171 -0.9774  0.3382 -1.1204
  920MOL0    Cl21352   7.779   8.970   7.170  0.4289 -0.2148  0.2116
  920MOL0     C21353   8.178   8.049   7.465 -0.0902  0.8627 -0.7822
  920MOL0     C21354   8.264   7.953   7.416  0.9466  0.6160 -0.9343
  920MOL0     O21355   8.478   7.765   7.481 -0.9839  0.2973  0.0986
  920MOL0     C21356   8.597   7.547   7.332 -0.3008 -0.5219  0.1194
  920MOL0     C21357   8.636   7.443   7.246 -0.0960  0.0454  0.4656
  920MOL0     N21358   8.642   7.036   6.522 -0.4104  0.5325 -0.8895
  920MOL0     N21359   8.548   6.974   6.455 -0.7616  0.7032  0.0116
  920MOL0     C21360   7.885   7.863   5.854 -0.4532  0.3235  0.8040
  920MOL0     C21361   7.787   7.969   5.862  0.6426  0.7461  0.2900
  920MOL0     C21362   7.516   8.310   5.950  0.0478 -0.0407  0.7382
  920MOL0     C21363   7.517   8.438   5.891 -0.0544  0.5894 -0.2642
  920MOL0     C21364   7.416   8.522   5.910 -0.5237 -0.1167  0.2915
  920MOL0     C21365   7.300   8.492   5.982 -0.2072  0.3426 -0.2456
  920MOL0     O21366   7.205   8.591   5.970 -0.1280 -0.3512 -0.5300
  920MOL0     C21367   7.080   8.554   6.019  0.1809  0.1362 -0.7200
  920MOL0     C21368   6.983   8.672   6.048 -0.4751  0.5941  0.0114
  920MOL0     C21369   6.930   8.749   5.921  0.3370 -0.7955 -0.4200
  920MOL0     C21370   6.822   8.846   5.982 -0.3844  0.1333  0.2673
  920MOL0     C21371   6.689   8.780   6.013  0.3037  0.2298 -0.5615
  920MOL0     C21372   6.587   8.709   6.026  0.4659 -0.7309 -0.0706
  920MOL0     C21373   7.295   8.365   6.038 -0.3631  0.2973 -1.1322
  920MOL0     C21374   7.403   8.276   6.021 -0.6973 -0.1826 -0.9598
  920MOL0     H21375   7.659   7.895   6.164  0.6088 -0.3632  0.4538
  920MOL0     H21376   7.843   7.743   6.174  1.3638 -1.6893 -1.1454
  920MOL0     H21377   7.899   7.529   6.010  0.5098 -0.0031 -1.2056
  920MOL0     H21378   7.984   7.591   6.159  0.5780  1.6442 -0.8767
  920MOL0     H21379   8.196   7.536   6.043 -2.1364  1.0348  2.7812
  920MOL0     H21380   8.107   7.471   5.907 -1.9475 -1.9354 -0.3614
  920MOL0     H21381   8.204   7.298   6.035  1.3691  1.7038  1.2070
  920MOL0     H21382   8.020   7.293   6.056 -0.3006  1.2300 -1.2823
  920MOL0     H21383   8.237   7.369   6.253  1.8007 -1.2848 -1.1490
  920MOL0     H21384   8.058   7.416   6.266  0.0659  1.1261 -1.7347
  920MOL0     H21385   8.012   7.173   6.272 -0.8595  1.4743  0.2266
  920MOL0     H21386   8.136   7.204   6.392  3.6019  1.0262 -0.1414
  920MOL0     H21387   8.307   7.162   6.226 -0.3470  1.1480  3.0903
  920MOL0     H21388   8.183   7.068   6.122 -0.4936  0.6172 -0.5657
  920MOL0     H21389   8.150   6.926   6.332  0.6598 -1.7134  0.9967
  920MOL0     H21390   8.303   6.904   6.258 -2.6253 -2.1263  0.8468
  920MOL0     H21391   8.314   6.888   6.502  2.1017 -0.1241  0.1852
  920MOL0     H21392   8.247   7.055   6.514  3.4001  2.4757  0.2436
  920MOL0     H21393   8.402   7.249   6.515 -1.6047 -1.3640 -0.1396
  920MOL0     H21394   8.608   7.372   6.602  0.1239 -0.2308  0.3946
  920MOL0     H21395   8.747   7.311   6.519  0.1050  1.6380  0.5227
  920MOL0     H21396   8.792   7.174   6.744 -1.2490 -1.6221 -1.2735
  920MOL0     H21397   8.644   7.232   6.800  0.2212  0.9554 -0.2747
  920MOL0     H21398   8.889   7.379   6.757  0.0462 -0.9866  0.6987
  920MOL0     H21399   8.743   7.478   6.787  0.3188  0.1123  1.7961
  920MOL0     H21400   8.843   7.456   6.980 -2.0931  0.0568  2.5232
  920MOL0     H21401   8.848   7.275   6.973  1.0767 -0.5155 -3.0016
  920MOL0     H21402   8.566   7.600   6.951 -1.9507  1.4453 -0.4529
  920MOL0     H21403   8.522   7.773   7.087 -0.6995 -0.5500 -0.6788
  920MOL0     H21404   8.519   8.175   7.348  0.2974  0.6731  0.4233
  920MOL0     H21405   8.374   8.322   7.470  0.3978 -0.2728 -1.3748
  920MOL0     H21406   8.278   8.341   7.673  0.4511  0.2939 -2.0318
  920MOL0     H21407   8.118   8.360   7.739  1.2696  2.8433  1.8505
  920MOL0     H21408   8.174   8.482   7.482 -0.0409 -0.5879  0.4262
  920MOL0     H21409   8.204   8.589   7.622 -0.6206  0.5359 -0.1331
  920MOL0     H21410   7.976   8.619   7.654 -1.6075  0.9862 -2.0632
  920MOL0     H21411   7.942   8.454   7.653 -3.5395 -0.1118 -4.8574
  920MOL0     H21412   7.946   8.440   7.402 -1.5069 -0.3223 -0.7354
  920MOL0     H21413   7.821   8.537   7.473 -0.6913  0.3974 -0.1322
  920MOL0     H21414   8.072   8.663   7.350 -0.9219 -1.5041 -0.8772
  920MOL0     H21415   7.927   8.736   7.422 -1.0682 -1.0179  0.6897
  920MOL0     H21416   7.788   8.667   7.244 -0.9574 -4.7453  1.2161
  920MOL0     H21417   7.891   8.556   7.181 -2.1330  0.4454  0.0090
  920MOL0     H21418   8.064   8.734   7.123  0.7197  2.6474  2.8113
  920MOL0     H21419   7.912   8.747   7.023 -0.0891  0.2824  0.9542
  920MOL0     H21420   8.006   8.972   7.111 -0.9615  0.5137 -0.9037
  920MOL0     H21421   7.991   8.899   7.270  0.4996 -2.0908 -1.8409
  920MOL0     H21422   8.076   8.031   7.499  0.4092  0.0816  0.3575
  920MOL0     H21423   8.229   7.850   7.406 -0.4188  0.9822 -0.2091
  920MOL0     H21424   8.587   7.551   7.440 -2.6671  3.2822 -0.0421
  920MOL0     H21425   8.685   7.352   7.280  0.0102  0.7294  2.2790
  920MOL0     H21426   7.951   7.867   5.768 -0.4459  2.0846  0.8483
  920MOL0     H21427   7.785   8.049   5.789  3.9938  2.0950  1.4671
  920MOL0     H21428   7.592   8.469   5.820 -0.1698  0.7677 -0.3098
  920MOL0     H21429   7.412   8.613   5.852  1.7116 -1.4859 -2.2489
  920MOL0     H21430   7.086   8.504   6.116 -1.8794  1.4929  0.1996
  920MOL0     H21431   7.035   8.493   5.940 -0.5135  1.3924 -1.3388
  920MOL0     H21432   6.910   8.646   6.125 -0.8308 -1.3672 -0.9021
  920MOL0     H21433   7.044   8.754   6.088  1.9296 -0.7003 -0.7652
  920MOL0     H21434   6.880   8.681   5.852 -1.5007  0.0156  0.0567
  920MOL0     H21435   7.007   8.803   5.866 -0.6157  1.1652  0.0963
  920MOL0     H21436   6.855   8.882   6.080  4.1208 -1.8884 -0.2196
  920MOL0     H21437   6.792   8.923   5.910 -1.3248  0.0854  0.6034
  920MOL0     H21438   6.500   8.647   6.021  1.6172 -2.3371 -2.8749
  920MOL0     H21439   7.209   8.328   6.093 -0.0993  0.2519 -0.7450
  920MOL0     H21440   7.398   8.177   6.065 -2.2443 -0.8638 -2.5594
  921MOL0     O21441   1.122   4.410   1.457  0.1848 -0.2152 -0.1193
  921MOL0     C21442   1.103   4.417   1.338 -0.2867 -0.2351  0.2699
  921MOL0     O21443   1.036   4.523   1.285 -0.4341  0.0572 -0.0038
  921MOL0     C21444   0.986   4.631   1.357  0.4912  0.5428 -0.8722
  921MOL0     C21445   1.064   4.734   1.389 -0.8979  0.5366  0.5916
  921MOL0     C21446   1.019   4.835   1.475 -1.0693  0.0344 -0.7708
  921MOL0     C21447   0.886   4.828   1.525 -0.0024 -0.0327 -0.0587
  921MOL0     O21448   0.850   4.921   1.620  0.5629  0.6358 -0.2140
  921MOL0     C21449   0.716   4.908   1.659 -0.4159  0.8128 -0.7471
  921MOL0     C21450   0.691   5.016   1.763  0.6032 -1.0945 -0.1231
  921MOL0     C21451   0.665   5.149   1.696 -0.0172  0.2836  0.3882
  921MOL0     C21452   0.634   5.250   1.806  0.1818  0.8836  0.5951
  921MOL0     C21453   0.620   5.396   1.741  0.2395  0.1375 -0.6374
  921MOL0     C21454   0.480   5.434   1.691  0.1323 -0.3137 -0.5125
  921MOL0     C21455   0.485   5.583   1.635  0.6236  0.4426  0.8062
  921MOL0     C21456   0.506   5.695   1.731  0.2145 -1.2290  0.3856
  921MOL0     N21457   0.464   5.824   1.665 -0.8810 -0.4474 -0.2904
  921MOL0     C21458   0.519   5.883   1.556  0.1541 -0.4978 -0.1111
  921MOL0     C21459   0.443   5.997   1.535  0.2737  0.7180  0.6819
  921MOL0     C21460   0.455   6.088   1.420 -0.6956  0.3742  0.1023
  921MOL0     C21461   0.417   6.232   1.444 -0.3385  0.5756  0.3384
  921MOL0     C21462   0.492   6.310   1.556 -0.2252 -0.2631 -0.7859
  921MOL0     C21463   0.431   6.457   1.547  0.6535  0.6366 -0.5032
  921MOL0     O21464   0.475   6.532   1.438 -0.2109  0.4384  0.3440
  921MOL0     C21465   0.423   6.658   1.409 -0.2271  0.0046  0.7648
  921MOL0     C21466   0.368   6.744   1.502  0.1191 -0.6379  0.2372
  921MOL0     C21467   0.344   6.884   1.461 -0.7743 -0.3413 -0.4614
  921MOL0     C21468   0.381   6.934   1.335 -0.5038  0.2443 -1.3259
  921MOL0     C21469   0.380   7.076   1.297 -0.0710 -0.4157  1.0504
  921MOL0     O21470   0.277   7.160   1.330  0.3389  0.6654 -0.2756
  921MOL0     C21471   0.286   7.285   1.283  0.7702  0.1709 -0.2106
  921MOL0     C21472   0.273   7.397   1.360 -0.8987 -0.7663 -0.5070
  921MOL0     C21473   0.256   7.521   1.303  0.3137 -0.0468 -0.2270
  921MOL0     C21474   0.261   7.542   1.163 -0.7664  0.9022  0.1352
  921MOL0     O21475   0.250   7.677   1.130  0.2105  0.0553  0.2183
  921MOL0     C21476   0.260   7.714   0.990 -0.0169 -0.0633  0.1212
  921MOL0     C21477   0.120   7.713   0.916 -0.4706 -1.5913  0.2320
  921MOL0     C21478   0.153   7.670   0.776  0.5044  0.3878  0.9117
  921MOL0     C21479   0.037   7.636   0.688  0.5327 -0.1669 -0.8621
  921MOL0     C21480   0.085   7.583   0.546 -0.2042  0.6151 -0.1111
  921MOL0     C21481  -0.023   7.579   0.433 -0.1554  0.4415  0.9680
  921MOL0     C21482  -0.060   7.721   0.400  0.1560  0.8267 -1.0338
  921MOL0     C21483  -0.124   7.733   0.267 -0.3483  0.4754 -1.0771
  921MOL0    Cl21484  -0.029   7.686   0.126 -0.0248  0.1250 -0.3515
  921MOL0     C21485   0.282   7.429   1.082 -0.1105  0.5986  0.0475
  921MOL0     C21486   0.295   7.302   1.144 -0.6163  0.3515  0.8236
  921MOL0     O21487   0.483   7.105   1.236  0.1419  0.0689  0.2825
  921MOL0     C21488   0.432   6.837   1.250 -1.0613 -0.3048  1.1042
  921MOL0     C21489   0.438   6.703   1.278 -0.8908 -1.0224 -0.7639
  921MOL0     N21490   0.346   5.993   1.636 -0.2926  0.4075  0.0086
  921MOL0     N21491   0.354   5.888   1.712  0.5941 -0.2840  0.8116
  921MOL0     C21492   0.800   4.724   1.484 -0.2369 -0.1158  0.0510
  921MOL0     C21493   0.850   4.624   1.397  0.5758 -0.4299  0.0357
  921MOL0     C21494   1.129   4.303   1.247  0.0279 -0.0810  0.7266
  921MOL0     C21495   1.083   4.316   1.116  0.5918  0.2555 -0.7543
  921MOL0     C21496   1.113   4.222   1.022 -0.6373 -0.7976  0.1191
  921MOL0     C21497   1.185   4.107   1.051 -0.9313  0.1785  0.2931
  921MOL0     O21498   1.245   4.027   0.956  0.2612 -0.7758  0.4352
  921MOL0     C21499   1.203   3.891   0.966  1.0971 -0.4066 -0.3633
  921MOL0     C21500   1.317   3.800   0.914 -0.7053 -1.0389 -0.6063
  921MOL0     C21501   1.455   3.805   0.985 -0.3436  0.3127  0.6536
  921MOL0     C21502   1.551   3.686   0.942 -0.2326  1.2426  0.7371
  921MOL0     C21503   1.583   3.682   0.801 -0.7471  0.0013 -0.0036
  921MOL0     C21504   1.608   3.688   0.685  0.2515 -0.6914 -0.0207
  921MOL0     C21505   1.233   4.098   1.182 -1.0241 -1.2630 -0.3340
  921MOL0     C21506   1.205   4.193   1.280  0.2334 -0.2905 -0.2477
  921MOL0     H21507   1.157   4.742   1.333 -1.3614 -0.0354 -0.2839
  921MOL0     H21508   1.092   4.912   1.498  2.6435 -3.3714 -0.0230
  921MOL0     H21509   0.693   4.811   1.704 -3.2282  0.0084 -3.5161
  921MOL0     H21510   0.653   4.930   1.572 -2.4850  1.3232  0.7952
  921MOL0     H21511   0.776   5.028   1.831 -0.7459 -0.7905  1.5886
  921MOL0     H21512   0.606   4.989   1.826  0.2067 -0.6691 -0.4734
  921MOL0     H21513   0.580   5.139   1.628  0.1871  0.0556  0.1602
  921MOL0     H21514   0.747   5.184   1.632 -1.5347  1.0239 -1.2110
  921MOL0     H21515   0.548   5.213   1.862  1.6470 -1.6331  1.3512
  921MOL0     H21516   0.714   5.261   1.880  2.7548 -1.3828 -1.6252
  921MOL0     H21517   0.689   5.409   1.657 -0.7407 -0.9149 -1.6344
  921MOL0     H21518   0.634   5.465   1.826 -1.7790  0.4723 -0.5297
  921MOL0     H21519   0.401   5.430   1.766  0.0221  1.0626 -0.5254
  921MOL0     H21520   0.453   5.361   1.614 -2.6463 -1.4389  1.3554
  921MOL0     H21521   0.573   5.598   1.572  0.4253  1.9465  0.8592
  921MOL0     H21522   0.396   5.587   1.572 -0.1129 -3.2649  1.3767
  921MOL0     H21523   0.612   5.701   1.758 -0.0870 -1.0856  1.6030
  921MOL0     H21524   0.440   5.683   1.818 -0.2888  2.0418  0.5554
  921MOL0     H21525   0.600   5.851   1.492 -1.8826  1.5812 -4.0356
  921MOL0     H21526   0.403   6.050   1.331 -0.3116 -0.1810  0.1105
  921MOL0     H21527   0.561   6.097   1.394 -0.0783  0.8667  2.5806
  921MOL0     H21528   0.316   6.212   1.483 -0.3770  0.7872  0.3513
  921MOL0     H21529   0.419   6.284   1.348  1.6364 -1.5734 -0.8937
  921MOL0     H21530   0.469   6.269   1.655  1.2975  0.1390 -0.2331
  921MOL0     H21531   0.600   6.320   1.539 -0.5515 -0.4338 -3.3028
  921MOL0     H21532   0.468   6.513   1.633 -1.1672 -1.2512  1.6186
  921MOL0     H21533   0.322   6.448   1.553  0.6097 -3.1999 -3.4565
  921MOL0     H21534   0.346   6.702   1.599 -3.3052 -2.6529 -1.2368
  921MOL0     H21535   0.302   6.947   1.539  1.9820  1.6481 -0.4422
  921MOL0     H21536   0.288   7.389   1.467  2.6259 -1.3313 -0.9363
  921MOL0     H21537   0.244   7.608   1.368 -0.1035  2.3921 -3.3406
  921MOL0     H21538   0.330   7.640   0.950 -0.2390  0.1245 -0.6182
  921MOL0     H21539   0.308   7.812   0.977 -0.3662  0.0338 -0.4910
  921MOL0     H21540   0.091   7.818   0.912  2.6241 -0.6754 -1.0737
  921MOL0     H21541   0.052   7.640   0.961 -1.9098 -2.4598 -3.0562
  921MOL0     H21542   0.225   7.590   0.758 -1.9774 -1.5002 -1.4500
  921MOL0     H21543   0.200   7.762   0.740 -0.7028  1.4206  1.8849
  921MOL0     H21544  -0.021   7.567   0.749  2.3595 -1.0520 -0.0436
  921MOL0     H21545  -0.021   7.728   0.679  3.5337  1.8786 -0.5298
  921MOL0     H21546   0.143   7.490   0.548  1.9868  1.8170 -2.1519
  921MOL0     H21547   0.154   7.656   0.503 -2.0205  0.1835 -4.1798
  921MOL0     H21548  -0.116   7.528   0.460 -1.4556  3.0697  1.8200
  921MOL0     H21549   0.023   7.532   0.345  0.2310 -0.4551  1.6353
  921MOL0     H21550  -0.119   7.760   0.484  0.7974  1.2258 -0.7654
  921MOL0     H21551   0.032   7.778   0.385  0.5878  0.7231  0.9060
  921MOL0     H21552  -0.155   7.838   0.254  0.0376  0.6315 -0.7388
  921MOL0     H21553  -0.211   7.667   0.270  0.8305 -1.1025  0.9206
  921MOL0     H21554   0.290   7.443   0.975  2.3362  1.6407  0.3108
  921MOL0     H21555   0.301   7.215   1.079  1.3243  0.5108  0.7508
  921MOL0     H21556   0.448   6.877   1.150 -2.3306 -2.1978  0.0703
  921MOL0     H21557   0.470   6.630   1.204 -0.9079 -0.0388 -1.7694
  921MOL0     H21558   0.702   4.708   1.528  0.6454  0.2692  2.2915
  921MOL0     H21559   0.798   4.530   1.382  0.6162 -0.6849  1.3348
  921MOL0     H21560   1.019   4.401   1.093  0.3376 -0.5890 -3.5646
  921MOL0     H21561   1.087   4.238   0.918  0.7478 -1.0645 -0.2808
  921MOL0     H21562   1.104   3.864   0.927 -1.3485 -1.2684  5.4136
  921MOL0     H21563   1.194   3.872   1.073  0.2778  1.1258 -0.1386
  921MOL0     H21564   1.283   3.697   0.922 -1.3794 -0.7245  0.8522
  921MOL0     H21565   1.326   3.820   0.806  2.7900 -3.3269 -0.8961
  921MOL0     H21566   1.434   3.817   1.092  3.7260  3.6946  1.3076
  921MOL0     H21567   1.506   3.897   0.955 -0.1316  0.6752  2.0586
  921MOL0     H21568   1.642   3.701   1.000 -0.4890  0.0994  1.4606
  921MOL0     H21569   1.507   3.591   0.973 -1.4680  1.5655  0.0323
  921MOL0     H21570   1.632   3.679   0.581  0.9652 -3.5089  0.3198
  921MOL0     H21571   1.302   4.023   1.217  2.4003  2.0392  0.7381
  921MOL0     H21572   1.255   4.184   1.376  2.1851 -0.5900 -1.2478
  922MOL0     O21573   8.381   8.728   3.961 -0.1764 -0.9204 -0.1766
  922MOL0     C21574   8.504   8.747   3.956  0.2563 -0.9666 -0.5397
  922MOL0     O21575   8.577   8.709   3.850 -0.1488 -0.0604 -0.9671
  922MOL0     C21576   8.526   8.636   3.742  0.3172  0.1267  0.1754
  922MOL0     C21577   8.398   8.572   3.730 -0.0181 -0.8175  0.2313
  922MOL0     C21578   8.359   8.500   3.617  0.3689  0.2410  0.3066
  922MOL0     C21579   8.451   8.500   3.511  0.9643  0.2445  0.0944
  922MOL0     O21580   8.431   8.420   3.400  0.4863 -0.9429 -0.1232
  922MOL0     C21581   8.341   8.301   3.411 -0.5793 -0.0037 -0.0086
  922MOL0     C21582   8.311   8.257   3.276  0.7190  0.8133  0.6284
  922MOL0     C21583   8.442   8.204   3.204 -0.5297  0.2828 -1.2216
  922MOL0     C21584   8.419   8.181   3.058 -1.1202 -0.2863 -0.1097
  922MOL0     C21585   8.377   8.306   2.984  0.6157 -0.3372 -0.5463
  922MOL0     C21586   8.402   8.298   2.833  0.1140 -0.8157 -0.6007
  922MOL0     C21587   8.355   8.428   2.757 -0.3384  0.5848  0.3303
  922MOL0     C21588   8.200   8.418   2.730  0.2705 -0.9425 -0.4674
  922MOL0     N21589   8.142   8.300   2.670  0.6132 -0.7312 -0.4035
  922MOL0     C21590   8.075   8.199   2.748 -0.1325  0.0541 -0.4430
  922MOL0     C21591   8.017   8.121   2.658  0.3739  1.0098 -0.0828
  922MOL0     C21592   7.936   8.005   2.713  0.2468 -0.3039  0.7650
  922MOL0     C21593   7.946   7.883   2.618 -0.7255  0.2537  0.2740
  922MOL0     C21594   7.868   7.754   2.663 -1.0170 -0.3861 -0.9249
  922MOL0     C21595   7.887   7.619   2.585 -0.0046 -0.6575 -0.3110
  922MOL0     O21596   8.015   7.558   2.578  0.0168  0.4603 -1.4116
  922MOL0     C21597   8.040   7.442   2.497  0.3208 -0.1067  0.1143
  922MOL0     C21598   8.165   7.378   2.494 -0.1222 -0.6850 -0.0106
  922MOL0     C21599   8.189   7.274   2.408  0.3583 -0.0000  0.2278
  922MOL0     C21600   8.083   7.217   2.333 -0.0520 -0.0755  0.4786
  922MOL0     C21601   8.110   7.106   2.241 -0.0474  0.8718 -0.7839
  922MOL0     O21602   8.011   7.068   2.157 -0.2403 -0.6059 -0.5075
  922MOL0     C21603   8.035   6.976   2.063  0.6755 -0.4211  0.4742
  922MOL0     C21604   8.088   6.850   2.086 -1.6290 -0.8150 -0.1541
  922MOL0     C21605   8.130   6.766   1.983  0.3273  0.1565 -0.2326
  922MOL0     C21606   8.119   6.819   1.846 -0.4247  0.5785  0.9755
  922MOL0     O21607   8.153   6.733   1.746 -0.0080  0.7383 -0.1456
  922MOL0     C21608   8.056   6.712   1.640 -1.1003  0.7850  0.0688
  922MOL0     C21609   8.128   6.709   1.504  0.1171 -0.3600  1.0744
  922MOL0     C21610   8.125   6.846   1.441 -0.3148  0.1710  0.5642
  922MOL0     C21611   8.152   6.837   1.290 -1.1643  0.5834  0.6720
  922MOL0     C21612   8.184   6.974   1.244 -0.9160 -0.4424  0.7376
  922MOL0     C21613   8.263   6.977   1.111 -0.4569  0.5710 -0.9180
  922MOL0     C21614   8.261   7.114   1.046 -0.7505 -0.1238 -0.4854
  922MOL0     C21615   8.317   7.112   0.904  1.2648  0.3777 -0.1573
  922MOL0    Cl21616   8.297   7.275   0.820  0.1105 -0.0536 -0.0058
  922MOL0     C21617   8.053   6.946   1.820 -0.4735 -0.5965  1.0584
  922MOL0     C21618   8.016   7.028   1.931 -0.3468  0.0839 -0.6523
  922MOL0     O21619   8.225   7.051   2.251  0.0336  0.1432  0.7713
  922MOL0     C21620   7.958   7.280   2.337  0.1326 -0.3392  0.1211
  922MOL0     C21621   7.934   7.388   2.423 -0.7425 -0.1914  0.0972
  922MOL0     N21622   8.033   8.177   2.530 -0.3318  0.1684  0.9166
  922MOL0     N21623   8.095   8.289   2.544  0.8062  0.3664 -1.0828
  922MOL0     C21624   8.567   8.573   3.513 -1.1573 -0.1441  0.1537
  922MOL0     C21625   8.611   8.625   3.634 -0.3099 -0.7370  0.6116
  922MOL0     C21626   8.574   8.803   4.079  0.6988  0.2472 -0.3754
  922MOL0     C21627   8.710   8.814   4.089 -0.6172  0.2406 -0.3960
  922MOL0     C21628   8.777   8.873   4.200  0.4231  1.0186  0.3392
  922MOL0     C21629   8.701   8.909   4.311 -0.2479  0.6839  0.4553
  922MOL0     O21630   8.741   8.981   4.425 -1.3714 -0.6728 -0.6122
  922MOL0     C21631   8.883   9.012   4.427 -0.1573  0.3790  0.5117
  922MOL0     C21632   8.915   9.029   4.571 -1.0796 -0.0991  0.1421
  922MOL0     C21633   9.050   9.095   4.580  0.6092  0.8191  0.5210
  922MOL0     C21634   9.043   9.256   4.572 -0.4841  0.3921 -0.1726
  922MOL0     C21635   9.168   9.324   4.618 -0.2414 -0.0213 -0.2301
  922MOL0     C21636   9.268   9.383   4.648 -0.8986  0.2282  0.4545
  922MOL0     C21637   8.562   8.890   4.309 -0.3368 -0.0201  0.7482
  922MOL0     C21638   8.497   8.838   4.196 -0.5614 -0.0588  0.0140
  922MOL0     H21639   8.336   8.550   3.817 -1.4719 -3.9194 -1.4196
  922MOL0     H21640   8.269   8.440   3.622  1.1229 -0.8585  3.6527
  922MOL0     H21641   8.248   8.311   3.468  0.9972  0.3175  2.6823
  922MOL0     H21642   8.399   8.222   3.460  0.7754  2.5031  2.7357
  922MOL0     H21643   8.271   8.337   3.213 -0.6509 -1.6695 -1.8954
  922MOL0     H21644   8.243   8.171   3.277 -0.9565  2.0875  0.5716
  922MOL0     H21645   8.488   8.112   3.241 -2.3953 -0.2309 -0.0432
  922MOL0     H21646   8.520   8.279   3.222  0.3462 -0.8849  0.0463
  922MOL0     H21647   8.511   8.140   3.015 -0.7610  0.0831  0.2980
  922MOL0     H21648   8.337   8.113   3.033 -1.9294  1.6628 -3.5035
  922MOL0     H21649   8.430   8.391   3.027  1.1546 -0.4955 -0.8764
  922MOL0     H21650   8.271   8.331   2.994  0.3847 -1.2822 -0.5010
  922MOL0     H21651   8.346   8.219   2.783 -3.7939 -0.2315  2.3688
  922MOL0     H21652   8.510   8.286   2.823  0.7488  1.5011  2.2158
  922MOL0     H21653   8.375   8.518   2.816 -2.3003 -0.3631  2.6243
  922MOL0     H21654   8.391   8.420   2.654 -2.7932 -1.1527 -0.4899
  922MOL0     H21655   8.180   8.494   2.654  1.1143 -2.6835 -2.5079
  922MOL0     H21656   8.153   8.444   2.825  3.7864 -0.0507  1.2117
  922MOL0     H21657   8.066   8.204   2.856 -0.7581  1.8462 -0.5498
  922MOL0     H21658   7.831   8.009   2.744  1.3865 -0.0469  5.2272
  922MOL0     H21659   7.980   7.974   2.808 -0.7702  2.1184  2.0890
  922MOL0     H21660   8.050   7.850   2.610 -1.6037 -2.5470 -0.6912
  922MOL0     H21661   7.910   7.901   2.516  0.3009 -3.7081 -0.9522
  922MOL0     H21662   7.897   7.733   2.767  0.5241 -0.5080 -1.3575
  922MOL0     H21663   7.761   7.775   2.669 -0.6464  1.4065  0.1034
  922MOL0     H21664   7.875   7.652   2.481  2.2211  2.1861  0.1906
  922MOL0     H21665   7.809   7.552   2.621 -0.0449  0.8059  2.6687
  922MOL0     H21666   8.235   7.424   2.562 -0.6287 -0.5077  0.4014
  922MOL0     H21667   8.292   7.241   2.400  1.3862  0.8757  5.7681
  922MOL0     H21668   8.110   6.806   2.183  0.6140 -0.9685 -0.6966
  922MOL0     H21669   8.161   6.667   2.016 -0.1010 -0.3752 -1.3579
  922MOL0     H21670   7.973   6.783   1.641 -0.3761  1.7023 -1.3959
  922MOL0     H21671   8.014   6.611   1.650 -0.4104  0.3380 -1.3262
  922MOL0     H21672   8.077   6.632   1.446 -1.8658 -0.6936  3.0990
  922MOL0     H21673   8.232   6.679   1.520  0.8387  0.8062 -1.0204
  922MOL0     H21674   8.192   6.912   1.497  0.0603 -0.2706  0.6484
  922MOL0     H21675   8.030   6.899   1.439 -0.2636  0.3388 -2.5077
  922MOL0     H21676   8.233   6.769   1.259 -0.0063  1.8766  0.7650
  922MOL0     H21677   8.053   6.801   1.262 -1.5021  1.2570  0.9995
  922MOL0     H21678   8.249   7.024   1.316  1.6559  0.6178 -2.0793
  922MOL0     H21679   8.097   7.039   1.233 -0.8049 -0.4253 -0.0832
  922MOL0     H21680   8.218   6.907   1.040  1.1888  1.1741 -2.6236
  922MOL0     H21681   8.363   6.936   1.126 -1.2411 -0.3983  2.5635
  922MOL0     H21682   8.167   7.170   1.038 -0.2688  1.0932  1.5247
  922MOL0     H21683   8.324   7.176   1.110 -0.3376 -1.2137  0.1881
  922MOL0     H21684   8.257   7.051   0.837 -0.7573  1.3315  0.6824
  922MOL0     H21685   8.418   7.072   0.895  1.2294 -0.3517  2.0250
  922MOL0     H21686   8.047   6.993   1.723  0.2160  0.5393  1.5381
  922MOL0     H21687   7.964   7.122   1.916 -2.7324 -0.9808  0.4192
  922MOL0     H21688   7.867   7.241   2.294 -0.6398  1.1688  0.3198
  922MOL0     H21689   7.836   7.435   2.433  0.5781  2.3383  2.7196
  922MOL0     H21690   8.636   8.570   3.429  2.5667  0.4920  2.9019
  922MOL0     H21691   8.708   8.672   3.650 -0.8286  1.0741 -1.1790
  922MOL0     H21692   8.777   8.782   4.010  0.3671 -0.5709  0.7304
  922MOL0     H21693   8.883   8.900   4.200  0.5032  0.7139  0.7648
  922MOL0     H21694   8.918   9.095   4.366  0.0652 -0.1261 -0.0563
  922MOL0     H21695   8.949   8.931   4.395  0.8749  2.3747 -2.8770
  922MOL0     H21696   8.847   9.100   4.619  0.5777  2.2899 -0.8304
  922MOL0     H21697   8.908   8.932   4.620 -1.0215 -0.0182  0.3132
  922MOL0     H21698   9.119   9.043   4.513  0.0776  1.0891 -0.2427
  922MOL0     H21699   9.085   9.068   4.680  2.1727 -0.1997 -0.2563
  922MOL0     H21700   9.033   9.288   4.468  0.8718 -2.9895 -1.4714
  922MOL0     H21701   8.964   9.297   4.636 -1.3288  0.4575 -1.2212
  922MOL0     H21702   9.358   9.432   4.679  0.9548 -1.0774 -2.4406
  922MOL0     H21703   8.490   8.920   4.384 -2.3101 -1.8982 -0.2872
  922MOL0     H21704   8.389   8.835   4.185 -0.5150 -1.8295 -0.2910
  923MOL0     O21705   4.199   6.375   4.868  0.1695  0.3393 -0.2371
  923MOL0     C21706   4.098   6.448   4.895 -0.2493 -0.0091  0.1856
  923MOL0     O21707   4.087   6.579   4.854 -0.0727  0.1082 -0.3765
  923MOL0     C21708   4.184   6.619   4.775  0.8014 -0.3907 -1.0994
  923MOL0     C21709   4.194   6.572   4.644  0.3105 -0.4892  0.8566
  923MOL0     C21710   4.280   6.636   4.554 -0.3302 -0.2550  0.5261
  923MOL0     C21711   4.361   6.750   4.592 -0.9341  0.5672  0.8109
  923MOL0     O21712   4.435   6.809   4.495 -0.2515  0.4914 -0.4883
  923MOL0     C21713   4.554   6.753   4.442 -0.3441  0.0078 -0.7846
  923MOL0     C21714   4.621   6.834   4.338  1.0239  0.5422  0.2123
  923MOL0     C21715   4.766   6.801   4.314  0.0086  0.2361 -0.7627
  923MOL0     C21716   4.866   6.846   4.426  0.0794  1.3333  0.3632
  923MOL0     C21717   5.006   6.878   4.366 -0.2617  0.0357  0.2742
  923MOL0     C21718   5.062   6.761   4.272 -0.2541 -0.6060 -0.5323
  923MOL0     C21719   5.112   6.626   4.349  0.4243 -0.0488  0.5367
  923MOL0     C21720   5.179   6.527   4.253 -0.8456  0.1017 -0.6432
  923MOL0     N21721   5.110   6.516   4.123 -0.3831 -0.3185  0.5893
  923MOL0     C21722   4.983   6.466   4.095  0.3740 -0.6302  0.2155
  923MOL0     C21723   4.966   6.488   3.960  0.2667 -0.4823 -0.3684
  923MOL0     C21724   4.861   6.447   3.866 -0.0028 -0.0042 -0.4105
  923MOL0     C21725   4.908   6.342   3.769 -0.0790  0.3405  0.6545
  923MOL0     C21726   4.950   6.201   3.839  1.2353 -0.0367 -0.2903
  923MOL0     C21727   4.948   6.089   3.726  0.2308 -0.6082 -0.8189
  923MOL0     O21728   4.970   5.951   3.774  0.5645  0.8620  0.4064
  923MOL0     C21729   4.964   5.837   3.691  0.6635 -0.6812  0.2290
  923MOL0     C21730   4.971   5.707   3.753 -0.9747 -0.7103  0.1054
  923MOL0     C21731   4.954   5.586   3.690 -0.4172 -0.0449  0.6728
  923MOL0     C21732   4.932   5.579   3.551  0.7952  0.2096  0.2631
  923MOL0     C21733   4.937   5.456   3.478  0.6348  0.0847  0.0143
  923MOL0     O21734   5.003   5.355   3.524 -0.8904 -0.0944  0.7484
  923MOL0     C21735   5.021   5.244   3.449 -0.7252  0.9390  0.4258
  923MOL0     C21736   5.151   5.193   3.424 -0.0846  0.3129 -0.1373
  923MOL0     C21737   5.168   5.094   3.326 -0.2536  1.0526 -0.1873
  923MOL0     C21738   5.061   5.014   3.282  0.3028 -0.7284 -0.2112
  923MOL0     O21739   5.093   4.909   3.202 -0.2851  1.0371 -0.0335
  923MOL0     C21740   4.993   4.823   3.144  0.8265  0.0249  0.4171
  923MOL0     C21741   5.079   4.727   3.065 -0.3490  0.5898  0.3204
  923MOL0     C21742   5.140   4.614   3.150 -0.4143 -0.5798 -0.7146
  923MOL0     C21743   5.259   4.552   3.077 -0.7388 -0.1205 -0.0028
  923MOL0     C21744   5.296   4.430   3.155  0.2232  1.7319  0.0187
  923MOL0     C21745   5.405   4.346   3.085 -0.6249 -0.5719 -1.0478
  923MOL0     C21746   5.470   4.244   3.172  1.2815 -0.0986  0.1176
  923MOL0     C21747   5.615   4.214   3.131  0.1598 -0.3664  0.2398
  923MOL0    Cl21748   5.627   4.178   2.959  0.3248  0.3102 -0.0889
  923MOL0     C21749   4.932   5.064   3.306 -1.5078 -0.3109  0.8283
  923MOL0     C21750   4.916   5.175   3.383 -0.4566 -0.7418 -0.9059
  923MOL0     O21751   4.862   5.453   3.378  0.4484  0.5032  0.8051
  923MOL0     C21752   4.907   5.708   3.491  0.1241  0.6062 -0.2775
  923MOL0     C21753   4.931   5.838   3.555 -0.6890  0.1564  0.6410
  923MOL0     N21754   5.074   6.555   3.908 -0.5207 -0.2759 -0.6450
  923MOL0     N21755   5.156   6.581   4.005  0.7944 -0.5336 -0.5519
  923MOL0     C21756   4.354   6.793   4.722 -0.0486  0.6531  0.1157
  923MOL0     C21757   4.269   6.728   4.809  1.0048  0.4372  0.5760
  923MOL0     C21758   4.005   6.401   5.005 -0.3550  0.1951 -0.2945
  923MOL0     C21759   4.031   6.299   5.099 -1.5557  0.4011  0.6671
  923MOL0     C21760   3.922   6.244   5.175 -0.1679 -0.1317 -0.0816
  923MOL0     C21761   3.798   6.309   5.172  0.3154  0.2536  0.9886
  923MOL0     O21762   3.686   6.253   5.219  0.0471 -0.1667  0.4388
  923MOL0     C21763   3.659   6.291   5.361  0.2828 -0.2694 -0.6838
  923MOL0     C21764   3.557   6.412   5.355 -0.2251 -0.3970  0.4556
  923MOL0     C21765   3.411   6.404   5.302  0.4321  0.7674  0.0048
  923MOL0     C21766   3.315   6.327   5.406 -0.7089 -0.7033  0.1964
  923MOL0     C21767   3.284   6.414   5.519 -0.1053 -0.3844 -0.1777
  923MOL0     C21768   3.276   6.494   5.616 -0.7851  0.5177 -0.0809
  923MOL0     C21769   3.778   6.422   5.096 -0.7191 -0.8068 -0.2475
  923MOL0     C21770   3.884   6.471   5.019 -0.3819 -0.1034  0.0917
  923MOL0     H21771   4.132   6.492   4.606  1.6368  0.1464 -3.2010
  923MOL0     H21772   4.295   6.604   4.452  1.4072  0.6890  0.4424
  923MOL0     H21773   4.510   6.661   4.402 -2.3517  0.9889 -0.9870
  923MOL0     H21774   4.622   6.736   4.526 -0.7840  0.9511 -0.2159
  923MOL0     H21775   4.616   6.940   4.366 -3.7291  0.0088  2.3551
  923MOL0     H21776   4.567   6.831   4.243 -1.0557  1.0258  1.3054
  923MOL0     H21777   4.797   6.868   4.233  1.7963 -1.3846 -1.5075
  923MOL0     H21778   4.785   6.695   4.291  2.4628  0.4219  0.1254
  923MOL0     H21779   4.820   6.939   4.461 -4.4528 -1.0277  1.3984
  923MOL0     H21780   4.867   6.772   4.507 -1.4143  0.7794 -0.0961
  923MOL0     H21781   5.080   6.890   4.445  0.3657 -1.1082 -0.1065
  923MOL0     H21782   4.997   6.974   4.314 -2.2411 -0.5981 -0.6470
  923MOL0     H21783   5.156   6.798   4.229  1.0431 -3.2831 -0.2478
  923MOL0     H21784   4.985   6.745   4.196 -1.1185  2.0462 -0.3063
  923MOL0     H21785   5.180   6.658   4.429 -1.4924  1.9765  1.4931
  923MOL0     H21786   5.026   6.570   4.389  0.7888 -1.2217 -0.2764
  923MOL0     H21787   5.189   6.431   4.304 -1.9888  0.8505  1.0671
  923MOL0     H21788   5.277   6.566   4.225 -2.4207  3.0455 -2.5943
  923MOL0     H21789   4.925   6.398   4.156 -1.3094 -0.0555 -0.6870
  923MOL0     H21790   4.828   6.539   3.818 -0.2406  0.8688  1.3522
  923MOL0     H21791   4.778   6.406   3.924  1.3802  1.6319  2.9695
  923MOL0     H21792   4.996   6.389   3.723  2.0688 -2.1017  1.9899
  923MOL0     H21793   4.822   6.323   3.705 -1.2609 -0.7278  2.4878
  923MOL0     H21794   5.041   6.193   3.900  2.5902  2.2534 -1.8947
  923MOL0     H21795   4.869   6.174   3.907  2.1342  1.4762  1.4677
  923MOL0     H21796   5.020   6.116   3.647 -2.4828  2.4321 -2.5090
  923MOL0     H21797   4.848   6.093   3.682  0.0640  3.2939 -0.4430
  923MOL0     H21798   4.996   5.707   3.858  1.3235 -0.2573 -0.3818
  923MOL0     H21799   4.957   5.505   3.761  2.1064  0.0065  0.7377
  923MOL0     H21800   5.244   5.238   3.456 -0.9842  1.4391  0.9865
  923MOL0     H21801   5.267   5.060   3.298 -1.6688 -2.1807 -1.8597
  923MOL0     H21802   4.923   4.878   3.080  0.8203 -0.2001  0.2292
  923MOL0     H21803   4.937   4.773   3.224  0.1858  2.2572  1.4486
  923MOL0     H21804   5.154   4.774   3.002 -0.6334 -1.7479 -1.9155
  923MOL0     H21805   5.014   4.675   2.994  0.4643  1.6015 -1.2241
  923MOL0     H21806   5.066   4.540   3.180  1.5857 -2.4566 -0.1708
  923MOL0     H21807   5.164   4.664   3.244  1.0967 -0.2652 -1.2401
  923MOL0     H21808   5.230   4.527   2.974 -1.4774  0.1445  0.1345
  923MOL0     H21809   5.342   4.624   3.081  0.2670 -1.2694  0.3258
  923MOL0     H21810   5.222   4.357   3.189  1.1796  0.3422 -0.7802
  923MOL0     H21811   5.343   4.462   3.248  1.3641 -1.5934  0.7414
  923MOL0     H21812   5.483   4.408   3.040  3.3507 -2.5411  2.3792
  923MOL0     H21813   5.375   4.291   2.995  0.2281 -2.4896 -0.2122
  923MOL0     H21814   5.470   4.270   3.278 -1.0310  2.5079 -0.4235
  923MOL0     H21815   5.392   4.167   3.173  0.0238  1.1405  0.6238
  923MOL0     H21816   5.653   4.135   3.196  1.3626  1.4318  1.7933
  923MOL0     H21817   5.674   4.305   3.148 -1.4162  1.1138 -1.6317
  923MOL0     H21818   4.843   5.021   3.262 -0.7546  0.2294 -1.3557
  923MOL0     H21819   4.812   5.207   3.385 -0.9714 -2.3537 -0.8710
  923MOL0     H21820   4.875   5.715   3.388  0.4756  0.7627 -0.3783
  923MOL0     H21821   4.906   5.931   3.505  1.7039  0.6621  0.2771
  923MOL0     H21822   4.408   6.880   4.758 -2.6785  2.0032  1.0533
  923MOL0     H21823   4.252   6.779   4.903 -4.3410 -3.1609  2.0284
  923MOL0     H21824   4.131   6.258   5.102 -2.4949 -1.9861  1.8340
  923MOL0     H21825   3.932   6.155   5.236 -1.3452 -2.0133 -2.4341
  923MOL0     H21826   3.748   6.322   5.416  0.1772  1.1600 -1.2578
  923MOL0     H21827   3.617   6.215   5.427 -0.3909  2.5769  2.4482
  923MOL0     H21828   3.555   6.436   5.462  1.5971  0.0114  0.4461
  923MOL0     H21829   3.617   6.491   5.309  1.6287 -0.9051  1.8597
  923MOL0     H21830   3.413   6.338   5.215  1.4708 -1.2611  1.4860
  923MOL0     H21831   3.374   6.504   5.281 -1.2770  0.4788  1.4478
  923MOL0     H21832   3.227   6.304   5.345  0.3258 -1.0169 -1.2383
  923MOL0     H21833   3.350   6.227   5.434 -1.1657 -0.9640 -0.1546
  923MOL0     H21834   3.253   6.557   5.699  0.7872 -0.6001  1.2527
  923MOL0     H21835   3.692   6.488   5.100  0.3505  0.6639 -0.4062
  923MOL0     H21836   3.869   6.555   4.951 -2.1809  1.2775  2.0571
  924MOL0     O21837   0.268   9.286   8.947  0.8885  0.0863 -0.2498
  924MOL0     C21838   0.377   9.280   8.908  0.5110  0.4424 -0.6566
  924MOL0     O21839   0.473   9.179   8.927  0.4469  0.3425  0.9817
  924MOL0     C21840   0.462   9.083   9.023 -0.3895 -0.7597 -0.2488
  924MOL0     C21841   0.405   9.116   9.146 -0.0502  1.0043 -0.5263
  924MOL0     C21842   0.426   9.027   9.263 -0.1873  0.2174  0.8960
  924MOL0     C21843   0.489   8.906   9.243 -0.2655 -0.0801 -0.3080
  924MOL0     O21844   0.525   8.823   9.346 -0.0971 -0.0585  0.3684
  924MOL0     C21845   0.431   8.788   9.451 -1.0916  0.4467 -0.0369
  924MOL0     C21846   0.507   8.703   9.551  0.9264  0.0620 -1.2504
  924MOL0     C21847   0.396   8.683   9.660  0.3423  0.7039 -0.2260
  924MOL0     C21848   0.423   8.563   9.744  0.0580 -0.5242 -0.8463
  924MOL0     C21849   0.312   8.554   9.851 -0.9080 -0.0267 -1.1633
  924MOL0     C21850   0.344   8.435   9.944  0.1191  0.1029 -0.8826
  924MOL0     C21851   0.338   8.286   9.887  0.3087 -0.4574 -0.4388
  924MOL0     C21852   0.375   8.187   9.997 -0.2159  1.3135 -0.5081
  924MOL0     N21853   0.523   8.167  10.005  0.5541  0.7804 -0.1434
  924MOL0     C21854   0.601   8.075   9.941 -0.5645 -0.7116  0.6395
  924MOL0     C21855   0.730   8.108   9.971  1.2427 -0.1623  0.2444
  924MOL0     C21856   0.869   8.057   9.937 -0.5756 -0.5487  0.8000
  924MOL0     C21857   0.978   8.144  10.009  0.0892 -0.0588  0.5672
  924MOL0     C21858   1.111   8.083   9.970 -0.3847 -0.4957  0.1456
  924MOL0     C21859   1.236   8.126  10.054  0.3482 -0.2056  1.0610
  924MOL0     O21860   1.218   8.104  10.193 -0.5631  0.8610 -0.0863
  924MOL0     C21861   1.319   8.150  10.277 -0.5843 -0.4240  0.0563
  924MOL0     C21862   1.437   8.211  10.232 -0.4720 -0.6399  0.1451
  924MOL0     C21863   1.532   8.251  10.325  0.5726  0.1388  0.3617
  924MOL0     C21864   1.518   8.207  10.461 -0.2702 -0.9677 -0.9514
  924MOL0     C21865   1.631   8.241  10.550 -0.9332 -0.4410  0.0420
  924MOL0     O21866   1.649   8.157  10.662 -0.0117 -0.7908  0.0232
  924MOL0     C21867   1.741   8.192  10.764  1.6799 -0.0808 -0.9683
  924MOL0     C21868   1.762   8.328  10.802 -0.9549  0.6840 -0.0952
  924MOL0     C21869   1.861   8.361  10.904  0.8254  0.8645 -0.2577
  924MOL0     C21870   1.927   8.261  10.975  0.3773 -1.1642  0.3293
  924MOL0     O21871   2.009   8.305  11.079  0.3227  0.2930  0.5801
  924MOL0     C21872   2.052   8.207  11.175 -0.3207 -0.2186 -0.7375
  924MOL0     C21873   2.124   8.265  11.294 -0.7381  0.0657  0.0084
  924MOL0     C21874   2.159   8.165  11.395 -0.4252 -0.0806 -0.5382
  924MOL0     C21875   2.267   8.213  11.490 -0.1590  0.1629  0.2651
  924MOL0     C21876   2.273   8.122  11.623  0.0860  1.8497 -0.8373
  924MOL0     C21877   2.138   8.078  11.678 -0.2913 -0.0713 -0.4833
  924MOL0     C21878   2.155   8.038  11.830 -0.3091  0.4332 -0.7356
  924MOL0     C21879   2.029   7.956  11.874 -0.4550  0.0048 -0.6340
  924MOL0    Cl21880   2.026   7.805  11.790  0.4076  0.3321  0.0691
  924MOL0     C21881   1.903   8.121  10.934  1.1311  0.3679 -0.1037
  924MOL0     C21882   1.807   8.092  10.828 -1.0670 -0.4329  0.6483
  924MOL0     O21883   1.697   8.345  10.531  0.6876  0.5288  0.5354
  924MOL0     C21884   1.407   8.135  10.500 -0.0745 -0.0787 -0.6930
  924MOL0     C21885   1.307   8.112  10.410  0.6845  1.4579 -0.3136
  924MOL0     N21886   0.719   8.203  10.077  0.5079  0.4495  0.1680
  924MOL0     N21887   0.593   8.243  10.090  0.3699  0.2388  0.1197
  924MOL0     C21888   0.534   8.872   9.112 -0.1093  0.7596  0.1172
  924MOL0     C21889   0.518   8.958   9.004  0.3746 -1.2537 -0.4833
  924MOL0     C21890   0.436   9.404   8.856 -0.0504  0.1082  0.0106
  924MOL0     C21891   0.577   9.426   8.877 -0.1800 -0.0106  0.4018
  924MOL0     C21892   0.637   9.561   8.872 -0.3434 -0.5298  0.2609
  924MOL0     C21893   0.559   9.669   8.830  0.5787 -0.6062  0.0392
  924MOL0     O21894   0.623   9.790   8.825  0.5689  0.3211  0.5844
  924MOL0     C21895   0.546   9.915   8.801  0.4594 -0.4413 -0.7451
  924MOL0     C21896   0.515   9.936   8.649 -0.1637 -0.4330 -0.3937
  924MOL0     C21897   0.510  10.074   8.589  0.3125 -0.5069 -0.0186
  924MOL0     C21898   0.635  10.149   8.617 -0.1100 -0.3709 -0.2742
  924MOL0     C21899   0.659  10.251   8.510 -0.5230  0.9504  0.2687
  924MOL0     C21900   0.685  10.338   8.441  0.3140 -0.0617 -0.1186
  924MOL0     C21901   0.419   9.651   8.810 -1.0585  0.7745  0.8634
  924MOL0     C21902   0.363   9.515   8.816 -0.1020  0.1993  0.2944
  924MOL0     H21903   0.363   9.214   9.166 -2.2782  0.0914 -0.4262
  924MOL0     H21904   0.403   9.056   9.365 -1.1452  1.7033  0.2992
  924MOL0     H21905   0.349   8.727   9.412  0.7559 -1.3314 -1.3897
  924MOL0     H21906   0.385   8.877   9.495  0.3682  2.5434 -2.4330
  924MOL0     H21907   0.584   8.765   9.597 -0.9717  0.5064  1.6517
  924MOL0     H21908   0.541   8.607   9.512 -1.2699 -0.3809 -2.2176
  924MOL0     H21909   0.291   8.681   9.631  0.3725  1.2665 -0.3882
  924MOL0     H21910   0.397   8.769   9.728 -0.8323 -1.1848  2.3609
  924MOL0     H21911   0.413   8.472   9.684  1.9433 -2.3052  1.3315
  924MOL0     H21912   0.523   8.566   9.788  0.4253  0.3745 -1.6998
  924MOL0     H21913   0.212   8.531   9.813 -2.4870  3.2716  0.5301
  924MOL0     H21914   0.310   8.641   9.918  0.1856 -0.7173 -0.2037
  924MOL0     H21915   0.284   8.441  10.036  2.5454  0.9405  0.7671
  924MOL0     H21916   0.442   8.459   9.986 -0.6568 -0.6065  1.5165
  924MOL0     H21917   0.234   8.265   9.858 -0.6250  1.3270  1.3491
  924MOL0     H21918   0.409   8.294   9.804 -0.3791  3.7702 -0.8754
  924MOL0     H21919   0.318   8.094   9.987  3.0332 -0.6686 -2.3951
  924MOL0     H21920   0.354   8.243  10.088 -1.6049  0.0954 -0.0365
  924MOL0     H21921   0.570   7.990   9.881  1.2356 -1.9837  1.3910
  924MOL0     H21922   0.886   8.059   9.829  1.2163 -2.1009  1.0107
  924MOL0     H21923   0.879   7.950   9.953  2.2241 -0.1105  2.6189
  924MOL0     H21924   0.959   8.152  10.116 -1.5918  1.3416  0.2190
  924MOL0     H21925   0.976   8.252   9.987  2.0322 -0.0363  0.3232
  924MOL0     H21926   1.100   7.975   9.985 -1.3660 -0.6333 -1.3772
  924MOL0     H21927   1.132   8.100   9.864 -1.1553 -0.3550  0.0110
  924MOL0     H21928   1.239   8.234  10.036 -1.7230 -0.4036 -0.9005
  924MOL0     H21929   1.331   8.090  10.013 -0.0210  0.5229 -0.4772
  924MOL0     H21930   1.466   8.221  10.128 -4.3226  0.8567 -0.9601
  924MOL0     H21931   1.616   8.301  10.278 -0.0268  0.8812  0.0547
  924MOL0     H21932   1.703   8.408  10.758 -2.6049 -0.2959  0.2566
  924MOL0     H21933   1.883   8.464  10.932 -0.0009  0.4313  2.2412
  924MOL0     H21934   2.107   8.125  11.128 -0.1405 -1.7474  1.9310
  924MOL0     H21935   1.964   8.163  11.223 -0.0275 -0.2157 -0.1859
  924MOL0     H21936   2.059   8.341  11.338 -0.2480 -1.5667  3.9874
  924MOL0     H21937   2.215   8.303  11.248 -0.4425 -0.2006  0.3626
  924MOL0     H21938   2.193   8.073  11.346  0.2471 -0.2888  0.2820
  924MOL0     H21939   2.068   8.143  11.451 -1.5469 -2.5746 -3.1267
  924MOL0     H21940   2.368   8.212  11.447  1.6492 -6.7797  3.1851
  924MOL0     H21941   2.241   8.312  11.527 -0.8041 -0.1165  0.5764
  924MOL0     H21942   2.316   8.188  11.698  0.3991  1.9214 -1.0759
  924MOL0     H21943   2.334   8.031  11.616 -1.1263  0.8905  0.4782
  924MOL0     H21944   2.099   7.991  11.624 -1.3669  0.2938 -0.3233
  924MOL0     H21945   2.069   8.163  11.667 -1.6528 -0.7135  2.1054
  924MOL0     H21946   2.245   7.976  11.835 -0.6360 -0.2470 -2.4127
  924MOL0     H21947   2.170   8.134  11.881  1.0712 -1.2903  2.3976
  924MOL0     H21948   1.943   8.021  11.859 -0.0281  0.7876  0.1921
  924MOL0     H21949   2.047   7.931  11.979  2.2329  0.0252 -1.0116
  924MOL0     H21950   1.965   8.041  10.972  1.6626  0.6977 -0.2659
  924MOL0     H21951   1.817   7.989  10.794  1.5432 -0.1946  0.5162
  924MOL0     H21952   1.399   8.125  10.608 -0.0747  0.0939 -0.6765
  924MOL0     H21953   1.226   8.059  10.459  0.5991 -0.0851 -2.0079
  924MOL0     H21954   0.590   8.780   9.102 -0.0982  0.7560  0.2053
  924MOL0     H21955   0.566   8.937   8.909  1.3639  1.3458 -0.6503
  924MOL0     H21956   0.643   9.350   8.918 -1.4852 -1.7597 -0.6068
  924MOL0     H21957   0.737   9.594   8.897 -0.2605  0.5925 -1.4267
  924MOL0     H21958   0.602   9.993   8.854 -0.0423  0.8972 -2.1014
  924MOL0     H21959   0.456   9.902   8.862  2.8162 -1.4704  2.8424
  924MOL0     H21960   0.599   9.888   8.598  0.9912  2.2344 -1.2002
  924MOL0     H21961   0.424   9.880   8.627 -1.1122  1.0864 -0.4807
  924MOL0     H21962   0.427  10.134   8.628  0.6639 -0.1085  0.1189
  924MOL0     H21963   0.485  10.064   8.483 -0.5680 -0.0946  0.1380
  924MOL0     H21964   0.628  10.201   8.713 -0.4375  2.1391 -1.5717
  924MOL0     H21965   0.723  10.083   8.611  0.1919 -0.3034  2.3855
  924MOL0     H21966   0.715  10.428   8.390 -3.4528  3.1120  2.6425
  924MOL0     H21967   0.345   9.722   8.775 -2.5399 -1.2802 -0.4734
  924MOL0     H21968   0.255   9.510   8.806 -0.1528 -5.4752  0.2472
  925MOL0     O21969   4.396   0.235   0.494  0.5717 -0.1922 -1.1997
  925MOL0     C21970   4.294   0.222   0.423  0.1659  1.4234  0.4604
  925MOL0     O21971   4.179   0.293   0.436 -0.1345 -0.3933 -0.5665
  925MOL0     C21972   4.177   0.398   0.533 -0.3443 -0.4029  0.9340
  925MOL0     C21973   4.203   0.367   0.667 -0.2288 -0.6814 -0.5328
  925MOL0     C21974   4.187   0.467   0.767 -0.3051  0.7229  1.0354
  925MOL0     C21975   4.142   0.595   0.735 -0.0746  0.2888  0.2267
  925MOL0     O21976   4.144   0.692   0.827 -0.1096  0.8068 -0.2978
  925MOL0     C21977   4.058   0.797   0.818  0.5600  0.4580  0.2065
  925MOL0     C21978   4.125   0.924   0.864 -0.3278  1.0293  0.7011
  925MOL0     C21979   4.069   1.051   0.813 -0.7125  0.0763 -0.1497
  925MOL0     C21980   4.137   1.107   0.694  0.7359 -0.5786  1.0636
  925MOL0     C21981   4.130   1.019   0.561 -0.8243  0.8376 -0.3004
  925MOL0     C21982   4.216   1.068   0.437  0.3030  0.0789 -0.1577
  925MOL0     C21983   4.181   1.002   0.308 -0.3172 -0.1898 -0.0596
  925MOL0     C21984   4.249   0.859   0.310  0.4190  0.0599  0.3971
  925MOL0     N21985   4.212   0.787   0.182 -1.3684  0.1461 -0.0189
  925MOL0     C21986   4.255   0.826   0.063 -0.5463 -0.2163  0.1788
  925MOL0     C21987   4.210   0.732  -0.019  0.4493  0.5439 -0.0766
  925MOL0     C21988   4.214   0.721  -0.166 -0.2427 -0.2815  0.0448
  925MOL0     C21989   4.303   0.833  -0.242  0.5511  0.2145 -0.2607
  925MOL0     C21990   4.457   0.822  -0.242  0.2577  0.1983 -0.6327
  925MOL0     C21991   4.526   0.893  -0.369 -0.0314 -0.2985  0.9236
  925MOL0     O21992   4.499   0.824  -0.491  0.4143  1.2768  0.6368
  925MOL0     C21993   4.556   0.879  -0.602  0.2039 -0.7048 -0.8729
  925MOL0     C21994   4.483   0.932  -0.711 -0.0587  0.3042  0.9254
  925MOL0     C21995   4.559   1.002  -0.809  0.3841  0.2058 -0.2260
  925MOL0     C21996   4.697   1.025  -0.799  0.1185 -0.4123  0.4062
  925MOL0     C21997   4.758   1.113  -0.900 -0.3381  0.1413  0.4783
  925MOL0     O21998   4.682   1.198  -0.969 -0.0478 -0.0258  0.0513
  925MOL0     C21999   4.732   1.298  -1.048  0.0653  0.1521  0.7938
  925MOL0     C22000   4.631   1.397  -1.064  0.0338 -0.3208  0.4877
  925MOL0     C22001   4.653   1.513  -1.142 -0.6629  0.4060  0.1325
  925MOL0     C22002   4.780   1.540  -1.204 -0.5429  0.6212 -0.1473
  925MOL0     O22003   4.819   1.642  -1.294 -0.0754 -0.0262 -0.0955
  925MOL0     C22004   4.731   1.756  -1.305 -0.1306  0.2839 -0.3044
  925MOL0     C22005   4.806   1.877  -1.372  0.1566 -0.6731  0.4634
  925MOL0     C22006   4.714   2.007  -1.370  0.3170  0.1852  0.3651
  925MOL0     C22007   4.778   2.122  -1.423 -0.0849  0.3049  0.1886
  925MOL0     C22008   4.667   2.224  -1.482  0.1192  0.3616  0.8243
  925MOL0     C22009   4.724   2.357  -1.540 -0.4597  0.1295 -0.6497
  925MOL0     C22010   4.627   2.442  -1.624  0.5245 -0.0410 -0.0099
  925MOL0     C22011   4.674   2.586  -1.633 -1.7487  0.6892  0.5623
  925MOL0    Cl22012   4.563   2.694  -1.722  0.0146 -0.5209 -0.2119
  925MOL0     C22013   4.879   1.438  -1.194  0.2129  0.5076 -0.6698
  925MOL0     C22014   4.850   1.319  -1.116 -0.1898  0.0658  0.2885
  925MOL0     O22015   4.878   1.100  -0.913  0.0697 -1.1172  1.0722
  925MOL0     C22016   4.760   0.968  -0.693 -0.0697  0.1406 -0.7894
  925MOL0     C22017   4.693   0.888  -0.599  0.4629  0.6701  0.7137
  925MOL0     N22018   4.130   0.647   0.064 -0.1680 -0.0262  1.3648
  925MOL0     N22019   4.133   0.679   0.186 -0.0991  1.0943  0.0959
  925MOL0     C22020   4.131   0.622   0.590 -0.8038  0.6086 -0.5289
  925MOL0     C22021   4.145   0.523   0.490  0.1771  0.3791 -0.1504
  925MOL0     C22022   4.307   0.122   0.312 -0.8193 -0.3299 -0.7224
  925MOL0     C22023   4.431   0.096   0.248  0.3395  0.3692  0.5388
  925MOL0     C22024   4.447   0.009   0.145  0.5048  0.4928  0.8738
  925MOL0     C22025   4.341  -0.072   0.107  0.5371 -0.9825  0.6389
  925MOL0     O22026   4.353  -0.189   0.025  0.4779 -0.5423 -0.9923
  925MOL0     C22027   4.442  -0.166  -0.083  0.3809  1.0145 -0.6158
  925MOL0     C22028   4.423  -0.280  -0.177  0.4442  0.6422  0.0637
  925MOL0     C22029   4.485  -0.423  -0.121  0.8126 -0.5115  0.3815
  925MOL0     C22030   4.629  -0.439  -0.125  0.8856  0.3943 -0.1273
  925MOL0     C22031   4.673  -0.489  -0.265 -0.0316 -0.0175  0.0383
  925MOL0     C22032   4.691  -0.522  -0.376  0.3854  0.6092  0.5765
  925MOL0     C22033   4.214  -0.050   0.166 -0.4544  0.3461 -0.0843
  925MOL0     C22034   4.200   0.054   0.262  0.2893 -0.3537  0.1151
  925MOL0     H22035   4.222   0.268   0.707  0.3141 -0.9029 -1.3241
  925MOL0     H22036   4.215   0.430   0.865  0.9548 -1.0376  0.0654
  925MOL0     H22037   3.962   0.783   0.868 -1.7563  2.4531 -3.2202
  925MOL0     H22038   4.032   0.806   0.712  3.3843 -1.4611 -0.7540
  925MOL0     H22039   4.233   0.922   0.852 -0.5062 -1.8725 -1.6812
  925MOL0     H22040   4.097   0.925   0.970 -1.0267 -0.1392  0.5467
  925MOL0     H22041   4.079   1.133   0.885 -3.4062  2.3262 -2.1071
  925MOL0     H22042   3.963   1.036   0.788 -0.9465 -0.0141  0.8675
  925MOL0     H22043   4.092   1.203   0.666 -2.0702 -1.6387  1.5920
  925MOL0     H22044   4.236   1.125   0.736 -0.4638 -2.1453  5.0749
  925MOL0     H22045   4.026   1.005   0.529 -1.0110  2.5151 -0.5438
  925MOL0     H22046   4.161   0.920   0.593  0.2183  1.2775  0.0744
  925MOL0     H22047   4.324   1.063   0.454  0.3972  3.3029  0.9009
  925MOL0     H22048   4.183   1.169   0.412 -2.4940 -1.2472 -2.3740
  925MOL0     H22049   4.072   0.998   0.300 -0.4027  2.2008 -0.7373
  925MOL0     H22050   4.218   1.063   0.225 -3.2944  0.1686 -1.2321
  925MOL0     H22051   4.203   0.807   0.395 -0.4769  1.9114  1.1128
  925MOL0     H22052   4.355   0.878   0.325 -0.0722  2.0316  1.8228
  925MOL0     H22053   4.325   0.902   0.030 -2.4234  0.6838 -2.0574
  925MOL0     H22054   4.109   0.718  -0.199 -0.6586  3.1506  0.7235
  925MOL0     H22055   4.238   0.622  -0.205 -0.5377 -0.7765  1.0735
  925MOL0     H22056   4.269   0.931  -0.208 -4.5997 -1.5015  0.5375
  925MOL0     H22057   4.271   0.835  -0.346 -0.5886 -1.5119  0.0067
  925MOL0     H22058   4.489   0.863  -0.145 -0.9835  0.3042 -0.2488
  925MOL0     H22059   4.488   0.717  -0.236  0.5431  0.3320  0.6884
  925MOL0     H22060   4.632   0.886  -0.343  0.1891 -1.7389 -0.2365
  925MOL0     H22061   4.491   0.997  -0.374 -1.2405 -0.7359 -0.5836
  925MOL0     H22062   4.379   0.899  -0.715  0.6440 -2.2359  1.7164
  925MOL0     H22063   4.509   1.051  -0.893  1.3847 -1.6014 -1.9630
  925MOL0     H22064   4.533   1.383  -1.019 -1.1061  1.2015 -1.3540
  925MOL0     H22065   4.566   1.577  -1.133 -1.6969 -0.9856  0.4685
  925MOL0     H22066   4.685   1.787  -1.211 -0.7691  1.4633 -0.9734
  925MOL0     H22067   4.652   1.740  -1.379  0.5327  2.5114 -1.5950
  925MOL0     H22068   4.839   1.854  -1.474 -0.2449  2.7448 -0.5684
  925MOL0     H22069   4.900   1.893  -1.319 -0.3941 -2.2428  2.0004
  925MOL0     H22070   4.690   2.014  -1.264  1.1486 -1.4272  0.6963
  925MOL0     H22071   4.620   1.988  -1.424 -0.4826 -0.4795  1.9194
  925MOL0     H22072   4.842   2.180  -1.356 -0.2004  0.5518  0.0840
  925MOL0     H22073   4.837   2.085  -1.508  2.5178 -1.8329  2.7209
  925MOL0     H22074   4.594   2.245  -1.403  1.0875 -0.5058  1.9858
  925MOL0     H22075   4.613   2.173  -1.562 -0.3447 -0.1417  1.4502
  925MOL0     H22076   4.807   2.335  -1.607 -1.5591 -0.9954 -1.7048
  925MOL0     H22077   4.757   2.407  -1.448  3.3339 -2.6099 -0.2410
  925MOL0     H22078   4.640   2.400  -1.724 -2.0353  1.1804 -0.9345
  925MOL0     H22079   4.522   2.433  -1.597  1.0372 -4.1639  1.2926
  925MOL0     H22080   4.766   2.582  -1.693 -2.4233 -2.7141 -0.5055
  925MOL0     H22081   4.680   2.632  -1.534  0.3556  1.7085  0.0106
  925MOL0     H22082   4.973   1.452  -1.247  1.0597 -2.2419 -0.0263
  925MOL0     H22083   4.919   1.237  -1.105 -0.5791 -0.3087 -0.0227
  925MOL0     H22084   4.867   0.984  -0.686 -0.1185  0.9678 -1.8231
  925MOL0     H22085   4.750   0.850  -0.515  0.7332  1.6276  0.9856
  925MOL0     H22086   4.109   0.719   0.546 -1.1809  0.8305  0.1203
  925MOL0     H22087   4.136   0.538   0.382  1.1701 -1.5559 -0.5439
  925MOL0     H22088   4.519   0.143   0.289 -0.3900  1.3855  0.9617
  925MOL0     H22089   4.540   0.011   0.088  0.3121  1.3961  0.5753
  925MOL0     H22090   4.547  -0.148  -0.058  0.4028 -2.8564  3.3147
  925MOL0     H22091   4.409  -0.074  -0.132 -0.0523  0.3683 -1.5713
  925MOL0     H22092   4.315  -0.296  -0.189  0.8377 -1.7913 -0.7979
  925MOL0     H22093   4.457  -0.252  -0.277  2.8449  0.5672  0.7958
  925MOL0     H22094   4.445  -0.502  -0.185 -1.1178  3.2808 -3.6392
  925MOL0     H22095   4.443  -0.429  -0.020  2.3482 -0.5659  1.0467
  925MOL0     H22096   4.678  -0.347  -0.092 -1.8606  1.6353  0.8413
  925MOL0     H22097   4.650  -0.521  -0.056 -1.1723 -0.8227 -0.8564
  925MOL0     H22098   4.696  -0.556  -0.478 -0.8322 -0.1477  0.7505
  925MOL0     H22099   4.130  -0.105   0.123 -1.0057  0.5909  0.6584
  925MOL0     H22100   4.098   0.071   0.293 -0.5891 -2.3631 -1.4022
  926MOL0     O22101   2.078   7.886   6.404  0.0273  0.1383 -0.6885
  926MOL0     C22102   1.983   7.808   6.403 -0.3994 -0.3269  0.6515
  926MOL0     O22103   1.908   7.778   6.511  0.8919  0.0524  0.0414
  926MOL0     C22104   1.902   7.867   6.620  0.0149  1.1200  0.3408
  926MOL0     C22105   1.774   7.913   6.649 -0.5524 -0.2966 -0.8536
  926MOL0     C22106   1.767   7.989   6.764  0.6366 -0.0365 -0.3508
  926MOL0     C22107   1.872   8.026   6.842  0.4612  1.4700 -1.3839
  926MOL0     O22108   1.852   8.105   6.961  0.2807 -0.1471  1.1002
  926MOL0     C22109   1.728   8.184   6.972 -0.9504 -0.2116 -0.1080
  926MOL0     C22110   1.762   8.277   7.082  0.4264  0.3134 -0.4147
  926MOL0     C22111   1.874   8.383   7.038  0.3827  0.2823 -0.0622
  926MOL0     C22112   1.921   8.459   7.166 -0.3957  0.1172 -1.3343
  926MOL0     C22113   2.019   8.572   7.137  0.2638  0.7604 -0.0818
  926MOL0     C22114   2.146   8.527   7.089 -0.3749  0.9516  0.5560
  926MOL0     C22115   2.234   8.649   7.062  1.0149  0.3199 -0.5725
  926MOL0     C22116   2.369   8.622   7.001  1.0890 -0.0510  0.0592
  926MOL0     N22117   2.447   8.738   6.976  0.7797  0.1620  0.1984
  926MOL0     C22118   2.407   8.836   6.883  0.9760  0.0261  0.7381
  926MOL0     C22119   2.532   8.893   6.869  0.3679  0.2304 -0.1125
  926MOL0     C22120   2.568   8.991   6.757 -0.3191 -1.2294  1.5294
  926MOL0     C22121   2.716   9.017   6.719 -0.5176  0.1032 -0.0091
  926MOL0     C22122   2.787   8.896   6.664  0.3608  0.4500 -1.1265
  926MOL0     C22123   2.921   8.936   6.616 -0.9090  0.6421  0.0393
  926MOL0     O22124   3.011   8.978   6.719  0.5088 -0.2962  0.2844
  926MOL0     C22125   3.062   9.106   6.699  0.7382  0.3835 -0.0738
  926MOL0     C22126   2.990   9.215   6.744 -1.1543 -0.2386 -0.4558
  926MOL0     C22127   3.043   9.346   6.720  0.6775 -0.4651 -0.5375
  926MOL0     C22128   3.165   9.373   6.661  0.0854 -0.1093  0.0992
  926MOL0     C22129   3.212   9.517   6.668 -0.5348  0.5736 -0.3077
  926MOL0     O22130   3.173   9.587   6.779  0.9806  0.0802 -0.3308
  926MOL0     C22131   3.246   9.699   6.800 -0.1950 -0.2289  0.8101
  926MOL0     C22132   3.343   9.708   6.898 -0.2128 -0.1349  0.5311
  926MOL0     C22133   3.400   9.838   6.925  0.3647  0.4349 -1.0249
  926MOL0     C22134   3.363   9.944   6.845 -0.5864 -1.2021 -0.5232
  926MOL0     O22135   3.404  10.079   6.855  0.4036  0.1923 -0.4197
  926MOL0     C22136   3.489  10.114   6.963 -0.6615 -0.1226 -0.9396
  926MOL0     C22137   3.541  10.261   6.938  0.1169  0.2260  0.0380
  926MOL0     C22138   3.594  10.259   6.799  0.0060  1.0675 -0.1226
  926MOL0     C22139   3.703  10.360   6.795 -0.1481 -0.5712  0.1984
  926MOL0     C22140   3.778  10.376   6.672  0.0945  0.0573  0.5547
  926MOL0     C22141   3.696  10.405   6.542  0.1138 -0.3483 -0.2095
  926MOL0     C22142   3.665  10.274   6.462 -0.4889 -1.1589 -0.3034
  926MOL0     C22143   3.563  10.311   6.349 -0.0330  0.3989 -0.0296
  926MOL0    Cl22144   3.636  10.422   6.231  0.1048  0.2778  0.4756
  926MOL0     C22145   3.267   9.929   6.748 -0.4062  0.5450 -0.6878
  926MOL0     C22146   3.209   9.809   6.723  0.7352 -0.4897  0.6351
  926MOL0     O22147   3.256   9.563   6.565  0.6408 -0.4825  0.2726
  926MOL0     C22148   3.236   9.261   6.617 -0.3107  0.6877 -0.1496
  926MOL0     C22149   3.184   9.132   6.638 -0.2939 -1.0510 -0.0332
  926MOL0     N22150   2.634   8.838   6.943 -0.8135  0.7840  0.4815
  926MOL0     N22151   2.579   8.747   7.017  0.3646  0.3786 -0.3162
  926MOL0     C22152   1.999   7.980   6.809 -0.1167  0.2393 -0.0867
  926MOL0     C22153   2.015   7.905   6.696 -0.7623 -0.0502 -0.6906
  926MOL0     C22154   1.952   7.752   6.276 -0.2832 -0.2287  0.5823
  926MOL0     C22155   1.999   7.805   6.158  0.4661  0.6715 -0.5395
  926MOL0     C22156   1.968   7.741   6.044 -0.8874  0.3039 -0.0048
  926MOL0     C22157   1.895   7.624   6.034  0.7682  0.0272  0.4769
  926MOL0     O22158   1.856   7.539   5.926  0.1746 -0.1812 -0.4325
  926MOL0     C22159   1.917   7.554   5.799  0.2390  0.6300 -0.1073
  926MOL0     C22160   1.839   7.650   5.711  1.2151 -0.5096 -0.8141
  926MOL0     C22161   1.699   7.604   5.664 -0.5369 -0.4571  0.2833
  926MOL0     C22162   1.594   7.694   5.708 -0.6211 -0.0581 -0.8223
  926MOL0     C22163   1.578   7.669   5.850  0.4795 -0.6745 -0.1903
  926MOL0     C22164   1.552   7.651   5.964 -0.3675 -0.1832  0.2226
  926MOL0     C22165   1.836   7.576   6.157  0.3154 -0.5050  0.7527
  926MOL0     C22166   1.875   7.636   6.277  0.2340  0.1784 -0.1667
  926MOL0     H22167   1.694   7.890   6.579 -1.0309  1.8490 -1.0784
  926MOL0     H22168   1.668   8.031   6.777 -0.5014 -2.7591  0.5833
  926MOL0     H22169   1.641   8.120   6.992  0.6206 -2.9153 -1.2998
  926MOL0     H22170   1.706   8.238   6.879 -2.6096 -1.4487 -0.4947
  926MOL0     H22171   1.792   8.232   7.177 -1.7486  2.0878  1.2304
  926MOL0     H22172   1.672   8.337   7.102  0.1508 -0.3659  0.4667
  926MOL0     H22173   1.832   8.460   6.973 -1.2830  1.2309  2.0051
  926MOL0     H22174   1.957   8.339   6.982  0.8890  0.3622  0.6186
  926MOL0     H22175   1.837   8.503   7.220  0.5577 -1.4881  1.7003
  926MOL0     H22176   1.956   8.383   7.236  1.3063  3.0468  1.2324
  926MOL0     H22177   2.037   8.614   7.237 -1.0894 -0.6025  0.7836
  926MOL0     H22178   1.978   8.647   7.069  5.3477  2.1125 -2.1065
  926MOL0     H22179   2.127   8.467   7.000 -2.5232 -0.7649  2.0826
  926MOL0     H22180   2.204   8.464   7.157  1.1915  1.1972 -0.5019
  926MOL0     H22181   2.183   8.722   7.000  0.9958  1.0958  0.3246
  926MOL0     H22182   2.251   8.695   7.160 -1.1055 -0.8933  0.4471
  926MOL0     H22183   2.359   8.569   6.906  1.1133 -1.0111  0.5852
  926MOL0     H22184   2.415   8.547   7.066 -0.8915  0.4506  2.1475
  926MOL0     H22185   2.317   8.854   6.826  3.0182  2.8043 -1.9562
  926MOL0     H22186   2.509   9.078   6.787 -1.6780 -2.0659  1.3731
  926MOL0     H22187   2.537   8.954   6.659  1.1083 -1.0376  0.9882
  926MOL0     H22188   2.776   9.046   6.806  1.6084  3.3056 -2.3038
  926MOL0     H22189   2.715   9.082   6.631  0.4583 -0.3321 -0.3538
  926MOL0     H22190   2.794   8.826   6.748 -3.1010  0.2573 -0.8631
  926MOL0     H22191   2.728   8.849   6.585 -2.1616  1.6307 -0.0522
  926MOL0     H22192   2.915   9.004   6.531 -0.9983  0.5569 -0.0230
  926MOL0     H22193   2.966   8.843   6.581  1.1631  0.2876  3.2809
  926MOL0     H22194   2.897   9.208   6.800  0.9822 -1.0764  3.4070
  926MOL0     H22195   2.987   9.433   6.754  2.3788  1.6786 -2.8214
  926MOL0     H22196   3.363   9.623   6.963  0.7967 -2.3550 -2.4933
  926MOL0     H22197   3.479   9.841   6.998  1.2569 -1.7007 -1.8469
  926MOL0     H22198   3.580  10.057   6.982  0.9402  2.7621  0.9205
  926MOL0     H22199   3.423  10.109   7.050 -0.2076  1.3175 -0.4816
  926MOL0     H22200   3.627  10.291   6.999  1.9327  0.1112 -2.3283
  926MOL0     H22201   3.463  10.337   6.953  1.1954  0.7587  4.3314
  926MOL0     H22202   3.514  10.269   6.725  1.1312  0.7955 -1.4161
  926MOL0     H22203   3.658  10.174   6.772 -1.7115 -0.4799  0.4581
  926MOL0     H22204   3.643  10.452   6.797  1.5153  0.6125  3.8681
  926MOL0     H22205   3.771  10.352   6.880 -0.6213  3.2994  1.1437
  926MOL0     H22206   3.859  10.304   6.655  0.7240  0.7564  0.5673
  926MOL0     H22207   3.836  10.468   6.688  1.1493 -0.1473 -1.6152
  926MOL0     H22208   3.760  10.463   6.474  0.7081 -1.2426 -0.4289
  926MOL0     H22209   3.601  10.454   6.564 -0.5552 -0.6430 -2.2328
  926MOL0     H22210   3.752  10.248   6.401 -0.8630  1.5599 -2.1638
  926MOL0     H22211   3.619  10.194   6.521 -5.0575 -0.2179 -2.1818
  926MOL0     H22212   3.476  10.360   6.394  1.7484  4.0350 -0.2133
  926MOL0     H22213   3.526  10.223   6.296  0.8860  0.1105 -0.1932
  926MOL0     H22214   3.246  10.020   6.692  2.7566  1.2523 -0.9300
  926MOL0     H22215   3.126   9.805   6.653  1.7185  1.6068 -0.7380
  926MOL0     H22216   3.340   9.277   6.591  0.1539  0.7881  1.6561
  926MOL0     H22217   3.232   9.040   6.608 -2.0589 -2.2716  0.7264
  926MOL0     H22218   2.077   8.007   6.879  1.0734 -2.3159 -0.3134
  926MOL0     H22219   2.108   7.863   6.660  0.2326  0.2131  1.4355
  926MOL0     H22220   2.059   7.895   6.157 -0.5112  1.3560  0.7891
  926MOL0     H22221   2.026   7.778   5.960 -1.3292 -0.9190 -0.8759
  926MOL0     H22222   1.927   7.459   5.745  3.0638  1.4591 -1.2241
  926MOL0     H22223   2.021   7.584   5.808  0.8453 -1.4045  0.2349
  926MOL0     H22224   1.826   7.746   5.760 -1.1727 -0.7781 -0.7797
  926MOL0     H22225   1.897   7.674   5.621 -0.4146  0.9296 -1.5434
  926MOL0     H22226   1.697   7.499   5.695  1.4273 -0.7400 -0.3731
  926MOL0     H22227   1.693   7.607   5.554 -0.2448 -1.5762  0.2253
  926MOL0     H22228   1.621   7.796   5.681 -1.5826  1.2908  2.7400
  926MOL0     H22229   1.503   7.666   5.654  0.8771 -1.4802 -2.7857
  926MOL0     H22230   1.531   7.656   6.069  3.9225  2.3191  1.2244
  926MOL0     H22231   1.746   7.515   6.161  1.1942 -1.8233  3.4754
  926MOL0     H22232   1.832   7.595   6.369 -1.1890 -1.8971 -1.6699
  927MOL0     O22233   6.211  11.210   5.688  0.0450  0.1813  0.5450
  927MOL0     C22234   6.221  11.099   5.738  0.4620  0.0239  0.8039
  927MOL0     O22235   6.175  11.077   5.870 -0.0889 -0.6372  0.6079
  927MOL0     C22236   6.115  11.165   5.953  0.6777 -0.4254 -0.7661
  927MOL0     C22237   6.038  11.274   5.909  0.5878  0.0869 -1.1378
  927MOL0     C22238   5.974  11.363   6.002  0.4954  0.5036 -0.3698
  927MOL0     C22239   5.983  11.358   6.137  0.6147  0.1816 -1.1587
  927MOL0     O22240   5.927  11.458   6.222  0.8834 -0.1608 -0.2859
  927MOL0     C22241   5.867  11.417   6.347  0.2613  0.9329  0.6068
  927MOL0     C22242   5.871  11.539   6.440  0.6843  0.5860  0.7422
  927MOL0     C22243   5.799  11.514   6.573  0.2362  0.4364 -0.0089
  927MOL0     C22244   5.800  11.643   6.663 -0.0443  0.3321  0.4964
  927MOL0     C22245   5.757  11.603   6.809 -0.2855  0.2913 -0.2986
  927MOL0     C22246   5.828  11.705   6.910  1.0712 -0.2959 -0.4082
  927MOL0     C22247   5.844  11.664   7.062  0.6896 -0.2750 -0.0933
  927MOL0     C22248   5.701  11.631   7.109  0.4989 -0.2749 -0.7852
  927MOL0     N22249   5.691  11.643   7.258  0.5590  0.4316 -0.1548
  927MOL0     C22250   5.744  11.538   7.339 -0.1953 -0.3808  0.7449
  927MOL0     C22251   5.737  11.588   7.463  1.4347 -0.1679 -0.6037
  927MOL0     C22252   5.755  11.535   7.598 -0.1065  0.8589  0.3892
  927MOL0     C22253   5.728  11.386   7.605 -0.0656 -0.0186  0.1336
  927MOL0     C22254   5.581  11.351   7.585  0.0837  0.9013 -0.6953
  927MOL0     C22255   5.483  11.372   7.709 -0.3163  0.1403 -0.8222
  927MOL0     O22256   5.522  11.326   7.840  0.3683 -0.0975 -0.7741
  927MOL0     C22257   5.592  11.398   7.931  0.5510 -0.4169 -0.3534
  927MOL0     C22258   5.650  11.329   8.035  0.1923 -0.5540 -1.4756
  927MOL0     C22259   5.733  11.396   8.123  0.8440  0.0826 -0.0032
  927MOL0     C22260   5.749  11.530   8.118 -0.3652 -0.7155 -1.0435
  927MOL0     C22261   5.835  11.607   8.223 -0.2647  0.7319  0.2055
  927MOL0     O22262   5.947  11.540   8.276 -0.1353  0.1583 -0.1134
  927MOL0     C22263   6.021  11.590   8.380 -0.4942 -0.1466  0.5355
  927MOL0     C22264   6.130  11.511   8.413 -0.0975 -0.4167  0.0505
  927MOL0     C22265   6.221  11.537   8.520  0.1436  0.4134 -0.1281
  927MOL0     C22266   6.204  11.655   8.588 -0.9535 -0.6914 -0.9043
  927MOL0     O22267   6.288  11.703   8.685  0.7736 -0.3449  0.1919
  927MOL0     C22268   6.429  11.662   8.693 -0.0268 -0.2061  0.4177
  927MOL0     C22269   6.490  11.762   8.787 -0.0616  0.3382 -0.2304
  927MOL0     C22270   6.434  11.766   8.925  1.2545  0.3439 -0.4012
  927MOL0     C22271   6.496  11.881   9.010  0.1764 -0.0899 -1.3820
  927MOL0     C22272   6.467  11.882   9.156 -0.4126  0.0350 -0.1190
  927MOL0     C22273   6.527  12.008   9.231  0.8538  0.5090 -0.3754
  927MOL0     C22274   6.488  12.148   9.170  0.2472 -0.6550 -0.6383
  927MOL0     C22275   6.531  12.267   9.256 -0.8690 -0.3057  0.2638
  927MOL0    Cl22276   6.704  12.255   9.312 -0.0001 -0.1602 -0.1209
  927MOL0     C22277   6.100  11.740   8.551  0.4538 -0.8035  0.1409
  927MOL0     C22278   5.999  11.708   8.453  0.1665  1.1312 -0.3677
  927MOL0     O22279   5.804  11.720   8.249 -0.3977 -0.4176 -0.8908
  927MOL0     C22280   5.693  11.609   8.015  0.3435 -0.6097  0.4537
  927MOL0     C22281   5.611  11.541   7.926  0.8192 -0.0131 -0.7435
  927MOL0     N22282   5.673  11.714   7.460  0.7069  0.4990  0.2028
  927MOL0     N22283   5.643  11.744   7.337  0.1395  0.2063 -0.4975
  927MOL0     C22284   6.059  11.249   6.184 -0.0456  0.8273  0.1534
  927MOL0     C22285   6.123  11.158   6.095  0.4542 -0.0781  0.2063
  927MOL0     C22286   6.293  10.990   5.676 -0.8985 -0.4791 -0.5595
  927MOL0     C22287   6.374  11.014   5.566 -0.4824  0.0563 -0.2640
  927MOL0     C22288   6.453  10.916   5.509  0.2845  0.4152  0.7024
  927MOL0     C22289   6.450  10.788   5.570  0.4319  0.4689 -0.0219
  927MOL0     O22290   6.540  10.683   5.532 -0.6941 -0.1723 -0.1459
  927MOL0     C22291   6.639  10.687   5.428 -0.4125 -0.6481 -0.3961
  927MOL0     C22292   6.680  10.542   5.395  0.3687 -0.1113 -0.0599
  927MOL0     C22293   6.754  10.519   5.262 -0.3173  0.1558  0.4036
  927MOL0     C22294   6.803  10.374   5.254  0.0385 -0.2163 -0.5456
  927MOL0     C22295   6.698  10.302   5.173  0.1637  0.0266 -0.0890
  927MOL0     C22296   6.598  10.247   5.135  0.3059  0.5700  0.2424
  927MOL0     C22297   6.381  10.766   5.683  0.1262 -0.1509 -1.2296
  927MOL0     C22298   6.294  10.864   5.735 -0.3545  0.2012 -0.2472
  927MOL0     H22299   6.017  11.287   5.803 -4.6678 -1.0697 -0.5101
  927MOL0     H22300   5.911  11.441   5.961 -1.1760  0.5038  2.0044
  927MOL0     H22301   5.910  11.327   6.391 -4.0186 -1.6709 -0.0333
  927MOL0     H22302   5.759  11.403   6.340  0.2586  1.6489 -2.0423
  927MOL0     H22303   5.849  11.633   6.387  1.7738 -0.0923 -1.0133
  927MOL0     H22304   5.980  11.541   6.448  0.9225 -2.0736 -0.8628
  927MOL0     H22305   5.851  11.435   6.628  2.0258  1.7585  0.2891
  927MOL0     H22306   5.696  11.480   6.556 -0.5204  1.1357  2.6197
  927MOL0     H22307   5.902  11.680   6.675 -0.5986  1.0367  4.3443
  927MOL0     H22308   5.729  11.720   6.631  3.5630  2.7803 -2.4031
  927MOL0     H22309   5.768  11.499   6.842 -1.0874  0.8034  1.6650
  927MOL0     H22310   5.649  11.612   6.818 -0.6543 -0.4660 -2.9428
  927MOL0     H22311   5.764  11.793   6.904  2.5155  0.7193 -1.8775
  927MOL0     H22312   5.922  11.744   6.869 -0.2128  1.8508 -1.4447
  927MOL0     H22313   5.903  11.573   7.049 -0.3135 -0.8528 -0.8455
  927MOL0     H22314   5.895  11.742   7.119  0.4050 -0.7176  0.7860
  927MOL0     H22315   5.676  11.531   7.074 -0.7974 -0.9602  1.8160
  927MOL0     H22316   5.631  11.699   7.059 -1.2392 -1.7353 -0.4344
  927MOL0     H22317   5.755  11.434   7.309  0.0543 -0.6964  1.8882
  927MOL0     H22318   5.698  11.588   7.674 -2.0663 -4.0902  2.7908
  927MOL0     H22319   5.860  11.558   7.620  0.1943  2.5004 -2.3427
  927MOL0     H22320   5.758  11.367   7.709 -1.7161 -1.6258  0.3617
  927MOL0     H22321   5.795  11.321   7.548  3.3043  1.6304  1.9070
  927MOL0     H22322   5.544  11.415   7.505 -0.7328 -0.1091 -1.1382
  927MOL0     H22323   5.575  11.247   7.553 -1.3326  0.7905 -0.1630
  927MOL0     H22324   5.399  11.305   7.689  0.6799 -0.6170 -2.7780
  927MOL0     H22325   5.450  11.475   7.723  0.1742  0.0797  1.1625
  927MOL0     H22326   5.635  11.223   8.048  0.5946 -0.3858  0.6177
  927MOL0     H22327   5.767  11.338   8.208 -0.2786  0.6269  0.8345
  927MOL0     H22328   6.133  11.416   8.361  1.1351 -2.1435  3.0600
  927MOL0     H22329   6.302  11.472   8.551 -1.3066 -0.0950  2.9114
  927MOL0     H22330   6.482  11.663   8.597 -0.5807 -2.7492  0.0017
  927MOL0     H22331   6.426  11.565   8.744 -0.2822  0.8421  2.4689
  927MOL0     H22332   6.482  11.858   8.736 -1.2651 -0.3344 -1.3825
  927MOL0     H22333   6.593  11.737   8.813  0.0024  1.4720  0.6664
  927MOL0     H22334   6.459  11.667   8.963 -1.8707 -1.6994 -3.0567
  927MOL0     H22335   6.326  11.785   8.928  0.9784 -1.0426 -0.8931
  927MOL0     H22336   6.605  11.876   9.001  0.3273  0.3113  0.0022
  927MOL0     H22337   6.463  11.973   8.961  2.2322  1.5709  0.1556
  927MOL0     H22338   6.514  11.798   9.207  0.5535  1.1958  0.9736
  927MOL0     H22339   6.358  11.880   9.165 -0.5534  3.9847  1.2346
  927MOL0     H22340   6.635  11.992   9.224  0.6993 -0.4432 -0.7603
  927MOL0     H22341   6.508  12.000   9.338  2.6360 -3.0080 -0.2099
  927MOL0     H22342   6.535  12.166   9.073  1.0727  1.8765  0.1485
  927MOL0     H22343   6.379  12.152   9.166  0.1755  0.4597  1.3652
  927MOL0     H22344   6.475  12.276   9.350 -1.1540  3.6364 -0.1185
  927MOL0     H22345   6.508  12.358   9.200 -1.0415 -1.0549 -0.9110
  927MOL0     H22346   6.105  11.830   8.611  5.1886 -0.7275 -0.0470
  927MOL0     H22347   5.923  11.782   8.431  0.0292  1.8364  2.2154
  927MOL0     H22348   5.691  11.713   7.985 -2.6707 -1.3368 -2.5965
  927MOL0     H22349   5.575  11.592   7.837  0.4485 -0.5391 -0.9007
  927MOL0     H22350   6.080  11.230   6.289 -1.3700 -0.1751  0.2603
  927MOL0     H22351   6.166  11.071   6.144  2.2198 -0.2377 -1.4659
  927MOL0     H22352   6.367  11.116   5.529  0.8605  0.6749  1.0654
  927MOL0     H22353   6.501  10.923   5.412  4.9835 -5.1858  2.0839
  927MOL0     H22354   6.731  10.733   5.464 -0.4989 -1.7031  1.2730
  927MOL0     H22355   6.602  10.736   5.337 -2.2174 -1.5511 -0.2104
  927MOL0     H22356   6.733  10.507   5.484 -3.6319 -2.5650  1.6251
  927MOL0     H22357   6.590  10.479   5.392  0.1778  0.2027 -1.5576
  927MOL0     H22358   6.845  10.580   5.256  2.3822 -3.4156  1.0152
  927MOL0     H22359   6.689  10.556   5.183  0.4294  1.9437  0.5713
  927MOL0     H22360   6.897  10.367   5.198 -0.3771  0.7305 -1.3952
  927MOL0     H22361   6.808  10.330   5.354 -0.9136  5.8383  2.6637
  927MOL0     H22362   6.502  10.201   5.122  0.4666 -0.9935  3.6346
  927MOL0     H22363   6.378  10.671   5.736  0.5123  0.9856  0.9572
  927MOL0     H22364   6.233  10.833   5.819  0.8213  0.2020  0.6380
  928MOL0     O22365   5.757   3.043   3.481 -0.0850  0.3350  0.0360
  928MOL0     C22366   5.667   2.976   3.529  0.3670  0.0554  0.5027
  928MOL0     O22367   5.659   2.925   3.648  0.7464 -0.2113 -0.4914
  928MOL0     C22368   5.746   2.955   3.754 -0.5855  0.6218  0.8512
  928MOL0     C22369   5.774   3.085   3.802 -0.9525  0.4846 -0.8167
  928MOL0     C22370   5.851   3.101   3.918  0.1217  0.5514 -0.8810
  928MOL0     C22371   5.913   2.989   3.974 -0.1993 -0.0145 -0.2305
  928MOL0     O22372   5.979   3.009   4.089 -0.4344  0.4469  0.5029
  928MOL0     C22373   6.030   2.906   4.181  0.0302  0.4123 -0.5482
  928MOL0     C22374   6.117   2.973   4.290  0.2763  0.8732 -0.3853
  928MOL0     C22375   6.156   2.868   4.400 -0.5638 -0.4208 -1.0562
  928MOL0     C22376   6.287   2.900   4.466 -0.5561  0.0107 -0.3158
  928MOL0     C22377   6.310   2.785   4.564 -0.0041 -0.5295 -0.1086
  928MOL0     C22378   6.458   2.804   4.622 -0.4204 -0.5047 -0.5468
  928MOL0     C22379   6.490   2.701   4.733 -1.1156 -0.4048  0.4647
  928MOL0     C22380   6.639   2.714   4.785 -0.1966  0.1302  1.1461
  928MOL0     N22381   6.650   2.660   4.919 -0.3837 -0.1549  0.2162
  928MOL0     C22382   6.648   2.744   5.029 -0.2010 -0.5062 -0.1000
  928MOL0     C22383   6.621   2.661   5.128  0.2196 -0.5561 -0.1042
  928MOL0     C22384   6.607   2.728   5.260 -0.0621  0.9986  0.5452
  928MOL0     C22385   6.469   2.795   5.278 -0.5316  0.7574 -0.3057
  928MOL0     C22386   6.453   2.939   5.247 -0.1225  0.3422  0.2757
  928MOL0     C22387   6.315   2.997   5.285  1.1678 -0.2172 -0.2069
  928MOL0     O22388   6.323   3.141   5.259 -0.2341 -0.1358  0.3893
  928MOL0     C22389   6.368   3.227   5.362 -1.0326  0.4888  0.5427
  928MOL0     C22390   6.373   3.362   5.336  0.0587 -0.3912 -0.8066
  928MOL0     C22391   6.442   3.453   5.422  0.8835  0.2263 -0.9364
  928MOL0     C22392   6.491   3.412   5.547  0.3589 -1.0874 -0.5151
  928MOL0     C22393   6.518   3.521   5.649 -0.3281 -0.6259  0.9158
  928MOL0     O22394   6.585   3.479   5.766  0.0682 -0.4732  0.0773
  928MOL0     C22395   6.673   3.551   5.841  0.4093 -0.6382  0.0587
  928MOL0     C22396   6.698   3.520   5.975 -0.5992 -0.3110 -0.3085
  928MOL0     C22397   6.787   3.602   6.042 -0.6080 -0.2110  0.0183
  928MOL0     C22398   6.865   3.711   5.980 -0.3168 -0.4473 -0.1372
  928MOL0     O22399   6.962   3.779   6.054  0.0160 -0.1800 -0.3897
  928MOL0     C22400   7.023   3.886   5.985  0.3389 -1.4183 -0.2861
  928MOL0     C22401   7.107   3.970   6.072  0.7794 -0.3031  0.7267
  928MOL0     C22402   7.040   4.080   6.144 -0.3322  0.7548 -0.5201
  928MOL0     C22403   7.047   4.208   6.070 -0.2474  0.9728 -0.0478
  928MOL0     C22404   6.989   4.337   6.143  0.0469  0.7366  0.4360
  928MOL0     C22405   6.843   4.332   6.205 -0.0745  0.1048 -0.0583
  928MOL0     C22406   6.742   4.297   6.098 -0.0008 -0.0844  0.0036
  928MOL0     C22407   6.593   4.287   6.156 -0.1090 -0.1331  0.2481
  928MOL0    Cl22408   6.537   4.439   6.216 -0.0462  0.0998 -0.1131
  928MOL0     C22409   6.840   3.733   5.847  0.1354 -1.1134  0.0446
  928MOL0     C22410   6.739   3.655   5.782 -0.7855 -0.6674  0.4727
  928MOL0     O22411   6.476   3.638   5.626 -0.5984 -0.0020 -0.7746
  928MOL0     C22412   6.473   3.276   5.574  0.1170  0.4451 -0.3282
  928MOL0     C22413   6.428   3.176   5.476 -0.9742 -1.2043  0.2868
  928MOL0     N22414   6.612   2.524   5.086  0.2918 -0.5522 -0.0655
  928MOL0     N22415   6.628   2.531   4.958 -0.0374 -0.3244 -0.7534
  928MOL0     C22416   5.904   2.863   3.916 -0.0431 -0.7449 -0.3054
  928MOL0     C22417   5.812   2.845   3.814  0.2937  0.2970 -0.0017
  928MOL0     C22418   5.580   2.920   3.424 -0.0729 -0.5194  0.9007
  928MOL0     C22419   5.590   2.943   3.281  0.7348  0.3889 -0.2761
  928MOL0     C22420   5.488   2.888   3.192  0.0188  0.0775  0.7126
  928MOL0     C22421   5.391   2.796   3.234  0.6567 -0.2686  0.2603
  928MOL0     O22422   5.306   2.751   3.137  0.1779 -0.1727 -0.5843
  928MOL0     C22423   5.190   2.685   3.192 -0.1193 -0.3215  0.8588
  928MOL0     C22424   5.091   2.787   3.241 -0.3056 -0.4148  0.4519
  928MOL0     C22425   4.950   2.731   3.272  0.6147 -0.6042  0.0633
  928MOL0     C22426   4.960   2.628   3.385 -0.2860 -0.5192  0.4636
  928MOL0     C22427   4.829   2.585   3.442 -0.5854  0.6297 -0.3903
  928MOL0     C22428   4.723   2.575   3.499 -0.6798 -0.5369 -0.1716
  928MOL0     C22429   5.380   2.773   3.371 -0.3081  0.4745 -0.1738
  928MOL0     C22430   5.464   2.843   3.469  1.3473 -0.3803  0.0961
  928MOL0     H22431   5.731   3.173   3.755  2.2063  2.4263 -0.3595
  928MOL0     H22432   5.846   3.206   3.946 -1.3780  0.7651 -1.8638
  928MOL0     H22433   6.107   2.849   4.129  1.3743  1.0348  0.7005
  928MOL0     H22434   5.952   2.847   4.230  2.4380 -2.8963 -0.4270
  928MOL0     H22435   6.078   3.069   4.325  0.3179  0.8794 -0.3555
  928MOL0     H22436   6.208   2.996   4.234  0.0222 -0.1509 -1.2670
  928MOL0     H22437   6.156   2.763   4.369  2.4956 -0.0955 -2.5579
  928MOL0     H22438   6.063   2.880   4.455 -1.6978  0.8351 -3.0843
  928MOL0     H22439   6.372   2.913   4.399 -0.3078 -0.5572 -0.1202
  928MOL0     H22440   6.283   2.993   4.524  1.7539  0.3354 -0.5744
  928MOL0     H22441   6.296   2.692   4.509 -0.0842 -0.3303 -0.4235
  928MOL0     H22442   6.228   2.793   4.636 -0.0930  0.0356 -0.2612
  928MOL0     H22443   6.471   2.906   4.659 -1.8779 -0.8665  1.0607
  928MOL0     H22444   6.525   2.791   4.536  1.3405  0.8069  0.5621
  928MOL0     H22445   6.432   2.719   4.824 -0.0430  0.0557  1.0757
  928MOL0     H22446   6.467   2.599   4.701 -0.1073 -0.9677  1.4873
  928MOL0     H22447   6.661   2.822   4.788 -2.0027  0.5707 -0.0036
  928MOL0     H22448   6.710   2.663   4.721 -0.0023  0.1236  1.3652
  928MOL0     H22449   6.638   2.852   5.028 -1.3014 -0.6017 -0.2861
  928MOL0     H22450   6.686   2.803   5.272 -0.4331  1.6062 -0.7016
  928MOL0     H22451   6.605   2.651   5.338 -2.1610  0.4184 -0.0089
  928MOL0     H22452   6.448   2.784   5.385  2.1576 -0.0627  0.2228
  928MOL0     H22453   6.395   2.741   5.219  0.0854  0.0903 -0.4863
  928MOL0     H22454   6.526   2.993   5.309 -1.1350  1.7369  0.2914
  928MOL0     H22455   6.479   2.962   5.144  0.4892 -0.9285  0.1243
  928MOL0     H22456   6.301   2.960   5.387  1.9601  0.1349  0.0367
  928MOL0     H22457   6.240   2.951   5.220 -0.9322 -0.4374  2.2053
  928MOL0     H22458   6.322   3.398   5.247  1.5504 -0.0570 -1.5475
  928MOL0     H22459   6.440   3.558   5.394 -0.7014  0.2952 -0.6781
  928MOL0     H22460   6.650   3.438   6.027 -0.9866 -2.2369 -3.4443
  928MOL0     H22461   6.822   3.583   6.143  2.9081  1.5366 -0.7119
  928MOL0     H22462   6.947   3.940   5.928  1.0792 -1.3553 -1.2174
  928MOL0     H22463   7.088   3.856   5.902  0.3782  3.0545 -2.1217
  928MOL0     H22464   7.182   4.016   6.007  2.3846 -3.0886  0.4328
  928MOL0     H22465   7.154   3.912   6.152  0.6195  1.8336  2.4516
  928MOL0     H22466   7.080   4.092   6.245 -1.3193  1.4574 -0.1948
  928MOL0     H22467   6.937   4.054   6.171  0.1249 -1.7529 -0.9247
  928MOL0     H22468   7.148   4.230   6.033  0.2889 -1.7969 -0.4344
  928MOL0     H22469   6.995   4.194   5.975 -3.5540  0.5380  1.6907
  928MOL0     H22470   6.984   4.414   6.066 -2.0814 -0.8661 -1.1517
  928MOL0     H22471   7.045   4.371   6.230 -0.8625  2.6900  0.3063
  928MOL0     H22472   6.822   4.434   6.241 -2.3825 -1.1825  2.6018
  928MOL0     H22473   6.834   4.256   6.282 -1.1936  1.7993  1.5783
  928MOL0     H22474   6.762   4.369   6.018 -0.9667  0.1986  0.0137
  928MOL0     H22475   6.770   4.197   6.062  1.9262  0.6334 -0.6329
  928MOL0     H22476   6.585   4.221   6.242  1.2413 -0.2986  0.2712
  928MOL0     H22477   6.537   4.255   6.068  1.4918  0.1047 -0.9159
  928MOL0     H22478   6.896   3.804   5.788 -2.6329  0.8655 -0.4048
  928MOL0     H22479   6.726   3.678   5.676  0.8985 -3.8962 -0.5818
  928MOL0     H22480   6.492   3.225   5.668 -1.4063  0.1035 -0.1815
  928MOL0     H22481   6.422   3.071   5.503 -3.6647 -1.6188 -1.5420
  928MOL0     H22482   5.943   2.776   3.968 -2.4709 -1.5273  0.3379
  928MOL0     H22483   5.797   2.739   3.794 -0.6666  0.8334 -2.4672
  928MOL0     H22484   5.670   3.011   3.251 -0.3507  1.1140 -1.6498
  928MOL0     H22485   5.483   2.917   3.087  1.8969 -0.7012  0.3689
  928MOL0     H22486   5.213   2.605   3.263  0.0071  1.4771  2.9382
  928MOL0     H22487   5.127   2.640   3.114 -2.8143 -1.2378  3.3882
  928MOL0     H22488   5.127   2.842   3.328 -2.3308  1.0390  0.4634
  928MOL0     H22489   5.082   2.862   3.161  1.4944  0.8585  1.3755
  928MOL0     H22490   4.891   2.694   3.188 -0.3734 -2.3755  1.4582
  928MOL0     H22491   4.887   2.809   3.316 -1.7729 -2.2576 -0.2161
  928MOL0     H22492   5.015   2.539   3.352 -3.6154 -2.6134  0.0668
  928MOL0     H22493   5.013   2.665   3.473  0.3489  2.1355 -0.9536
  928MOL0     H22494   4.642   2.555   3.566  0.4850 -1.2000  1.0714
  928MOL0     H22495   5.300   2.706   3.399 -1.2158  1.4311 -0.4117
  928MOL0     H22496   5.440   2.811   3.570 -1.9475 -1.2081 -0.8272
  929MOL0     O22497   3.213   6.582   0.513 -0.0414 -0.5210  0.4006
  929MOL0     C22498   3.189   6.541   0.402  0.6791  0.1073 -0.0041
  929MOL0     O22499   3.231   6.593   0.277  0.1263 -0.6894 -0.0406
  929MOL0     C22500   3.321   6.705   0.281  0.7554 -0.4446  0.6949
  929MOL0     C22501   3.321   6.809   0.374  0.5361 -0.0576  0.0916
  929MOL0     C22502   3.425   6.903   0.355 -0.3961 -0.1332 -0.9507
  929MOL0     C22503   3.497   6.922   0.237 -0.4187 -0.3769 -0.0846
  929MOL0     O22504   3.598   7.018   0.216  0.1638 -0.3535  0.4914
  929MOL0     C22505   3.685   7.050   0.328 -0.3626 -0.0145  0.9960
  929MOL0     C22506   3.804   6.959   0.310  0.2882 -1.2672  0.3995
  929MOL0     C22507   3.930   7.020   0.353  0.8796 -0.6682  0.0954
  929MOL0     C22508   4.054   6.925   0.357 -0.1013 -0.2130 -0.7561
  929MOL0     C22509   4.170   7.009   0.418  0.1744 -0.2590 -0.1295
  929MOL0     C22510   4.273   6.919   0.469 -0.4041  1.1090  0.1065
  929MOL0     C22511   4.402   6.999   0.504 -0.0444  0.2019  0.3147
  929MOL0     C22512   4.474   7.045   0.387  0.1639 -0.4543  0.5479
  929MOL0     N22513   4.622   7.042   0.401  0.6462 -0.2465 -0.0989
  929MOL0     C22514   4.679   7.117   0.506 -0.4819  0.5496  1.3905
  929MOL0     C22515   4.798   7.055   0.508 -1.2460 -0.2083  0.5228
  929MOL0     C22516   4.905   7.086   0.610  0.3886  0.2366  1.2264
  929MOL0     C22517   4.869   7.014   0.733 -0.7539  0.5641 -0.9316
  929MOL0     C22518   4.987   6.998   0.818  0.4417  0.1397  0.1820
  929MOL0     C22519   4.970   6.871   0.912 -0.0933 -0.8020  0.0500
  929MOL0     O22520   4.863   6.892   1.001 -0.3740 -0.4063 -0.5403
  929MOL0     C22521   4.835   6.783   1.075 -0.8574  0.9135 -0.9032
  929MOL0     C22522   4.881   6.644   1.062  0.8418 -0.5511  0.6308
  929MOL0     C22523   4.827   6.534   1.130 -0.3037 -0.5722 -0.0693
  929MOL0     C22524   4.717   6.558   1.221 -0.1775 -0.0177 -0.1422
  929MOL0     C22525   4.649   6.451   1.304 -0.5495 -0.5304 -0.8225
  929MOL0     O22526   4.656   6.331   1.268  1.3985  0.8715  0.2642
  929MOL0     C22527   4.601   6.220   1.334 -0.2005 -0.2334  0.4265
  929MOL0     C22528   4.461   6.211   1.354 -1.0952  0.1641  0.2297
  929MOL0     C22529   4.400   6.094   1.409 -0.1797  0.4772 -0.0398
  929MOL0     C22530   4.476   5.981   1.427 -0.5543 -0.1010  1.1727
  929MOL0     O22531   4.408   5.861   1.458 -0.1015 -0.3237 -0.1542
  929MOL0     C22532   4.490   5.738   1.460 -0.2807 -0.1349 -0.0486
  929MOL0     C22533   4.404   5.621   1.493  0.5191 -0.7734  0.2902
  929MOL0     C22534   4.339   5.623   1.638 -0.3549 -0.2245 -0.0040
  929MOL0     C22535   4.199   5.673   1.644  0.1128 -0.7642  0.1167
  929MOL0     C22536   4.157   5.717   1.786  0.1062 -0.5765 -0.3343
  929MOL0     C22537   4.024   5.782   1.769 -0.4549  0.8168 -0.9108
  929MOL0     C22538   3.901   5.691   1.742 -0.1105  0.9296 -0.9318
  929MOL0     C22539   3.875   5.586   1.865 -0.7377  0.3015  0.9243
  929MOL0    Cl22540   3.847   5.670   2.021  0.1332  0.1733 -0.2650
  929MOL0     C22541   4.616   5.985   1.402  0.7965 -0.4342  0.8636
  929MOL0     C22542   4.674   6.100   1.351  0.2965 -0.1442  0.1934
  929MOL0     O22543   4.594   6.491   1.407  0.2899 -1.1229 -0.7791
  929MOL0     C22544   4.676   6.694   1.234  0.7802  0.1008  0.3770
  929MOL0     C22545   4.723   6.793   1.155 -1.4486  0.3840  0.7168
  929MOL0     N22546   4.807   6.938   0.421 -0.0415 -0.0194 -0.2891
  929MOL0     N22547   4.695   6.936   0.368  0.6129  0.4516  0.2405
  929MOL0     C22548   3.499   6.819   0.151  0.0376  0.0646 -0.3820
  929MOL0     C22549   3.412   6.709   0.169  0.1091  1.1223 -1.1490
  929MOL0     C22550   3.092   6.424   0.387  0.0048  0.0179  0.1850
  929MOL0     C22551   3.045   6.382   0.261 -1.3276  0.1467  0.3506
  929MOL0     C22552   2.971   6.263   0.249 -0.3209 -0.5011 -0.2906
  929MOL0     C22553   2.929   6.183   0.358 -0.3933  0.6491 -0.0328
  929MOL0     O22554   2.843   6.083   0.319 -0.0760 -0.8882 -0.0874
  929MOL0     C22555   2.750   6.032   0.412  0.6032  0.2679  0.2055
  929MOL0     C22556   2.642   6.134   0.453 -1.2833 -0.0562 -1.1119
  929MOL0     C22557   2.584   6.225   0.353  0.2095 -0.8719 -0.9344
  929MOL0     C22558   2.508   6.160   0.234 -0.1889  0.1270  0.7869
  929MOL0     C22559   2.437   6.258   0.154  0.3522  0.4828 -0.3711
  929MOL0     C22560   2.409   6.342   0.074 -0.2677 -0.2862  0.1404
  929MOL0     C22561   2.969   6.233   0.487 -0.5283  0.7357 -0.7882
  929MOL0     C22562   3.052   6.348   0.496  0.1942  0.3534 -0.5313
  929MOL0     H22563   3.266   6.828   0.466 -1.4179  1.6037 -1.3437
  929MOL0     H22564   3.437   6.983   0.427 -1.9792 -1.0541  0.4378
  929MOL0     H22565   3.636   7.054   0.425 -2.0389  1.0405  0.1641
  929MOL0     H22566   3.726   7.151   0.321  1.9106 -0.9699 -2.1227
  929MOL0     H22567   3.820   6.928   0.206 -0.8990 -0.7827  0.0608
  929MOL0     H22568   3.776   6.875   0.374  1.4217 -2.2094 -0.2863
  929MOL0     H22569   3.919   7.076   0.446  0.4302  1.9728 -1.4697
  929MOL0     H22570   3.940   7.096   0.276  0.6706  1.4291  2.0399
  929MOL0     H22571   4.042   6.841   0.426 -3.1081  1.0611  0.4399
  929MOL0     H22572   4.072   6.884   0.257  2.2542  0.3661 -0.6333
  929MOL0     H22573   4.129   7.085   0.485 -0.0520 -0.2921 -0.2268
  929MOL0     H22574   4.215   7.060   0.333  0.3119  0.0916  0.1547
  929MOL0     H22575   4.293   6.844   0.392  0.4362 -0.1583  1.5040
  929MOL0     H22576   4.240   6.865   0.559  1.9936 -5.6426 -2.3885
  929MOL0     H22577   4.381   7.089   0.561 -2.8503  0.6246 -1.2187
  929MOL0     H22578   4.467   6.936   0.566 -1.7431  0.4260  2.4067
  929MOL0     H22579   4.447   7.150   0.368 -1.5049 -0.2423  3.4443
  929MOL0     H22580   4.444   6.993   0.296  0.2633  1.5460 -0.7039
  929MOL0     H22581   4.642   7.200   0.565 -4.2250  0.9991 -1.2933
  929MOL0     H22582   4.911   7.192   0.637 -1.1355  0.9046 -0.8346
  929MOL0     H22583   5.002   7.054   0.570  0.5120  0.1065  1.6228
  929MOL0     H22584   4.845   6.911   0.703  2.5995 -0.5664 -0.1756
  929MOL0     H22585   4.790   7.066   0.788  2.1883  1.5748  2.8458
  929MOL0     H22586   5.082   6.980   0.766  0.9139  2.5020  0.1148
  929MOL0     H22587   5.016   7.094   0.862  1.2471 -0.6909  1.5424
  929MOL0     H22588   5.061   6.840   0.964 -1.1994 -0.9021  2.0043
  929MOL0     H22589   4.961   6.792   0.837  1.2354 -0.3943 -0.5805
  929MOL0     H22590   4.964   6.615   0.999  1.4581  0.3160  1.0290
  929MOL0     H22591   4.869   6.435   1.120  1.2316  0.2520 -2.2846
  929MOL0     H22592   4.398   6.291   1.316 -2.4754 -1.1311 -0.2666
  929MOL0     H22593   4.293   6.087   1.422 -0.0030  2.1627  3.3838
  929MOL0     H22594   4.570   5.744   1.534  0.5380 -2.0626 -0.7157
  929MOL0     H22595   4.552   5.723   1.372  0.9208  0.1419  0.7230
  929MOL0     H22596   4.476   5.539   1.486  2.0162  0.6175 -4.8129
  929MOL0     H22597   4.328   5.617   1.415 -1.1984 -0.1816  1.8699
  929MOL0     H22598   4.412   5.670   1.705  0.5978 -0.0272 -1.1415
  929MOL0     H22599   4.330   5.524   1.684  2.0152  0.2889  1.7272
  929MOL0     H22600   4.192   5.754   1.571  1.9031 -0.8842 -0.2329
  929MOL0     H22601   4.126   5.601   1.606  1.3552 -1.6178 -0.7133
  929MOL0     H22602   4.226   5.795   1.821 -1.5174  0.6296  0.3350
  929MOL0     H22603   4.169   5.639   1.862 -0.7526 -2.2455 -1.8421
  929MOL0     H22604   4.038   5.846   1.681 -0.6129 -0.9463 -2.2802
  929MOL0     H22605   3.999   5.835   1.862 -1.4140 -0.9658 -0.1135
  929MOL0     H22606   3.811   5.752   1.733 -0.6403  0.1200 -1.1896
  929MOL0     H22607   3.901   5.651   1.640 -4.0332 -1.4625 -0.2200
  929MOL0     H22608   3.971   5.536   1.875  0.0939  1.3587 -1.1370
  929MOL0     H22609   3.804   5.508   1.837 -0.6858 -0.4192  2.6997
  929MOL0     H22610   4.682   5.903   1.428 -0.0136 -1.0780  0.9163
  929MOL0     H22611   4.781   6.107   1.341  0.3354 -1.5430 -0.5940
  929MOL0     H22612   4.592   6.718   1.300 -1.1397  0.2206 -1.9855
  929MOL0     H22613   4.680   6.893   1.162 -0.3869  1.1854 -2.5181
  929MOL0     H22614   3.554   6.826   0.058  1.3975 -0.5725  0.3369
  929MOL0     H22615   3.419   6.630   0.095  2.9588  1.4119 -1.3193
  929MOL0     H22616   3.045   6.447   0.175  0.6826  0.7377  0.7460
  929MOL0     H22617   2.932   6.225   0.156  1.0694  0.3870 -1.2825
  929MOL0     H22618   2.780   5.977   0.501 -2.0227 -2.0128 -0.1883
  929MOL0     H22619   2.673   5.965   0.372  1.1673 -2.6083  3.4703
  929MOL0     H22620   2.565   6.089   0.517 -1.7672  2.1471 -0.0554
  929MOL0     H22621   2.692   6.201   0.524  1.7137  1.0939 -4.0678
  929MOL0     H22622   2.657   6.293   0.307 -0.0490  0.4868  0.5753
  929MOL0     H22623   2.513   6.266   0.425 -0.2140 -4.3629  0.8864
  929MOL0     H22624   2.570   6.093   0.174  1.5347  0.0542  2.5759
  929MOL0     H22625   2.441   6.088   0.283  3.2283 -2.1495  2.5243
  929MOL0     H22626   2.382   6.419   0.005 -0.2025  0.4845  0.9521
  929MOL0     H22627   2.940   6.170   0.571 -0.2531  4.1525  2.1394
  929MOL0     H22628   3.079   6.376   0.597 -1.1073 -1.2006  0.3034
  930MOL0     O22629   5.507   6.091   6.969  0.7483 -0.1370  0.2682
  930MOL0     C22630   5.625   6.082   7.003 -0.0172 -0.5147 -1.3395
  930MOL0     O22631   5.682   6.129   7.123 -0.2278 -0.9119  0.2217
  930MOL0     C22632   5.614   6.192   7.225 -0.0095  0.8786 -0.0800
  930MOL0     C22633   5.699   6.279   7.305  0.7728 -0.4811  0.3984
  930MOL0     C22634   5.631   6.342   7.416 -0.3727  0.5412  0.1170
  930MOL0     C22635   5.486   6.348   7.431  1.1461  0.0815 -1.0606
  930MOL0     O22636   5.429   6.429   7.533  0.4365  0.0063  0.4208
  930MOL0     C22637   5.298   6.400   7.576 -0.4516 -0.6798  0.7689
  930MOL0     C22638   5.237   6.492   7.686 -0.0187  0.4902  0.3706
  930MOL0     C22639   5.245   6.635   7.638  0.4622  0.1809  0.6246
  930MOL0     C22640   5.130   6.660   7.535  0.2544 -0.4426 -0.5694
  930MOL0     C22641   5.131   6.804   7.482  0.1434 -0.4253  0.0984
  930MOL0     C22642   5.263   6.840   7.410 -0.7939  0.5760  0.1977
  930MOL0     C22643   5.315   6.741   7.303 -0.1244 -0.6046  0.1349
  930MOL0     C22644   5.435   6.790   7.234 -0.9320  0.2086 -0.5723
  930MOL0     N22645   5.469   6.718   7.114 -0.5576  0.1564  0.3159
  930MOL0     C22646   5.510   6.579   7.105 -1.3130 -0.1859 -0.2959
  930MOL0     C22647   5.537   6.553   6.982 -0.8783  0.2001  0.1258
  930MOL0     C22648   5.591   6.423   6.925 -0.3944 -0.3765 -0.2663
  930MOL0     C22649   5.557   6.411   6.772  0.5458 -0.9512  0.7110
  930MOL0     C22650   5.676   6.338   6.699 -0.6525  0.5856 -0.2716
  930MOL0     C22651   5.643   6.255   6.568  0.7240 -0.4445  0.7301
  930MOL0     O22652   5.649   6.339   6.458 -0.4772  0.6797  1.4056
  930MOL0     C22653   5.642   6.275   6.331  0.1819 -0.2286  0.7346
  930MOL0     C22654   5.596   6.354   6.226  0.3690  0.3043 -0.0944
  930MOL0     C22655   5.584   6.299   6.097  0.2766 -1.1175  0.6457
  930MOL0     C22656   5.618   6.166   6.068 -1.1216  1.3249 -0.3651
  930MOL0     C22657   5.590   6.096   5.936  0.0976  0.6214  1.2059
  930MOL0     O22658   5.550   6.176   5.827 -0.7796  0.9878 -0.3717
  930MOL0     C22659   5.538   6.139   5.697  1.1936 -0.0164 -1.6575
  930MOL0     C22660   5.577   6.020   5.636  0.2759 -0.5323  0.3728
  930MOL0     C22661   5.553   5.996   5.500  0.7416 -0.3793 -0.0292
  930MOL0     C22662   5.485   6.097   5.424 -0.7498  0.3482 -0.1089
  930MOL0     O22663   5.467   6.069   5.292  0.0465  0.1575 -0.6672
  930MOL0     C22664   5.366   6.147   5.225  0.6659 -0.0523 -0.4309
  930MOL0     C22665   5.334   6.066   5.099 -0.0392 -0.2027 -0.1627
  930MOL0     C22666   5.226   5.951   5.119 -0.0394 -0.7047  0.3002
  930MOL0     C22667   5.080   5.990   5.109  0.5314 -0.9406 -0.3700
  930MOL0     C22668   5.006   5.975   5.244 -0.1094 -0.4662  0.7078
  930MOL0     C22669   4.855   5.997   5.224 -0.0631  0.4805 -0.3278
  930MOL0     C22670   4.768   6.044   5.351  0.3011  0.5678 -0.4855
  930MOL0     C22671   4.761   5.958   5.475 -0.2030 -0.1124 -0.2226
  930MOL0    Cl22672   4.921   5.961   5.560 -0.4362  0.2245  0.5806
  930MOL0     C22673   5.449   6.220   5.494 -0.9097  0.1641 -0.5087
  930MOL0     C22674   5.480   6.240   5.625  0.1218 -0.2349 -0.4951
  930MOL0     O22675   5.595   5.971   5.929 -0.7522 -0.2747 -0.0160
  930MOL0     C22676   5.663   6.086   6.180  1.1888 -0.6755 -0.7415
  930MOL0     C22677   5.669   6.139   6.303 -0.4905 -1.0483 -0.2638
  930MOL0     N22678   5.532   6.674   6.910 -0.4460  0.1642 -0.4064
  930MOL0     N22679   5.497   6.768   6.988 -0.9056 -0.5426  0.7518
  930MOL0     C22680   5.413   6.275   7.343  0.9642 -0.5526  0.3262
  930MOL0     C22681   5.470   6.190   7.244 -0.1033  0.0068  0.1378
  930MOL0     C22682   5.729   6.035   6.902  0.0162 -0.2015 -0.4669
  930MOL0     C22683   5.694   5.961   6.795  0.1470 -0.2339  0.7061
  930MOL0     C22684   5.787   5.938   6.692  0.2074 -0.6182  0.2117
  930MOL0     C22685   5.924   5.975   6.699 -0.7781  0.4011 -0.1582
  930MOL0     O22686   6.026   5.967   6.608  0.7042  0.2725 -0.1580
  930MOL0     C22687   5.980   5.916   6.480 -0.8992  0.2845  0.1963
  930MOL0     C22688   6.103   5.941   6.395 -0.8599  0.0714  0.2538
  930MOL0     C22689   6.155   6.078   6.423 -0.3907 -0.2309 -0.9555
  930MOL0     C22690   6.062   6.197   6.396  0.1432 -0.4351 -0.0394
  930MOL0     C22691   6.034   6.231   6.256  0.7310  0.8755  0.8827
  930MOL0     C22692   6.014   6.272   6.145  0.9748 -1.1994  0.9069
  930MOL0     C22693   5.962   6.040   6.821  0.1456 -0.9504 -0.5754
  930MOL0     C22694   5.870   6.066   6.923 -0.4297  0.9199  0.4878
  930MOL0     H22695   5.804   6.278   7.279  0.1138  0.3784 -2.6764
  930MOL0     H22696   5.687   6.390   7.496 -0.1559  0.6958 -0.1284
  930MOL0     H22697   5.288   6.301   7.621 -2.0539  1.1324  5.0372
  930MOL0     H22698   5.230   6.409   7.491 -1.1425  1.4869  1.4811
  930MOL0     H22699   5.298   6.471   7.774  3.2551  2.1950 -1.3008
  930MOL0     H22700   5.141   6.450   7.716  1.1634 -1.7226  1.3779
  930MOL0     H22701   5.345   6.656   7.600  1.5982 -2.4872  1.9212
  930MOL0     H22702   5.234   6.687   7.734  0.7236 -0.0614  0.7870
  930MOL0     H22703   5.138   6.593   7.449  1.1488 -1.0670 -0.0061
  930MOL0     H22704   5.033   6.642   7.582 -0.5677  2.9618 -0.6461
  930MOL0     H22705   5.104   6.865   7.569 -2.6761 -1.8646  0.3539
  930MOL0     H22706   5.047   6.826   7.415  0.7968 -0.7300 -0.8329
  930MOL0     H22707   5.353   6.861   7.468 -1.0234  1.0611  0.3799
  930MOL0     H22708   5.251   6.941   7.370  0.5816  1.1529  1.1535
  930MOL0     H22709   5.327   6.643   7.350 -1.6533 -2.0239 -2.2479
  930MOL0     H22710   5.242   6.738   7.221 -0.8512  2.9156  0.5112
  930MOL0     H22711   5.525   6.788   7.297 -0.1143  3.1847 -1.4711
  930MOL0     H22712   5.418   6.894   7.205 -0.5869  0.4435  0.0346
  930MOL0     H22713   5.504   6.504   7.183 -0.5781  1.2004  1.1453
  930MOL0     H22714   5.548   6.338   6.978 -1.0382  0.8311  1.2092
  930MOL0     H22715   5.700   6.422   6.937  0.2554  1.3263 -4.3684
  930MOL0     H22716   5.525   6.502   6.720  2.7791 -0.1823  0.5959
  930MOL0     H22717   5.468   6.348   6.769  0.4247 -0.7611 -1.5999
  930MOL0     H22718   5.755   6.409   6.672 -1.0542  0.5464 -1.6008
  930MOL0     H22719   5.723   6.266   6.767  0.5800 -1.4644 -3.1134
  930MOL0     H22720   5.540   6.221   6.573 -0.0793  1.6266 -0.5359
  930MOL0     H22721   5.710   6.169   6.556  1.1274  0.1703 -2.1213
  930MOL0     H22722   5.572   6.455   6.259 -1.6533 -1.2261  3.7039
  930MOL0     H22723   5.537   6.357   6.018 -0.5755 -2.1518  0.3656
  930MOL0     H22724   5.641   5.949   5.687  1.0795 -0.4665 -0.5142
  930MOL0     H22725   5.574   5.901   5.451  4.7390 -0.1518  0.9024
  930MOL0     H22726   5.397   6.249   5.202 -2.8549  1.0940 -0.6142
  930MOL0     H22727   5.274   6.149   5.284  1.3972  1.2607  0.7239
  930MOL0     H22728   5.427   6.020   5.065 -0.5477 -1.8489  0.5313
  930MOL0     H22729   5.305   6.146   5.031 -1.3595 -1.0058 -0.5831
  930MOL0     H22730   5.246   5.901   5.215 -1.3962 -0.9746  0.4531
  930MOL0     H22731   5.251   5.869   5.050 -0.0286 -2.7937  2.6125
  930MOL0     H22732   5.075   6.095   5.076  3.6594 -0.0806  1.5012
  930MOL0     H22733   5.036   5.927   5.030 -0.2011 -3.1096  1.6662
  930MOL0     H22734   5.039   6.046   5.321 -2.3822  3.6603 -1.7870
  930MOL0     H22735   5.021   5.871   5.274  0.2116 -0.1554  1.6820
  930MOL0     H22736   4.816   5.903   5.182 -1.4932  1.7109 -1.9049
  930MOL0     H22737   4.833   6.069   5.145  1.6632  2.8787  1.2656
  930MOL0     H22738   4.799   6.144   5.382 -2.6656  1.5529 -0.4346
  930MOL0     H22739   4.669   6.052   5.306 -0.5307 -3.4975  0.2144
  930MOL0     H22740   4.733   5.853   5.466  1.4648 -0.6013 -0.0161
  930MOL0     H22741   4.691   6.004   5.545 -1.0002 -1.2948 -0.2192
  930MOL0     H22742   5.405   6.298   5.433 -4.8845 -2.5933 -1.6145
  930MOL0     H22743   5.459   6.339   5.663  1.5389 -0.3248  0.6244
  930MOL0     H22744   5.678   5.978   6.183  3.0314 -0.4311  1.8515
  930MOL0     H22745   5.700   6.071   6.381 -3.3755  1.9343  3.8873
  930MOL0     H22746   5.305   6.275   7.353  0.9805  1.7300  1.2872
  930MOL0     H22747   5.408   6.127   7.181  2.4635 -3.2246  0.5931
  930MOL0     H22748   5.588   5.940   6.781 -0.0672  0.4042  1.3654
  930MOL0     H22749   5.757   5.875   6.610 -0.3289 -1.6612  1.1878
  930MOL0     H22750   5.885   5.950   6.438  0.7382 -0.2839 -4.5479
  930MOL0     H22751   5.969   5.809   6.503  1.4735 -0.3374 -1.2729
  930MOL0     H22752   6.175   5.865   6.427 -1.9676 -2.0539 -1.8758
  930MOL0     H22753   6.072   5.928   6.290 -1.1449  1.7576  0.1064
  930MOL0     H22754   6.243   6.091   6.359  0.2662 -1.5865 -0.3828
  930MOL0     H22755   6.198   6.087   6.524 -0.7349 -1.5052 -0.6693
  930MOL0     H22756   5.976   6.179   6.461 -0.5665 -3.1732 -1.5851
  930MOL0     H22757   6.125   6.279   6.433  1.3428 -0.9576 -0.8405
  930MOL0     H22758   5.987   6.322   6.054  1.0889  0.6747  1.8489
  930MOL0     H22759   6.061   6.076   6.846 -0.1950  0.9467 -1.7572
  930MOL0     H22760   5.917   6.127   6.999  2.9475  1.8231 -2.0853
  931MOL0     O22761   3.984   7.006   4.386  0.2016  0.0408 -0.4481
  931MOL0     C22762   4.015   6.912   4.308  1.2979 -0.1939 -0.0574
  931MOL0     O22763   3.981   6.778   4.322  0.5976  1.4245  0.3214
  931MOL0     C22764   3.899   6.715   4.427 -0.4311  1.1564  0.0887
  931MOL0     C22765   3.890   6.572   4.423  0.7142  0.2677 -0.5550
  931MOL0     C22766   3.817   6.500   4.516  0.5368  0.2962  0.0191
  931MOL0     C22767   3.762   6.559   4.636 -0.0330 -0.6341  0.2363
  931MOL0     O22768   3.692   6.508   4.740  0.3576  0.2223 -0.8410
  931MOL0     C22769   3.658   6.367   4.739  0.8382 -0.4163 -0.2251
  931MOL0     C22770   3.566   6.323   4.632  0.3413  0.0356 -0.2862
  931MOL0     C22771   3.426   6.384   4.665 -1.0263  0.2401 -0.6051
  931MOL0     C22772   3.320   6.344   4.569  0.1752 -0.5068  0.3028
  931MOL0     C22773   3.262   6.202   4.612  0.4725 -0.2383 -0.0215
  931MOL0     C22774   3.184   6.176   4.747 -0.1643 -1.0668  0.0440
  931MOL0     C22775   3.048   6.256   4.762  0.2155  1.1572  0.9712
  931MOL0     C22776   2.996   6.199   4.893  0.1319  0.7439 -0.7290
  931MOL0     N22777   2.860   6.244   4.896  0.1604 -0.7631  0.1155
  931MOL0     C22778   2.816   6.379   4.899 -0.2975  1.1741  0.2779
  931MOL0     C22779   2.684   6.376   4.913 -0.3155 -0.2796  0.0359
  931MOL0     C22780   2.594   6.500   4.923 -0.6380  0.2272 -0.3650
  931MOL0     C22781   2.605   6.600   5.050  0.0847  0.9273 -0.9895
  931MOL0     C22782   2.587   6.514   5.176 -0.3678  0.2791  0.1724
  931MOL0     C22783   2.566   6.584   5.315 -0.1746  0.0682  1.4849
  931MOL0     O22784   2.446   6.663   5.340  0.3651  0.7113  0.8481
  931MOL0     C22785   2.448   6.719   5.461  0.0988  0.3699  0.5322
  931MOL0     C22786   2.315   6.731   5.508  0.2830 -0.4111  0.9923
  931MOL0     C22787   2.295   6.782   5.638  0.7171  0.1194  0.1212
  931MOL0     C22788   2.397   6.808   5.727  0.2914  0.6628  0.5980
  931MOL0     C22789   2.369   6.862   5.860  0.0599  0.0931 -0.0869
  931MOL0     O22790   2.478   6.882   5.938 -0.0044  0.0449  0.5061
  931MOL0     C22791   2.462   6.853   6.071  0.3511 -0.5044  1.0431
  931MOL0     C22792   2.364   6.766   6.128  0.2887  0.8021  0.8807
  931MOL0     C22793   2.363   6.735   6.261 -0.3011 -0.4202  0.8423
  931MOL0     C22794   2.446   6.807   6.348  0.2354  0.7285 -0.8722
  931MOL0     O22795   2.437   6.804   6.478  0.0355 -0.8194  0.0470
  931MOL0     C22796   2.315   6.820   6.540  0.5529  0.2714  0.0972
  931MOL0     C22797   2.323   6.827   6.695 -0.3817 -0.5306  1.0529
  931MOL0     C22798   2.400   6.957   6.745 -0.0989 -0.5055  0.6158
  931MOL0     C22799   2.425   6.957   6.891 -0.0471 -0.1138 -1.3792
  931MOL0     C22800   2.508   7.074   6.949 -0.8128 -0.2170 -0.8011
  931MOL0     C22801   2.537   7.060   7.092 -0.2467 -0.2210 -0.4377
  931MOL0     C22802   2.592   7.205   7.133  0.3949  0.2025 -0.3494
  931MOL0     C22803   2.645   7.201   7.272  1.2474 -0.1856 -0.0587
  931MOL0    Cl22804   2.794   7.302   7.292 -0.3124  0.5112 -0.0285
  931MOL0     C22805   2.539   6.900   6.300  0.5469  0.3249  0.3554
  931MOL0     C22806   2.541   6.923   6.158  0.1219  1.6462 -0.7665
  931MOL0     O22807   2.250   6.874   5.885  0.5717 -0.6846 -0.6441
  931MOL0     C22808   2.530   6.783   5.680 -0.7424  1.2050  0.9725
  931MOL0     C22809   2.558   6.740   5.549  0.7753 -0.4077 -0.7683
  931MOL0     N22810   2.634   6.253   4.922  1.2581 -0.1772 -0.3036
  931MOL0     N22811   2.738   6.173   4.910  0.1796  0.5605 -0.1185
  931MOL0     C22812   3.784   6.700   4.649 -0.3990 -0.2104  0.6901
  931MOL0     C22813   3.848   6.775   4.547  0.1199  0.4638  0.5424
  931MOL0     C22814   4.095   6.952   4.192  0.3144 -1.2615  1.2316
  931MOL0     C22815   4.036   6.950   4.065  0.7761 -0.8559  0.0254
  931MOL0     C22816   4.128   6.983   3.954  0.1638  0.1909 -0.4360
  931MOL0     C22817   4.259   7.025   3.963  0.1183  0.0270 -0.5967
  931MOL0     O22818   4.343   7.061   3.859 -0.0295 -0.1969 -0.5714
  931MOL0     C22819   4.285   7.065   3.733 -0.6661 -0.9026  0.7868
  931MOL0     C22820   4.352   7.172   3.653 -0.9050 -0.1236 -0.6323
  931MOL0     C22821   4.300   7.153   3.508  0.6404  0.1991 -0.1882
  931MOL0     C22822   4.161   7.191   3.479 -0.3171  0.7219 -1.2368
  931MOL0     C22823   4.123   7.324   3.526 -0.4428  0.2602  0.7261
  931MOL0     C22824   4.088   7.434   3.563 -0.3982  0.1576  0.1188
  931MOL0     C22825   4.313   7.021   4.095 -0.8651  1.0674  0.2291
  931MOL0     C22826   4.229   6.994   4.200  0.9646  0.0757 -0.0867
  931MOL0     H22827   3.947   6.531   4.341  0.7381 -0.4646 -0.1772
  931MOL0     H22828   3.814   6.392   4.513 -4.7998  0.2176 -0.3865
  931MOL0     H22829   3.612   6.350   4.837  1.4273  1.2797  0.3836
  931MOL0     H22830   3.746   6.302   4.743  2.9624  2.2131 -1.0042
  931MOL0     H22831   3.578   6.215   4.633 -1.0726 -0.2085 -2.5126
  931MOL0     H22832   3.583   6.361   4.531 -1.3911  1.4833 -0.0846
  931MOL0     H22833   3.451   6.491   4.659  4.9944 -0.4492  3.2800
  931MOL0     H22834   3.401   6.368   4.770 -1.1527  0.6957 -0.5639
  931MOL0     H22835   3.246   6.424   4.559 -1.0857 -1.6541  0.0773
  931MOL0     H22836   3.364   6.344   4.469  1.1026  2.4750  0.6034
  931MOL0     H22837   3.348   6.135   4.605  0.2422 -0.4654 -0.8019
  931MOL0     H22838   3.192   6.175   4.532 -1.6670  4.2387  0.0372
  931MOL0     H22839   3.253   6.205   4.827 -1.0504 -0.9336  0.7749
  931MOL0     H22840   3.167   6.070   4.766  4.5679 -1.8109  1.3951
  931MOL0     H22841   3.067   6.364   4.764  1.9308  1.0188 -2.0078
  931MOL0     H22842   2.984   6.234   4.676  0.1702 -0.7362  1.4537
  931MOL0     H22843   3.064   6.235   4.972 -1.2453  1.3342  0.2421
  931MOL0     H22844   3.008   6.091   4.906  2.0029  1.1875  2.2088
  931MOL0     H22845   2.879   6.467   4.895  2.7100 -0.6891  2.7015
  931MOL0     H22846   2.496   6.452   4.931 -0.0669 -0.7379  1.4591
  931MOL0     H22847   2.603   6.561   4.832  0.1694 -0.9427 -1.0933
  931MOL0     H22848   2.527   6.676   5.042 -1.4776 -0.4299  0.4642
  931MOL0     H22849   2.696   6.661   5.054 -0.2120  1.3072  0.5197
  931MOL0     H22850   2.503   6.445   5.171  1.9757 -2.8947  1.2395
  931MOL0     H22851   2.677   6.452   5.180 -0.8526 -0.4940 -0.6249
  931MOL0     H22852   2.652   6.649   5.328  0.0045  0.6824 -1.7592
  931MOL0     H22853   2.578   6.516   5.399  1.1535 -0.1978  1.1082
  931MOL0     H22854   2.234   6.704   5.442 -0.0065  1.5046  0.4841
  931MOL0     H22855   2.193   6.810   5.663  1.0833  1.5058  0.1643
  931MOL0     H22856   2.309   6.710   6.054  2.4949 -0.0347 -0.2195
  931MOL0     H22857   2.308   6.647   6.294  4.0711 -3.3589  1.0519
  931MOL0     H22858   2.250   6.736   6.512 -0.6416  1.0388  0.5210
  931MOL0     H22859   2.272   6.908   6.493 -3.7783 -0.0619  2.8803
  931MOL0     H22860   2.364   6.737   6.741 -0.2656  0.6484  3.4219
  931MOL0     H22861   2.216   6.830   6.718 -0.0763  2.7700  2.5816
  931MOL0     H22862   2.351   7.052   6.722  1.7586  1.1015  2.7748
  931MOL0     H22863   2.493   6.958   6.687 -1.2981  2.1512 -1.4617
  931MOL0     H22864   2.329   6.973   6.940  2.1121  2.6813  2.5555
  931MOL0     H22865   2.464   6.858   6.920 -0.3216  0.0211 -0.5075
  931MOL0     H22866   2.451   7.159   6.909  1.8908  0.9068 -2.5571
  931MOL0     H22867   2.606   7.070   6.900  0.3318 -0.3346  1.3575
  931MOL0     H22868   2.615   6.989   7.121 -1.2170  0.3460  4.4362
  931MOL0     H22869   2.452   7.020   7.147 -1.5704  1.6250 -1.0434
  931MOL0     H22870   2.664   7.252   7.065 -1.0447  1.4878 -1.0399
  931MOL0     H22871   2.506   7.273   7.132  0.9976  0.9803 -1.6349
  931MOL0     H22872   2.668   7.098   7.302 -0.7205  0.1971  3.3140
  931MOL0     H22873   2.563   7.248   7.327  0.2164  1.1334 -2.5560
  931MOL0     H22874   2.604   6.957   6.365  3.4106 -1.6320 -0.6018
  931MOL0     H22875   2.612   6.997   6.122  2.4434  0.4859  1.1588
  931MOL0     H22876   2.615   6.796   5.745  1.0228 -0.9860 -0.7409
  931MOL0     H22877   2.659   6.740   5.512  1.0386  2.1869 -0.2176
  931MOL0     H22878   3.748   6.743   4.742  2.6263  1.2147  1.3107
  931MOL0     H22879   3.856   6.881   4.565  2.2408  0.6255 -0.9713
  931MOL0     H22880   3.931   6.927   4.051 -0.0519  0.2343  3.5381
  931MOL0     H22881   4.073   6.979   3.860 -2.9891  0.2694  1.2832
  931MOL0     H22882   4.178   7.083   3.718 -0.8350 -0.4428  2.3736
  931MOL0     H22883   4.301   6.972   3.678 -0.0335 -0.0825 -0.4799
  931MOL0     H22884   4.330   7.273   3.689 -0.7169 -0.3846  0.2440
  931MOL0     H22885   4.460   7.154   3.648 -1.2448 -1.9534 -3.0835
  931MOL0     H22886   4.315   7.054   3.464 -3.5402  0.1369 -1.8894
  931MOL0     H22887   4.355   7.209   3.432  1.5985 -2.3103 -1.4643
  931MOL0     H22888   4.142   7.165   3.374  3.3090 -3.0716 -1.2137
  931MOL0     H22889   4.098   7.122   3.537  0.1077  1.3661  0.0324
  931MOL0     H22890   4.076   7.534   3.600  1.3354  0.8011 -0.9066
  931MOL0     H22891   4.419   7.041   4.095 -0.4625 -0.8549  0.1590
  931MOL0     H22892   4.280   7.021   4.292  0.8668  2.0126 -0.5669
  932MOL0     O22893   9.238  10.292   2.870  0.2539 -0.5231 -1.1505
  932MOL0     C22894   9.286  10.261   2.761  0.2614  0.7546  0.8924
  932MOL0     O22895   9.215  10.187   2.668 -0.5682  0.2844 -0.8963
  932MOL0     C22896   9.088  10.154   2.687  0.1857  0.2587  1.0024
  932MOL0     C22897   9.057  10.025   2.725  0.6119  0.4366  0.3519
  932MOL0     C22898   8.922   9.988   2.717  0.2801  0.5159  0.7061
  932MOL0     C22899   8.827  10.073   2.679  0.4508 -0.3009  1.3260
  932MOL0     O22900   8.700  10.020   2.666 -0.2861  0.2804  0.6939
  932MOL0     C22901   8.624  10.035   2.542  0.0266 -0.3272 -0.5591
  932MOL0     C22902   8.479  10.083   2.556 -0.5070  0.2907 -0.7456
  932MOL0     C22903   8.393  10.032   2.427 -1.2139 -0.2933 -0.1482
  932MOL0     C22904   8.246  10.058   2.435 -0.4727  0.1240 -0.3482
  932MOL0     C22905   8.164   9.988   2.331  1.4351 -0.4246 -0.4716
  932MOL0     C22906   8.015  10.027   2.339 -0.5478 -0.4912 -0.2144
  932MOL0     C22907   7.931   9.930   2.252  0.0344 -0.4880 -0.3178
  932MOL0     C22908   7.781   9.957   2.284 -0.3930 -0.0011  0.1450
  932MOL0     N22909   7.745   9.911   2.418  0.1828  0.5759 -0.4127
  932MOL0     C22910   7.715   9.787   2.468  0.4876 -0.3342 -0.4772
  932MOL0     C22911   7.659   9.807   2.593 -0.2697  0.8958 -0.0499
  932MOL0     C22912   7.598   9.715   2.696 -0.5457 -0.0376  0.6542
  932MOL0     C22913   7.465   9.769   2.754  0.0129  0.8525 -0.5587
  932MOL0     C22914   7.371   9.760   2.647 -0.2647 -0.0275 -0.5933
  932MOL0     C22915   7.243   9.838   2.684 -0.1297  0.2823  0.3855
  932MOL0     O22916   7.137   9.820   2.586 -0.2695  0.9634 -0.4140
  932MOL0     C22917   7.023   9.893   2.600  0.6303  1.5142 -0.0513
  932MOL0     C22918   6.931   9.869   2.493 -0.1255 -0.0212 -0.9665
  932MOL0     C22919   6.811   9.946   2.484 -0.0275  0.1678  0.9553
  932MOL0     C22920   6.772  10.043   2.585 -0.5064 -0.0075 -0.0114
  932MOL0     C22921   6.647  10.121   2.580 -0.2833  0.8207  0.2643
  932MOL0     O22922   6.621  10.224   2.665  0.4824  0.1916 -0.2156
  932MOL0     C22923   6.538  10.328   2.652 -0.3025 -0.1884  0.8534
  932MOL0     C22924   6.522  10.424   2.754  1.1422 -0.9450  0.4084
  932MOL0     C22925   6.436  10.538   2.729  0.2440 -0.8636 -1.0644
  932MOL0     C22926   6.365  10.566   2.609  0.1623  0.7423  0.6237
  932MOL0     O22927   6.283  10.677   2.588 -1.2057  0.1838  0.4511
  932MOL0     C22928   6.155  10.642   2.635 -0.2805  0.3479 -0.8949
  932MOL0     C22929   6.065  10.599   2.523 -0.2898  0.6289 -0.7781
  932MOL0     C22930   6.070  10.689   2.395 -0.0871  0.1184  0.7501
  932MOL0     C22931   5.955  10.640   2.307 -0.5896  0.3896  0.0619
  932MOL0     C22932   5.938  10.702   2.162  0.2178  0.1500 -0.0934
  932MOL0     C22933   6.058  10.668   2.066 -0.2705 -0.4056  0.3471
  932MOL0     C22934   6.035  10.729   1.925  0.0995  0.3711  1.3405
  932MOL0     C22935   5.910  10.674   1.854  0.0989  0.5577 -0.7997
  932MOL0    Cl22936   5.907  10.752   1.700  0.4465 -0.1663  0.3568
  932MOL0     C22937   6.397  10.477   2.505 -0.0940 -0.3730 -0.3638
  932MOL0     C22938   6.481  10.362   2.521  0.8680 -0.3560 -0.1071
  932MOL0     O22939   6.572  10.082   2.500  0.8313 -0.6742  0.0034
  932MOL0     C22940   6.861  10.058   2.682 -0.2379  0.0107 -0.0423
  932MOL0     C22941   6.984   9.983   2.701 -0.5732  0.8687 -0.1996
  932MOL0     N22942   7.660   9.938   2.621  0.5387 -0.6282 -0.6437
  932MOL0     N22943   7.731   9.997   2.527 -0.6087 -0.5422  0.1047
  932MOL0     C22944   8.864  10.197   2.632 -0.9741  0.2293  1.5185
  932MOL0     C22945   8.992  10.239   2.625  0.2760 -0.1170  0.0876
  932MOL0     C22946   9.415  10.301   2.711  0.0728 -0.5826  0.2717
  932MOL0     C22947   9.469  10.271   2.586 -0.1181 -0.1068  0.4629
  932MOL0     C22948   9.590  10.322   2.542 -0.3607  1.6332 -0.0933
  932MOL0     C22949   9.667  10.397   2.629 -0.3783 -0.1465 -0.5764
  932MOL0     O22950   9.790  10.439   2.581 -0.0407  0.5023 -0.1892
  932MOL0     C22951   9.883  10.514   2.665 -0.5315 -0.4144  0.8513
  932MOL0     C22952   9.874  10.677   2.657 -0.2761  1.6076 -0.0509
  932MOL0     C22953   9.744  10.733   2.715  0.8484  0.4922 -0.3936
  932MOL0     C22954   9.725  10.890   2.720 -0.2893 -0.1154  0.2752
  932MOL0     C22955   9.713  10.944   2.590  0.4426  0.5987  0.6953
  932MOL0     C22956   9.694  10.993   2.480 -0.2038  0.9432  0.6416
  932MOL0     C22957   9.628  10.420   2.768 -0.1115  0.2997  0.6836
  932MOL0     C22958   9.500  10.366   2.798 -0.2980  0.6974 -0.0076
  932MOL0     H22959   9.133   9.957   2.762  1.0614 -1.6620 -3.8550
  932MOL0     H22960   8.904   9.885   2.745 -0.4847  0.9537  1.9244
  932MOL0     H22961   8.619   9.938   2.490 -4.0296 -0.1126 -0.9373
  932MOL0     H22962   8.681  10.108   2.485 -0.1613  2.1920  2.2776
  932MOL0     H22963   8.481  10.191   2.570 -2.0583  0.3126 -0.4785
  932MOL0     H22964   8.434  10.048   2.650  2.8191  1.5990  1.5211
  932MOL0     H22965   8.397   9.924   2.415 -1.5786 -0.3702  0.3973
  932MOL0     H22966   8.431  10.073   2.333 -2.8371 -0.0590 -0.7327
  932MOL0     H22967   8.212  10.028   2.535 -0.9935  4.0012  0.8085
  932MOL0     H22968   8.234  10.166   2.430 -1.8375 -0.0335 -1.3500
  932MOL0     H22969   8.173   9.880   2.346 -3.8724 -0.8709  1.6518
  932MOL0     H22970   8.204  10.018   2.234 -0.3280 -2.6348 -1.9770
  932MOL0     H22971   8.018  10.132   2.310  0.6745 -0.7247 -1.0046
  932MOL0     H22972   7.973  10.028   2.440  3.6902  0.4945  1.7666
  932MOL0     H22973   7.946   9.946   2.145 -1.7460 -1.6005 -0.7802
  932MOL0     H22974   7.958   9.827   2.279  1.1886  0.7621  4.1078
  932MOL0     H22975   7.717   9.907   2.211  0.3057 -1.5064  0.5026
  932MOL0     H22976   7.766  10.064   2.269 -7.2609 -0.2626  1.6752
  932MOL0     H22977   7.711   9.691   2.418 -1.8784  0.3701 -1.8119
  932MOL0     H22978   7.670   9.718   2.778 -2.4942 -0.7389  2.4958
  932MOL0     H22979   7.595   9.615   2.651 -2.5952  0.3075 -0.0956
  932MOL0     H22980   7.471   9.872   2.791 -2.3770  0.2369  1.8700
  932MOL0     H22981   7.437   9.705   2.839 -0.8131  0.2438 -1.2689
  932MOL0     H22982   7.418   9.800   2.557  2.0478 -1.8505 -0.3115
  932MOL0     H22983   7.345   9.656   2.627  1.9522 -1.0157  1.1849
  932MOL0     H22984   7.263   9.944   2.698 -0.7088  0.5615 -0.8098
  932MOL0     H22985   7.208   9.794   2.778  0.6647 -0.4403  0.3536
  932MOL0     H22986   6.963   9.796   2.419  1.4995 -1.4988  1.0637
  932MOL0     H22987   6.748   9.921   2.400 -0.8321  0.3774  1.4894
  932MOL0     H22988   6.573  10.425   2.849 -0.6445  2.6231  1.5043
  932MOL0     H22989   6.431  10.611   2.809  0.0042  1.4189 -3.0430
  932MOL0     H22990   6.111  10.738   2.660 -0.7830  0.1242 -0.9103
  932MOL0     H22991   6.155  10.580   2.725  1.7353  2.2382  0.4940
  932MOL0     H22992   5.959  10.593   2.551 -0.6662 -1.8418 -2.3683
  932MOL0     H22993   6.099  10.500   2.492 -0.6672  0.3074 -0.1967
  932MOL0     H22994   6.162  10.682   2.337 -0.3495  1.1141  0.1908
  932MOL0     H22995   6.048  10.794   2.419  0.0838  0.3925 -0.2291
  932MOL0     H22996   5.984  10.535   2.301  1.8274  0.5283  4.6815
  932MOL0     H22997   5.861  10.656   2.360 -0.2501 -0.6814  1.0341
  932MOL0     H22998   5.933  10.809   2.183  1.7451  0.1293  0.5243
  932MOL0     H22999   5.839  10.678   2.122  0.9894 -1.8247 -0.9271
  932MOL0     H23000   6.084  10.562   2.061  1.8409  0.1050 -0.4735
  932MOL0     H23001   6.142  10.708   2.123 -0.4787 -1.8021  1.7009
  932MOL0     H23002   6.016  10.835   1.944  0.5976  0.5753  0.7539
  932MOL0     H23003   6.121  10.723   1.857  0.8731  0.7708  2.2554
  932MOL0     H23004   5.821  10.687   1.916  1.2709  0.3903  0.9857
  932MOL0     H23005   5.933  10.568   1.840 -2.0075 -0.3387  1.6366
  932MOL0     H23006   6.356  10.490   2.405  2.9215 -1.1482 -1.8174
  932MOL0     H23007   6.506  10.295   2.439  0.5189 -0.1508 -0.3829
  932MOL0     H23008   6.844  10.141   2.750 -2.9990  2.0882 -2.9769
  932MOL0     H23009   7.056  10.023   2.772 -0.8759  1.5593 -0.2709
  932MOL0     H23010   8.799  10.271   2.585 -1.5668 -1.5218 -0.6299
  932MOL0     H23011   9.011  10.333   2.574  0.8596 -0.6623 -0.7336
  932MOL0     H23012   9.416  10.221   2.506 -1.3276  2.7673 -0.6801
  932MOL0     H23013   9.619  10.305   2.439 -1.9040  0.8612 -0.4407
  932MOL0     H23014   9.981  10.485   2.624  0.3545  1.3580  1.6403
  932MOL0     H23015   9.880  10.491   2.772 -0.1672 -3.1252  0.3682
  932MOL0     H23016   9.955  10.724   2.713 -0.6713  4.2448 -1.5253
  932MOL0     H23017   9.874  10.695   2.550  1.5908 -4.1996 -1.4091
  932MOL0     H23018   9.742  10.697   2.818  1.9163  0.0118 -0.5359
  932MOL0     H23019   9.653  10.691   2.672 -1.5547 -0.4837  4.8716
  932MOL0     H23020   9.635  10.912   2.779 -0.2779 -2.7566  1.4553
  932MOL0     H23021   9.808  10.932   2.778 -0.3912 -0.4102  0.6422
  932MOL0     H23022   9.679  11.031   2.381 -1.1946  1.8462  1.1249
  932MOL0     H23023   9.689  10.487   2.828  1.7528 -0.5292 -0.1896
  932MOL0     H23024   9.472  10.391   2.899 -0.5671  1.2716 -0.2188
  933MOL0     O23025   9.158   8.409   8.052  0.6772 -1.1932 -0.6903
  933MOL0     C23026   9.192   8.499   7.988  0.0497 -1.3115  0.7456
  933MOL0     O23027   9.126   8.622   7.969  0.3561 -0.0533  0.2369
  933MOL0     C23028   9.006   8.661   8.024 -0.2365 -0.2380  0.1650
  933MOL0     C23029   8.927   8.588   8.111  0.2850  0.6628  0.1372
  933MOL0     C23030   8.815   8.637   8.175 -0.0372 -0.7782 -1.5595
  933MOL0     C23031   8.779   8.768   8.151 -0.6217 -0.6806 -0.0027
  933MOL0     O23032   8.677   8.814   8.234 -0.0206  0.0881  0.3916
  933MOL0     C23033   8.602   8.922   8.175 -0.4443  0.2348 -0.6947
  933MOL0     C23034   8.476   8.959   8.247 -0.2402 -0.4447 -0.0028
  933MOL0     C23035   8.443   9.108   8.213 -0.2545  0.8975 -0.4848
  933MOL0     C23036   8.301   9.135   8.261 -0.0637  0.4351  0.2901
  933MOL0     C23037   8.230   9.252   8.189  0.6998 -0.4127 -0.0140
  933MOL0     C23038   8.075   9.274   8.226  1.1291  0.4806  0.8140
  933MOL0     C23039   8.003   9.144   8.222 -0.0981  0.2378 -0.4691
  933MOL0     C23040   7.859   9.167   8.167 -0.2708  0.8571  0.1536
  933MOL0     N23041   7.849   9.201   8.022 -1.0107  0.2981  0.0749
  933MOL0     C23042   7.944   9.242   7.926 -1.0549 -0.0225 -0.1915
  933MOL0     C23043   7.875   9.253   7.810  0.0678  0.0112 -0.6244
  933MOL0     C23044   7.936   9.342   7.700  0.9376 -0.1899  0.1150
  933MOL0     C23045   7.953   9.269   7.571  0.5847  1.0423  0.6790
  933MOL0     C23046   8.096   9.257   7.518  0.6583 -0.0725  0.0953
  933MOL0     C23047   8.099   9.188   7.378 -0.6142 -0.2464 -0.9326
  933MOL0     O23048   8.233   9.167   7.337 -0.1275  0.2272 -0.9420
  933MOL0     C23049   8.297   9.043   7.355  0.0082 -0.5679  0.3461
  933MOL0     C23050   8.402   9.019   7.267 -0.1343 -1.3945  0.4536
  933MOL0     C23051   8.462   8.893   7.257  0.5831  1.5965 -0.3256
  933MOL0     C23052   8.444   8.803   7.363  0.3147 -0.7770  0.3641
  933MOL0     C23053   8.509   8.666   7.351 -0.4504 -0.3788  0.0747
  933MOL0     O23054   8.601   8.646   7.255 -0.1296 -0.7339 -0.5257
  933MOL0     C23055   8.607   8.524   7.198  0.1440  0.3928 -0.3454
  933MOL0     C23056   8.510   8.474   7.105  1.0861 -0.0044 -0.2585
  933MOL0     C23057   8.535   8.356   7.041 -0.3090 -0.6717  0.0127
  933MOL0     C23058   8.655   8.289   7.067  0.0269 -1.0475  0.5057
  933MOL0     O23059   8.675   8.183   6.992  0.0369  0.9191  0.3769
  933MOL0     C23060   8.767   8.091   7.057  0.4214  0.2443 -0.3190
  933MOL0     C23061   8.766   7.963   6.982  0.0533  0.4160 -0.0193
  933MOL0     C23062   8.811   7.972   6.835 -0.3229 -0.3430 -0.0551
  933MOL0     C23063   8.763   7.855   6.750 -0.1903  0.4271 -0.5784
  933MOL0     C23064   8.835   7.849   6.614  0.6210  0.0701  0.1224
  933MOL0     C23065   8.951   7.749   6.623 -0.6465  0.0702  1.1802
  933MOL0     C23066   9.024   7.745   6.492 -0.3273 -0.5710 -0.6340
  933MOL0     C23067   9.151   7.673   6.506 -0.0365  0.3493  0.2991
  933MOL0    Cl23068   9.248   7.722   6.363  0.0518  0.4094 -0.3279
  933MOL0     C23069   8.754   8.340   7.149 -0.0031 -0.4112  0.0898
  933MOL0     C23070   8.727   8.454   7.217  0.1373  0.1247  0.7676
  933MOL0     O23071   8.474   8.583   7.432  0.9976 -0.2344 -0.4751
  933MOL0     C23072   8.347   8.832   7.457  0.9515  0.7946 -0.7766
  933MOL0     C23073   8.271   8.948   7.457  0.0422 -1.1407  0.3393
  933MOL0     N23074   7.750   9.211   7.828  0.1873  0.3406 -0.7982
  933MOL0     N23075   7.731   9.180   7.952 -0.7666  0.0696 -0.6135
  933MOL0     C23076   8.853   8.841   8.071 -0.8324 -0.6004  0.2845
  933MOL0     C23077   8.958   8.787   8.007 -0.9557 -0.4250 -0.2589
  933MOL0     C23078   9.319   8.485   7.922 -0.3382 -0.4884  0.4832
  933MOL0     C23079   9.427   8.425   7.988  0.4479  0.8381 -0.2750
  933MOL0     C23080   9.548   8.424   7.923  0.2367  0.5343 -0.0671
  933MOL0     C23081   9.565   8.467   7.794  0.0573 -0.1456 -0.4756
  933MOL0     O23082   9.680   8.463   7.728  0.0780 -0.6243  0.1408
  933MOL0     C23083   9.732   8.332   7.714 -0.2458 -0.7496  0.9044
  933MOL0     C23084   9.664   8.244   7.604 -0.1127 -0.6265 -1.1286
  933MOL0     C23085   9.737   8.113   7.552 -1.0824  0.9944 -0.4337
  933MOL0     C23086   9.743   8.000   7.656 -0.6942  0.1342  0.8262
  933MOL0     C23087   9.608   7.959   7.697 -0.0943 -0.6238 -0.0614
  933MOL0     C23088   9.502   7.910   7.736 -0.1530 -1.3789  0.0812
  933MOL0     C23089   9.466   8.527   7.719  0.1239  0.4651  0.7205
  933MOL0     C23090   9.340   8.532   7.788 -0.2922  0.8735  0.2065
  933MOL0     H23091   8.958   8.485   8.128 -2.7903 -0.3938  0.0367
  933MOL0     H23092   8.756   8.569   8.235  0.7651 -0.7343 -0.7096
  933MOL0     H23093   8.567   8.899   8.074 -3.7902 -2.4556  0.8558
  933MOL0     H23094   8.671   9.006   8.177  2.5709 -2.0801  1.1224
  933MOL0     H23095   8.486   8.955   8.355 -4.7821  1.8453  0.7482
  933MOL0     H23096   8.400   8.889   8.211 -1.9640  1.5784 -0.5470
  933MOL0     H23097   8.436   9.122   8.105  2.0654  3.4774 -0.4263
  933MOL0     H23098   8.528   9.165   8.252 -0.2672 -0.3907  1.6362
  933MOL0     H23099   8.230   9.057   8.232 -2.9039  2.5698  1.0336
  933MOL0     H23100   8.294   9.144   8.370 -0.2282 -1.3209  0.4584
  933MOL0     H23101   8.237   9.245   8.080 -2.1719 -1.9344 -0.2064
  933MOL0     H23102   8.279   9.345   8.218 -2.2817  1.1362  0.5456
  933MOL0     H23103   8.026   9.346   8.160 -1.5389 -0.7700  1.3161
  933MOL0     H23104   8.056   9.315   8.326 -2.7724  2.7198 -0.6319
  933MOL0     H23105   8.046   9.080   8.144 -3.8961 -1.1013 -1.7088
  933MOL0     H23106   7.989   9.083   8.312 -4.3218  1.6306  0.0420
  933MOL0     H23107   7.815   9.246   8.229  1.3950  1.1547  1.0177
  933MOL0     H23108   7.801   9.075   8.176  0.6636  0.2183 -0.1954
  933MOL0     H23109   8.048   9.265   7.944 -0.8344 -0.6985 -0.5715
  933MOL0     H23110   8.035   9.379   7.726  1.9551 -2.4452 -0.2572
  933MOL0     H23111   7.867   9.425   7.684 -4.4869 -3.2215  4.1549
  933MOL0     H23112   7.894   9.317   7.492  1.9736  1.1802 -0.3077
  933MOL0     H23113   7.904   9.173   7.587 -0.5423  1.6675  1.1104
  933MOL0     H23114   8.146   9.353   7.501  3.1680 -1.2849  0.1962
  933MOL0     H23115   8.146   9.188   7.587  1.7547  1.0555  0.4620
  933MOL0     H23116   8.041   9.254   7.313 -1.6271  0.5582  0.7236
  933MOL0     H23117   8.051   9.090   7.377 -0.0929 -0.5023 -1.0326
  933MOL0     H23118   8.409   9.102   7.198 -2.3423 -3.6922 -2.8722
  933MOL0     H23119   8.534   8.864   7.181  2.9174  0.9825  2.0046
  933MOL0     H23120   8.415   8.525   7.093  1.9034  1.5846 -0.3474
  933MOL0     H23121   8.458   8.321   6.973 -0.2178 -0.5650 -0.1500
  933MOL0     H23122   8.739   8.067   7.160  3.5979 -1.5792  0.2383
  933MOL0     H23123   8.865   8.140   7.053 -0.8730  2.9909 -1.6396
  933MOL0     H23124   8.671   7.910   6.972 -0.2223  1.0787 -1.0317
  933MOL0     H23125   8.842   7.906   7.038  0.2389  1.8295  1.2655
  933MOL0     H23126   8.918   7.992   6.839 -0.1754 -1.3463  2.0362
  933MOL0     H23127   8.769   8.065   6.796  0.5135 -0.1918 -0.6253
  933MOL0     H23128   8.754   7.760   6.804  2.0241  2.1658  3.2393
  933MOL0     H23129   8.662   7.882   6.717 -0.7163  0.6990  1.1869
  933MOL0     H23130   8.872   7.943   6.571  0.9649 -0.0890  0.0637
  933MOL0     H23131   8.761   7.806   6.546 -0.8534  3.4546 -0.6084
  933MOL0     H23132   8.913   7.651   6.655 -0.1178 -0.6104 -0.2293
  933MOL0     H23133   9.005   7.774   6.715  4.1907 -0.5794 -1.2230
  933MOL0     H23134   8.961   7.690   6.421  1.0724  0.3696 -2.7122
  933MOL0     H23135   9.044   7.837   6.437 -1.8417 -0.1293 -0.5012
  933MOL0     H23136   9.132   7.565   6.505 -2.0616  0.6803  0.2568
  933MOL0     H23137   9.214   7.693   6.593  0.3233  0.4645  0.0161
  933MOL0     H23138   8.857   8.306   7.155 -0.0310 -0.2488  3.1922
  933MOL0     H23139   8.790   8.479   7.302 -3.1558 -2.1318  4.1850
  933MOL0     H23140   8.332   8.760   7.536 -3.0185 -1.3652 -3.2021
  933MOL0     H23141   8.195   8.957   7.534  0.2088 -0.4568  0.4280
  933MOL0     H23142   8.827   8.945   8.054  1.9075  0.1879  0.4829
  933MOL0     H23143   9.002   8.839   7.923  2.8828 -0.0171  1.7871
  933MOL0     H23144   9.430   8.380   8.087  3.2230 -3.5317 -2.0226
  933MOL0     H23145   9.632   8.381   7.975 -0.1302  0.2563  0.3029
  933MOL0     H23146   9.714   8.283   7.811 -2.8287 -0.3866  0.6671
  933MOL0     H23147   9.839   8.312   7.701 -0.7392 -1.6983 -2.6815
  933MOL0     H23148   9.563   8.223   7.642  0.8286 -1.0894  1.3125
  933MOL0     H23149   9.627   8.311   7.525  0.2861 -1.4400 -2.0327
  933MOL0     H23150   9.841   8.131   7.522 -0.1307 -2.2356  0.4903
  933MOL0     H23151   9.700   8.095   7.451  0.2911  5.5234 -1.9900
  933MOL0     H23152   9.788   7.911   7.612 -0.7246  1.4873 -2.2402
  933MOL0     H23153   9.801   8.039   7.740 -0.0005 -1.1304  0.9639
  933MOL0     H23154   9.413   7.854   7.757 -1.4495 -0.4183 -2.4387
  933MOL0     H23155   9.487   8.566   7.620 -3.3938  1.1422  0.1211
  933MOL0     H23156   9.257   8.591   7.751 -0.5104  1.1494  1.0971
  934MOL0     O23157   3.890   3.517   7.733  0.2058 -0.5220 -0.2352
  934MOL0     C23158   3.901   3.513   7.610 -0.2023  0.9846 -1.3252
  934MOL0     O23159   3.826   3.442   7.522  0.4948  0.5191  0.2159
  934MOL0     C23160   3.734   3.358   7.571 -0.5915 -0.2103  0.6008
  934MOL0     C23161   3.765   3.227   7.580  0.9388  1.0953 -0.9437
  934MOL0     C23162   3.673   3.134   7.634 -0.0122  0.7686  0.8592
  934MOL0     C23163   3.546   3.172   7.665  0.7666  0.0087 -0.0530
  934MOL0     O23164   3.447   3.088   7.711 -0.8310  0.3195  0.6834
  934MOL0     C23165   3.494   2.958   7.761 -0.5866 -0.4159  0.6953
  934MOL0     C23166   3.382   2.875   7.827  0.6170  0.9069  0.2836
  934MOL0     C23167   3.311   2.944   7.948  1.1521  0.2790  0.3773
  934MOL0     C23168   3.174   2.867   7.958  0.6554  0.7422 -0.1218
  934MOL0     C23169   3.102   2.893   8.094  0.5213 -0.7348  0.0859
  934MOL0     C23170   2.952   2.846   8.093  0.9626  0.5562 -0.0512
  934MOL0     C23171   2.854   2.905   7.989 -1.1378  0.1617  0.0400
  934MOL0     C23172   2.715   2.930   8.051  1.0176 -0.2507  0.4935
  934MOL0     N23173   2.631   3.035   7.987  0.3571  0.4128  0.0547
  934MOL0     C23174   2.565   3.044   7.868  0.4828  0.5374 -0.1830
  934MOL0     C23175   2.486   3.152   7.875  0.2243  0.5204 -0.4381
  934MOL0     C23176   2.367   3.213   7.797 -0.8153 -0.9639 -1.2130
  934MOL0     C23177   2.254   3.121   7.759  0.2604  0.2592  0.7519
  934MOL0     C23178   2.121   3.189   7.719 -0.6099  0.1386  0.2925
  934MOL0     C23179   2.133   3.269   7.588  0.7123  0.0710  0.5833
  934MOL0     O23180   1.997   3.278   7.549 -0.9746 -0.7604  0.1919
  934MOL0     C23181   1.978   3.353   7.439 -0.4186 -0.1039  0.0000
  934MOL0     C23182   2.083   3.404   7.362  0.4263 -0.5914  0.1149
  934MOL0     C23183   2.062   3.486   7.248  0.2984  0.9231 -0.6979
  934MOL0     C23184   1.932   3.519   7.209 -0.1450 -0.3041 -0.6738
  934MOL0     C23185   1.915   3.602   7.088  0.2123 -0.7586 -0.4217
  934MOL0     O23186   2.017   3.597   7.000 -0.7383  1.1945  0.0956
  934MOL0     C23187   1.994   3.672   6.886  0.1162 -0.0505  0.8716
  934MOL0     C23188   1.897   3.632   6.793  0.0532 -0.1153  0.1288
  934MOL0     C23189   1.892   3.700   6.666 -0.5048  0.0207 -0.8978
  934MOL0     C23190   1.975   3.810   6.640  0.0317  0.5017  1.2750
  934MOL0     O23191   1.958   3.881   6.525  0.4795 -0.2397  0.1347
  934MOL0     C23192   1.834   3.969   6.527 -0.0159  0.5556  0.2156
  934MOL0     C23193   1.869   4.110   6.499  0.1859 -0.1309  0.0695
  934MOL0     C23194   1.746   4.202   6.499  0.2068 -0.3221  0.4104
  934MOL0     C23195   1.773   4.321   6.421 -0.0564  0.2098  0.8396
  934MOL0     C23196   1.791   4.302   6.271  0.8745  0.0686  0.3548
  934MOL0     C23197   1.708   4.197   6.191  0.0739  0.2902 -0.2351
  934MOL0     C23198   1.559   4.238   6.195  0.2038 -0.2778 -0.1730
  934MOL0     C23199   1.471   4.128   6.139 -0.7792 -0.2618  0.3040
  934MOL0    Cl23200   1.300   4.192   6.153 -0.1855 -0.1988 -0.1180
  934MOL0     C23201   2.075   3.846   6.727 -0.6722 -0.3632  0.1688
  934MOL0     C23202   2.084   3.776   6.853  1.0253  0.9635  0.3433
  934MOL0     O23203   1.810   3.675   7.079 -0.6744  0.4310 -0.6090
  934MOL0     C23204   1.825   3.480   7.302  0.1570 -0.5628 -0.6571
  934MOL0     C23205   1.853   3.395   7.411 -0.7337 -0.7357  0.3558
  934MOL0     N23206   2.522   3.214   7.991 -0.1085 -0.5390  0.0797
  934MOL0     N23207   2.604   3.145   8.055  0.6581  0.0464 -0.5344
  934MOL0     C23208   3.511   3.307   7.644  0.6513  0.3487 -0.2024
  934MOL0     C23209   3.600   3.400   7.592 -0.5776 -0.4822  0.1517
  934MOL0     C23210   3.993   3.610   7.561 -0.6229  0.8363  0.1813
  934MOL0     C23211   4.032   3.608   7.423 -0.3447  0.6551  0.0412
  934MOL0     C23212   4.136   3.689   7.383 -0.8375 -0.5587 -0.5717
  934MOL0     C23213   4.200   3.783   7.472  0.3593 -0.3776  0.8689
  934MOL0     O23214   4.310   3.846   7.425  0.0984  0.0450 -0.0148
  934MOL0     C23215   4.311   3.985   7.465 -0.1182 -0.0466 -0.3812
  934MOL0     C23216   4.409   4.058   7.372  0.1934 -0.0172  0.4830
  934MOL0     C23217   4.396   4.207   7.368  0.2566  0.3239  1.2909
  934MOL0     C23218   4.504   4.286   7.446 -0.6178  0.3637  0.8257
  934MOL0     C23219   4.465   4.305   7.585 -0.1603 -0.1281  0.2690
  934MOL0     C23220   4.430   4.314   7.699 -0.1935 -0.0444 -0.1133
  934MOL0     C23221   4.156   3.788   7.606  0.0721  0.4130  0.3780
  934MOL0     C23222   4.058   3.697   7.652 -0.4733 -0.1452  0.3991
  934MOL0     H23223   3.865   3.198   7.549 -0.0058  1.9683 -5.4424
  934MOL0     H23224   3.701   3.031   7.650 -1.1301  0.2415 -0.4781
  934MOL0     H23225   3.576   2.971   7.832 -0.7418 -3.8808  1.6935
  934MOL0     H23226   3.539   2.897   7.681  0.5366  0.0082  0.9849
  934MOL0     H23227   3.429   2.777   7.842  0.9208  0.9965 -0.0616
  934MOL0     H23228   3.304   2.858   7.751 -0.9475 -0.1651  2.0403
  934MOL0     H23229   3.284   3.046   7.919 -0.8870 -0.7957 -1.8343
  934MOL0     H23230   3.366   2.938   8.042 -2.1714  0.1723  2.4682
  934MOL0     H23231   3.101   2.880   7.878  0.9371 -3.6751 -1.3734
  934MOL0     H23232   3.190   2.763   7.929  0.4915  0.1804  1.7022
  934MOL0     H23233   3.099   3.002   8.101  0.5650 -0.4850 -2.6172
  934MOL0     H23234   3.148   2.833   8.174 -0.4768  0.7710  1.8577
  934MOL0     H23235   2.918   2.866   8.196  1.2091  1.6872 -0.1707
  934MOL0     H23236   2.944   2.739   8.073  4.2924  0.1559  0.1870
  934MOL0     H23237   2.900   2.997   7.951 -0.0750  0.7991  2.6388
  934MOL0     H23238   2.866   2.845   7.898  3.6325  1.6358 -0.6121
  934MOL0     H23239   2.728   2.951   8.158 -2.0577 -0.1748  0.9300
  934MOL0     H23240   2.650   2.842   8.049 -1.1814  1.2783  1.2961
  934MOL0     H23241   2.571   2.980   7.781  0.4314  0.5485 -0.1952
  934MOL0     H23242   2.416   3.246   7.706  0.2385 -0.7164 -0.5725
  934MOL0     H23243   2.324   3.300   7.847  1.7891  1.1374 -2.3957
  934MOL0     H23244   2.245   3.033   7.824 -1.0103 -3.2293 -3.6797
  934MOL0     H23245   2.294   3.077   7.668 -0.4605  1.7496 -0.3242
  934MOL0     H23246   2.045   3.113   7.697  0.6382 -0.6867 -1.3406
  934MOL0     H23247   2.092   3.257   7.800  0.5427  3.3018 -1.7794
  934MOL0     H23248   2.180   3.204   7.514  3.1287 -1.1009  3.0174
  934MOL0     H23249   2.183   3.366   7.592  3.0961 -1.1300  2.9419
  934MOL0     H23250   2.186   3.382   7.385  0.2343 -0.9244  0.6923
  934MOL0     H23251   2.148   3.543   7.214  1.7215 -1.9350 -2.2943
  934MOL0     H23252   1.834   3.543   6.801  1.1800 -1.4576 -3.6333
  934MOL0     H23253   1.816   3.656   6.603  1.5535 -0.3450 -3.2528
  934MOL0     H23254   1.778   3.956   6.620  1.5093 -1.8495  0.8819
  934MOL0     H23255   1.764   3.938   6.449 -0.7708  1.3424  0.5597
  934MOL0     H23256   1.925   4.113   6.405  1.1054  0.9738  0.6295
  934MOL0     H23257   1.945   4.153   6.565 -0.2171  1.1870 -0.2911
  934MOL0     H23258   1.720   4.226   6.602  0.8119 -2.1291  1.0322
  934MOL0     H23259   1.659   4.152   6.457  0.0762 -0.1970  0.5328
  934MOL0     H23260   1.682   4.382   6.429  1.7564  2.9270  2.3897
  934MOL0     H23261   1.856   4.376   6.468 -0.5079  0.4203  1.4018
  934MOL0     H23262   1.892   4.264   6.252  0.0122 -2.3142  0.1390
  934MOL0     H23263   1.788   4.398   6.219 -0.0056  0.4329  1.0425
  934MOL0     H23264   1.722   4.097   6.234  1.9796  1.1251  1.2237
  934MOL0     H23265   1.733   4.200   6.085 -0.1437  0.7064 -0.2755
  934MOL0     H23266   1.515   4.252   6.294 -0.8020 -1.3801 -0.4419
  934MOL0     H23267   1.538   4.324   6.131  3.8985 -0.0732 -1.3299
  934MOL0     H23268   1.487   4.033   6.190  0.9531 -0.9802 -1.4268
  934MOL0     H23269   1.487   4.114   6.032  0.1995  0.6760  0.3137
  934MOL0     H23270   2.136   3.932   6.701  1.4770 -1.2536  2.0232
  934MOL0     H23271   2.160   3.812   6.921  2.7757  0.5396 -1.2989
  934MOL0     H23272   1.723   3.506   7.279  1.1471  1.6934 -3.0116
  934MOL0     H23273   1.762   3.377   7.468 -0.4768 -0.8337  0.7418
  934MOL0     H23274   3.413   3.350   7.661  0.0755 -0.4171 -1.5072
  934MOL0     H23275   3.580   3.506   7.587  1.5475 -0.0664 -0.2531
  934MOL0     H23276   3.999   3.535   7.349  2.4584 -0.0537 -0.6236
  934MOL0     H23277   4.168   3.667   7.282  1.7259  0.7839 -0.1680
  934MOL0     H23278   4.325   3.999   7.572 -0.5161 -2.8549  0.1073
  934MOL0     H23279   4.212   4.022   7.438 -1.1611 -2.0541  0.4734
  934MOL0     H23280   4.508   4.034   7.411  0.7636 -1.5327 -1.7142
  934MOL0     H23281   4.393   4.014   7.274 -0.6072  1.3551 -0.0354
  934MOL0     H23282   4.294   4.245   7.377  0.3258  0.6887  0.6511
  934MOL0     H23283   4.407   4.236   7.263  0.8343  1.6961  1.7051
  934MOL0     H23284   4.604   4.245   7.433 -0.3589  0.9759  0.8906
  934MOL0     H23285   4.508   4.382   7.394 -3.0309  0.5656  0.8875
  934MOL0     H23286   4.398   4.311   7.802  0.2788 -2.8236  0.0144
  934MOL0     H23287   4.193   3.869   7.670 -1.3734 -0.4931  2.4729
  934MOL0     H23288   4.040   3.711   7.758 -0.7493 -2.6885  0.7611
  935MOL0     O23289   0.483   2.896   6.403 -0.0259  0.3775  0.2867
  935MOL0     C23290   0.391   2.809   6.395 -0.7882  0.3590  0.8018
  935MOL0     O23291   0.397   2.683   6.459 -0.6023 -1.7158  1.2561
  935MOL0     C23292   0.514   2.654   6.524  0.6061 -0.4599  1.0841
  935MOL0     C23293   0.526   2.706   6.654  0.2615  0.8000  1.0001
  935MOL0     C23294   0.657   2.680   6.715  0.1977  0.6317  0.0111
  935MOL0     C23295   0.757   2.610   6.662 -0.6625 -0.6050  1.4681
  935MOL0     O23296   0.865   2.585   6.739 -0.4070  0.0023 -0.2223
  935MOL0     C23297   0.952   2.487   6.707  0.3858  0.2633 -1.4748
  935MOL0     C23298   1.044   2.497   6.820 -0.0537  0.7988 -0.5334
  935MOL0     C23299   1.165   2.391   6.822  0.4781 -0.2045 -0.0396
  935MOL0     C23300   1.268   2.414   6.931 -0.0057  0.2901  0.4247
  935MOL0     C23301   1.338   2.272   6.967  0.3537 -0.1996  0.4285
  935MOL0     C23302   1.470   2.302   7.054 -0.2632  0.0258  1.0773
  935MOL0     C23303   1.571   2.190   7.079 -0.8160  0.0163 -1.0454
  935MOL0     C23304   1.688   2.236   7.183  0.4659  0.7440  0.6173
  935MOL0     N23305   1.656   2.235   7.329  0.4175 -0.3126  0.3624
  935MOL0     C23306   1.557   2.163   7.395  0.4196 -0.6480  0.0522
  935MOL0     C23307   1.587   2.181   7.529 -0.1124 -0.0215  0.5152
  935MOL0     C23308   1.510   2.144   7.656 -0.2543 -0.5907  0.1068
  935MOL0     C23309   1.498   1.989   7.671 -1.1012 -0.0311  0.7097
  935MOL0     C23310   1.395   1.942   7.767  0.2375 -0.1172 -0.0898
  935MOL0     C23311   1.375   1.790   7.760  0.2517 -0.6576  0.2977
  935MOL0     O23312   1.243   1.752   7.737 -0.2725 -0.2007  0.4114
  935MOL0     C23313   1.158   1.728   7.837 -0.6173  0.7575  0.1357
  935MOL0     C23314   1.021   1.700   7.799  0.3077  0.6331  0.9827
  935MOL0     C23315   0.920   1.685   7.884 -1.3026  0.3369 -0.3527
  935MOL0     C23316   0.939   1.702   8.019 -0.5368 -1.2462  0.2826
  935MOL0     C23317   0.835   1.684   8.127 -0.3888 -1.0146  0.6954
  935MOL0     O23318   0.702   1.688   8.087 -0.5657 -0.3274  0.6201
  935MOL0     C23319   0.607   1.663   8.179 -0.5874 -0.9489  0.1170
  935MOL0     C23320   0.570   1.755   8.276 -0.3045 -0.2421  0.2785
  935MOL0     C23321   0.471   1.716   8.368  0.0585 -0.5440 -0.7391
  935MOL0     C23322   0.389   1.614   8.348  0.1952  0.5814  0.3353
  935MOL0     O23323   0.278   1.604   8.427 -0.2527  0.5554 -0.1340
  935MOL0     C23324   0.300   1.539   8.553 -0.0452  0.5656  0.6865
  935MOL0     C23325   0.195   1.544   8.657  0.2816 -0.9671  0.2632
  935MOL0     C23326   0.202   1.440   8.769  0.6090 -0.7518  0.1576
  935MOL0     C23327   0.135   1.466   8.898  0.1934  0.0144 -0.0667
  935MOL0     C23328  -0.019   1.451   8.889 -1.0857 -0.4967  0.5515
  935MOL0     C23329  -0.084   1.452   9.028 -0.4093 -0.1452 -1.2249
  935MOL0     C23330  -0.233   1.486   9.031  0.4681  1.0571  0.3152
  935MOL0     C23331  -0.269   1.632   9.010 -0.0722  0.0475 -0.9205
  935MOL0    Cl23332  -0.456   1.633   8.975  0.2803  0.3049  0.1753
  935MOL0     C23333   0.426   1.524   8.243  0.2455  0.8324  0.3802
  935MOL0     C23334   0.538   1.548   8.168 -0.3240  1.2072  0.2991
  935MOL0     O23335   0.874   1.662   8.241  0.1449  0.3212  0.1801
  935MOL0     C23336   1.073   1.724   8.062 -1.2303  0.3555 -0.6155
  935MOL0     C23337   1.178   1.742   7.971 -0.1222 -0.1852 -0.5389
  935MOL0     N23338   1.718   2.226   7.539  0.9102 -0.3250  0.6151
  935MOL0     N23339   1.753   2.264   7.422  0.1666  0.4017 -0.0640
  935MOL0     C23340   0.740   2.570   6.533 -1.1992 -0.0743 -0.1205
  935MOL0     C23341   0.623   2.590   6.459  0.6080  0.4047  0.8126
  935MOL0     C23342   0.286   2.830   6.309  0.2764 -0.5953  0.9539
  935MOL0     C23343   0.242   2.726   6.222 -0.3478 -0.2908  1.4380
  935MOL0     C23344   0.143   2.750   6.123  0.8323 -1.1287 -0.1490
  935MOL0     C23345   0.098   2.888   6.100 -0.1681  0.0951 -0.0432
  935MOL0     O23346   0.010   2.895   5.994 -0.6946 -0.5343 -0.2722
  935MOL0     C23347  -0.049   3.017   5.964  0.1361  0.7791  0.7002
  935MOL0     C23348  -0.181   3.044   6.041  0.8381 -0.1666  1.0369
  935MOL0     C23349  -0.293   2.942   6.017 -0.7708  0.9862  0.7680
  935MOL0     C23350  -0.427   3.007   6.033  0.2437  0.0018  0.6506
  935MOL0     C23351  -0.535   2.915   6.074 -0.0177 -0.0740 -0.6297
  935MOL0     C23352  -0.646   2.860   6.111 -1.2416  0.5403 -0.1968
  935MOL0     C23353   0.141   2.991   6.189 -0.3571  0.4709  0.1981
  935MOL0     C23354   0.233   2.953   6.291 -0.0161  0.1961 -0.2036
  935MOL0     H23355   0.440   2.742   6.710 -1.8154 -0.0157 -1.4873
  935MOL0     H23356   0.669   2.711   6.818 -2.1742 -3.1189  1.6207
  935MOL0     H23357   0.999   2.509   6.611  1.1044 -1.0546 -1.4566
  935MOL0     H23358   0.902   2.389   6.702 -0.2677  0.6457 -3.4118
  935MOL0     H23359   0.994   2.499   6.917 -0.5295  1.4570 -0.7883
  935MOL0     H23360   1.092   2.595   6.812  2.7415 -0.5402 -1.8548
  935MOL0     H23361   1.199   2.389   6.719  0.1268  0.3358 -0.1740
  935MOL0     H23362   1.123   2.292   6.842  2.2050 -1.3350 -1.7230
  935MOL0     H23363   1.343   2.488   6.904 -0.3445  0.8482  0.9823
  935MOL0     H23364   1.230   2.457   7.024 -2.4080  0.7938 -0.6969
  935MOL0     H23365   1.363   2.218   6.875 -0.3321 -2.1574  1.3164
  935MOL0     H23366   1.268   2.214   7.028 -0.0019  0.5874  0.7727
  935MOL0     H23367   1.447   2.337   7.155 -0.0817  1.9959  0.4812
  935MOL0     H23368   1.516   2.384   6.998 -2.3549 -0.5902 -1.7565
  935MOL0     H23369   1.517   2.111   7.133  2.5016 -2.9505 -1.7092
  935MOL0     H23370   1.614   2.163   6.983 -0.6418  0.5537 -1.1214
  935MOL0     H23371   1.737   2.326   7.146 -0.1966  0.5630 -0.7423
  935MOL0     H23372   1.767   2.161   7.176 -2.0621 -2.0672 -0.3680
  935MOL0     H23373   1.468   2.115   7.355 -0.4946  1.7391 -0.9831
  935MOL0     H23374   1.412   2.193   7.653 -0.4965 -0.9937  1.0411
  935MOL0     H23375   1.552   2.191   7.745 -1.1064  0.8893 -0.2396
  935MOL0     H23376   1.590   1.945   7.709  0.5751  0.4715 -2.4318
  935MOL0     H23377   1.486   1.942   7.573  0.9497 -0.8412  0.8046
  935MOL0     H23378   1.425   1.961   7.871 -2.8501 -2.7437  1.4944
  935MOL0     H23379   1.299   1.992   7.752  1.2116  0.8703 -4.2035
  935MOL0     H23380   1.428   1.741   7.842 -0.9012  2.2619  3.0129
  935MOL0     H23381   1.426   1.760   7.668 -1.6096 -0.0236 -0.9993
  935MOL0     H23382   0.996   1.668   7.698 -2.8113 -0.7908  2.0783
  935MOL0     H23383   0.818   1.664   7.853 -1.8574  1.2241  0.7908
  935MOL0     H23384   0.617   1.853   8.272  1.9006 -1.2674 -0.6674
  935MOL0     H23385   0.446   1.789   8.444 -0.9327 -0.0587 -1.5101
  935MOL0     H23386   0.390   1.580   8.600 -0.5875  2.5277  0.1194
  935MOL0     H23387   0.336   1.442   8.517  1.5956  1.1204  0.7205
  935MOL0     H23388   0.104   1.519   8.601 -0.1069 -0.6434  0.7385
  935MOL0     H23389   0.189   1.642   8.707  3.4714 -1.6787  2.3397
  935MOL0     H23390   0.307   1.433   8.799  0.4018  0.5861  1.3738
  935MOL0     H23391   0.164   1.340   8.748  1.1563 -1.3350  1.7555
  935MOL0     H23392   0.178   1.399   8.973  0.1403  1.0838  0.9501
  935MOL0     H23393   0.168   1.565   8.929 -1.2471  1.3899 -2.6239
  935MOL0     H23394  -0.053   1.375   8.818 -0.7728 -1.7167  1.6656
  935MOL0     H23395  -0.040   1.547   8.841  2.1977  0.7883  1.3758
  935MOL0     H23396  -0.036   1.534   9.082 -1.2097 -1.7459  2.1997
  935MOL0     H23397  -0.069   1.355   9.077 -0.3188 -0.2542 -1.4627
  935MOL0     H23398  -0.272   1.426   8.949  1.6611  0.2679  0.3056
  935MOL0     H23399  -0.263   1.441   9.126 -0.1896 -5.6207 -2.5594
  935MOL0     H23400  -0.214   1.685   8.931 -1.8124  1.3011 -1.3587
  935MOL0     H23401  -0.238   1.683   9.102 -0.4357 -0.1213 -0.7026
  935MOL0     H23402   0.370   1.435   8.213  2.0791 -0.0076 -0.7364
  935MOL0     H23403   0.567   1.471   8.097 -0.8339  0.3247  1.0143
  935MOL0     H23404   1.087   1.735   8.169  1.0480  2.7480 -1.0647
  935MOL0     H23405   1.276   1.755   8.016 -1.8931  2.5123  3.0554
  935MOL0     H23406   0.823   2.532   6.476  0.0121 -1.0109  2.1456
  935MOL0     H23407   0.606   2.555   6.358 -1.2693  0.5407  1.0450
  935MOL0     H23408   0.280   2.626   6.240 -0.2157 -0.8663 -1.6314
  935MOL0     H23409   0.117   2.664   6.061  0.3107 -1.8732  1.0658
  935MOL0     H23410  -0.067   3.019   5.856  1.8793 -0.2989  0.3475
  935MOL0     H23411   0.020   3.101   5.976  2.3249 -0.4767 -1.8496
  935MOL0     H23412  -0.151   3.068   6.143  2.3084 -1.9526  1.0655
  935MOL0     H23413  -0.216   3.140   5.999 -0.1674 -1.4457 -1.2718
  935MOL0     H23414  -0.278   2.860   6.088  3.3809 -0.1381 -1.1012
  935MOL0     H23415  -0.296   2.904   5.915  0.0805 -0.4636  1.2475
  935MOL0     H23416  -0.417   3.084   6.110  2.6372 -0.3602  0.7943
  935MOL0     H23417  -0.465   3.053   5.941  1.9825  0.7929  0.2879
  935MOL0     H23418  -0.738   2.823   6.151  0.2726 -1.9285  1.2697
  935MOL0     H23419   0.099   3.091   6.191  1.6031  1.3434  0.7012
  935MOL0     H23420   0.278   3.032   6.350 -0.1453  0.0857  0.0451
  936MOL0     O23421  10.200   5.118   1.227  0.6675 -0.5567 -0.0712
  936MOL0     C23422  10.313   5.081   1.265  0.4387  0.9279  1.0962
  936MOL0     O23423  10.338   4.966   1.338  0.2863  0.1888 -0.1462
  936MOL0     C23424  10.232   4.879   1.364  0.2055  0.5145 -0.4055
  936MOL0     C23425  10.210   4.754   1.292  0.1060 -0.2605  0.1919
  936MOL0     C23426  10.107   4.666   1.322 -0.7027  0.3427  0.8811
  936MOL0     C23427  10.019   4.700   1.427  0.1964  0.5131 -0.5794
  936MOL0     O23428   9.917   4.606   1.451 -0.2318  0.5161 -0.4201
  936MOL0     C23429   9.831   4.655   1.541  0.8834  0.4386 -0.9322
  936MOL0     C23430   9.717   4.566   1.575 -0.4289 -0.2858 -0.6681
  936MOL0     C23431   9.739   4.461   1.686 -0.0802  0.2076 -0.0491
  936MOL0     C23432   9.868   4.376   1.664 -0.2998  0.0568 -0.6147
  936MOL0     C23433   9.869   4.248   1.574 -0.3569  1.0475 -0.0902
  936MOL0     C23434  10.009   4.174   1.554  0.3958  0.8282  0.3079
  936MOL0     C23435  10.105   4.251   1.490  0.3882  0.3822  0.0263
  936MOL0     C23436  10.240   4.174   1.494  0.7806  0.3618  0.7801
  936MOL0     N23437  10.339   4.275   1.475  0.1363  0.3535 -0.4030
  936MOL0     C23438  10.384   4.375   1.562  0.4450  0.1343  0.2270
  936MOL0     C23439  10.502   4.415   1.505  0.5019 -0.1641 -0.2113
  936MOL0     C23440  10.599   4.508   1.569 -0.3290 -0.6899 -0.3706
  936MOL0     C23441  10.580   4.657   1.518  0.5692  0.4885  0.2814
  936MOL0     C23442  10.471   4.742   1.597  0.3625 -0.3731 -0.0024
  936MOL0     C23443  10.519   4.769   1.743 -0.0908  0.3964  0.0091
  936MOL0     O23444  10.413   4.843   1.807  0.0234 -0.1644  0.1080
  936MOL0     C23445  10.409   4.972   1.830 -0.9803  0.0496 -1.1204
  936MOL0     C23446  10.365   5.023   1.949  0.3495 -0.2628  1.0693
  936MOL0     C23447  10.391   5.155   1.989 -0.1292 -0.4640 -0.6812
  936MOL0     C23448  10.468   5.244   1.903  0.2278  0.7158  0.7775
  936MOL0     C23449  10.506   5.379   1.947  0.1862  0.7056 -0.4202
  936MOL0     O23450  10.504   5.392   2.084  0.4466  0.2404  0.5605
  936MOL0     C23451  10.551   5.502   2.151  0.8900 -0.4888 -0.0503
  936MOL0     C23452  10.477   5.551   2.253  0.3021 -0.1671 -1.1810
  936MOL0     C23453  10.522   5.671   2.325  0.5127  1.2180 -0.0857
  936MOL0     C23454  10.640   5.741   2.282  0.9661  0.0875  0.3662
  936MOL0     O23455  10.677   5.859   2.342  0.1657 -0.4029 -0.3776
  936MOL0     C23456  10.574   5.951   2.381 -0.6408  0.8326 -0.2437
  936MOL0     C23457  10.597   6.096   2.366 -0.5054  0.1799  0.3100
  936MOL0     C23458  10.493   6.187   2.429  0.0259  0.3957  0.8243
  936MOL0     C23459  10.531   6.337   2.411  0.0629  0.1353 -0.6089
  936MOL0     C23460  10.514   6.384   2.265 -0.1625 -0.3363  0.6559
  936MOL0     C23461  10.571   6.531   2.231  0.7964  0.1260 -0.2353
  936MOL0     C23462  10.521   6.643   2.326 -0.0545  0.8331  0.0368
  936MOL0     C23463  10.372   6.672   2.313 -1.4268  0.5871  0.1530
  936MOL0    Cl23464  10.291   6.709   2.453 -0.7087 -0.0709 -0.5095
  936MOL0     C23465  10.708   5.686   2.177 -0.3057  0.0096 -0.1503
  936MOL0     C23466  10.665   5.565   2.111  0.0610  0.6589  1.1362
  936MOL0     O23467  10.539   5.465   1.867  0.1884 -0.3854  0.0994
  936MOL0     C23468  10.509   5.189   1.785 -0.3861 -0.0607 -0.0864
  936MOL0     C23469  10.483   5.056   1.747 -0.3162  0.2708  0.2463
  936MOL0     N23470  10.503   4.354   1.378  0.5012  0.0222  0.1216
  936MOL0     N23471  10.400   4.281   1.361 -0.1709  1.0287 -0.4811
  936MOL0     C23472  10.040   4.820   1.500  0.1611 -0.7712  0.0169
  936MOL0     C23473  10.145   4.907   1.465 -0.1767  0.3408  0.2045
  936MOL0     C23474  10.426   5.158   1.223 -0.1622 -0.8849 -0.6533
  936MOL0     C23475  10.410   5.238   1.110 -0.0205  0.5890  0.3993
  936MOL0     C23476  10.521   5.318   1.064  0.0988 -0.3783  0.5252
  936MOL0     C23477  10.636   5.338   1.152 -0.2195  1.0687  0.3678
  936MOL0     O23478  10.735   5.418   1.104  1.0675  0.2063 -0.4738
  936MOL0     C23479  10.867   5.410   1.150  0.5438 -0.4947 -0.1336
  936MOL0     C23480  10.947   5.522   1.078  0.8684  0.3497  0.2221
  936MOL0     C23481  10.910   5.662   1.102 -0.8468  0.5529  0.0512
  936MOL0     C23482  10.947   5.716   1.243 -0.8673  1.3573  0.6912
  936MOL0     C23483  11.088   5.695   1.289 -0.0225 -0.2079  0.5535
  936MOL0     C23484  11.203   5.685   1.326  0.5371  1.0037  0.1941
  936MOL0     C23485  10.635   5.277   1.271 -1.0703  1.4947 -0.1985
  936MOL0     C23486  10.535   5.178   1.308  0.7759  0.6696 -0.2748
  936MOL0     H23487  10.272   4.725   1.207  0.5158 -1.4680  0.8688
  936MOL0     H23488  10.096   4.573   1.266  1.3607 -1.5947  3.4600
  936MOL0     H23489   9.786   4.745   1.498  1.6160  1.1671 -0.1828
  936MOL0     H23490   9.888   4.671   1.633  1.2763 -0.1047 -1.0727
  936MOL0     H23491   9.691   4.512   1.484  0.3230 -1.7984 -0.0109
  936MOL0     H23492   9.635   4.625   1.617 -1.0671  0.0458 -2.2768
  936MOL0     H23493   9.652   4.395   1.692 -1.7800  2.1111 -2.1348
  936MOL0     H23494   9.749   4.511   1.783  0.4824 -0.6505  0.3423
  936MOL0     H23495   9.956   4.434   1.632  2.3142 -3.4763 -0.4629
  936MOL0     H23496   9.897   4.319   1.753  3.1442 -0.7778 -2.0898
  936MOL0     H23497   9.838   4.279   1.474  1.6902 -1.5494 -1.6730
  936MOL0     H23498   9.790   4.176   1.600 -0.9191  0.6824 -2.5897
  936MOL0     H23499   9.988   4.078   1.507 -0.1801  1.4173 -0.6916
  936MOL0     H23500  10.046   4.136   1.649 -1.5205 -1.2336  0.2931
  936MOL0     H23501  10.077   4.261   1.385  3.1569  0.7770 -0.7690
  936MOL0     H23502  10.112   4.346   1.544 -1.2475 -0.5602  2.0673
  936MOL0     H23503  10.249   4.106   1.409  0.2152 -0.3038  1.2339
  936MOL0     H23504  10.248   4.114   1.585 -3.3056 -0.2774  0.9168
  936MOL0     H23505  10.333   4.400   1.655 -5.1031  0.1647 -2.4110
  936MOL0     H23506  10.699   4.475   1.542  0.3035  0.5553  0.3799
  936MOL0     H23507  10.601   4.503   1.678  1.4195 -2.4013 -0.4376
  936MOL0     H23508  10.558   4.661   1.411  0.0386 -1.4723  0.2734
  936MOL0     H23509  10.674   4.710   1.536  0.6707 -0.1840  1.9267
  936MOL0     H23510  10.456   4.841   1.554  1.5233 -0.2596 -0.1654
  936MOL0     H23511  10.377   4.686   1.604  1.0260 -1.6286 -0.8013
  936MOL0     H23512  10.616   4.819   1.741  1.2799 -2.0190 -3.6926
  936MOL0     H23513  10.536   4.681   1.806  1.7120 -0.6813 -1.8549
  936MOL0     H23514  10.311   4.954   2.013  0.1379 -1.1117  0.0187
  936MOL0     H23515  10.347   5.193   2.080 -0.9968 -0.1670 -1.2133
  936MOL0     H23516  10.388   5.492   2.271  0.8845 -0.8150 -0.3607
  936MOL0     H23517  10.472   5.705   2.414  0.2353  1.0992 -0.1925
  936MOL0     H23518  10.581   5.930   2.488  0.4758 -1.4738 -0.7213
  936MOL0     H23519  10.476   5.920   2.344 -2.5191  2.3868  2.9235
  936MOL0     H23520  10.612   6.129   2.263 -1.0278 -1.4292 -0.3175
  936MOL0     H23521  10.691   6.096   2.423 -1.7322 -1.2089  2.5039
  936MOL0     H23522  10.471   6.169   2.535 -0.0392  7.8989  2.6069
  936MOL0     H23523  10.407   6.176   2.362  0.0001  1.8646  0.5827
  936MOL0     H23524  10.468   6.402   2.473 -1.4921 -1.7314 -0.1468
  936MOL0     H23525  10.635   6.358   2.440 -0.0762  1.9639 -1.2482
  936MOL0     H23526  10.407   6.388   2.240 -0.2949 -1.1805  1.0465
  936MOL0     H23527  10.563   6.310   2.203 -4.2255 -3.4926  0.7699
  936MOL0     H23528  10.541   6.560   2.130  2.1225  0.2362 -0.6261
  936MOL0     H23529  10.681   6.532   2.236  0.7363 -0.4389  3.0151
  936MOL0     H23530  10.537   6.615   2.431 -1.2987 -1.4667 -0.3303
  936MOL0     H23531  10.568   6.735   2.289 -1.9388  1.3128 -1.3144
  936MOL0     H23532  10.330   6.578   2.277 -0.6491 -0.5115  1.9720
  936MOL0     H23533  10.352   6.735   2.226  1.9448 -0.2217 -1.3648
  936MOL0     H23534  10.802   5.729   2.144 -0.3144 -0.3545 -0.6639
  936MOL0     H23535  10.734   5.525   2.037  0.3315  4.3192 -0.8368
  936MOL0     H23536  10.565   5.248   1.713 -1.1517  0.0376 -0.6187
  936MOL0     H23537  10.523   5.012   1.657 -0.0459 -1.5335  1.2129
  936MOL0     H23538   9.960   4.854   1.564 -2.4236 -2.5349 -2.0549
  936MOL0     H23539  10.151   5.000   1.521  3.0374  1.2354 -1.4272
  936MOL0     H23540  10.321   5.245   1.048  1.7463  1.9208 -2.1550
  936MOL0     H23541  10.511   5.378   0.974  1.9117 -0.4932  0.2191
  936MOL0     H23542  10.919   5.316   1.126  2.1306  0.4431 -0.5023
  936MOL0     H23543  10.882   5.424   1.258 -0.5566 -1.1089  0.1163
  936MOL0     H23544  11.047   5.505   1.119  1.4184  0.4566 -1.0168
  936MOL0     H23545  10.955   5.498   0.972  5.1341  1.0804  0.2323
  936MOL0     H23546  10.804   5.678   1.080 -0.5963  1.1948 -0.7588
  936MOL0     H23547  10.959   5.735   1.037 -1.8458  0.2955 -1.0358
  936MOL0     H23548  10.929   5.824   1.236  3.5251  2.1436 -3.7396
  936MOL0     H23549  10.882   5.680   1.324 -2.0365 -1.0358 -1.1909
  936MOL0     H23550  11.302   5.675   1.366 -0.1332 -2.7889  1.3316
  936MOL0     H23551  10.711   5.289   1.348 -1.5543 -0.7935  0.7238
  936MOL0     H23552  10.537   5.116   1.397 -1.0715 -3.3134 -2.7224
  937MOL0     O23553   7.757   2.184   1.351 -1.0510 -0.3725 -0.1102
  937MOL0     C23554   7.652   2.201   1.288  0.3839 -0.4861  0.7699
  937MOL0     O23555   7.625   2.174   1.158 -0.1114 -0.1071 -0.4514
  937MOL0     C23556   7.735   2.128   1.090  0.7396 -0.7423  0.1234
  937MOL0     C23557   7.844   2.217   1.070 -0.9229 -0.0204  0.6425
  937MOL0     C23558   7.955   2.177   0.998 -0.4680  0.1066  0.3384
  937MOL0     C23559   7.953   2.045   0.946 -0.6410  0.2087 -0.1165
  937MOL0     O23560   8.074   1.993   0.894 -0.1828 -0.4586  0.1244
  937MOL0     C23561   8.088   1.909   0.786 -0.2648 -0.1400 -0.0714
  937MOL0     C23562   8.231   1.904   0.735 -0.1863  0.2781 -0.1199
  937MOL0     C23563   8.226   1.849   0.586  0.5012 -0.6582 -0.7144
  937MOL0     C23564   8.228   1.975   0.489 -0.4548  0.8710  0.3412
  937MOL0     C23565   8.259   1.939   0.347  1.2416  0.0944  0.1252
  937MOL0     C23566   8.403   1.901   0.307 -0.3792  0.0755 -0.4891
  937MOL0     C23567   8.516   1.977   0.391  0.7076 -0.3908 -0.8995
  937MOL0     C23568   8.512   2.136   0.361 -0.3282 -0.2634  0.0843
  937MOL0     N23569   8.580   2.230   0.447  0.5722 -0.1056  0.2569
  937MOL0     C23570   8.722   2.249   0.465  0.3855 -0.8824  0.3459
  937MOL0     C23571   8.737   2.352   0.551 -0.5470  0.6940 -0.0213
  937MOL0     C23572   8.873   2.399   0.593  0.4434 -0.4927  0.5175
  937MOL0     C23573   8.873   2.543   0.656 -0.4421  0.2551  0.1217
  937MOL0     C23574   9.013   2.574   0.700 -0.4531  0.1474 -0.3379
  937MOL0     C23575   9.102   2.616   0.582 -0.2837 -0.4335 -0.8371
  937MOL0     O23576   9.231   2.643   0.640  0.3193 -0.4767  0.1360
  937MOL0     C23577   9.331   2.697   0.569 -0.4144 -0.1007  0.6744
  937MOL0     C23578   9.326   2.720   0.431  0.7876  0.0705 -0.8373
  937MOL0     C23579   9.430   2.782   0.367 -0.6161 -0.6618 -0.9081
  937MOL0     C23580   9.549   2.830   0.430  0.7975 -0.2958 -0.7221
  937MOL0     C23581   9.651   2.898   0.348  0.5811 -1.1047 -0.7512
  937MOL0     O23582   9.747   2.950   0.421  0.1158  0.2250 -0.7722
  937MOL0     C23583   9.868   3.012   0.385  0.2467 -0.5889  0.5164
  937MOL0     C23584   9.980   3.013   0.463 -1.0283  0.2099 -0.1291
  937MOL0     C23585  10.105   3.065   0.441 -0.1040  0.1812  0.2750
  937MOL0     C23586  10.113   3.125   0.316 -0.6795 -0.1585  0.3159
  937MOL0     O23587  10.239   3.172   0.270  0.0625 -1.5684 -0.2072
  937MOL0     C23588  10.294   3.101   0.151 -0.4617 -0.3184 -0.4254
  937MOL0     C23589  10.298   3.198   0.030  0.4675  0.5633 -0.3636
  937MOL0     C23590  10.435   3.254  -0.010 -0.3825 -0.8954 -1.0564
  937MOL0     C23591  10.414   3.325  -0.143  0.1884  0.0925  0.4491
  937MOL0     C23592  10.544   3.351  -0.219 -0.4455 -0.1402  0.4851
  937MOL0     C23593  10.621   3.221  -0.252  0.1787 -0.8500 -0.4667
  937MOL0     C23594  10.719   3.218  -0.377 -0.2987  0.5852  0.0327
  937MOL0     C23595  10.630   3.199  -0.496 -0.4467 -0.6842  0.1833
  937MOL0    Cl23596  10.531   3.063  -0.496  0.3874  0.0328  0.0954
  937MOL0     C23597  10.005   3.146   0.237 -0.1426  1.2350  0.4491
  937MOL0     C23598   9.884   3.085   0.274  0.6386 -0.4709  0.3609
  937MOL0     O23599   9.631   2.922   0.230  0.1057  0.5102  0.2136
  937MOL0     C23600   9.557   2.797   0.564  0.0511 -0.7229 -0.7103
  937MOL0     C23601   9.461   2.724   0.634  0.5320  0.5769 -0.6341
  937MOL0     N23602   8.613   2.391   0.599  0.1848  1.2068  0.1893
  937MOL0     N23603   8.521   2.317   0.538 -0.2384 -0.2621  0.0986
  937MOL0     C23604   7.840   1.960   0.967  0.4323 -0.1898  0.1097
  937MOL0     C23605   7.725   2.004   1.035  0.5984  0.2321  0.2003
  937MOL0     C23606   7.531   2.238   1.370 -0.0796 -0.0819  0.2989
  937MOL0     C23607   7.424   2.319   1.308 -0.6082 -0.4112 -0.2065
  937MOL0     C23608   7.313   2.344   1.391  0.6330 -0.0621  0.7082
  937MOL0     C23609   7.301   2.297   1.521  0.4878  0.5649  0.3496
  937MOL0     O23610   7.206   2.333   1.603 -0.4977 -0.5105 -0.5911
  937MOL0     C23611   7.086   2.265   1.611  1.6327  0.0790  0.6840
  937MOL0     C23612   6.976   2.380   1.616 -1.1944  0.8651  0.7709
  937MOL0     C23613   6.836   2.329   1.573 -0.7161 -0.9229 -1.3081
  937MOL0     C23614   6.822   2.317   1.420 -0.1269  0.6693  0.8639
  937MOL0     C23615   6.702   2.255   1.379  0.0746  0.5346  0.6997
  937MOL0     C23616   6.605   2.196   1.331  0.0138 -0.5248 -0.9510
  937MOL0     C23617   7.407   2.217   1.570  1.1960  1.0304  0.8757
  937MOL0     C23618   7.522   2.201   1.506  0.0317 -1.0092  0.5275
  937MOL0     H23619   7.846   2.320   1.103 -0.4037 -0.6487  2.7174
  937MOL0     H23620   8.023   2.258   0.974 -0.8227  0.4939  0.6264
  937MOL0     H23621   8.026   1.951   0.706 -1.2602  2.1045  1.7637
  937MOL0     H23622   8.074   1.803   0.810 -0.0765 -0.5875 -1.8355
  937MOL0     H23623   8.284   1.832   0.799 -3.1185  0.1133  2.3511
  937MOL0     H23624   8.283   2.000   0.737 -1.4143  0.9704  1.3238
  937MOL0     H23625   8.140   1.788   0.557  1.4294 -2.0020 -0.7190
  937MOL0     H23626   8.324   1.802   0.576  2.0726  2.6024 -2.4968
  937MOL0     H23627   8.128   2.018   0.481  0.0118  2.1611  1.1525
  937MOL0     H23628   8.288   2.062   0.518 -1.2087  1.5995 -0.2222
  937MOL0     H23629   8.231   2.017   0.275 -0.6560 -0.6788 -0.0211
  937MOL0     H23630   8.195   1.855   0.321  1.8558 -0.2589 -0.2589
  937MOL0     H23631   8.421   1.921   0.201  0.0166 -0.1250 -0.4640
  937MOL0     H23632   8.414   1.794   0.328 -2.1343 -0.0940 -0.2794
  937MOL0     H23633   8.504   1.968   0.499 -1.4340 -1.0547 -1.1413
  937MOL0     H23634   8.621   1.952   0.371  1.4983 -0.1145  2.3704
  937MOL0     H23635   8.406   2.158   0.377 -0.1307 -1.0136  3.1203
  937MOL0     H23636   8.553   2.148   0.261 -0.8626 -0.9346 -0.2299
  937MOL0     H23637   8.800   2.185   0.425 -0.0919 -0.4326 -1.4001
  937MOL0     H23638   8.944   2.392   0.510 -1.2089 -2.3199 -0.8047
  937MOL0     H23639   8.898   2.331   0.675  1.0752  0.1888  0.9070
  937MOL0     H23640   8.825   2.531   0.753 -0.2440 -0.1854  0.1679
  937MOL0     H23641   8.837   2.624   0.592  0.6500  0.7006  0.0416
  937MOL0     H23642   9.015   2.645   0.783 -2.4290 -0.4406  0.2765
  937MOL0     H23643   9.053   2.480   0.739 -2.5155 -0.8997 -0.6057
  937MOL0     H23644   9.071   2.707   0.532  2.6209  0.5407 -1.0564
  937MOL0     H23645   9.110   2.531   0.513  2.1454 -1.1195  0.1739
  937MOL0     H23646   9.247   2.677   0.370  3.0755 -1.6783 -2.7277
  937MOL0     H23647   9.432   2.794   0.260 -0.8397  2.0178 -0.6775
  937MOL0     H23648   9.954   2.966   0.557 -3.9016 -2.2705 -1.9660
  937MOL0     H23649  10.190   3.057   0.507 -1.0149  0.5446  1.5321
  937MOL0     H23650  10.247   3.006   0.126  0.2680 -1.1833  1.3067
  937MOL0     H23651  10.392   3.078   0.192 -1.0365  0.6325  1.6226
  937MOL0     H23652  10.223   3.274   0.052 -1.1586 -0.8197 -0.8561
  937MOL0     H23653  10.261   3.139  -0.055  3.3068 -0.3687 -1.0727
  937MOL0     H23654  10.507   3.172  -0.015  2.4322  1.4812 -4.2761
  937MOL0     H23655  10.467   3.321   0.070 -1.5847  0.3119 -1.5509
  937MOL0     H23656  10.344   3.263  -0.200  0.0474  0.3622  0.3288
  937MOL0     H23657  10.361   3.415  -0.110 -0.3119  0.8370 -2.1392
  937MOL0     H23658  10.603   3.433  -0.175  0.4209 -0.0747 -0.7475
  937MOL0     H23659  10.507   3.392  -0.314  3.3685  2.0986 -0.2371
  937MOL0     H23660  10.556   3.136  -0.275  2.6439 -2.9422 -0.0989
  937MOL0     H23661  10.677   3.186  -0.165  2.7776  0.2800 -1.5655
  937MOL0     H23662  10.787   3.303  -0.388  3.1441 -1.7295  1.6645
  937MOL0     H23663  10.779   3.127  -0.371 -0.3790  0.5644  0.5712
  937MOL0     H23664  10.678   3.211  -0.593 -0.2074  0.4342  0.4233
  937MOL0     H23665  10.574   3.292  -0.486  2.3698  0.9320  2.9724
  937MOL0     H23666  10.019   3.227   0.165 -0.7424  2.6887  1.8945
  937MOL0     H23667   9.801   3.091   0.205  0.9876  1.0116  0.0330
  937MOL0     H23668   9.637   2.835   0.627  0.8186 -1.9607 -0.9069
  937MOL0     H23669   9.475   2.683   0.734  3.0879  0.3527 -1.0327
  937MOL0     H23670   7.847   1.853   0.950  0.2938 -0.0411 -0.9297
  937MOL0     H23671   7.636   1.944   1.046  0.7400 -0.3996 -1.8027
  937MOL0     H23672   7.426   2.352   1.205  3.5599  2.5019  0.5354
  937MOL0     H23673   7.240   2.408   1.343  2.0761  0.1909 -1.3158
  937MOL0     H23674   7.072   2.205   1.701  0.4780 -2.6890 -1.1797
  937MOL0     H23675   7.074   2.192   1.530 -3.9660 -0.1074  1.3022
  937MOL0     H23676   6.971   2.418   1.718  0.7715  0.3983  1.0895
  937MOL0     H23677   6.991   2.453   1.535 -1.4430  0.0897  0.0099
  937MOL0     H23678   6.770   2.410   1.608  1.3514 -0.6375  2.4402
  937MOL0     H23679   6.814   2.237   1.628 -0.6899 -0.5665 -0.6872
  937MOL0     H23680   6.836   2.407   1.360 -1.3362  0.7458  0.6668
  937MOL0     H23681   6.886   2.241   1.375  0.1147  0.6677  1.2076
  937MOL0     H23682   6.514   2.160   1.285 -1.3781  2.3591 -0.6944
  937MOL0     H23683   7.414   2.187   1.674 -2.3580 -0.5367  0.7925
  937MOL0     H23684   7.605   2.151   1.555  1.2880  0.4390 -0.0354
  938MOL0     O23685   4.392   7.956   1.511 -0.9348 -0.5484  0.1901
  938MOL0     C23686   4.502   8.016   1.504  1.1446  0.1739  0.6847
  938MOL0     O23687   4.527   8.136   1.554 -1.3691  0.8332 -0.0665
  938MOL0     C23688   4.431   8.206   1.614  1.1391 -0.2425 -0.4680
  938MOL0     C23689   4.345   8.281   1.531 -0.4242  0.0625 -0.8469
  938MOL0     C23690   4.251   8.360   1.584  1.0182  0.2037 -0.0482
  938MOL0     C23691   4.232   8.374   1.725 -0.0118  0.3560  0.2780
  938MOL0     O23692   4.140   8.455   1.778  0.5069 -0.1539  0.1524
  938MOL0     C23693   4.105   8.573   1.706 -0.2177 -0.2564 -0.9289
  938MOL0     C23694   4.074   8.692   1.808  0.2645 -0.1751  0.2530
  938MOL0     C23695   4.204   8.748   1.861  0.2870 -0.3164  0.5537
  938MOL0     C23696   4.312   8.803   1.757 -0.1161  0.8172 -0.9013
  938MOL0     C23697   4.421   8.888   1.814 -0.7161  0.7194 -0.1481
  938MOL0     C23698   4.528   8.923   1.708 -0.4737 -0.4334  0.6241
  938MOL0     C23699   4.610   9.046   1.759 -0.4836  0.0938  0.3208
  938MOL0     C23700   4.593   9.180   1.686  0.5821 -0.0191  0.9985
  938MOL0     N23701   4.598   9.165   1.539  0.9357  0.1717  1.0483
  938MOL0     C23702   4.709   9.179   1.457  0.1934  0.6813  0.3033
  938MOL0     C23703   4.665   9.186   1.326 -0.8664 -0.4458 -0.0812
  938MOL0     C23704   4.749   9.200   1.210  0.9916 -0.4643 -0.5025
  938MOL0     C23705   4.750   9.077   1.119  0.3086 -0.2422  0.1801
  938MOL0     C23706   4.843   9.112   0.987  0.4847  1.1007 -0.1222
  938MOL0     C23707   4.984   9.134   1.024 -1.3449  0.0195 -0.2006
  938MOL0     O23708   4.990   9.268   1.068 -0.3052 -0.4151 -0.0082
  938MOL0     C23709   5.076   9.351   0.998  0.2887 -0.0902  0.4199
  938MOL0     C23710   5.043   9.481   0.961  0.1851  0.1639  1.1796
  938MOL0     C23711   5.133   9.551   0.876 -0.3434  0.4766 -0.3113
  938MOL0     C23712   5.259   9.503   0.848  0.1106  1.0143  0.4079
  938MOL0     C23713   5.360   9.579   0.763 -0.0910 -0.6420 -0.2809
  938MOL0     O23714   5.319   9.693   0.715 -0.4050  1.0958  0.1872
  938MOL0     C23715   5.392   9.788   0.665 -0.2160 -0.9514  0.0947
  938MOL0     C23716   5.395   9.908   0.732 -0.2144  0.1596 -0.5759
  938MOL0     C23717   5.489  10.012   0.696  0.1810  0.9226  0.4154
  938MOL0     C23718   5.577   9.994   0.592  0.2907  0.5581 -0.0367
  938MOL0     O23719   5.654  10.095   0.537 -0.6010 -0.0390 -0.0323
  938MOL0     C23720   5.732  10.166   0.633  0.8290 -0.2496 -0.7321
  938MOL0     C23721   5.837  10.260   0.575 -0.7973 -0.7715  0.0389
  938MOL0     C23722   5.762  10.360   0.490  0.7120  0.0756 -0.2928
  938MOL0     C23723   5.865  10.465   0.432  0.2706 -0.6926  0.5516
  938MOL0     C23724   5.797  10.541   0.315 -0.0991 -0.4103 -0.4810
  938MOL0     C23725   5.863  10.671   0.269 -0.7459 -0.6902 -0.0888
  938MOL0     C23726   5.910  10.765   0.382 -0.0110  0.5086  0.4962
  938MOL0     C23727   5.791  10.808   0.471  0.0952 -0.7626  0.1550
  938MOL0    Cl23728   5.676  10.924   0.382 -0.0223 -0.2848 -0.6823
  938MOL0     C23729   5.565   9.879   0.514 -0.0306  0.9144  1.2517
  938MOL0     C23730   5.475   9.774   0.552 -1.0884 -0.2137 -0.3720
  938MOL0     O23731   5.463   9.527   0.734 -0.0052 -0.8550  0.0003
  938MOL0     C23732   5.296   9.376   0.900  0.5543  0.1019 -0.0074
  938MOL0     C23733   5.199   9.300   0.972  0.0536 -0.2079 -0.1413
  938MOL0     N23734   4.525   9.188   1.337 -0.3485  1.1235  0.6159
  938MOL0     N23735   4.488   9.180   1.462 -0.7104 -0.0469  0.1317
  938MOL0     C23736   4.304   8.293   1.805 -0.5922  0.0188 -0.5000
  938MOL0     C23737   4.406   8.210   1.749  0.1405 -0.9983 -0.0928
  938MOL0     C23738   4.602   7.956   1.407  1.0682  0.2690  0.8064
  938MOL0     C23739   4.719   8.029   1.383 -0.2125  0.4586  0.1612
  938MOL0     C23740   4.807   7.980   1.283 -0.2104  0.8463 -0.4043
  938MOL0     C23741   4.777   7.868   1.209  0.5684 -0.9151  0.3629
  938MOL0     O23742   4.866   7.814   1.118  0.6043 -0.2226 -0.1329
  938MOL0     C23743   4.811   7.823   0.981 -0.7230 -0.2778 -0.4766
  938MOL0     C23744   4.930   7.858   0.890  0.2753 -0.8959 -0.2154
  938MOL0     C23745   4.917   7.979   0.796 -0.1048  0.2045 -0.6636
  938MOL0     C23746   4.857   8.099   0.877  0.0124 -0.9340  0.3825
  938MOL0     C23747   4.866   8.226   0.792  0.2913 -1.0709  0.5853
  938MOL0     C23748   4.878   8.330   0.728  0.5732  0.5732  1.2252
  938MOL0     C23749   4.655   7.807   1.229 -0.0913  0.1471  0.1312
  938MOL0     C23750   4.563   7.852   1.325  0.4277  0.0625 -0.6570
  938MOL0     H23751   4.376   8.277   1.428  0.6472  0.1532 -0.5368
  938MOL0     H23752   4.188   8.428   1.527  1.7199  0.4529 -0.5353
  938MOL0     H23753   4.012   8.561   1.648 -3.7324  1.1582  3.7550
  938MOL0     H23754   4.187   8.611   1.645  1.1283  0.3464  1.1539
  938MOL0     H23755   4.004   8.656   1.884  1.3774 -1.1923  0.8310
  938MOL0     H23756   4.022   8.776   1.761 -0.6337  0.2896  1.9881
  938MOL0     H23757   4.255   8.669   1.917  0.0502 -0.3293  0.7528
  938MOL0     H23758   4.170   8.819   1.938  2.0003 -1.8635  2.8687
  938MOL0     H23759   4.349   8.716   1.702 -2.3279 -0.0138 -1.1695
  938MOL0     H23760   4.258   8.863   1.683 -1.5228  0.7363  0.0286
  938MOL0     H23761   4.475   8.830   1.890 -2.1593  2.0277  1.9902
  938MOL0     H23762   4.387   8.979   1.864 -0.7335  0.1260  0.9585
  938MOL0     H23763   4.477   8.943   1.613 -0.7852  2.5795  1.3133
  938MOL0     H23764   4.604   8.844   1.703  0.7971  0.7711  0.0434
  938MOL0     H23765   4.613   9.054   1.868 -0.4317  0.2405  0.3094
  938MOL0     H23766   4.718   9.037   1.741  0.0267  4.4701  0.0691
  938MOL0     H23767   4.660   9.258   1.722 -1.1391 -0.0046  4.5545
  938MOL0     H23768   4.490   9.208   1.707 -0.1312 -2.6707  1.3823
  938MOL0     H23769   4.815   9.174   1.480  0.4227 -0.1884 -0.8220
  938MOL0     H23770   4.852   9.215   1.242  0.7679 -1.5080  0.7788
  938MOL0     H23771   4.722   9.291   1.157 -3.9241 -0.5119  1.4340
  938MOL0     H23772   4.648   9.057   1.085  0.5388 -1.7436  0.3015
  938MOL0     H23773   4.784   8.990   1.176 -0.0692 -0.6445 -0.1998
  938MOL0     H23774   4.830   9.027   0.919 -2.0701 -0.0072  1.5844
  938MOL0     H23775   4.801   9.203   0.944 -1.6516 -0.9170 -2.6725
  938MOL0     H23776   5.043   9.111   0.935 -3.0257 -0.7548 -1.1733
  938MOL0     H23777   5.015   9.065   1.104 -1.0677 -2.4186 -2.2823
  938MOL0     H23778   4.944   9.514   0.992  1.9069  3.3280  4.0469
  938MOL0     H23779   5.119   9.652   0.839  1.7802  0.7331 -0.5633
  938MOL0     H23780   5.325   9.915   0.815 -0.4208 -0.0301 -0.7348
  938MOL0     H23781   5.491  10.098   0.762  3.0729  0.8004  0.6187
  938MOL0     H23782   5.780  10.093   0.699  0.3586 -0.2411 -0.3775
  938MOL0     H23783   5.661  10.226   0.690  0.7349 -0.6745 -0.4024
  938MOL0     H23784   5.908  10.209   0.509  1.6026  3.4905 -0.9976
  938MOL0     H23785   5.899  10.294   0.659  1.8940 -2.2333 -1.2244
  938MOL0     H23786   5.690  10.426   0.538  1.5193  1.3019 -0.7193
  938MOL0     H23787   5.693  10.309   0.422 -1.0304  1.2601  0.5322
  938MOL0     H23788   5.879  10.539   0.511  0.3175 -0.8885  0.7239
  938MOL0     H23789   5.948  10.403   0.397  1.0489  0.0097  1.1313
  938MOL0     H23790   5.694  10.565   0.340 -0.4751 -1.6746 -0.7249
  938MOL0     H23791   5.786  10.470   0.232 -3.7558  1.1173 -1.4831
  938MOL0     H23792   5.793  10.723   0.203 -0.7666 -1.2458 -0.5128
  938MOL0     H23793   5.951  10.648   0.209  0.0027  0.7786  0.4031
  938MOL0     H23794   5.990  10.726   0.445  0.0567 -0.1713 -0.0014
  938MOL0     H23795   5.940  10.859   0.333 -0.2122 -0.9372 -2.6133
  938MOL0     H23796   5.829  10.866   0.556  0.2298  0.7630 -0.9039
  938MOL0     H23797   5.740  10.724   0.519  1.2118 -1.5252  0.0428
  938MOL0     H23798   5.637   9.869   0.434  0.5652  2.6382  1.5266
  938MOL0     H23799   5.481   9.679   0.498 -1.1832 -1.2436  1.3542
  938MOL0     H23800   5.395   9.334   0.881  1.5804  2.3034  0.1141
  938MOL0     H23801   5.234   9.204   1.009  1.0888 -1.7324 -4.4196
  938MOL0     H23802   4.301   8.300   1.914 -2.6751  0.5463 -0.5546
  938MOL0     H23803   4.464   8.153   1.821  2.0603  2.7081  1.5664
  938MOL0     H23804   4.743   8.131   1.414  0.7851  0.5660 -0.8634
  938MOL0     H23805   4.905   8.026   1.273 -0.7264  2.3142  0.7805
  938MOL0     H23806   4.729   7.895   0.978  1.1456  2.1191  1.6986
  938MOL0     H23807   4.777   7.722   0.956 -1.5675 -0.8863  2.7383
  938MOL0     H23808   5.027   7.876   0.937  0.3083  0.1800 -0.6590
  938MOL0     H23809   4.949   7.774   0.823  0.7304 -0.8145 -0.1912
  938MOL0     H23810   4.859   7.957   0.706 -1.9192  1.4356  0.1303
  938MOL0     H23811   5.020   7.992   0.762  2.1200  1.1074  5.2290
  938MOL0     H23812   4.750   8.082   0.893  0.0803 -1.1238  0.6326
  938MOL0     H23813   4.913   8.139   0.963  2.3597  0.7484 -1.7803
  938MOL0     H23814   4.902   8.428   0.691  0.7912  0.4767  1.1082
  938MOL0     H23815   4.628   7.718   1.173 -0.9653  0.7551 -0.4367
  938MOL0     H23816   4.469   7.800   1.341  1.2788 -1.2604  0.2930
  939MOL0     O23817   1.633   4.471   7.089 -0.2575  0.3234 -0.4319
  939MOL0     C23818   1.524   4.455   7.047  0.8862  0.6527 -0.0124
  939MOL0     O23819   1.420   4.413   7.115 -0.0586  0.3316 -0.5581
  939MOL0     C23820   1.424   4.368   7.247  0.5747 -1.0479  0.0056
  939MOL0     C23821   1.526   4.291   7.295  0.3413 -0.0142 -1.3913
  939MOL0     C23822   1.517   4.248   7.433 -0.7339  0.3421 -0.1189
  939MOL0     C23823   1.411   4.292   7.519 -0.9807  0.5743  0.6177
  939MOL0     O23824   1.402   4.267   7.657 -0.4075 -0.1242 -0.1994
  939MOL0     C23825   1.527   4.268   7.724  1.0003  0.1493 -0.8246
  939MOL0     C23826   1.511   4.231   7.872  0.0738 -0.0932  0.0126
  939MOL0     C23827   1.632   4.257   7.953  0.7416 -1.1464 -0.5943
  939MOL0     C23828   1.750   4.169   7.904 -0.4846 -0.2553 -0.1176
  939MOL0     C23829   1.892   4.209   7.966  0.0032  0.6184 -0.2985
  939MOL0     C23830   1.904   4.188   8.119 -0.1384 -0.4550  0.2246
  939MOL0     C23831   2.050   4.226   8.179  0.1121 -0.1462  0.4797
  939MOL0     C23832   2.056   4.152   8.306  0.9266 -0.1373  0.2074
  939MOL0     N23833   2.144   4.215   8.406  0.5832 -0.7601 -0.7998
  939MOL0     C23834   2.269   4.176   8.447 -0.3850  1.0618  0.5232
  939MOL0     C23835   2.320   4.263   8.536  0.1253  0.0294  0.4523
  939MOL0     C23836   2.460   4.255   8.596 -0.6617 -0.0858  0.4720
  939MOL0     C23837   2.435   4.219   8.743 -0.1491 -0.2074  0.4937
  939MOL0     C23838   2.383   4.335   8.831 -0.8966  0.2789  0.1627
  939MOL0     C23839   2.409   4.325   8.982 -0.3929  0.7294  0.3985
  939MOL0     O23840   2.551   4.334   9.001  0.9501 -0.4360  0.1345
  939MOL0     C23841   2.619   4.236   9.064  0.1532  0.4814 -0.0340
  939MOL0     C23842   2.627   4.220   9.203  0.2136  0.6269  0.0589
  939MOL0     C23843   2.715   4.121   9.253 -0.6314  0.1713  0.6298
  939MOL0     C23844   2.800   4.051   9.165 -1.1022 -0.1051  0.4237
  939MOL0     C23845   2.878   3.946   9.220  0.2738 -0.2078  0.6138
  939MOL0     O23846   3.012   3.957   9.188  0.4094  0.3510 -0.8018
  939MOL0     C23847   3.097   3.878   9.263  0.5768  0.1467  0.6239
  939MOL0     C23848   3.209   3.952   9.309  0.4894  0.7208 -1.3673
  939MOL0     C23849   3.316   3.892   9.370  0.5279 -0.7115  0.8994
  939MOL0     C23850   3.304   3.755   9.408  0.7017 -0.6012 -0.1494
  939MOL0     O23851   3.414   3.702   9.469  0.7920 -0.7628 -0.4579
  939MOL0     C23852   3.389   3.610   9.571 -1.1286 -0.4849 -0.3526
  939MOL0     C23853   3.519   3.585   9.640 -0.4011 -0.6455 -1.5167
  939MOL0     C23854   3.519   3.463   9.738  0.1863  0.2332 -1.1382
  939MOL0     C23855   3.529   3.326   9.664 -0.5760  0.2971 -0.9897
  939MOL0     C23856   3.663   3.309   9.590 -1.3152 -0.3952  0.7166
  939MOL0     C23857   3.673   3.180   9.496 -0.1059  0.0724 -1.0715
  939MOL0     C23858   3.716   3.053   9.567  0.4782 -0.3031 -0.0813
  939MOL0     C23859   3.674   2.924   9.476 -0.3325 -1.2374 -0.1085
  939MOL0    Cl23860   3.768   2.789   9.527  0.4998  0.0518  0.5410
  939MOL0     C23861   3.186   3.678   9.370  1.1935 -0.4066  1.4955
  939MOL0     C23862   3.079   3.744   9.309 -0.1864 -0.5338  0.0538
  939MOL0     O23863   2.831   3.878   9.311  0.6189 -0.0705  0.3413
  939MOL0     C23864   2.810   4.084   9.028  0.3682  1.2296 -0.0884
  939MOL0     C23865   2.708   4.168   8.982 -0.0467  0.3285 -0.5288
  939MOL0     N23866   2.225   4.368   8.536  0.5689 -0.5342 -1.0183
  939MOL0     N23867   2.113   4.332   8.479 -0.0709 -0.4902  0.2239
  939MOL0     C23868   1.315   4.377   7.469 -0.4625  0.0045 -1.6574
  939MOL0     C23869   1.322   4.404   7.337  0.4103  0.1636  0.2681
  939MOL0     C23870   1.499   4.485   6.901 -0.8392 -0.2868 -0.7777
  939MOL0     C23871   1.377   4.473   6.842 -0.2722  0.0516  0.4330
  939MOL0     C23872   1.363   4.502   6.703  0.5990 -0.1078  0.5965
  939MOL0     C23873   1.478   4.539   6.628  0.4304 -0.0250 -0.1051
  939MOL0     O23874   1.469   4.575   6.492  0.9873 -0.1599 -0.4668
  939MOL0     C23875   1.341   4.625   6.436 -0.4818  0.3794  0.0757
  939MOL0     C23876   1.280   4.512   6.352  0.4785  0.5975  0.2562
  939MOL0     C23877   1.174   4.566   6.255 -0.0815  0.2899 -0.0591
  939MOL0     C23878   1.058   4.633   6.314 -0.1238  0.2236 -0.5350
  939MOL0     C23879   0.940   4.620   6.235 -0.6966  0.5955  0.1266
  939MOL0     C23880   0.842   4.615   6.162  0.4490 -0.4767 -0.5609
  939MOL0     C23881   1.603   4.542   6.692 -0.3007  0.3439 -0.7156
  939MOL0     C23882   1.611   4.523   6.833 -0.4798 -1.2600 -0.7696
  939MOL0     H23883   1.590   4.252   7.216  1.8913  0.0232 -0.2089
  939MOL0     H23884   1.600   4.191   7.474 -0.0320 -0.8791 -2.9435
  939MOL0     H23885   1.567   4.368   7.703  0.8966 -0.0095 -1.8589
  939MOL0     H23886   1.584   4.187   7.677  0.8192  0.1267 -1.0116
  939MOL0     H23887   1.483   4.125   7.871  1.1636 -0.4073 -1.9946
  939MOL0     H23888   1.422   4.281   7.912  0.8912  2.7684 -1.4576
  939MOL0     H23889   1.608   4.241   8.058  2.4088 -2.3626 -0.3501
  939MOL0     H23890   1.665   4.360   7.940  0.7730 -0.5252  3.3122
  939MOL0     H23891   1.732   4.063   7.921 -0.7065 -0.5146 -1.7578
  939MOL0     H23892   1.753   4.183   7.795  0.0551  2.1598  0.1393
  939MOL0     H23893   1.917   4.306   7.923 -0.4758  0.6388 -0.5433
  939MOL0     H23894   1.956   4.136   7.917  0.3241  0.9666 -0.4011
  939MOL0     H23895   1.877   4.084   8.138  0.7980 -0.6955  0.2740
  939MOL0     H23896   1.824   4.243   8.168 -1.1137 -0.5097 -1.2378
  939MOL0     H23897   2.136   4.196   8.118  1.2378  2.0276  0.9112
  939MOL0     H23898   2.054   4.335   8.180 -1.2527  0.0451 -2.7073
  939MOL0     H23899   2.069   4.045   8.292 -2.3044 -0.8746  1.8842
  939MOL0     H23900   1.960   4.152   8.358  0.8011  0.5676 -0.0107
  939MOL0     H23901   2.330   4.090   8.422 -1.1597 -0.1387  2.5958
  939MOL0     H23902   2.518   4.347   8.587 -1.0214 -0.0121 -1.4567
  939MOL0     H23903   2.518   4.175   8.549 -1.5017  0.7735 -2.2477
  939MOL0     H23904   2.531   4.189   8.788 -0.7450 -1.0173  1.2514
  939MOL0     H23905   2.363   4.138   8.753  0.3993 -0.8086 -0.2753
  939MOL0     H23906   2.436   4.429   8.812  0.9506  0.2420  4.1049
  939MOL0     H23907   2.279   4.352   8.802 -0.1254  1.3884 -2.1862
  939MOL0     H23908   2.353   4.244   9.030 -1.2969 -0.7505 -2.8681
  939MOL0     H23909   2.374   4.418   9.028  4.8796  2.3754  1.7623
  939MOL0     H23910   2.559   4.269   9.271 -2.7632 -4.0737  0.9410
  939MOL0     H23911   2.730   4.096   9.357 -2.0153 -3.2102  0.1420
  939MOL0     H23912   3.217   4.058   9.285 -3.6006  0.8260 -3.0623
  939MOL0     H23913   3.411   3.932   9.401  0.9473 -2.5232  2.1091
  939MOL0     H23914   3.350   3.518   9.528  3.2504 -1.5641 -2.6096
  939MOL0     H23915   3.319   3.653   9.643 -1.4787  1.6661 -1.8932
  939MOL0     H23916   3.530   3.665   9.714  1.3034 -0.9037 -1.4490
  939MOL0     H23917   3.606   3.594   9.574  0.2971  0.2614 -0.5195
  939MOL0     H23918   3.427   3.473   9.796  0.8003  2.8276 -0.4855
  939MOL0     H23919   3.603   3.476   9.807 -0.4120 -0.2870 -0.2986
  939MOL0     H23920   3.522   3.238   9.729  1.4260  1.1166  0.4222
  939MOL0     H23921   3.446   3.322   9.593 -1.3384  0.0379 -0.1006
  939MOL0     H23922   3.744   3.296   9.662 -1.8388 -1.0050  1.2101
  939MOL0     H23923   3.691   3.394   9.528  0.0102 -1.2875  0.0428
  939MOL0     H23924   3.742   3.193   9.412 -0.4899  0.7582 -1.2879
  939MOL0     H23925   3.578   3.152   9.450  0.5033 -2.5555 -0.8768
  939MOL0     H23926   3.825   3.056   9.566  0.5064 -0.0378  1.3263
  939MOL0     H23927   3.688   3.043   9.672 -2.1712  0.8733 -0.5837
  939MOL0     H23928   3.702   2.946   9.373 -1.3395  1.8814  0.1699
  939MOL0     H23929   3.565   2.909   9.476 -0.4460 -0.8358 -2.4869
  939MOL0     H23930   3.170   3.577   9.406 -1.9218  1.0456  4.6772
  939MOL0     H23931   2.986   3.694   9.283  1.3858 -5.5200  2.6911
  939MOL0     H23932   2.866   4.036   8.948  0.0802 -0.0494  0.4568
  939MOL0     H23933   2.716   4.183   8.875  0.4758 -0.5642 -0.6203
  939MOL0     H23934   1.246   4.427   7.537 -0.8644 -1.1255 -1.2246
  939MOL0     H23935   1.251   4.472   7.292 -4.5025 -2.7612  2.6933
  939MOL0     H23936   1.282   4.449   6.890 -1.2660  0.1992 -1.3893
  939MOL0     H23937   1.263   4.488   6.663  0.6280 -0.8285  0.7538
  939MOL0     H23938   1.366   4.708   6.369 -1.2167  2.1153  1.8623
  939MOL0     H23939   1.277   4.671   6.511 -2.7702 -1.9215 -0.3275
  939MOL0     H23940   1.359   4.458   6.299  0.4435  0.7140  0.0818
  939MOL0     H23941   1.243   4.445   6.430  3.6063  1.4250  2.6544
  939MOL0     H23942   1.141   4.485   6.189 -1.3157 -0.8743  1.8917
  939MOL0     H23943   1.234   4.617   6.179  1.4058 -2.3157 -0.7542
  939MOL0     H23944   1.035   4.592   6.413  0.7445  0.1202 -0.3716
  939MOL0     H23945   1.085   4.738   6.311  0.5636  0.1944  2.0705
  939MOL0     H23946   0.752   4.618   6.104  1.0223 -0.6186 -1.4788
  939MOL0     H23947   1.696   4.549   6.637 -0.0733  1.0164 -0.2640
  939MOL0     H23948   1.708   4.530   6.880 -1.1963 -0.5186  0.6655
  940MOL0     O23949   3.314   4.864   7.948 -0.4908  0.0985 -0.0641
  940MOL0     C23950   3.293   4.972   7.996  0.0306 -0.2734 -0.6802
  940MOL0     O23951   3.224   5.069   7.946  1.0556 -1.0349 -1.1088
  940MOL0     C23952   3.147   5.051   7.838  0.0345 -0.3934  0.5469
  940MOL0     C23953   3.051   4.948   7.822 -0.2189 -1.4215  0.2698
  940MOL0     C23954   2.978   4.937   7.706 -0.6514  0.4955 -0.7313
  940MOL0     C23955   3.016   4.995   7.590  0.4326  0.8248 -0.0488
  940MOL0     O23956   2.947   4.979   7.480  0.5264 -0.1327 -0.2642
  940MOL0     C23957   3.020   4.905   7.376 -0.6233 -1.1579 -0.1390
  940MOL0     C23958   2.990   4.755   7.390  0.0679 -0.4318 -0.6912
  940MOL0     C23959   3.044   4.681   7.268  1.3767 -1.8134  0.1336
  940MOL0     C23960   3.014   4.530   7.275  0.5905 -0.0799 -0.0798
  940MOL0     C23961   3.145   4.446   7.276  0.7137  0.2925 -0.3148
  940MOL0     C23962   3.216   4.471   7.405  0.2099 -0.0148  0.4888
  940MOL0     C23963   3.356   4.405   7.423 -0.2190  0.9602 -0.1540
  940MOL0     C23964   3.445   4.457   7.540  0.6875  0.6501  0.9652
  940MOL0     N23965   3.376   4.411   7.664 -0.6468 -0.1887 -0.3502
  940MOL0     C23966   3.311   4.493   7.755  0.4922 -0.3172 -0.0601
  940MOL0     C23967   3.270   4.408   7.854 -0.9313 -1.8433 -1.1868
  940MOL0     C23968   3.199   4.448   7.988  0.9991 -1.0596  0.3340
  940MOL0     C23969   3.052   4.421   7.960  0.6487  1.3619  0.8832
  940MOL0     C23970   2.949   4.507   8.033  0.2002  0.4505  1.2160
  940MOL0     C23971   2.807   4.514   7.964  0.4691  0.2963 -1.5821
  940MOL0     O23972   2.830   4.594   7.850 -0.5071 -0.4782 -0.2338
  940MOL0     C23973   2.721   4.601   7.763  0.6985  0.2575  0.0362
  940MOL0     C23974   2.581   4.615   7.796  0.4133 -0.3511 -0.4579
  940MOL0     C23975   2.479   4.622   7.706  0.6118 -0.9336 -0.6488
  940MOL0     C23976   2.517   4.639   7.568 -0.5087 -0.4855  0.6956
  940MOL0     C23977   2.411   4.662   7.463  0.5210 -0.2275 -0.4666
  940MOL0     O23978   2.280   4.655   7.517  0.4555 -0.4508  0.8004
  940MOL0     C23979   2.186   4.713   7.430 -0.3614 -0.5385  0.4601
  940MOL0     C23980   2.138   4.840   7.472  0.5771  0.1339  0.6023
  940MOL0     C23981   2.023   4.900   7.411 -0.6844  0.7857  0.2606
  940MOL0     C23982   1.990   4.848   7.283  1.7736  0.5335 -0.1774
  940MOL0     O23983   1.884   4.913   7.213 -0.1781  1.0791  0.3998
  940MOL0     C23984   1.860   4.855   7.086  0.0465  0.3776  1.0153
  940MOL0     C23985   1.746   4.937   7.020  0.1894 -0.4016  0.5789
  940MOL0     C23986   1.708   4.902   6.866  0.1390  0.2600 -0.0836
  940MOL0     C23987   1.817   4.946   6.759  0.7965  0.6022 -1.0364
  940MOL0     C23988   1.784   4.867   6.633 -0.0536  0.0836  0.5464
  940MOL0     C23989   1.906   4.860   6.546 -0.3476  0.9213  0.1097
  940MOL0     C23990   1.867   4.818   6.403 -0.7027 -0.3322  0.1886
  940MOL0     C23991   1.991   4.777   6.326 -0.1876  0.7136  0.3164
  940MOL0    Cl23992   2.103   4.916   6.330  0.2814 -0.0841 -0.3275
  940MOL0     C23993   2.052   4.722   7.237  0.7599 -0.4206  0.1197
  940MOL0     C23994   2.135   4.645   7.320 -0.4640 -0.0632  0.8248
  940MOL0     O23995   2.436   4.686   7.344  0.1028 -0.4388 -0.5183
  940MOL0     C23996   2.649   4.646   7.528  0.0125  0.4950 -0.1500
  940MOL0     C23997   2.746   4.630   7.629 -1.0896  0.5759  0.3361
  940MOL0     N23998   3.317   4.283   7.831  0.6042 -0.9677  0.5227
  940MOL0     N23999   3.380   4.286   7.715 -0.8378  0.2835  0.0286
  940MOL0     C24000   3.102   5.098   7.604 -0.6067  0.4218  0.0982
  940MOL0     C24001   3.170   5.129   7.721 -0.4148  0.4781  0.5020
  940MOL0     C24002   3.344   4.987   8.142  0.0462 -0.5622 -0.0246
  940MOL0     C24003   3.441   4.891   8.191  0.2727 -1.4176  0.3446
  940MOL0     C24004   3.492   4.913   8.318  0.3994  0.8292 -0.4206
  940MOL0     C24005   3.454   5.025   8.402 -0.2332  0.9801  0.7676
  940MOL0     O24006   3.498   5.060   8.532 -0.8237 -0.0619 -0.6062
  940MOL0     C24007   3.610   4.986   8.580 -1.4379 -0.4716  0.9003
  940MOL0     C24008   3.617   4.980   8.732  0.8645 -0.3833 -0.4273
  940MOL0     C24009   3.489   4.915   8.793 -0.2062  0.0115  0.1300
  940MOL0     C24010   3.505   4.871   8.941  0.5376  0.5082  0.0714
  940MOL0     C24011   3.380   4.831   9.009  0.5445  0.4747  0.0645
  940MOL0     C24012   3.285   4.803   9.078 -0.0058  0.6460  0.3382
  940MOL0     C24013   3.358   5.111   8.342  0.2207 -0.5128 -1.0824
  940MOL0     C24014   3.311   5.100   8.209 -0.0976 -0.5036 -1.2572
  940MOL0     H24015   3.037   4.884   7.909  2.4853  0.2469  2.0713
  940MOL0     H24016   2.891   4.873   7.717 -3.5370  4.3922  1.7052
  940MOL0     H24017   3.128   4.919   7.374 -0.8790  1.5043 -2.4802
  940MOL0     H24018   2.992   4.938   7.275 -1.5540 -0.3774  0.3600
  940MOL0     H24019   2.882   4.740   7.383 -0.0899  0.4580 -0.2271
  940MOL0     H24020   3.038   4.705   7.475  0.5176 -0.9671 -1.2409
  940MOL0     H24021   3.149   4.703   7.245  0.4181  1.5595 -1.6808
  940MOL0     H24022   2.988   4.723   7.184 -0.8147  0.6634  2.6450
  940MOL0     H24023   2.948   4.505   7.359  0.0540 -1.1551 -0.8089
  940MOL0     H24024   2.962   4.517   7.180 -1.8867  1.4467  0.9919
  940MOL0     H24025   3.209   4.467   7.190 -0.5841 -2.4158 -2.0898
  940MOL0     H24026   3.122   4.342   7.253  2.9037 -0.1113 -0.8040
  940MOL0     H24027   3.145   4.433   7.479 -0.3625 -1.2395 -0.6586
  940MOL0     H24028   3.215   4.579   7.421  0.6014  0.0591  0.0385
  940MOL0     H24029   3.337   4.297   7.431 -1.5935  1.0108 -2.1134
  940MOL0     H24030   3.419   4.416   7.334  0.6832 -0.8549  0.1985
  940MOL0     H24031   3.472   4.563   7.536  1.6140  0.4017 -1.3474
  940MOL0     H24032   3.533   4.393   7.535  0.3224  0.1642  0.7023
  940MOL0     H24033   3.300   4.601   7.755 -1.5192 -0.2959  4.5573
  940MOL0     H24034   3.223   4.552   8.011  0.2219 -1.1295  1.5400
  940MOL0     H24035   3.232   4.383   8.069 -2.2121 -2.8682  0.3619
  940MOL0     H24036   3.031   4.318   7.991  2.1430  0.8572  0.3152
  940MOL0     H24037   3.029   4.431   7.854 -0.8304 -0.9727  0.9065
  940MOL0     H24038   2.928   4.479   8.136  0.6908  4.0509  2.4322
  940MOL0     H24039   2.984   4.611   8.035 -0.2827  0.6085  1.6549
  940MOL0     H24040   2.739   4.561   8.035  0.3915  3.4855 -3.5802
  940MOL0     H24041   2.779   4.410   7.941 -1.8988  0.5590 -0.2338
  940MOL0     H24042   2.545   4.614   7.898  2.5366  0.0856  0.3595
  940MOL0     H24043   2.375   4.597   7.724  0.8749 -4.2266 -2.9907
  940MOL0     H24044   2.177   4.876   7.566  1.9507 -0.1543  0.1618
  940MOL0     H24045   1.957   4.979   7.445  0.9644  2.9074 -1.1674
  940MOL0     H24046   1.826   4.752   7.098  2.2023 -0.3279  1.5299
  940MOL0     H24047   1.953   4.851   7.029  1.5154  0.4099  3.2738
  940MOL0     H24048   1.765   5.045   7.025  1.2286 -0.5804  0.7775
  940MOL0     H24049   1.657   4.921   7.081 -0.7332  0.6596 -0.4464
  940MOL0     H24050   1.613   4.946   6.834 -0.0399 -1.2832 -1.8114
  940MOL0     H24051   1.679   4.797   6.864 -2.1479  0.7734  1.5924
  940MOL0     H24052   1.807   5.055   6.749 -3.5542  0.3761 -1.2202
  940MOL0     H24053   1.912   4.918   6.804 -0.5587 -2.0605  0.3571
  940MOL0     H24054   1.694   4.909   6.588 -0.5761 -2.2791 -0.8166
  940MOL0     H24055   1.766   4.761   6.654  1.3562 -0.4186 -0.6318
  940MOL0     H24056   1.977   4.795   6.597 -0.5432  0.5018 -0.1442
  940MOL0     H24057   1.947   4.961   6.540 -0.6317  1.0502  0.3411
  940MOL0     H24058   1.789   4.741   6.394 -1.2296  0.0435  1.3662
  940MOL0     H24059   1.819   4.911   6.370 -2.6624 -1.6746 -1.0184
  940MOL0     H24060   1.962   4.755   6.223 -1.0411 -0.9726  0.8800
  940MOL0     H24061   2.041   4.687   6.365  1.8486  1.4730 -0.3826
  940MOL0     H24062   2.021   4.659   7.155  0.0656 -3.2983  2.4460
  940MOL0     H24063   2.156   4.541   7.295  0.1989  0.9320 -3.6703
  940MOL0     H24064   2.659   4.665   7.422 -1.4341 -2.7269 -0.9626
  940MOL0     H24065   2.851   4.624   7.601 -1.7465 -1.8184 -2.0659
  940MOL0     H24066   3.111   5.154   7.511 -0.8660  2.9578  1.5181
  940MOL0     H24067   3.242   5.209   7.723  0.0386  0.0544  1.4810
  940MOL0     H24068   3.485   4.818   8.125 -0.4342 -1.6878  0.1603
  940MOL0     H24069   3.561   4.837   8.354  1.0291  0.0821 -2.9976
  940MOL0     H24070   3.699   5.046   8.556 -2.4044  1.1686  1.2621
  940MOL0     H24071   3.635   4.892   8.529  1.1064  0.9016 -0.6173
  940MOL0     H24072   3.707   4.924   8.761 -0.4014 -0.4687  4.0438
  940MOL0     H24073   3.639   5.078   8.774  3.2650  0.4906 -3.3815
  940MOL0     H24074   3.465   4.825   8.734 -5.4244  0.9327  0.3870
  940MOL0     H24075   3.403   4.981   8.784  1.2233  1.7981 -1.6327
  940MOL0     H24076   3.570   4.783   8.946 -1.5745 -1.0869  2.6480
  940MOL0     H24077   3.545   4.955   8.998 -1.0927  1.1359  0.3510
  940MOL0     H24078   3.203   4.788   9.145  0.7718 -2.1333  0.7715
  940MOL0     H24079   3.319   5.192   8.403 -1.5701 -3.4094  1.9920
  940MOL0     H24080   3.240   5.175   8.174  1.4855  1.3586 -0.6265
  941MOL0     O24081   6.275   1.732   7.590 -0.7110 -0.0017 -0.2699
  941MOL0     C24082   6.278   1.636   7.510 -0.8317  0.0756  0.4170
  941MOL0     O24083   6.195   1.625   7.404 -0.5679 -0.2655 -0.0144
  941MOL0     C24084   6.078   1.686   7.395  0.6180 -0.2137  0.9456
  941MOL0     C24085   5.990   1.712   7.507 -0.6633  0.5528  0.0655
  941MOL0     C24086   5.870   1.774   7.484  0.4406  0.6499 -0.3760
  941MOL0     C24087   5.824   1.811   7.358  0.2755 -0.0756 -0.6075
  941MOL0     O24088   5.696   1.857   7.326  0.4785 -0.5528 -0.6471
  941MOL0     C24089   5.594   1.913   7.414  0.2529  0.1054  1.1776
  941MOL0     C24090   5.580   2.062   7.372 -0.4856  0.3557 -1.1490
  941MOL0     C24091   5.454   2.135   7.420  1.2024  0.0572 -0.1686
  941MOL0     C24092   5.401   2.100   7.565 -1.0006  0.0855 -0.3790
  941MOL0     C24093   5.257   2.141   7.583  0.2800  0.5989 -1.5907
  941MOL0     C24094   5.226   2.291   7.584 -1.6037 -0.2105 -0.0774
  941MOL0     C24095   5.078   2.311   7.573 -0.3378  0.2678 -1.4993
  941MOL0     C24096   5.003   2.275   7.705  0.0984 -0.9102  0.0551
  941MOL0     N24097   4.867   2.337   7.697  0.1102 -0.4828  0.2231
  941MOL0     C24098   4.752   2.276   7.727 -0.0103 -0.0939  0.4575
  941MOL0     C24099   4.657   2.366   7.710 -0.0016  0.3548  0.0300
  941MOL0     C24100   4.510   2.352   7.737  0.6999 -0.4071 -0.5938
  941MOL0     C24101   4.443   2.235   7.656 -0.5337 -0.0695  0.9334
  941MOL0     C24102   4.427   2.106   7.739 -0.5574 -0.1599 -0.7235
  941MOL0     C24103   4.360   1.991   7.658 -0.2471 -0.2815 -0.7316
  941MOL0     O24104   4.331   1.884   7.748  0.0576 -0.8238 -0.2041
  941MOL0     C24105   4.267   1.772   7.689  0.0293 -0.7710  1.0520
  941MOL0     C24106   4.182   1.783   7.579 -0.2967 -0.2505 -0.1035
  941MOL0     C24107   4.119   1.670   7.528  0.2120 -0.8474 -0.6448
  941MOL0     C24108   4.139   1.548   7.605 -0.0644  0.1370 -0.2985
  941MOL0     C24109   4.052   1.429   7.567  0.6812 -0.4246 -0.1986
  941MOL0     O24110   3.953   1.433   7.478 -0.9119 -0.0801  0.4710
  941MOL0     C24111   3.898   1.323   7.410 -0.7597  0.1439 -0.1415
  941MOL0     C24112   3.774   1.332   7.353 -1.1400  0.1556 -0.6893
  941MOL0     C24113   3.727   1.223   7.271 -0.1207 -0.0270 -0.2389
  941MOL0     C24114   3.800   1.109   7.246 -0.7754  1.4187 -1.2670
  941MOL0     O24115   3.758   1.003   7.172 -0.1018  0.1982  0.6215
  941MOL0     C24116   3.622   0.956   7.180 -0.3269  0.1106 -0.2938
  941MOL0     C24117   3.628   0.806   7.129 -0.4610 -0.2216 -0.5292
  941MOL0     C24118   3.722   0.729   7.217  0.2672  0.5641 -0.0654
  941MOL0     C24119   3.661   0.696   7.363 -0.8572  1.0374  0.7476
  941MOL0     C24120   3.587   0.569   7.371  0.2410  0.9867 -1.1063
  941MOL0     C24121   3.493   0.567   7.501  0.3017 -0.2671  0.0384
  941MOL0     C24122   3.437   0.431   7.535 -0.1373  0.3493  0.5075
  941MOL0     C24123   3.315   0.436   7.615  0.8381  1.5332 -0.2271
  941MOL0    Cl24124   3.266   0.264   7.648  0.3152 -0.6541  0.0353
  941MOL0     C24125   3.935   1.108   7.296  0.7632 -0.6451  0.5165
  941MOL0     C24126   3.982   1.215   7.378  0.2504  0.0307 -0.9554
  941MOL0     O24127   4.082   1.326   7.622  0.1985 -0.0169  0.2792
  941MOL0     C24128   4.226   1.535   7.714 -1.3982 -0.1235  0.6596
  941MOL0     C24129   4.289   1.653   7.756  0.3454  0.6124  0.1849
  941MOL0     N24130   4.714   2.489   7.684  0.3102 -0.6647  0.4297
  941MOL0     N24131   4.841   2.471   7.675 -0.5888  0.0358  0.5532
  941MOL0     C24132   5.916   1.786   7.250  0.7656 -1.1276  0.0101
  941MOL0     C24133   6.035   1.723   7.265  0.2900  0.3199 -0.0776
  941MOL0     C24134   6.385   1.527   7.524 -0.8302 -0.7315  0.2825
  941MOL0     C24135   6.490   1.548   7.613  0.4415  0.1257 -0.1603
  941MOL0     C24136   6.592   1.455   7.633 -0.4345 -0.2404 -0.0224
  941MOL0     C24137   6.582   1.328   7.574 -0.4754 -0.1624  0.2546
  941MOL0     O24138   6.677   1.232   7.604 -0.0966 -0.1598 -0.4263
  941MOL0     C24139   6.619   1.148   7.707 -0.2704 -0.2715 -0.1049
  941MOL0     C24140   6.731   1.039   7.707 -0.5986 -0.0102  0.2630
  941MOL0     C24141   6.687   0.923   7.787 -0.6483  0.2142 -0.3727
  941MOL0     C24142   6.781   0.809   7.779 -0.4808 -1.2129  0.8046
  941MOL0     C24143   6.773   0.747   7.649  0.6737  0.3281  0.3274
  941MOL0     C24144   6.778   0.711   7.538  0.0491 -1.5578  0.3875
  941MOL0     C24145   6.472   1.312   7.485  0.0714  1.4116  0.0208
  941MOL0     C24146   6.376   1.406   7.453 -0.4100  0.1358 -0.9839
  941MOL0     H24147   6.022   1.674   7.603  0.2053  0.9320 -0.0600
  941MOL0     H24148   5.813   1.800   7.572  0.2731 -2.3351  0.5112
  941MOL0     H24149   5.626   1.922   7.518  3.0742  1.0854  0.3284
  941MOL0     H24150   5.501   1.861   7.391 -0.6182  0.3724  3.7914
  941MOL0     H24151   5.569   2.065   7.264  0.2779  4.8026 -1.3219
  941MOL0     H24152   5.670   2.119   7.399 -2.4673  1.8668  3.4501
  941MOL0     H24153   5.377   2.107   7.347 -1.5901  2.9714  1.3903
  941MOL0     H24154   5.478   2.242   7.412  1.5364 -0.0421 -0.5167
  941MOL0     H24155   5.410   1.996   7.595 -0.6397 -0.2507 -1.5996
  941MOL0     H24156   5.469   2.151   7.634 -1.1740 -0.6567  0.3598
  941MOL0     H24157   5.235   2.109   7.685  1.8301 -0.4705 -1.5668
  941MOL0     H24158   5.195   2.087   7.511  0.7718 -2.2086 -0.0217
  941MOL0     H24159   5.253   2.324   7.483 -0.7614 -1.8134 -0.4070
  941MOL0     H24160   5.282   2.339   7.664 -0.3618 -1.6496 -0.0433
  941MOL0     H24161   5.058   2.417   7.553 -2.8672 -0.5163 -3.6708
  941MOL0     H24162   5.039   2.240   7.500 -2.9951 -0.4150  0.4580
  941MOL0     H24163   5.057   2.323   7.788 -2.5941  2.0219  0.2785
  941MOL0     H24164   4.994   2.167   7.718 -2.9401 -0.6211  1.1106
  941MOL0     H24165   4.728   2.176   7.761 -0.2475 -0.0088  0.5422
  941MOL0     H24166   4.467   2.447   7.703 -2.1428 -1.6984 -0.8638
  941MOL0     H24167   4.498   2.337   7.845  0.8070 -0.5884 -0.6062
  941MOL0     H24168   4.491   2.202   7.563 -3.0707  0.7225 -0.7742
  941MOL0     H24169   4.346   2.273   7.623 -0.7004  0.2806  1.7923
  941MOL0     H24170   4.526   2.078   7.777 -1.7913 -1.4669  1.7296
  941MOL0     H24171   4.369   2.138   7.826  2.4199  0.5046  1.1573
  941MOL0     H24172   4.425   1.949   7.581 -1.6493  0.6958 -2.5414
  941MOL0     H24173   4.276   2.028   7.598 -0.3780 -0.4341 -0.6450
  941MOL0     H24174   4.155   1.883   7.545 -3.5266 -0.4796  1.3635
  941MOL0     H24175   4.049   1.674   7.445  3.4927  1.0065 -3.5656
  941MOL0     H24176   3.717   1.421   7.378 -1.1453 -0.1868  0.6125
  941MOL0     H24177   3.631   1.242   7.225 -0.2777 -0.7443 -0.2158
  941MOL0     H24178   3.559   1.006   7.105 -0.5053 -1.7047 -1.4090
  941MOL0     H24179   3.581   0.968   7.281  0.6985  1.7299 -0.0391
  941MOL0     H24180   3.672   0.809   7.029  2.8079  1.9287  0.8114
  941MOL0     H24181   3.528   0.766   7.110 -0.3133 -0.3402 -1.0793
  941MOL0     H24182   3.814   0.789   7.226 -1.6210  3.7214 -0.4798
  941MOL0     H24183   3.742   0.637   7.161  0.2912  1.1316 -1.0115
  941MOL0     H24184   3.742   0.678   7.434 -0.5062 -1.5916 -0.2076
  941MOL0     H24185   3.605   0.780   7.405 -0.5231  2.2420 -1.1085
  941MOL0     H24186   3.648   0.479   7.355 -1.9193 -1.0293  1.2299
  941MOL0     H24187   3.521   0.544   7.287 -0.5954 -0.5168 -0.0513
  941MOL0     H24188   3.412   0.640   7.492  0.3105 -0.2125  0.3748
  941MOL0     H24189   3.550   0.600   7.588  0.0871  3.0314 -0.9254
  941MOL0     H24190   3.414   0.385   7.438 -1.4315  2.9218 -0.4837
  941MOL0     H24191   3.514   0.367   7.579 -0.1980  0.6111  0.9957
  941MOL0     H24192   3.246   0.476   7.539 -0.3243 -1.9831 -1.2220
  941MOL0     H24193   3.335   0.499   7.703  3.1452 -1.3339  1.4693
  941MOL0     H24194   4.007   1.030   7.275  0.1720 -0.5751 -2.0838
  941MOL0     H24195   4.085   1.205   7.412 -0.2580 -2.5421  0.0829
  941MOL0     H24196   4.244   1.437   7.757  2.1060  0.5316  0.9574
  941MOL0     H24197   4.359   1.639   7.837  0.0343 -1.8130  0.1152
  941MOL0     H24198   5.898   1.807   7.145 -2.0061 -3.4341 -0.0908
  941MOL0     H24199   6.109   1.699   7.189  1.6647  0.9253  1.0262
  941MOL0     H24200   6.494   1.645   7.662 -0.1379  0.3132 -0.4733
  941MOL0     H24201   6.675   1.479   7.700 -1.3820  2.2590  0.3625
  941MOL0     H24202   6.534   1.093   7.665  0.1146 -0.8322 -0.1707
  941MOL0     H24203   6.590   1.207   7.794 -1.4827 -0.0167 -0.6574
  941MOL0     H24204   6.750   1.002   7.606  2.7107 -4.1176  2.0839
  941MOL0     H24205   6.821   1.088   7.745 -0.5504 -0.0104  0.1484
  941MOL0     H24206   6.589   0.884   7.760  0.8371 -3.3603 -1.2147
  941MOL0     H24207   6.691   0.959   7.890  0.1106 -1.5987  0.2807
  941MOL0     H24208   6.887   0.824   7.801 -0.8822 -1.6007  3.3366
  941MOL0     H24209   6.753   0.737   7.857  0.1950 -1.3055  0.9737
  941MOL0     H24210   6.788   0.714   7.432  2.8144 -2.0102  0.5552
  941MOL0     H24211   6.452   1.215   7.441  2.0084  0.6188  0.7703
  941MOL0     H24212   6.288   1.399   7.390 -1.2030  3.5507 -0.4932
  942MOL0     O24213  10.887  10.658   3.628 -0.0649 -1.0207 -0.2001
  942MOL0     C24214  10.821  10.588   3.704  0.2501 -0.1914  0.6232
  942MOL0     O24215  10.732  10.490   3.658 -0.0748  0.5714  0.6253
  942MOL0     C24216  10.693  10.484   3.523 -0.2211 -0.6850  0.6473
  942MOL0     C24217  10.660  10.601   3.443 -0.0171  0.6672  0.1239
  942MOL0     C24218  10.633  10.593   3.310  0.2959  0.5901 -0.3638
  942MOL0     C24219  10.620  10.468   3.249 -1.2532  0.5894  0.0347
  942MOL0     O24220  10.608  10.472   3.119 -0.3011  0.0646  0.4124
  942MOL0     C24221  10.525  10.367   3.065  0.0759  0.0973 -1.1552
  942MOL0     C24222  10.441  10.412   2.950  0.9982  0.1856 -0.1430
  942MOL0     C24223  10.375  10.548   2.966 -0.0266 -1.2093  0.8212
  942MOL0     C24224  10.472  10.664   2.939 -0.4786  0.2287  0.7340
  942MOL0     C24225  10.416  10.805   2.948  0.2839 -0.4698  0.4457
  942MOL0     C24226  10.384  10.838   3.090  1.1935 -0.7240 -0.6277
  942MOL0     C24227  10.368  10.994   3.109  0.6930 -0.6609  0.2292
  942MOL0     C24228  10.249  11.055   3.044 -0.2184 -0.3149 -0.7069
  942MOL0     N24229  10.250  11.061   2.898  0.1919  0.0455  0.3950
  942MOL0     C24230  10.345  11.123   2.830  0.1712 -0.3267 -0.3132
  942MOL0     C24231  10.323  11.105   2.697  0.6496  0.0298 -0.4669
  942MOL0     C24232  10.405  11.146   2.582 -0.5618  1.0412  0.3687
  942MOL0     C24233  10.495  11.263   2.607 -0.6663  0.0104  0.1251
  942MOL0     C24234  10.433  11.391   2.653 -0.4390  0.6421  0.8214
  942MOL0     C24235  10.525  11.478   2.743 -0.6489 -0.4347  0.6257
  942MOL0     O24236  10.664  11.493   2.688  0.5983  0.0136 -0.1471
  942MOL0     C24237  10.737  11.596   2.726 -0.3924  0.1989 -0.2253
  942MOL0     C24238  10.838  11.626   2.631 -0.9889 -0.3694  0.6403
  942MOL0     C24239  10.929  11.724   2.659  0.0997  0.2952  1.0816
  942MOL0     C24240  10.928  11.782   2.784  0.2670 -0.0174 -0.4450
  942MOL0     C24241  11.022  11.903   2.798 -0.3238 -0.0134 -0.3045
  942MOL0     O24242  11.088  11.948   2.687 -0.7212  0.0981 -0.2047
  942MOL0     C24243  11.176  12.058   2.693  0.8526  0.2357 -0.0220
  942MOL0     C24244  11.163  12.163   2.607  0.2212 -0.7090 -0.1639
  942MOL0     C24245  11.239  12.282   2.615 -0.1799 -0.1811 -0.5538
  942MOL0     C24246  11.327  12.297   2.725  0.9219 -0.4230  0.5138
  942MOL0     O24247  11.392  12.416   2.743 -0.6672 -0.0896 -0.1691
  942MOL0     C24248  11.477  12.432   2.853  0.2803  0.1071  0.2542
  942MOL0     C24249  11.519  12.574   2.885  0.8737  0.5682  0.3988
  942MOL0     C24250  11.396  12.648   2.943 -0.1719 -0.2794 -0.1722
  942MOL0     C24251  11.437  12.790   2.981 -0.3816 -0.1646  0.6180
  942MOL0     C24252  11.311  12.868   3.041 -0.4243  0.2826 -0.2604
  942MOL0     C24253  11.205  12.906   2.945  0.0881  0.3563  0.1291
  942MOL0     C24254  11.237  13.018   2.846 -0.9849  0.4241  0.1205
  942MOL0     C24255  11.121  13.024   2.752 -0.3001  0.4514  0.3472
  942MOL0    Cl24256  11.154  12.906   2.629 -0.0862  0.1651  0.0867
  942MOL0     C24257  11.347  12.183   2.810  0.0712  0.7127 -0.5503
  942MOL0     C24258  11.277  12.060   2.787 -0.0134  0.5159 -0.0667
  942MOL0     O24259  11.015  11.960   2.909  0.5453 -0.6083  0.5383
  942MOL0     C24260  10.828  11.737   2.884  0.7292  0.7229  0.7318
  942MOL0     C24261  10.737  11.644   2.860  0.3884  0.8455 -0.2717
  942MOL0     N24262  10.198  11.047   2.696  0.7889 -0.4194  0.2362
  942MOL0     N24263  10.152  11.019   2.809 -0.3758 -0.3735 -0.2692
  942MOL0     C24264  10.645  10.353   3.331 -0.3639  0.8491 -0.6618
  942MOL0     C24265  10.695  10.363   3.465 -0.0412 -0.0109 -0.3944
  942MOL0     C24266  10.823  10.628   3.852 -0.1510  0.4624  0.5779
  942MOL0     C24267  10.783  10.528   3.948  0.4102 -0.8355  0.3287
  942MOL0     C24268  10.786  10.561   4.084 -0.4141 -0.1170 -1.0073
  942MOL0     C24269  10.853  10.684   4.131 -1.0703 -0.6997  0.2244
  942MOL0     O24270  10.882  10.724   4.261  0.2867 -0.2643  0.0301
  942MOL0     C24271  10.833  10.649   4.372 -0.8518 -0.7941 -0.1025
  942MOL0     C24272  10.785  10.757   4.472  0.6998 -0.4064  0.3469
  942MOL0     C24273  10.757  10.690   4.606 -0.0961 -1.0083  0.7115
  942MOL0     C24274  10.697  10.791   4.708 -0.2123 -0.3298 -0.0022
  942MOL0     C24275  10.796  10.896   4.764 -0.7050 -0.8050 -0.0539
  942MOL0     C24276  10.854  10.992   4.820 -0.4671  1.2692 -0.5136
  942MOL0     C24277  10.895  10.774   4.029 -0.0642  0.2966  0.6447
  942MOL0     C24278  10.868  10.754   3.899 -0.1704  0.6929  0.0775
  942MOL0     H24279  10.649  10.699   3.489 -0.2456  0.0518  1.4100
  942MOL0     H24280  10.623  10.685   3.252 -3.2677 -1.3041 -3.1432
  942MOL0     H24281  10.471  10.309   3.140  3.1144 -1.2156  0.2206
  942MOL0     H24282  10.587  10.286   3.025  1.2451  0.9533 -1.1270
  942MOL0     H24283  10.358  10.341   2.949  0.4897  0.7746 -0.5436
  942MOL0     H24284  10.485  10.402   2.850 -0.5519 -2.5735 -0.6623
  942MOL0     H24285  10.349  10.550   3.072 -0.7174 -1.7640  0.6675
  942MOL0     H24286  10.287  10.553   2.902 -0.0645 -0.9585  0.8955
  942MOL0     H24287  10.559  10.673   3.004  0.1006  2.0387 -0.2067
  942MOL0     H24288  10.498  10.636   2.837 -2.8465  3.0962 -0.8456
  942MOL0     H24289  10.328  10.832   2.888  0.0580  0.1230  1.0392
  942MOL0     H24290  10.497  10.872   2.915  0.4720 -1.9304 -2.3873
  942MOL0     H24291  10.460  10.808   3.162 -0.1950  2.4763  2.4468
  942MOL0     H24292  10.296  10.779   3.119  0.6859 -1.5793 -3.5810
  942MOL0     H24293  10.357  11.012   3.216 -0.1373 -1.9869  0.3945
  942MOL0     H24294  10.458  11.048   3.079 -0.0051 -0.9846 -2.7970
  942MOL0     H24295  10.247  11.160   3.076 -0.8142  0.4645 -3.0886
  942MOL0     H24296  10.161  11.000   3.079 -0.5350  0.4979 -0.1866
  942MOL0     H24297  10.435  11.165   2.874  0.2866  2.7704 -3.0486
  942MOL0     H24298  10.333  11.159   2.501  1.1799 -0.9917 -1.6374
  942MOL0     H24299  10.477  11.069   2.554 -2.4136 -1.1276  1.1754
  942MOL0     H24300  10.550  11.273   2.512  2.1049 -1.1278  1.4789
  942MOL0     H24301  10.569  11.231   2.681 -0.6652  1.7280  0.9051
  942MOL0     H24302  10.411  11.442   2.559  2.0919  0.1729 -0.1203
  942MOL0     H24303  10.342  11.361   2.706  0.1101 -2.2583  0.3154
  942MOL0     H24304  10.533  11.422   2.836 -0.3324 -0.1990  0.7406
  942MOL0     H24305  10.478  11.576   2.756  0.9400  0.3554  0.6115
  942MOL0     H24306  10.837  11.560   2.545  2.5872 -0.8283  0.8219
  942MOL0     H24307  10.999  11.749   2.579 -0.5446 -0.3444  0.2971
  942MOL0     H24308  11.092  12.152   2.526 -1.4302 -0.5582  1.2034
  942MOL0     H24309  11.231  12.371   2.553  3.3480  3.4092  3.4704
  942MOL0     H24310  11.563  12.365   2.843  0.3029 -0.1809  2.0561
  942MOL0     H24311  11.418  12.397   2.938 -1.5108  1.8375 -0.2140
  942MOL0     H24312  11.541  12.623   2.789 -1.9986 -0.6454 -1.0107
  942MOL0     H24313  11.606  12.576   2.951 -0.3028 -0.0008  2.0276
  942MOL0     H24314  11.374  12.591   3.034  2.2482 -3.8164 -1.5902
  942MOL0     H24315  11.309  12.653   2.877  0.4349  3.5686 -0.9112
  942MOL0     H24316  11.525  12.791   3.047 -0.2778  0.7102  0.4736
  942MOL0     H24317  11.471  12.838   2.889 -0.0456  0.2501  0.9553
  942MOL0     H24318  11.349  12.962   3.083 -0.5870 -1.0746  3.1929
  942MOL0     H24319  11.273  12.808   3.123  1.7136  0.6951  1.1290
  942MOL0     H24320  11.123  12.954   2.999  1.3184  1.6198  0.9456
  942MOL0     H24321  11.174  12.815   2.894  0.7959 -0.0919  0.4867
  942MOL0     H24322  11.250  13.120   2.881  0.9548 -0.3847  1.9619
  942MOL0     H24323  11.325  12.995   2.785 -2.2004 -1.6376 -0.9670
  942MOL0     H24324  11.105  13.115   2.693 -3.9768  0.6892  1.4355
  942MOL0     H24325  11.030  13.000   2.808  0.9829 -0.1434  2.2916
  942MOL0     H24326  11.421  12.191   2.889  1.3171 -3.0128 -1.1518
  942MOL0     H24327  11.293  11.967   2.841  0.5353 -0.7310 -2.2822
  942MOL0     H24328  10.826  11.786   2.981 -0.5976 -0.5334  1.3754
  942MOL0     H24329  10.661  11.605   2.927  1.6454 -3.8500 -1.2631
  942MOL0     H24330  10.629  10.252   3.295 -0.2922 -0.2873  2.1732
  942MOL0     H24331  10.714  10.275   3.526 -1.3361 -1.3217 -1.7923
  942MOL0     H24332  10.749  10.428   3.922 -1.7633  0.2341 -1.2589
  942MOL0     H24333  10.749  10.483   4.150  0.1156  0.7567  0.3942
  942MOL0     H24334  10.919  10.598   4.416  0.4102  1.4844  0.2222
  942MOL0     H24335  10.754  10.577   4.353 -0.8168 -1.2676  1.3914
  942MOL0     H24336  10.846  10.847   4.487 -2.3699  1.4684  2.7159
  942MOL0     H24337  10.693  10.805   4.438  1.2899  0.5810  0.0811
  942MOL0     H24338  10.853  10.652   4.641  0.6927 -1.2150 -1.5156
  942MOL0     H24339  10.694  10.605   4.580 -1.2706  0.0453 -0.0319
  942MOL0     H24340  10.612  10.841   4.660 -0.5097 -1.5217 -0.7768
  942MOL0     H24341  10.656  10.734   4.792 -1.8970 -0.8517 -1.1361
  942MOL0     H24342  10.891  11.084   4.860 -0.0633  0.9963 -0.2496
  942MOL0     H24343  10.954  10.863   4.051  0.8710  0.2589 -1.4840
  942MOL0     H24344  10.912  10.828   3.834 -1.3951  1.5243  0.1790
  943MOL0     O24345   1.164   3.787  11.197  0.7756 -0.5980  0.6023
  943MOL0     C24346   1.160   3.808  11.318  0.3675  0.1637  0.6570
  943MOL0     O24347   1.074   3.761  11.412 -0.1982  0.0523 -0.1766
  943MOL0     C24348   0.985   3.671  11.367 -0.4957  0.6285 -0.2900
  943MOL0     C24349   1.003   3.526  11.373  0.0265  0.3097 -0.3761
  943MOL0     C24350   0.900   3.446  11.309 -0.4356 -0.0736  0.2055
  943MOL0     C24351   0.785   3.491  11.252  0.0264 -0.5179 -1.0928
  943MOL0     O24352   0.716   3.403  11.173 -0.3723  0.3207  0.5724
  943MOL0     C24353   0.616   3.465  11.081  0.5109  0.8898 -0.4625
  943MOL0     C24354   0.544   3.360  10.996 -0.0449 -0.3649 -0.2024
  943MOL0     C24355   0.487   3.241  11.074  0.4755  0.5045 -0.1754
  943MOL0     C24356   0.419   3.139  10.979 -0.6289  0.0473  0.4655
  943MOL0     C24357   0.517   3.038  10.920  0.1104 -0.2438 -0.5968
  943MOL0     C24358   0.444   2.937  10.830 -0.1517  1.2691 -0.1025
  943MOL0     C24359   0.528   2.807  10.798  0.1789 -0.1397  0.2558
  943MOL0     C24360   0.555   2.718  10.919  0.3218 -0.3805  0.4222
  943MOL0     N24361   0.434   2.682  10.987  0.1246  0.7998 -0.6850
  943MOL0     C24362   0.403   2.717  11.112 -0.9965 -0.1778  0.4210
  943MOL0     C24363   0.279   2.675  11.138  0.4922 -0.8990  0.3978
  943MOL0     C24364   0.205   2.659  11.263 -0.0409  1.1583  0.1163
  943MOL0     C24365   0.145   2.794  11.314 -0.5087  0.2549 -1.0871
  943MOL0     C24366   0.046   2.781  11.436  0.0095 -0.1302  0.6872
  943MOL0     C24367  -0.026   2.918  11.455  0.4721  0.3973  0.2364
  943MOL0     O24368   0.079   3.015  11.479  0.0631  0.5119  0.7326
  943MOL0     C24369   0.038   3.147  11.502  0.1156  0.2024 -0.4335
  943MOL0     C24370  -0.085   3.186  11.550 -0.7192 -0.4917  0.1623
  943MOL0     C24371  -0.110   3.321  11.575 -0.1872  0.6812 -0.1776
  943MOL0     C24372  -0.013   3.423  11.556  0.1613 -0.4744 -0.5084
  943MOL0     C24373  -0.053   3.557  11.565 -0.0417  0.1840  0.4081
  943MOL0     O24374   0.041   3.654  11.540 -0.1877 -0.1576 -0.0222
  943MOL0     C24375   0.005   3.747  11.447 -0.7534 -0.1353  0.1928
  943MOL0     C24376  -0.066   3.722  11.330 -0.5683 -0.0864 -0.4740
  943MOL0     C24377  -0.093   3.833  11.232  0.5760 -0.3621  0.1890
  943MOL0     C24378  -0.005   3.946  11.247 -0.0507 -1.3862 -0.4977
  943MOL0     O24379  -0.033   4.049  11.154 -0.4577  0.7210 -0.4744
  943MOL0     C24380   0.079   4.067  11.067  0.1115  0.1173  0.8355
  943MOL0     C24381   0.166   4.186  11.104 -0.7361 -0.9780  0.2336
  943MOL0     C24382   0.080   4.310  11.115  1.2191  0.0030 -0.2690
  943MOL0     C24383   0.168   4.412  11.194 -0.8175  0.6178  0.4805
  943MOL0     C24384   0.093   4.538  11.217 -0.8293  0.3010 -0.1720
  943MOL0     C24385   0.160   4.659  11.155 -0.2424  0.1938  0.2540
  943MOL0     C24386   0.286   4.720  11.231 -0.8816  0.0204  0.3936
  943MOL0     C24387   0.343   4.854  11.173  0.0772  0.6731 -0.3789
  943MOL0    Cl24388   0.375   4.850  10.994  0.0422  0.0552 -0.7662
  943MOL0     C24389   0.063   3.975  11.361 -0.0507  0.6040 -0.2017
  943MOL0     C24390   0.066   3.874  11.459 -0.6185 -0.4319  0.3959
  943MOL0     O24391  -0.171   3.577  11.577  0.2038 -0.9179  0.6744
  943MOL0     C24392   0.110   3.381  11.516 -0.3101 -0.5254 -0.2186
  943MOL0     C24393   0.135   3.244  11.485  0.5434 -0.4155 -1.2503
  943MOL0     N24394   0.237   2.597  11.028 -0.1344  0.0385  0.6651
  943MOL0     N24395   0.329   2.614  10.934  0.4511  0.4041 -0.1332
  943MOL0     C24396   0.764   3.627  11.250 -0.3294 -0.8282  0.0606
  943MOL0     C24397   0.868   3.715  11.303  0.4774  0.2891  0.5668
  943MOL0     C24398   1.261   3.892  11.390 -1.1421  0.2156 -0.0018
  943MOL0     C24399   1.245   3.976  11.505 -0.7753 -0.3727  0.0826
  943MOL0     C24400   1.356   4.043  11.558  0.5627 -0.3748  0.1879
  943MOL0     C24401   1.482   4.037  11.499  0.4009  0.0728 -0.7241
  943MOL0     O24402   1.587   4.097  11.563 -0.2879  0.3965 -0.3394
  943MOL0     C24403   1.662   4.194  11.486  0.4306  0.7130 -0.4764
  943MOL0     C24404   1.624   4.334  11.523 -0.1307  0.2556  0.0204
  943MOL0     C24405   1.739   4.432  11.470  0.6548  0.6947  0.3890
  943MOL0     C24406   1.709   4.576  11.499 -0.2166  1.0963 -1.1897
  943MOL0     C24407   1.706   4.614  11.641  0.3887  0.5685  0.6267
  943MOL0     C24408   1.702   4.656  11.756 -0.3803  0.6518 -0.8611
  943MOL0     C24409   1.494   3.954  11.393  0.4011 -0.6400 -0.8046
  943MOL0     C24410   1.391   3.886  11.330 -0.8287 -0.4728 -0.9682
  943MOL0     H24411   1.084   3.465  11.413 -1.9448 -1.4996  1.1564
  943MOL0     H24412   0.920   3.339  11.309  0.6503  0.0944 -1.5802
  943MOL0     H24413   0.666   3.526  11.005 -0.9539 -0.1331 -2.3186
  943MOL0     H24414   0.541   3.510  11.148  0.5956  0.9364 -0.3980
  943MOL0     H24415   0.613   3.333  10.916  0.5211 -0.1243  0.1964
  943MOL0     H24416   0.458   3.414  10.955  0.8344  1.4350  0.1931
  943MOL0     H24417   0.421   3.273  11.155  1.9550 -0.0896  1.3251
  943MOL0     H24418   0.569   3.189  11.124 -1.2983 -1.4178  0.8834
  943MOL0     H24419   0.356   3.082  11.048 -1.0118  3.0340  2.8154
  943MOL0     H24420   0.364   3.185  10.896  0.8231 -0.1362 -0.6357
  943MOL0     H24421   0.558   2.980  11.003 -2.7569 -0.0453  1.0919
  943MOL0     H24422   0.604   3.085  10.872  0.7920 -0.6546  0.2145
  943MOL0     H24423   0.427   2.980  10.731  1.1918 -1.8222 -1.8415
  943MOL0     H24424   0.345   2.914  10.872  0.0672  1.1516  0.3502
  943MOL0     H24425   0.481   2.752  10.716  1.2967  0.4518 -0.8176
  943MOL0     H24426   0.623   2.834  10.752  1.2708 -0.9025  1.9791
  943MOL0     H24427   0.633   2.763  10.981 -0.8528  2.2894  0.0908
  943MOL0     H24428   0.587   2.623  10.875  1.0771  0.1301 -0.1488
  943MOL0     H24429   0.462   2.759  11.193 -0.4153 -3.0181  1.5989
  943MOL0     H24430   0.277   2.634  11.342 -1.5765 -0.0028  1.2239
  943MOL0     H24431   0.129   2.583  11.241  2.9622 -1.9873 -0.1370
  943MOL0     H24432   0.100   2.848  11.230  0.6974  3.5569  0.2168
  943MOL0     H24433   0.231   2.857  11.340 -2.2593  0.9092  4.5666
  943MOL0     H24434  -0.042   2.722  11.408 -0.9167  1.6642 -0.3463
  943MOL0     H24435   0.097   2.740  11.524  1.7202 -0.4756 -0.4228
  943MOL0     H24436  -0.082   2.911  11.549  0.5874  2.9256  0.5563
  943MOL0     H24437  -0.097   2.937  11.373 -0.5580 -2.3671  0.3725
  943MOL0     H24438  -0.163   3.115  11.576  0.0476 -2.1496 -1.8293
  943MOL0     H24439  -0.211   3.347  11.606 -0.5220 -1.7564  0.9469
  943MOL0     H24440  -0.099   3.623  11.299  1.9603 -1.1695 -0.0135
  943MOL0     H24441  -0.161   3.818  11.148  3.3238 -0.3186 -2.2087
  943MOL0     H24442   0.045   4.076  10.963  1.0262 -0.5275  0.4691
  943MOL0     H24443   0.152   3.986  11.068 -0.3847 -0.4306 -1.4554
  943MOL0     H24444   0.247   4.208  11.035 -0.8156 -1.5710 -0.0545
  943MOL0     H24445   0.209   4.163  11.202 -0.5705  2.3579  1.0701
  943MOL0     H24446  -0.008   4.297  11.179 -1.0942  0.8550 -3.0804
  943MOL0     H24447   0.055   4.349  11.016  1.3007 -3.2147 -1.6759
  943MOL0     H24448   0.185   4.375  11.295  1.7793 -2.3382 -0.8619
  943MOL0     H24449   0.266   4.423  11.147  1.5256  3.2290  5.2970
  943MOL0     H24450   0.080   4.559  11.324  0.4493 -0.1574  0.0950
  943MOL0     H24451  -0.010   4.541  11.182 -1.7768  1.8134  2.4407
  943MOL0     H24452   0.094   4.745  11.142  0.5518  1.2975  2.9895
  943MOL0     H24453   0.186   4.615  11.058 -2.9400 -1.4150  0.1476
  943MOL0     H24454   0.256   4.736  11.335  1.5722  0.3001  1.1162
  943MOL0     H24455   0.369   4.649  11.227  1.2271  1.9499  4.1418
  943MOL0     H24456   0.440   4.879  11.216  0.7703 -0.7010 -1.0727
  943MOL0     H24457   0.266   4.930  11.190  0.2033  0.6711  0.1977
  943MOL0     H24458   0.100   4.077  11.371 -0.7696  0.8739 -0.2294
  943MOL0     H24459   0.143   3.882  11.536 -0.7091  0.2536  0.4236
  943MOL0     H24460   0.189   3.451  11.490 -0.4704  0.2063  1.2086
  943MOL0     H24461   0.223   3.212  11.430 -1.0352 -2.0638 -2.9658
  943MOL0     H24462   0.681   3.672  11.197  0.2762  0.1893 -0.0505
  943MOL0     H24463   0.869   3.823  11.300 -1.8376  0.4186  1.8162
  943MOL0     H24464   1.157   3.990  11.566  0.3574  2.7726  1.1808
  943MOL0     H24465   1.340   4.098  11.650  0.7916  1.5424 -0.8680
  943MOL0     H24466   1.649   4.168  11.381 -2.0618 -0.0606 -0.0568
  943MOL0     H24467   1.768   4.184  11.513  0.4518 -2.9057 -1.3782
  943MOL0     H24468   1.527   4.366  11.482  0.1864  0.3757 -0.6576
  943MOL0     H24469   1.610   4.355  11.629  1.3063  1.9775 -0.0985
  943MOL0     H24470   1.761   4.408  11.365 -0.3836 -2.4846  0.7694
  943MOL0     H24471   1.833   4.413  11.522  1.3142  0.5489 -0.8130
  943MOL0     H24472   1.788   4.630  11.446  1.3715 -1.7101 -1.8568
  943MOL0     H24473   1.614   4.614  11.459 -2.2882 -1.4033  0.9976
  943MOL0     H24474   1.709   4.703  11.852  2.0788  1.5226 -1.3764
  943MOL0     H24475   1.595   3.947  11.352  1.5594  2.3141  1.2201
  943MOL0     H24476   1.395   3.837  11.233  0.0293  0.4291 -1.4113
  944MOL0     O24477   0.563   4.917  10.747 -0.2301 -0.2687  0.1041
  944MOL0     C24478   0.595   4.944  10.631  0.2911  1.3224 -0.0898
  944MOL0     O24479   0.521   5.015  10.532 -0.6002  0.1710 -0.2184
  944MOL0     C24480   0.382   5.021  10.530 -0.7506 -0.8566 -0.6018
  944MOL0     C24481   0.336   5.087  10.415  0.1670 -0.0054 -0.6135
  944MOL0     C24482   0.202   5.118  10.408 -0.0493  1.1376 -0.0196
  944MOL0     C24483   0.108   5.069  10.498 -0.0864  0.0307  0.0232
  944MOL0     O24484  -0.021   5.096  10.471  0.2255 -0.4217 -0.1720
  944MOL0     C24485  -0.122   5.012  10.534 -0.5042  0.4810 -0.5126
  944MOL0     C24486  -0.256   5.027  10.479 -0.2515 -0.9077 -0.7380
  944MOL0     C24487  -0.306   5.170  10.484  0.2643  0.1907  0.1013
  944MOL0     C24488  -0.307   5.232  10.630 -0.3747  0.2168 -0.0966
  944MOL0     C24489  -0.342   5.379  10.616 -0.8330 -0.1456  0.0784
  944MOL0     C24490  -0.227   5.484  10.584  0.4278  0.7417 -0.3450
  944MOL0     C24491  -0.078   5.429  10.633  0.8296 -0.4672 -0.9486
  944MOL0     C24492   0.028   5.535  10.598  0.2554 -0.5135  0.4862
  944MOL0     N24493   0.044   5.563  10.453  0.9934  0.1145  0.5632
  944MOL0     C24494   0.088   5.467  10.365  0.2439  0.1287  1.4857
  944MOL0     C24495   0.106   5.545  10.252  0.1859  0.1432  0.3995
  944MOL0     C24496   0.124   5.504  10.111 -0.6058  0.8782  0.8527
  944MOL0     C24497   0.197   5.606  10.021  1.0186  0.1973  0.3996
  944MOL0     C24498   0.336   5.662  10.039 -0.5471  0.4615  0.6766
  944MOL0     C24499   0.369   5.791   9.965  0.4288 -0.1134 -0.1260
  944MOL0     O24500   0.380   5.766   9.826  0.5666 -0.2893 -0.4854
  944MOL0     C24501   0.486   5.695   9.776  0.0156  0.2358 -0.0131
  944MOL0     C24502   0.614   5.687   9.836 -1.0363 -0.5085 -0.2367
  944MOL0     C24503   0.709   5.615   9.762 -0.2795 -0.4661 -0.2356
  944MOL0     C24504   0.681   5.549   9.639 -0.2115  0.3295 -0.4113
  944MOL0     C24505   0.786   5.475   9.568 -0.8312 -0.4892  0.5172
  944MOL0     O24506   0.910   5.538   9.567  1.0380 -0.6623  0.4966
  944MOL0     C24507   1.014   5.494   9.504 -0.2930 -0.0440  0.8121
  944MOL0     C24508   1.121   5.579   9.520 -0.4868  0.4880  0.1964
  944MOL0     C24509   1.242   5.554   9.452  1.1162  0.2904 -0.9181
  944MOL0     C24510   1.261   5.430   9.379 -0.8396 -0.1011 -0.2067
  944MOL0     O24511   1.384   5.412   9.317  0.1304  0.3028 -0.5928
  944MOL0     C24512   1.391   5.295   9.232  0.5225 -0.3201 -0.6720
  944MOL0     C24513   1.527   5.287   9.156 -1.6816 -0.4031 -0.9324
  944MOL0     C24514   1.576   5.424   9.087  0.4588  0.2179  0.3514
  944MOL0     C24515   1.676   5.497   9.180 -0.4211  0.5716  0.5067
  944MOL0     C24516   1.759   5.601   9.104 -0.4094 -1.4117  0.3256
  944MOL0     C24517   1.849   5.692   9.196  0.2222 -0.7218  0.1556
  944MOL0     C24518   1.911   5.808   9.120 -0.9192  0.6350  0.3943
  944MOL0     C24519   1.983   5.893   9.210 -0.4831 -0.8704  0.2041
  944MOL0    Cl24520   2.059   6.023   9.114 -0.1631 -0.1461  0.8009
  944MOL0     C24521   1.152   5.337   9.383 -0.3406 -0.4402 -0.1832
  944MOL0     C24522   1.034   5.375   9.441 -0.7525  1.0860 -1.0811
  944MOL0     O24523   0.757   5.377   9.506 -0.8444 -0.3551 -0.5410
  944MOL0     C24524   0.555   5.557   9.588  0.0719  0.0228 -0.2006
  944MOL0     C24525   0.452   5.620   9.659 -0.4584 -0.3276 -0.2174
  944MOL0     N24526   0.060   5.671  10.279  0.6328 -0.6618 -0.1921
  944MOL0     N24527   0.027   5.685  10.400 -0.2459  0.4541 -0.3355
  944MOL0     C24528   0.151   4.997  10.605  0.6384  0.2375  0.2404
  944MOL0     C24529   0.286   4.968  10.629  0.1882  0.9233 -0.2672
  944MOL0     C24530   0.736   4.920  10.600 -0.1074  0.3272  1.0589
  944MOL0     C24531   0.775   4.924  10.463 -0.0771  0.1580 -0.3512
  944MOL0     C24532   0.906   4.929  10.434  0.1263  0.2478 -0.2423
  944MOL0     C24533   1.014   4.909  10.522  0.1531  0.3428 -0.5944
  944MOL0     O24534   1.148   4.902  10.486  0.1868 -0.0758 -0.2965
  944MOL0     C24535   1.193   4.951  10.362 -0.0618 -0.7222  0.6458
  944MOL0     C24536   1.343   4.950  10.368 -0.5674 -0.1872 -0.2063
  944MOL0     C24537   1.402   5.094  10.397  0.4963 -0.4548 -0.7229
  944MOL0     C24538   1.384   5.211  10.290 -1.3797 -0.9667 -0.0732
  944MOL0     C24539   1.407   5.347  10.345 -0.2947  0.0409 -0.0321
  944MOL0     C24540   1.433   5.462  10.373 -0.7949  0.1335  0.4263
  944MOL0     C24541   0.971   4.893  10.662  0.2503  0.8660 -0.7805
  944MOL0     C24542   0.832   4.911  10.699 -0.7778 -0.0372  0.5355
  944MOL0     H24543   0.409   5.111  10.339 -1.4889 -0.3158 -2.3714
  944MOL0     H24544   0.164   5.182  10.329  1.0705  1.8281 -0.0084
  944MOL0     H24545  -0.130   5.041  10.640 -0.8860  5.1972 -1.6258
  944MOL0     H24546  -0.084   4.909  10.528  0.2325  0.6238  1.1660
  944MOL0     H24547  -0.335   4.969  10.528 -0.8435  0.3310 -0.1828
  944MOL0     H24548  -0.251   4.976  10.383 -1.4490  1.5996 -2.2196
  944MOL0     H24549  -0.407   5.169  10.442  0.5949  1.6584 -0.7950
  944MOL0     H24550  -0.249   5.227  10.410  0.7723  1.7287  1.5891
  944MOL0     H24551  -0.381   5.183  10.694  2.9102 -2.1977  2.2004
  944MOL0     H24552  -0.212   5.222  10.683 -0.2461  3.9843  0.6361
  944MOL0     H24553  -0.388   5.423  10.705  0.5161 -0.7381  1.1136
  944MOL0     H24554  -0.426   5.385  10.546 -0.2059 -6.2675 -1.7668
  944MOL0     H24555  -0.257   5.581  10.625  1.1535  0.9181 -0.2180
  944MOL0     H24556  -0.211   5.499  10.477 -0.7737  0.7219 -0.5364
  944MOL0     H24557  -0.082   5.399  10.738  0.9942  1.2927 -0.4106
  944MOL0     H24558  -0.050   5.338  10.579  3.3438 -0.8338  0.8099
  944MOL0     H24559   0.122   5.488  10.631  1.8005  2.6049  0.8415
  944MOL0     H24560   0.012   5.625  10.658  1.8411  0.5076 -0.5503
  944MOL0     H24561   0.065   5.361  10.366 -1.3577  0.4370  2.8191
  944MOL0     H24562   0.029   5.467  10.072  1.3575 -2.5769 -1.1758
  944MOL0     H24563   0.192   5.419  10.119 -0.5684  1.0214  2.2481
  944MOL0     H24564   0.124   5.687  10.013  1.5102  0.9575  2.8280
  944MOL0     H24565   0.193   5.556   9.924 -0.2116  1.3691 -0.1909
  944MOL0     H24566   0.349   5.692  10.143 -0.3249 -0.0262  0.7922
  944MOL0     H24567   0.414   5.591  10.012 -1.2971  0.7742 -2.8666
  944MOL0     H24568   0.454   5.840  10.012 -1.0318 -0.1015  2.7663
  944MOL0     H24569   0.296   5.872   9.970  0.6804  0.0684  3.3409
  944MOL0     H24570   0.641   5.752   9.919 -3.7296 -0.1436  0.4402
  944MOL0     H24571   0.810   5.619   9.801  0.1627  2.2954 -1.3924
  944MOL0     H24572   1.107   5.671   9.576  0.1248  0.2257  0.7889
  944MOL0     H24573   1.324   5.626   9.451 -0.3739  2.1846 -3.9214
  944MOL0     H24574   1.311   5.302   9.158 -0.5155  2.6176  0.5720
  944MOL0     H24575   1.372   5.199   9.283  0.9225 -0.8567 -1.5123
  944MOL0     H24576   1.517   5.204   9.085  0.8940 -0.6123 -1.1546
  944MOL0     H24577   1.603   5.251   9.227 -2.7771 -0.0795  0.4476
  944MOL0     H24578   1.489   5.484   9.059 -1.1871 -2.0351  0.3690
  944MOL0     H24579   1.630   5.387   8.999 -1.4203  1.0354 -1.1948
  944MOL0     H24580   1.616   5.554   9.252  2.5132  2.9348  1.3228
  944MOL0     H24581   1.748   5.427   9.225  2.3322  2.2323 -0.9972
  944MOL0     H24582   1.701   5.668   9.040  0.8970  2.6353  3.0087
  944MOL0     H24583   1.834   5.554   9.039  1.0497  1.3991 -0.1646
  944MOL0     H24584   1.935   5.634   9.231 -0.1631 -1.7342 -0.5267
  944MOL0     H24585   1.781   5.722   9.276 -3.1799  1.3201 -3.1635
  944MOL0     H24586   1.968   5.769   9.035 -0.6456  2.0321 -0.1029
  944MOL0     H24587   1.827   5.870   9.086 -1.6809 -0.4436  0.2600
  944MOL0     H24588   2.063   5.836   9.259  1.5665 -0.9651 -2.9504
  944MOL0     H24589   1.912   5.933   9.282  2.4344  4.1447  0.7822
  944MOL0     H24590   1.155   5.245   9.325  4.8509 -0.0764 -0.9815
  944MOL0     H24591   0.954   5.302   9.442 -0.4759  0.7785 -0.3025
  944MOL0     H24592   0.536   5.514   9.490  0.3741 -2.6529  0.8269
  944MOL0     H24593   0.357   5.642   9.610 -0.7790  0.0738  0.5515
  944MOL0     H24594   0.084   4.954  10.678  0.0716  0.5430 -0.0953
  944MOL0     H24595   0.316   4.915  10.718 -0.4936  2.8000  1.1467
  944MOL0     H24596   0.698   4.955  10.394 -2.2789  0.4022  2.0463
  944MOL0     H24597   0.923   4.959  10.331  2.2272  1.6348  0.4432
  944MOL0     H24598   1.158   5.054  10.358  1.2366 -0.1831  1.9987
  944MOL0     H24599   1.154   4.880  10.289  1.9564  0.0726 -1.3344
  944MOL0     H24600   1.378   4.874  10.438 -3.7853 -2.7800 -1.1404
  944MOL0     H24601   1.386   4.921  10.272 -0.5978  1.3070 -0.7064
  944MOL0     H24602   1.508   5.102  10.425  1.2232  1.7449 -3.5599
  944MOL0     H24603   1.360   5.123  10.494  0.2561 -1.7105 -0.4346
  944MOL0     H24604   1.450   5.189  10.205  0.3543  3.3353 -0.1027
  944MOL0     H24605   1.285   5.225  10.246 -1.6741  2.1538  1.3122
  944MOL0     H24606   1.480   5.555  10.401 -0.0042  0.2265 -1.1465
  944MOL0     H24607   1.043   4.890  10.743 -0.7872  0.7928  0.1670
  944MOL0     H24608   0.804   4.910  10.804 -0.3451  0.8025  0.6725
  945MOL0     O24609   7.274   9.422   0.139  0.0070 -0.3067  0.1732
  945MOL0     C24610   7.179   9.408   0.214 -1.1362 -0.3325 -0.7212
  945MOL0     O24611   7.052   9.445   0.189 -0.6707  0.4501 -0.4149
  945MOL0     C24612   7.035   9.548   0.109 -0.0398  0.3291 -0.7534
  945MOL0     C24613   7.112   9.667   0.131  1.0076 -0.3501  0.3698
  945MOL0     C24614   7.104   9.776   0.039  0.1237 -0.2506 -0.0802
  945MOL0     C24615   7.004   9.774  -0.059 -0.5674 -0.6772  0.8231
  945MOL0     O24616   7.006   9.888  -0.135 -0.3001  0.1340 -0.2412
  945MOL0     C24617   6.939   9.870  -0.262 -0.5425 -0.1430 -1.1101
  945MOL0     C24618   6.932  10.008  -0.330 -0.3675 -0.0196  0.2131
  945MOL0     C24619   6.854  10.127  -0.276  0.5784 -0.0885  0.2946
  945MOL0     C24620   6.853  10.234  -0.385 -0.8190 -0.2905  0.3602
  945MOL0     C24621   6.766  10.363  -0.368  0.4984 -0.1705  0.8117
  945MOL0     C24622   6.616  10.340  -0.353 -1.1036  0.4592  0.4746
  945MOL0     C24623   6.552  10.284  -0.472 -0.3758 -0.2518 -0.2121
  945MOL0     C24624   6.400  10.310  -0.473  0.3868 -0.1111 -0.3930
  945MOL0     N24625   6.347  10.268  -0.344  0.2102 -1.1726 -0.8034
  945MOL0     C24626   6.315  10.147  -0.319  0.8648  0.5621  0.3947
  945MOL0     C24627   6.240  10.145  -0.206 -0.1004  0.0148 -0.2226
  945MOL0     C24628   6.148  10.040  -0.146 -0.5579 -0.1554  0.9793
  945MOL0     C24629   6.213   9.907  -0.110  0.0755  0.5807 -0.3603
  945MOL0     C24630   6.095   9.810  -0.055 -0.0118  0.3909 -0.5019
  945MOL0     C24631   6.153   9.672   0.003  0.2080 -0.7137  0.0262
  945MOL0     O24632   6.199   9.603  -0.117 -0.5417  0.1286 -1.0749
  945MOL0     C24633   6.108   9.539  -0.199  0.7627 -0.4635  0.8268
  945MOL0     C24634   6.122   9.554  -0.341  0.0008 -0.5867 -1.5908
  945MOL0     C24635   6.034   9.485  -0.425 -0.1333 -0.2918 -0.1410
  945MOL0     C24636   5.919   9.421  -0.377  0.9685 -0.4187 -0.4073
  945MOL0     C24637   5.806   9.376  -0.464  0.9271  0.0554 -0.1882
  945MOL0     O24638   5.699   9.298  -0.413 -0.1988 -0.1337  0.1312
  945MOL0     C24639   5.595   9.253  -0.481 -0.1873 -0.4943 -0.2976
  945MOL0     C24640   5.514   9.172  -0.402 -0.3183 -0.9381 -1.2866
  945MOL0     C24641   5.402   9.126  -0.454 -0.3226  0.4644 -1.1383
  945MOL0     C24642   5.356   9.150  -0.585  0.1194  0.5441 -0.8432
  945MOL0     O24643   5.234   9.102  -0.633 -0.8815  0.0473 -0.0646
  945MOL0     C24644   5.176   9.128  -0.760 -1.1701 -0.6825 -0.1064
  945MOL0     C24645   5.061   9.033  -0.766  0.1127 -0.8486  0.4375
  945MOL0     C24646   4.981   9.037  -0.892  0.2987 -0.3680 -0.5063
  945MOL0     C24647   4.859   8.943  -0.869  0.4611  0.4693  0.8012
  945MOL0     C24648   4.735   8.979  -0.962  1.0790  1.0210 -0.1063
  945MOL0     C24649   4.623   8.879  -0.935 -0.8674  0.6192  0.1504
  945MOL0     C24650   4.654   8.749  -1.012  0.6101  0.4662  0.0677
  945MOL0     C24651   4.526   8.669  -1.025  0.3512  0.2110  0.5307
  945MOL0    Cl24652   4.475   8.605  -0.862 -0.4346  0.0610  0.2471
  945MOL0     C24653   5.444   9.222  -0.664  0.5387 -0.2045  0.0367
  945MOL0     C24654   5.569   9.261  -0.620 -0.0679 -0.3421  0.2485
  945MOL0     O24655   5.823   9.423  -0.583  0.4259 -0.4158  0.4624
  945MOL0     C24656   5.897   9.421  -0.233 -0.6175  0.6945 -0.4012
  945MOL0     C24657   5.998   9.471  -0.154 -0.1583  0.8078  0.1838
  945MOL0     N24658   6.223  10.278  -0.163 -0.2775  0.3320  1.1668
  945MOL0     N24659   6.286  10.347  -0.251 -0.1641  0.1131  0.1996
  945MOL0     C24660   6.935   9.651  -0.074 -0.4189 -0.2577  0.1170
  945MOL0     C24661   6.953   9.537   0.004  0.3073 -0.1538  0.7883
  945MOL0     C24662   7.218   9.353   0.345 -0.6652 -0.5607 -0.1245
  945MOL0     C24663   7.119   9.341   0.440 -0.5599 -0.0346 -0.4933
  945MOL0     C24664   7.151   9.296   0.568 -0.6694  0.2036 -0.2311
  945MOL0     C24665   7.283   9.285   0.602 -0.9038  0.6887 -0.1853
  945MOL0     O24666   7.315   9.252   0.728  0.3320 -0.1615 -0.1742
  945MOL0     C24667   7.342   9.114   0.761 -0.9555  0.3036  0.4140
  945MOL0     C24668   7.458   9.050   0.684  0.3848  0.4225  0.8273
  945MOL0     C24669   7.496   8.895   0.714  0.4259 -0.8549  0.5644
  945MOL0     C24670   7.379   8.811   0.654  0.5929  1.2164 -0.2198
  945MOL0     C24671   7.400   8.672   0.709 -0.7153 -0.5093 -0.2525
  945MOL0     C24672   7.446   8.574   0.752 -1.0683  0.3418  0.3091
  945MOL0     C24673   7.391   9.305   0.521 -0.6837  0.4595  0.1320
  945MOL0     C24674   7.362   9.332   0.386  0.5784  0.3291 -0.1996
  945MOL0     H24675   7.194   9.678   0.201  1.7988  0.9462 -0.7203
  945MOL0     H24676   7.165   9.866   0.048  2.0932 -1.3098 -1.9883
  945MOL0     H24677   6.838   9.840  -0.235  0.1807 -1.4821  0.2737
  945MOL0     H24678   6.993   9.802  -0.329 -1.7420 -1.7648 -0.4903
  945MOL0     H24679   6.884   9.975  -0.422 -3.0440  2.7547  0.4423
  945MOL0     H24680   7.033  10.041  -0.354  0.6581 -2.6383  0.6410
  945MOL0     H24681   6.897  10.158  -0.180  1.1623  0.0577 -0.0091
  945MOL0     H24682   6.754  10.082  -0.276  0.6643 -0.2852 -0.3306
  945MOL0     H24683   6.957  10.258  -0.408 -1.6162  4.7331  0.7930
  945MOL0     H24684   6.805  10.182  -0.468  2.7109 -0.4156 -1.8284
  945MOL0     H24685   6.778  10.430  -0.453  0.3085  1.0143  1.6875
  945MOL0     H24686   6.809  10.411  -0.280  1.3038  0.3450  0.1406
  945MOL0     H24687   6.583  10.441  -0.330 -2.1761 -0.0652  1.3573
  945MOL0     H24688   6.604  10.291  -0.255  0.1229  0.1930  0.5119
  945MOL0     H24689   6.593  10.332  -0.562  0.8069  1.7771  1.3063
  945MOL0     H24690   6.563  10.177  -0.487 -0.0524 -0.4607  1.3340
  945MOL0     H24691   6.365  10.246  -0.555 -0.0783 -1.1761  0.6003
  945MOL0     H24692   6.388  10.417  -0.493  3.0075 -0.0714 -2.1714
  945MOL0     H24693   6.319  10.064  -0.390 -3.0856  2.0999 -1.9303
  945MOL0     H24694   6.060  10.023  -0.208 -0.3885  4.2612 -0.8703
  945MOL0     H24695   6.111  10.081  -0.051 -1.7985 -0.3415  0.5914
  945MOL0     H24696   6.291   9.941  -0.042  2.5592  1.5248 -3.4067
  945MOL0     H24697   6.263   9.859  -0.194  3.6609 -2.0968  2.9694
  945MOL0     H24698   6.043   9.856   0.029 -3.4499  1.9940 -3.2601
  945MOL0     H24699   6.018   9.788  -0.130 -0.0705  0.5567 -0.4914
  945MOL0     H24700   6.073   9.617   0.053  1.6280 -3.1785 -0.2143
  945MOL0     H24701   6.235   9.693   0.073  1.0488 -1.3884 -0.7300
  945MOL0     H24702   6.203   9.617  -0.376  0.0393 -0.2483 -0.9181
  945MOL0     H24703   6.047   9.495  -0.532 -2.3332  1.8700 -0.3055
  945MOL0     H24704   5.552   9.157  -0.302  1.5980  1.4474 -1.5691
  945MOL0     H24705   5.327   9.079  -0.392 -0.5801  1.1736 -0.8993
  945MOL0     H24706   5.246   9.097  -0.838 -3.7157 -1.7522 -2.1205
  945MOL0     H24707   5.157   9.234  -0.776 -0.6174 -0.3922  1.0843
  945MOL0     H24708   5.005   9.076  -0.682 -1.6218 -2.0021 -0.0758
  945MOL0     H24709   5.101   8.934  -0.742 -0.9456 -0.7035  3.1692
  945MOL0     H24710   5.045   8.997  -0.972 -0.2275  0.5043 -1.3904
  945MOL0     H24711   4.955   9.138  -0.925  2.0159 -0.2708 -1.7146
  945MOL0     H24712   4.891   8.840  -0.887 -1.5795 -0.3986  1.7681
  945MOL0     H24713   4.821   8.963  -0.768  0.7574  1.7212  0.6880
  945MOL0     H24714   4.759   8.971  -1.068  1.2691 -2.1808  0.0942
  945MOL0     H24715   4.699   9.082  -0.952 -4.5175 -0.6329  0.4094
  945MOL0     H24716   4.541   8.932  -0.983  0.1873  1.9636 -0.2258
  945MOL0     H24717   4.597   8.863  -0.830 -0.7187  0.8148  0.2183
  945MOL0     H24718   4.692   8.776  -1.112 -1.1271 -0.2906 -0.8352
  945MOL0     H24719   4.735   8.698  -0.959 -1.1159 -1.1227  1.3264
  945MOL0     H24720   4.549   8.584  -1.089 -1.7596  1.8072 -2.6406
  945MOL0     H24721   4.440   8.722  -1.067  0.6108 -2.1310 -3.3543
  945MOL0     H24722   5.426   9.235  -0.770 -0.3395  0.2244  0.2333
  945MOL0     H24723   5.643   9.303  -0.687  0.1921 -1.4829 -0.1968
  945MOL0     H24724   5.817   9.366  -0.185  0.7302 -1.3966 -0.4573
  945MOL0     H24725   5.994   9.448  -0.048 -3.0503 -1.7336 -0.3392
  945MOL0     H24726   6.848   9.644  -0.138 -1.5382 -2.7736  1.7580
  945MOL0     H24727   6.890   9.454  -0.025 -1.2115  2.0619 -2.9066
  945MOL0     H24728   7.016   9.370   0.423 -0.9231 -1.2461 -0.4265
  945MOL0     H24729   7.067   9.294   0.637 -1.4572  2.7940 -0.9933
  945MOL0     H24730   7.257   9.046   0.763 -1.3492  0.7332 -0.7811
  945MOL0     H24731   7.366   9.115   0.867 -0.8711  0.6783  0.3910
  945MOL0     H24732   7.425   9.048   0.579  1.2797  0.2783  0.5353
  945MOL0     H24733   7.545   9.117   0.689 -0.3869  1.5311  0.0672
  945MOL0     H24734   7.488   8.894   0.824 -0.6404  3.8275  0.7427
  945MOL0     H24735   7.596   8.876   0.674  0.6360  2.1776 -0.6049
  945MOL0     H24736   7.276   8.845   0.673 -0.4939 -0.1658 -3.0107
  945MOL0     H24737   7.382   8.804   0.545 -1.0348  1.0391 -0.2918
  945MOL0     H24738   7.479   8.477   0.780 -1.5141 -0.7442 -2.5824
  945MOL0     H24739   7.486   9.289   0.571 -1.0110  0.9186  0.9104
  945MOL0     H24740   7.443   9.333   0.315  0.3347  0.7843 -0.4767
  946MOL0     O24741   3.635   2.384   8.355  0.3970  0.2769 -0.0811
  946MOL0     C24742   3.739   2.388   8.413  0.0796  0.2187 -0.2162
  946MOL0     O24743   3.753   2.396   8.547  0.0151  0.3537  0.2746
  946MOL0     C24744   3.650   2.377   8.635  1.0776  0.1923  0.8837
  946MOL0     C24745   3.674   2.322   8.760 -0.5965 -0.0008  0.1973
  946MOL0     C24746   3.572   2.318   8.860 -1.3634 -0.3109  0.3277
  946MOL0     C24747   3.451   2.368   8.847  0.9958 -0.3040 -0.2046
  946MOL0     O24748   3.367   2.356   8.956  0.1411  0.1000 -0.1612
  946MOL0     C24749   3.229   2.363   8.948  1.0067  0.9260 -0.4390
  946MOL0     C24750   3.177   2.398   9.090  0.3945  0.2793  0.4727
  946MOL0     C24751   3.025   2.427   9.095 -0.0645  1.1653 -0.2571
  946MOL0     C24752   2.993   2.448   9.243  0.9096 -0.7838 -0.1301
  946MOL0     C24753   2.835   2.468   9.265 -1.1596  0.7440  1.0643
  946MOL0     C24754   2.793   2.504   9.400  1.1908 -0.5149  0.4005
  946MOL0     C24755   2.821   2.398   9.508  0.0046  0.2725 -0.1746
  946MOL0     C24756   2.938   2.454   9.591  0.3755  0.0945  0.1358
  946MOL0     N24757   2.986   2.361   9.694 -0.4297 -0.8121  0.6491
  946MOL0     C24758   2.931   2.338   9.819  0.8304  0.6760 -0.5859
  946MOL0     C24759   3.005   2.245   9.873 -1.3050 -0.6665 -0.2191
  946MOL0     C24760   2.956   2.182   9.999 -0.6800  0.2559 -0.5318
  946MOL0     C24761   2.873   2.053   9.968  0.9648  0.1181 -0.1641
  946MOL0     C24762   2.732   2.085   9.916  0.9507  0.3307 -0.2130
  946MOL0     C24763   2.643   1.959   9.924  0.0424 -0.0180 -0.7815
  946MOL0     O24764   2.564   1.973  10.041 -0.1115  0.7279 -0.1985
  946MOL0     C24765   2.552   1.861  10.108  0.1821 -0.3507 -0.6147
  946MOL0     C24766   2.474   1.761  10.067  0.6054 -0.4699 -1.5084
  946MOL0     C24767   2.459   1.647  10.145  0.3035  0.0325  1.0253
  946MOL0     C24768   2.530   1.622  10.259 -0.1091 -0.4754  0.0603
  946MOL0     C24769   2.515   1.494  10.338  0.3522  0.8532  0.2151
  946MOL0     O24770   2.391   1.431  10.330  0.6418 -0.0405  1.0073
  946MOL0     C24771   2.355   1.346  10.434 -0.1459 -0.1853  0.8531
  946MOL0     C24772   2.399   1.214  10.444 -0.0183 -0.3753  0.0914
  946MOL0     C24773   2.346   1.131  10.548 -0.0062 -0.4604  0.5025
  946MOL0     C24774   2.259   1.180  10.642  0.4643  0.0173 -0.2292
  946MOL0     O24775   2.211   1.087  10.741  0.3952 -0.6830  0.3852
  946MOL0     C24776   2.106   1.123  10.836 -0.0128  0.7832 -0.5857
  946MOL0     C24777   2.097   1.036  10.964  0.0542  0.5740  0.7342
  946MOL0     C24778   2.034   1.127  11.068 -0.4126  0.9781  0.6726
  946MOL0     C24779   2.043   1.056  11.212 -0.0700  0.2378  0.4782
  946MOL0     C24780   2.034   1.150  11.338  0.3544 -0.1917  0.3790
  946MOL0     C24781   2.166   1.222  11.371  0.4143  0.1398  0.4209
  946MOL0     C24782   2.144   1.324  11.485  0.5850  0.5790  0.7338
  946MOL0     C24783   2.278   1.369  11.531 -0.3613  0.5728  0.1300
  946MOL0    Cl24784   2.283   1.512  11.639  0.6736  0.1877  0.4962
  946MOL0     C24785   2.211   1.307  10.620  0.7833  0.5887 -1.0082
  946MOL0     C24786   2.263   1.397  10.527  0.1266  0.2238 -0.5812
  946MOL0     O24787   2.596   1.469  10.421 -0.7475  1.0470  0.3436
  946MOL0     C24788   2.629   1.714  10.294 -0.0611 -0.6713  0.1261
  946MOL0     C24789   2.631   1.839  10.223  0.4114 -0.1668 -0.1026
  946MOL0     N24790   3.103   2.209   9.783  0.1582 -0.0034  0.0451
  946MOL0     N24791   3.095   2.282   9.674  0.4138 -0.2424 -1.2464
  946MOL0     C24792   3.418   2.428   8.724  0.1186  0.1181  0.4324
  946MOL0     C24793   3.521   2.443   8.627  1.3747  0.3882  0.5292
  946MOL0     C24794   3.854   2.383   8.327 -0.4725  0.5735  0.1695
  946MOL0     C24795   3.846   2.401   8.193 -0.9172 -0.4448  0.7769
  946MOL0     C24796   3.960   2.394   8.105  0.0617 -0.3598 -0.3014
  946MOL0     C24797   4.084   2.376   8.166  0.1763  1.0239 -0.5242
  946MOL0     O24798   4.194   2.361   8.081  0.8048  0.3066 -0.7388
  946MOL0     C24799   4.268   2.492   8.057 -0.4048  0.0885  0.2094
  946MOL0     C24800   4.283   2.590   8.176 -0.5067 -0.8259 -0.1921
  946MOL0     C24801   4.165   2.660   8.239  0.2353  0.1579 -0.0365
  946MOL0     C24802   4.186   2.791   8.316 -1.0363  0.3905 -0.6899
  946MOL0     C24803   4.220   2.896   8.216 -0.5325  0.3558 -0.2553
  946MOL0     C24804   4.257   2.983   8.134 -0.1329  0.1245 -0.1084
  946MOL0     C24805   4.091   2.356   8.306 -0.2920  0.1644  0.9868
  946MOL0     C24806   3.976   2.360   8.380 -0.2932 -0.4863 -0.2800
  946MOL0     H24807   3.772   2.277   8.772  0.4547  2.5455  2.1910
  946MOL0     H24808   3.579   2.272   8.958 -0.7061  0.5003  0.6800
  946MOL0     H24809   3.195   2.263   8.917  1.6337  0.2489  0.9656
  946MOL0     H24810   3.196   2.444   8.883  3.0067  3.1715  1.1869
  946MOL0     H24811   3.220   2.491   9.129  0.9305  0.2322  0.0111
  946MOL0     H24812   3.217   2.326   9.162  0.2251  0.6964  0.9903
  946MOL0     H24813   2.966   2.349   9.045 -0.3937  1.7979 -0.8805
  946MOL0     H24814   3.006   2.517   9.036  0.5761  2.1499  1.0036
  946MOL0     H24815   3.013   2.368   9.314 -3.4386  2.2435  5.3151
  946MOL0     H24816   3.037   2.539   9.284 -2.8465  1.1912 -0.0456
  946MOL0     H24817   2.791   2.375   9.228 -0.2867  0.9327 -0.5129
  946MOL0     H24818   2.812   2.548   9.194  0.4998  1.0859  0.8841
  946MOL0     H24819   2.685   2.518   9.398  1.2768  0.1538  0.2732
  946MOL0     H24820   2.819   2.608   9.423 -3.0273 -0.0162  4.3281
  946MOL0     H24821   2.732   2.376   9.568 -1.6956  0.2098 -2.5545
  946MOL0     H24822   2.855   2.309   9.456  0.6160  1.6699 -2.2901
  946MOL0     H24823   2.900   2.536   9.653 -0.7305 -2.0651  2.5051
  946MOL0     H24824   3.018   2.487   9.525  1.1202  1.9368  1.8752
  946MOL0     H24825   2.852   2.389   9.873  1.9275 -0.9668  2.8782
  946MOL0     H24826   2.897   2.252  10.059  1.7982 -0.4686  3.0534
  946MOL0     H24827   3.035   2.156  10.069  1.2544  0.5532 -2.4788
  946MOL0     H24828   2.861   1.991  10.058 -3.2357 -0.8488 -1.1641
  946MOL0     H24829   2.928   1.998   9.890 -0.9360  1.7601 -2.8085
  946MOL0     H24830   2.691   2.169   9.974 -3.1545 -0.6196 -1.3999
  946MOL0     H24831   2.735   2.116   9.811  1.0882  1.7020  0.1693
  946MOL0     H24832   2.697   1.865   9.907  1.0951  0.9158 -3.0132
  946MOL0     H24833   2.570   1.956   9.843 -1.7314 -1.6700  0.7579
  946MOL0     H24834   2.412   1.760   9.978 -0.0847 -0.4166 -1.0419
  946MOL0     H24835   2.380   1.578  10.116  2.5975 -1.2744 -2.8075
  946MOL0     H24836   2.468   1.168  10.373 -0.7196  1.4168 -1.8360
  946MOL0     H24837   2.393   1.035  10.567  1.2106  0.6022  3.3330
  946MOL0     H24838   2.012   1.098  10.787  0.8883 -0.3922 -1.8173
  946MOL0     H24839   2.108   1.227  10.869 -2.8570  0.7397 -0.0560
  946MOL0     H24840   2.203   1.016  10.982 -0.9082 -4.6612  2.1943
  946MOL0     H24841   2.055   0.936  10.955 -0.0046  0.4840  1.8362
  946MOL0     H24842   1.930   1.142  11.039 -0.1428  1.3539 -0.1158
  946MOL0     H24843   2.072   1.229  11.064  0.9187  0.4929 -3.8472
  946MOL0     H24844   1.954   0.992  11.210  0.9050 -1.1596 -0.1379
  946MOL0     H24845   2.132   0.995  11.234  1.0066  1.1893 -1.0902
  946MOL0     H24846   1.989   1.111  11.430  0.4645 -2.2092 -0.3636
  946MOL0     H24847   1.977   1.235  11.301  0.6658 -0.6487 -1.1934
  946MOL0     H24848   2.217   1.261  11.283  1.5265  1.7640  1.7325
  946MOL0     H24849   2.233   1.148  11.415 -1.6133 -1.1258  1.5473
  946MOL0     H24850   2.091   1.405  11.434  2.6123  1.0606 -0.7162
  946MOL0     H24851   2.097   1.279  11.573 -2.1481  2.6170  0.4568
  946MOL0     H24852   2.341   1.390  11.444  2.7072  2.0036  2.5072
  946MOL0     H24853   2.329   1.283  11.576 -2.1100 -1.3574 -1.3280
  946MOL0     H24854   2.140   1.356  10.686  2.1183  1.2277  0.0017
  946MOL0     H24855   2.230   1.500  10.513 -2.7925 -0.4180  0.7347
  946MOL0     H24856   2.708   1.687  10.363  0.8521  2.2003  0.3162
  946MOL0     H24857   2.708   1.909  10.252 -0.9205  0.1131  3.2036
  946MOL0     H24858   3.328   2.480   8.693  0.2376 -1.5621 -3.1699
  946MOL0     H24859   3.503   2.488   8.530  5.3424 -2.1213 -1.6406
  946MOL0     H24860   3.754   2.440   8.149 -1.7524 -1.1045  1.8866
  946MOL0     H24861   3.944   2.397   7.998  2.5416 -2.3815 -0.8439
  946MOL0     H24862   4.229   2.544   7.970  2.7419 -2.2480 -2.8980
  946MOL0     H24863   4.365   2.458   8.018  0.4768  1.4455  1.1264
  946MOL0     H24864   4.341   2.535   8.252  0.5284  1.7631  1.0134
  946MOL0     H24865   4.355   2.664   8.139 -1.1266 -1.0190 -1.8551
  946MOL0     H24866   4.107   2.596   8.307  0.6312 -1.4692 -1.1661
  946MOL0     H24867   4.100   2.674   8.152  0.7532  0.2472 -0.4140
  946MOL0     H24868   4.090   2.808   8.366 -0.6138 -0.4405  0.4490
  946MOL0     H24869   4.253   2.782   8.402 -3.7986 -1.4773  1.4516
  946MOL0     H24870   4.294   3.058   8.067 -0.3192  0.2785 -0.0415
  946MOL0     H24871   4.182   2.325   8.356  1.2416 -0.0046 -1.7294
  946MOL0     H24872   3.985   2.344   8.487  0.5980 -1.2031 -0.4575
  947MOL0     O24873   2.874   6.442   4.027  0.3595  0.0655  0.2950
  947MOL0     C24874   2.959   6.420   4.107 -0.5816 -0.6145  0.3823
  947MOL0     O24875   2.937   6.378   4.239  0.3480  0.8317  0.2504
  947MOL0     C24876   2.812   6.326   4.280  0.7730  0.2409  0.9462
  947MOL0     C24877   2.819   6.308   4.421 -0.9197  0.3129 -0.3421
  947MOL0     C24878   2.716   6.245   4.489  0.6856  0.4038  0.6009
  947MOL0     C24879   2.607   6.193   4.415  0.3179  0.4260 -0.1140
  947MOL0     O24880   2.508   6.126   4.480  1.2294 -0.3568  0.1920
  947MOL0     C24881   2.503   6.125   4.620 -0.5475 -0.3212 -0.0599
  947MOL0     C24882   2.363   6.096   4.688  0.1938 -0.5598  0.6240
  947MOL0     C24883   2.279   6.222   4.711 -0.6939 -0.4205  0.0788
  947MOL0     C24884   2.159   6.191   4.806 -0.0156 -0.2105  0.3033
  947MOL0     C24885   2.191   6.223   4.950  0.0371 -0.2618 -0.3529
  947MOL0     C24886   2.072   6.177   5.036 -0.1355 -0.7489 -0.3834
  947MOL0     C24887   2.116   6.182   5.174 -0.2588  0.7036 -0.9432
  947MOL0     C24888   2.133   6.314   5.246  0.0030  0.2433  0.2248
  947MOL0     N24889   2.163   6.290   5.388  0.8747 -0.3803  0.7598
  947MOL0     C24890   2.278   6.314   5.458 -0.0443 -0.0692  0.8834
  947MOL0     C24891   2.234   6.292   5.591  0.5652 -0.7225 -0.9327
  947MOL0     C24892   2.307   6.300   5.723  0.4764 -0.5980  0.2813
  947MOL0     C24893   2.359   6.445   5.743 -0.1009 -0.4866  0.1338
  947MOL0     C24894   2.436   6.476   5.868  0.1592 -0.6209 -0.6621
  947MOL0     C24895   2.568   6.406   5.886  0.5812  0.6365 -0.1889
  947MOL0     O24896   2.654   6.494   5.958  0.6659  0.4575 -1.2323
  947MOL0     C24897   2.649   6.482   6.094 -0.2957  0.1085  0.1064
  947MOL0     C24898   2.744   6.563   6.155 -1.1551  0.9264 -0.7980
  947MOL0     C24899   2.743   6.579   6.295 -1.1813  0.3409  0.3336
  947MOL0     C24900   2.654   6.508   6.370 -0.3064 -0.6396  0.7057
  947MOL0     C24901   2.646   6.541   6.516  0.0543 -0.4529  0.0599
  947MOL0     O24902   2.550   6.488   6.585  0.6820 -0.6950  0.0586
  947MOL0     C24903   2.528   6.496   6.721  0.2743 -0.0534  0.2064
  947MOL0     C24904   2.600   6.575   6.811  0.3994  0.2754 -0.8687
  947MOL0     C24905   2.565   6.577   6.950  0.2705 -0.5606 -1.4489
  947MOL0     C24906   2.462   6.489   6.998 -0.0831 -1.2887  0.0418
  947MOL0     O24907   2.427   6.496   7.130 -0.3496  0.0711 -0.9858
  947MOL0     C24908   2.378   6.370   7.193 -0.2691  0.3028 -0.3386
  947MOL0     C24909   2.446   6.231   7.167 -1.1777  0.5789  0.0275
  947MOL0     C24910   2.395   6.109   7.254 -0.2506 -0.3988 -0.1887
  947MOL0     C24911   2.426   5.977   7.181  0.0541 -0.5316 -0.4877
  947MOL0     C24912   2.354   5.863   7.242 -0.2067  0.4897 -0.2968
  947MOL0     C24913   2.418   5.732   7.210  0.2628  0.4239  1.0115
  947MOL0     C24914   2.375   5.613   7.300  0.4868  0.6534  0.1276
  947MOL0     C24915   2.368   5.486   7.212  0.4955 -0.1444 -0.3476
  947MOL0    Cl24916   2.526   5.438   7.160  0.1067 -0.0046  0.8973
  947MOL0     C24917   2.397   6.408   6.898  0.5259 -0.4314  0.7085
  947MOL0     C24918   2.425   6.418   6.761 -0.9222 -0.1168  0.9249
  947MOL0     O24919   2.732   6.612   6.564 -0.4379 -1.6111 -0.0994
  947MOL0     C24920   2.558   6.433   6.309  0.0916  0.4946 -0.6888
  947MOL0     C24921   2.559   6.411   6.172 -0.1460  0.4892 -0.6425
  947MOL0     N24922   2.098   6.253   5.593  0.0269  0.1707  0.0335
  947MOL0     N24923   2.057   6.265   5.473  0.0697 -0.8955 -0.5359
  947MOL0     C24924   2.595   6.215   4.278  0.5293 -0.0048 -0.0334
  947MOL0     C24925   2.702   6.277   4.203  0.4879 -0.1372 -0.0133
  947MOL0     C24926   3.101   6.431   4.058  0.2061  0.3703 -0.7669
  947MOL0     C24927   3.204   6.392   4.145 -0.6193 -0.2500  0.3757
  947MOL0     C24928   3.336   6.374   4.108  0.1487 -0.6147 -0.1480
  947MOL0     C24929   3.378   6.430   3.983 -0.4710  0.1167 -0.1494
  947MOL0     O24930   3.513   6.456   3.964  0.3117  0.4340 -0.4144
  947MOL0     C24931   3.565   6.355   3.876  0.2883  0.4831 -0.9331
  947MOL0     C24932   3.718   6.345   3.889 -0.0188  0.6093  0.1553
  947MOL0     C24933   3.779   6.465   3.832 -0.1930 -0.8078 -0.1183
  947MOL0     C24934   3.929   6.451   3.826  0.5567  0.2851 -0.7502
  947MOL0     C24935   3.980   6.573   3.765 -0.0586  0.8553  0.3299
  947MOL0     C24936   4.039   6.669   3.737  0.4919 -0.0844  0.8523
  947MOL0     C24937   3.279   6.484   3.897  0.0855  0.3171 -0.9971
  947MOL0     C24938   3.143   6.479   3.931 -0.7796 -0.7845 -0.0590
  947MOL0     H24939   2.915   6.340   4.462 -1.9283  2.4357  0.4639
  947MOL0     H24940   2.717   6.233   4.596 -0.0806 -0.1975  0.5503
  947MOL0     H24941   2.526   6.220   4.668 -3.8907  1.0239 -0.8669
  947MOL0     H24942   2.578   6.055   4.660  0.1141  0.3822 -0.0554
  947MOL0     H24943   2.389   6.059   4.787 -3.3020 -0.2120  1.8054
  947MOL0     H24944   2.299   6.025   4.633 -0.5050  2.1635 -2.4152
  947MOL0     H24945   2.238   6.256   4.615 -1.0550 -2.1988 -0.4355
  947MOL0     H24946   2.336   6.307   4.749  0.4098 -0.1091 -2.1140
  947MOL0     H24947   2.077   6.255   4.773 -0.6003  0.4281  2.7424
  947MOL0     H24948   2.124   6.087   4.811  1.0420 -0.5476  1.3376
  947MOL0     H24949   2.216   6.328   4.966 -0.5982 -0.0793 -0.4971
  947MOL0     H24950   2.277   6.161   4.975 -0.7069 -1.1744  0.0391
  947MOL0     H24951   2.024   6.088   4.992 -1.5392  1.2176 -3.1611
  947MOL0     H24952   1.994   6.253   5.028  1.3541  0.8392 -0.4868
  947MOL0     H24953   2.046   6.125   5.235  1.5526 -0.5408  0.0795
  947MOL0     H24954   2.211   6.128   5.176 -0.8394 -0.3459 -1.2479
  947MOL0     H24955   2.040   6.373   5.247  0.7569  1.5557 -1.2905
  947MOL0     H24956   2.218   6.373   5.210 -0.5954  1.6651  1.0532
  947MOL0     H24957   2.375   6.335   5.415 -1.1543 -1.9688 -2.9346
  947MOL0     H24958   2.378   6.217   5.736 -0.6880 -1.2524  3.3521
  947MOL0     H24959   2.229   6.304   5.799  1.0259 -0.1984  0.8298
  947MOL0     H24960   2.264   6.499   5.747  0.1062 -0.1501  0.6701
  947MOL0     H24961   2.413   6.476   5.653 -0.8143 -3.2152 -1.3502
  947MOL0     H24962   2.464   6.582   5.866 -0.6537 -0.4047 -1.9599
  947MOL0     H24963   2.385   6.468   5.964  1.7253  2.0559  0.5306
  947MOL0     H24964   2.607   6.391   5.785  1.9282  0.7967  0.2877
  947MOL0     H24965   2.552   6.306   5.928  3.9062 -0.3858 -1.0863
  947MOL0     H24966   2.806   6.622   6.088 -1.4074  1.9024 -0.1838
  947MOL0     H24967   2.816   6.649   6.335  1.4486 -1.3747 -1.1281
  947MOL0     H24968   2.686   6.640   6.796  0.7733  0.6285  2.1824
  947MOL0     H24969   2.613   6.640   7.024  0.2559 -0.3030 -1.6614
  947MOL0     H24970   2.276   6.362   7.154 -0.2399  1.2729 -0.6298
  947MOL0     H24971   2.370   6.380   7.302 -0.7644 -1.9624 -0.1034
  947MOL0     H24972   2.552   6.256   7.171 -1.0268  0.2457 -1.4044
  947MOL0     H24973   2.431   6.196   7.065  1.0724 -0.4586 -0.0063
  947MOL0     H24974   2.289   6.123   7.273 -1.1342  0.6356 -4.6772
  947MOL0     H24975   2.445   6.093   7.350  2.1615 -2.0518 -1.6090
  947MOL0     H24976   2.407   5.989   7.074  2.6399 -1.6579 -1.1302
  947MOL0     H24977   2.532   5.953   7.187 -0.5888 -4.7718 -2.2078
  947MOL0     H24978   2.252   5.858   7.201  0.6918 -0.8428 -2.5152
  947MOL0     H24979   2.344   5.872   7.351 -2.9793  2.7789 -0.6195
  947MOL0     H24980   2.525   5.750   7.224  0.5115 -1.2033  1.4160
  947MOL0     H24981   2.406   5.709   7.104 -1.4034 -3.5756  1.8717
  947MOL0     H24982   2.447   5.602   7.382  1.8780  3.9030 -0.4920
  947MOL0     H24983   2.277   5.641   7.340 -1.6850 -2.5896 -2.3901
  947MOL0     H24984   2.299   5.499   7.127 -0.5804  2.2516  0.7756
  947MOL0     H24985   2.311   5.411   7.267 -0.2059 -1.4124 -2.6454
  947MOL0     H24986   2.320   6.337   6.924 -0.4191 -0.6456 -2.2925
  947MOL0     H24987   2.362   6.379   6.682 -2.8446 -0.6084  2.6352
  947MOL0     H24988   2.480   6.385   6.368 -0.8673 -1.2902 -3.2259
  947MOL0     H24989   2.491   6.332   6.145  0.1817  0.5479 -1.6599
  947MOL0     H24990   2.507   6.184   4.223 -0.1395  0.7371  0.5934
  947MOL0     H24991   2.684   6.287   4.097  0.2007  3.8342  0.2790
  947MOL0     H24992   3.172   6.353   4.241  0.3690 -0.2458  0.7158
  947MOL0     H24993   3.408   6.333   4.178 -1.3631  0.8845  2.4543
  947MOL0     H24994   3.543   6.381   3.772 -0.0829 -0.9329 -1.2273
  947MOL0     H24995   3.520   6.261   3.910  2.5001 -0.1462  0.4576
  947MOL0     H24996   3.744   6.316   3.991 -0.0519 -0.0688 -0.0291
  947MOL0     H24997   3.760   6.266   3.827  0.2748 -0.5833  1.8116
  947MOL0     H24998   3.755   6.551   3.894  2.0581 -1.0257  1.1636
  947MOL0     H24999   3.744   6.481   3.729  0.8895 -1.1903 -0.5629
  947MOL0     H25000   3.956   6.437   3.931 -1.1434 -1.4697 -0.5003
  947MOL0     H25001   3.958   6.368   3.761  2.2094 -3.9292  4.6618
  947MOL0     H25002   4.089   6.761   3.715 -1.1254  0.4285 -1.0229
  947MOL0     H25003   3.297   6.536   3.804 -0.3114  0.6962 -0.8691
  947MOL0     H25004   3.069   6.510   3.858 -0.7858 -2.1597 -0.6732
  948MOL0     O25005   6.919   4.161   5.413  0.4746 -0.0130  0.2355
  948MOL0     C25006   6.963   4.104   5.319 -0.3632 -0.3915  0.4024
  948MOL0     O25007   7.041   4.169   5.216 -0.0739 -0.5677  1.2339
  948MOL0     C25008   7.108   4.280   5.260  0.6777  0.6292 -1.0003
  948MOL0     C25009   7.059   4.402   5.217  0.6397  0.4539 -0.5828
  948MOL0     C25010   7.113   4.521   5.269 -0.2714  0.0769  0.3617
  948MOL0     C25011   7.228   4.509   5.357 -0.0797  0.3892  0.1073
  948MOL0     O25012   7.301   4.616   5.410 -1.0122 -0.2279  0.5815
  948MOL0     C25013   7.272   4.750   5.382 -1.0381  0.3920  0.1131
  948MOL0     C25014   7.382   4.833   5.460 -0.3926 -0.1950  0.0490
  948MOL0     C25015   7.357   4.986   5.471  0.4000  0.1703 -0.1914
  948MOL0     C25016   7.251   5.015   5.578 -1.0716 -0.9083  0.3015
  948MOL0     C25017   7.186   5.156   5.550  0.0403  0.2816  0.4152
  948MOL0     C25018   7.077   5.182   5.661 -0.6762  0.2733  0.8918
  948MOL0     C25019   6.963   5.084   5.661 -1.0499  0.3094 -0.1396
  948MOL0     C25020   6.853   5.119   5.567 -1.2454 -0.7140 -0.4554
  948MOL0     N25021   6.807   5.011   5.468 -0.6669 -0.0503 -0.4342
  948MOL0     C25022   6.696   5.025   5.391  0.1987 -0.4044  0.6181
  948MOL0     C25023   6.704   4.929   5.304 -0.1532  1.7445 -0.3493
  948MOL0     C25024   6.626   4.908   5.166  0.1447  0.7753 -0.6199
  948MOL0     C25025   6.693   4.998   5.064 -0.4942 -1.0371  0.7137
  948MOL0     C25026   6.618   4.999   4.930 -0.8716 -0.0705 -1.2468
  948MOL0     C25027   6.480   5.053   4.941  0.7615 -0.9700 -0.4505
  948MOL0     O25028   6.378   4.961   4.972 -0.2617  0.5042  0.3973
  948MOL0     C25029   6.263   5.004   5.043 -1.0026 -0.1119 -0.5017
  948MOL0     C25030   6.241   5.131   5.098 -0.2012  0.6493 -1.0748
  948MOL0     C25031   6.134   5.148   5.177  0.2776 -0.8881 -1.7260
  948MOL0     C25032   6.034   5.050   5.203 -0.6224  0.8726 -0.1138
  948MOL0     C25033   5.911   5.080   5.272  0.0391  0.8288 -0.4647
  948MOL0     O25034   5.806   4.997   5.269 -0.3554  0.6028  0.3202
  948MOL0     C25035   5.709   5.027   5.359  0.2792 -0.1553 -0.4005
  948MOL0     C25036   5.583   5.066   5.301  0.6294  0.4169 -0.0093
  948MOL0     C25037   5.483   5.094   5.391 -0.5422  1.3969  1.0730
  948MOL0     C25038   5.493   5.087   5.534 -0.9142 -0.1774  0.3327
  948MOL0     O25039   5.399   5.110   5.626 -1.0353 -0.9274  0.6609
  948MOL0     C25040   5.276   5.165   5.582  0.1859  1.3080  0.0023
  948MOL0     C25041   5.203   5.222   5.690 -0.5705  0.3669  0.2020
  948MOL0     C25042   5.094   5.316   5.634  0.6747 -0.8836 -0.1213
  948MOL0     C25043   5.021   5.393   5.747 -0.0554  0.3075  0.0513
  948MOL0     C25044   4.930   5.499   5.689 -0.8628 -0.4335  0.3684
  948MOL0     C25045   4.833   5.535   5.804  0.3336 -0.3410 -0.2756
  948MOL0     C25046   4.733   5.645   5.759  0.3662  0.1157  0.2562
  948MOL0     C25047   4.626   5.655   5.864  1.1940 -0.8026 -0.5974
  948MOL0    Cl25048   4.696   5.733   6.013 -0.1559 -0.2755  0.2897
  948MOL0     C25049   5.612   5.043   5.585 -0.6991 -0.0960  1.0262
  948MOL0     C25050   5.716   5.007   5.504  0.0258  0.6844  0.2977
  948MOL0     O25051   5.925   5.172   5.354  0.0336  0.1531  0.0645
  948MOL0     C25052   6.057   4.919   5.144 -0.4063 -0.6363 -0.4388
  948MOL0     C25053   6.172   4.900   5.066 -0.4979 -0.4956  1.1394
  948MOL0     N25054   6.814   4.851   5.338 -0.4984 -0.9481 -0.8914
  948MOL0     N25055   6.884   4.909   5.433  0.0040  0.6321 -0.2652
  948MOL0     C25056   7.280   4.382   5.398  0.2343 -0.0955  0.1044
  948MOL0     C25057   7.224   4.267   5.343  0.0263 -0.9859  0.4506
  948MOL0     C25058   6.928   3.959   5.297  1.2029 -0.5606 -0.1710
  948MOL0     C25059   6.971   3.890   5.198 -0.8593 -0.4820 -0.0362
  948MOL0     C25060   6.957   3.759   5.189 -0.4121 -0.3546  0.5366
  948MOL0     C25061   6.891   3.690   5.279 -0.5621  0.5080  0.1694
  948MOL0     O25062   6.878   3.551   5.267  0.7334 -0.0809  0.2551
  948MOL0     C25063   6.829   3.469   5.381 -1.0404 -0.6737  0.1648
  948MOL0     C25064   6.851   3.327   5.342  0.2367 -0.0891 -0.9276
  948MOL0     C25065   6.823   3.220   5.450 -0.5420 -0.2288 -0.5348
  948MOL0     C25066   6.865   3.079   5.427  0.2518 -0.1647 -0.0285
  948MOL0     C25067   6.856   3.001   5.550 -0.6018  0.4135 -1.0702
  948MOL0     C25068   6.879   2.924   5.649  0.4468  0.0796 -0.4889
  948MOL0     C25069   6.831   3.753   5.380  0.3890 -0.2796 -1.4001
  948MOL0     C25070   6.846   3.892   5.395 -0.9778 -0.9931  0.8759
  948MOL0     H25071   6.976   4.399   5.148  0.8273  1.8062 -0.8981
  948MOL0     H25072   7.076   4.620   5.241 -2.1208 -0.6265  0.1456
  948MOL0     H25073   7.174   4.770   5.427 -1.1531 -3.5522  2.0525
  948MOL0     H25074   7.295   4.773   5.278 -0.5054  1.5274  0.4672
  948MOL0     H25075   7.483   4.823   5.419 -0.9478 -0.8528 -1.2301
  948MOL0     H25076   7.394   4.799   5.563  1.2209  2.0933  0.6724
  948MOL0     H25077   7.314   5.034   5.382  1.2826  2.7471  0.6696
  948MOL0     H25078   7.451   5.039   5.485  1.2769 -1.9213  2.6577
  948MOL0     H25079   7.179   4.933   5.574 -2.6102  0.3511  0.8959
  948MOL0     H25080   7.287   5.001   5.680 -0.3244 -2.3889 -0.1474
  948MOL0     H25081   7.139   5.165   5.452  1.2832 -2.5024 -0.5560
  948MOL0     H25082   7.277   5.217   5.554  1.8843 -2.1123 -1.7225
  948MOL0     H25083   7.042   5.285   5.649 -1.3068 -0.2176 -2.6832
  948MOL0     H25084   7.123   5.162   5.758  0.6060  0.8707  0.4226
  948MOL0     H25085   6.993   4.981   5.640 -1.0540  0.4339 -0.7610
  948MOL0     H25086   6.928   5.065   5.763  1.7370 -0.9969  0.6832
  948MOL0     H25087   6.889   5.209   5.516  0.1927 -0.9706  0.0608
  948MOL0     H25088   6.773   5.151   5.634 -0.0786 -1.9197  1.6256
  948MOL0     H25089   6.625   5.108   5.388  0.5453 -0.0929  0.9594
  948MOL0     H25090   6.519   4.924   5.182  0.5577  1.4143  1.8463
  948MOL0     H25091   6.638   4.807   5.125 -1.1640  1.2934 -2.4304
  948MOL0     H25092   6.787   4.953   5.031 -0.6171 -2.4793  2.2108
  948MOL0     H25093   6.698   5.098   5.108 -0.7933 -1.0476  0.7706
  948MOL0     H25094   6.673   5.075   4.873  3.0974 -2.4061 -0.9359
  948MOL0     H25095   6.625   4.901   4.882  0.3223 -0.3971 -0.4653
  948MOL0     H25096   6.444   5.098   4.847 -3.8199 -4.5351 -0.7461
  948MOL0     H25097   6.485   5.113   5.032 -0.0765 -2.0030  0.3019
  948MOL0     H25098   6.313   5.211   5.087 -0.8402  1.0773 -2.4313
  948MOL0     H25099   6.113   5.235   5.237  1.7909 -1.5825 -0.0945
  948MOL0     H25100   5.567   5.097   5.199 -3.1609 -1.8845 -0.2886
  948MOL0     H25101   5.400   5.139   5.338  0.4380  0.1590 -1.7145
  948MOL0     H25102   5.219   5.083   5.538 -0.6667  1.7578  0.2445
  948MOL0     H25103   5.278   5.223   5.489 -0.1553 -3.7758 -3.5445
  948MOL0     H25104   5.276   5.288   5.738 -0.3081  0.6705 -0.6054
  948MOL0     H25105   5.163   5.147   5.759  1.2227  0.9371  1.9762
  948MOL0     H25106   5.021   5.249   5.586 -2.0103  1.7362  0.0082
  948MOL0     H25107   5.133   5.381   5.556  2.3322 -1.6758  0.0121
  948MOL0     H25108   4.959   5.327   5.808  0.3654 -0.2261 -0.0922
  948MOL0     H25109   5.085   5.419   5.831  1.6180 -3.6073  0.2174
  948MOL0     H25110   4.865   5.467   5.606 -1.2037  2.8405 -0.8084
  948MOL0     H25111   4.985   5.591   5.666  0.5723 -1.6011 -1.1641
  948MOL0     H25112   4.890   5.572   5.890  0.2553  1.9368 -1.1393
  948MOL0     H25113   4.781   5.449   5.847 -0.2432  0.6172  1.0056
  948MOL0     H25114   4.787   5.740   5.750 -0.3320  0.3598 -1.9544
  948MOL0     H25115   4.695   5.625   5.659  3.2552 -4.7453 -0.1878
  948MOL0     H25116   4.580   5.557   5.877  2.8272 -1.8384 -2.1875
  948MOL0     H25117   4.549   5.728   5.838  1.4954  0.4777  1.7596
  948MOL0     H25118   5.644   5.047   5.688 -1.3286  0.4293  1.2055
  948MOL0     H25119   5.818   4.978   5.527  0.6504 -0.7398 -3.5089
  948MOL0     H25120   5.984   4.840   5.151 -1.7970  0.6246 -0.2105
  948MOL0     H25121   6.190   4.811   5.006 -2.9907  0.1617 -0.7810
  948MOL0     H25122   7.360   4.385   5.471  0.5165 -0.1719 -0.1985
  948MOL0     H25123   7.275   4.177   5.375  0.5153 -0.0002  2.6407
  948MOL0     H25124   7.028   3.942   5.121 -0.7086  0.1585  0.5111
  948MOL0     H25125   7.010   3.708   5.109  3.8102  1.4336  1.8977
  948MOL0     H25126   6.726   3.476   5.416 -0.5533 -2.3684  2.1188
  948MOL0     H25127   6.891   3.495   5.467  0.5288  0.6674 -1.2922
  948MOL0     H25128   6.791   3.306   5.252  1.9641  0.3043 -2.2097
  948MOL0     H25129   6.956   3.315   5.317  0.9583 -2.4583  2.5060
  948MOL0     H25130   6.723   3.219   5.495 -1.0347  0.9741 -1.5509
  948MOL0     H25131   6.889   3.244   5.534 -0.7171 -1.1054 -0.1319
  948MOL0     H25132   6.807   3.030   5.349 -0.5803  2.5025 -1.1871
  948MOL0     H25133   6.968   3.080   5.390  0.7122 -2.9534  0.9355
  948MOL0     H25134   6.912   2.865   5.732  1.3977 -0.8347 -1.4707
  948MOL0     H25135   6.759   3.712   5.450 -1.6999  2.1026 -1.9838
  948MOL0     H25136   6.799   3.949   5.475 -1.2158 -0.7420  0.5544
  949MOL0     O25137   9.743   4.582   6.749  0.1899 -0.0944 -0.1323
  949MOL0     C25138   9.758   4.702   6.748 -1.0937 -1.1137 -0.7882
  949MOL0     O25139   9.774   4.787   6.642 -0.7519 -0.7148  0.6331
  949MOL0     C25140   9.802   4.718   6.533 -0.3124  0.4897  0.1226
  949MOL0     C25141   9.925   4.642   6.519  0.2574 -0.8675 -0.1674
  949MOL0     C25142   9.962   4.578   6.398 -0.7697 -0.5220  0.1859
  949MOL0     C25143   9.875   4.579   6.289 -0.9494 -0.6812 -0.4084
  949MOL0     O25144   9.899   4.492   6.189 -0.7706 -0.4406  0.0264
  949MOL0     C25145   9.853   4.526   6.058 -0.1705  0.4041  0.0195
  949MOL0     C25146   9.948   4.446   5.964  0.7724 -0.6424 -0.2885
  949MOL0     C25147   9.947   4.470   5.817  0.3700 -1.0432  0.3221
  949MOL0     C25148   9.842   4.395   5.738 -0.0692  0.0490  0.3380
  949MOL0     C25149   9.840   4.424   5.586  0.2027  0.6473 -0.4715
  949MOL0     C25150   9.702   4.388   5.526  0.0769  0.8667 -0.0100
  949MOL0     C25151   9.716   4.368   5.369  0.4064 -0.6791 -0.7573
  949MOL0     C25152   9.589   4.295   5.326  0.3825  0.0666  0.0708
  949MOL0     N25153   9.464   4.364   5.354  0.3594  0.4827  0.1682
  949MOL0     C25154   9.402   4.446   5.267  1.1331 -0.1689 -0.1872
  949MOL0     C25155   9.275   4.464   5.307  0.4956  0.1768  0.0619
  949MOL0     C25156   9.177   4.562   5.242  1.0120  0.0138 -0.3264
  949MOL0     C25157   9.098   4.496   5.129 -0.1201 -0.1969 -0.2572
  949MOL0     C25158   9.004   4.381   5.156  0.2183  0.2867  0.6704
  949MOL0     C25159   8.925   4.397   5.283 -0.2300 -0.3137  1.0421
  949MOL0     O25160   8.851   4.522   5.297  0.2374 -0.5742  0.4453
  949MOL0     C25161   8.738   4.540   5.367  0.9331 -0.4442  0.2986
  949MOL0     C25162   8.647   4.441   5.419 -0.5497 -0.5307 -0.3523
  949MOL0     C25163   8.541   4.479   5.495 -0.4588  0.2530 -0.2286
  949MOL0     C25164   8.521   4.616   5.531  0.8797  0.7520 -0.0925
  949MOL0     C25165   8.401   4.651   5.615 -1.2151 -0.4074  0.0650
  949MOL0     O25166   8.356   4.547   5.685  0.5482  0.3988  0.1114
  949MOL0     C25167   8.256   4.555   5.769  1.2996 -0.0076 -0.2019
  949MOL0     C25168   8.129   4.601   5.731 -0.3547  0.2305  0.3457
  949MOL0     C25169   8.026   4.604   5.824 -0.6421 -0.2990  0.7578
  949MOL0     C25170   8.047   4.560   5.943  1.3556  0.2615  0.6563
  949MOL0     O25171   7.946   4.579   6.035  0.1227 -0.0909  0.2168
  949MOL0     C25172   7.946   4.508   6.158 -0.4087 -0.2120 -1.6721
  949MOL0     C25173   7.804   4.522   6.214  0.8669  0.3164  0.0409
  949MOL0     C25174   7.701   4.454   6.110 -0.3779 -0.3881  0.1455
  949MOL0     C25175   7.571   4.418   6.179 -0.1526  0.1881  0.5342
  949MOL0     C25176   7.549   4.268   6.174  0.3253 -0.0017  0.0615
  949MOL0     C25177   7.427   4.221   6.260  0.1226 -0.0776  0.5292
  949MOL0     C25178   7.410   4.076   6.262  0.4266  0.5905 -0.7714
  949MOL0     C25179   7.517   3.986   6.335 -0.2152  0.9996  0.0651
  949MOL0    Cl25180   7.444   3.823   6.349  0.2949  0.0011  0.3072
  949MOL0     C25181   8.167   4.499   5.983  0.4998 -0.5194  0.0279
  949MOL0     C25182   8.267   4.497   5.898  0.0125 -0.2380 -0.3799
  949MOL0     O25183   8.362   4.765   5.624  0.1313  0.7754 -0.8190
  949MOL0     C25184   8.597   4.715   5.476 -0.2633  0.8044 -0.4559
  949MOL0     C25185   8.716   4.681   5.398 -0.1062 -0.1659  0.5425
  949MOL0     N25186   9.253   4.392   5.426 -0.3347 -0.4727 -0.4538
  949MOL0     N25187   9.376   4.340   5.454  0.2031 -0.5915 -0.7362
  949MOL0     C25188   9.761   4.661   6.299 -0.0315 -0.0745  0.5742
  949MOL0     C25189   9.728   4.716   6.419  0.9930  0.5757 -0.0893
  949MOL0     C25190   9.761   4.764   6.880 -0.3647 -0.3479  1.0262
  949MOL0     C25191   9.857   4.870   6.909  0.6306 -0.3529  0.8664
  949MOL0     C25192   9.883   4.896   7.043 -0.0976  0.2049 -0.1871
  949MOL0     C25193   9.806   4.846   7.147 -0.2062 -0.1713 -0.0400
  949MOL0     O25194   9.818   4.904   7.268 -0.3436  0.6479 -0.2257
  949MOL0     C25195   9.923   4.876   7.360 -0.2920  1.1859 -0.4649
  949MOL0     C25196   9.890   4.911   7.511  0.3024  0.8979  0.0802
  949MOL0     C25197   9.786   4.814   7.563 -0.9436 -0.1643  1.0226
  949MOL0     C25198   9.845   4.675   7.555 -0.0121 -0.2826  0.7237
  949MOL0     C25199   9.808   4.586   7.445  0.6182 -0.4010  0.2993
  949MOL0     C25200   9.778   4.519   7.345 -0.1067  0.2721  0.3896
  949MOL0     C25201   9.701   4.755   7.115 -0.0730 -0.6852 -0.6416
  949MOL0     C25202   9.684   4.712   6.988 -1.0598 -0.6931 -0.5039
  949MOL0     H25203   9.996   4.631   6.600  1.4905  0.8490 -0.9469
  949MOL0     H25204  10.051   4.517   6.387  0.9800  1.8169  0.7189
  949MOL0     H25205   9.858   4.634   6.040 -1.0298  0.7099  1.4933
  949MOL0     H25206   9.746   4.504   6.052 -0.8769  2.8243  2.1100
  949MOL0     H25207   9.926   4.341   5.981  0.5807 -0.3904  1.1121
  949MOL0     H25208  10.049   4.473   5.997  1.2956 -0.2543 -2.0860
  949MOL0     H25209  10.037   4.433   5.768  0.8804 -1.7355  1.7153
  949MOL0     H25210   9.940   4.578   5.801  2.2851 -0.9049  0.1805
  949MOL0     H25211   9.854   4.288   5.757 -3.1789 -1.3837 -4.0136
  949MOL0     H25212   9.753   4.418   5.798  0.0567 -0.7248  0.8304
  949MOL0     H25213   9.918   4.368   5.533 -0.0768 -1.2203  1.0043
  949MOL0     H25214   9.859   4.531   5.578  0.6525  0.4557 -3.2738
  949MOL0     H25215   9.630   4.468   5.546  0.5222  1.3231 -0.2076
  949MOL0     H25216   9.652   4.302   5.572  0.7437  1.1727  1.3274
  949MOL0     H25217   9.717   4.469   5.328 -0.6945 -0.7702 -1.0396
  949MOL0     H25218   9.804   4.309   5.341  1.0151 -3.1310  4.9159
  949MOL0     H25219   9.579   4.198   5.376  2.8198 -0.5122 -0.4381
  949MOL0     H25220   9.599   4.265   5.221  1.9223 -0.7112  0.4157
  949MOL0     H25221   9.438   4.498   5.179  1.8326  3.4874  2.0393
  949MOL0     H25222   9.229   4.653   5.209  0.8562 -0.1349 -1.0088
  949MOL0     H25223   9.111   4.615   5.311  1.7943  1.5096 -0.6771
  949MOL0     H25224   9.171   4.480   5.050  2.5532 -2.7191  2.4614
  949MOL0     H25225   9.035   4.576   5.087  0.4434  1.0325  1.1384
  949MOL0     H25226   8.923   4.379   5.081 -0.2805 -1.5862  1.2147
  949MOL0     H25227   9.055   4.285   5.147  1.7145  1.2367 -3.2985
  949MOL0     H25228   8.992   4.372   5.367  0.2162 -1.7234  0.2947
  949MOL0     H25229   8.850   4.318   5.285  1.5572 -2.1551 -0.2107
  949MOL0     H25230   8.667   4.335   5.403  2.5721 -0.6291  2.8484
  949MOL0     H25231   8.468   4.413   5.542  0.0354 -0.4400 -0.4179
  949MOL0     H25232   8.112   4.622   5.626  1.4762 -2.8741 -0.7223
  949MOL0     H25233   7.927   4.638   5.794 -0.1540 -1.7992 -3.0388
  949MOL0     H25234   8.018   4.545   6.232 -1.5706 -0.8063 -0.1763
  949MOL0     H25235   7.963   4.402   6.137  0.8860  0.0580 -2.0980
  949MOL0     H25236   7.783   4.627   6.236 -0.7190 -0.2078  1.1940
  949MOL0     H25237   7.792   4.466   6.307  3.0764 -2.5986 -1.2643
  949MOL0     H25238   7.739   4.362   6.065 -0.0476  0.6433 -1.8289
  949MOL0     H25239   7.688   4.519   6.022  3.4958 -1.1378 -1.1895
  949MOL0     H25240   7.565   4.454   6.282 -1.4036 -1.3867  1.0509
  949MOL0     H25241   7.490   4.470   6.127  0.1801 -0.4168 -0.6473
  949MOL0     H25242   7.630   4.213   6.222  1.1040  2.5084  1.8518
  949MOL0     H25243   7.543   4.239   6.068  0.9430  0.4691 -0.1107
  949MOL0     H25244   7.334   4.269   6.227  0.2178 -0.8118 -0.8679
  949MOL0     H25245   7.455   4.248   6.362  1.5261  0.2419  0.0824
  949MOL0     H25246   7.313   4.054   6.306 -0.0645 -0.2366 -2.2147
  949MOL0     H25247   7.399   4.035   6.161 -2.7826  0.7504 -0.5758
  949MOL0     H25248   7.550   4.010   6.437  0.1974 -1.6437  0.6301
  949MOL0     H25249   7.611   3.985   6.279  0.6683 -0.5084  1.4574
  949MOL0     H25250   8.185   4.471   6.087  4.9737 -1.8849 -0.8966
  949MOL0     H25251   8.368   4.470   5.928 -0.4189 -0.1426  1.2363
  949MOL0     H25252   8.593   4.821   5.500  2.2381  0.6043  1.2144
  949MOL0     H25253   8.777   4.759   5.354  0.4086 -0.4846  0.6846
  949MOL0     H25254   9.692   4.668   6.215 -1.9261  1.2473  2.1556
  949MOL0     H25255   9.636   4.774   6.426 -0.2628 -1.4832  1.7233
  949MOL0     H25256   9.899   4.936   6.834 -2.3051  2.0574  1.1782
  949MOL0     H25257   9.947   4.981   7.065  0.8524  0.2294 -2.7319
  949MOL0     H25258  10.012   4.930   7.327 -0.7383  2.4086  0.2739
  949MOL0     H25259   9.944   4.769   7.351 -3.1335  0.5080 -0.0501
  949MOL0     H25260   9.983   4.910   7.567  2.4650 -2.3204 -3.1054
  949MOL0     H25261   9.852   5.013   7.526 -1.2439  0.3373  0.2196
  949MOL0     H25262   9.688   4.821   7.516 -0.3232 -0.1557 -0.3025
  949MOL0     H25263   9.766   4.846   7.666 -0.5357  1.9630  0.4817
  949MOL0     H25264   9.954   4.676   7.556  0.0749 -0.6680 -2.0579
  949MOL0     H25265   9.823   4.612   7.642 -2.0399  0.2115  0.6147
  949MOL0     H25266   9.742   4.470   7.257 -1.3744  2.3483 -0.3306
  949MOL0     H25267   9.636   4.719   7.194 -0.2507 -3.2998 -1.8640
  949MOL0     H25268   9.607   4.638   6.967  0.5090 -2.0774 -1.6656
  950MOL0     O25269   0.508   6.333   5.649 -0.6065  0.8170 -0.3202
  950MOL0     C25270   0.542   6.229   5.592 -0.0054  0.5794  0.0476
  950MOL0     O25271   0.497   6.187   5.468 -0.0106  0.2130 -0.1095
  950MOL0     C25272   0.412   6.267   5.404  0.0559  0.4670  0.1080
  950MOL0     C25273   0.469   6.320   5.283  0.4727 -0.0379  0.3379
  950MOL0     C25274   0.382   6.393   5.194 -0.3799  0.8327  0.5632
  950MOL0     C25275   0.245   6.411   5.227  0.5938 -0.8777  0.6348
  950MOL0     O25276   0.156   6.480   5.141 -0.0931  0.2745  0.0264
  950MOL0     C25277   0.201   6.543   5.027  0.0373 -0.0659  0.1523
  950MOL0     C25278   0.211   6.459   4.903 -0.3963  0.9138 -0.8088
  950MOL0     C25279   0.277   6.528   4.793  0.5657 -0.1751 -0.0766
  950MOL0     C25280   0.429   6.546   4.807 -0.0854 -0.2828  0.8219
  950MOL0     C25281   0.469   6.690   4.748  0.4462  0.1449 -0.8200
  950MOL0     C25282   0.460   6.709   4.599  1.0160 -0.1918  0.2887
  950MOL0     C25283   0.480   6.860   4.564  0.2878  0.1833  0.0904
  950MOL0     C25284   0.502   6.908   4.422 -0.6641  0.3820 -0.6557
  950MOL0     N25285   0.647   6.865   4.396 -0.2814  0.0459  0.6086
  950MOL0     C25286   0.692   6.751   4.334 -0.1100  0.1597  0.4476
  950MOL0     C25287   0.829   6.762   4.329 -0.1128  0.1503  0.6642
  950MOL0     C25288   0.932   6.672   4.262 -0.1358  0.3240 -0.4875
  950MOL0     C25289   1.080   6.691   4.309  0.1972  0.3324  0.6604
  950MOL0     C25290   1.172   6.594   4.228  0.1156  0.5471 -0.0637
  950MOL0     C25291   1.217   6.650   4.091 -0.9539 -0.0886 -0.3778
  950MOL0     O25292   1.289   6.546   4.019 -0.4149 -0.0097 -0.2271
  950MOL0     C25293   1.415   6.567   3.970 -0.6626 -0.6107 -0.6031
  950MOL0     C25294   1.507   6.462   3.961  0.4503  0.3726 -0.0877
  950MOL0     C25295   1.647   6.487   3.915 -0.6281 -0.8861  0.1886
  950MOL0     C25296   1.699   6.613   3.881 -0.2100 -0.3057  0.1176
  950MOL0     C25297   1.841   6.620   3.826 -0.9051  0.9487  0.5290
  950MOL0     O25298   1.893   6.496   3.789 -0.5873  0.4096 -0.1374
  950MOL0     C25299   2.028   6.510   3.777 -0.2339  0.1854 -0.4968
  950MOL0     C25300   2.101   6.514   3.898 -0.0428 -0.1076  1.2912
  950MOL0     C25301   2.239   6.515   3.895  0.1909 -0.0852  0.3458
  950MOL0     C25302   2.307   6.507   3.777 -0.3103 -0.2108  0.6062
  950MOL0     O25303   2.440   6.493   3.776 -0.5624  0.4414  0.0051
  950MOL0     C25304   2.519   6.514   3.657 -0.1339  0.2888  0.8317
  950MOL0     C25305   2.665   6.488   3.704  0.0401  0.3392 -0.1001
  950MOL0     C25306   2.748   6.515   3.583  0.4652  0.4940  0.4179
  950MOL0     C25307   2.898   6.533   3.634  0.4981 -0.2313 -0.3980
  950MOL0     C25308   2.988   6.560   3.511  0.0939 -0.3754 -0.2319
  950MOL0     C25309   3.134   6.559   3.543  0.0231  0.7022 -0.0720
  950MOL0     C25310   3.229   6.582   3.428 -1.0344  0.4107 -0.6097
  950MOL0     C25311   3.364   6.518   3.455 -0.4609 -0.5626  0.0795
  950MOL0    Cl25312   3.443   6.590   3.602 -0.3353  0.0443  0.0783
  950MOL0     C25313   2.239   6.499   3.656 -1.4913  1.0262  0.6736
  950MOL0     C25314   2.097   6.495   3.656  0.5863 -0.0948  0.1174
  950MOL0     O25315   1.898   6.724   3.832 -0.4068  0.0726 -0.5182
  950MOL0     C25316   1.611   6.721   3.903 -0.2322 -0.8892  0.6422
  950MOL0     C25317   1.476   6.696   3.942  0.3112 -0.7842  0.2889
  950MOL0     N25318   0.863   6.889   4.369 -0.6842  0.5801 -0.7039
  950MOL0     N25319   0.759   6.944   4.409  0.5519 -0.1659  0.2136
  950MOL0     C25320   0.193   6.365   5.348  0.1720  0.9250  0.8122
  950MOL0     C25321   0.282   6.294   5.434 -0.3732  1.0978 -0.0820
  950MOL0     C25322   0.645   6.139   5.657  0.3531 -0.3192 -0.6461
  950MOL0     C25323   0.723   6.047   5.582  0.2793  0.5774 -1.5137
  950MOL0     C25324   0.812   5.969   5.646  0.0817 -1.0139  0.7393
  950MOL0     C25325   0.812   5.963   5.782 -0.1568  0.5792  0.2075
  950MOL0     O25326   0.895   5.876   5.841 -0.1353 -0.2747  0.0341
  950MOL0     C25327   0.868   5.737   5.848  0.1435 -0.4982 -0.3087
  950MOL0     C25328   0.988   5.653   5.891  0.4818  0.0188 -0.4028
  950MOL0     C25329   0.987   5.634   6.048 -1.6913 -0.4273  0.3247
  950MOL0     C25330   1.108   5.546   6.092  0.6157 -0.8177 -1.1347
  950MOL0     C25331   1.092   5.532   6.241 -0.2514  0.4154  0.7275
  950MOL0     C25332   1.076   5.520   6.362  0.6974  0.3658 -0.7994
  950MOL0     C25333   0.751   6.062   5.861  0.6687  0.5243 -0.9818
  950MOL0     C25334   0.663   6.146   5.795  0.8766  0.5135 -0.1345
  950MOL0     H25335   0.569   6.284   5.264  0.4890  0.3825 -0.3881
  950MOL0     H25336   0.418   6.435   5.101 -0.8326 -1.4952 -0.7258
  950MOL0     H25337   0.294   6.598   5.043  1.3161 -1.6803 -1.3252
  950MOL0     H25338   0.131   6.620   4.996  0.1072 -0.1619 -0.2499
  950MOL0     H25339   0.110   6.437   4.868 -1.3500  2.0148  1.0588
  950MOL0     H25340   0.256   6.363   4.929  1.2844  2.2044  1.4803
  950MOL0     H25341   0.217   6.620   4.789 -0.2894 -0.6548  1.1288
  950MOL0     H25342   0.260   6.478   4.697  2.7185  3.4849 -2.6489
  950MOL0     H25343   0.456   6.557   4.913  1.1409  1.7254  0.3481
  950MOL0     H25344   0.487   6.467   4.757  0.5282 -0.2813  1.5074
  950MOL0     H25345   0.570   6.712   4.785 -0.7330  3.2704  0.9022
  950MOL0     H25346   0.401   6.759   4.798  0.6298  0.3701 -0.8836
  950MOL0     H25347   0.356   6.690   4.570  1.0377  0.8110 -0.4780
  950MOL0     H25348   0.529   6.637   4.554  1.5975 -1.5881  3.1442
  950MOL0     H25349   0.386   6.901   4.602  0.8858 -0.3130  2.2722
  950MOL0     H25350   0.558   6.896   4.631  0.0726  0.6447  0.0917
  950MOL0     H25351   0.480   7.015   4.408 -0.3094  0.5206 -0.1633
  950MOL0     H25352   0.438   6.848   4.356 -0.1760 -0.4513 -0.3729
  950MOL0     H25353   0.619   6.675   4.307 -1.8848  1.9371 -0.0104
  950MOL0     H25354   0.928   6.702   4.157 -3.5271  0.5746 -0.3768
  950MOL0     H25355   0.909   6.567   4.281  1.0311 -0.5836 -3.5701
  950MOL0     H25356   1.104   6.677   4.415  3.1942  0.0765  0.0611
  950MOL0     H25357   1.113   6.794   4.294 -1.1302  0.7200  0.3433
  950MOL0     H25358   1.259   6.587   4.294 -3.5709 -2.1653  5.2464
  950MOL0     H25359   1.128   6.494   4.229 -1.5488  1.2495  1.0850
  950MOL0     H25360   1.269   6.746   4.102 -0.5423 -0.2683 -0.7040
  950MOL0     H25361   1.130   6.674   4.031 -0.7629 -0.9967 -1.0392
  950MOL0     H25362   1.469   6.361   3.966  2.0257 -0.3040 -1.0595
  950MOL0     H25363   1.701   6.395   3.895  0.1034  0.4163 -5.1360
  950MOL0     H25364   2.065   6.529   3.999  0.5542 -0.3520  1.5450
  950MOL0     H25365   2.293   6.514   3.989 -3.5039 -0.3647  2.6449
  950MOL0     H25366   2.518   6.618   3.622  2.7647  0.5361  1.2212
  950MOL0     H25367   2.498   6.446   3.574 -2.5017  0.4660  1.2346
  950MOL0     H25368   2.662   6.380   3.721 -1.0572 -0.2519 -3.2856
  950MOL0     H25369   2.690   6.547   3.792 -0.2241  2.1918 -1.2201
  950MOL0     H25370   2.708   6.609   3.542 -2.2334 -0.4940  0.5945
  950MOL0     H25371   2.742   6.437   3.507  0.6703  1.4689 -0.6363
  950MOL0     H25372   2.912   6.600   3.720  0.7211  1.9743 -2.0703
  950MOL0     H25373   2.934   6.439   3.677  2.9289  0.1776 -1.3685
  950MOL0     H25374   2.974   6.666   3.487 -1.5283 -0.6868 -0.7922
  950MOL0     H25375   2.963   6.498   3.424 -2.1098  2.9337 -2.1963
  950MOL0     H25376   3.160   6.460   3.583  0.4974  0.8231 -0.0767
  950MOL0     H25377   3.160   6.635   3.617  2.0575 -3.5898  4.2478
  950MOL0     H25378   3.192   6.530   3.339  1.0062  0.9958 -1.8587
  950MOL0     H25379   3.239   6.690   3.410 -1.9863  0.2302 -2.4060
  950MOL0     H25380   3.427   6.531   3.367  1.1228  1.4496  1.4061
  950MOL0     H25381   3.359   6.409   3.462  0.5082 -0.5539  1.3349
  950MOL0     H25382   2.302   6.486   3.569 -1.0718  2.4074  0.7408
  950MOL0     H25383   2.051   6.481   3.558 -2.4726 -3.3901  1.8045
  950MOL0     H25384   1.661   6.816   3.884  2.0127 -2.4523 -2.1916
  950MOL0     H25385   1.411   6.782   3.953 -0.7939 -1.8273  2.5281
  950MOL0     H25386   0.089   6.386   5.368 -0.4756 -0.2240 -1.0587
  950MOL0     H25387   0.244   6.226   5.510  2.3890 -0.8686 -0.2851
  950MOL0     H25388   0.721   6.040   5.473  1.5458 -2.4055 -1.4507
  950MOL0     H25389   0.866   5.900   5.582 -0.5010 -2.0390  1.3244
  950MOL0     H25390   0.839   5.706   5.747  0.2857  0.8207 -0.7714
  950MOL0     H25391   0.788   5.724   5.922  0.8142 -0.5045  0.4268
  950MOL0     H25392   0.961   5.556   5.848 -1.9533  0.6489 -0.4639
  950MOL0     H25393   1.079   5.706   5.861 -1.8092  3.3298 -2.1978
  950MOL0     H25394   0.891   5.594   6.083 -1.8199 -1.6150 -1.2786
  950MOL0     H25395   0.998   5.726   6.105  0.8156  0.1317 -0.9481
  950MOL0     H25396   1.110   5.445   6.049  0.6497 -0.9727 -0.7808
  950MOL0     H25397   1.200   5.596   6.063  0.5342 -0.1071 -0.2255
  950MOL0     H25398   1.034   5.525   6.460 -1.4458 -0.0288 -1.6427
  950MOL0     H25399   0.762   6.073   5.969  1.0781  0.7378 -1.0434
  950MOL0     H25400   0.599   6.213   5.851 -1.9924 -1.5542 -0.7661
  951MOL0     O25401   3.702   6.785   7.972  0.8253 -0.6226 -0.2425
  951MOL0     C25402   3.600   6.739   7.914 -0.4659  0.0842  0.6481
  951MOL0     O25403   3.511   6.664   7.967 -0.2304  0.9429 -0.2514
  951MOL0     C25404   3.529   6.640   8.109  0.7003 -0.4666 -0.1230
  951MOL0     C25405   3.489   6.739   8.199 -0.2677  1.2179 -0.0559
  951MOL0     C25406   3.503   6.711   8.329  1.1978  0.1467 -0.8529
  951MOL0     C25407   3.543   6.589   8.380  0.1199  0.2222 -0.0511
  951MOL0     O25408   3.537   6.578   8.515 -0.5226  1.1292 -0.2817
  951MOL0     C25409   3.576   6.459   8.581  0.1476  0.4494 -0.1802
  951MOL0     C25410   3.523   6.469   8.727  0.2457 -1.3715  0.1628
  951MOL0     C25411   3.370   6.486   8.744  0.9610 -0.2234  0.3036
  951MOL0     C25412   3.298   6.348   8.733  0.2158  0.6315  0.3820
  951MOL0     C25413   3.140   6.355   8.759  0.1753  0.5379  0.3349
  951MOL0     C25414   3.092   6.401   8.894  0.2221 -0.3703 -0.3896
  951MOL0     C25415   2.961   6.480   8.895  0.5029 -0.1358  0.0461
  951MOL0     C25416   2.971   6.626   8.844 -0.3803  0.2817 -0.5062
  951MOL0     N25417   2.852   6.693   8.895  0.3322  0.2130  0.6997
  951MOL0     C25418   2.731   6.682   8.833  0.2976  0.6957 -0.0105
  951MOL0     C25419   2.646   6.761   8.901 -0.7707 -0.7658  0.0094
  951MOL0     C25420   2.516   6.825   8.879 -0.0471  0.0808 -0.6164
  951MOL0     C25421   2.419   6.816   9.004  0.5003 -0.1153 -0.4239
  951MOL0     C25422   2.386   6.664   9.036  0.5495  0.7979  0.5380
  951MOL0     C25423   2.305   6.655   9.164  0.3868  0.8103 -0.1776
  951MOL0     O25424   2.234   6.533   9.169  0.3557  0.0530 -0.0421
  951MOL0     C25425   2.176   6.497   9.285  0.4808 -0.4074 -0.5993
  951MOL0     C25426   2.111   6.381   9.274  1.3691 -0.4462  1.1712
  951MOL0     C25427   2.028   6.338   9.378 -0.2611  0.9745 -0.7935
  951MOL0     C25428   2.001   6.415   9.485  0.8776  0.2007  0.1331
  951MOL0     C25429   1.929   6.357   9.600  0.1353 -0.7897  0.4952
  951MOL0     O25430   1.914   6.220   9.597 -0.0957  0.1231 -0.8218
  951MOL0     C25431   1.861   6.155   9.705  0.3550 -0.4192 -0.5274
  951MOL0     C25432   1.941   6.076   9.792 -0.5502 -0.6391 -0.7050
  951MOL0     C25433   1.871   6.009   9.896 -0.4646 -0.5281  0.4327
  951MOL0     C25434   1.734   6.016   9.915 -0.5288 -0.3792  0.0851
  951MOL0     O25435   1.674   5.956  10.019 -0.3241  0.0499  0.1518
  951MOL0     C25436   1.539   5.922  10.013  0.1934  0.6304 -0.9241
  951MOL0     C25437   1.494   5.869  10.145  1.0193  0.5116  0.3021
  951MOL0     C25438   1.344   5.829  10.136 -0.3010 -0.3334 -0.4413
  951MOL0     C25439   1.284   5.825  10.279 -0.4816 -0.1708  0.5192
  951MOL0     C25440   1.157   5.738  10.280 -0.7565 -0.4875  0.1429
  951MOL0     C25441   1.084   5.740  10.410  0.0073 -0.2086 -0.0022
  951MOL0     C25442   0.961   5.655  10.401  0.1297 -0.4936 -1.3074
  951MOL0     C25443   0.909   5.609  10.544 -0.6659 -0.3378  0.8047
  951MOL0    Cl25444   1.003   5.459  10.594  0.0113  0.6000 -0.0070
  951MOL0     C25445   1.658   6.088   9.824  0.9610  0.2198 -0.6896
  951MOL0     C25446   1.724   6.154   9.723 -0.9737 -0.2102 -0.2695
  951MOL0     O25447   1.885   6.436   9.687 -0.8861 -0.1418  0.1298
  951MOL0     C25448   2.063   6.544   9.495  0.7767  0.2905  0.0535
  951MOL0     C25449   2.142   6.586   9.390  0.5358  0.0950 -0.5254
  951MOL0     N25450   2.721   6.824   9.003  0.6390  0.4458  0.4894
  951MOL0     N25451   2.840   6.780   8.997 -0.6492  0.5973 -0.9752
  951MOL0     C25452   3.588   6.493   8.289 -1.0275  0.6706  0.3200
  951MOL0     C25453   3.581   6.519   8.158  0.2136 -1.0081  1.0467
  951MOL0     C25454   3.621   6.741   7.771  0.3186  0.2551  0.0784
  951MOL0     C25455   3.524   6.667   7.689 -0.3977  0.3406 -0.0556
  951MOL0     C25456   3.524   6.685   7.545 -0.5353  0.6504 -0.8293
  951MOL0     C25457   3.624   6.758   7.482  0.0293  0.1843  0.6317
  951MOL0     O25458   3.631   6.760   7.350  0.3528 -0.6405  0.5253
  951MOL0     C25459   3.591   6.896   7.309  0.1675  0.1964  0.0501
  951MOL0     C25460   3.460   6.912   7.227  0.3163  0.1207  0.2603
  951MOL0     C25461   3.441   6.795   7.132 -0.7128 -0.4255  0.2717
  951MOL0     C25462   3.294   6.766   7.079 -0.1127  0.1940 -1.3618
  951MOL0     C25463   3.250   6.861   6.977  0.0454  0.5660  0.0137
  951MOL0     C25464   3.205   6.942   6.895  0.5054 -0.3744  0.1861
  951MOL0     C25465   3.730   6.815   7.560  0.0387  0.2530 -0.2303
  951MOL0     C25466   3.721   6.817   7.700  1.1499 -0.0242  0.0737
  951MOL0     H25467   3.451   6.837   8.173  0.1112  2.2188  2.8109
  951MOL0     H25468   3.473   6.769   8.415  1.9041 -3.3783  2.0187
  951MOL0     H25469   3.682   6.442   8.597 -0.5436 -1.4786  3.4277
  951MOL0     H25470   3.536   6.374   8.525  0.3822 -0.2618  0.7054
  951MOL0     H25471   3.563   6.563   8.768 -0.9585 -0.5258 -0.5246
  951MOL0     H25472   3.560   6.386   8.788 -2.1220 -3.7039 -1.3687
  951MOL0     H25473   3.327   6.557   8.673  1.8415 -2.3140 -2.4654
  951MOL0     H25474   3.358   6.523   8.847  1.2128 -0.9774  0.6140
  951MOL0     H25475   3.312   6.302   8.635  0.7653  1.2531  0.1646
  951MOL0     H25476   3.345   6.287   8.811 -1.3104  0.9942  1.6504
  951MOL0     H25477   3.090   6.262   8.729  1.1197  1.1495 -3.7681
  951MOL0     H25478   3.103   6.430   8.688 -2.2717  1.0495  2.0292
  951MOL0     H25479   3.172   6.453   8.947 -0.7124  0.7555 -0.0445
  951MOL0     H25480   3.074   6.314   8.958  0.1648  1.1768  1.8068
  951MOL0     H25481   2.889   6.418   8.841  0.4001 -0.7979  0.9211
  951MOL0     H25482   2.921   6.479   8.997 -0.3741  0.5686 -0.2799
  951MOL0     H25483   2.955   6.627   8.736 -0.7379 -1.2025 -0.4956
  951MOL0     H25484   3.067   6.671   8.870  2.0993 -5.1166  1.2320
  951MOL0     H25485   2.708   6.633   8.739  2.1435 -3.1929  1.3513
  951MOL0     H25486   2.468   6.773   8.796  1.9110 -0.9371 -1.1654
  951MOL0     H25487   2.527   6.932   8.858 -0.9079  0.0002 -1.5881
  951MOL0     H25488   2.327   6.864   8.970  0.4816  0.3688  0.2889
  951MOL0     H25489   2.472   6.862   9.087  4.5916 -2.4224 -1.4649
  951MOL0     H25490   2.320   6.624   8.958 -1.7380  1.2089  2.1520
  951MOL0     H25491   2.476   6.603   9.048  1.5073  2.2804  1.1624
  951MOL0     H25492   2.240   6.743   9.170 -0.9233 -0.1883  1.0718
  951MOL0     H25493   2.373   6.665   9.249  1.1260  2.1737 -0.8930
  951MOL0     H25494   2.129   6.332   9.178 -0.2825  0.8040  0.1696
  951MOL0     H25495   1.987   6.239   9.362 -2.7438  1.7733  0.2940
  951MOL0     H25496   2.048   6.060   9.783 -0.5051 -1.0866  0.4707
  951MOL0     H25497   1.932   5.952   9.965 -1.1965 -0.4599  1.1639
  951MOL0     H25498   1.528   5.844   9.938 -1.1289 -0.8371  0.6987
  951MOL0     H25499   1.472   6.008  10.001 -3.3473 -1.5962  1.0680
  951MOL0     H25500   1.514   5.937  10.228  0.4289 -0.1575  1.0066
  951MOL0     H25501   1.551   5.779  10.170 -0.6939 -0.5595  0.5126
  951MOL0     H25502   1.343   5.731  10.087  0.5031  0.4794 -2.1797
  951MOL0     H25503   1.281   5.894  10.074 -0.4139  0.3585  0.3866
  951MOL0     H25504   1.358   5.767  10.334  2.1898  0.0255 -2.5869
  951MOL0     H25505   1.261   5.927  10.313 -1.3879 -0.0853 -0.2682
  951MOL0     H25506   1.192   5.635  10.271 -0.1580 -0.3305  0.6199
  951MOL0     H25507   1.104   5.763  10.188 -0.9725  0.0951  0.4202
  951MOL0     H25508   1.058   5.841  10.445  3.0788 -0.2809  3.1277
  951MOL0     H25509   1.156   5.694  10.479  0.6756 -1.8658 -1.7221
  951MOL0     H25510   0.884   5.702  10.341 -1.1226 -1.2686 -0.3618
  951MOL0     H25511   1.000   5.574  10.339  3.3062 -0.3903  0.3006
  951MOL0     H25512   0.801   5.592  10.533 -0.5477  0.0355 -1.6758
  951MOL0     H25513   0.902   5.684  10.623 -1.2097 -0.4648  0.8830
  951MOL0     H25514   1.551   6.104   9.818  0.7661 -0.5272  0.5572
  951MOL0     H25515   1.664   6.210   9.651  0.0657  1.0204 -0.2124
  951MOL0     H25516   2.043   6.600   9.586 -1.4393 -1.3706  0.6867
  951MOL0     H25517   2.184   6.685   9.376  3.0281 -1.1956 -3.7192
  951MOL0     H25518   3.622   6.395   8.319  2.3052  1.1127 -1.5314
  951MOL0     H25519   3.616   6.449   8.082 -0.2346 -0.3674  0.2295
  951MOL0     H25520   3.444   6.606   7.729 -0.7852  0.3820 -0.7477
  951MOL0     H25521   3.459   6.624   7.483  1.0958 -1.7270 -0.3764
  951MOL0     H25522   3.676   6.930   7.249  0.0067 -0.1509 -0.3768
  951MOL0     H25523   3.584   6.964   7.394  1.3587  0.3482  0.0535
  951MOL0     H25524   3.378   6.914   7.299 -0.6237 -2.8904 -0.5557
  951MOL0     H25525   3.469   6.997   7.159  2.9436 -0.9567 -0.9029
  951MOL0     H25526   3.492   6.704   7.166  0.2520  0.1164  0.3303
  951MOL0     H25527   3.497   6.807   7.039  0.0181 -1.7617  0.5062
  951MOL0     H25528   3.299   6.668   7.031  0.5943 -3.0566  4.4093
  951MOL0     H25529   3.219   6.765   7.159  2.2685 -0.1477  1.0329
  951MOL0     H25530   3.188   7.010   6.815 -1.6979  1.3073  1.9460
  951MOL0     H25531   3.824   6.845   7.516 -0.2245  2.0774  0.3739
  951MOL0     H25532   3.798   6.863   7.761 -0.8946  0.4972  2.4555
  952MOL0     O25533   9.247   7.357   1.422  0.2887 -0.0779  0.3983
  952MOL0     C25534   9.124   7.365   1.414  0.0550 -0.2277  0.0165
  952MOL0     O25535   9.033   7.365   1.520 -0.5478  0.3760 -0.0613
  952MOL0     C25536   9.085   7.345   1.643  0.0637  0.1893 -0.0922
  952MOL0     C25537   9.026   7.246   1.711  0.6292 -0.4045 -0.2903
  952MOL0     C25538   9.074   7.202   1.835 -0.7740  0.8472  0.0600
  952MOL0     C25539   9.177   7.269   1.906  0.3940  0.2501  0.5268
  952MOL0     O25540   9.213   7.220   2.027  0.0260 -0.8436 -0.4315
  952MOL0     C25541   9.276   7.093   2.018 -0.1828 -0.3648 -0.5405
  952MOL0     C25542   9.333   7.067   2.157 -0.4325  0.7534  1.0241
  952MOL0     C25543   9.419   6.937   2.154  0.6254 -0.6963 -1.4802
  952MOL0     C25544   9.442   6.897   2.302  0.1863 -0.8536 -0.0559
  952MOL0     C25545   9.518   6.767   2.322 -0.2844  0.4528  0.3044
  952MOL0     C25546   9.512   6.717   2.469  0.4236 -0.7588  0.6874
  952MOL0     C25547   9.551   6.570   2.477 -0.2104 -0.2912 -0.5110
  952MOL0     C25548   9.554   6.532   2.625 -0.1898 -0.0010 -0.1765
  952MOL0     N25549   9.593   6.392   2.635  0.4563 -0.1085  0.0724
  952MOL0     C25550   9.663   6.351   2.746 -0.1364  0.4596  0.1778
  952MOL0     C25551   9.711   6.228   2.707 -0.9417 -0.0455  0.1074
  952MOL0     C25552   9.803   6.141   2.780 -0.5143  0.1291 -0.1734
  952MOL0     C25553   9.804   6.192   2.924 -0.8346 -0.8993 -0.0495
  952MOL0     C25554   9.889   6.116   3.030 -0.2057 -0.6440 -0.6072
  952MOL0     C25555   9.917   6.209   3.148 -0.2174 -0.6301 -0.0989
  952MOL0     O25556  10.034   6.278   3.116  0.3025  0.4900 -1.2196
  952MOL0     C25557  10.158   6.242   3.175  0.7879 -0.0528  0.4976
  952MOL0     C25558  10.176   6.153   3.277  1.3159 -0.3006 -0.3050
  952MOL0     C25559  10.301   6.109   3.312  0.6154  0.4585  0.4697
  952MOL0     C25560  10.416   6.154   3.242  0.9353 -0.5664 -0.6710
  952MOL0     C25561  10.552   6.104   3.288  0.4199 -0.1524  0.1432
  952MOL0     O25562  10.662   6.173   3.250  0.2866 -0.0409  0.2363
  952MOL0     C25563  10.788   6.144   3.306  0.7316 -0.0893 -0.2633
  952MOL0     C25564  10.814   6.193   3.435  0.1404 -0.7864  1.0999
  952MOL0     C25565  10.936   6.172   3.496  0.6429  0.0333 -0.6300
  952MOL0     C25566  11.031   6.085   3.432 -0.8607  0.1581 -0.6083
  952MOL0     O25567  11.160   6.045   3.473 -0.1375 -0.2438  0.6612
  952MOL0     C25568  11.203   6.078   3.596 -0.4847 -0.2665  0.7270
  952MOL0     C25569  11.318   5.980   3.632  0.8776  0.8915 -0.4521
  952MOL0     C25570  11.287   5.821   3.657  1.0829 -1.4513 -0.6186
  952MOL0     C25571  11.422   5.762   3.712 -1.6294 -0.1522 -0.2672
  952MOL0     C25572  11.424   5.608   3.686 -0.4219  0.5140 -0.2739
  952MOL0     C25573  11.564   5.568   3.750  0.0189 -0.8618 -0.8681
  952MOL0     C25574  11.566   5.419   3.789  0.5412  0.5547 -1.3246
  952MOL0     C25575  11.596   5.333   3.670 -0.0245  0.7130 -0.2155
  952MOL0    Cl25576  11.775   5.358   3.634 -0.0559  0.2017 -0.3830
  952MOL0     C25577  11.012   6.057   3.295 -0.1402 -0.4498  0.4410
  952MOL0     C25578  10.892   6.087   3.235 -0.6585  0.6822  0.1301
  952MOL0     O25579  10.549   6.019   3.375  0.0656 -0.4898  0.7195
  952MOL0     C25580  10.397   6.244   3.144 -0.7922 -0.3794  0.7023
  952MOL0     C25581  10.270   6.296   3.112 -0.0270 -1.2997  0.5574
  952MOL0     N25582   9.660   6.192   2.589 -0.8542  0.1774  0.2057
  952MOL0     N25583   9.596   6.292   2.540  0.4173  0.4655 -0.3069
  952MOL0     C25584   9.234   7.376   1.839 -0.9736 -0.2660  0.1324
  952MOL0     C25585   9.196   7.406   1.709  0.3569  0.4423  0.6437
  952MOL0     C25586   9.065   7.414   1.289  0.7360 -0.1282  0.1515
  952MOL0     C25587   8.978   7.526   1.277 -0.6338  0.1305 -0.6336
  952MOL0     C25588   8.948   7.574   1.143  0.7400  0.6081  0.9988
  952MOL0     C25589   8.991   7.505   1.028 -0.0879  0.2819 -0.7217
  952MOL0     O25590   8.966   7.538   0.901 -0.3528 -0.7631 -0.5497
  952MOL0     C25591   8.946   7.675   0.862 -0.0349  0.4449 -0.6632
  952MOL0     C25592   9.077   7.755   0.869 -0.1116  0.0228  0.5176
  952MOL0     C25593   9.070   7.874   0.963 -0.4917  0.3404  0.1629
  952MOL0     C25594   9.213   7.916   0.994 -0.8059 -0.4856  0.1005
  952MOL0     C25595   9.276   7.821   1.093 -0.7334  0.3854 -0.4921
  952MOL0     C25596   9.324   7.730   1.163 -0.9223 -0.3373  0.1334
  952MOL0     C25597   9.065   7.386   1.050  0.5434 -0.5318  1.3791
  952MOL0     C25598   9.094   7.349   1.175 -0.2266  0.6699  0.5499
  952MOL0     H25599   8.959   7.180   1.657 -1.2274  1.1698 -0.0164
  952MOL0     H25600   9.030   7.107   1.862  1.3082 -1.2030 -3.1057
  952MOL0     H25601   9.356   7.097   1.944 -0.4288  1.0085 -0.7502
  952MOL0     H25602   9.208   7.011   1.994  3.1442 -3.2552 -1.0872
  952MOL0     H25603   9.249   7.059   2.226 -0.5548 -2.1714  0.6611
  952MOL0     H25604   9.398   7.149   2.191  0.6946  0.4443 -0.2819
  952MOL0     H25605   9.510   6.946   2.094  0.6554  0.9753 -1.2065
  952MOL0     H25606   9.363   6.849   2.119  1.0913 -2.7893  2.4734
  952MOL0     H25607   9.497   6.979   2.350 -0.8532  1.4752 -2.5485
  952MOL0     H25608   9.340   6.889   2.341 -0.5900  1.8074 -1.3041
  952MOL0     H25609   9.622   6.763   2.287 -0.4304 -1.6371 -0.0219
  952MOL0     H25610   9.479   6.693   2.252  1.2418  0.8680 -1.0566
  952MOL0     H25611   9.406   6.724   2.498  0.9109 -0.1199  2.4430
  952MOL0     H25612   9.575   6.786   2.526  0.0196  2.1532 -2.0639
  952MOL0     H25613   9.468   6.515   2.431  0.0235 -0.4044 -0.7943
  952MOL0     H25614   9.648   6.557   2.429 -0.3953 -1.0569 -0.6966
  952MOL0     H25615   9.452   6.532   2.665 -2.5002 -0.5424 -5.1966
  952MOL0     H25616   9.628   6.591   2.679  3.1917 -1.7834 -2.4987
  952MOL0     H25617   9.693   6.409   2.832 -0.0546 -0.4633  0.7788
  952MOL0     H25618   9.896   6.140   2.722 -0.0701 -2.7210  0.4309
  952MOL0     H25619   9.765   6.038   2.780 -0.8590  0.2550 -0.0276
  952MOL0     H25620   9.699   6.202   2.956 -0.7791  4.8938 -0.6307
  952MOL0     H25621   9.845   6.293   2.921 -1.0926 -0.7202  1.3955
  952MOL0     H25622   9.828   6.033   3.068  1.6035 -0.7919  2.2456
  952MOL0     H25623   9.977   6.074   2.979  0.8411  1.7215 -0.8700
  952MOL0     H25624   9.917   6.142   3.234 -2.4669 -0.5402  0.0490
  952MOL0     H25625   9.843   6.290   3.154  1.0524  0.4918  0.9991
  952MOL0     H25626  10.102   6.104   3.339  0.8971  0.1933 -0.4118
  952MOL0     H25627  10.299   6.033   3.390  0.4411  1.7443  1.7578
  952MOL0     H25628  10.729   6.230   3.493 -0.6217  0.0454 -0.4843
  952MOL0     H25629  10.960   6.199   3.598 -0.7257  1.8230 -0.7308
  952MOL0     H25630  11.131   6.083   3.678 -0.4215  0.9945  0.7203
  952MOL0     H25631  11.228   6.184   3.597 -2.0403  0.1335  0.2243
  952MOL0     H25632  11.362   6.010   3.727  0.3918 -0.3428  0.1924
  952MOL0     H25633  11.394   6.003   3.557  1.2906  0.3190 -0.2120
  952MOL0     H25634  11.258   5.779   3.561  1.9370  2.3581 -2.7739
  952MOL0     H25635  11.215   5.812   3.739  1.9033  1.0887  0.5114
  952MOL0     H25636  11.508   5.802   3.657 -1.2401 -0.9365 -0.2483
  952MOL0     H25637  11.439   5.793   3.816  0.7492  0.0096 -0.6300
  952MOL0     H25638  11.419   5.586   3.579  0.2747 -4.6394  0.4923
  952MOL0     H25639  11.343   5.561   3.743  2.2383 -1.3384  2.2603
  952MOL0     H25640  11.592   5.622   3.841  1.8707 -2.4013 -0.4356
  952MOL0     H25641  11.647   5.589   3.682  1.5380 -0.0579  1.1332
  952MOL0     H25642  11.627   5.397   3.877 -0.4503  3.0380  0.0862
  952MOL0     H25643  11.464   5.393   3.817  0.8616  1.0546  0.4220
  952MOL0     H25644  11.530   5.365   3.588 -2.0390  0.1723  1.1277
  952MOL0     H25645  11.578   5.230   3.699 -1.4249  1.0277  0.0888
  952MOL0     H25646  11.091   6.012   3.237 -2.0229 -0.5591 -2.2553
  952MOL0     H25647  10.886   6.071   3.127  0.4949 -0.2219  0.1778
  952MOL0     H25648  10.491   6.275   3.099  0.0901 -1.5788  1.6570
  952MOL0     H25649  10.256   6.360   3.025 -0.5991 -0.5152  1.2117
  952MOL0     H25650   9.318   7.430   1.882 -3.3093  2.8669  1.1604
  952MOL0     H25651   9.243   7.494   1.668 -0.2151  0.2632 -0.4226
  952MOL0     H25652   8.938   7.586   1.359 -1.3593 -1.1431 -0.0154
  952MOL0     H25653   8.870   7.649   1.133 -1.5708 -1.5023  2.1679
  952MOL0     H25654   8.870   7.728   0.921  2.1939  3.3830 -0.1942
  952MOL0     H25655   8.906   7.669   0.760 -1.8532  0.6462 -0.0065
  952MOL0     H25656   9.155   7.687   0.903 -0.8599 -1.5105 -0.6988
  952MOL0     H25657   9.102   7.794   0.770  1.6732 -2.7583 -0.2285
  952MOL0     H25658   9.010   7.852   1.052 -3.0747 -2.5874 -2.0846
  952MOL0     H25659   9.013   7.949   0.907 -0.0553 -2.3115 -4.3090
  952MOL0     H25660   9.274   7.912   0.903 -1.5472 -0.4457 -0.4096
  952MOL0     H25661   9.216   8.022   1.022 -2.3688  0.3836 -2.6341
  952MOL0     H25662   9.349   7.640   1.215  1.1161 -1.3088 -2.3442
  952MOL0     H25663   9.095   7.327   0.964  3.3905  0.0679  1.8261
  952MOL0     H25664   9.130   7.246   1.173 -1.3262  0.2474  1.3763
  953MOL0     O25665   8.349   0.822   7.128 -0.2937  0.0613  0.7926
  953MOL0     C25666   8.416   0.808   7.027  0.0724  1.0060  1.4759
  953MOL0     O25667   8.386   0.855   6.905  0.4198  0.3291 -0.9192
  953MOL0     C25668   8.271   0.934   6.886  0.8006  1.6899  0.8254
  953MOL0     C25669   8.210   1.019   6.979  0.2420  0.0900 -0.5449
  953MOL0     C25670   8.085   1.083   6.950 -0.7643 -0.9006  0.3143
  953MOL0     C25671   8.016   1.053   6.836 -0.9446 -0.1855 -0.1981
  953MOL0     O25672   7.887   1.090   6.814  0.1431 -0.3834 -0.0583
  953MOL0     C25673   7.840   1.227   6.784  0.0475 -0.1833  0.0508
  953MOL0     C25674   7.708   1.253   6.857  0.3533  0.8741 -1.2407
  953MOL0     C25675   7.679   1.398   6.865  0.0485  1.2399  0.5421
  953MOL0     C25676   7.540   1.417   6.944  0.5126  0.0036  0.1087
  953MOL0     C25677   7.528   1.560   7.011  0.2359 -0.2839  0.1398
  953MOL0     C25678   7.490   1.671   6.906 -0.4068 -1.0228 -0.1996
  953MOL0     C25679   7.486   1.801   6.985 -0.2931 -0.5543 -0.3847
  953MOL0     C25680   7.378   1.891   6.923 -0.2385 -0.6521  0.9432
  953MOL0     N25681   7.402   2.013   6.995 -0.6455  0.0233  0.6468
  953MOL0     C25682   7.491   2.121   6.963  0.7129 -0.5956 -0.8189
  953MOL0     C25683   7.478   2.203   7.069  0.5850 -0.7076 -0.2038
  953MOL0     C25684   7.554   2.330   7.102  0.0376  0.5409  0.0280
  953MOL0     C25685   7.706   2.300   7.127 -0.3217  0.1221 -0.7257
  953MOL0     C25686   7.773   2.414   7.194  0.1719  0.3655  1.3785
  953MOL0     C25687   7.835   2.516   7.102  0.1688  0.6806  0.3353
  953MOL0     O25688   7.972   2.466   7.073  1.1069  0.8878 -0.5247
  953MOL0     C25689   8.058   2.554   7.012  0.3310  0.3009  0.3571
  953MOL0     C25690   8.192   2.558   7.053 -0.3715  0.4671 -0.2655
  953MOL0     C25691   8.292   2.641   7.000 -0.4255 -0.4355 -0.6813
  953MOL0     C25692   8.257   2.716   6.886  0.8207 -0.1619 -0.4276
  953MOL0     C25693   8.353   2.804   6.822 -0.0399  0.2820  0.2480
  953MOL0     O25694   8.484   2.794   6.860 -0.6223 -0.3302  0.5206
  953MOL0     C25695   8.571   2.876   6.799 -0.1099 -0.3566  0.3308
  953MOL0     C25696   8.650   2.833   6.695  0.2005 -0.7727  0.3406
  953MOL0     C25697   8.732   2.919   6.627 -0.5443  0.0076  1.2463
  953MOL0     C25698   8.740   3.052   6.672  0.8617  0.5314  0.1908
  953MOL0     O25699   8.825   3.134   6.605 -0.1646  0.3582 -0.3218
  953MOL0     C25700   8.857   3.271   6.650 -0.3418  0.3049 -0.7373
  953MOL0     C25701   8.977   3.322   6.576  0.1920  0.4578  0.4700
  953MOL0     C25702   8.922   3.343   6.436 -0.7671 -0.0478  0.6501
  953MOL0     C25703   9.018   3.415   6.353 -0.5105  0.5245  0.1698
  953MOL0     C25704   9.116   3.316   6.275 -0.0030  0.0978 -0.4658
  953MOL0     C25705   9.032   3.272   6.152 -0.1851  1.1521 -0.0918
  953MOL0     C25706   9.118   3.189   6.057  0.1995 -0.5261 -0.6727
  953MOL0     C25707   9.050   3.139   5.931  0.0175 -0.0301  1.4146
  953MOL0    Cl25708   9.159   3.036   5.823 -0.7091 -0.0146 -0.0030
  953MOL0     C25709   8.660   3.108   6.775 -0.0786 -0.4426 -0.1639
  953MOL0     C25710   8.586   3.008   6.844 -0.4238 -0.4315 -0.1342
  953MOL0     O25711   8.315   2.889   6.745  0.0381 -0.0813 -0.3269
  953MOL0     C25712   8.129   2.705   6.846 -0.1450 -0.2481 -0.1529
  953MOL0     C25713   8.032   2.631   6.897 -0.4393  0.0325  0.1172
  953MOL0     N25714   7.380   2.149   7.162 -0.0052 -0.1445  0.3548
  953MOL0     N25715   7.333   2.038   7.102  1.4499  0.6798 -0.4043
  953MOL0     C25716   8.069   0.974   6.748  0.2689  0.2881 -0.9469
  953MOL0     C25717   8.191   0.908   6.767  0.1617 -0.1285 -0.3775
  953MOL0     C25718   8.534   0.718   7.039 -0.7323  0.2349 -0.5547
  953MOL0     C25719   8.621   0.699   6.931  0.3132 -0.1878  0.7432
  953MOL0     C25720   8.745   0.624   6.947  0.5023  0.4004  0.3183
  953MOL0     C25721   8.777   0.558   7.073  0.2335  0.2549  1.1159
  953MOL0     O25722   8.883   0.475   7.102 -0.2194 -0.7987  0.4367
  953MOL0     C25723   8.997   0.492   7.014 -0.7476  0.0900 -0.1024
  953MOL0     C25724   8.989   0.369   6.907  0.2097  0.6352  0.1773
  953MOL0     C25725   9.088   0.361   6.800  0.6189  0.9934  0.6605
  953MOL0     C25726   9.100   0.214   6.763  0.1159 -1.0311 -1.2748
  953MOL0     C25727   9.197   0.212   6.656  0.2210  1.0043  1.0865
  953MOL0     C25728   9.270   0.222   6.555  1.1570  0.0650 -0.1637
  953MOL0     C25729   8.685   0.573   7.180  0.0996  0.1699  0.4297
  953MOL0     C25730   8.565   0.653   7.157 -0.4209 -0.2239  0.0201
  953MOL0     H25731   8.253   1.028   7.078 -1.1466 -2.2884  0.3452
  953MOL0     H25732   8.029   1.136   7.026 -2.0781  0.9299 -1.7973
  953MOL0     H25733   7.817   1.262   6.683 -2.5369  1.6186  1.1632
  953MOL0     H25734   7.909   1.299   6.829  1.8707 -1.7597 -0.0822
  953MOL0     H25735   7.697   1.210   6.957  0.9346  2.4616 -0.4671
  953MOL0     H25736   7.637   1.196   6.796  0.8951 -0.1413 -0.9448
  953MOL0     H25737   7.671   1.447   6.767 -0.0052 -0.0193 -0.1070
  953MOL0     H25738   7.761   1.452   6.914  0.8886 -0.4468  1.0733
  953MOL0     H25739   7.447   1.411   6.887  0.7309 -0.4183 -0.2083
  953MOL0     H25740   7.533   1.353   7.033  0.6664  1.2467  1.0520
  953MOL0     H25741   7.617   1.578   7.072 -0.5879 -0.9071  1.5797
  953MOL0     H25742   7.454   1.547   7.089  0.3502  1.1387  0.5075
  953MOL0     H25743   7.401   1.642   6.850  0.0849  1.3039 -2.3572
  953MOL0     H25744   7.578   1.681   6.843  1.0151  0.2087  1.8475
  953MOL0     H25745   7.455   1.786   7.089 -0.3904  0.9309 -0.1770
  953MOL0     H25746   7.583   1.851   6.978 -1.4953  1.8820 -0.8058
  953MOL0     H25747   7.281   1.849   6.949 -0.0612 -2.6869 -1.3037
  953MOL0     H25748   7.391   1.901   6.814  0.5522 -1.5766  0.9378
  953MOL0     H25749   7.550   2.141   6.874  0.2839 -0.6760 -1.1292
  953MOL0     H25750   7.516   2.381   7.191 -0.3677 -0.1909  0.2798
  953MOL0     H25751   7.542   2.402   7.021  0.6204  1.0793  0.4105
  953MOL0     H25752   7.749   2.266   7.032 -2.5596 -0.1719 -1.7173
  953MOL0     H25753   7.737   2.222   7.197  5.1591  3.0905  0.6753
  953MOL0     H25754   7.698   2.468   7.252 -1.6490  0.4193 -0.8573
  953MOL0     H25755   7.844   2.379   7.269  0.0503  0.1080  1.3760
  953MOL0     H25756   7.851   2.617   7.140  2.3904  1.0406 -1.3489
  953MOL0     H25757   7.770   2.522   7.014  0.4853  0.4292  0.0811
  953MOL0     H25758   8.218   2.487   7.131 -4.1406 -1.3966 -0.4877
  953MOL0     H25759   8.398   2.630   7.022 -0.2034  0.4171 -1.2644
  953MOL0     H25760   8.659   2.735   6.648 -0.9224  0.7143 -3.3792
  953MOL0     H25761   8.793   2.895   6.541  1.0246  1.6945  1.8122
  953MOL0     H25762   8.874   3.268   6.757  0.2710 -0.9274 -0.8587
  953MOL0     H25763   8.764   3.329   6.642 -0.0349  0.6619 -2.0588
  953MOL0     H25764   9.055   3.246   6.588  0.5577  0.7593  0.0263
  953MOL0     H25765   9.017   3.414   6.620 -0.1368  2.9350 -3.8978
  953MOL0     H25766   8.831   3.402   6.455 -2.0441 -2.5916  3.1821
  953MOL0     H25767   8.896   3.251   6.383  3.4629 -0.4782 -1.0187
  953MOL0     H25768   8.967   3.484   6.286  1.6809  0.7609 -1.3749
  953MOL0     H25769   9.076   3.477   6.422  0.6953 -0.7914  0.3724
  953MOL0     H25770   9.156   3.237   6.339 -2.6440 -0.0391  1.1608
  953MOL0     H25771   9.201   3.371   6.232  0.7848 -1.1520 -0.5572
  953MOL0     H25772   8.983   3.353   6.096 -2.3439 -1.5111 -2.3873
  953MOL0     H25773   8.948   3.213   6.189  0.3215  0.7213  0.3798
  953MOL0     H25774   9.202   3.257   6.037  1.8675 -1.5919  2.1270
  953MOL0     H25775   9.157   3.102   6.110 -1.7163 -0.0816  1.6479
  953MOL0     H25776   9.019   3.219   5.863 -1.2713 -2.2187 -0.7642
  953MOL0     H25777   8.967   3.071   5.950  0.2471 -1.7032 -2.5754
  953MOL0     H25778   8.648   3.211   6.806 -2.1848 -0.6764 -0.0320
  953MOL0     H25779   8.515   3.029   6.923 -0.8047  0.2752 -0.6531
  953MOL0     H25780   8.104   2.765   6.758  1.5835  2.2296  0.9464
  953MOL0     H25781   7.932   2.628   6.855 -1.1588 -3.9589  1.6379
  953MOL0     H25782   8.006   0.926   6.674  0.3555 -0.8115 -0.3204
  953MOL0     H25783   8.229   0.837   6.695  0.0075 -0.9645  0.3465
  953MOL0     H25784   8.611   0.743   6.832  0.3523  0.0881  0.8623
  953MOL0     H25785   8.802   0.605   6.856 -3.9301 -6.7027 -1.8175
  953MOL0     H25786   9.083   0.484   7.081  0.8249 -0.7206 -2.1439
  953MOL0     H25787   9.002   0.587   6.961  1.5403  1.4618  2.3205
  953MOL0     H25788   8.973   0.278   6.966 -3.4940  2.1103  1.7902
  953MOL0     H25789   8.895   0.385   6.853  0.2197 -0.6388 -0.2474
  953MOL0     H25790   9.191   0.376   6.833  1.5247  0.1879 -1.5948
  953MOL0     H25791   9.073   0.419   6.709 -1.6969  0.7962  0.8530
  953MOL0     H25792   9.142   0.157   6.847  2.7046  2.2993 -0.0805
  953MOL0     H25793   9.003   0.171   6.736 -1.3091 -1.7074  3.8261
  953MOL0     H25794   9.319   0.243   6.463  2.6200 -2.6185 -0.0883
  953MOL0     H25795   8.700   0.511   7.267 -1.1398  1.0453  1.3183
  953MOL0     H25796   8.491   0.678   7.232 -1.0777 -0.0696 -0.6675
  954MOL0     O25797  11.239   5.194   0.558 -0.1699 -0.0350 -0.2433
  954MOL0     C25798  11.219   5.087   0.620  0.1364 -0.8770 -0.0295
  954MOL0     O25799  11.213   5.078   0.751  0.2017  0.2350 -0.1902
  954MOL0     C25800  11.276   5.171   0.828  0.2805  0.7006 -0.4480
  954MOL0     C25801  11.207   5.287   0.864  0.0215  0.5872 -0.3455
  954MOL0     C25802  11.265   5.396   0.928 -1.1064  0.5667 -0.3785
  954MOL0     C25803  11.400   5.388   0.966 -0.5965  0.3214  0.6460
  954MOL0     O25804  11.445   5.498   1.042  0.0111 -0.1196  0.7076
  954MOL0     C25805  11.536   5.457   1.144  0.4009 -1.0020  0.1699
  954MOL0     C25806  11.594   5.582   1.195  0.5767  0.8479 -1.4921
  954MOL0     C25807  11.722   5.621   1.107  0.7088 -0.3262 -0.0833
  954MOL0     C25808  11.817   5.704   1.195  0.7610  0.9892 -0.1219
  954MOL0     C25809  11.925   5.621   1.263 -0.7084 -0.2941  0.2647
  954MOL0     C25810  12.048   5.574   1.174 -0.8950  0.1450 -0.2763
  954MOL0     C25811  12.140   5.470   1.247 -0.4585  0.3975 -1.0895
  954MOL0     C25812  12.078   5.340   1.312  1.6000  0.3331  0.1629
  954MOL0     N25813  12.014   5.256   1.202 -0.2133 -0.2739  0.2417
  954MOL0     C25814  12.055   5.212   1.073 -0.0237 -0.6432 -0.3069
  954MOL0     C25815  11.937   5.178   1.016  0.2048 -0.7417  0.0365
  954MOL0     C25816  11.925   5.117   0.878 -0.9404  0.7383  0.0670
  954MOL0     C25817  11.877   4.968   0.886  0.5506  0.8251  0.3406
  954MOL0     C25818  11.894   4.911   0.746 -0.2142 -0.6142 -0.1386
  954MOL0     C25819  11.783   4.943   0.640 -0.1374  0.4069 -0.1472
  954MOL0     O25820  11.652   4.901   0.688 -0.8887  0.1568 -0.3879
  954MOL0     C25821  11.610   4.773   0.673 -0.1748 -0.3246  0.0369
  954MOL0     C25822  11.484   4.756   0.715  0.4188  0.4548 -1.0840
  954MOL0     C25823  11.414   4.638   0.707  0.1148 -0.0858 -0.3528
  954MOL0     C25824  11.471   4.520   0.657  0.4318  0.3031 -1.2527
  954MOL0     C25825  11.399   4.390   0.674  0.0368  0.5182 -0.2241
  954MOL0     O25826  11.471   4.271   0.677  0.3190  0.0879  0.7798
  954MOL0     C25827  11.381   4.163   0.658  0.5472 -0.0769 -0.0970
  954MOL0     C25828  11.301   4.137   0.538 -1.2016  0.0872  0.5256
  954MOL0     C25829  11.230   4.020   0.520 -0.0058  0.1356 -0.5788
  954MOL0     C25830  11.225   3.924   0.627 -0.5086  1.2078  0.1741
  954MOL0     O25831  11.156   3.816   0.599 -0.1113  0.2548  0.0144
  954MOL0     C25832  11.238   3.709   0.541  0.3984 -0.0551  0.3687
  954MOL0     C25833  11.164   3.572   0.558  0.1029  0.5642  0.2972
  954MOL0     C25834  11.191   3.484   0.434  0.3813  1.6694 -1.0892
  954MOL0     C25835  11.154   3.333   0.469  1.0081 -0.2873 -0.6477
  954MOL0     C25836  10.997   3.312   0.473  0.3082  1.0855 -0.2255
  954MOL0     C25837  10.963   3.168   0.508 -1.2582  0.7543  0.6543
  954MOL0     C25838  10.973   3.086   0.379  0.1568 -0.2241 -0.5244
  954MOL0     C25839  10.991   2.937   0.419  0.5450 -0.2895  1.7939
  954MOL0    Cl25840  10.998   2.847   0.260  0.6229 -0.2302 -0.1976
  954MOL0     C25841  11.296   3.945   0.744  0.7780 -0.1731  0.0448
  954MOL0     C25842  11.375   4.059   0.755  1.0815  0.3188  0.7687
  954MOL0     O25843  11.272   4.400   0.687 -0.5011 -0.6814 -0.1219
  954MOL0     C25844  11.598   4.529   0.604 -0.7505 -0.1827 -0.4636
  954MOL0     C25845  11.671   4.654   0.614  0.1595 -0.3400  1.1241
  954MOL0     N25846  11.834   5.209   1.102 -0.4093  0.4506  1.3187
  954MOL0     N25847  11.880   5.243   1.215 -0.9134 -0.9556  0.1657
  954MOL0     C25848  11.475   5.268   0.928 -0.2290 -0.6606  0.1514
  954MOL0     C25849  11.407   5.159   0.859  0.0826 -0.3633 -0.1062
  954MOL0     C25850  11.171   4.970   0.539  0.5402 -0.2814 -0.8797
  954MOL0     C25851  11.136   4.852   0.606  0.1339 -0.0618 -0.0189
  954MOL0     C25852  11.091   4.729   0.545 -0.4161 -0.0260 -0.1008
  954MOL0     C25853  11.077   4.734   0.403  0.6314  0.1047  0.6386
  954MOL0     O25854  11.040   4.621   0.326  0.0160  0.2034 -0.3614
  954MOL0     C25855  10.989   4.507   0.400  0.9245 -0.3365 -0.9378
  954MOL0     C25856  10.971   4.407   0.285  0.7922 -0.5830 -0.4617
  954MOL0     C25857  10.850   4.318   0.311 -0.0120 -0.0076  0.5104
  954MOL0     C25858  10.743   4.325   0.192 -0.3527  0.3239 -0.3528
  954MOL0     C25859  10.683   4.456   0.164  0.5817  0.5410 -0.0762
  954MOL0     C25860  10.626   4.564   0.134  0.1992  0.1441 -0.2500
  954MOL0     C25861  11.107   4.857   0.333  0.6526  0.5437  0.5993
  954MOL0     C25862  11.151   4.969   0.396  0.0588 -0.1438  0.0374
  954MOL0     H25863  11.107   5.301   0.827  0.0006 -1.4083 -1.1889
  954MOL0     H25864  11.217   5.493   0.940  0.4486  1.3983 -0.6422
  954MOL0     H25865  11.616   5.398   1.099  1.8165 -0.9225  2.3913
  954MOL0     H25866  11.489   5.404   1.227  1.0084 -0.9313  0.5620
  954MOL0     H25867  11.633   5.565   1.296  0.8985 -0.7561 -1.8620
  954MOL0     H25868  11.519   5.662   1.200  1.0550  1.2341  0.2812
  954MOL0     H25869  11.677   5.682   1.028 -0.5036 -1.8121 -0.6017
  954MOL0     H25870  11.778   5.531   1.079  0.9115 -0.5036  0.8621
  954MOL0     H25871  11.863   5.778   1.128 -1.3614  0.6824 -2.0526
  954MOL0     H25872  11.754   5.747   1.273 -0.8108 -0.3096 -0.6251
  954MOL0     H25873  11.869   5.533   1.298 -1.0079 -0.1462  0.1611
  954MOL0     H25874  11.966   5.684   1.342 -0.2799  0.3945 -0.4979
  954MOL0     H25875  12.109   5.663   1.154  0.2976 -0.6355 -0.2172
  954MOL0     H25876  12.026   5.534   1.074 -0.8978  0.2840 -0.3324
  954MOL0     H25877  12.218   5.442   1.175 -1.9447 -3.1669 -1.5025
  954MOL0     H25878  12.172   5.525   1.336 -1.2277 -0.4449 -0.2821
  954MOL0     H25879  11.992   5.364   1.375  0.1322 -2.3464 -0.6748
  954MOL0     H25880  12.157   5.293   1.371  0.4193  0.9682  2.3740
  954MOL0     H25881  12.155   5.214   1.030  0.6486 -0.4612  1.1985
  954MOL0     H25882  12.018   5.130   0.822 -1.3653 -0.9815 -1.1437
  954MOL0     H25883  11.845   5.163   0.820 -0.3817  2.3407  0.5104
  954MOL0     H25884  11.778   4.968   0.932  1.3237  0.1935  2.0961
  954MOL0     H25885  11.936   4.910   0.957 -1.3342 -0.5991  0.8198
  954MOL0     H25886  11.992   4.945   0.712  0.4001 -0.7554  1.3955
  954MOL0     H25887  11.898   4.803   0.763 -4.4231 -1.1862 -1.5544
  954MOL0     H25888  11.799   4.887   0.547  2.2346 -2.6965  1.9275
  954MOL0     H25889  11.779   5.052   0.628  0.9726  0.5831  0.9719
  954MOL0     H25890  11.422   4.837   0.755 -2.8202 -1.3316 -2.1130
  954MOL0     H25891  11.312   4.652   0.742 -0.0852 -1.6465 -0.2585
  954MOL0     H25892  11.322   4.206   0.457  0.5422 -3.3068 -2.1790
  954MOL0     H25893  11.174   3.989   0.432 -0.6841  0.9590 -0.4458
  954MOL0     H25894  11.340   3.705   0.580  0.7272  0.0732 -0.4759
  954MOL0     H25895  11.232   3.735   0.435 -0.7738  0.8761  0.6364
  954MOL0     H25896  11.056   3.583   0.574 -0.3060 -1.1458 -0.9716
  954MOL0     H25897  11.212   3.527   0.646  0.1880  3.3459  1.7840
  954MOL0     H25898  11.294   3.488   0.398  0.0589 -1.4169 -2.7533
  954MOL0     H25899  11.139   3.503   0.340 -0.2902  0.1264 -1.0658
  954MOL0     H25900  11.198   3.273   0.390  1.1735 -0.7310 -0.2212
  954MOL0     H25901  11.203   3.308   0.564 -0.9149  2.1497  1.1447
  954MOL0     H25902  10.949   3.344   0.380 -0.6952  0.1438 -0.0526
  954MOL0     H25903  10.963   3.376   0.555 -1.7586 -1.3526  0.9697
  954MOL0     H25904  10.863   3.152   0.549 -1.7200 -0.9488 -1.0270
  954MOL0     H25905  11.042   3.133   0.575  0.4510 -2.0463 -2.5215
  954MOL0     H25906  10.887   3.113   0.317  0.5772  0.4060 -0.8463
  954MOL0     H25907  11.061   3.111   0.319  2.9906 -1.3301  2.8265
  954MOL0     H25908  10.909   2.900   0.481 -1.2323 -1.8161 -1.2333
  954MOL0     H25909  11.087   2.922   0.469  1.7869  1.2336  0.0008
  954MOL0     H25910  11.284   3.866   0.818  1.2245  4.5108  5.8905
  954MOL0     H25911  11.425   4.075   0.850 -3.3908  2.4728  3.1146
  954MOL0     H25912  11.645   4.440   0.563 -0.1291  0.5059 -1.2896
  954MOL0     H25913  11.770   4.675   0.574 -0.7362  1.4869 -0.2560
  954MOL0     H25914  11.576   5.251   0.963 -0.0544  1.2371  0.6797
  954MOL0     H25915  11.447   5.064   0.824  0.0798 -0.6832  0.7362
  954MOL0     H25916  11.145   4.850   0.714  0.4439 -0.1348 -0.0475
  954MOL0     H25917  11.073   4.648   0.614 -1.2555  1.1219  1.0746
  954MOL0     H25918  10.885   4.525   0.428 -0.4522 -3.0997 -3.7597
  954MOL0     H25919  11.049   4.476   0.487 -0.9377 -1.1005  0.1308
  954MOL0     H25920  10.972   4.455   0.187  1.5096 -0.2960 -0.3232
  954MOL0     H25921  11.059   4.342   0.284 -0.4216 -2.2959 -2.4570
  954MOL0     H25922  10.800   4.339   0.406 -1.7659  0.0377 -0.3804
  954MOL0     H25923  10.890   4.216   0.316 -0.7568 -0.5755 -2.7175
  954MOL0     H25924  10.777   4.269   0.104  0.2653  2.6537 -1.7009
  954MOL0     H25925  10.660   4.262   0.224 -1.6610  0.0700 -3.7499
  954MOL0     H25926  10.573   4.657   0.130  0.2993  0.1837 -0.6318
  954MOL0     H25927  11.104   4.859   0.225  0.2485 -0.7999  0.5715
  954MOL0     H25928  11.172   5.056   0.335 -0.6624 -1.7664 -2.7195
  955MOL0     O25929   0.308   4.993   8.921  0.8124  0.0373 -0.2280
  955MOL0     C25930   0.368   4.910   8.858 -0.0120  0.5425  0.3298
  955MOL0     O25931   0.352   4.769   8.859  0.2751  0.4629  0.2364
  955MOL0     C25932   0.262   4.707   8.942  0.3953 -0.7663 -0.3517
  955MOL0     C25933   0.141   4.650   8.901 -0.0201 -0.1889 -0.8880
  955MOL0     C25934   0.052   4.601   8.998  0.5978  0.4202 -0.6780
  955MOL0     C25935   0.085   4.604   9.135 -0.1445 -0.8009 -0.1484
  955MOL0     O25936   0.013   4.557   9.241 -0.4710  0.1527 -0.3387
  955MOL0     C25937  -0.090   4.640   9.295  0.5693  0.2315 -0.0203
  955MOL0     C25938  -0.183   4.577   9.404  0.1144  0.2953 -0.1541
  955MOL0     C25939  -0.118   4.465   9.494 -0.4334 -0.3977  0.1399
  955MOL0     C25940  -0.205   4.440   9.622 -0.0967 -0.1139 -1.1053
  955MOL0     C25941  -0.120   4.339   9.711  0.0132  0.2934  0.8567
  955MOL0     C25942  -0.112   4.195   9.665  0.8379 -0.0148  0.2480
  955MOL0     C25943   0.006   4.121   9.712  0.2403 -0.5061  0.9407
  955MOL0     C25944   0.125   4.149   9.625  0.4575 -0.0855 -0.0484
  955MOL0     N25945   0.263   4.080   9.633 -0.7685 -0.3915 -0.7808
  955MOL0     C25946   0.282   3.955   9.675  0.1056  1.2734 -0.3789
  955MOL0     C25947   0.417   3.939   9.689 -0.7820  0.5513  0.3219
  955MOL0     C25948   0.487   3.812   9.732  0.3938 -1.2547  0.2600
  955MOL0     C25949   0.478   3.791   9.887  0.5436 -1.0415 -0.6382
  955MOL0     C25950   0.570   3.889   9.967  0.4673  0.2539 -0.0667
  955MOL0     C25951   0.509   3.918  10.111  0.0260 -0.4986 -0.5718
  955MOL0     O25952   0.554   3.798  10.184 -0.1823 -0.1190  0.4501
  955MOL0     C25953   0.519   3.787  10.315  0.4636  0.9866 -0.3768
  955MOL0     C25954   0.441   3.871  10.392 -0.8131 -0.4037  0.1275
  955MOL0     C25955   0.421   3.851  10.527  0.3482  0.3702  0.5166
  955MOL0     C25956   0.477   3.732  10.590  0.0318  0.2921 -0.4313
  955MOL0     C25957   0.458   3.704  10.736  0.0985  0.3405  0.4228
  955MOL0     O25958   0.388   3.808  10.811 -0.1757  0.3082  0.0380
  955MOL0     C25959   0.402   3.810  10.947 -0.8868  0.2958  0.2347
  955MOL0     C25960   0.471   3.922  10.995 -0.4121  0.2154  0.6289
  955MOL0     C25961   0.496   3.930  11.138 -0.4124  0.1832  0.1418
  955MOL0     C25962   0.445   3.840  11.228  0.1439  0.7295  0.8871
  955MOL0     O25963   0.450   3.850  11.367 -0.6609 -0.5259 -0.2363
  955MOL0     C25964   0.464   3.985  11.410 -0.0355 -0.6507 -0.2822
  955MOL0     C25965   0.464   3.981  11.563  0.2661 -0.1875 -0.4430
  955MOL0     C25966   0.565   3.902  11.633  0.2162  0.2953  0.5812
  955MOL0     C25967   0.706   3.914  11.574  0.8609 -0.3727  0.4964
  955MOL0     C25968   0.815   3.854  11.668  0.6699 -0.2910  0.2283
  955MOL0     C25969   0.791   3.703  11.681  0.4362  0.1600  0.5089
  955MOL0     C25970   0.909   3.630  11.744  0.4287 -0.0819 -0.9623
  955MOL0     C25971   0.880   3.477  11.766 -0.4232 -0.6809 -0.0878
  955MOL0    Cl25972   1.021   3.358  11.752  0.4672 -0.0038  0.5758
  955MOL0     C25973   0.379   3.723  11.173  0.7389 -0.3658 -0.7501
  955MOL0     C25974   0.354   3.717  11.029 -1.2328  0.4434 -0.1319
  955MOL0     O25975   0.517   3.607  10.785  0.0531  0.3758 -0.4097
  955MOL0     C25976   0.547   3.647  10.514  0.2386 -0.2609 -0.4539
  955MOL0     C25977   0.565   3.670  10.379  0.2083 -0.5418 -0.1325
  955MOL0     N25978   0.473   4.055   9.646  0.3971 -0.1391  0.3191
  955MOL0     N25979   0.384   4.142   9.611 -0.0650  0.6719 -0.2140
  955MOL0     C25980   0.209   4.658   9.171  0.5798 -0.0892  0.2294
  955MOL0     C25981   0.295   4.703   9.074  0.3749  0.3428 -0.9136
  955MOL0     C25982   0.455   4.961   8.762  0.2949 -0.2038  0.6628
  955MOL0     C25983   0.480   5.098   8.756 -0.5201  0.3692  0.8998
  955MOL0     C25984   0.560   5.159   8.665  0.5244  0.0050 -0.2016
  955MOL0     C25985   0.641   5.077   8.587 -0.3685  0.3794  0.0920
  955MOL0     O25986   0.714   5.156   8.510 -0.3344 -0.4738 -0.0607
  955MOL0     C25987   0.787   5.108   8.402 -0.3600  0.6218 -0.1051
  955MOL0     C25988   0.933   5.060   8.454  0.8466  0.4358  0.6806
  955MOL0     C25989   1.054   5.041   8.353  1.1492  0.2443 -0.3930
  955MOL0     C25990   1.016   4.937   8.241 -0.8133  0.0480 -0.9647
  955MOL0     C25991   0.915   4.984   8.147  0.0855 -0.3683 -0.0617
  955MOL0     C25992   0.816   4.999   8.076  0.3226 -0.4888  0.8142
  955MOL0     C25993   0.618   4.939   8.577 -0.0209 -0.0650 -0.0900
  955MOL0     C25994   0.527   4.885   8.663  0.6566 -0.4295 -0.0242
  955MOL0     H25995   0.119   4.665   8.796 -0.9295 -1.8110 -0.9581
  955MOL0     H25996  -0.044   4.556   8.972 -0.0099  0.4148  1.4252
  955MOL0     H25997  -0.159   4.690   9.227  1.3208  2.7738  0.9495
  955MOL0     H25998  -0.048   4.728   9.345  0.9225  0.2349 -0.3174
  955MOL0     H25999  -0.270   4.538   9.351 -0.9306  0.4044  1.4119
  955MOL0     H26000  -0.224   4.655   9.469 -0.9432  0.0969 -0.5750
  955MOL0     H26001  -0.017   4.492   9.525 -1.3799 -1.0870  4.5400
  955MOL0     H26002  -0.122   4.369   9.442 -0.7442  0.3522 -1.2743
  955MOL0     H26003  -0.220   4.529   9.684 -1.2945 -1.3218  0.4125
  955MOL0     H26004  -0.298   4.393   9.586 -0.7619 -1.6691  2.2763
  955MOL0     H26005  -0.168   4.344   9.809  0.6027 -1.8339  1.2829
  955MOL0     H26006  -0.020   4.383   9.719  0.9479 -1.7460  1.0068
  955MOL0     H26007  -0.124   4.184   9.557  0.4781 -2.4744  0.4697
  955MOL0     H26008  -0.194   4.133   9.704  1.6900  0.1708  2.4822
  955MOL0     H26009   0.040   4.159   9.809  0.5487  1.4061  0.1226
  955MOL0     H26010  -0.025   4.017   9.725 -1.9792 -0.2730 -1.5881
  955MOL0     H26011   0.147   4.256   9.636  0.3803 -0.1158  0.4474
  955MOL0     H26012   0.098   4.133   9.521  0.1425  0.8141 -0.1153
  955MOL0     H26013   0.206   3.881   9.695 -1.7889  2.3119 -3.0584
  955MOL0     H26014   0.595   3.822   9.716  1.0829  0.7226  4.5695
  955MOL0     H26015   0.443   3.736   9.666 -2.3271 -0.1334  0.6679
  955MOL0     H26016   0.515   3.693   9.918 -0.8627 -1.7732 -1.1513
  955MOL0     H26017   0.383   3.813   9.937  2.0133  1.8041  1.1770
  955MOL0     H26018   0.669   3.847   9.988 -0.5658 -1.7300  1.0875
  955MOL0     H26019   0.584   3.974   9.900  2.7875 -0.9208 -1.1844
  955MOL0     H26020   0.400   3.925  10.111  0.1255  1.9409 -0.2768
  955MOL0     H26021   0.554   4.011  10.145  1.1308 -1.4868  0.7984
  955MOL0     H26022   0.403   3.964  10.352  0.3270  1.1059  2.3049
  955MOL0     H26023   0.362   3.922  10.584 -0.8651 -1.6998  1.9622
  955MOL0     H26024   0.520   3.992  10.929  1.8287  0.2262  2.1920
  955MOL0     H26025   0.554   4.014  11.175  0.9461 -1.4234  1.8788
  955MOL0     H26026   0.371   4.029  11.372 -1.6512 -1.6035  2.3293
  955MOL0     H26027   0.556   4.031  11.374  0.0546 -2.4849 -2.7200
  955MOL0     H26028   0.367   3.939  11.590  1.2755 -3.0955 -1.0727
  955MOL0     H26029   0.463   4.082  11.606  0.8349  0.2927 -1.5167
  955MOL0     H26030   0.531   3.798  11.637  2.1562 -0.3565  1.3811
  955MOL0     H26031   0.578   3.932  11.737  0.9037 -1.5128  1.0436
  955MOL0     H26032   0.726   3.873  11.474  1.0451 -0.5049  0.5867
  955MOL0     H26033   0.725   4.021  11.571  0.6919 -0.3611 -1.0003
  955MOL0     H26034   0.807   3.905  11.764  0.6069  0.7326 -0.2970
  955MOL0     H26035   0.915   3.870  11.625 -0.1409  0.3791 -1.5159
  955MOL0     H26036   0.782   3.661  11.580  0.9822  0.8632  0.1554
  955MOL0     H26037   0.696   3.688  11.733 -1.6383 -1.8488 -3.4006
  955MOL0     H26038   0.994   3.630  11.675  0.8310 -3.1599 -0.5909
  955MOL0     H26039   0.956   3.670  11.834  1.1146 -1.5120 -0.6572
  955MOL0     H26040   0.813   3.451  11.683 -0.2994  0.1143 -0.4480
  955MOL0     H26041   0.818   3.452  11.853  0.2523  0.2603  0.6864
  955MOL0     H26042   0.339   3.640  11.230  0.8340 -1.2561 -1.9358
  955MOL0     H26043   0.310   3.628  10.986  2.6258 -3.0830  2.4488
  955MOL0     H26044   0.593   3.557  10.553  0.4137 -0.7648 -1.7801
  955MOL0     H26045   0.614   3.593  10.321  0.8990 -0.1579 -0.0629
  955MOL0     H26046   0.236   4.652   9.276  1.4529 -2.6876 -0.0718
  955MOL0     H26047   0.391   4.738   9.111 -0.3082  1.3044  0.0122
  955MOL0     H26048   0.421   5.166   8.817  0.2921  1.6052  0.3558
  955MOL0     H26049   0.549   5.262   8.635 -3.8361  0.7627  2.9694
  955MOL0     H26050   0.797   5.195   8.335 -0.5833  1.4443  0.9099
  955MOL0     H26051   0.742   5.027   8.345 -2.3008  0.8851  0.9911
  955MOL0     H26052   0.962   5.138   8.525  5.4591  2.6444 -3.0167
  955MOL0     H26053   0.910   4.964   8.501 -0.3807 -0.7560 -2.1250
  955MOL0     H26054   1.138   4.992   8.402 -1.1621  1.0538  5.0859
  955MOL0     H26055   1.075   5.139   8.310 -0.3382  2.1448  2.8441
  955MOL0     H26056   1.109   4.916   8.187 -0.5154  1.0830 -0.8823
  955MOL0     H26057   0.984   4.847   8.294 -1.9560 -1.2349 -3.6797
  955MOL0     H26058   0.727   5.006   8.017  0.3662 -1.5187  0.6173
  955MOL0     H26059   0.676   4.878   8.508  3.6761  0.0636  2.5784
  955MOL0     H26060   0.525   4.777   8.661  0.9625 -0.4336 -0.2268
  956MOL0     O26061   9.873   5.138   4.778  0.4026 -0.5597 -0.0364
  956MOL0     C26062   9.930   5.074   4.689  0.4761  0.0314  0.0523
  956MOL0     O26063  10.036   4.988   4.711 -0.2057  0.1044 -0.0974
  956MOL0     C26064  10.102   4.985   4.834 -0.0670 -0.1091 -0.5417
  956MOL0     C26065  10.249   5.001   4.839  0.2055 -0.2205 -0.2040
  956MOL0     C26066  10.315   4.997   4.962  0.2898  0.0901  0.6400
  956MOL0     C26067  10.248   4.961   5.084 -0.4065 -0.4322  0.9225
  956MOL0     O26068  10.302   4.949   5.210 -0.3417  0.3020  0.5775
  956MOL0     C26069  10.437   4.968   5.228 -0.2805  0.0745 -0.6138
  956MOL0     C26070  10.517   4.837   5.198  0.2573 -0.2422  0.0439
  956MOL0     C26071  10.669   4.859   5.226 -0.8199  0.0825 -0.0838
  956MOL0     C26072  10.709   4.874   5.373 -0.9855 -0.2916 -0.0414
  956MOL0     C26073  10.857   4.873   5.402 -0.0905 -0.2876 -0.9134
  956MOL0     C26074  10.927   5.001   5.339 -0.0675  0.5137  0.4090
  956MOL0     C26075  11.073   5.009   5.351 -0.1544 -0.3515 -0.2442
  956MOL0     C26076  11.137   4.992   5.489 -0.0215  1.1628  0.7795
  956MOL0     N26077  11.278   5.036   5.481  0.2613 -0.0564  0.0875
  956MOL0     C26078  11.345   5.123   5.574 -0.1125  0.1347  0.3402
  956MOL0     C26079  11.471   5.131   5.534  0.2530  1.4509  0.0090
  956MOL0     C26080  11.589   5.209   5.590  0.1550  0.5520 -0.0888
  956MOL0     C26081  11.569   5.362   5.600 -0.0755 -0.8208 -1.0718
  956MOL0     C26082  11.547   5.444   5.481  0.1054 -0.1890 -0.4090
  956MOL0     C26083  11.511   5.595   5.509 -0.4407 -0.3578 -0.9677
  956MOL0     O26084  11.631   5.646   5.567  0.5632  1.1054  0.7321
  956MOL0     C26085  11.621   5.765   5.621  0.6628  0.1557  0.2917
  956MOL0     C26086  11.748   5.810   5.658  0.4145  0.3266 -0.0575
  956MOL0     C26087  11.771   5.934   5.723  0.1360  1.5819 -0.0079
  956MOL0     C26088  11.662   6.017   5.743 -0.1104 -0.3537 -0.2843
  956MOL0     C26089  11.692   6.135   5.828  0.6252 -0.8191  0.9432
  956MOL0     O26090  11.781   6.116   5.930  0.3100  0.5551 -0.9704
  956MOL0     C26091  11.848   6.215   6.003 -0.7241  0.0851  1.0275
  956MOL0     C26092  11.918   6.166   6.119 -0.7175 -0.5668 -0.2819
  956MOL0     C26093  11.996   6.254   6.196  0.9580  0.1773  0.2471
  956MOL0     C26094  11.998   6.392   6.160  0.4890 -0.6372  0.5127
  956MOL0     O26095  12.067   6.473   6.248 -0.4752 -0.5377 -0.0885
  956MOL0     C26096  12.118   6.597   6.198  0.6538  0.0546 -0.7677
  956MOL0     C26097  12.255   6.624   6.256 -0.4264 -0.1387 -1.1457
  956MOL0     C26098  12.360   6.519   6.230 -0.1005 -0.3388  0.7047
  956MOL0     C26099  12.404   6.503   6.090 -0.0749  0.9186 -0.2732
  956MOL0     C26100  12.528   6.410   6.093  1.0834 -0.8054 -0.6344
  956MOL0     C26101  12.493   6.269   6.136 -0.5725 -0.0366  0.3048
  956MOL0     C26102  12.605   6.170   6.110 -0.4059 -0.2850  0.1737
  956MOL0     C26103  12.548   6.030   6.123 -0.2744 -0.2595 -0.3428
  956MOL0    Cl26104  12.530   5.980   6.293 -0.0193 -0.1893  0.2614
  956MOL0     C26105  11.922   6.444   6.053  0.4158  0.5263  0.2850
  956MOL0     C26106  11.849   6.351   5.979  0.2286  0.2939 -0.1439
  956MOL0     O26107  11.634   6.236   5.794 -0.3116  0.5945  0.1202
  956MOL0     C26108  11.532   5.972   5.693 -0.8618  0.0004 -0.9241
  956MOL0     C26109  11.510   5.847   5.641 -0.3751  0.0688  0.3009
  956MOL0     N26110  11.481   5.079   5.412  1.5515  0.5555  0.4790
  956MOL0     N26111  11.370   5.021   5.383 -0.2828 -0.0862  0.0801
  956MOL0     C26112  10.114   4.946   5.069 -0.3343  0.2516 -0.8607
  956MOL0     C26113  10.042   4.954   4.956  0.2305  0.2611  0.6790
  956MOL0     C26114   9.897   5.113   4.551  1.0564 -0.4765  0.7793
  956MOL0     C26115   9.812   5.222   4.509  0.7181  0.4862  1.0375
  956MOL0     C26116   9.799   5.248   4.374 -0.7978 -0.5733 -0.4795
  956MOL0     C26117   9.857   5.175   4.272  0.4983 -0.5722 -0.7130
  956MOL0     O26118   9.832   5.217   4.151 -0.2839  0.2723  0.2066
  956MOL0     C26119   9.846   5.110   4.049  0.5451 -0.4628  0.2211
  956MOL0     C26120   9.726   5.105   3.950 -0.3064 -0.7733 -0.5608
  956MOL0     C26121   9.597   5.056   4.011 -0.7283 -0.1865  0.0235
  956MOL0     C26122   9.475   5.073   3.908  0.1474  0.1990 -0.5997
  956MOL0     C26123   9.503   4.973   3.800  0.3431  0.3733 -0.8383
  956MOL0     C26124   9.526   4.889   3.716 -0.7273 -0.1231 -0.9256
  956MOL0     C26125   9.946   5.072   4.309  0.5214 -0.3775 -0.5969
  956MOL0     C26126   9.956   5.039   4.446  0.5419  0.2258 -1.5337
  956MOL0     H26127  10.296   5.030   4.746  0.5311 -1.0049 -0.2914
  956MOL0     H26128  10.422   5.011   4.960 -0.0988  4.1514 -1.3744
  956MOL0     H26129  10.460   4.984   5.334 -0.0524  4.5735 -1.1380
  956MOL0     H26130  10.472   5.053   5.169 -0.3372 -1.0543 -2.3369
  956MOL0     H26131  10.501   4.802   5.096  0.1947 -0.7540  0.2245
  956MOL0     H26132  10.470   4.760   5.260 -1.3544  0.3855 -0.3333
  956MOL0     H26133  10.717   4.934   5.162  1.4568  0.1109  1.5424
  956MOL0     H26134  10.709   4.763   5.192 -2.4185 -1.1235  1.3347
  956MOL0     H26135  10.655   4.965   5.403  0.7880  0.1003  2.2783
  956MOL0     H26136  10.659   4.794   5.429 -2.0298  2.0659  2.6338
  956MOL0     H26137  10.897   4.778   5.365 -2.4937 -1.2590 -1.2078
  956MOL0     H26138  10.871   4.874   5.510  1.6730 -2.1200 -1.0490
  956MOL0     H26139  10.881   5.089   5.384  1.2786  0.4868  1.9330
  956MOL0     H26140  10.919   4.997   5.230  2.4698  1.4939  0.1302
  956MOL0     H26141  11.122   4.927   5.297  2.4995 -0.3631  1.9443
  956MOL0     H26142  11.097   5.102   5.298 -0.3823 -1.9337 -3.3863
  956MOL0     H26143  11.131   4.890   5.528  1.1413  1.9851  3.3775
  956MOL0     H26144  11.089   5.045   5.572 -0.1767  2.5144 -0.1424
  956MOL0     H26145  11.297   5.183   5.651  0.0234 -1.6516  1.9006
  956MOL0     H26146  11.681   5.196   5.532 -0.2732 -0.2905 -0.5988
  956MOL0     H26147  11.607   5.163   5.688  0.8881 -1.4501 -1.1128
  956MOL0     H26148  11.651   5.407   5.657 -1.5962  1.7450 -0.7903
  956MOL0     H26149  11.476   5.378   5.655  0.4888  3.5160 -1.0917
  956MOL0     H26150  11.636   5.447   5.418  0.3085 -1.6492 -0.2134
  956MOL0     H26151  11.471   5.388   5.426  1.1283 -3.1923  1.0434
  956MOL0     H26152  11.425   5.602   5.575 -0.8628 -4.2665 -0.8372
  956MOL0     H26153  11.483   5.650   5.419  0.1291 -3.9394 -3.5825
  956MOL0     H26154  11.828   5.739   5.638 -0.5919 -1.0701  0.6902
  956MOL0     H26155  11.876   5.953   5.743  0.5423 -0.3818 -0.0355
  956MOL0     H26156  11.914   6.064   6.156 -0.9442 -0.1020  1.0304
  956MOL0     H26157  12.038   6.227   6.292 -0.8750 -0.3894  0.9512
  956MOL0     H26158  12.043   6.672   6.226  0.5674 -0.6811  1.1407
  956MOL0     H26159  12.133   6.604   6.090  2.9541 -0.2421 -0.5226
  956MOL0     H26160  12.244   6.620   6.365 -0.2507  1.3617 -1.0567
  956MOL0     H26161  12.283   6.723   6.221  2.9830 -0.0021  1.4569
  956MOL0     H26162  12.322   6.420   6.257  2.0981 -1.7088 -0.8883
  956MOL0     H26163  12.439   6.541   6.303  1.1562 -0.3944 -0.5873
  956MOL0     H26164  12.323   6.456   6.033  0.2603  0.5567 -0.4637
  956MOL0     H26165  12.425   6.595   6.035  0.2566  0.1715 -1.4369
  956MOL0     H26166  12.600   6.449   6.166  2.6821 -1.2791 -1.8792
  956MOL0     H26167  12.567   6.417   5.991  2.8261  4.8119  0.0657
  956MOL0     H26168  12.396   6.243   6.094 -2.0710  3.0719  1.4910
  956MOL0     H26169  12.491   6.268   6.246 -1.1958  0.5683  0.3064
  956MOL0     H26170  12.640   6.191   6.009  3.5946  1.9681  1.7545
  956MOL0     H26171  12.690   6.190   6.177  0.4694 -0.8071 -0.7526
  956MOL0     H26172  12.613   5.960   6.071  1.4360  0.2108  1.0469
  956MOL0     H26173  12.457   6.038   6.063 -1.1276  1.3028  1.0420
  956MOL0     H26174  11.915   6.548   6.024 -2.5594  0.0540 -1.1126
  956MOL0     H26175  11.809   6.389   5.885 -2.2058 -0.1560  0.6488
  956MOL0     H26176  11.434   6.016   5.705 -1.9735 -2.6725  0.9169
  956MOL0     H26177  11.408   5.813   5.623 -0.3048 -0.2212  0.4498
  956MOL0     H26178  10.068   4.947   5.167  0.4224  1.8956 -0.4867
  956MOL0     H26179   9.935   4.945   4.970  0.3066 -0.3953  0.8423
  956MOL0     H26180   9.760   5.282   4.582 -2.0325 -3.5102  2.6781
  956MOL0     H26181   9.736   5.335   4.356  3.1405  2.7353  0.0629
  956MOL0     H26182   9.872   5.010   4.085  0.3781 -0.7675 -0.4871
  956MOL0     H26183   9.937   5.133   3.994  0.5657 -0.6001  0.1984
  956MOL0     H26184   9.716   5.200   3.895 -2.5725 -1.2540 -1.1111
  956MOL0     H26185   9.755   5.037   3.869  0.7501 -0.7199 -0.2402
  956MOL0     H26186   9.571   5.118   4.098  1.9313 -1.9717  2.2612
  956MOL0     H26187   9.608   4.949   4.027  0.9074 -0.3599 -1.9283
  956MOL0     H26188   9.379   5.067   3.961  0.9815 -1.5908  0.8356
  956MOL0     H26189   9.466   5.177   3.874  1.9179  1.6343  2.8205
  956MOL0     H26190   9.540   4.831   3.627 -1.1607  2.1877 -2.6150
  956MOL0     H26191  10.000   5.010   4.239  1.4595  1.8977 -2.0004
  956MOL0     H26192  10.017   4.954   4.479  0.6597  1.7769  2.9342
  957MOL0     O26193   2.949   6.859   1.896 -0.6504 -0.6271 -0.3485
  957MOL0     C26194   2.906   6.775   1.817 -0.1512 -0.0836  1.0724
  957MOL0     O26195   2.920   6.782   1.677 -0.2063  0.5159 -1.5174
  957MOL0     C26196   2.978   6.881   1.607 -0.1577 -0.2248 -0.0089
  957MOL0     C26197   3.043   7.005   1.643  0.2440 -0.3640 -0.1229
  957MOL0     C26198   3.094   7.089   1.549  0.5633 -0.0884  0.4126
  957MOL0     C26199   3.081   7.062   1.414  0.2971  0.6237 -0.7381
  957MOL0     O26200   3.113   7.160   1.320  0.7077 -0.5499 -0.6977
  957MOL0     C26201   3.034   7.166   1.201  0.8495 -0.2935  0.1103
  957MOL0     C26202   3.062   7.298   1.144  0.0608 -1.3949 -0.2043
  957MOL0     C26203   2.955   7.357   1.045  0.0150  0.9262 -0.1996
  957MOL0     C26204   2.932   7.253   0.931 -0.1856  0.5543  0.5490
  957MOL0     C26205   2.896   7.306   0.789  0.0513 -0.2754 -0.4295
  957MOL0     C26206   2.778   7.403   0.794  0.2818 -0.2687  0.7245
  957MOL0     C26207   2.768   7.467   0.660 -0.6133 -0.4164  0.0750
  957MOL0     C26208   2.661   7.591   0.668 -0.1879 -0.1675  0.4714
  957MOL0     N26209   2.523   7.559   0.709  0.1720 -0.0930  0.4004
  957MOL0     C26210   2.416   7.535   0.630 -0.3469  0.0661 -0.3527
  957MOL0     C26211   2.306   7.549   0.707  0.3872 -0.1868  0.6183
  957MOL0     C26212   2.156   7.524   0.682  0.1739  0.4192 -0.5981
  957MOL0     C26213   2.128   7.466   0.543  0.2176 -0.2914 -0.3940
  957MOL0     C26214   2.160   7.319   0.526 -0.8140 -0.0253 -0.7223
  957MOL0     C26215   2.129   7.278   0.387 -1.2237  0.4072  1.4236
  957MOL0     O26216   1.987   7.254   0.372  0.2555 -0.0169 -0.3884
  957MOL0     C26217   1.947   7.189   0.258  0.4715 -0.1258  0.3003
  957MOL0     C26218   2.035   7.155   0.156  0.1658  0.8568  0.3616
  957MOL0     C26219   1.988   7.082   0.045  0.0697 -0.9804 -0.6155
  957MOL0     C26220   1.850   7.052   0.026 -0.4024 -0.3060 -0.3944
  957MOL0     C26221   1.802   6.984  -0.095  0.8681  0.0235 -0.2741
  957MOL0     O26222   1.668   6.960  -0.098  0.1391  0.3645 -0.0051
  957MOL0     C26223   1.604   6.889  -0.197  0.1509 -0.0680 -0.0590
  957MOL0     C26224   1.500   6.954  -0.270  0.1486 -0.5293 -0.0958
  957MOL0     C26225   1.439   6.891  -0.383  0.0243 -0.3165 -0.6794
  957MOL0     C26226   1.491   6.766  -0.426  1.7177 -0.0533  0.2618
  957MOL0     O26227   1.420   6.704  -0.532 -0.0508  0.4216 -0.0946
  957MOL0     C26228   1.478   6.590  -0.590 -0.0918  0.2390  1.8365
  957MOL0     C26229   1.445   6.589  -0.750  0.4411  0.4502  0.7643
  957MOL0     C26230   1.457   6.742  -0.811  0.6630 -0.3992 -0.4704
  957MOL0     C26231   1.411   6.753  -0.963 -0.2469  0.6436  0.7464
  957MOL0     C26232   1.381   6.893  -1.006 -0.4327 -0.7462  0.1577
  957MOL0     C26233   1.285   6.900  -1.131  1.1816 -0.1534  0.1255
  957MOL0     C26234   1.346   6.812  -1.238  0.0084 -0.4182 -1.0416
  957MOL0     C26235   1.278   6.849  -1.362  0.6473 -0.3074  0.8042
  957MOL0    Cl26236   1.111   6.785  -1.364 -0.8622  0.2164 -0.2156
  957MOL0     C26237   1.587   6.704  -0.340  0.0728  0.0282  0.0759
  957MOL0     C26238   1.637   6.760  -0.223  1.0059  0.6707 -0.5281
  957MOL0     O26239   1.879   6.962  -0.184  0.4503  0.1783  0.4036
  957MOL0     C26240   1.763   7.077   0.134  0.0679 -0.5194  0.3974
  957MOL0     C26241   1.813   7.153   0.247 -0.3219  0.7095 -1.1646
  957MOL0     N26242   2.351   7.569   0.834 -0.1738 -0.5244  0.6700
  957MOL0     N26243   2.483   7.573   0.838  0.7856 -0.4411  0.0823
  957MOL0     C26244   3.020   6.937   1.372  1.0577  1.0608 -0.5210
  957MOL0     C26245   2.963   6.852   1.471  0.0995 -0.6974 -0.9485
  957MOL0     C26246   2.825   6.654   1.860  0.8947 -1.0063  0.9638
  957MOL0     C26247   2.722   6.615   1.777 -0.4007 -0.3610  0.1157
  957MOL0     C26248   2.646   6.502   1.807 -0.2518  0.0271 -0.8141
  957MOL0     C26249   2.654   6.439   1.934  0.3481  0.0675 -0.1265
  957MOL0     O26250   2.552   6.350   1.962  0.4872  1.3339 -0.0481
  957MOL0     C26251   2.566   6.275   2.086  0.8396 -0.9296  0.2564
  957MOL0     C26252   2.459   6.176   2.095 -0.1562  0.1079 -0.0974
  957MOL0     C26253   2.316   6.227   2.091  0.0875 -0.1404 -0.0948
  957MOL0     C26254   2.282   6.349   2.178 -0.0170 -0.3862  0.9466
  957MOL0     C26255   2.303   6.324   2.322  0.2483 -1.0925 -0.6781
  957MOL0     C26256   2.318   6.293   2.440 -0.0101  0.0757  0.7115
  957MOL0     C26257   2.763   6.480   2.023  0.0713 -0.3426 -0.5164
  957MOL0     C26258   2.844   6.590   1.983 -1.0430  0.5565 -1.0529
  957MOL0     H26259   3.056   7.026   1.749  0.3207 -0.0256 -0.1999
  957MOL0     H26260   3.127   7.185   1.587 -0.7684  0.0980  1.1452
  957MOL0     H26261   2.927   7.160   1.223  0.9299  0.9166  0.9769
  957MOL0     H26262   3.066   7.082   1.139 -0.0414 -0.4764 -0.1162
  957MOL0     H26263   3.155   7.292   1.086 -1.2127 -2.4092 -2.2997
  957MOL0     H26264   3.060   7.376   1.220  1.4616  0.9055 -2.3659
  957MOL0     H26265   3.001   7.447   1.002  5.0275 -0.7810  0.9424
  957MOL0     H26266   2.856   7.359   1.092  0.8234 -1.8957  1.8712
  957MOL0     H26267   3.004   7.171   0.920 -1.3191 -0.1737 -2.3295
  957MOL0     H26268   2.847   7.200   0.974  1.5858 -0.0652  3.6078
  957MOL0     H26269   2.862   7.219   0.734 -2.8329 -2.4727  4.1825
  957MOL0     H26270   2.995   7.344   0.761  1.3780 -0.4281  3.4181
  957MOL0     H26271   2.807   7.470   0.875  0.7300  0.1024  0.2622
  957MOL0     H26272   2.683   7.358   0.824 -0.2122  0.5142  0.3384
  957MOL0     H26273   2.863   7.514   0.633 -1.4365  0.3586 -1.6517
  957MOL0     H26274   2.740   7.407   0.573 -1.4398 -0.8937  0.6566
  957MOL0     H26275   2.662   7.636   0.568  0.8922  0.6912  0.8393
  957MOL0     H26276   2.707   7.672   0.726 -0.4110  0.5451 -0.3231
  957MOL0     H26277   2.418   7.508   0.525  0.5400  0.1491 -0.3594
  957MOL0     H26278   2.102   7.618   0.698 -0.3733  0.1395 -0.7783
  957MOL0     H26279   2.132   7.452   0.761  0.3358 -0.3932 -1.2694
  957MOL0     H26280   2.180   7.518   0.463  0.5314  1.9368  1.1676
  957MOL0     H26281   2.025   7.488   0.512  1.5942  4.0463 -2.6317
  957MOL0     H26282   2.265   7.297   0.544 -0.6585 -0.8694 -2.4496
  957MOL0     H26283   2.096   7.258   0.591  1.9821 -0.8893  1.3986
  957MOL0     H26284   2.188   7.188   0.366  0.8094  2.0887 -0.6513
  957MOL0     H26285   2.171   7.345   0.311 -2.1193 -2.6320 -2.0541
  957MOL0     H26286   2.135   7.197   0.153 -0.2732  1.9407 -2.9970
  957MOL0     H26287   2.056   7.087  -0.039  0.2229 -1.7374 -0.5409
  957MOL0     H26288   1.459   7.052  -0.250 -0.9611 -0.5816 -1.9354
  957MOL0     H26289   1.348   6.931  -0.427 -0.3336 -2.1389 -1.7034
  957MOL0     H26290   1.442   6.497  -0.544  0.9157 -0.2848  1.5820
  957MOL0     H26291   1.587   6.588  -0.581  0.1316 -1.3787 -0.3998
  957MOL0     H26292   1.343   6.555  -0.771  0.7964  0.8697 -1.9091
  957MOL0     H26293   1.515   6.517  -0.793  1.4239  0.0116  2.9666
  957MOL0     H26294   1.559   6.781  -0.806 -1.3194  6.1263 -1.7876
  957MOL0     H26295   1.395   6.812  -0.754 -1.0952 -2.0630 -0.2416
  957MOL0     H26296   1.484   6.706  -1.029 -0.3936  1.9330 -0.3821
  957MOL0     H26297   1.323   6.691  -0.982 -2.3179  3.3706  0.7978
  957MOL0     H26298   1.480   6.932  -1.032  0.2565 -0.7289  2.5413
  957MOL0     H26299   1.327   6.944  -0.926 -2.1789 -1.6858 -0.3624
  957MOL0     H26300   1.261   7.001  -1.168  0.0382 -1.4646 -3.1436
  957MOL0     H26301   1.189   6.864  -1.093  0.7709 -1.7758 -2.2061
  957MOL0     H26302   1.451   6.843  -1.237 -0.2114  0.3916  0.4942
  957MOL0     H26303   1.324   6.708  -1.216 -1.3461 -0.0081 -0.3234
  957MOL0     H26304   1.331   6.813  -1.450  1.8808  0.6427  1.1182
  957MOL0     H26305   1.274   6.959  -1.367  0.0570 -0.3154  1.0507
  957MOL0     H26306   1.590   6.597  -0.356  0.8304  0.0341  0.1333
  957MOL0     H26307   1.701   6.717  -0.146 -1.8962  0.3765  1.9216
  957MOL0     H26308   1.671   7.020   0.141  1.0890 -2.5605 -1.4647
  957MOL0     H26309   1.745   7.180   0.327  2.5859  1.7830  1.1145
  957MOL0     H26310   3.006   6.905   1.270 -2.6600 -0.9236  0.4125
  957MOL0     H26311   2.917   6.759   1.439  2.1525 -2.3873  0.7737
  957MOL0     H26312   2.692   6.672   1.689 -4.3955  0.7127  1.9438
  957MOL0     H26313   2.563   6.486   1.738 -2.1425  1.6930  0.9430
  957MOL0     H26314   2.568   6.340   2.174  2.7683  0.5149 -0.7745
  957MOL0     H26315   2.670   6.241   2.081  0.7953 -1.5076  2.3002
  957MOL0     H26316   2.467   6.122   2.000  2.7958  1.2715 -0.6243
  957MOL0     H26317   2.488   6.113   2.179  0.3563  0.5407  0.0563
  957MOL0     H26318   2.240   6.148   2.104  0.6300 -0.6739 -0.1078
  957MOL0     H26319   2.308   6.271   1.992  3.3973  0.2798 -0.2721
  957MOL0     H26320   2.336   6.442   2.158 -0.5337  0.6175  3.7445
  957MOL0     H26321   2.175   6.361   2.157  0.3373 -2.1782 -2.4217
  957MOL0     H26322   2.331   6.252   2.538  3.4823  2.9768  1.6468
  957MOL0     H26323   2.776   6.430   2.118  2.1512  2.0685  0.5773
  957MOL0     H26324   2.932   6.627   2.034  0.9109 -1.4980 -2.7621
  958MOL0     O26325   2.061   6.829   2.138 -0.4192  0.7912  1.1063
  958MOL0     C26326   2.074   6.762   2.240 -0.6062  0.4923 -0.5552
  958MOL0     O26327   2.195   6.723   2.298  0.3371 -0.4461  0.1596
  958MOL0     C26328   2.304   6.752   2.229 -0.6221  0.4309  0.1623
  958MOL0     C26329   2.411   6.830   2.275 -0.8333 -0.1296 -1.1982
  958MOL0     C26330   2.513   6.880   2.190 -0.4430  0.8410  0.3036
  958MOL0     C26331   2.528   6.821   2.063 -0.0635 -1.0709  0.4659
  958MOL0     O26332   2.611   6.860   1.959  0.2358  0.5547 -0.6368
  958MOL0     C26333   2.641   7.001   1.965 -0.3134 -0.2845  0.7966
  958MOL0     C26334   2.678   7.059   1.827 -0.9546 -0.5693  0.1499
  958MOL0     C26335   2.566   7.056   1.721 -0.4168 -0.4106 -0.8448
  958MOL0     C26336   2.630   7.094   1.584  0.4379 -0.0977  0.1289
  958MOL0     C26337   2.517   7.127   1.479 -0.2589  0.5331  0.1878
  958MOL0     C26338   2.570   7.131   1.333 -0.9819 -0.2876  0.7192
  958MOL0     C26339   2.654   7.252   1.296 -0.1290  0.2708  0.7634
  958MOL0     C26340   2.578   7.387   1.294 -0.3044  1.0989 -0.4242
  958MOL0     N26341   2.663   7.502   1.251  0.0255 -0.2976 -0.5734
  958MOL0     C26342   2.650   7.597   1.143  0.8327  0.1423 -0.0283
  958MOL0     C26343   2.757   7.678   1.153  0.1997 -0.0786 -0.4991
  958MOL0     C26344   2.803   7.781   1.069 -0.0910 -1.0882 -0.6155
  958MOL0     C26345   2.768   7.915   1.139  0.4874  0.4365  0.9467
  958MOL0     C26346   2.871   7.953   1.247  0.2231 -0.4323  0.4784
  958MOL0     C26347   2.848   8.096   1.301 -0.1263  0.0308  0.2712
  958MOL0     O26348   2.979   8.149   1.351  0.3161  0.6863  0.4082
  958MOL0     C26349   3.003   8.141   1.485  0.6817  0.2517  0.6985
  958MOL0     C26350   3.043   8.026   1.551  0.3363 -0.9679  0.1316
  958MOL0     C26351   3.087   8.026   1.677 -0.4105 -1.0788  0.2200
  958MOL0     C26352   3.092   8.144   1.752 -0.0426  0.8758 -0.3062
  958MOL0     C26353   3.134   8.158   1.891  0.3858  0.1254 -1.4006
  958MOL0     O26354   3.176   8.038   1.954 -0.2836 -0.1778  0.2450
  958MOL0     C26355   3.192   8.013   2.094 -0.1318  0.5370 -0.0421
  958MOL0     C26356   3.198   7.876   2.134  0.1215 -0.7563 -0.1951
  958MOL0     C26357   3.213   7.845   2.271  0.1864 -0.3770  0.7603
  958MOL0     C26358   3.206   7.941   2.366 -0.4089  0.2773 -0.4793
  958MOL0     O26359   3.196   7.895   2.487 -0.8991 -0.3369 -0.0590
  958MOL0     C26360   3.149   7.977   2.593 -0.7227  0.6504  0.0746
  958MOL0     C26361   3.000   7.990   2.564  0.7517 -0.4169 -0.0266
  958MOL0     C26362   2.918   7.903   2.651  0.1136  0.8255  1.1849
  958MOL0     C26363   2.893   7.951   2.796  0.3320 -0.8547 -0.2096
  958MOL0     C26364   2.789   8.056   2.799 -0.2221  0.0237 -1.4044
  958MOL0     C26365   2.766   8.091   2.944  0.2327 -0.4906 -0.3454
  958MOL0     C26366   2.706   8.230   2.952 -0.6438  0.3832 -0.3254
  958MOL0     C26367   2.691   8.259   3.095 -0.7973 -0.2697 -0.5266
  958MOL0    Cl26368   2.608   8.399   3.114 -0.0629  0.5835  0.2803
  958MOL0     C26369   3.191   8.070   2.324  0.6752  0.6267 -0.1862
  958MOL0     C26370   3.196   8.105   2.196  0.2855  0.2203  1.0271
  958MOL0     O26371   3.149   8.274   1.947 -0.2723  0.6173 -0.1849
  958MOL0     C26372   3.056   8.262   1.683  0.6275  1.2269 -0.2306
  958MOL0     C26373   3.012   8.256   1.556 -0.2905  0.2542 -0.0809
  958MOL0     N26374   2.817   7.648   1.280  0.3200 -0.2574  0.5334
  958MOL0     N26375   2.765   7.537   1.328 -0.1792  0.3097  0.1138
  958MOL0     C26376   2.427   6.725   2.027 -0.0448  0.1831  0.6102
  958MOL0     C26377   2.314   6.693   2.104 -0.9254 -0.0950  0.0880
  958MOL0     C26378   1.951   6.716   2.315  0.0048  0.6441  0.5901
  958MOL0     C26379   1.950   6.696   2.449  0.2983  0.0933 -0.0706
  958MOL0     C26380   1.847   6.631   2.508  0.8811  1.0413  0.5901
  958MOL0     C26381   1.734   6.595   2.436  0.3249 -0.3155 -1.1164
  958MOL0     O26382   1.619   6.533   2.479 -0.0935 -0.5245  0.0626
  958MOL0     C26383   1.567   6.558   2.606  0.6259  0.8479  0.2616
  958MOL0     C26384   1.415   6.550   2.595  0.1391 -0.3150 -0.5798
  958MOL0     C26385   1.363   6.656   2.485 -0.4251  1.3576 -0.2196
  958MOL0     C26386   1.219   6.709   2.513  0.9038  0.5727  0.1646
  958MOL0     C26387   1.197   6.767   2.646  0.1811  0.6378 -0.0986
  958MOL0     C26388   1.173   6.827   2.747  0.2599  0.1553 -0.4002
  958MOL0     C26389   1.725   6.636   2.310 -0.5552 -0.2822 -0.3381
  958MOL0     C26390   1.828   6.703   2.246 -1.1609  0.3086 -1.1019
  958MOL0     H26391   2.422   6.874   2.373 -3.1578 -2.4868  0.2450
  958MOL0     H26392   2.581   6.955   2.229 -1.0096  0.5457  1.9299
  958MOL0     H26393   2.716   7.025   2.040 -0.4258 -0.8712  1.1005
  958MOL0     H26394   2.554   7.061   1.994  1.0069  2.2291 -0.1756
  958MOL0     H26395   2.767   7.016   1.780 -0.8985  0.9032 -1.1813
  958MOL0     H26396   2.709   7.162   1.849 -0.9302  0.4322 -3.7892
  958MOL0     H26397   2.494   7.132   1.750  0.8533 -0.3721  2.6610
  958MOL0     H26398   2.526   6.954   1.722 -2.0143  0.1907  0.2749
  958MOL0     H26399   2.693   7.182   1.603 -1.6528  2.0561 -2.2139
  958MOL0     H26400   2.688   7.009   1.548  3.0366  1.6248 -0.0294
  958MOL0     H26401   2.458   7.213   1.512  2.3888  1.2643  3.5798
  958MOL0     H26402   2.445   7.045   1.472 -0.2052  0.5793 -1.1959
  958MOL0     H26403   2.485   7.126   1.265 -0.1758 -1.6546 -0.2375
  958MOL0     H26404   2.626   7.041   1.304  2.6659  1.1192  2.6663
  958MOL0     H26405   2.743   7.258   1.359  0.7795  1.1858 -0.5623
  958MOL0     H26406   2.689   7.234   1.194 -1.4865  0.9405  0.1516
  958MOL0     H26407   2.535   7.400   1.394 -2.2548  0.2492 -1.1012
  958MOL0     H26408   2.498   7.375   1.220  0.0439  0.9989 -0.7852
  958MOL0     H26409   2.577   7.607   1.063 -0.7822  1.4990  1.5424
  958MOL0     H26410   2.764   7.764   0.969  0.5184  0.7236 -1.1934
  958MOL0     H26411   2.911   7.770   1.055  0.5051  4.1001 -2.3081
  958MOL0     H26412   2.663   7.914   1.170  0.2293  1.9491  0.2315
  958MOL0     H26413   2.782   7.993   1.063  0.9631 -0.5847 -0.0499
  958MOL0     H26414   2.884   7.879   1.327  0.9044 -1.2684 -0.3874
  958MOL0     H26415   2.973   7.948   1.209  1.8165  5.2362  2.9411
  958MOL0     H26416   2.766   8.089   1.373 -0.6822 -0.4973 -0.4053
  958MOL0     H26417   2.798   8.159   1.228 -3.0942 -3.1409 -0.6894
  958MOL0     H26418   3.034   7.932   1.496 -2.4183 -0.7662  0.1376
  958MOL0     H26419   3.106   7.931   1.727  0.9189 -2.2163 -2.2727
  958MOL0     H26420   3.183   7.803   2.055  0.8754  1.7721 -2.8557
  958MOL0     H26421   3.219   7.742   2.305  2.8262 -0.0748  1.4413
  958MOL0     H26422   3.200   8.072   2.612  3.0160 -1.5675  2.2230
  958MOL0     H26423   3.168   7.919   2.684 -3.2218 -0.0166  0.2391
  958MOL0     H26424   2.970   7.973   2.460 -0.5562  0.1473  0.2374
  958MOL0     H26425   2.964   8.092   2.580  1.4806 -0.3505  1.4025
  958MOL0     H26426   2.956   7.801   2.646 -0.0033  0.8524 -0.6657
  958MOL0     H26427   2.821   7.895   2.600 -0.0677 -0.2286  1.6719
  958MOL0     H26428   2.870   7.865   2.860  1.5563  0.6043  2.3563
  958MOL0     H26429   2.988   7.991   2.833  0.6705 -0.5244 -1.3993
  958MOL0     H26430   2.692   8.031   2.755 -3.1952  2.8171  2.7776
  958MOL0     H26431   2.818   8.147   2.744 -3.5830  1.8314 -0.4813
  958MOL0     H26432   2.865   8.081   2.990 -0.7215 -1.5828  1.5690
  958MOL0     H26433   2.696   8.028   2.999  0.3663  1.4459  2.2044
  958MOL0     H26434   2.770   8.304   2.904  2.9040 -1.5242  1.1441
  958MOL0     H26435   2.608   8.224   2.903 -0.1326 -5.2172 -1.3403
  958MOL0     H26436   2.788   8.284   3.138 -0.4916 -1.0536 -0.7288
  958MOL0     H26437   2.651   8.176   3.154  0.8858 -0.1970  0.8069
  958MOL0     H26438   3.194   8.147   2.400  1.9443  0.3567  0.0730
  958MOL0     H26439   3.181   8.208   2.165 -0.6907  0.4710  2.2369
  958MOL0     H26440   3.070   8.350   1.743 -0.1474  1.7688 -0.8229
  958MOL0     H26441   2.994   8.350   1.505 -1.4487 -1.2360 -2.6790
  958MOL0     H26442   2.422   6.678   1.930 -2.6374  1.6746 -0.0845
  958MOL0     H26443   2.232   6.635   2.064 -3.3249  1.3128  2.6561
  958MOL0     H26444   2.036   6.720   2.511  0.1824  0.8437 -0.1939
  958MOL0     H26445   1.844   6.596   2.611 -1.6832 -1.1152 -0.0779
  958MOL0     H26446   1.601   6.655   2.642  0.0933  0.7357  1.0971
  958MOL0     H26447   1.609   6.483   2.673  1.7477  1.0772 -0.1642
  958MOL0     H26448   1.389   6.452   2.556  1.7002 -0.3882 -1.5133
  958MOL0     H26449   1.373   6.550   2.697 -0.5235 -5.4871 -0.6195
  958MOL0     H26450   1.368   6.614   2.384 -0.9929 -0.3216  0.4020
  958MOL0     H26451   1.424   6.745   2.471  1.3995 -0.1172 -2.3346
  958MOL0     H26452   1.194   6.785   2.440 -0.2775  3.4466  3.3087
  958MOL0     H26453   1.144   6.629   2.506  0.3237  1.2034 -1.1633
  958MOL0     H26454   1.136   6.863   2.842 -3.1364 -3.8054  0.0671
  958MOL0     H26455   1.633   6.605   2.262 -0.4056  1.7624 -2.1058
  958MOL0     H26456   1.818   6.732   2.142  2.8188 -0.9355 -2.0085
  959MOL0     O26457   5.762   4.174   1.067 -0.0459 -0.0621 -0.6926
  959MOL0     C26458   5.773   4.143   0.949 -0.4942  0.1446 -0.4740
  959MOL0     O26459   5.893   4.145   0.869 -0.8353  0.2734 -0.1793
  959MOL0     C26460   6.014   4.156   0.928  0.6533 -0.9513  0.6740
  959MOL0     C26461   6.047   4.249   1.033  0.2814  0.1487  0.3922
  959MOL0     C26462   6.169   4.282   1.067  0.1562 -0.5434 -0.6296
  959MOL0     C26463   6.271   4.227   0.995  0.8795  0.2081 -0.6186
  959MOL0     O26464   6.407   4.253   1.024 -0.0145  0.6632  0.6482
  959MOL0     C26465   6.445   4.222   1.165  0.1256 -0.1159  0.2110
  959MOL0     C26466   6.588   4.184   1.164 -0.2101  0.0338 -0.5110
  959MOL0     C26467   6.622   4.065   1.085 -0.0607 -0.8890 -0.2250
  959MOL0     C26468   6.695   4.111   0.960 -0.2969 -0.4582 -0.9839
  959MOL0     C26469   6.814   4.027   0.926  0.1936 -0.0210 -0.8060
  959MOL0     C26470   6.841   4.038   0.774  0.8510 -0.0516 -0.2830
  959MOL0     C26471   6.970   3.979   0.737  0.0981 -0.2365 -0.0358
  959MOL0     C26472   6.971   3.955   0.583 -0.8871 -0.0092  0.8323
  959MOL0     N26473   6.874   3.852   0.543  0.3280  1.2399  0.1208
  959MOL0     C26474   6.806   3.857   0.421 -0.0817  0.7691  0.4690
  959MOL0     C26475   6.724   3.745   0.432  0.0378  0.4297  1.1167
  959MOL0     C26476   6.632   3.677   0.334 -0.3430  0.0899 -0.5332
  959MOL0     C26477   6.700   3.663   0.198  0.2697  0.2574 -0.2970
  959MOL0     C26478   6.605   3.586   0.100  0.0369  0.1858 -0.8666
  959MOL0     C26479   6.451   3.596   0.128  0.7195  0.2603  0.4723
  959MOL0     O26480   6.410   3.730   0.134  0.5118 -0.2150 -0.2914
  959MOL0     C26481   6.380   3.809   0.023 -0.0265  0.4912 -1.6194
  959MOL0     C26482   6.369   3.948   0.042  0.5570 -0.0506 -0.0206
  959MOL0     C26483   6.350   4.040  -0.056 -0.1481  0.5152 -0.4140
  959MOL0     C26484   6.318   4.003  -0.183  0.1902  1.0578  0.5802
  959MOL0     C26485   6.297   4.093  -0.294 -1.1281 -0.4402 -0.5249
  959MOL0     O26486   6.365   4.219  -0.282  1.1909 -0.3936 -0.5159
  959MOL0     C26487   6.341   4.320  -0.359  0.7527  0.1622 -0.4640
  959MOL0     C26488   6.214   4.339  -0.423 -0.3273  1.4104 -0.2357
  959MOL0     C26489   6.182   4.444  -0.504  0.6583 -0.2288 -1.2039
  959MOL0     C26490   6.283   4.548  -0.513  0.4555  0.1728 -0.0282
  959MOL0     O26491   6.241   4.665  -0.568 -0.1034 -0.0800  0.1474
  959MOL0     C26492   6.304   4.727  -0.677 -0.4768  0.4839 -1.0277
  959MOL0     C26493   6.206   4.829  -0.740 -0.0697  0.6142 -1.1493
  959MOL0     C26494   6.067   4.764  -0.759 -0.3136 -0.6249 -0.5563
  959MOL0     C26495   5.967   4.868  -0.821  0.5586  0.8839  0.5455
  959MOL0     C26496   5.823   4.828  -0.814  0.3631 -0.0192 -0.6430
  959MOL0     C26497   5.774   4.694  -0.872 -0.2734  0.4593  0.1262
  959MOL0     C26498   5.623   4.691  -0.865  0.0832 -0.8669  0.1353
  959MOL0     C26499   5.558   4.684  -0.724 -1.0759  0.4022  0.1225
  959MOL0    Cl26500   5.368   4.673  -0.711 -0.6127  0.1726 -0.4768
  959MOL0     C26501   6.405   4.537  -0.444  0.5850  0.0887 -0.2650
  959MOL0     C26502   6.438   4.423  -0.373  0.3081  0.4745  0.9666
  959MOL0     O26503   6.229   4.066  -0.390 -0.4953  0.7403  0.6947
  959MOL0     C26504   6.318   3.866  -0.210 -0.8369  0.2438  0.0357
  959MOL0     C26505   6.341   3.773  -0.106  0.5355  0.5032  0.5273
  959MOL0     N26506   6.735   3.695   0.560 -0.2671  0.6748 -0.3953
  959MOL0     N26507   6.824   3.755   0.627 -0.2072  0.2807 -0.6571
  959MOL0     C26508   6.247   4.141   0.889  0.0538 -0.0262 -0.0689
  959MOL0     C26509   6.121   4.104   0.859  0.9612  0.1452 -0.5682
  959MOL0     C26510   5.638   4.103   0.879 -0.1224  0.0974 -0.4331
  959MOL0     C26511   5.516   4.131   0.954 -0.4930 -0.3155 -0.2813
  959MOL0     C26512   5.397   4.105   0.898  0.4217  0.1462  0.4332
  959MOL0     C26513   5.394   4.050   0.760  0.1502 -0.0138  0.8271
  959MOL0     O26514   5.272   4.024   0.702  0.1310 -0.4865 -0.1803
  959MOL0     C26515   5.265   3.998   0.555 -0.0847  0.0744 -0.0483
  959MOL0     C26516   5.116   3.990   0.515 -0.4846 -0.4585 -0.4593
  959MOL0     C26517   5.115   3.922   0.375  0.4678 -0.8776  0.4249
  959MOL0     C26518   4.965   3.905   0.314  0.3816  1.2870 -1.2193
  959MOL0     C26519   4.907   4.031   0.274 -1.0810 -0.6711 -0.6753
  959MOL0     C26520   4.848   4.137   0.265 -0.4421  0.3371 -0.3033
  959MOL0     C26521   5.514   4.031   0.685  0.8024 -0.5013 -1.2917
  959MOL0     C26522   5.635   4.051   0.750  0.7042  0.4346  0.6671
  959MOL0     H26523   5.972   4.307   1.085 -1.3954  0.1687 -1.8750
  959MOL0     H26524   6.196   4.355   1.142  1.1168 -1.7394  0.2370
  959MOL0     H26525   6.384   4.143   1.210 -3.6526  2.9711  1.0483
  959MOL0     H26526   6.440   4.306   1.235  1.2294  1.2508 -1.2899
  959MOL0     H26527   6.607   4.155   1.268  0.1643  0.5006 -0.4504
  959MOL0     H26528   6.646   4.273   1.140 -1.8412  1.6076  0.9997
  959MOL0     H26529   6.529   4.011   1.068  0.8106 -2.4907 -0.1215
  959MOL0     H26530   6.688   4.002   1.145  0.4036 -1.2224 -1.0659
  959MOL0     H26531   6.623   4.106   0.878 -2.5069  0.1957  0.8011
  959MOL0     H26532   6.740   4.210   0.975 -2.5059  0.1642  2.8823
  959MOL0     H26533   6.791   3.921   0.945 -2.5794  0.6532  0.0039
  959MOL0     H26534   6.906   4.053   0.979 -1.1380 -3.2348  3.7368
  959MOL0     H26535   6.860   4.143   0.750  0.7973 -0.4357 -2.1214
  959MOL0     H26536   6.750   4.004   0.724  1.0482  0.8654 -1.2859
  959MOL0     H26537   7.059   4.036   0.762  1.6386 -1.7941 -1.7246
  959MOL0     H26538   6.976   3.880   0.784 -1.0017 -0.7562 -0.9340
  959MOL0     H26539   7.067   3.910   0.555 -1.4361 -0.6807 -0.0022
  959MOL0     H26540   6.948   4.045   0.525  0.5706 -1.2539 -1.8570
  959MOL0     H26541   6.838   3.918   0.337  2.1454  0.2630  0.8937
  959MOL0     H26542   6.541   3.738   0.340  1.6949  3.8866 -3.1719
  959MOL0     H26543   6.592   3.585   0.376  0.4992  0.0907  0.2992
  959MOL0     H26544   6.788   3.599   0.208  0.9474  1.3917  1.2346
  959MOL0     H26545   6.719   3.764   0.162  0.8269  1.3835  2.8408
  959MOL0     H26546   6.624   3.598  -0.007 -0.2692 -4.2855 -1.6113
  959MOL0     H26547   6.630   3.482   0.121  1.6227  0.8524  0.9212
  959MOL0     H26548   6.438   3.543   0.223 -0.4826 -0.4236 -0.0607
  959MOL0     H26549   6.397   3.535   0.055  0.2652 -1.6803  2.3269
  959MOL0     H26550   6.368   3.999   0.138 -2.7386 -0.0789  0.0863
  959MOL0     H26551   6.342   4.146  -0.031 -4.7321  0.2367  0.0781
  959MOL0     H26552   6.124   4.279  -0.413 -0.4553  1.0166 -2.8652
  959MOL0     H26553   6.088   4.475  -0.547  1.4090  1.6592 -1.6170
  959MOL0     H26554   6.334   4.648  -0.747 -2.2728 -2.3976  1.2031
  959MOL0     H26555   6.393   4.779  -0.642 -1.0857 -0.3052  2.0787
  959MOL0     H26556   6.233   4.864  -0.841  0.3394  1.9064 -0.6147
  959MOL0     H26557   6.196   4.916  -0.675  1.4005  0.9147 -1.2830
  959MOL0     H26558   6.024   4.729  -0.665 -3.0789  0.0262 -1.4908
  959MOL0     H26559   6.071   4.675  -0.823 -3.2193 -1.0354 -0.3150
  959MOL0     H26560   5.974   4.961  -0.764 -0.5263  0.3376  1.6308
  959MOL0     H26561   6.005   4.872  -0.923 -0.0859 -2.6152  0.0432
  959MOL0     H26562   5.768   4.907  -0.866  0.5863  1.3483  1.0897
  959MOL0     H26563   5.794   4.838  -0.709 -0.3105  1.8413 -0.9568
  959MOL0     H26564   5.822   4.608  -0.824 -0.1929  0.0177 -0.7271
  959MOL0     H26565   5.799   4.694  -0.979  3.1527 -0.3206  0.7818
  959MOL0     H26566   5.579   4.779  -0.915  2.4190  2.0473  2.8078
  959MOL0     H26567   5.578   4.610  -0.923  0.3030 -1.1148  0.3130
  959MOL0     H26568   5.603   4.766  -0.668  3.8086 -2.6059  1.2160
  959MOL0     H26569   5.600   4.595  -0.677 -0.8553  1.5263  2.1399
  959MOL0     H26570   6.467   4.626  -0.439  1.5168 -0.5075 -0.9802
  959MOL0     H26571   6.525   4.427  -0.308  0.5060  2.1130  0.6427
  959MOL0     H26572   6.306   3.825  -0.310 -0.5606  1.4365 -0.5092
  959MOL0     H26573   6.327   3.670  -0.137 -0.0181  0.5454  0.6169
  959MOL0     H26574   6.340   4.113   0.841 -0.7253 -2.8486 -0.1113
  959MOL0     H26575   6.088   4.035   0.781 -1.5967 -0.7036  1.1477
  959MOL0     H26576   5.513   4.169   1.055 -1.8235 -1.8526  0.3047
  959MOL0     H26577   5.306   4.115   0.957  1.4614  1.2112  1.9102
  959MOL0     H26578   5.308   3.901   0.528  1.0621 -0.1293  2.2926
  959MOL0     H26579   5.321   4.073   0.499 -0.4466  0.8068  0.5478
  959MOL0     H26580   5.063   3.932   0.591 -0.8506  0.8795  0.3487
  959MOL0     H26581   5.068   4.088   0.501 -0.7639 -0.6657 -0.9643
  959MOL0     H26582   5.167   3.826   0.380 -1.3053 -1.9439 -0.4617
  959MOL0     H26583   5.179   3.983   0.311 -0.1434  0.6957  1.2595
  959MOL0     H26584   4.965   3.835   0.230  2.0862 -0.1541 -0.0774
  959MOL0     H26585   4.908   3.867   0.399  1.3059  3.6035  0.5644
  959MOL0     H26586   4.796   4.231   0.260 -0.9805  0.1187  0.9681
  959MOL0     H26587   5.519   3.983   0.587  1.1590 -1.2545 -0.9095
  959MOL0     H26588   5.729   4.025   0.702 -0.6794  1.1975 -2.7351
  960MOL0     O26589   0.796   6.852   3.017  0.3698 -0.0323  0.5543
  960MOL0     C26590   0.827   6.861   2.899 -0.2175 -0.5541 -0.3096
  960MOL0     O26591   0.839   6.753   2.810 -0.0719 -0.1237  0.1721
  960MOL0     C26592   0.786   6.630   2.859  0.8597 -0.3273 -0.5727
  960MOL0     C26593   0.654   6.627   2.909  0.4388  0.0804  0.1701
  960MOL0     C26594   0.596   6.503   2.953  0.4865 -0.0850 -0.9486
  960MOL0     C26595   0.676   6.392   2.947  0.2871 -0.3272  0.2194
  960MOL0     O26596   0.617   6.272   2.972  0.7486  1.0900  0.1263
  960MOL0     C26597   0.705   6.165   3.019 -1.1222  0.0078  0.1223
  960MOL0     C26598   0.630   6.070   3.110  0.3114  0.1674  0.8418
  960MOL0     C26599   0.571   6.143   3.238 -0.2603  0.5990  0.4602
  960MOL0     C26600   0.512   6.039   3.332 -0.5692  0.6624 -0.6301
  960MOL0     C26601   0.442   6.110   3.450 -0.5428  0.7124 -0.4624
  960MOL0     C26602   0.371   6.020   3.556 -0.0606 -0.3416  0.3935
  960MOL0     C26603   0.460   5.923   3.631  0.8475 -0.6504  0.1800
  960MOL0     C26604   0.557   5.992   3.710 -0.8380 -0.3765  0.2069
  960MOL0     N26605   0.594   5.919   3.839  0.8679 -1.5127 -0.0657
  960MOL0     C26606   0.691   5.824   3.858 -1.1026  0.0691  0.3444
  960MOL0     C26607   0.713   5.805   3.993  0.3269 -0.6940  0.0681
  960MOL0     C26608   0.788   5.693   4.060  0.5426 -0.0369 -0.4779
  960MOL0     C26609   0.938   5.676   4.012  0.2578 -0.2393 -0.4203
  960MOL0     C26610   1.021   5.790   4.084  0.9683 -0.5768 -1.0369
  960MOL0     C26611   1.175   5.800   4.054 -0.4762 -0.2425 -0.4368
  960MOL0     O26612   1.246   5.689   4.113 -0.2879  0.1677 -0.4729
  960MOL0     C26613   1.371   5.673   4.070 -1.1251  0.7557 -0.1182
  960MOL0     C26614   1.439   5.551   4.102 -0.9259 -0.5337  0.4831
  960MOL0     C26615   1.578   5.527   4.062 -0.2135 -0.7229 -0.0505
  960MOL0     C26616   1.646   5.616   3.984 -0.4316 -0.9987  0.9528
  960MOL0     C26617   1.779   5.576   3.925 -0.1370 -0.3818 -1.2531
  960MOL0     O26618   1.824   5.673   3.846  0.0734 -0.2605 -0.5595
  960MOL0     C26619   1.931   5.659   3.769 -0.1140  0.4026  0.3835
  960MOL0     C26620   1.933   5.551   3.679 -0.2559 -0.4918 -0.0660
  960MOL0     C26621   2.040   5.535   3.592  1.2214  0.5955  0.2533
  960MOL0     C26622   2.142   5.624   3.581  0.0242  0.3351  0.5751
  960MOL0     O26623   2.231   5.625   3.474 -0.2725  0.5570  0.4116
  960MOL0     C26624   2.313   5.507   3.470 -0.0652  0.1372 -0.1412
  960MOL0     C26625   2.457   5.538   3.528 -0.0936  0.1841  0.2221
  960MOL0     C26626   2.535   5.629   3.435  1.1644  0.2080 -0.2472
  960MOL0     C26627   2.688   5.603   3.455 -0.0172 -0.3432  0.7370
  960MOL0     C26628   2.778   5.698   3.373 -0.4235  0.0736 -0.3449
  960MOL0     C26629   2.767   5.648   3.227  0.2684  0.6228  0.3585
  960MOL0     C26630   2.853   5.738   3.141  0.5812  0.0734 -0.8304
  960MOL0     C26631   2.821   5.732   2.992 -0.3700 -1.3721 -0.1930
  960MOL0    Cl26632   2.798   5.561   2.945 -0.0128  0.4131  0.2135
  960MOL0     C26633   2.150   5.722   3.678  0.2023 -0.2538  0.5121
  960MOL0     C26634   2.038   5.745   3.770 -0.0106  0.0425 -0.5111
  960MOL0     O26635   1.833   5.467   3.950  0.6662  0.2668  0.0869
  960MOL0     C26636   1.583   5.739   3.961  0.1637 -0.1934 -0.1139
  960MOL0     C26637   1.453   5.769   3.999  0.1509 -0.0709 -1.4166
  960MOL0     N26638   0.632   5.898   4.051 -0.9077  0.7292  0.4537
  960MOL0     N26639   0.562   5.961   3.959  0.1569 -0.0039 -0.5386
  960MOL0     C26640   0.809   6.401   2.902 -0.9385 -0.2935 -0.5949
  960MOL0     C26641   0.851   6.515   2.851 -0.0715  0.8139  0.6293
  960MOL0     C26642   0.882   6.981   2.846 -0.6001 -0.5487 -0.3549
  960MOL0     C26643   0.936   7.074   2.935  0.8659  0.3181 -0.5767
  960MOL0     C26644   1.001   7.197   2.895  0.7453  0.2962  0.3765
  960MOL0     C26645   0.999   7.223   2.755 -0.4982 -0.4139  0.5890
  960MOL0     O26646   1.043   7.348   2.717  0.2745  0.2217 -0.5072
  960MOL0     C26647   0.976   7.398   2.604 -0.4837 -0.1672  0.4545
  960MOL0     C26648   0.988   7.551   2.627  0.8686  0.2510 -0.2685
  960MOL0     C26649   0.917   7.583   2.749  0.1910  0.2780  1.2595
  960MOL0     C26650   0.927   7.725   2.787  0.4506 -1.0158  0.2079
  960MOL0     C26651   0.936   7.749   2.928  0.3280 -0.7843 -0.7986
  960MOL0     C26652   0.964   7.774   3.051  0.4175  0.4943 -0.3143
  960MOL0     C26653   0.959   7.127   2.669  0.4312  0.0114  0.4404
  960MOL0     C26654   0.883   7.003   2.708 -1.1974  0.2299 -0.4142
  960MOL0     H26655   0.579   6.705   2.918 -0.0945 -0.3493 -0.5026
  960MOL0     H26656   0.493   6.495   2.986  0.5696 -0.4699 -0.7694
  960MOL0     H26657   0.787   6.210   3.076 -0.5745 -0.3705 -0.3566
  960MOL0     H26658   0.746   6.117   2.930 -1.4741  0.3982 -0.2542
  960MOL0     H26659   0.684   5.977   3.129  0.4639 -0.2000 -1.1564
  960MOL0     H26660   0.539   6.039   3.058  1.1268 -0.5828 -0.1950
  960MOL0     H26661   0.500   6.221   3.210 -2.2882 -0.4505  2.3927
  960MOL0     H26662   0.657   6.187   3.289  1.3754 -2.2483  0.3642
  960MOL0     H26663   0.442   5.979   3.274 -1.6122  0.2850  0.9799
  960MOL0     H26664   0.587   5.965   3.361 -0.9174 -0.9490 -3.4965
  960MOL0     H26665   0.367   6.179   3.411  0.7548  2.0962 -0.6121
  960MOL0     H26666   0.517   6.175   3.495  1.0555 -3.1059  3.0418
  960MOL0     H26667   0.292   5.953   3.521  0.9822 -0.3488 -2.1501
  960MOL0     H26668   0.326   6.086   3.631  1.9146  1.2492  0.2648
  960MOL0     H26669   0.391   5.860   3.687 -1.0145 -1.5375 -2.8594
  960MOL0     H26670   0.517   5.861   3.561 -1.1764 -1.9714 -0.3862
  960MOL0     H26671   0.510   6.086   3.741  0.7875  0.4605  0.2346
  960MOL0     H26672   0.642   6.019   3.646 -0.7450 -1.5358 -0.1930
  960MOL0     H26673   0.735   5.764   3.779 -2.9677 -0.9889  0.0650
  960MOL0     H26674   0.737   5.598   4.043 -1.3648  0.9784 -0.7189
  960MOL0     H26675   0.789   5.710   4.169  5.0028  0.3068 -0.3753
  960MOL0     H26676   0.950   5.683   3.904  0.0893 -0.9872 -0.4868
  960MOL0     H26677   0.968   5.575   4.040  2.7927 -0.9354 -4.7126
  960MOL0     H26678   0.971   5.886   4.066 -1.5205 -1.5668  0.1088
  960MOL0     H26679   1.005   5.789   4.192 -0.4526  2.4883 -1.1001
  960MOL0     H26680   1.212   5.899   4.082  3.3136 -0.9078 -2.3472
  960MOL0     H26681   1.184   5.798   3.944  3.0057  3.3796 -0.4587
  960MOL0     H26682   1.377   5.469   4.138  0.5472 -2.0682 -0.3460
  960MOL0     H26683   1.626   5.437   4.098  0.4511  0.6872  2.9352
  960MOL0     H26684   1.860   5.470   3.680 -0.6779 -0.3878 -4.4720
  960MOL0     H26685   2.026   5.445   3.534 -1.9448  2.4100 -2.1450
  960MOL0     H26686   2.325   5.477   3.365  4.4246 -1.3096  0.5747
  960MOL0     H26687   2.274   5.420   3.524  2.7268 -0.8712  0.4151
  960MOL0     H26688   2.504   5.440   3.541 -0.8980 -0.3559 -0.8085
  960MOL0     H26689   2.458   5.578   3.630 -2.9971 -0.1823  0.4824
  960MOL0     H26690   2.514   5.735   3.455  0.6693  0.7803 -3.2858
  960MOL0     H26691   2.503   5.607   3.333 -2.2308 -1.4330  0.9983
  960MOL0     H26692   2.717   5.613   3.560  3.4877  2.8530 -0.2874
  960MOL0     H26693   2.715   5.501   3.426  1.5927  0.1351  0.4469
  960MOL0     H26694   2.880   5.687   3.411 -1.5909 -2.7885  2.3634
  960MOL0     H26695   2.747   5.803   3.381  1.8236  1.0448 -2.9291
  960MOL0     H26696   2.660   5.649   3.201  0.4996 -0.9706 -0.7966
  960MOL0     H26697   2.802   5.546   3.209  3.3873  1.7171 -0.3883
  960MOL0     H26698   2.861   5.842   3.174  3.8835 -0.1123 -0.7198
  960MOL0     H26699   2.953   5.694   3.151  1.8630  2.7943 -0.7782
  960MOL0     H26700   2.898   5.785   2.934 -2.6032  2.8457  0.2819
  960MOL0     H26701   2.731   5.791   2.974  1.3021  1.2283 -0.7735
  960MOL0     H26702   2.227   5.798   3.669 -0.2762  0.3476  1.3178
  960MOL0     H26703   2.049   5.817   3.850 -1.1397  1.2220 -1.3768
  960MOL0     H26704   1.640   5.823   3.921  0.2384  1.2531  2.7908
  960MOL0     H26705   1.413   5.868   3.983 -1.1458  1.2823  6.4056
  960MOL0     H26706   0.883   6.322   2.893  2.8101  3.0031 -1.7902
  960MOL0     H26707   0.950   6.531   2.810 -0.8398  5.1982 -0.0157
  960MOL0     H26708   0.937   7.063   3.043  1.5124  1.3537 -0.4602
  960MOL0     H26709   1.065   7.256   2.960 -1.3607  1.3871  1.5715
  960MOL0     H26710   0.868   7.386   2.589 -0.2654  1.8037 -4.8798
  960MOL0     H26711   1.027   7.377   2.510 -1.7813  0.9752 -0.5349
  960MOL0     H26712   1.085   7.602   2.629 -0.1958  2.5257 -2.0424
  960MOL0     H26713   0.941   7.612   2.549 -0.0805  2.4518  1.8799
  960MOL0     H26714   0.956   7.520   2.830  3.5308 -0.4996 -0.7663
  960MOL0     H26715   0.813   7.557   2.727 -0.1533  3.8772 -2.5832
  960MOL0     H26716   1.011   7.775   2.739 -0.7848 -2.9486 -4.5624
  960MOL0     H26717   0.838   7.781   2.758  0.9536  0.1990  0.9288
  960MOL0     H26718   1.004   7.791   3.149 -1.1688 -2.4320  0.9946
  960MOL0     H26719   0.980   7.145   2.564  2.2340  1.4930  1.0044
  960MOL0     H26720   0.835   6.939   2.634 -1.3299  0.3565 -0.4386
  961MOL0     O26721  10.364  10.653   4.702  0.5482  0.5358 -0.8831
  961MOL0     C26722  10.349  10.542   4.653 -0.8169 -0.1571 -0.3619
  961MOL0     O26723  10.357  10.426   4.724  0.6675  0.0128  0.2568
  961MOL0     C26724  10.373  10.411   4.861  1.2846  0.5639  0.6197
  961MOL0     C26725  10.323  10.494   4.961  0.2986 -0.6068 -0.6660
  961MOL0     C26726  10.339  10.468   5.098 -0.4258  0.6965  0.5482
  961MOL0     C26727  10.394  10.349   5.135  0.2846 -0.1322 -0.1992
  961MOL0     O26728  10.411  10.314   5.265 -0.7241 -0.2247  0.1272
  961MOL0     C26729  10.324  10.360   5.365  0.6644  0.1040 -0.3733
  961MOL0     C26730  10.387  10.478   5.441  0.0585  0.1031  0.0804
  961MOL0     C26731  10.473  10.430   5.567 -0.3517  0.1052  0.1163
  961MOL0     C26732  10.536  10.545   5.657 -0.0357  0.2232 -0.1192
  961MOL0     C26733  10.679  10.561   5.617 -0.6378  0.1051  0.6624
  961MOL0     C26734  10.744  10.688   5.687 -0.5030  0.5342  0.0671
  961MOL0     C26735  10.896  10.686   5.658  0.2040  0.8521 -0.9765
  961MOL0     C26736  10.945  10.723   5.516  0.8494  0.1627 -0.0637
  961MOL0     N26737  11.091  10.734   5.510 -0.3376 -0.5415  0.1975
  961MOL0     C26738  11.164  10.649   5.428 -0.5626  0.1645  0.2074
  961MOL0     C26739  11.290  10.698   5.448  0.7634 -0.9208  0.4984
  961MOL0     C26740  11.413  10.646   5.377  0.4228 -0.5728 -0.2047
  961MOL0     C26741  11.403  10.701   5.238  0.6550  0.4903  1.0114
  961MOL0     C26742  11.531  10.680   5.154 -0.0934 -0.7280  0.0783
  961MOL0     C26743  11.514  10.725   5.008 -1.1145 -0.1589 -0.3128
  961MOL0     O26744  11.421  10.646   4.927 -0.5064 -0.3635 -0.6910
  961MOL0     C26745  11.445  10.645   4.792  0.1915 -0.6349 -0.7695
  961MOL0     C26746  11.436  10.757   4.714 -0.3833  0.4397 -0.1166
  961MOL0     C26747  11.450  10.735   4.575 -0.5796 -0.1104 -0.9689
  961MOL0     C26748  11.468  10.605   4.517 -1.4264 -0.3694 -0.8535
  961MOL0     C26749  11.482  10.605   4.367 -0.0102  0.7257 -0.7327
  961MOL0     O26750  11.431  10.712   4.295 -0.6992 -0.5510 -0.0140
  961MOL0     C26751  11.397  10.678   4.160 -0.4284 -0.3312 -0.4182
  961MOL0     C26752  11.489  10.708   4.067  0.4702 -0.2973 -0.3074
  961MOL0     C26753  11.464  10.695   3.933 -0.3056  1.0150 -0.6868
  961MOL0     C26754  11.337  10.664   3.892  0.0252 -1.0118 -0.4291
  961MOL0     O26755  11.340  10.642   3.757 -0.5463  0.1099 -0.9597
  961MOL0     C26756  11.235  10.705   3.677 -0.0289  0.2764 -1.1366
  961MOL0     C26757  11.221  10.860   3.702  0.6037  0.6181  0.5525
  961MOL0     C26758  11.155  10.929   3.584  0.0294 -0.2488  0.2394
  961MOL0     C26759  11.158  11.078   3.603  0.2648 -0.0096  0.2595
  961MOL0     C26760  11.076  11.140   3.490  0.7333 -0.4161 -1.2099
  961MOL0     C26761  11.139  11.158   3.354  1.1107 -0.4750  0.0098
  961MOL0     C26762  11.241  11.275   3.365  0.1117  0.8481  0.7312
  961MOL0     C26763  11.344  11.276   3.250 -0.2656  0.5753  0.1525
  961MOL0    Cl26764  11.459  11.409   3.290 -0.3203  0.1974  0.3768
  961MOL0     C26765  11.233  10.644   3.977 -0.8435 -0.1961  0.0621
  961MOL0     C26766  11.265  10.661   4.113  0.8982 -0.3821 -0.8246
  961MOL0     O26767  11.537  10.506   4.316  0.1652 -1.0544 -1.0950
  961MOL0     C26768  11.477  10.496   4.606 -0.6043  0.3076 -0.6209
  961MOL0     C26769  11.458  10.513   4.744 -0.8240 -0.6369 -0.0568
  961MOL0     N26770  11.291  10.799   5.540  0.5425  0.4056 -0.0988
  961MOL0     N26771  11.165  10.828   5.577  0.3860 -0.0106  0.4191
  961MOL0     C26772  10.422  10.255   5.037 -0.9692 -0.3391  0.6118
  961MOL0     C26773  10.415  10.285   4.901  0.5310  0.2067  0.4714
  961MOL0     C26774  10.346  10.531   4.510 -0.1660  0.4455 -0.5911
  961MOL0     C26775  10.332  10.644   4.429 -0.3214 -0.0776 -0.5422
  961MOL0     C26776  10.329  10.634   4.291  0.5700  0.1563 -0.8987
  961MOL0     C26777  10.347  10.519   4.223 -0.2309 -0.5802 -1.1892
  961MOL0     O26778  10.340  10.524   4.087  0.0668  0.2363 -0.5257
  961MOL0     C26779  10.408  10.417   4.024  0.3490 -0.0671 -0.0126
  961MOL0     C26780  10.418  10.440   3.874  0.0810 -0.5052 -0.4384
  961MOL0     C26781  10.487  10.319   3.804  0.9706 -0.6220  0.1006
  961MOL0     C26782  10.408  10.192   3.798  0.0617  0.0186  0.0705
  961MOL0     C26783  10.441  10.118   3.681  0.3423  0.1324  0.1675
  961MOL0     C26784  10.475  10.059   3.573  0.3994  0.1613  0.2288
  961MOL0     C26785  10.353  10.402   4.305 -0.1471  0.4685 -0.4593
  961MOL0     C26786  10.349  10.406   4.437  0.6697  0.0976 -1.1502
  961MOL0     H26787  10.292  10.592   4.925  1.0534 -0.1571 -0.1175
  961MOL0     H26788  10.325  10.544   5.175 -0.4287  1.8728 -0.5781
  961MOL0     H26789  10.295  10.273   5.424  0.2706 -1.0820 -2.2337
  961MOL0     H26790  10.227  10.384   5.321 -1.0175 -2.1128  1.8551
  961MOL0     H26791  10.307  10.540   5.481  0.1682 -0.7568  1.6811
  961MOL0     H26792  10.451  10.532   5.370  3.1083 -1.6107  1.3191
  961MOL0     H26793  10.555  10.362   5.543 -0.3117 -0.2603  1.2451
  961MOL0     H26794  10.413  10.378   5.642  1.1405 -1.8605  0.0284
  961MOL0     H26795  10.492  10.644   5.642 -0.2173  0.2189  0.3636
  961MOL0     H26796  10.522  10.517   5.762  0.8087 -1.0175 -0.3116
  961MOL0     H26797  10.679  10.575   5.509 -0.3824 -2.5865  0.2422
  961MOL0     H26798  10.737  10.477   5.656  1.5351  1.5354  0.6825
  961MOL0     H26799  10.736  10.682   5.796  1.0392 -0.2374  0.1710
  961MOL0     H26800  10.700  10.782   5.654 -4.4259 -0.2282  2.5068
  961MOL0     H26801  10.944  10.752   5.731 -1.9643  1.0036  0.3915
  961MOL0     H26802  10.938  10.590   5.689 -0.0283  1.0340 -0.0742
  961MOL0     H26803  10.905  10.818   5.481  1.7658  1.0966  1.3066
  961MOL0     H26804  10.923  10.640   5.448  2.7441 -0.2679 -0.2244
  961MOL0     H26805  11.142  10.568   5.360 -1.7228 -0.9660  1.8386
  961MOL0     H26806  11.411  10.537   5.388 -3.6402 -0.4657  1.9254
  961MOL0     H26807  11.506  10.684   5.421  2.4475 -4.1290 -0.9986
  961MOL0     H26808  11.385  10.808   5.249 -3.0595 -0.0620  1.4498
  961MOL0     H26809  11.324  10.649   5.184  4.0272 -1.2585 -2.8290
  961MOL0     H26810  11.604  10.748   5.200  0.9897 -1.5903 -0.3139
  961MOL0     H26811  11.558  10.574   5.157 -3.0097 -1.5512 -0.2476
  961MOL0     H26812  11.612  10.717   4.960 -0.8970 -2.7672  0.4431
  961MOL0     H26813  11.487  10.831   5.000  1.1597  0.3620 -2.8356
  961MOL0     H26814  11.418  10.858   4.750 -1.5877 -0.2590  1.3143
  961MOL0     H26815  11.431  10.828   4.523 -0.6981  0.9591  0.8749
  961MOL0     H26816  11.588  10.719   4.110 -0.5878  0.6408  2.0778
  961MOL0     H26817  11.546  10.718   3.866  0.7310  1.7275  0.7630
  961MOL0     H26818  11.139  10.652   3.682  1.3034 -2.2512  0.1974
  961MOL0     H26819  11.265  10.680   3.575 -3.6380 -4.0016 -1.4781
  961MOL0     H26820  11.319  10.907   3.713 -0.3780  2.6640  1.1583
  961MOL0     H26821  11.167  10.878   3.796  0.9806  0.0850  0.8751
  961MOL0     H26822  11.052  10.894   3.572  0.4025 -0.7592 -1.8918
  961MOL0     H26823  11.195  10.908   3.484 -3.4723 -1.0321 -1.1560
  961MOL0     H26824  11.121  11.124   3.694  0.7171 -0.1678  0.5280
  961MOL0     H26825  11.264  11.103   3.588  0.0195 -0.5949 -3.2898
  961MOL0     H26826  11.046  11.240   3.521 -0.8098 -0.9291 -0.9959
  961MOL0     H26827  10.980  11.089   3.490 -0.8815  2.3854  0.4485
  961MOL0     H26828  11.065  11.179   3.275  0.5937 -3.5219 -0.4351
  961MOL0     H26829  11.184  11.061   3.332 -0.2889 -0.7117 -2.0894
  961MOL0     H26830  11.175  11.361   3.378 -1.2184  0.0705 -0.5241
  961MOL0     H26831  11.299  11.248   3.454  1.5757  0.7308 -0.2249
  961MOL0     H26832  11.316  11.254   3.147  2.2365  0.2890 -0.5236
  961MOL0     H26833  11.398  11.181   3.261 -1.7670 -0.3335 -0.0317
  961MOL0     H26834  11.141  10.610   3.932 -0.8072  0.7960 -0.7974
  961MOL0     H26835  11.179  10.665   4.179 -1.2009  2.6804 -3.4154
  961MOL0     H26836  11.501  10.400   4.563 -0.6878  0.6650 -1.4717
  961MOL0     H26837  11.451  10.432   4.816  0.8786  0.2614  1.1816
  961MOL0     H26838  10.445  10.154   5.068  1.2809  0.5470  2.1631
  961MOL0     H26839  10.441  10.207   4.831  0.4168  0.4762  0.1262
  961MOL0     H26840  10.346  10.740   4.479  0.4629 -0.7579  0.6187
  961MOL0     H26841  10.322  10.729   4.238 -1.9696  1.8019  2.0221
  961MOL0     H26842  10.351  10.324   4.037  0.6153 -0.1019  1.0155
  961MOL0     H26843  10.506  10.409   4.072 -0.0000 -0.8944  0.5944
  961MOL0     H26844  10.315  10.448   3.839 -1.5417 -4.4725  2.6216
  961MOL0     H26845  10.481  10.529   3.873  1.3515 -1.3607  0.2373
  961MOL0     H26846  10.579  10.300   3.860  0.4954  0.0462  1.1568
  961MOL0     H26847  10.519  10.347   3.704 -1.4739  1.4768 -0.1980
  961MOL0     H26848  10.421  10.137   3.892 -2.5797 -0.9898 -0.0647
  961MOL0     H26849  10.306  10.226   3.776  0.8009  0.2434 -3.6341
  961MOL0     H26850  10.486  10.000   3.485  1.7055  0.0063  0.4789
  961MOL0     H26851  10.350  10.307   4.253  3.1378 -0.9936  1.7123
  961MOL0     H26852  10.352  10.311   4.489  0.7814 -0.3829 -2.0134
  962MOL0     O26853   5.460  10.881   2.330 -0.8033  0.3826 -0.8202
  962MOL0     C26854   5.574  10.863   2.363  0.0002  0.1838 -0.2594
  962MOL0     O26855   5.681  10.902   2.290 -0.5185 -0.0363 -0.8120
  962MOL0     C26856   5.669  10.963   2.166 -0.3264 -0.5615  0.1904
  962MOL0     C26857   5.737  11.083   2.138  0.3535  0.2433 -0.1282
  962MOL0     C26858   5.742  11.136   2.006 -0.7915 -0.5979  0.4490
  962MOL0     C26859   5.674  11.075   1.902  0.4861  0.3447  0.1970
  962MOL0     O26860   5.643  11.127   1.778 -0.5232  0.6106 -0.0352
  962MOL0     C26861   5.741  11.214   1.724 -0.0453 -0.9779  0.7310
  962MOL0     C26862   5.831  11.152   1.621 -0.0498  0.0429  1.1719
  962MOL0     C26863   5.782  11.086   1.493  0.1751  0.5438 -0.6060
  962MOL0     C26864   5.689  11.192   1.426  0.5385 -0.4973 -0.1764
  962MOL0     C26865   5.760  11.318   1.379  0.1430  0.2364 -1.2918
  962MOL0     C26866   5.886  11.295   1.295 -0.1066  0.0660 -0.4609
  962MOL0     C26867   5.951  11.426   1.257 -0.3303  0.8510 -0.5440
  962MOL0     C26868   6.059  11.405   1.141  0.0523 -0.2459  0.7882
  962MOL0     N26869   6.158  11.303   1.171 -0.1402 -0.1627  0.2854
  962MOL0     C26870   6.215  11.223   1.074  0.2987 -1.0124 -0.4910
  962MOL0     C26871   6.311  11.153   1.143  0.7494  0.1957 -0.4040
  962MOL0     C26872   6.415  11.055   1.098 -1.1867 -0.4786 -0.0974
  962MOL0     C26873   6.441  10.926   1.171 -0.1230 -0.3690  0.2749
  962MOL0     C26874   6.563  10.840   1.135 -0.4574 -0.1454  0.5420
  962MOL0     C26875   6.604  10.842   0.987  0.4856  0.0556 -0.4786
  962MOL0     O26876   6.520  10.767   0.901 -0.2209  0.7223  0.3317
  962MOL0     C26877   6.574  10.753   0.771  0.3194  0.1187  0.5682
  962MOL0     C26878   6.663  10.649   0.734  0.0518 -0.1211  0.6033
  962MOL0     C26879   6.705  10.622   0.605  0.5138 -0.0671 -0.2285
  962MOL0     C26880   6.676  10.718   0.509 -0.2156 -0.0941 -0.1316
  962MOL0     C26881   6.745  10.714   0.382 -0.1657  0.5142  0.1713
  962MOL0     O26882   6.710  10.821   0.303  0.6211 -0.2493 -0.4222
  962MOL0     C26883   6.743  10.833   0.169 -0.3109  0.3823  0.1138
  962MOL0     C26884   6.750  10.716   0.090 -0.2848 -0.3215 -0.1390
  962MOL0     C26885   6.790  10.727  -0.041 -0.2404 -0.3145  0.0095
  962MOL0     C26886   6.832  10.852  -0.097 -0.2053  0.8560 -0.8868
  962MOL0     O26887   6.861  10.865  -0.231 -0.0492 -0.5695  0.6643
  962MOL0     C26888   6.895  10.759  -0.308  1.0374  0.0447 -0.0704
  962MOL0     C26889   6.968  10.815  -0.431 -0.3353 -0.7738  0.8559
  962MOL0     C26890   7.109  10.856  -0.392  0.5438 -0.4743  0.0510
  962MOL0     C26891   7.197  10.887  -0.509 -0.4544  1.1134  0.0241
  962MOL0     C26892   7.152  11.013  -0.580 -0.1406  0.2465 -0.4498
  962MOL0     C26893   7.240  11.048  -0.704 -0.7864 -0.5178  0.4876
  962MOL0     C26894   7.374  11.112  -0.670  0.6603  1.0168 -0.0740
  962MOL0     C26895   7.447  11.177  -0.792  0.2348  0.1619 -0.4637
  962MOL0    Cl26896   7.585  11.260  -0.706  0.2317  0.3211  0.2720
  962MOL0     C26897   6.839  10.970  -0.016  0.7166  0.1274 -0.0405
  962MOL0     C26898   6.785  10.961   0.113 -0.5269 -0.6268 -0.5190
  962MOL0     O26899   6.829  10.630   0.356 -0.2395 -0.1778  0.5952
  962MOL0     C26900   6.593  10.831   0.542  0.7720  0.9132  0.0475
  962MOL0     C26901   6.546  10.851   0.671  0.0841  0.1537 -0.1339
  962MOL0     N26902   6.293  11.180   1.280 -0.1195  0.6115 -0.8852
  962MOL0     N26903   6.200  11.266   1.295 -0.5536 -0.5006 -0.2919
  962MOL0     C26904   5.604  10.958   1.935 -0.3479  0.1611 -0.6090
  962MOL0     C26905   5.601  10.899   2.064 -0.3903  0.5843  1.0319
  962MOL0     C26906   5.607  10.806   2.482 -0.6863  0.2778 -0.8756
  962MOL0     C26907   5.724  10.835   2.545 -0.6432 -0.3158 -0.2434
  962MOL0     C26908   5.771  10.760   2.651 -0.4577 -0.1236 -0.1919
  962MOL0     C26909   5.702  10.656   2.702  0.0674  0.1039 -0.1369
  962MOL0     O26910   5.775  10.582   2.791  0.1824 -0.3779  0.0693
  962MOL0     C26911   5.760  10.438   2.795 -0.2889  0.3624  0.2687
  962MOL0     C26912   5.850  10.377   2.904  0.5712  0.1860  0.0926
  962MOL0     C26913   6.002  10.393   2.905 -1.5259 -0.4368 -0.7945
  962MOL0     C26914   6.081  10.317   2.799  0.4020  0.3413 -0.3120
  962MOL0     C26915   6.107  10.186   2.848 -1.1405  0.1137 -1.7381
  962MOL0     C26916   6.127  10.083   2.905  0.5441  0.4197  0.7033
  962MOL0     C26917   5.571  10.635   2.660  0.0312 -0.3937  0.2399
  962MOL0     C26918   5.526  10.706   2.547  0.3766  0.4396 -0.3005
  962MOL0     H26919   5.800  11.127   2.215  0.6597 -1.0763  0.4090
  962MOL0     H26920   5.792  11.233   2.001  1.4326 -1.7545 -1.5182
  962MOL0     H26921   5.801  11.275   1.792 -0.5693  2.9029 -1.9540
  962MOL0     H26922   5.680  11.293   1.679 -1.0173 -2.5135 -0.8014
  962MOL0     H26923   5.880  11.075   1.681  2.9399  1.1881  0.3483
  962MOL0     H26924   5.904  11.232   1.606 -0.6640  0.5722  0.9169
  962MOL0     H26925   5.729  10.991   1.504  0.0019  0.6712 -0.3078
  962MOL0     H26926   5.864  11.059   1.426 -1.5109 -2.8994 -1.4774
  962MOL0     H26927   5.647  11.146   1.337  1.0546 -0.2315 -0.5641
  962MOL0     H26928   5.610  11.219   1.497  0.5235 -1.0154  0.0096
  962MOL0     H26929   5.796  11.356   1.475 -0.0194 -1.6666 -0.4448
  962MOL0     H26930   5.687  11.387   1.335 -0.4033  0.4125 -0.1422
  962MOL0     H26931   5.861  11.251   1.198 -2.4965 -0.7526  0.4534
  962MOL0     H26932   5.954  11.225   1.345  1.8901  1.8129 -0.5951
  962MOL0     H26933   5.873  11.493   1.219 -3.9959 -1.8293  1.5529
  962MOL0     H26934   5.999  11.477   1.341  0.4917 -0.1789 -0.3701
  962MOL0     H26935   6.120  11.494   1.125  1.6583 -1.5337 -0.5221
  962MOL0     H26936   6.013  11.389   1.043 -0.2299 -1.2951  1.0793
  962MOL0     H26937   6.183  11.238   0.972  0.0110  1.8764 -0.0664
  962MOL0     H26938   6.502  11.120   1.106 -2.4506  1.2266  0.3455
  962MOL0     H26939   6.396  11.042   0.991 -0.1600  0.5664 -0.4323
  962MOL0     H26940   6.355  10.866   1.144  1.5578 -2.2249 -1.2333
  962MOL0     H26941   6.444  10.940   1.280  0.4701 -2.0639  0.5077
  962MOL0     H26942   6.652  10.880   1.185  0.7727  1.1127 -2.4547
  962MOL0     H26943   6.549  10.742   1.181  2.3426 -0.6185  0.5343
  962MOL0     H26944   6.707  10.806   0.984  1.4712  2.2009  2.6706
  962MOL0     H26945   6.597  10.946   0.955  0.7130 -0.0395 -0.8544
  962MOL0     H26946   6.681  10.587   0.821 -3.6483  0.3667  1.9197
  962MOL0     H26947   6.776  10.543   0.586 -0.0583 -0.8996  0.9985
  962MOL0     H26948   6.708  10.621   0.121  0.8006 -0.6847  0.2643
  962MOL0     H26949   6.793  10.639  -0.104  2.7309  0.3068 -0.8774
  962MOL0     H26950   6.800  10.717  -0.344  0.3961  0.3078  1.2394
  962MOL0     H26951   6.947  10.673  -0.266 -2.0190 -0.5476  2.9647
  962MOL0     H26952   6.921  10.909  -0.462  2.3252  0.0057 -1.1199
  962MOL0     H26953   6.964  10.734  -0.505 -1.4413  0.3540 -0.4053
  962MOL0     H26954   7.149  10.768  -0.341  0.1838 -1.4993 -1.3628
  962MOL0     H26955   7.102  10.946  -0.330 -1.4778 -0.7440  0.2827
  962MOL0     H26956   7.299  10.901  -0.472 -0.3824  0.2775  0.1623
  962MOL0     H26957   7.201  10.804  -0.580 -0.3180  0.7681  0.4328
  962MOL0     H26958   7.164  11.084  -0.498 -2.9685  0.0570  0.2201
  962MOL0     H26959   7.046  11.010  -0.607 -0.3227 -2.5304  0.2160
  962MOL0     H26960   7.171  11.109  -0.764  2.3465  0.2061 -2.7050
  962MOL0     H26961   7.284  10.967  -0.763  1.7895  0.7142  0.5942
  962MOL0     H26962   7.352  11.187  -0.594 -2.1793  1.2650 -1.0341
  962MOL0     H26963   7.428  11.027  -0.629 -3.4208 -2.3451 -1.0117
  962MOL0     H26964   7.380  11.252  -0.835 -2.1222 -0.4519  1.8539
  962MOL0     H26965   7.477  11.103  -0.867  2.1070  0.3768  0.0187
  962MOL0     H26966   6.851  11.072  -0.050 -2.3057  0.9384  0.9775
  962MOL0     H26967   6.778  11.061   0.155  5.0175 -0.9129  1.9107
  962MOL0     H26968   6.570  10.907   0.468 -0.0634 -1.3139 -2.0917
  962MOL0     H26969   6.489  10.943   0.684  2.3687  1.8231 -1.1663
  962MOL0     H26970   5.556  10.918   1.846  3.8985  0.3309 -3.2326
  962MOL0     H26971   5.541  10.813   2.090  2.2910 -1.3124  1.3228
  962MOL0     H26972   5.792  10.914   2.515  0.0839 -1.6397 -2.2678
  962MOL0     H26973   5.865  10.782   2.700 -1.8709  0.0421  2.6494
  962MOL0     H26974   5.797  10.400   2.699  1.0718 -0.5522  1.1269
  962MOL0     H26975   5.658  10.403   2.816  0.7198 -4.1293 -1.3247
  962MOL0     H26976   5.826  10.422   3.001  1.8515 -2.3908  1.7484
  962MOL0     H26977   5.827  10.270   2.915  0.5389  0.2781  1.0263
  962MOL0     H26978   6.046  10.365   3.001 -1.4454 -3.1060 -1.5462
  962MOL0     H26979   6.044  10.494   2.890  1.7191 -1.6369 -0.6938
  962MOL0     H26980   6.029  10.304   2.704  1.6003  1.2191 -1.1080
  962MOL0     H26981   6.170  10.375   2.772 -0.8671  2.8011  0.5429
  962MOL0     H26982   6.124   9.995   2.966  0.0738 -0.0215  0.0601
  962MOL0     H26983   5.500  10.559   2.691  0.6006 -0.6099  1.0656
  962MOL0     H26984   5.428  10.692   2.502  0.6649 -2.8868 -0.1202
  963MOL0     O26985   0.906   5.731   3.633 -0.1249  0.3633  0.9111
  963MOL0     C26986   0.925   5.608   3.636  0.5831  0.6915  0.3107
  963MOL0     O26987   0.856   5.511   3.583 -0.0701 -0.6788 -0.4040
  963MOL0     C26988   0.741   5.541   3.509 -1.3097 -0.2158 -1.1318
  963MOL0     C26989   0.620   5.573   3.567 -0.4231  0.3336  0.2178
  963MOL0     C26990   0.502   5.619   3.498  0.1205  0.4633 -0.3974
  963MOL0     C26991   0.513   5.640   3.362  0.6630 -0.1903  0.8508
  963MOL0     O26992   0.396   5.683   3.303 -0.2058  0.3490  0.0884
  963MOL0     C26993   0.368   5.656   3.168 -0.4882  0.5583 -0.1316
  963MOL0     C26994   0.224   5.599   3.155  0.1918 -0.7168  0.1074
  963MOL0     C26995   0.226   5.446   3.161  0.8302 -0.8757 -0.0976
  963MOL0     C26996   0.290   5.375   3.286  1.4627  0.0184 -0.2684
  963MOL0     C26997   0.273   5.221   3.271 -0.7191 -0.0499 -0.3507
  963MOL0     C26998   0.338   5.133   3.388  0.2414  0.2934  0.4916
  963MOL0     C26999   0.483   5.146   3.412  0.6674 -0.8749  0.6602
  963MOL0     C27000   0.535   5.053   3.517 -0.9640 -0.1226 -0.7931
  963MOL0     N27001   0.684   5.049   3.525  0.8607 -0.0434  0.5391
  963MOL0     C27002   0.775   5.149   3.505  0.0578 -0.6008 -0.2906
  963MOL0     C27003   0.897   5.085   3.505  0.6300 -0.0944 -0.2330
  963MOL0     C27004   1.030   5.149   3.477  0.3648 -0.2515 -0.8666
  963MOL0     C27005   1.021   5.270   3.382 -0.5928  0.1377  0.1093
  963MOL0     C27006   1.165   5.312   3.340  1.1873 -0.4925  0.3649
  963MOL0     C27007   1.142   5.432   3.244 -1.1213  0.6360  1.5943
  963MOL0     O27008   1.107   5.394   3.111 -0.8583 -0.1981 -0.3713
  963MOL0     C27009   1.137   5.485   3.021 -0.5282  0.4084 -0.0668
  963MOL0     C27010   1.038   5.524   2.945 -0.5127 -0.3835  0.6038
  963MOL0     C27011   1.060   5.614   2.841  0.7962 -0.5899  0.4936
  963MOL0     C27012   1.189   5.641   2.802  0.2878 -0.9395  0.9451
  963MOL0     C27013   1.232   5.728   2.681 -0.1280 -0.2298  0.2609
  963MOL0     O27014   1.366   5.742   2.667  0.2024  0.2963 -0.0325
  963MOL0     C27015   1.422   5.847   2.597  0.0910  0.7054 -0.1751
  963MOL0     C27016   1.363   5.975   2.608  0.0992 -0.1330 -0.3575
  963MOL0     C27017   1.417   6.067   2.520  0.9664 -0.5939  0.1201
  963MOL0     C27018   1.522   6.049   2.432 -0.8241 -0.6279  0.7998
  963MOL0     O27019   1.542   6.153   2.346  0.8906  0.5161  0.0188
  963MOL0     C27020   1.673   6.180   2.307  0.1901 -0.3869 -0.0668
  963MOL0     C27021   1.675   6.279   2.193  0.3878  0.3057 -0.2537
  963MOL0     C27022   1.826   6.286   2.131 -0.9241 -0.4269 -0.2898
  963MOL0     C27023   1.825   6.312   1.974  0.9892  0.2005  0.4189
  963MOL0     C27024   1.779   6.192   1.890 -0.5136  0.9426  0.5535
  963MOL0     C27025   1.805   6.210   1.742  0.0057 -0.9445  0.4945
  963MOL0     C27026   1.764   6.080   1.673  0.6767 -1.1752  0.2839
  963MOL0     C27027   1.888   6.017   1.609 -0.1995 -0.0175  0.1398
  963MOL0    Cl27028   1.834   5.875   1.526 -0.6379  0.3712 -0.6261
  963MOL0     C27029   1.580   5.919   2.423  0.6560 -0.4735 -0.6558
  963MOL0     C27030   1.532   5.821   2.514  0.1845 -0.1286  0.2244
  963MOL0     O27031   1.148   5.780   2.606  0.1752 -0.1152  0.0186
  963MOL0     C27032   1.293   5.595   2.882  0.3136  0.1977 -0.0249
  963MOL0     C27033   1.271   5.509   2.992 -0.1398 -0.7722 -0.0015
  963MOL0     N27034   0.873   4.946   3.518  0.3248 -1.0750 -0.4924
  963MOL0     N27035   0.743   4.927   3.532 -0.6130  0.1983 -0.4616
  963MOL0     C27036   0.637   5.618   3.307  0.5492 -0.3745 -0.2996
  963MOL0     C27037   0.750   5.563   3.372  0.2337  0.3048 -0.3280
  963MOL0     C27038   1.063   5.562   3.678 -0.1294 -0.0434  0.4208
  963MOL0     C27039   1.086   5.429   3.713 -0.0522  0.0245 -0.6492
  963MOL0     C27040   1.216   5.387   3.739 -0.0541 -0.5783 -0.3531
  963MOL0     C27041   1.322   5.476   3.734 -0.2541  0.1239  0.0305
  963MOL0     O27042   1.450   5.438   3.742  0.4362  0.3641  0.1956
  963MOL0     C27043   1.483   5.308   3.798 -0.5203  0.2528  0.7970
  963MOL0     C27044   1.618   5.252   3.743 -0.6424 -0.0721 -0.6778
  963MOL0     C27045   1.623   5.246   3.591 -0.4226  0.5817 -0.6094
  963MOL0     C27046   1.497   5.191   3.514 -0.3833  0.0954  0.9124
  963MOL0     C27047   1.446   5.070   3.574 -0.7845  0.5446  0.6957
  963MOL0     C27048   1.402   4.968   3.628 -0.8780  0.4734  0.4201
  963MOL0     C27049   1.298   5.611   3.702  1.0337  0.6458  0.1324
  963MOL0     C27050   1.169   5.656   3.675  0.0862  0.1572  0.0631
  963MOL0     H27051   0.612   5.553   3.673  1.0002  2.3986  0.7802
  963MOL0     H27052   0.412   5.625   3.558 -2.1944  2.1008 -3.7730
  963MOL0     H27053   0.440   5.582   3.132  0.4082  1.3065  0.0909
  963MOL0     H27054   0.381   5.748   3.110 -0.4564  0.8884  0.3886
  963MOL0     H27055   0.174   5.627   3.062 -0.7818 -1.8187  0.2740
  963MOL0     H27056   0.163   5.633   3.239 -1.1408 -0.5790 -0.8877
  963MOL0     H27057   0.279   5.396   3.079  0.8896  3.0841 -2.7590
  963MOL0     H27058   0.119   5.426   3.147 -0.8621  6.8007 -3.1139
  963MOL0     H27059   0.394   5.396   3.311  3.2849 -2.7211 -4.5173
  963MOL0     H27060   0.236   5.422   3.369  0.7214 -0.4006 -0.5054
  963MOL0     H27061   0.319   5.182   3.179  0.1692 -0.5012  0.2719
  963MOL0     H27062   0.166   5.201   3.279 -0.7150  0.1018  0.1203
  963MOL0     H27063   0.323   5.026   3.374 -0.8915  0.4671  0.1933
  963MOL0     H27064   0.293   5.162   3.483  2.9938 -0.1333  2.0276
  963MOL0     H27065   0.530   5.123   3.316 -0.0176 -0.6150  0.2574
  963MOL0     H27066   0.530   5.242   3.438  1.9499 -2.1960  3.7811
  963MOL0     H27067   0.510   4.948   3.502  1.2076 -1.0181  1.2207
  963MOL0     H27068   0.505   5.080   3.619  2.4407  0.0866  0.2538
  963MOL0     H27069   0.760   5.254   3.484  0.5764 -0.5383 -0.3680
  963MOL0     H27070   1.098   5.078   3.430  2.7977  1.4686 -0.1088
  963MOL0     H27071   1.083   5.176   3.569  4.7093 -2.9971 -2.2599
  963MOL0     H27072   0.965   5.352   3.427  1.2976  1.4069  0.2612
  963MOL0     H27073   0.961   5.234   3.298 -1.9743 -3.3455  2.3019
  963MOL0     H27074   1.220   5.346   3.428 -0.6733  0.1937  1.3118
  963MOL0     H27075   1.228   5.234   3.296  1.4452  0.3444 -0.7860
  963MOL0     H27076   1.242   5.477   3.249  0.6731 -2.5856 -1.1507
  963MOL0     H27077   1.075   5.510   3.281  0.9108  1.6212  3.4189
  963MOL0     H27078   0.936   5.505   2.976 -0.7105  0.1683  0.3002
  963MOL0     H27079   0.987   5.646   2.767 -0.1644 -1.0747  1.2135
  963MOL0     H27080   1.280   5.993   2.676  0.1367  0.0438 -0.3587
  963MOL0     H27081   1.361   6.160   2.516  2.6019  0.5105  1.5215
  963MOL0     H27082   1.717   6.088   2.267  0.8086 -0.9047  1.6711
  963MOL0     H27083   1.729   6.214   2.395  0.6470 -0.3583 -0.3679
  963MOL0     H27084   1.651   6.376   2.237 -1.3786 -1.2683  2.5817
  963MOL0     H27085   1.595   6.239   2.130  0.5400 -2.6868  1.3079
  963MOL0     H27086   1.885   6.198   2.156 -1.8269 -0.1802  3.1405
  963MOL0     H27087   1.873   6.374   2.176 -1.9051 -0.0646  0.0597
  963MOL0     H27088   1.763   6.397   1.945  1.7578 -0.6699 -4.7868
  963MOL0     H27089   1.928   6.342   1.952  0.6036  0.8512 -0.5545
  963MOL0     H27090   1.670   6.190   1.896 -0.5472 -1.5464  0.1496
  963MOL0     H27091   1.816   6.095   1.926  0.0042  0.7753 -0.3747
  963MOL0     H27092   1.906   6.241   1.713 -0.1799  2.3383  2.9042
  963MOL0     H27093   1.738   6.294   1.721 -0.6575 -0.7811  3.0275
  963MOL0     H27094   1.714   6.012   1.743 -6.2022  1.9953 -0.8093
  963MOL0     H27095   1.698   6.112   1.593 -2.2807  0.9854  3.3210
  963MOL0     H27096   1.955   6.002   1.694  0.4218 -0.0591 -0.3496
  963MOL0     H27097   1.933   6.087   1.538  1.1086 -0.2918  0.6654
  963MOL0     H27098   1.652   5.895   2.347  1.8828  3.8761 -1.1435
  963MOL0     H27099   1.572   5.721   2.499 -0.3080 -0.1183 -1.4685
  963MOL0     H27100   1.396   5.620   2.860  0.4942  0.2021  0.8170
  963MOL0     H27101   1.355   5.468   3.047  2.0463  5.4091  2.1197
  963MOL0     H27102   0.654   5.655   3.207  0.9305  1.7150  0.4745
  963MOL0     H27103   0.847   5.562   3.323 -0.3776  1.9927 -1.6873
  963MOL0     H27104   1.009   5.353   3.716 -0.6162  0.5745 -1.0492
  963MOL0     H27105   1.233   5.283   3.762  2.2473 -0.9227 -3.0287
  963MOL0     H27106   1.418   5.226   3.769  1.5163 -1.7986  1.7029
  963MOL0     H27107   1.495   5.306   3.907  3.2763  1.5035  0.5525
  963MOL0     H27108   1.693   5.321   3.783 -2.4197  1.0468  0.9032
  963MOL0     H27109   1.637   5.154   3.789 -0.2536 -0.4866 -1.6960
  963MOL0     H27110   1.713   5.194   3.557 -1.6660 -1.0103 -1.6247
  963MOL0     H27111   1.644   5.345   3.550  1.6982  1.0521  1.3872
  963MOL0     H27112   1.422   5.271   3.516  1.2387  1.6837  1.7939
  963MOL0     H27113   1.523   5.177   3.408  0.7073 -0.9386  1.3025
  963MOL0     H27114   1.383   4.877   3.682  1.4728 -1.9740 -2.4281
  963MOL0     H27115   1.385   5.676   3.698  0.7761  0.9475 -0.8771
  963MOL0     H27116   1.156   5.761   3.648  0.1601  0.4632  1.1592
  964MOL0     O27117  10.345   2.125  10.919  0.4506  0.5212  0.2834
  964MOL0     C27118  10.357   2.226  10.981 -0.2696 -0.1709  0.4497
  964MOL0     O27119  10.286   2.257  11.093 -0.2883  0.6101 -0.3417
  964MOL0     C27120  10.165   2.192  11.114  0.2443  0.5421 -0.6437
  964MOL0     C27121  10.159   2.052  11.140 -0.4676  1.1990 -0.3565
  964MOL0     C27122  10.039   1.985  11.178 -0.1450  0.4001 -0.4325
  964MOL0     C27123   9.921   2.052  11.185  0.7814  0.3475 -0.2049
  964MOL0     O27124   9.802   1.997  11.237 -0.1668 -0.2395 -0.4977
  964MOL0     C27125   9.804   1.869  11.302 -0.1467  0.3415 -0.1754
  964MOL0     C27126   9.838   1.902  11.456  0.0228  0.4910  0.4222
  964MOL0     C27127   9.748   1.992  11.526 -0.4128 -1.0588  0.0773
  964MOL0     C27128   9.779   1.999  11.679 -0.4078  0.5477 -0.2972
  964MOL0     C27129   9.692   2.081  11.768  0.4396 -0.8034  0.1177
  964MOL0     C27130   9.549   2.057  11.745  0.0516  0.0956  1.0305
  964MOL0     C27131   9.461   2.136  11.829  0.0534  0.0807 -0.3844
  964MOL0     C27132   9.465   2.288  11.808  0.1396 -0.0646  0.1398
  964MOL0     N27133   9.435   2.346  11.674  0.0323  0.0397 -0.6134
  964MOL0     C27134   9.529   2.340  11.570 -0.2372 -0.6423  0.0645
  964MOL0     C27135   9.458   2.376  11.455  1.0600 -0.2853 -0.8271
  964MOL0     C27136   9.507   2.383  11.310  0.1099  0.1502 -0.5154
  964MOL0     C27137   9.500   2.244  11.253 -0.9522  0.0390  0.0129
  964MOL0     C27138   9.509   2.224  11.101 -0.7667 -0.2045  0.0812
  964MOL0     C27139   9.554   2.089  11.063 -0.2713 -0.1325 -0.1369
  964MOL0     O27140   9.479   2.055  10.949  0.6593  0.1635  0.4069
  964MOL0     C27141   9.398   1.946  10.965  0.3144  0.4304 -0.2581
  964MOL0     C27142   9.444   1.824  11.009 -0.2649 -0.0047 -0.5478
  964MOL0     C27143   9.354   1.716  11.029  0.5859 -0.5272 -0.2428
  964MOL0     C27144   9.218   1.731  11.008 -0.0196 -0.7588 -0.1582
  964MOL0     C27145   9.125   1.617  11.008 -0.1516 -0.3169 -0.4232
  964MOL0     O27146   8.994   1.653  10.976 -0.5601 -0.4946  0.1454
  964MOL0     C27147   8.905   1.559  10.961  0.6910 -0.1127  0.7145
  964MOL0     C27148   8.936   1.444  10.888  0.2506  0.3565  1.0800
  964MOL0     C27149   8.839   1.336  10.866 -1.3772 -0.3878 -0.1465
  964MOL0     C27150   8.706   1.350  10.903  0.1168 -0.9461 -0.6997
  964MOL0     O27151   8.605   1.265  10.889 -0.0954 -0.7255  0.3093
  964MOL0     C27152   8.659   1.134  10.904 -0.0329 -0.3665  0.2697
  964MOL0     C27153   8.554   1.058  10.981  0.9383  0.9245  0.0499
  964MOL0     C27154   8.413   1.074  10.925  0.3066 -0.5322  0.7665
  964MOL0     C27155   8.309   0.997  10.997  0.8010 -0.5425  0.7850
  964MOL0     C27156   8.162   1.016  10.944  1.1675  0.8844  0.2497
  964MOL0     C27157   8.096   0.879  10.912 -0.4580  0.2933 -0.3197
  964MOL0     C27158   7.949   0.895  10.879  0.4089 -0.3528 -0.9533
  964MOL0     C27159   7.891   0.758  10.848  0.3524 -0.5152 -0.4044
  964MOL0    Cl27160   7.854   0.663  11.000 -0.0684 -0.4553  0.2871
  964MOL0     C27161   8.682   1.479  10.976 -0.3792  0.7820  0.4140
  964MOL0     C27162   8.775   1.582  10.999 -0.6942  0.2835  0.2302
  964MOL0     O27163   9.164   1.506  11.044  0.2826  0.2066  0.8175
  964MOL0     C27164   9.172   1.857  10.972  0.2951 -0.1997 -0.1661
  964MOL0     C27165   9.262   1.962  10.944  0.1583  0.1330 -0.9595
  964MOL0     N27166   9.322   2.377  11.489 -0.2643  0.2168  0.0456
  964MOL0     N27167   9.311   2.364  11.613  1.0992 -0.6403 -0.4682
  964MOL0     C27168   9.925   2.178  11.129 -1.3352  0.3100  1.0582
  964MOL0     C27169  10.039   2.243  11.095 -0.3871  0.2653  0.4725
  964MOL0     C27170  10.470   2.317  10.960 -0.8639  0.5872 -0.6377
  964MOL0     C27171  10.517   2.407  11.055  0.2936  0.2617 -0.0352
  964MOL0     C27172  10.631   2.483  11.022  0.5868 -0.8292 -0.2288
  964MOL0     C27173  10.696   2.465  10.906 -1.1762  0.4922 -0.1576
  964MOL0     O27174  10.801   2.545  10.897 -0.1751 -0.0681  1.1042
  964MOL0     C27175  10.830   2.618  10.773 -0.2707  0.9629  0.1158
  964MOL0     C27176  10.918   2.736  10.775 -0.3889  0.1247 -0.5307
  964MOL0     C27177  10.858   2.852  10.861 -0.4727  0.0213 -0.0568
  964MOL0     C27178  10.893   2.835  11.006 -0.0999  0.0808 -0.5340
  964MOL0     C27179  10.779   2.839  11.094  0.1780 -0.4980 -0.0120
  964MOL0     C27180  10.673   2.849  11.138  0.7921 -0.0922  0.1905
  964MOL0     C27181  10.654   2.380  10.811  0.2459 -0.7578  0.2610
  964MOL0     C27182  10.545   2.303  10.841  0.0902 -0.1938  0.4456
  964MOL0     H27183  10.250   1.993  11.127 -1.3623 -0.2023 -0.4366
  964MOL0     H27184  10.047   1.879  11.201 -1.8988  0.5299  1.0218
  964MOL0     H27185   9.881   1.803  11.261  0.2366  2.2497 -2.7941
  964MOL0     H27186   9.708   1.819  11.288  0.3640 -0.6671 -0.2153
  964MOL0     H27187   9.937   1.949  11.457  0.0561  0.4439 -0.1158
  964MOL0     H27188   9.841   1.807  11.511 -1.6125  0.3475  0.3147
  964MOL0     H27189   9.648   1.952  11.505 -0.7016 -2.0548  2.8280
  964MOL0     H27190   9.765   2.097  11.501 -0.9010 -0.7032  1.1482
  964MOL0     H27191   9.790   1.910  11.741 -1.9386  0.1062 -0.6221
  964MOL0     H27192   9.886   2.018  11.688 -0.3224  0.1911 -0.5548
  964MOL0     H27193   9.717   2.187  11.757  0.9841 -1.1094 -2.3433
  964MOL0     H27194   9.701   2.054  11.873 -4.7660  2.6204  1.8310
  964MOL0     H27195   9.525   1.952  11.763 -2.6674 -0.1664 -2.7336
  964MOL0     H27196   9.524   2.073  11.639  3.8680 -0.8381 -0.1600
  964MOL0     H27197   9.360   2.096  11.827 -0.4918  1.0290  2.6539
  964MOL0     H27198   9.491   2.107  11.931  0.2801  0.7912 -0.2412
  964MOL0     H27199   9.566   2.327  11.827  0.0764  0.5389 -0.6690
  964MOL0     H27200   9.377   2.321  11.864 -0.3040 -2.0052  0.6347
  964MOL0     H27201   9.637   2.330  11.570 -0.1606 -0.2296 -2.1869
  964MOL0     H27202   9.606   2.426  11.297  0.5679  0.0747  2.1705
  964MOL0     H27203   9.437   2.454  11.265  1.3093  2.3919  0.9862
  964MOL0     H27204   9.399   2.210  11.279 -1.8774  1.8566 -0.9284
  964MOL0     H27205   9.568   2.176  11.304  0.3991  0.9219 -0.5742
  964MOL0     H27206   9.408   2.242  11.064 -0.9481  1.6328  1.2899
  964MOL0     H27207   9.561   2.307  11.053  1.8134 -1.9084 -0.2685
  964MOL0     H27208   9.548   2.023  11.150  1.0504 -0.1651 -0.0575
  964MOL0     H27209   9.659   2.080  11.033 -0.0849  0.0623  0.4323
  964MOL0     H27210   9.549   1.812  11.033 -0.6559  2.1703  2.8999
  964MOL0     H27211   9.384   1.623  11.075  1.2885  1.3902  3.5963
  964MOL0     H27212   9.040   1.426  10.867  0.9516  0.7842  3.7602
  964MOL0     H27213   8.880   1.259  10.802  2.5422  0.6277  0.8765
  964MOL0     H27214   8.748   1.143  10.967 -1.1432 -0.8573  1.9950
  964MOL0     H27215   8.683   1.105  10.801 -4.0771  0.5796 -1.1250
  964MOL0     H27216   8.556   1.087  11.086  2.8739 -1.4755  0.7500
  964MOL0     H27217   8.579   0.952  10.974  1.1519  1.0215 -0.7117
  964MOL0     H27218   8.407   1.042  10.820 -1.1030  0.6794  0.4408
  964MOL0     H27219   8.383   1.180  10.929  1.1659 -0.2487  0.0287
  964MOL0     H27220   8.339   0.893  10.980 -1.4078 -0.9446 -1.0259
  964MOL0     H27221   8.322   1.021  11.103  0.2158 -1.0089  0.9660
  964MOL0     H27222   8.171   1.078  10.854  4.6926 -0.3320 -0.3946
  964MOL0     H27223   8.098   1.068  11.016 -2.0267 -1.9154 -0.3022
  964MOL0     H27224   8.124   0.807  10.989  0.1945  1.2806  0.3955
  964MOL0     H27225   8.145   0.836  10.825 -0.1263  1.4529 -0.7203
  964MOL0     H27226   7.898   0.950  10.958  0.1292 -2.3396  0.3219
  964MOL0     H27227   7.944   0.959  10.791 -3.2252  1.1073  0.1512
  964MOL0     H27228   7.964   0.716  10.779 -0.9607  1.0047 -2.8722
  964MOL0     H27229   7.795   0.763  10.796 -0.4176  1.2870  1.0693
  964MOL0     H27230   8.588   1.499  11.027 -1.3689  1.2754 -1.4828
  964MOL0     H27231   8.751   1.671  11.055  0.7558  2.7560 -2.7883
  964MOL0     H27232   9.065   1.877  10.969 -0.3486 -3.3127 -2.2418
  964MOL0     H27233   9.233   2.058  10.903  1.9080 -0.5952 -4.2367
  964MOL0     H27234   9.835   2.238  11.132 -2.0364 -0.3308 -2.4132
  964MOL0     H27235  10.042   2.342  11.051 -0.2512  0.6108  1.2340
  964MOL0     H27236  10.476   2.427  11.154 -2.8050  2.3373 -1.5888
  964MOL0     H27237  10.666   2.555  11.095  0.9380 -1.7604  0.5594
  964MOL0     H27238  10.737   2.647  10.722 -0.7253  1.3455  1.1349
  964MOL0     H27239  10.876   2.546  10.705 -2.5233 -1.2340  0.7451
  964MOL0     H27240  11.023   2.710  10.791 -0.8008 -2.3989 -1.5114
  964MOL0     H27241  10.928   2.765  10.669  0.3264 -0.0027 -0.5076
  964MOL0     H27242  10.752   2.871  10.841  0.2026  1.4329 -2.7606
  964MOL0     H27243  10.895   2.952  10.840 -2.2801  0.6175 -0.5710
  964MOL0     H27244  10.945   2.740  11.026 -1.2572 -1.2492 -3.3207
  964MOL0     H27245  10.964   2.913  11.036  0.9636 -1.0519  0.0511
  964MOL0     H27246  10.583   2.844  11.196  0.3850  0.6639 -0.3635
  964MOL0     H27247  10.711   2.366  10.719 -1.5886 -0.2155 -1.0194
  964MOL0     H27248  10.521   2.234  10.760 -2.9813 -0.0849  1.1475
  965MOL0     O27249   8.999   0.409   3.553  1.0011  0.1549  0.6583
  965MOL0     C27250   9.068   0.510   3.564  0.2280 -0.3735  0.4409
  965MOL0     O27251   9.106   0.571   3.684  0.2578  0.9003  0.1780
  965MOL0     C27252   9.058   0.501   3.796  0.0133 -0.1003 -0.3795
  965MOL0     C27253   8.926   0.515   3.831  1.0573 -0.0498  0.2016
  965MOL0     C27254   8.878   0.453   3.951 -1.1107 -0.3642 -0.1660
  965MOL0     C27255   8.972   0.386   4.038  0.3465 -0.6676 -0.2520
  965MOL0     O27256   8.938   0.322   4.151  0.3333 -0.4384  0.7720
  965MOL0     C27257   8.834   0.227   4.147  0.4554 -0.1928  0.4403
  965MOL0     C27258   8.801   0.161   4.280 -0.4829  0.6588  0.6561
  965MOL0     C27259   8.703   0.036   4.269 -0.3171 -0.9542 -0.4406
  965MOL0     C27260   8.709  -0.042   4.396 -0.5655  0.4722  0.2194
  965MOL0     C27261   8.595  -0.134   4.392  0.6324  0.4830  0.6520
  965MOL0     C27262   8.583  -0.226   4.500 -0.9468  0.6326 -0.7810
  965MOL0     C27263   8.492  -0.337   4.460  0.7826  0.5226  0.2149
  965MOL0     C27264   8.459  -0.424   4.586 -0.1313  0.6741 -0.1450
  965MOL0     N27265   8.575  -0.448   4.683  0.3735 -0.0600 -0.8463
  965MOL0     C27266   8.660  -0.552   4.664 -0.5735 -0.9172  0.3601
  965MOL0     C27267   8.735  -0.552   4.778  0.6190  0.1518  0.1880
  965MOL0     C27268   8.847  -0.661   4.799  0.1995  0.0925 -0.6080
  965MOL0     C27269   8.816  -0.744   4.927  0.7754  0.0806 -0.8443
  965MOL0     C27270   8.806  -0.659   5.065 -0.1979  0.2266  0.3183
  965MOL0     C27271   8.925  -0.562   5.091 -0.0269  0.6468  1.0928
  965MOL0     O27272   9.040  -0.646   5.064 -0.6729 -1.3292 -0.7749
  965MOL0     C27273   9.154  -0.571   5.027  0.6371  0.3300 -0.6455
  965MOL0     C27274   9.203  -0.464   5.095 -0.1599  0.7918  0.5125
  965MOL0     C27275   9.325  -0.413   5.053 -0.1139 -0.1385 -0.0731
  965MOL0     C27276   9.381  -0.458   4.928 -0.1895  0.2681 -0.5787
  965MOL0     C27277   9.501  -0.396   4.872  0.1550 -0.2314 -0.3199
  965MOL0     O27278   9.531  -0.274   4.939  0.3331 -0.3235  0.2748
  965MOL0     C27279   9.624  -0.189   4.873  0.1422  0.1112  0.1116
  965MOL0     C27280   9.728  -0.146   4.957  0.6922  0.2790  0.5288
  965MOL0     C27281   9.841  -0.074   4.900  0.3300  0.3195  0.0873
  965MOL0     C27282   9.844  -0.042   4.760 -0.7722  0.1138 -0.0874
  965MOL0     O27283   9.941   0.041   4.700  0.1999  0.4144  0.4725
  965MOL0     C27284  10.071   0.000   4.711  0.1976 -0.1906 -0.2116
  965MOL0     C27285  10.116  -0.045   4.572 -0.1069  0.2609 -1.4499
  965MOL0     C27286  10.268  -0.058   4.555 -0.8895 -0.1456  0.5360
  965MOL0     C27287  10.353   0.057   4.501 -0.6998 -0.0142  0.2915
  965MOL0     C27288  10.389   0.153   4.612 -0.3266  0.4478  0.9489
  965MOL0     C27289  10.461   0.275   4.570  0.4958 -0.3157  0.0725
  965MOL0     C27290  10.607   0.253   4.534  0.3799  0.2859  0.4503
  965MOL0     C27291  10.683   0.378   4.492  0.1038 -0.0994  0.8542
  965MOL0    Cl27292  10.591   0.487   4.373 -0.0867  0.6466 -0.1052
  965MOL0     C27293   9.743  -0.099   4.686  0.8879  0.0634  0.7648
  965MOL0     C27294   9.642  -0.175   4.738  0.6660  0.0628  0.3933
  965MOL0     O27295   9.566  -0.453   4.785 -0.3918  0.0597  0.7393
  965MOL0     C27296   9.328  -0.573   4.867  0.3237  0.0720 -0.9678
  965MOL0     C27297   9.219  -0.633   4.917  0.0452  0.4368  0.2184
  965MOL0     N27298   8.714  -0.439   4.850  0.1642  0.6094  0.4189
  965MOL0     N27299   8.609  -0.390   4.802  0.0712 -0.3273  0.0931
  965MOL0     C27300   9.112   0.379   4.002  0.9216 -0.2684  0.1102
  965MOL0     C27301   9.154   0.434   3.881 -0.5046  0.1903  0.9306
  965MOL0     C27302   9.119   0.563   3.442 -0.2138 -0.7608  0.1727
  965MOL0     C27303   9.162   0.695   3.431  0.3903  1.1156  0.1480
  965MOL0     C27304   9.202   0.762   3.313  0.4966 -0.4846  0.8883
  965MOL0     C27305   9.195   0.686   3.192 -0.9973 -0.3981 -0.2607
  965MOL0     O27306   9.249   0.736   3.071 -0.6439 -0.0788 -0.2771
  965MOL0     C27307   9.214   0.871   3.034 -0.6543 -0.6720 -0.2055
  965MOL0     C27308   9.172   0.876   2.884 -0.1319  0.1546  0.1347
  965MOL0     C27309   9.065   0.769   2.856 -0.1961  0.4023 -0.3239
  965MOL0     C27310   8.927   0.832   2.839  0.7992  0.1903  0.1786
  965MOL0     C27311   8.886   0.899   2.961 -0.0718 -0.7842 -0.7370
  965MOL0     C27312   8.852   0.949   3.073  0.7831 -0.1078  0.9330
  965MOL0     C27313   9.168   0.552   3.200  1.5118  0.5569 -0.1282
  965MOL0     C27314   9.133   0.480   3.323 -0.0920  0.3130 -0.0779
  965MOL0     H27315   8.858   0.560   3.760  2.4932  1.3421 -0.3705
  965MOL0     H27316   8.770   0.446   3.958 -1.3433 -0.7908 -2.8938
  965MOL0     H27317   8.866   0.159   4.067  0.8000  0.6395 -0.1356
  965MOL0     H27318   8.747   0.282   4.110  2.4063  1.9030 -1.2771
  965MOL0     H27319   8.760   0.236   4.348 -1.1758  0.0310  0.9472
  965MOL0     H27320   8.897   0.128   4.321 -0.2823  0.8883  0.3703
  965MOL0     H27321   8.736  -0.027   4.186 -1.1471 -1.6178 -0.2750
  965MOL0     H27322   8.603   0.078   4.255  0.2282  0.0153 -1.6169
  965MOL0     H27323   8.806  -0.092   4.403 -0.6714  0.4690  2.5062
  965MOL0     H27324   8.693   0.019   4.486 -2.8608 -1.6495  1.3676
  965MOL0     H27325   8.599  -0.195   4.301 -0.2690  1.0944  0.1802
  965MOL0     H27326   8.500  -0.081   4.381 -0.6286 -1.5013  1.3367
  965MOL0     H27327   8.560  -0.181   4.598  0.9788 -0.3568  0.1799
  965MOL0     H27328   8.682  -0.266   4.520 -0.0695  2.0318 -2.1694
  965MOL0     H27329   8.399  -0.293   4.421 -0.7900 -2.9603 -0.3349
  965MOL0     H27330   8.545  -0.394   4.383  0.1713  1.6967 -1.1212
  965MOL0     H27331   8.417  -0.520   4.556  3.1747 -0.7590 -0.6781
  965MOL0     H27332   8.392  -0.360   4.643  0.0612  2.3528 -1.7221
  965MOL0     H27333   8.674  -0.614   4.575 -0.1969 -1.3101  0.6892
  965MOL0     H27334   8.943  -0.609   4.807  0.6403 -0.8625  0.6824
  965MOL0     H27335   8.846  -0.737   4.721  0.3143 -1.9197  1.2417
  965MOL0     H27336   8.888  -0.825   4.942  0.7345  0.1711 -0.1411
  965MOL0     H27337   8.718  -0.788   4.908 -0.6342  2.1601  1.2123
  965MOL0     H27338   8.708  -0.613   5.075 -1.3162 -1.9031 -0.3192
  965MOL0     H27339   8.820  -0.733   5.145 -0.3928  1.5184  1.5884
  965MOL0     H27340   8.910  -0.517   5.190  2.2922  1.2513  1.2205
  965MOL0     H27341   8.928  -0.483   5.016 -1.1869 -1.7318 -1.6201
  965MOL0     H27342   9.152  -0.445   5.189  0.2032 -0.4666  0.9789
  965MOL0     H27343   9.362  -0.329   5.111  2.5136  1.3653 -3.5713
  965MOL0     H27344   9.723  -0.169   5.063 -2.7512 -1.0413  0.1855
  965MOL0     H27345   9.922  -0.026   4.955  2.0552  1.1913 -2.9644
  965MOL0     H27346  10.083  -0.067   4.796  0.8518  0.7048  0.4144
  965MOL0     H27347  10.134   0.088   4.728  1.1025 -0.7689 -0.5176
  965MOL0     H27348  10.076   0.024   4.497 -0.0057  0.3431 -1.4280
  965MOL0     H27349  10.069  -0.143   4.561 -0.2518  0.0378  0.7622
  965MOL0     H27350  10.282  -0.130   4.473 -0.9098 -2.0549  2.1461
  965MOL0     H27351  10.309  -0.098   4.648 -2.7282  0.2168  1.5310
  965MOL0     H27352  10.447   0.008   4.475  0.5578  1.7205  1.3343
  965MOL0     H27353  10.314   0.101   4.409 -0.4038 -1.4916 -0.5702
  965MOL0     H27354  10.436   0.092   4.690 -0.7264 -0.1261  0.7528
  965MOL0     H27355  10.288   0.181   4.644 -0.0333  0.9850  1.4093
  965MOL0     H27356  10.455   0.360   4.639  0.4270  0.5202 -0.9212
  965MOL0     H27357  10.419   0.320   4.479 -1.7058  1.8915  2.0418
  965MOL0     H27358  10.656   0.220   4.625  0.5878 -1.8494 -0.3714
  965MOL0     H27359  10.618   0.170   4.464 -1.2677 -2.0422  2.7736
  965MOL0     H27360  10.783   0.366   4.448 -1.8142 -0.4468 -4.1540
  965MOL0     H27361  10.707   0.435   4.582 -0.3841 -1.5665  1.9480
  965MOL0     H27362   9.734  -0.090   4.578 -1.4546 -0.4906  0.8572
  965MOL0     H27363   9.560  -0.195   4.670  1.5617 -0.2130 -0.6328
  965MOL0     H27364   9.393  -0.599   4.783  1.8333 -3.3533  1.0117
  965MOL0     H27365   9.187  -0.731   4.881  1.8991 -0.5039  0.9809
  965MOL0     H27366   9.184   0.322   4.059 -2.0287 -4.6039 -0.0174
  965MOL0     H27367   9.257   0.434   3.849 -0.4655  0.0565  1.0533
  965MOL0     H27368   9.155   0.762   3.516  0.7643  3.0171 -1.2398
  965MOL0     H27369   9.229   0.866   3.304 -0.5776 -0.4144 -3.3317
  965MOL0     H27370   9.296   0.944   3.033 -0.3013 -0.7147  4.1571
  965MOL0     H27371   9.138   0.910   3.102 -0.6815 -0.9665 -0.0644
  965MOL0     H27372   9.134   0.975   2.856  1.5973  0.0208 -3.2481
  965MOL0     H27373   9.252   0.834   2.822 -0.4530 -3.4950  1.9215
  965MOL0     H27374   9.056   0.705   2.945 -0.9935 -0.5927 -1.0897
  965MOL0     H27375   9.095   0.709   2.770 -2.1368 -1.8455  0.4649
  965MOL0     H27376   8.908   0.898   2.754  1.4987  0.7976  0.4808
  965MOL0     H27377   8.855   0.749   2.830  0.7428  0.2389  0.1817
  965MOL0     H27378   8.810   1.001   3.157 -3.3514 -0.8138 -0.4563
  965MOL0     H27379   9.146   0.500   3.107 -2.3206  1.8669 -0.1601
  965MOL0     H27380   9.109   0.374   3.327 -0.6141  0.4665  1.6043
  966MOL0     O27381   2.002  10.157  11.206  0.3956  0.3223  0.1830
  966MOL0     C27382   1.950  10.260  11.171 -0.1244 -0.6018 -0.8598
  966MOL0     O27383   1.814  10.281  11.153  0.2384 -0.1271  0.5538
  966MOL0     C27384   1.729  10.178  11.195  0.1492 -1.0170 -0.7176
  966MOL0     C27385   1.658  10.106  11.107  0.4263 -0.7293 -0.0627
  966MOL0     C27386   1.587   9.991  11.152 -0.8593 -0.9202  0.0041
  966MOL0     C27387   1.575   9.964  11.292 -0.6825 -1.2482  0.2665
  966MOL0     O27388   1.497   9.868  11.354  0.3109 -0.6608 -0.6032
  966MOL0     C27389   1.483   9.750  11.281  0.0758 -0.0058  0.1298
  966MOL0     C27390   1.367   9.664  11.328 -0.1702  0.4997 -0.3029
  966MOL0     C27391   1.376   9.530  11.253  0.2378 -1.0848 -0.7110
  966MOL0     C27392   1.255   9.444  11.268  0.0177 -0.1201  0.5786
  966MOL0     C27393   1.291   9.304  11.231  0.5344  0.9881  0.0225
  966MOL0     C27394   1.173   9.215  11.201  0.4359  0.4551  0.6517
  966MOL0     C27395   1.148   9.204  11.049  0.3101  0.1451  0.5793
  966MOL0     C27396   1.005   9.154  11.018 -0.6855  0.4933 -0.2105
  966MOL0     N27397   0.997   9.007  10.990  0.2933  0.4845  0.3678
  966MOL0     C27398   0.947   8.942  10.883 -0.3423  0.2189  0.1470
  966MOL0     C27399   0.955   8.816  10.906 -0.2853  0.5775 -0.6594
  966MOL0     C27400   0.893   8.714  10.825  0.0475  0.1907 -0.3944
  966MOL0     C27401   0.940   8.726  10.688  0.0439 -0.1729  0.6852
  966MOL0     C27402   1.078   8.664  10.651 -0.4644  0.5500  0.4439
  966MOL0     C27403   1.204   8.710  10.731 -0.3384  0.5847 -0.9065
  966MOL0     O27404   1.235   8.840  10.693  0.2480 -0.0487  0.4402
  966MOL0     C27405   1.321   8.906  10.772 -0.0565 -0.0238  1.3269
  966MOL0     C27406   1.368   9.027  10.718  0.4019 -0.4037  0.5879
  966MOL0     C27407   1.453   9.107  10.800  0.3479 -1.4365  0.1133
  966MOL0     C27408   1.505   9.060  10.924  0.3865 -0.3626 -0.5312
  966MOL0     C27409   1.582   9.149  11.013  0.1684  0.0184 -0.0558
  966MOL0     O27410   1.622   9.104  11.132  0.3167  0.2703  0.2354
  966MOL0     C27411   1.729   9.168  11.187  0.4214  0.0366 -0.4231
  966MOL0     C27412   1.706   9.227  11.304 -1.3235 -0.1445 -1.4053
  966MOL0     C27413   1.809   9.302  11.374 -0.0613 -1.1769 -0.0163
  966MOL0     C27414   1.945   9.304  11.331  0.4693 -0.1543 -0.3607
  966MOL0     O27415   2.048   9.367  11.397 -0.4945 -0.6077  0.2338
  966MOL0     C27416   2.013   9.439  11.516 -0.2470  0.2913 -0.2158
  966MOL0     C27417   2.149   9.487  11.570 -0.7870 -0.4150 -1.0199
  966MOL0     C27418   2.129   9.562  11.709 -0.8054 -0.3984  0.2801
  966MOL0     C27419   2.234   9.664  11.740  0.0162 -0.8398  0.0446
  966MOL0     C27420   2.364   9.601  11.790 -0.8023  0.0563 -0.9599
  966MOL0     C27421   2.460   9.553  11.676 -0.3077 -0.0564 -0.1342
  966MOL0     C27422   2.491   9.680  11.590 -0.3437  0.4519  0.7499
  966MOL0     C27423   2.646   9.709  11.569  0.6242 -0.0795  0.0218
  966MOL0    Cl27424   2.681   9.870  11.506 -0.2228 -0.0871 -0.0696
  966MOL0     C27425   1.967   9.252  11.196 -0.3797  0.3779 -0.2113
  966MOL0     C27426   1.853   9.192  11.133 -0.4888 -0.2064  0.4913
  966MOL0     O27427   1.588   9.266  10.968  0.6177  0.1217  0.0986
  966MOL0     C27428   1.459   8.941  10.967  0.2749 -0.2856 -0.4545
  966MOL0     C27429   1.367   8.863  10.899  0.2882 -0.3173  1.0035
  966MOL0     N27430   1.002   8.794  11.041 -0.0103 -0.1737 -0.7689
  966MOL0     N27431   1.051   8.909  11.074 -0.0653  0.1321  0.3842
  966MOL0     C27432   1.632  10.060  11.377  0.0742  0.6270  0.8643
  966MOL0     C27433   1.709  10.163  11.329 -0.3965  0.7735 -0.1797
  966MOL0     C27434   2.041  10.376  11.175 -0.3157  0.3624 -0.3140
  966MOL0     C27435   2.173  10.358  11.149 -0.1002  1.3677  0.0094
  966MOL0     C27436   2.261  10.459  11.136 -0.2842  0.8033  0.0438
  966MOL0     C27437   2.225  10.592  11.148  0.0374  0.4670  0.1133
  966MOL0     O27438   2.331  10.678  11.119  0.8520  0.9026 -0.3399
  966MOL0     C27439   2.322  10.810  11.166 -0.3769  0.1066  0.0553
  966MOL0     C27440   2.356  10.812  11.319  1.1061  0.3932  0.7465
  966MOL0     C27441   2.497  10.740  11.323  0.5709 -0.7301 -0.3943
  966MOL0     C27442   2.579  10.807  11.429 -0.0678  0.2778  0.4578
  966MOL0     C27443   2.624  10.949  11.395  0.0265 -0.8338  0.7067
  966MOL0     C27444   2.640  11.064  11.360  0.2691  0.9681 -1.1069
  966MOL0     C27445   2.092  10.621  11.178  0.9893  0.1521  0.3155
  966MOL0     C27446   1.998  10.515  11.191  0.9554  0.9599 -0.6861
  966MOL0     H27447   1.660  10.141  11.004 -0.9645  1.4889  0.6086
  966MOL0     H27448   1.531   9.936  11.078  1.1617  1.0891 -3.2964
  966MOL0     H27449   1.575   9.693  11.293 -0.9704 -1.6915  0.3899
  966MOL0     H27450   1.470   9.772  11.175 -0.3307  2.6573  0.6436
  966MOL0     H27451   1.274   9.719  11.311  0.0713  1.0195  0.0317
  966MOL0     H27452   1.373   9.640  11.434  0.3188 -0.5094 -0.5482
  966MOL0     H27453   1.460   9.480  11.303  0.2490  0.4399  0.8840
  966MOL0     H27454   1.396   9.562  11.150 -3.6377  2.3473 -0.6770
  966MOL0     H27455   1.210   9.455  11.366  2.3045  2.0608  1.5092
  966MOL0     H27456   1.181   9.489  11.202 -0.1220  1.6616  1.8897
  966MOL0     H27457   1.346   9.270  11.319 -0.3150  1.7111  0.8513
  966MOL0     H27458   1.350   9.305  11.139  0.3443 -1.1597 -0.1754
  966MOL0     H27459   1.083   9.248  11.254 -1.1311  1.8393 -2.5913
  966MOL0     H27460   1.199   9.114  11.236  0.3103  0.9474  2.2492
  966MOL0     H27461   1.148   9.307  11.011 -2.5144 -0.1285 -0.4439
  966MOL0     H27462   1.224   9.145  10.997  1.2104  0.1053  1.9025
  966MOL0     H27463   0.976   9.196  10.921 -3.4781 -1.2929 -0.2491
  966MOL0     H27464   0.940   9.188  11.098  1.6179  0.0451  1.9916
  966MOL0     H27465   0.916   8.991  10.791  1.0245  2.0087  0.5932
  966MOL0     H27466   0.786   8.728  10.840 -0.2301 -1.4628 -0.6886
  966MOL0     H27467   0.911   8.610  10.854 -0.2499  0.9192  2.9010
  966MOL0     H27468   0.949   8.834  10.673  2.2780 -0.1170  1.9660
  966MOL0     H27469   0.859   8.681  10.629  1.9842 -3.6837  0.4274
  966MOL0     H27470   1.054   8.559  10.670 -1.9987  0.7120 -0.3780
  966MOL0     H27471   1.094   8.683  10.544  0.6032  3.0604  0.9770
  966MOL0     H27472   1.289   8.641  10.724 -1.1578 -0.3588 -1.9680
  966MOL0     H27473   1.176   8.709  10.836 -1.9525 -4.0434 -1.1429
  966MOL0     H27474   1.331   9.072  10.626  0.3606 -1.0620  0.2719
  966MOL0     H27475   1.487   9.206  10.771  0.1960 -1.4711 -0.1883
  966MOL0     H27476   1.617   9.212  11.363 -0.0133  0.1793  0.7606
  966MOL0     H27477   1.777   9.346  11.468 -0.2997 -1.0846 -0.1398
  966MOL0     H27478   1.956   9.390  11.596 -0.7749  1.2896  0.0504
  966MOL0     H27479   1.961   9.534  11.497  1.9034  2.4982  3.6109
  966MOL0     H27480   2.199   9.556  11.502  2.1628 -1.3191  0.0984
  966MOL0     H27481   2.212   9.399  11.584  0.2985  0.4457 -0.3074
  966MOL0     H27482   2.142   9.489  11.789  1.7539 -1.2013 -0.7609
  966MOL0     H27483   2.035   9.616  11.720 -0.6873 -0.3117  0.9095
  966MOL0     H27484   2.252   9.721  11.648  1.0530 -2.2517 -0.6789
  966MOL0     H27485   2.187   9.730  11.813  2.1248  1.7677 -0.7555
  966MOL0     H27486   2.342   9.522  11.863 -1.9572 -0.2741 -1.6447
  966MOL0     H27487   2.425   9.677  11.839 -0.5830 -1.4128  1.2360
  966MOL0     H27488   2.412   9.474  11.617 -3.0050 -1.3245  3.3811
  966MOL0     H27489   2.553   9.504  11.704  1.8570  2.7276 -1.9349
  966MOL0     H27490   2.450   9.656  11.492 -2.0195  1.0910  1.2606
  966MOL0     H27491   2.454   9.770  11.641 -0.4309  2.4204 -2.4999
  966MOL0     H27492   2.673   9.640  11.488 -0.1583  0.0591 -0.3677
  966MOL0     H27493   2.706   9.699  11.659  0.7304 -0.6674 -0.1127
  966MOL0     H27494   2.066   9.249  11.153 -0.4217 -1.1584 -0.2603
  966MOL0     H27495   1.856   9.156  11.030 -1.5649 -1.4938  0.8817
  966MOL0     H27496   1.493   8.900  11.062  2.6399  0.8804 -0.7069
  966MOL0     H27497   1.346   8.763  10.934  1.3310 -1.5164 -1.5425
  966MOL0     H27498   1.614  10.046  11.483 -1.4851 -0.9030  0.4370
  966MOL0     H27499   1.776  10.220  11.393 -0.3420  2.0572 -1.3431
  966MOL0     H27500   2.215  10.257  11.151 -0.4142  1.2298 -0.2593
  966MOL0     H27501   2.369  10.447  11.135 -0.3087  0.4678 -1.4887
  966MOL0     H27502   2.227  10.862  11.150 -1.1484 -0.7598  1.6583
  966MOL0     H27503   2.394  10.865  11.104 -0.1962 -0.3353 -0.1313
  966MOL0     H27504   2.346  10.914  11.358  0.3090  0.2242  1.0039
  966MOL0     H27505   2.282  10.746  11.366  1.5570 -1.9354 -1.6059
  966MOL0     H27506   2.550  10.728  11.228 -2.3583 -1.3583 -2.0898
  966MOL0     H27507   2.481  10.636  11.351 -0.0760 -0.9375 -1.4776
  966MOL0     H27508   2.529  10.818  11.526  3.0653 -0.5101  2.3188
  966MOL0     H27509   2.670  10.751  11.453  0.1765  0.9594  1.1540
  966MOL0     H27510   2.655  11.166  11.330 -0.8056  1.2179 -0.8506
  966MOL0     H27511   2.048  10.719  11.193 -1.6883 -0.7569 -0.8900
  966MOL0     H27512   1.895  10.539  11.214  0.8339 -0.0379 -0.1309
  967MOL0     O27513   3.906   5.770   4.356  0.6154 -0.6546 -0.0917
  967MOL0     C27514   3.845   5.806   4.251  0.7378  0.7197  0.1135
  967MOL0     O27515   3.888   5.788   4.118 -0.8589  0.4064 -0.0077
  967MOL0     C27516   4.009   5.722   4.099 -0.0487  0.3416  0.0567
  967MOL0     C27517   4.009   5.597   4.037  0.6619  0.2144 -0.6338
  967MOL0     C27518   4.129   5.516   4.034 -0.7368 -0.1889 -0.4513
  967MOL0     C27519   4.246   5.583   4.077 -0.5021 -0.4968  0.2186
  967MOL0     O27520   4.366   5.525   4.072  0.4916  0.2342  0.5677
  967MOL0     C27521   4.411   5.482   3.942  0.2708 -0.2842 -0.0055
  967MOL0     C27522   4.563   5.448   3.943 -0.0348 -0.9023  0.3773
  967MOL0     C27523   4.606   5.341   3.849 -0.5180 -0.8332  0.5970
  967MOL0     C27524   4.610   5.370   3.696 -0.1673  0.0135 -0.1569
  967MOL0     C27525   4.652   5.255   3.600  0.2204 -0.8888 -0.2815
  967MOL0     C27526   4.555   5.143   3.599  0.7484 -0.0866 -0.9391
  967MOL0     C27527   4.435   5.172   3.521 -1.1367 -0.8162  0.6339
  967MOL0     C27528   4.340   5.052   3.511  0.3219 -0.6063 -0.8483
  967MOL0     N27529   4.302   4.988   3.640 -0.5503 -0.5136 -0.2041
  967MOL0     C27530   4.223   5.036   3.743  0.7809 -0.1185 -0.4367
  967MOL0     C27531   4.224   4.956   3.844  0.2838  0.0487 -0.1759
  967MOL0     C27532   4.154   4.960   3.976  0.5244  0.1269 -0.1191
  967MOL0     C27533   4.179   5.086   4.053 -0.5112 -0.9155 -0.2894
  967MOL0     C27534   4.088   5.135   4.166  0.9378 -0.7312  1.0044
  967MOL0     C27535   3.939   5.151   4.135 -0.3797  0.7704  0.3140
  967MOL0     O27536   3.935   5.244   4.016  0.6067  0.1064 -0.2138
  967MOL0     C27537   3.812   5.239   3.955  0.1961 -0.5933  1.0504
  967MOL0     C27538   3.791   5.335   3.853  0.7674  1.1361 -0.3659
  967MOL0     C27539   3.667   5.357   3.794 -0.4065  0.0490  0.0993
  967MOL0     C27540   3.558   5.278   3.834 -0.0080 -0.0032 -0.3427
  967MOL0     C27541   3.439   5.283   3.764  0.5298  0.2765 -0.0576
  967MOL0     O27542   3.323   5.241   3.831  0.5215 -0.3913  0.7349
  967MOL0     C27543   3.201   5.278   3.774  0.7598  0.5850  0.1032
  967MOL0     C27544   3.105   5.177   3.788  0.5556 -0.3090  0.5216
  967MOL0     C27545   2.983   5.188   3.733  1.2825 -1.6028  1.1896
  967MOL0     C27546   2.945   5.311   3.671 -0.1641 -0.9765 -0.0100
  967MOL0     O27547   2.819   5.344   3.624  0.5145 -0.0069  0.1545
  967MOL0     C27548   2.715   5.248   3.592  0.1335 -0.3720 -0.2919
  967MOL0     C27549   2.622   5.216   3.700  0.2200 -0.5164 -1.2560
  967MOL0     C27550   2.489   5.156   3.662  0.1685 -0.4229  1.0418
  967MOL0     C27551   2.403   5.104   3.778  0.8184 -0.3427 -0.2274
  967MOL0     C27552   2.315   4.986   3.724  0.6982  0.7565 -0.2684
  967MOL0     C27553   2.184   5.022   3.641 -1.7416 -0.1294 -0.4086
  967MOL0     C27554   2.063   4.978   3.720 -0.5075  0.3244 -0.0359
  967MOL0     C27555   1.929   5.019   3.645  0.1780  0.9001 -0.4448
  967MOL0    Cl27556   1.880   4.875   3.542  0.2003  0.5799  0.1632
  967MOL0     C27557   3.034   5.420   3.662  0.0865 -0.4183 -0.3425
  967MOL0     C27558   3.160   5.406   3.719  0.2873  0.0336 -0.7907
  967MOL0     O27559   3.439   5.333   3.649  0.0651  0.1496  0.4603
  967MOL0     C27560   3.578   5.170   3.928 -0.5480  0.1018  0.2199
  967MOL0     C27561   3.703   5.155   3.994  0.5518 -0.0140 -0.0172
  967MOL0     N27562   4.304   4.855   3.803 -0.3972  0.3793 -0.7539
  967MOL0     N27563   4.346   4.864   3.680  0.0602  0.6987  0.6927
  967MOL0     C27564   4.242   5.705   4.138 -0.1455 -0.3841 -0.1802
  967MOL0     C27565   4.120   5.773   4.158 -0.2795  0.7754 -0.2700
  967MOL0     C27566   3.712   5.869   4.268 -0.9821  0.2668 -0.0764
  967MOL0     C27567   3.652   5.885   4.393 -0.7978  1.1340  0.2451
  967MOL0     C27568   3.527   5.946   4.395  0.2106  0.1027 -0.6664
  967MOL0     C27569   3.456   5.975   4.277  0.0305  0.3745  0.0161
  967MOL0     O27570   3.339   6.044   4.288  0.4319  0.2250  0.2104
  967MOL0     C27571   3.219   5.989   4.222 -0.2801 -0.8143 -0.4508
  967MOL0     C27572   3.198   5.860   4.288 -0.3281  0.1027 -0.5378
  967MOL0     C27573   3.057   5.807   4.270  0.3858 -0.4689 -0.2945
  967MOL0     C27574   2.934   5.895   4.296 -0.6039 -0.5612 -0.9377
  967MOL0     C27575   2.928   5.949   4.436  0.2272  0.4304  0.7995
  967MOL0     C27576   2.898   5.974   4.552 -0.4011  0.3201 -0.0111
  967MOL0     C27577   3.513   5.952   4.150 -0.1963 -0.0944 -0.2285
  967MOL0     C27578   3.636   5.900   4.149  0.0860  0.0375 -0.0021
  967MOL0     H27579   3.913   5.552   4.012  1.7643 -0.3026 -4.5267
  967MOL0     H27580   4.138   5.412   4.005 -0.8021  0.2986 -2.3247
  967MOL0     H27581   4.386   5.557   3.866  0.0130  0.4945  0.8238
  967MOL0     H27582   4.358   5.401   3.892  0.2171  0.9124 -2.0069
  967MOL0     H27583   4.594   5.390   4.030 -0.6574 -0.9004  0.6031
  967MOL0     H27584   4.628   5.536   3.937  0.0528 -1.0209 -0.6602
  967MOL0     H27585   4.534   5.260   3.864 -2.2061  0.4521 -0.1260
  967MOL0     H27586   4.697   5.285   3.871 -0.4486 -1.5650 -1.3419
  967MOL0     H27587   4.508   5.404   3.674 -0.2145  1.3278  1.7697
  967MOL0     H27588   4.675   5.457   3.684 -0.5014  0.2255 -0.4390
  967MOL0     H27589   4.748   5.216   3.634 -0.0433  1.2545  3.5016
  967MOL0     H27590   4.669   5.295   3.500 -0.3673  1.0697  0.3449
  967MOL0     H27591   4.530   5.113   3.701  0.9990  0.4506 -0.7148
  967MOL0     H27592   4.614   5.057   3.566  1.9964 -0.3448  1.7305
  967MOL0     H27593   4.381   5.259   3.558 -1.5606  0.6005 -2.8689
  967MOL0     H27594   4.475   5.205   3.424  1.2609  2.7928  2.6207
  967MOL0     H27595   4.387   4.974   3.450 -1.3086 -0.7283 -2.0156
  967MOL0     H27596   4.255   5.097   3.459  2.8781  6.0125 -0.1618
  967MOL0     H27597   4.168   5.130   3.745  2.1485  0.7183  2.5130
  967MOL0     H27598   4.179   4.874   4.038  0.7760 -1.3755 -2.2060
  967MOL0     H27599   4.050   4.961   3.943  1.8034  1.3954 -4.8749
  967MOL0     H27600   4.194   5.175   3.992  1.7846 -2.2193 -1.7556
  967MOL0     H27601   4.279   5.071   4.095  0.1111 -1.0137 -1.7409
  967MOL0     H27602   4.097   5.083   4.262 -3.4207 -0.7050  1.6295
  967MOL0     H27603   4.116   5.239   4.180  1.8327 -1.1232  2.2781
  967MOL0     H27604   3.898   5.195   4.226 -2.6527 -0.6888  0.0830
  967MOL0     H27605   3.890   5.054   4.121  0.8565  0.5469 -3.8214
  967MOL0     H27606   3.877   5.401   3.843  1.5278  0.3444  0.6653
  967MOL0     H27607   3.665   5.438   3.722  0.2786  0.6324  0.7244
  967MOL0     H27608   3.130   5.088   3.845  0.8970  1.4483  3.3366
  967MOL0     H27609   2.904   5.115   3.750  0.7099 -1.2602  0.1469
  967MOL0     H27610   2.746   5.151   3.552 -0.3853 -0.3007 -0.8911
  967MOL0     H27611   2.666   5.295   3.506  1.3910  1.0892 -0.2579
  967MOL0     H27612   2.606   5.309   3.756  1.7414 -2.3839  2.6099
  967MOL0     H27613   2.661   5.146   3.774 -0.1171  1.7013  1.2040
  967MOL0     H27614   2.513   5.069   3.600  0.9345 -0.2308  1.0540
  967MOL0     H27615   2.438   5.229   3.598 -0.2439  1.6153  3.5273
  967MOL0     H27616   2.463   5.066   3.861  1.4462  1.4097  0.1737
  967MOL0     H27617   2.333   5.180   3.813  0.3293 -0.0835 -1.6788
  967MOL0     H27618   2.290   4.916   3.806 -1.7920  1.0035 -0.7262
  967MOL0     H27619   2.368   4.919   3.655  0.6023 -1.3450  1.5582
  967MOL0     H27620   2.198   4.969   3.547 -0.1265 -1.2684  0.4088
  967MOL0     H27621   2.190   5.125   3.606  1.3197 -0.1651 -0.3104
  967MOL0     H27622   2.056   4.869   3.722 -0.7331  0.1643 -3.5784
  967MOL0     H27623   2.073   5.022   3.819  1.9239  3.3370 -1.4451
  967MOL0     H27624   1.932   5.116   3.594  1.4667 -0.2675 -2.7504
  967MOL0     H27625   1.854   5.031   3.724 -0.3466 -0.6132 -0.6837
  967MOL0     H27626   2.988   5.505   3.612 -2.5396 -1.3620  0.3013
  967MOL0     H27627   3.241   5.477   3.703  1.3456 -1.0129 -0.2656
  967MOL0     H27628   3.503   5.093   3.943  1.1197 -1.8977 -1.0987
  967MOL0     H27629   3.706   5.075   4.067 -0.6914 -2.2788 -2.2732
  967MOL0     H27630   4.335   5.749   4.173  1.4326 -2.7581 -1.1256
  967MOL0     H27631   4.123   5.867   4.211 -0.6326  1.3398 -1.2255
  967MOL0     H27632   3.689   5.847   4.488 -2.1813 -1.4854 -0.1731
  967MOL0     H27633   3.473   5.957   4.488  1.1966 -4.8319  0.7796
  967MOL0     H27634   3.230   5.979   4.114 -0.6250 -2.2060 -0.3747
  967MOL0     H27635   3.137   6.061   4.226  0.4641 -0.0198  1.2497
  967MOL0     H27636   3.278   5.790   4.261  2.1087  2.7754 -0.7752
  967MOL0     H27637   3.212   5.898   4.389  3.9127  0.7762 -1.1756
  967MOL0     H27638   3.053   5.718   4.334  1.3914  0.1358  0.6427
  967MOL0     H27639   3.051   5.774   4.166  2.2706 -2.0217  0.0214
  967MOL0     H27640   2.925   5.968   4.215 -1.0872 -1.1799 -1.4480
  967MOL0     H27641   2.854   5.821   4.287 -1.6355  0.1970  1.1956
  967MOL0     H27642   2.859   6.003   4.647  0.2838  0.4157  0.2426
  967MOL0     H27643   3.458   5.982   4.062  1.8312 -0.8817 -1.8210
  967MOL0     H27644   3.686   5.876   4.056  2.9519 -0.5466  1.5726
  968MOL0     O27645   0.142   6.406   0.246  0.3293 -0.7485 -0.1623
  968MOL0     C27646   0.061   6.497   0.232 -0.1515  0.3235  1.4583
  968MOL0     O27647   0.039   6.571   0.110  0.4954 -0.4353 -0.0163
  968MOL0     C27648   0.133   6.558   0.005  0.3196 -0.6053 -0.4577
  968MOL0     C27649   0.258   6.495   0.009  0.1154 -0.5457 -0.2857
  968MOL0     C27650   0.341   6.489  -0.102  0.3673 -0.3914 -0.0601
  968MOL0     C27651   0.289   6.527  -0.222 -0.9177 -0.6489  0.4886
  968MOL0     O27652   0.383   6.518  -0.321  0.0851 -0.3755 -0.2046
  968MOL0     C27653   0.377   6.614  -0.432 -0.9516 -0.6886  1.0009
  968MOL0     C27654   0.509   6.669  -0.461 -0.5465  0.2369 -0.4138
  968MOL0     C27655   0.580   6.750  -0.342 -0.2000 -0.2658 -0.0245
  968MOL0     C27656   0.717   6.811  -0.373  0.5311  0.1103 -0.1321
  968MOL0     C27657   0.743   6.934  -0.288 -0.0889 -0.3899 -0.7783
  968MOL0     C27658   0.895   6.987  -0.289  0.2121 -0.3651 -0.3846
  968MOL0     C27659   0.975   6.903  -0.183 -0.5318  0.6628  0.3609
  968MOL0     C27660   1.097   6.973  -0.118 -0.1597 -0.3351  0.1408
  968MOL0     N27661   1.143   6.877  -0.016 -0.7372 -0.7512 -0.5717
  968MOL0     C27662   1.247   6.787  -0.028 -0.4066 -0.9368  0.6140
  968MOL0     C27663   1.244   6.706   0.081  0.3675  1.0001 -1.0533
  968MOL0     C27664   1.348   6.596   0.116  0.3708 -0.1893  1.0404
  968MOL0     C27665   1.446   6.651   0.224 -0.0298  0.9354  1.0537
  968MOL0     C27666   1.407   6.613   0.367 -0.6590  0.0438  0.3050
  968MOL0     C27667   1.527   6.598   0.463 -0.2724  0.3791 -0.4352
  968MOL0     O27668   1.591   6.724   0.482  0.0541 -0.9907  0.4528
  968MOL0     C27669   1.640   6.752   0.610  0.2084  0.0172 -0.5092
  968MOL0     C27670   1.680   6.654   0.715 -0.1631 -0.4133  0.2638
  968MOL0     C27671   1.719   6.699   0.840  0.7307 -0.1436  0.0432
  968MOL0     C27672   1.716   6.838   0.877  0.1908  0.9509 -0.2204
  968MOL0     C27673   1.725   6.867   1.023 -0.4353 -0.4427  0.1507
  968MOL0     O27674   1.704   6.995   1.052 -0.5578  0.7209 -0.3989
  968MOL0     C27675   1.702   7.036   1.183  0.2490  0.1380 -0.2705
  968MOL0     C27676   1.639   6.957   1.287 -0.8008 -0.2987  0.2001
  968MOL0     C27677   1.625   7.004   1.422  0.4280 -0.5378  0.0823
  968MOL0     C27678   1.649   7.140   1.442  0.1447  0.4321 -0.5138
  968MOL0     O27679   1.611   7.187   1.572 -0.3945 -0.0446  0.2022
  968MOL0     C27680   1.659   7.313   1.604  0.0112  0.6639 -0.1972
  968MOL0     C27681   1.601   7.370   1.724  0.6977 -0.9456 -0.0249
  968MOL0     C27682   1.447   7.398   1.718 -0.3320 -0.7633 -0.0248
  968MOL0     C27683   1.395   7.477   1.835  0.4567 -0.8418  0.5291
  968MOL0     C27684   1.250   7.536   1.813 -0.3464 -0.2922 -0.0425
  968MOL0     C27685   1.138   7.431   1.789  0.5370  0.2003 -0.0327
  968MOL0     C27686   0.998   7.501   1.785 -1.0464 -0.4903  0.6885
  968MOL0     C27687   0.894   7.405   1.784 -0.2690 -0.8393 -0.5139
  968MOL0    Cl27688   0.914   7.271   1.676 -0.0094 -0.1354 -0.2390
  968MOL0     C27689   1.718   7.215   1.343  0.2881 -0.1250 -0.1278
  968MOL0     C27690   1.745   7.169   1.214 -0.4283  0.5002  0.4469
  968MOL0     O27691   1.784   6.781   1.088 -0.0515  0.0703 -0.5371
  968MOL0     C27692   1.684   6.930   0.782  1.0091  0.5041  0.4666
  968MOL0     C27693   1.641   6.886   0.652  0.1444  0.5324 -0.7701
  968MOL0     N27694   1.134   6.751   0.152  0.5390  0.5960 -0.3662
  968MOL0     N27695   1.089   6.853   0.103  0.3218  0.5975  0.0455
  968MOL0     C27696   0.161   6.579  -0.231 -0.4032 -0.2570  0.4693
  968MOL0     C27697   0.082   6.590  -0.118  1.0224  0.2976  0.0113
  968MOL0     C27698  -0.022   6.532   0.343  0.4143  0.7347 -0.1104
  968MOL0     C27699  -0.096   6.652   0.342  0.6039  0.8671 -0.3828
  968MOL0     C27700  -0.177   6.686   0.453  0.7885 -0.9369  0.2028
  968MOL0     C27701  -0.201   6.593   0.554  0.3462  0.6323 -0.1849
  968MOL0     O27702  -0.291   6.632   0.649 -0.1631 -0.4893  0.3438
  968MOL0     C27703  -0.269   6.590   0.790  0.6087 -0.6443 -1.1697
  968MOL0     C27704  -0.356   6.664   0.894 -0.3609 -0.7259 -0.2170
  968MOL0     C27705  -0.298   6.795   0.931  0.2076 -0.5459  0.6510
  968MOL0     C27706  -0.380   6.873   1.033 -0.1837 -0.2364  0.6256
  968MOL0     C27707  -0.384   6.798   1.158  0.3060 -0.2748 -0.6383
  968MOL0     C27708  -0.391   6.761   1.270 -0.9185 -0.3037 -0.2831
  968MOL0     C27709  -0.136   6.464   0.564 -0.1635 -0.4084 -0.2234
  968MOL0     C27710  -0.055   6.440   0.447 -0.0145  0.5995  0.3972
  968MOL0     H27711   0.305   6.465   0.102  1.1389  0.4725 -0.4535
  968MOL0     H27712   0.442   6.451  -0.110  1.7993  2.8360  0.9331
  968MOL0     H27713   0.301   6.690  -0.411  0.8608  1.2385  0.9796
  968MOL0     H27714   0.342   6.564  -0.523 -4.3189  2.4976  0.3252
  968MOL0     H27715   0.505   6.730  -0.553 -2.1209 -0.6623 -0.9758
  968MOL0     H27716   0.575   6.583  -0.478  3.9299  2.6564  2.6602
  968MOL0     H27717   0.598   6.683  -0.257  1.2399  1.1156  0.8139
  968MOL0     H27718   0.514   6.831  -0.310  0.5450  0.1857  0.4041
  968MOL0     H27719   0.788   6.728  -0.377 -1.8977 -2.0475 -1.4933
  968MOL0     H27720   0.709   6.855  -0.473  1.0346  1.4813  0.4023
  968MOL0     H27721   0.707   6.918  -0.186 -4.8430 -0.0139 -2.1160
  968MOL0     H27722   0.684   7.024  -0.311 -1.1323 -0.4427  1.4335
  968MOL0     H27723   0.891   7.093  -0.264 -1.3670 -0.8117  1.5166
  968MOL0     H27724   0.937   6.984  -0.390 -0.3950 -0.9857 -0.6265
  968MOL0     H27725   0.906   6.897  -0.098  0.8488 -0.7467  1.4560
  968MOL0     H27726   0.993   6.798  -0.208  2.6577  0.8084  1.6110
  968MOL0     H27727   1.078   7.070  -0.070  0.2446 -0.1897  0.0086
  968MOL0     H27728   1.175   6.992  -0.191 -0.4887  1.7551  0.2648
  968MOL0     H27729   1.331   6.796  -0.097 -1.3906  2.9625 -0.3210
  968MOL0     H27730   1.407   6.579   0.025  0.4627  0.3213  1.0001
  968MOL0     H27731   1.303   6.503   0.151  2.5607 -1.7455  0.0000
  968MOL0     H27732   1.476   6.756   0.220  2.9999  0.1262 -0.7166
  968MOL0     H27733   1.541   6.598   0.210 -0.0525  1.2064 -0.1851
  968MOL0     H27734   1.342   6.679   0.425 -3.3029 -0.7750 -1.5544
  968MOL0     H27735   1.349   6.521   0.353 -1.3501  0.6013 -0.5727
  968MOL0     H27736   1.583   6.515   0.418 -2.2242 -1.8969  1.0910
  968MOL0     H27737   1.502   6.564   0.563  1.1123  1.3559  0.2835
  968MOL0     H27738   1.701   6.552   0.687 -1.5180 -0.4993 -0.5116
  968MOL0     H27739   1.730   6.612   0.904 -0.9473  1.8707  3.3585
  968MOL0     H27740   1.592   6.861   1.270  1.2573 -1.1291 -1.2426
  968MOL0     H27741   1.580   6.930   1.488 -3.2059 -0.5512 -2.1250
  968MOL0     H27742   1.639   7.381   1.520  3.4373  2.7963  0.5214
  968MOL0     H27743   1.765   7.292   1.618  0.1019  0.9155 -0.4817
  968MOL0     H27744   1.637   7.472   1.741 -2.3054 -0.2366  3.5510
  968MOL0     H27745   1.623   7.301   1.806  2.2427  1.6817  1.9235
  968MOL0     H27746   1.386   7.307   1.727  0.8614 -1.4007  2.5909
  968MOL0     H27747   1.415   7.441   1.623  0.1138 -0.5543 -0.0830
  968MOL0     H27748   1.400   7.420   1.929  0.5835 -1.3810  0.1973
  968MOL0     H27749   1.461   7.562   1.852  0.0862 -0.0827 -1.5985
  968MOL0     H27750   1.246   7.613   1.736 -1.3751  0.8538  1.1079
  968MOL0     H27751   1.236   7.585   1.910  2.3226 -2.9009  1.8294
  968MOL0     H27752   1.141   7.354   1.867 -0.4450 -0.1446 -0.3187
  968MOL0     H27753   1.156   7.380   1.694 -1.4034 -2.7740  1.0417
  968MOL0     H27754   0.984   7.553   1.880 -0.7847  1.5238 -0.3217
  968MOL0     H27755   0.980   7.575   1.706  1.3667  0.8829  1.3144
  968MOL0     H27756   0.798   7.454   1.766 -0.4584 -0.2461  1.8822
  968MOL0     H27757   0.884   7.368   1.886  1.6258 -0.4485 -0.1499
  968MOL0     H27758   1.737   7.320   1.363  2.2626 -0.8780  2.5195
  968MOL0     H27759   1.777   7.218   1.123  1.0242 -0.0966  0.6044
  968MOL0     H27760   1.674   7.037   0.800 -2.8667  0.2606  0.5341
  968MOL0     H27761   1.612   6.957   0.575  2.8550  1.6226 -0.8806
  968MOL0     H27762   0.116   6.601  -0.327 -2.3688  0.3955  1.5027
  968MOL0     H27763  -0.017   6.634  -0.116  0.8139  0.2250 -3.3030
  968MOL0     H27764  -0.073   6.716   0.258 -1.1127  4.8914  1.8990
  968MOL0     H27765  -0.233   6.777   0.471 -0.1359 -1.4984  0.2295
  968MOL0     H27766  -0.166   6.617   0.816 -0.1199  1.1803  0.0447
  968MOL0     H27767  -0.283   6.484   0.811  0.4709 -0.0569  2.3747
  968MOL0     H27768  -0.459   6.673   0.859 -0.3244 -2.1230 -0.7451
  968MOL0     H27769  -0.365   6.594   0.977 -0.3986 -0.9608 -0.4199
  968MOL0     H27770  -0.279   6.857   0.842  0.5754  1.3397  1.9855
  968MOL0     H27771  -0.206   6.770   0.984 -0.0431  1.8099  2.3522
  968MOL0     H27772  -0.322   6.954   1.078 -0.1649  0.7382 -1.0508
  968MOL0     H27773  -0.482   6.892   1.000 -1.2040 -2.8411  2.0670
  968MOL0     H27774  -0.391   6.723   1.370 -1.6778 -2.2723 -0.9598
  968MOL0     H27775  -0.141   6.398   0.650  1.5924  1.5203  1.4625
  968MOL0     H27776   0.005   6.349   0.443 -1.5826 -0.4345 -2.9069
  969MOL0     O27777  10.758  11.041   9.047 -0.3875  0.4748  0.0837
  969MOL0     C27778  10.710  10.969   9.134  0.5795 -0.4954 -0.2224
  969MOL0     O27779  10.576  10.972   9.170  0.7224  0.0557 -0.2165
  969MOL0     C27780  10.483  11.033   9.082  0.7439  0.2594  0.1476
  969MOL0     C27781  10.353  10.978   9.084  0.5081  0.6747  0.3729
  969MOL0     C27782  10.253  11.029   8.996  0.1928 -0.3808  0.5285
  969MOL0     C27783  10.273  11.145   8.923  0.0066  0.0187 -0.5194
  969MOL0     O27784  10.163  11.175   8.852 -0.3419 -0.5834  0.1231
  969MOL0     C27785  10.147  11.309   8.807  0.4051 -0.7997 -0.1834
  969MOL0     C27786  10.036  11.312   8.703 -0.5734  0.1590 -0.4523
  969MOL0     C27787   9.968  11.450   8.699  0.5861  0.1850 -0.0281
  969MOL0     C27788  10.058  11.565   8.639 -1.3105  0.4949  0.0438
  969MOL0     C27789   9.980  11.698   8.593 -0.1697 -0.0309 -0.6404
  969MOL0     C27790   9.903  11.661   8.455 -0.6600  0.6046 -0.0922
  969MOL0     C27791   9.860  11.801   8.406  0.5935 -1.2781  0.0641
  969MOL0     C27792   9.862  11.816   8.246 -0.1106 -0.5996 -0.4193
  969MOL0     N27793   9.798  11.945   8.215  0.4429 -0.5053  0.3540
  969MOL0     C27794   9.656  11.953   8.219  0.7131 -0.0032 -0.4830
  969MOL0     C27795   9.629  12.072   8.166 -0.6778 -0.1021  0.0507
  969MOL0     C27796   9.503  12.131   8.151 -0.4639 -0.0940 -0.1429
  969MOL0     C27797   9.482  12.178   8.012 -0.0493 -1.1946 -0.3115
  969MOL0     C27798   9.420  12.055   7.922  0.0244 -0.3835  0.5999
  969MOL0     C27799   9.435  12.090   7.772  0.3345 -0.3820 -0.1381
  969MOL0     O27800   9.552  12.167   7.739  0.1789  0.4712 -0.9112
  969MOL0     C27801   9.659  12.078   7.729  0.6166  1.4504  0.5680
  969MOL0     C27802   9.655  11.983   7.626 -0.3056  0.4109 -0.8902
  969MOL0     C27803   9.743  11.879   7.621  0.1942  1.4914  1.4757
  969MOL0     C27804   9.845  11.873   7.724 -0.2177 -0.4492 -0.0621
  969MOL0     C27805   9.942  11.764   7.711 -0.0619  0.6959 -0.2372
  969MOL0     O27806   9.896  11.638   7.665 -0.0569  0.2817 -0.0142
  969MOL0     C27807   9.986  11.529   7.659 -0.5915 -0.0775 -0.6516
  969MOL0     C27808   9.938  11.406   7.702  0.5616 -0.1695 -0.0911
  969MOL0     C27809   9.998  11.290   7.664 -0.3154  0.2477  0.1379
  969MOL0     C27810  10.108  11.288   7.578  0.2872  0.0315  0.7306
  969MOL0     O27811  10.146  11.167   7.532 -0.1560  0.2112 -0.1162
  969MOL0     C27812  10.282  11.134   7.571  0.0467  0.3664  0.3190
  969MOL0     C27813  10.290  10.993   7.634 -0.0115  0.3636  0.5305
  969MOL0     C27814  10.417  10.980   7.726 -0.0883  0.5325  1.0189
  969MOL0     C27815  10.551  10.957   7.645  0.2369 -0.1751 -0.2129
  969MOL0     C27816  10.663  11.020   7.723  0.5526  0.5409 -0.9542
  969MOL0     C27817  10.799  11.034   7.652 -0.9641  0.0180 -0.6179
  969MOL0     C27818  10.872  10.905   7.654 -0.3843  0.1463 -0.6482
  969MOL0     C27819  10.937  10.883   7.513 -0.5817 -0.2568  0.5161
  969MOL0    Cl27820  11.047  10.739   7.524 -0.1568  0.0708  0.0207
  969MOL0     C27821  10.159  11.411   7.543 -0.4495  0.4558 -0.3017
  969MOL0     C27822  10.102  11.529   7.580  0.0839 -0.5036  0.2177
  969MOL0     O27823  10.056  11.788   7.751 -0.6901 -0.6428  0.2026
  969MOL0     C27824   9.860  11.980   7.819  0.4011 -0.3629  0.3359
  969MOL0     C27825   9.768  12.077   7.809 -0.4148  0.0738 -0.0595
  969MOL0     N27826   9.753  12.135   8.140 -0.3819 -0.4157  0.0709
  969MOL0     N27827   9.851  12.057   8.163  0.2763 -0.1025  0.4555
  969MOL0     C27828  10.405  11.198   8.918  0.1314 -0.1225 -0.1059
  969MOL0     C27829  10.499  11.139   8.998 -1.2476  0.6088 -0.0048
  969MOL0     C27830  10.799  10.889   9.215  0.7947  0.1230 -0.2746
  969MOL0     C27831  10.935  10.905   9.205 -0.5415 -0.6171 -0.4799
  969MOL0     C27832  11.018  10.824   9.288  0.4746 -0.3567 -0.0692
  969MOL0     C27833  10.962  10.730   9.374 -0.2444 -0.0377  0.1852
  969MOL0     O27834  11.040  10.641   9.445 -0.3840 -0.6580  0.5944
  969MOL0     C27835  11.159  10.582   9.390  0.3500  0.5249 -0.4529
  969MOL0     C27836  11.146  10.527   9.247 -1.1072 -0.0787  0.4651
  969MOL0     C27837  11.268  10.449   9.210 -0.8074 -0.5739 -0.0729
  969MOL0     C27838  11.246  10.414   9.063  0.6759 -0.3754  0.0097
  969MOL0     C27839  11.286  10.520   8.974 -1.2126 -0.0609 -0.2710
  969MOL0     C27840  11.315  10.609   8.906 -0.5564 -0.2800 -0.1652
  969MOL0     C27841  10.822  10.713   9.382  0.9517 -0.4998  0.6525
  969MOL0     C27842  10.741  10.783   9.296 -0.5139  0.1428 -0.5083
  969MOL0     H27843  10.331  10.888   9.140  0.9320 -1.1286 -2.2041
  969MOL0     H27844  10.155  10.982   8.995  0.6258 -1.4931  2.7781
  969MOL0     H27845  10.243  11.338   8.763 -0.0927  1.0621 -0.1521
  969MOL0     H27846  10.115  11.367   8.893  0.2272 -0.7198 -0.3028
  969MOL0     H27847   9.969  11.228   8.722  1.7745 -1.3649  1.9726
  969MOL0     H27848  10.080  11.294   8.604 -0.2935  0.2402 -0.3440
  969MOL0     H27849   9.951  11.481   8.802  1.7596  0.7713  0.0102
  969MOL0     H27850   9.876  11.441   8.641 -0.2532 -0.1368  1.3344
  969MOL0     H27851  10.144  11.588   8.702  0.5228 -3.3034 -0.8054
  969MOL0     H27852  10.093  11.534   8.540 -1.9723  1.7108 -0.6094
  969MOL0     H27853  10.049  11.779   8.569 -0.0929  0.9509  2.4257
  969MOL0     H27854   9.904  11.727   8.667 -0.9029 -0.8718 -1.0398
  969MOL0     H27855   9.811  11.610   8.487  1.8834 -3.5983  1.3446
  969MOL0     H27856   9.945  11.586   8.388  0.6127  1.9773 -0.8800
  969MOL0     H27857   9.757  11.816   8.439  1.7099  0.2553  3.2596
  969MOL0     H27858   9.911  11.884   8.456  0.5928 -0.2899 -1.4957
  969MOL0     H27859   9.803  11.727   8.221 -0.1849 -2.8072  5.7012
  969MOL0     H27860   9.964  11.811   8.206 -0.1083  2.3019 -0.9880
  969MOL0     H27861   9.579  11.883   8.249  0.0091  1.4844  1.4281
  969MOL0     H27862   9.491  12.211   8.225 -2.4739 -1.5622  1.2200
  969MOL0     H27863   9.427  12.058   8.180  1.3713 -0.8362  3.4011
  969MOL0     H27864   9.580  12.217   7.981  1.6044 -1.2135  4.2127
  969MOL0     H27865   9.412  12.262   8.011  2.7852  1.3828  1.2525
  969MOL0     H27866   9.471  11.962   7.947 -3.2296 -3.1326 -1.9742
  969MOL0     H27867   9.313  12.038   7.938  0.0627  0.2251  1.6131
  969MOL0     H27868   9.355  12.159   7.742 -3.0165 -3.3296  1.1534
  969MOL0     H27869   9.418  12.001   7.710  0.9511 -1.2981  0.9837
  969MOL0     H27870   9.564  11.978   7.567 -1.8969 -1.3847  1.5110
  969MOL0     H27871   9.720  11.790   7.562  3.1128  1.4205  0.3047
  969MOL0     H27872   9.841  11.408   7.751  1.9265 -1.9402  2.9967
  969MOL0     H27873   9.944  11.198   7.686  0.1855  0.5774  3.1575
  969MOL0     H27874  10.322  11.202   7.647 -1.4672  2.0609 -0.3334
  969MOL0     H27875  10.342  11.139   7.480  0.0881 -1.5464  0.1957
  969MOL0     H27876  10.292  10.914   7.558  1.7153 -1.0515  1.9381
  969MOL0     H27877  10.201  10.985   7.698 -0.0479 -1.2029  0.3331
  969MOL0     H27878  10.414  10.890   7.788  3.8654 -2.0440 -2.0196
  969MOL0     H27879  10.426  11.068   7.790  1.6177  1.3233 -0.2334
  969MOL0     H27880  10.560  10.849   7.633 -3.6981 -0.3885 -3.1683
  969MOL0     H27881  10.549  11.005   7.547 -1.4614  0.3268  0.0365
  969MOL0     H27882  10.682  10.973   7.820  0.0912  0.7258 -0.7728
  969MOL0     H27883  10.637  11.124   7.744 -1.2513 -0.2144  0.9059
  969MOL0     H27884  10.852  11.113   7.706 -0.3489  0.1432 -1.3900
  969MOL0     H27885  10.775  11.070   7.551 -0.4292 -1.5206 -1.3249
  969MOL0     H27886  10.942  10.900   7.738 -1.7051  2.5897  0.7122
  969MOL0     H27887  10.805  10.820   7.668  0.6705 -0.2724  2.4347
  969MOL0     H27888  10.999  10.970   7.489 -2.1562  0.6731 -0.3125
  969MOL0     H27889  10.872  10.870   7.426  3.2112  0.3812 -2.7176
  969MOL0     H27890  10.252  11.425   7.489  0.1754 -0.5985  0.4671
  969MOL0     H27891  10.141  11.625   7.546 -0.8489  0.0788  0.7433
  969MOL0     H27892   9.928  11.978   7.904 -1.0443  0.7849  1.5657
  969MOL0     H27893   9.775  12.151   7.889 -0.9688 -0.4677  0.5001
  969MOL0     H27894  10.440  11.280   8.856  0.6067 -0.4705 -0.3024
  969MOL0     H27895  10.588  11.199   9.013 -0.4968 -1.1190  3.3451
  969MOL0     H27896  10.976  10.976   9.134 -0.1703 -1.4872 -1.1501
  969MOL0     H27897  11.125  10.836   9.276  0.0495  2.6138 -2.0328
  969MOL0     H27898  11.172  10.484   9.437  0.2705 -0.6557 -2.7456
  969MOL0     H27899  11.250  10.638   9.414 -1.2389  2.8641  0.4499
  969MOL0     H27900  11.073  10.446   9.248 -2.1474  0.8340  0.5851
  969MOL0     H27901  11.127  10.602   9.170 -3.4925 -1.4182 -0.3631
  969MOL0     H27902  11.280  10.356   9.267 -5.5615 -1.8248 -0.6341
  969MOL0     H27903  11.355  10.513   9.226 -1.1058 -0.3623  0.7590
  969MOL0     H27904  11.308  10.330   9.028  3.3776  1.5990 -0.2511
  969MOL0     H27905  11.141  10.388   9.046  0.2230  1.4380 -0.1509
  969MOL0     H27906  11.344  10.696   8.850 -1.1637  0.9261  1.3028
  969MOL0     H27907  10.779  10.628   9.435 -4.9471  0.8101 -1.2560
  969MOL0     H27908  10.640  10.743   9.299  0.3817 -2.3583  3.5524
  970MOL0     O27909   4.663   8.340   9.926 -0.1697  0.3977 -0.4918
  970MOL0     C27910   4.585   8.312  10.012 -0.3638  0.2287 -0.3333
  970MOL0     O27911   4.603   8.228  10.118  0.1844 -0.6024  0.1652
  970MOL0     C27912   4.725   8.221  10.177 -0.7693  0.7066 -0.4120
  970MOL0     C27913   4.740   8.328  10.261  0.1007  1.2523 -0.2606
  970MOL0     C27914   4.866   8.356  10.327  0.1706  0.3386  0.0390
  970MOL0     C27915   4.977   8.267  10.297  0.9327  0.8815  0.0348
  970MOL0     O27916   5.097   8.300  10.356 -0.4708  0.9244  0.2381
  970MOL0     C27917   5.205   8.221  10.311 -0.6059  0.5210  0.2244
  970MOL0     C27918   5.333   8.251  10.382 -0.3009  0.1510  0.4996
  970MOL0     C27919   5.456   8.208  10.307  0.4882  0.2525  0.5850
  970MOL0     C27920   5.581   8.234  10.392  0.6244  0.1345 -0.5396
  970MOL0     C27921   5.702   8.169  10.325 -0.0385  0.2179 -0.1172
  970MOL0     C27922   5.766   8.228  10.199 -0.8098  0.2003 -0.5643
  970MOL0     C27923   5.879   8.138  10.161 -0.3395 -0.2731  0.3037
  970MOL0     C27924   5.993   8.192  10.078  0.2981  0.2177 -1.5706
  970MOL0     N27925   5.955   8.270   9.960 -0.2531  0.1019 -0.6226
  970MOL0     C27926   5.875   8.235   9.857  0.9383  0.1637 -0.3095
  970MOL0     C27927   5.880   8.339   9.771  0.3385  0.4755  0.5738
  970MOL0     C27928   5.802   8.348   9.641  0.3508 -0.1884  1.2647
  970MOL0     C27929   5.738   8.486   9.621 -0.6240  0.0723  0.2958
  970MOL0     C27930   5.618   8.511   9.716 -0.6789 -0.3775  0.2903
  970MOL0     C27931   5.519   8.401   9.719  1.0167 -0.0227 -0.6582
  970MOL0     O27932   5.539   8.306   9.818  0.0584  0.0042  0.0067
  970MOL0     C27933   5.456   8.194   9.825  0.1552  0.0652  0.5073
  970MOL0     C27934   5.327   8.173   9.767 -0.2079 -0.5700 -0.2550
  970MOL0     C27935   5.260   8.052   9.794  0.8957 -0.5035 -0.7737
  970MOL0     C27936   5.321   7.946   9.867  0.5077  0.8949  0.7120
  970MOL0     C27937   5.244   7.812   9.863  0.1419 -0.1939  0.9170
  970MOL0     O27938   5.101   7.809   9.827 -0.5335  0.2511  0.1642
  970MOL0     C27939   5.029   7.710   9.890 -1.1117  0.0013  0.0113
  970MOL0     C27940   4.931   7.641   9.812 -0.0241 -0.6021  0.5715
  970MOL0     C27941   4.847   7.548   9.868  0.2426 -0.1450 -0.6630
  970MOL0     C27942   4.856   7.526  10.007 -0.9636 -0.6750 -1.1725
  970MOL0     O27943   4.764   7.467  10.088  0.4200  0.6810 -0.6743
  970MOL0     C27944   4.683   7.361  10.027 -0.2256 -0.9106 -0.5366
  970MOL0     C27945   4.765   7.236   9.993  0.8409 -0.4857  0.3801
  970MOL0     C27946   4.809   7.176  10.129 -0.0507 -0.9397 -0.0680
  970MOL0     C27947   4.884   7.042  10.108 -0.0482 -0.4648  0.2569
  970MOL0     C27948   4.938   7.014  10.245  0.6449 -0.9552 -0.7416
  970MOL0     C27949   5.031   6.893  10.251  0.3651 -0.1372 -0.1968
  970MOL0     C27950   5.052   6.831  10.386 -0.8171 -1.0943 -0.2693
  970MOL0     C27951   5.138   6.705  10.378  0.2249  0.1450 -0.1137
  970MOL0    Cl27952   5.033   6.577  10.300 -0.3988  0.2419 -0.5734
  970MOL0     C27953   4.956   7.596  10.083  0.4218  0.7515 -0.3111
  970MOL0     C27954   5.040   7.686  10.020  0.5695  0.9414  0.0729
  970MOL0     O27955   5.315   7.714   9.887  0.4759  0.1669 -0.2082
  970MOL0     C27956   5.446   7.979   9.922  0.0431  0.0784  0.1482
  970MOL0     C27957   5.503   8.101   9.913  0.3833 -0.0503  0.1621
  970MOL0     N27958   5.959   8.439   9.825  0.4741 -0.4685  0.1077
  970MOL0     N27959   5.992   8.400   9.937  0.5515 -0.4270  0.3325
  970MOL0     C27960   4.959   8.153  10.200  0.2732  0.8304 -1.4128
  970MOL0     C27961   4.832   8.133  10.143  0.8372  0.6782  0.4930
  970MOL0     C27962   4.445   8.338   9.977 -0.1623  0.3306  0.7650
  970MOL0     C27963   4.408   8.419   9.863 -0.0996 -0.4230 -0.6638
  970MOL0     C27964   4.274   8.452   9.845 -0.6198 -0.0196  0.4391
  970MOL0     C27965   4.175   8.404   9.926 -0.4834  0.5518  1.0791
  970MOL0     O27966   4.041   8.439   9.908  0.5795  0.7133 -0.1425
  970MOL0     C27967   4.000   8.508   9.779  0.1426 -0.2326  0.8028
  970MOL0     C27968   4.037   8.658   9.771 -0.4483  0.2531  1.2738
  970MOL0     C27969   3.953   8.740   9.875 -0.6859  0.0144  1.0035
  970MOL0     C27970   3.901   8.872   9.808  0.7275 -0.6243  0.1877
  970MOL0     C27971   3.840   8.958   9.908  0.7117  0.1126  0.9375
  970MOL0     C27972   3.810   9.023  10.004  0.3994 -0.0214  0.8407
  970MOL0     C27973   4.206   8.327  10.032 -1.0855  0.3409  0.7429
  970MOL0     C27974   4.340   8.289  10.053 -0.1541  0.1690  0.2877
  970MOL0     H27975   4.657   8.397  10.280  0.7686  1.7525  0.9601
  970MOL0     H27976   4.860   8.442  10.394 -1.3029  1.3518 -1.3245
  970MOL0     H27977   5.223   8.226  10.203 -0.2381 -1.9369  0.1258
  970MOL0     H27978   5.183   8.115  10.329  0.3143  0.3701  0.4739
  970MOL0     H27979   5.340   8.193  10.474  0.2404 -3.8774 -1.8591
  970MOL0     H27980   5.339   8.355  10.415 -2.2355 -0.5051  3.1717
  970MOL0     H27981   5.446   8.254  10.208  0.8872 -1.1571 -0.1359
  970MOL0     H27982   5.446   8.099  10.299 -1.4160  0.4499 -0.2268
  970MOL0     H27983   5.600   8.339  10.416  3.0270  0.1901 -2.2868
  970MOL0     H27984   5.585   8.191  10.492  1.4184 -1.3178 -1.1735
  970MOL0     H27985   5.684   8.063  10.308 -0.5611 -0.0055  1.5794
  970MOL0     H27986   5.774   8.178  10.407 -0.5253  2.6347  0.1107
  970MOL0     H27987   5.812   8.326  10.208  0.8653 -0.5681 -0.3431
  970MOL0     H27988   5.696   8.239  10.116 -1.7740  1.0433  0.3299
  970MOL0     H27989   5.928   8.097  10.250  0.6950 -0.8128 -0.5023
  970MOL0     H27990   5.834   8.057  10.103  1.7539 -0.1452 -1.5999
  970MOL0     H27991   6.060   8.108  10.061  0.3489 -0.1486  0.3008
  970MOL0     H27992   6.034   8.269  10.144 -4.2229 -0.4943  2.6337
  970MOL0     H27993   5.817   8.144   9.864 -1.4523  1.5913 -0.5273
  970MOL0     H27994   5.737   8.260   9.640  2.0363 -1.5240  2.6608
  970MOL0     H27995   5.862   8.330   9.551  0.2364 -2.7225  1.6144
  970MOL0     H27996   5.708   8.488   9.516 -5.6089  0.3265  1.4621
  970MOL0     H27997   5.805   8.569   9.647  1.5774 -0.9598 -1.7010
  970MOL0     H27998   5.651   8.527   9.819 -3.4457 -0.9963  1.3563
  970MOL0     H27999   5.574   8.609   9.694  1.5888  1.4136  3.0796
  970MOL0     H28000   5.495   8.351   9.624 -1.1573 -4.8873  2.0577
  970MOL0     H28001   5.428   8.452   9.751  1.1839  0.2248 -0.5791
  970MOL0     H28002   5.288   8.250   9.701 -0.2222 -0.7365 -0.4406
  970MOL0     H28003   5.159   8.035   9.756 -0.9972 -1.7790  4.0197
  970MOL0     H28004   4.910   7.667   9.708 -2.2698  2.6920  1.7048
  970MOL0     H28005   4.783   7.493   9.800 -1.0804  0.7230 -0.1609
  970MOL0     H28006   4.645   7.389   9.928  2.1645 -1.1356 -1.5763
  970MOL0     H28007   4.598   7.345  10.094  1.3856 -0.4410  1.7269
  970MOL0     H28008   4.856   7.254   9.934  0.8472 -1.2990  0.1277
  970MOL0     H28009   4.701   7.159   9.949 -0.9318  1.7135 -1.1405
  970MOL0     H28010   4.723   7.162  10.194  2.6157 -2.5031  3.4900
  970MOL0     H28011   4.881   7.246  10.173  0.0070 -1.4652  0.6974
  970MOL0     H28012   4.828   6.958  10.064  0.1170 -0.8960  0.8554
  970MOL0     H28013   4.970   7.054  10.043 -0.7072  2.1234 -0.2402
  970MOL0     H28014   4.858   7.016  10.320  0.8043 -2.6084 -0.4949
  970MOL0     H28015   4.993   7.106  10.267 -0.1446 -0.4656 -0.7721
  970MOL0     H28016   5.128   6.909  10.204 -0.4407  1.0028 -1.5410
  970MOL0     H28017   4.989   6.820  10.180 -0.9984  0.0676  0.3611
  970MOL0     H28018   5.109   6.901  10.447 -3.4998  0.7521  0.2781
  970MOL0     H28019   4.960   6.804  10.439  1.1079 -3.1503  2.2956
  970MOL0     H28020   5.173   6.665  10.473  0.8369  3.8638  1.4059
  970MOL0     H28021   5.226   6.726  10.316  0.1689 -0.2425 -0.3229
  970MOL0     H28022   4.969   7.580  10.190 -3.5208 -2.5379 -0.0810
  970MOL0     H28023   5.125   7.727  10.074 -0.3593  1.1683  1.4177
  970MOL0     H28024   5.507   7.907   9.975  1.6199  0.2237 -1.3759
  970MOL0     H28025   5.608   8.119   9.934  0.6957 -0.5937 -0.8575
  970MOL0     H28026   5.032   8.079  10.167 -1.7260 -1.5221 -0.8612
  970MOL0     H28027   4.810   8.052  10.075 -0.3619  0.6371  0.9030
  970MOL0     H28028   4.476   8.461   9.790 -0.8933  1.2013 -0.5228
  970MOL0     H28029   4.258   8.510   9.755 -2.3455  0.0191  0.7341
  970MOL0     H28030   3.891   8.499   9.773 -0.2836  2.7363  2.2905
  970MOL0     H28031   4.049   8.457   9.695 -0.8842 -0.6964  0.4726
  970MOL0     H28032   4.138   8.689   9.801 -1.0385  3.2812  0.5365
  970MOL0     H28033   4.017   8.698   9.671 -1.7063  2.0702  2.1876
  970MOL0     H28034   4.017   8.767   9.960  1.2261  1.1772 -0.7351
  970MOL0     H28035   3.862   8.690   9.911 -0.7604 -0.1430  0.6015
  970MOL0     H28036   3.976   8.920   9.744 -3.4177 -0.2087 -5.0414
  970MOL0     H28037   3.826   8.843   9.734  2.6240 -1.4012 -1.5452
  970MOL0     H28038   3.811   9.062  10.104  1.4875  0.5083  0.6430
  970MOL0     H28039   4.124   8.290  10.093  0.3645 -1.6063  1.6051
  970MOL0     H28040   4.354   8.209  10.124 -0.9253 -1.2286 -1.0624
  971MOL0     O28041   3.849   7.428   1.536 -0.5058 -0.1740 -0.2949
  971MOL0     C28042   3.930   7.389   1.622  0.2055 -0.7472 -0.0697
  971MOL0     O28043   4.031   7.468   1.683  0.1608 -0.6937  0.0967
  971MOL0     C28044   4.018   7.602   1.689 -0.6901 -0.5172 -0.1375
  971MOL0     C28045   4.099   7.694   1.616  0.1960 -0.8842 -0.0884
  971MOL0     C28046   4.066   7.833   1.604 -0.2307 -0.5926  0.2266
  971MOL0     C28047   3.956   7.878   1.669 -1.4223 -0.3028 -1.2662
  971MOL0     O28048   3.914   8.008   1.659  0.3746  0.4481 -0.0985
  971MOL0     C28049   3.984   8.117   1.591  0.2178 -0.0940 -0.0817
  971MOL0     C28050   3.913   8.143   1.465 -0.3273 -0.1092  0.0120
  971MOL0     C28051   3.989   8.232   1.360 -0.0386  0.1379 -0.8769
  971MOL0     C28052   3.909   8.251   1.227 -0.2912  0.3759 -0.3018
  971MOL0     C28053   3.964   8.370   1.146  0.3751 -0.9431 -0.2330
  971MOL0     C28054   3.933   8.352   0.998  0.3439  0.0398  0.5619
  971MOL0     C28055   3.912   8.489   0.935 -0.3537  0.1813  0.8332
  971MOL0     C28056   4.042   8.565   0.927 -0.3703 -0.4725  0.7806
  971MOL0     N28057   4.165   8.485   0.882  0.0470  0.5116  0.0864
  971MOL0     C28058   4.271   8.473   0.966 -0.0360  0.1535  0.1607
  971MOL0     C28059   4.374   8.443   0.880  0.8492  0.0473 -0.0558
  971MOL0     C28060   4.506   8.399   0.932  0.6193  0.2465  0.8605
  971MOL0     C28061   4.606   8.494   0.881  0.8746 -0.6209 -0.4413
  971MOL0     C28062   4.575   8.645   0.932  0.9019  0.9075  0.5231
  971MOL0     C28063   4.678   8.755   0.902 -0.7092  0.5702 -0.9616
  971MOL0     O28064   4.800   8.731   0.977 -0.0578 -1.3947  0.1944
  971MOL0     C28065   4.920   8.772   0.931  0.7788 -0.0789 -0.0676
  971MOL0     C28066   4.956   8.803   0.804 -0.1348 -0.7980 -0.3825
  971MOL0     C28067   5.086   8.856   0.776  0.1445  0.0290  0.5658
  971MOL0     C28068   5.183   8.847   0.870  0.1467 -0.3118  0.4592
  971MOL0     C28069   5.319   8.875   0.828  0.6997  0.1506 -0.5154
  971MOL0     O28070   5.334   8.897   0.692 -0.3075  0.3422  0.1011
  971MOL0     C28071   5.441   8.969   0.648 -0.0011  0.3113  0.4083
  971MOL0     C28072   5.490   8.927   0.524  0.3048  0.0244  0.1961
  971MOL0     C28073   5.595   9.006   0.467  0.3323  0.9844 -0.3719
  971MOL0     C28074   5.658   9.108   0.541  0.2894 -0.3798 -0.1036
  971MOL0     O28075   5.750   9.189   0.492  0.0534 -0.1141  0.1812
  971MOL0     C28076   5.882   9.152   0.522 -0.2496 -0.1206 -0.0994
  971MOL0     C28077   5.984   9.183   0.412 -0.9550 -0.0765 -0.5249
  971MOL0     C28078   5.945   9.142   0.272  0.2509  0.4916  0.4210
  971MOL0     C28079   6.041   9.186   0.159 -0.8271 -1.1021 -0.3618
  971MOL0     C28080   5.982   9.164   0.018  0.0483  0.6937  1.3786
  971MOL0     C28081   5.955   9.016  -0.021 -0.0243  0.5301  0.3944
  971MOL0     C28082   6.077   8.936  -0.033 -0.8290  1.4002  0.2079
  971MOL0     C28083   6.100   8.859   0.093  0.1198  1.2189 -0.1573
  971MOL0    Cl28084   5.989   8.712   0.078 -0.0067  0.5324  0.4872
  971MOL0     C28085   5.588   9.159   0.655 -0.2383  0.0678 -0.2438
  971MOL0     C28086   5.483   9.086   0.712  0.2818 -0.9298 -0.5840
  971MOL0     O28087   5.406   8.888   0.915  0.2099  0.1024  0.6161
  971MOL0     C28088   5.154   8.801   0.998  0.9355 -0.7761  0.9716
  971MOL0     C28089   5.019   8.761   1.036  0.1210  0.2165  0.4998
  971MOL0     N28090   4.328   8.421   0.754  0.0647 -1.0727  0.1948
  971MOL0     N28091   4.209   8.456   0.753  0.0755  0.8344  0.2011
  971MOL0     C28092   3.883   7.796   1.756  0.3979 -0.4391  0.7385
  971MOL0     C28093   3.907   7.653   1.763 -0.4463 -0.2225 -0.1704
  971MOL0     C28094   3.942   7.249   1.635 -0.4862  0.5510 -0.9335
  971MOL0     C28095   3.826   7.165   1.632  0.4428 -0.6798 -0.4215
  971MOL0     C28096   3.820   7.031   1.661 -0.1229 -0.6756 -0.2686
  971MOL0     C28097   3.944   6.972   1.689  0.3041  1.5787 -0.0942
  971MOL0     O28098   3.932   6.844   1.734  0.4097  0.2700  0.1233
  971MOL0     C28099   4.056   6.776   1.773 -0.0432  0.3411 -0.4321
  971MOL0     C28100   4.024   6.619   1.782  0.2821 -0.0619 -0.5074
  971MOL0     C28101   3.984   6.571   1.644  1.0943 -0.2388  0.2901
  971MOL0     C28102   4.090   6.574   1.539 -0.4858  0.3090  0.4583
  971MOL0     C28103   4.167   6.453   1.553 -0.0692 -0.2066  0.0174
  971MOL0     C28104   4.231   6.351   1.565 -0.7664  0.3079  0.3774
  971MOL0     C28105   4.060   7.051   1.677 -0.0842  1.4020 -0.4639
  971MOL0     C28106   4.068   7.189   1.658  0.9660  0.8027  0.4952
  971MOL0     H28107   4.187   7.667   1.557 -0.8567 -1.4002 -1.4701
  971MOL0     H28108   4.138   7.897   1.554 -0.4868  1.8378  2.7200
  971MOL0     H28109   4.091   8.096   1.586  0.1852  0.0807 -1.9357
  971MOL0     H28110   3.973   8.202   1.660  1.9120 -0.9219  1.2800
  971MOL0     H28111   3.814   8.183   1.487 -0.2929 -0.3348  0.6015
  971MOL0     H28112   3.899   8.046   1.417  0.8094  0.0999 -0.7798
  971MOL0     H28113   4.086   8.187   1.340 -1.5085 -2.7056 -2.1797
  971MOL0     H28114   3.992   8.326   1.416  1.6011  1.6987 -3.4169
  971MOL0     H28115   3.932   8.154   1.182 -1.1034  0.4375 -0.8828
  971MOL0     H28116   3.803   8.262   1.253 -0.1704 -1.7152  1.4484
  971MOL0     H28117   4.071   8.381   1.170  0.3228  1.5310 -0.8703
  971MOL0     H28118   3.917   8.463   1.180 -0.9875 -2.1865  1.4465
  971MOL0     H28119   3.845   8.288   0.992  1.9684 -2.1830 -2.2963
  971MOL0     H28120   4.012   8.297   0.946  0.0988  1.2763 -1.2197
  971MOL0     H28121   3.890   8.460   0.832  0.9953 -2.7044  1.2368
  971MOL0     H28122   3.828   8.539   0.984 -0.8661 -0.7396  0.9204
  971MOL0     H28123   4.058   8.609   1.026 -1.1966 -0.1692  0.7877
  971MOL0     H28124   4.023   8.642   0.852 -4.4237 -1.8922  0.0615
  971MOL0     H28125   4.271   8.477   1.074 -1.5789 -1.0998  0.2327
  971MOL0     H28126   4.524   8.294   0.906  0.5194  0.3684  0.2805
  971MOL0     H28127   4.502   8.390   1.041  0.2398 -3.1302  0.6978
  971MOL0     H28128   4.621   8.476   0.774  3.2406 -4.3986  0.3545
  971MOL0     H28129   4.696   8.463   0.934  1.5129 -1.3893 -1.9206
  971MOL0     H28130   4.482   8.679   0.886  1.5670 -0.5272 -2.0433
  971MOL0     H28131   4.573   8.653   1.041  1.1162 -2.2094  0.8539
  971MOL0     H28132   4.629   8.844   0.940 -0.7238  0.0852  0.1797
  971MOL0     H28133   4.689   8.764   0.793  1.8636  2.4412 -0.6301
  971MOL0     H28134   4.879   8.783   0.730  0.1777 -2.4125 -0.3076
  971MOL0     H28135   5.111   8.886   0.674 -0.0105 -0.0460  0.5062
  971MOL0     H28136   5.437   8.841   0.483 -0.8477  0.6351  0.3693
  971MOL0     H28137   5.647   8.986   0.374 -0.1339 -0.6893 -0.3135
  971MOL0     H28138   5.893   9.044   0.536  0.7049 -0.0447 -0.1590
  971MOL0     H28139   5.920   9.196   0.615  4.3650 -3.0845 -0.2533
  971MOL0     H28140   6.078   9.146   0.454 -0.6830  1.6022  0.4189
  971MOL0     H28141   5.995   9.291   0.412 -1.4887  0.0617  2.5581
  971MOL0     H28142   5.850   9.190   0.247  0.1685 -0.1975 -0.6737
  971MOL0     H28143   5.937   9.033   0.260  0.9593  0.5590 -0.8037
  971MOL0     H28144   6.044   9.294   0.172 -2.6043 -0.6945 -2.7803
  971MOL0     H28145   6.139   9.143   0.182 -0.4747 -0.0704  0.1337
  971MOL0     H28146   6.045   9.203  -0.062 -0.4974 -1.1910 -0.0467
  971MOL0     H28147   5.885   9.211   0.002 -0.6429 -1.0760  0.0365
  971MOL0     H28148   5.911   9.014  -0.121 -1.0349 -2.6739  0.7753
  971MOL0     H28149   5.879   8.966   0.040 -0.4268  1.7929  0.9537
  971MOL0     H28150   6.073   8.869  -0.119  1.3040  1.6959 -0.1639
  971MOL0     H28151   6.162   9.005  -0.038 -0.5576  0.9724 -1.8538
  971MOL0     H28152   6.093   8.907   0.191 -1.7819 -0.2754  0.5038
  971MOL0     H28153   6.205   8.830   0.091 -0.9764 -3.5827 -0.4096
  971MOL0     H28154   5.610   9.254   0.705 -4.8224  0.1659  2.1063
  971MOL0     H28155   5.429   9.107   0.803  1.9340 -3.6664  1.2035
  971MOL0     H28156   5.229   8.801   1.076  2.8832  4.1963 -0.4584
  971MOL0     H28157   4.985   8.722   1.131 -0.6105 -0.6572 -0.0986
  971MOL0     H28158   3.805   7.847   1.811  1.3197  1.0084  0.7605
  971MOL0     H28159   3.838   7.585   1.813 -4.7647  2.9323 -1.2441
  971MOL0     H28160   3.726   7.205   1.618  0.4807 -0.0829  0.9075
  971MOL0     H28161   3.722   6.983   1.667  0.3990 -1.6854  0.4879
  971MOL0     H28162   4.087   6.807   1.873  1.1879  0.6682 -0.9001
  971MOL0     H28163   4.127   6.810   1.697 -0.8739 -1.0798 -1.9061
  971MOL0     H28164   4.115   6.579   1.829  0.5439  5.2882  4.6547
  971MOL0     H28165   3.948   6.607   1.860 -0.6614 -0.8697 -1.5210
  971MOL0     H28166   3.907   6.640   1.609 -0.1001 -2.1407 -1.0984
  971MOL0     H28167   3.943   6.469   1.641  2.3917 -0.7552 -0.5159
  971MOL0     H28168   4.048   6.583   1.438 -3.3192  1.2959  1.6074
  971MOL0     H28169   4.154   6.661   1.553  0.2653 -0.4409  1.8504
  971MOL0     H28170   4.290   6.262   1.575  0.3017  0.9351 -0.1314
  971MOL0     H28171   4.155   7.006   1.701  1.2897  4.4356  0.2773
  971MOL0     H28172   4.163   7.242   1.664  0.2748  2.1861 -0.1699
  972MOL0     O28173   4.265   0.304   2.852 -0.4916 -1.0119 -0.0323
  972MOL0     C28174   4.264   0.185   2.880 -0.3046 -0.2303  0.6205
  972MOL0     O28175   4.269   0.131   3.000 -0.0927  0.4703  0.1398
  972MOL0     C28176   4.260   0.215   3.107 -0.3461 -0.3890  0.3711
  972MOL0     C28177   4.366   0.303   3.134 -0.0444 -1.0342  0.2009
  972MOL0     C28178   4.371   0.374   3.257  0.1235  0.0033 -0.1363
  972MOL0     C28179   4.271   0.358   3.354  0.2422  0.5565  0.6371
  972MOL0     O28180   4.294   0.426   3.476  0.8899 -0.7245 -0.2203
  972MOL0     C28181   4.190   0.453   3.568  0.5424  0.5171 -0.9996
  972MOL0     C28182   4.256   0.496   3.699  0.2443  0.8737 -0.0009
  972MOL0     C28183   4.146   0.553   3.786 -0.6844  0.2321 -0.5542
  972MOL0     C28184   4.193   0.585   3.929 -0.0674  0.0040  0.1872
  972MOL0     C28185   4.082   0.629   4.021 -0.5620 -0.3865 -0.5815
  972MOL0     C28186   4.019   0.511   4.095  1.0882  0.9066 -0.0750
  972MOL0     C28187   3.897   0.555   4.175  0.1210  0.0025  0.0874
  972MOL0     C28188   3.831   0.451   4.272  0.1842  0.5843 -0.8528
  972MOL0     N28189   3.707   0.509   4.332 -0.7462  0.0436 -0.4093
  972MOL0     C28190   3.619   0.446   4.419 -0.3000 -0.4295 -0.2551
  972MOL0     C28191   3.557   0.547   4.486  0.6456 -0.3371  0.5645
  972MOL0     C28192   3.460   0.519   4.587  0.6560 -0.2275 -0.6384
  972MOL0     C28193   3.370   0.634   4.619 -0.9284 -0.1478  0.3528
  972MOL0     C28194   3.280   0.669   4.497  0.3613  0.2668  0.1874
  972MOL0     C28195   3.136   0.698   4.527 -0.3355 -0.2125  0.4154
  972MOL0     O28196   3.091   0.585   4.598 -0.3500 -0.6917 -0.5390
  972MOL0     C28197   2.997   0.507   4.540 -0.2494 -0.1902  0.5537
  972MOL0     C28198   2.996   0.452   4.408 -0.7986  0.4561  0.3307
  972MOL0     C28199   2.889   0.372   4.368 -0.2004  0.7449 -0.1670
  972MOL0     C28200   2.781   0.339   4.450 -0.1540  0.3030  0.0886
  972MOL0     C28201   2.663   0.277   4.385  0.3994  0.2510  0.0029
  972MOL0     O28202   2.544   0.322   4.445 -0.4028  0.5720 -0.0386
  972MOL0     C28203   2.430   0.235   4.443 -0.0653  0.0452 -0.4376
  972MOL0     C28204   2.436   0.095   4.438 -1.4292 -1.1373  0.7585
  972MOL0     C28205   2.318   0.022   4.430 -1.1740  0.5041 -0.2366
  972MOL0     C28206   2.188   0.082   4.431 -0.0655  0.1016 -0.0717
  972MOL0     O28207   2.067   0.007   4.405 -0.2541  0.5882 -0.3340
  972MOL0     C28208   2.058  -0.046   4.272 -0.4881 -0.8056 -0.3077
  972MOL0     C28209   1.914  -0.054   4.210  0.1539 -1.4283 -0.0290
  972MOL0     C28210   1.895   0.058   4.107 -0.8091  0.1394 -0.1657
  972MOL0     C28211   1.787   0.033   4.004  0.4330 -0.9598  0.5104
  972MOL0     C28212   1.753   0.146   3.915  1.1160 -0.9382 -0.2462
  972MOL0     C28213   1.864   0.188   3.822  0.6057  0.3946 -0.2476
  972MOL0     C28214   1.813   0.299   3.730  0.3482 -0.0603 -0.8042
  972MOL0     C28215   1.811   0.420   3.811 -0.4268 -1.3357 -0.3435
  972MOL0    Cl28216   1.737   0.561   3.713 -0.0218 -0.3984 -0.7613
  972MOL0     C28217   2.188   0.227   4.450  0.1433 -0.4067  0.9344
  972MOL0     C28218   2.308   0.299   4.446 -0.0779 -0.4817 -0.6499
  972MOL0     O28219   2.666   0.189   4.298  0.9336 -0.6400 -0.6512
  972MOL0     C28220   2.793   0.376   4.587 -0.3965  0.5403  0.1023
  972MOL0     C28221   2.904   0.453   4.627  0.7219  0.7191 -0.0972
  972MOL0     N28222   3.592   0.673   4.436  0.0476 -0.0355  0.0160
  972MOL0     N28223   3.683   0.642   4.347 -0.5730 -0.7702 -0.5219
  972MOL0     C28224   4.161   0.282   3.317  0.1032  0.4540  0.7308
  972MOL0     C28225   4.153   0.227   3.194  0.4122  0.1483  0.2868
  972MOL0     C28226   4.244   0.088   2.773  0.2138  0.2445 -0.3327
  972MOL0     C28227   4.287   0.110   2.636  0.0873 -0.1613 -0.0410
  972MOL0     C28228   4.247   0.018   2.538 -0.6930 -0.0002  0.0816
  972MOL0     C28229   4.181  -0.093   2.570  0.3781  0.9693 -0.2787
  972MOL0     O28230   4.144  -0.171   2.459  0.5360 -0.3524 -0.3593
  972MOL0     C28231   4.045  -0.278   2.487  0.2964  0.0362 -0.4696
  972MOL0     C28232   3.993  -0.344   2.361  0.1041 -0.5820  0.4304
  972MOL0     C28233   3.869  -0.436   2.380  0.2497  0.8003  0.4632
  972MOL0     C28234   3.800  -0.470   2.253 -0.6910  0.6916  0.1223
  972MOL0     C28235   3.870  -0.574   2.175 -0.2403 -0.1924 -0.2500
  972MOL0     C28236   3.923  -0.655   2.104 -1.1551  0.0913 -0.1570
  972MOL0     C28237   4.142  -0.119   2.698 -0.2063  0.4045  0.5642
  972MOL0     C28238   4.175  -0.028   2.796  0.6091  0.1938 -0.3259
  972MOL0     H28239   4.446   0.329   3.065 -0.5316  1.8305  0.5845
  972MOL0     H28240   4.462   0.418   3.297  1.1751 -3.0511  1.1480
  972MOL0     H28241   4.138   0.360   3.596  0.9714 -0.3440 -2.8996
  972MOL0     H28242   4.115   0.522   3.529 -1.1027 -0.2833  0.5865
  972MOL0     H28243   4.329   0.574   3.677  0.1790  0.7105 -0.8040
  972MOL0     H28244   4.299   0.405   3.742 -0.9888 -0.2121 -0.9597
  972MOL0     H28245   4.054   0.492   3.788 -2.7160  2.9410 -3.0534
  972MOL0     H28246   4.120   0.650   3.744 -0.3828 -1.0153 -3.9582
  972MOL0     H28247   4.240   0.493   3.964 -0.2341 -1.1270 -2.3855
  972MOL0     H28248   4.267   0.664   3.920  1.0823 -1.0283  0.3317
  972MOL0     H28249   4.005   0.683   3.965 -0.3594  1.2753  0.6437
  972MOL0     H28250   4.122   0.702   4.092 -0.7075 -1.7193  0.9182
  972MOL0     H28251   4.085   0.459   4.165  1.0720  1.6638  0.5247
  972MOL0     H28252   3.995   0.441   4.015 -1.6241  0.3090  1.1275
  972MOL0     H28253   3.938   0.640   4.231  0.3063 -1.1123  1.7412
  972MOL0     H28254   3.819   0.580   4.104  1.1941  0.0292 -1.1155
  972MOL0     H28255   3.908   0.419   4.343  0.0045 -1.6037 -1.5451
  972MOL0     H28256   3.795   0.358   4.226  0.8802  0.0875 -0.4173
  972MOL0     H28257   3.616   0.340   4.443  2.7257 -0.4939  0.2219
  972MOL0     H28258   3.523   0.482   4.668  0.6933  1.7067  0.2728
  972MOL0     H28259   3.400   0.435   4.552  4.0038 -2.1216 -2.2240
  972MOL0     H28260   3.418   0.715   4.674 -0.0539 -0.8348  0.6131
  972MOL0     H28261   3.303   0.596   4.697  0.8003 -0.8846  1.5290
  972MOL0     H28262   3.318   0.754   4.440 -1.6921  1.0107 -0.1706
  972MOL0     H28263   3.267   0.590   4.423 -4.3231 -2.0632  2.9677
  972MOL0     H28264   3.072   0.717   4.440  2.7890  2.6618 -1.4772
  972MOL0     H28265   3.128   0.789   4.587  0.9848 -0.2173  0.6161
  972MOL0     H28266   3.068   0.494   4.339 -1.3306  2.2012  0.7829
  972MOL0     H28267   2.878   0.339   4.265 -0.2835 -1.1639  0.4299
  972MOL0     H28268   2.535   0.050   4.437 -1.0748 -0.4254 -0.7046
  972MOL0     H28269   2.327  -0.086   4.427 -2.8170  0.2516  1.8796
  972MOL0     H28270   2.102  -0.146   4.270  0.2821 -0.4622 -0.7405
  972MOL0     H28271   2.120   0.024   4.217 -1.6240  1.3934  1.0426
  972MOL0     H28272   1.835  -0.045   4.285  0.8813  0.6200  0.5624
  972MOL0     H28273   1.903  -0.150   4.160  0.7170 -1.8423  0.6142
  972MOL0     H28274   1.992   0.078   4.060 -1.2515  0.3381 -1.0061
  972MOL0     H28275   1.862   0.140   4.171 -1.4894 -2.4023  3.0348
  972MOL0     H28276   1.822  -0.055   3.949  3.4531 -2.6140  4.5204
  972MOL0     H28277   1.696   0.001   4.057 -0.3441 -1.9553 -1.3251
  972MOL0     H28278   1.706   0.224   3.976 -0.5340 -0.5989 -1.8637
  972MOL0     H28279   1.669   0.109   3.856 -0.3605 -0.3113  1.3958
  972MOL0     H28280   1.900   0.111   3.753  3.3227  1.8083 -0.5675
  972MOL0     H28281   1.950   0.221   3.882 -0.4658  0.3056  1.3931
  972MOL0     H28282   1.866   0.315   3.636  1.7537  1.4679  0.1662
  972MOL0     H28283   1.709   0.275   3.709  0.5622 -0.9911 -0.8161
  972MOL0     H28284   1.911   0.458   3.835 -1.3449  0.3578  1.0569
  972MOL0     H28285   1.748   0.417   3.900 -1.7746 -1.9844 -1.2723
  972MOL0     H28286   2.088   0.269   4.447 -0.2899 -1.3362  1.6868
  972MOL0     H28287   2.300   0.407   4.451 -1.1513 -0.5998  2.0681
  972MOL0     H28288   2.723   0.341   4.662 -2.2351  0.5885 -1.4876
  972MOL0     H28289   2.907   0.483   4.731 -3.7514 -2.2900  1.2041
  972MOL0     H28290   4.072   0.265   3.377 -0.6114  1.0601 -0.1168
  972MOL0     H28291   4.061   0.171   3.184  1.8539 -2.1900 -0.7967
  972MOL0     H28292   4.344   0.196   2.605  2.0698 -0.2736  2.9094
  972MOL0     H28293   4.264   0.053   2.436 -1.4722 -1.8828 -0.7309
  972MOL0     H28294   3.963  -0.251   2.554 -0.9544 -1.2205 -1.4303
  972MOL0     H28295   4.107  -0.355   2.534 -1.7253 -1.5434 -0.2387
  972MOL0     H28296   3.962  -0.254   2.307 -0.4387  0.5645  2.5664
  972MOL0     H28297   4.069  -0.400   2.305  0.2278  0.3120 -0.3072
  972MOL0     H28298   3.794  -0.403   2.452 -0.4368 -1.5449  0.8911
  972MOL0     H28299   3.917  -0.526   2.418  0.5978  1.3702  1.4085
  972MOL0     H28300   3.703  -0.500   2.295  0.5599 -1.2254  1.8242
  972MOL0     H28301   3.784  -0.379   2.195 -1.5778  0.8837  0.6506
  972MOL0     H28302   3.986  -0.730   2.060 -0.4696 -0.6920  2.0050
  972MOL0     H28303   4.080  -0.205   2.722  0.6346 -1.4828 -3.1782
  972MOL0     H28304   4.132  -0.037   2.895 -2.0175  0.9239 -1.3004
  973MOL0     O28305   1.680   4.377  10.639 -0.8227 -0.5119  0.5744
  973MOL0     C28306   1.597   4.419  10.562  0.1820 -0.2219 -0.0026
  973MOL0     O28307   1.519   4.536  10.577 -1.0451 -0.8072 -0.2474
  973MOL0     C28308   1.528   4.595  10.694  0.3522  0.0802 -0.1971
  973MOL0     C28309   1.648   4.641  10.754  0.3001  1.1823 -0.3513
  973MOL0     C28310   1.649   4.684  10.891  0.7168 -0.7447 -0.1891
  973MOL0     C28311   1.534   4.688  10.971  0.2068  0.8433  0.5332
  973MOL0     O28312   1.535   4.727  11.103 -0.2608  0.6310 -0.2290
  973MOL0     C28313   1.628   4.825  11.159 -0.6187  0.0746  0.5375
  973MOL0     C28314   1.551   4.940  11.221  0.0777  0.6143  0.2222
  973MOL0     C28315   1.635   5.012  11.316  0.2124  0.2859  0.1390
  973MOL0     C28316   1.533   5.107  11.387 -0.1571  0.1093 -0.0026
  973MOL0     C28317   1.421   5.055  11.491  0.1459  0.2167  0.0146
  973MOL0     C28318   1.466   4.930  11.558 -0.4791  0.4210  0.4483
  973MOL0     C28319   1.389   4.869  11.666  0.8740 -0.5426 -0.4105
  973MOL0     C28320   1.366   4.965  11.789 -0.6691  0.3475  0.2172
  973MOL0     N28321   1.397   4.914  11.924  0.3907  0.8342  1.0786
  973MOL0     C28322   1.354   4.971  12.046 -0.0540 -0.3072 -0.1731
  973MOL0     C28323   1.411   4.893  12.134  0.7093 -0.3221 -0.6316
  973MOL0     C28324   1.410   4.935  12.277 -0.1357 -0.1889 -0.3905
  973MOL0     C28325   1.537   4.864  12.334  0.0708 -0.3485  0.3816
  973MOL0     C28326   1.546   4.905  12.481 -0.5871  0.4494  0.1193
  973MOL0     C28327   1.480   4.798  12.572 -0.8018 -0.3029  0.2208
  973MOL0     O28328   1.464   4.853  12.703 -0.5480 -0.4921  0.2688
  973MOL0     C28329   1.377   4.952  12.727  0.4931  0.5505 -0.3115
  973MOL0     C28330   1.382   5.003  12.855 -0.5316 -0.8069  0.2123
  973MOL0     C28331   1.288   5.106  12.894  0.5352  0.2290  0.9451
  973MOL0     C28332   1.196   5.161  12.805  0.8011 -0.2168  0.6463
  973MOL0     C28333   1.112   5.279  12.838 -0.6372 -0.0501  0.5107
  973MOL0     O28334   1.141   5.338  12.956 -0.1893  0.3688  0.3620
  973MOL0     C28335   1.076   5.452  12.987  0.9840 -0.7186 -0.8176
  973MOL0     C28336   1.111   5.572  12.936 -0.4637  0.2336 -0.2019
  973MOL0     C28337   1.053   5.699  12.972 -0.8767  0.1571  0.2408
  973MOL0     C28338   0.937   5.701  13.049 -0.2214  0.9575  0.2785
  973MOL0     O28339   0.859   5.814  13.080 -0.2750  0.4163  0.4747
  973MOL0     C28340   0.940   5.936  13.103 -0.2648  0.5495  0.0536
  973MOL0     C28341   0.845   6.059  13.113  0.8422  0.5268 -0.1622
  973MOL0     C28342   0.794   6.058  13.259 -0.1951 -0.7465  0.3167
  973MOL0     C28343   0.691   6.179  13.290  0.0063  0.6809  0.4166
  973MOL0     C28344   0.718   6.246  13.427 -0.8769  0.2500 -0.1750
  973MOL0     C28345   0.647   6.377  13.453 -0.1681 -0.0185 -0.2209
  973MOL0     C28346   0.497   6.366  13.498  0.7395  0.6057  0.1128
  973MOL0     C28347   0.450   6.502  13.544  0.5817 -0.7937  0.6723
  973MOL0    Cl28348   0.372   6.575  13.404 -0.3196  0.4990  0.0728
  973MOL0     C28349   0.897   5.576  13.096 -0.0234 -0.1359 -0.2951
  973MOL0     C28350   0.971   5.458  13.076 -0.4724 -0.2435 -0.1971
  973MOL0     O28351   1.031   5.323  12.758 -1.0685  0.4014  0.3252
  973MOL0     C28352   1.185   5.092  12.678 -0.6462  0.1029  0.2665
  973MOL0     C28353   1.275   4.995  12.647  0.2066 -0.2542  0.1393
  973MOL0     N28354   1.462   4.789  12.071 -0.1052 -1.0362  0.3569
  973MOL0     N28355   1.449   4.789  11.946 -0.1072  0.1728  0.0978
  973MOL0     C28356   1.422   4.635  10.912 -0.1320 -0.1371 -0.0756
  973MOL0     C28357   1.410   4.596  10.773  0.8478 -0.2638  0.7552
  973MOL0     C28358   1.572   4.336  10.436  1.3597 -0.9587 -0.6044
  973MOL0     C28359   1.625   4.207  10.416  0.9325 -0.4923 -0.1619
  973MOL0     C28360   1.611   4.133  10.299 -0.5705  0.4991  0.2467
  973MOL0     C28361   1.532   4.191  10.191  0.0817  0.1233 -0.5519
  973MOL0     O28362   1.507   4.113  10.080 -0.3054  0.2560  0.2372
  973MOL0     C28363   1.622   4.093   9.994  0.8636 -0.2748 -0.0782
  973MOL0     C28364   1.601   3.966   9.916  0.6005  0.1089 -0.1797
  973MOL0     C28365   1.707   3.942   9.812 -0.0911 -0.4243 -0.4447
  973MOL0     C28366   1.679   3.831   9.712  0.2814  0.4042  0.0754
  973MOL0     C28367   1.681   3.693   9.769 -0.3878  0.0075 -0.2314
  973MOL0     C28368   1.689   3.579   9.799 -0.1636 -0.4467 -0.2827
  973MOL0     C28369   1.473   4.312  10.213  0.2269 -0.2115  0.0804
  973MOL0     C28370   1.493   4.386  10.332  0.4990  0.1553 -0.0656
  973MOL0     H28371   1.735   4.639  10.690 -0.2678  2.9253 -1.2195
  973MOL0     H28372   1.739   4.713  10.944  0.0923  1.5703 -0.2733
  973MOL0     H28373   1.697   4.863  11.083 -0.5445 -0.2061  0.4661
  973MOL0     H28374   1.676   4.764  11.236 -1.8130 -0.2006  1.0863
  973MOL0     H28375   1.460   4.900  11.266  0.4764 -1.7186 -0.9037
  973MOL0     H28376   1.516   5.004  11.139 -2.7528  0.7825  1.4428
  973MOL0     H28377   1.702   5.075  11.257  0.9639 -3.1662 -3.0800
  973MOL0     H28378   1.693   4.937  11.370 -0.1231 -1.8428 -2.2763
  973MOL0     H28379   1.596   5.168  11.454  1.3271  1.5936 -2.5752
  973MOL0     H28380   1.476   5.174  11.323 -0.7428 -0.4020 -0.0245
  973MOL0     H28381   1.332   5.034  11.430 -0.2383 -0.3483  0.7590
  973MOL0     H28382   1.388   5.144  11.545  1.2078  1.1538 -0.8201
  973MOL0     H28383   1.565   4.940  11.602 -0.4937 -2.2607  1.2934
  973MOL0     H28384   1.494   4.854  11.484  3.0191  1.6666  0.3283
  973MOL0     H28385   1.290   4.846  11.624  1.2491  2.4427 -3.3378
  973MOL0     H28386   1.441   4.778  11.698  0.1643 -0.8355 -0.0569
  973MOL0     H28387   1.265   5.006  11.787 -0.0862  1.8619 -2.1494
  973MOL0     H28388   1.440   5.045  11.782 -0.8985  0.8719  2.6744
  973MOL0     H28389   1.308   5.069  12.058 -1.3115 -0.9585  0.5593
  973MOL0     H28390   1.316   4.907  12.326  1.0157 -4.3580 -0.2536
  973MOL0     H28391   1.421   5.044  12.275  2.7927 -0.4137 -0.8269
  973MOL0     H28392   1.634   4.891  12.292 -0.4006 -0.2210 -0.6535
  973MOL0     H28393   1.525   4.755  12.329 -1.4526 -0.1702 -2.7464
  973MOL0     H28394   1.655   4.907  12.492 -0.3907 -2.7539 -0.4430
  973MOL0     H28395   1.503   5.005  12.494 -0.2425  0.3999  1.8740
  973MOL0     H28396   1.520   4.699  12.595 -1.8068 -0.4676  1.4048
  973MOL0     H28397   1.388   4.760  12.527 -0.1827 -1.2338 -0.2863
  973MOL0     H28398   1.454   4.971  12.930  2.2108  1.0751 -1.4297
  973MOL0     H28399   1.290   5.135  12.999 -4.0526  4.5190  0.2363
  973MOL0     H28400   1.188   5.568  12.859  0.0572  4.3608 -0.0951
  973MOL0     H28401   1.104   5.786  12.932  1.4227 -1.6106 -0.8810
  973MOL0     H28402   1.011   5.945  13.020  0.6215 -1.9325  0.4721
  973MOL0     H28403   0.997   5.930  13.196 -0.4748  1.0137  0.2172
  973MOL0     H28404   0.765   6.044  13.039 -0.5468  2.4898  0.8570
  973MOL0     H28405   0.909   6.145  13.092  2.1056 -0.2198  0.5485
  973MOL0     H28406   0.867   6.054  13.341  0.3087 -4.6315 -0.1314
  973MOL0     H28407   0.739   5.964  13.266 -2.3965  0.4889  0.5859
  973MOL0     H28408   0.696   6.250  13.207  0.8431  0.9896  0.7121
  973MOL0     H28409   0.588   6.143  13.295  0.7401 -1.4565  1.0502
  973MOL0     H28410   0.825   6.260  13.413 -0.9596 -0.4088 -1.8007
  973MOL0     H28411   0.687   6.179  13.508 -1.8903 -1.9833 -2.2667
  973MOL0     H28412   0.663   6.442  13.367  1.4997  0.8282  0.6780
  973MOL0     H28413   0.700   6.425  13.536  2.2778 -2.1143 -0.4439
  973MOL0     H28414   0.432   6.319  13.423 -2.6115 -0.4344  3.3470
  973MOL0     H28415   0.505   6.289  13.575  0.7922  1.6663  1.2020
  973MOL0     H28416   0.530   6.566  13.583 -1.3040  1.6311  0.8394
  973MOL0     H28417   0.367   6.500  13.615 -0.8935  2.0528 -0.8011
  973MOL0     H28418   0.804   5.578  13.152  0.8365  0.9285  1.1804
  973MOL0     H28419   0.921   5.371  13.118 -1.9433  1.9014  2.8319
  973MOL0     H28420   1.106   5.119  12.609 -0.2815 -0.3241 -0.3309
  973MOL0     H28421   1.264   4.954  12.547  2.3403 -2.1192  0.5754
  973MOL0     H28422   1.341   4.621  10.982 -1.1704  3.2925 -0.4555
  973MOL0     H28423   1.314   4.561  10.738 -0.8168  3.5788  1.0546
  973MOL0     H28424   1.655   4.143  10.498  1.7242 -0.7570 -0.6474
  973MOL0     H28425   1.645   4.030  10.300  0.0179  0.5530 -2.9341
  973MOL0     H28426   1.720   4.089  10.042  1.0260 -0.6989 -0.4349
  973MOL0     H28427   1.627   4.175   9.921  1.6475 -4.4661 -5.3744
  973MOL0     H28428   1.598   3.880   9.983  1.3958 -0.9409 -1.4506
  973MOL0     H28429   1.501   3.985   9.877  0.7408 -0.5432 -0.8748
  973MOL0     H28430   1.800   3.928   9.868 -0.4634  2.2271  1.0042
  973MOL0     H28431   1.720   4.039   9.763  1.8086  0.0037  0.8062
  973MOL0     H28432   1.574   3.846   9.685 -0.6761 -1.5178  2.3729
  973MOL0     H28433   1.748   3.841   9.628  0.3636  3.1761  0.3846
  973MOL0     H28434   1.688   3.476   9.830 -0.4858 -0.0304  1.1906
  973MOL0     H28435   1.412   4.346  10.129 -2.0486 -1.6456  1.0594
  973MOL0     H28436   1.451   4.485  10.345  1.2198  0.3925  0.5690
  974MOL0     O28437   3.483   0.306   4.872  0.8791  0.9350 -0.3197
  974MOL0     C28438   3.458   0.214   4.795 -0.2981  0.2149  1.0777
  974MOL0     O28439   3.338   0.158   4.764 -0.4846  0.6352  0.6521
  974MOL0     C28440   3.222   0.169   4.843  0.0181 -0.2228  0.3955
  974MOL0     C28441   3.136   0.072   4.825  0.7178  0.6886 -0.1331
  974MOL0     C28442   3.013   0.056   4.899  0.0424 -0.7254 -0.2341
  974MOL0     C28443   2.974   0.171   4.969 -0.8510  0.1930  0.2312
  974MOL0     O28444   2.845   0.150   5.012 -0.3239 -0.6190 -0.3876
  974MOL0     C28445   2.805   0.222   5.128  0.4425 -1.1166 -0.6848
  974MOL0     C28446   2.677   0.316   5.085  0.0281  1.2605 -0.0112
  974MOL0     C28447   2.607   0.382   5.200 -0.1244  0.2556  0.2706
  974MOL0     C28448   2.585   0.304   5.329  0.0205 -0.1349 -0.5006
  974MOL0     C28449   2.509   0.175   5.311  0.2303 -0.6691  0.4747
  974MOL0     C28450   2.472   0.103   5.444 -0.0614 -0.0892 -0.3738
  974MOL0     C28451   2.366  -0.006   5.421 -0.0029  0.1909  0.1392
  974MOL0     C28452   2.418  -0.108   5.312 -0.2655 -1.1987 -1.2480
  974MOL0     N28453   2.540  -0.178   5.354  0.0032  0.3265  0.4940
  974MOL0     C28454   2.652  -0.164   5.277  0.2075  0.7271 -0.0434
  974MOL0     C28455   2.733  -0.258   5.330 -0.5678 -0.4333  0.1166
  974MOL0     C28456   2.885  -0.286   5.300 -0.3311 -0.3744 -0.5770
  974MOL0     C28457   2.942  -0.188   5.186 -0.4781  0.0361 -0.9355
  974MOL0     C28458   3.096  -0.192   5.175  0.1458 -0.0825  0.0335
  974MOL0     C28459   3.122  -0.316   5.089  0.6366  0.2208 -0.6707
  974MOL0     O28460   3.263  -0.348   5.079  0.4560  0.4120 -0.1672
  974MOL0     C28461   3.313  -0.344   4.949 -0.0035 -0.5235  0.0910
  974MOL0     C28462   3.334  -0.214   4.891 -0.0656  0.1982 -0.4067
  974MOL0     C28463   3.409  -0.206   4.770  0.0844 -0.2898 -0.0018
  974MOL0     C28464   3.462  -0.326   4.718  0.5791  0.1665 -0.2420
  974MOL0     C28465   3.541  -0.340   4.596 -0.6338  0.3508  0.1452
  974MOL0     O28466   3.539  -0.463   4.536  0.7492 -0.0526 -0.1170
  974MOL0     C28467   3.633  -0.480   4.442 -0.7218 -0.3195 -0.0191
  974MOL0     C28468   3.753  -0.561   4.459  0.5698  1.2879  0.9354
  974MOL0     C28469   3.845  -0.600   4.350  0.6452 -0.3026 -0.3941
  974MOL0     C28470   3.830  -0.533   4.230  0.7223 -1.0828  0.1693
  974MOL0     O28471   3.920  -0.560   4.132 -0.1633  0.4261  0.4584
  974MOL0     C28472   4.010  -0.451   4.092 -0.0030  0.1206  0.9122
  974MOL0     C28473   3.968  -0.428   3.945  0.1482  0.6686 -0.4292
  974MOL0     C28474   4.033  -0.299   3.903  0.4681 -0.0089 -0.3885
  974MOL0     C28475   4.186  -0.273   3.913 -0.3060 -0.8237 -0.4187
  974MOL0     C28476   4.272  -0.368   3.829 -1.3229  0.5773 -0.2639
  974MOL0     C28477   4.416  -0.401   3.869  0.0862 -0.5140 -0.0492
  974MOL0     C28478   4.477  -0.265   3.865  0.5198 -0.2744 -0.4037
  974MOL0     C28479   4.625  -0.256   3.888 -0.0835 -0.0019 -0.0162
  974MOL0    Cl28480   4.639  -0.231   4.068 -0.6442  0.3385 -0.5574
  974MOL0     C28481   3.722  -0.440   4.214  0.7283  0.6368  0.3254
  974MOL0     C28482   3.629  -0.415   4.315  0.2862  0.2636  0.1037
  974MOL0     O28483   3.620  -0.255   4.581  0.1080  0.6834  0.6092
  974MOL0     C28484   3.432  -0.444   4.780  0.3533  0.7155  0.2328
  974MOL0     C28485   3.349  -0.459   4.890 -1.1197  0.4604  0.3738
  974MOL0     N28486   2.669  -0.336   5.427 -0.0840 -0.1090  0.1423
  974MOL0     N28487   2.547  -0.285   5.438 -0.6148  0.2722  0.2283
  974MOL0     C28488   3.058   0.282   4.980 -0.7777 -0.0744  0.1490
  974MOL0     C28489   3.184   0.275   4.915  0.8020 -1.3079 -1.2914
  974MOL0     C28490   3.569   0.189   4.697  0.5760 -0.0513 -1.6735
  974MOL0     C28491   3.553   0.104   4.592  0.0809  0.0375 -0.1572
  974MOL0     C28492   3.663   0.060   4.515 -0.3604 -0.5137 -0.6723
  974MOL0     C28493   3.793   0.108   4.536 -0.5064 -0.7222  0.5050
  974MOL0     O28494   3.890   0.075   4.451 -0.2809 -0.0283  0.1247
  974MOL0     C28495   4.028   0.054   4.491  0.6997 -0.3411  0.0899
  974MOL0     C28496   4.058  -0.061   4.577 -0.4219  0.5752 -0.1424
  974MOL0     C28497   3.995  -0.194   4.533  1.4215  1.5012  0.1895
  974MOL0     C28498   4.026  -0.247   4.389  0.3030 -0.4339 -0.3299
  974MOL0     C28499   4.167  -0.264   4.370 -0.6853 -0.9720  0.0066
  974MOL0     C28500   4.276  -0.288   4.343 -0.2739  0.3828  0.1769
  974MOL0     C28501   3.804   0.204   4.634  0.1012 -0.0681 -0.1279
  974MOL0     C28502   3.694   0.256   4.710 -0.9421  0.4921 -0.2523
  974MOL0     H28503   3.168   0.000   4.750  1.3149  0.4296  0.3611
  974MOL0     H28504   2.951  -0.030   4.879  1.0769 -1.5780  0.1203
  974MOL0     H28505   2.883   0.277   5.182 -2.0897  1.3255  0.7842
  974MOL0     H28506   2.761   0.145   5.193 -2.6496  1.3170  0.3390
  974MOL0     H28507   2.608   0.270   5.014  2.3332 -0.2371 -1.4322
  974MOL0     H28508   2.733   0.391   5.027  0.4678 -0.3577 -1.7795
  974MOL0     H28509   2.517   0.434   5.164  0.5265 -0.9337 -3.4761
  974MOL0     H28510   2.678   0.461   5.227 -2.3061  3.6053 -2.8584
  974MOL0     H28511   2.683   0.273   5.367  1.0680 -2.2469 -4.3115
  974MOL0     H28512   2.529   0.362   5.402  1.2177  0.3227  0.0944
  974MOL0     H28513   2.564   0.103   5.251  0.7912 -1.0747  1.4536
  974MOL0     H28514   2.418   0.213   5.263  1.3344  1.1796 -0.2622
  974MOL0     H28515   2.418   0.171   5.511  0.2100 -1.6052  1.4707
  974MOL0     H28516   2.560   0.060   5.493 -1.0725 -0.2353  1.4187
  974MOL0     H28517   2.342  -0.058   5.514 -0.3997  1.4730  0.7913
  974MOL0     H28518   2.268   0.035   5.396 -2.4799 -1.6679  5.2791
  974MOL0     H28519   2.434  -0.066   5.213  2.0057  0.2311 -0.3399
  974MOL0     H28520   2.349  -0.193   5.321 -0.0095 -1.2777  0.2774
  974MOL0     H28521   2.687  -0.096   5.201  0.8115  0.4274 -0.0430
  974MOL0     H28522   2.899  -0.391   5.273  3.4468 -0.0891 -0.3993
  974MOL0     H28523   2.949  -0.265   5.386 -0.5324 -1.4810 -0.1446
  974MOL0     H28524   2.904  -0.088   5.210  1.8380  1.0536 -1.2376
  974MOL0     H28525   2.895  -0.196   5.087  1.2169  1.2225 -1.8882
  974MOL0     H28526   3.123  -0.097   5.129  3.3008 -0.1548  1.4903
  974MOL0     H28527   3.131  -0.211   5.277  1.0986 -0.9456 -0.4373
  974MOL0     H28528   3.066  -0.303   4.996  0.5909 -1.2818 -0.8780
  974MOL0     H28529   3.074  -0.405   5.133  1.9365 -0.5691 -0.8043
  974MOL0     H28530   3.299  -0.118   4.926 -1.3161 -0.4272  0.1270
  974MOL0     H28531   3.416  -0.110   4.719 -0.8182 -0.2659 -0.1087
  974MOL0     H28532   3.759  -0.618   4.552  1.3045  0.6309  0.5005
  974MOL0     H28533   3.918  -0.679   4.365  0.5947 -0.0047  1.6969
  974MOL0     H28534   4.114  -0.485   4.096  0.5511  1.7301  0.7227
  974MOL0     H28535   3.997  -0.356   4.143  1.8322  0.2769  1.1520
  974MOL0     H28536   3.861  -0.413   3.931 -0.0551  0.1389  0.4384
  974MOL0     H28537   3.991  -0.514   3.882  2.8410  0.4219  0.7178
  974MOL0     H28538   3.980  -0.223   3.961  0.9901  0.0080  0.0744
  974MOL0     H28539   4.019  -0.280   3.796  0.7354  0.5215 -0.3341
  974MOL0     H28540   4.213  -0.168   3.903 -0.2833 -0.5351  2.0524
  974MOL0     H28541   4.211  -0.308   4.013 -0.6295 -4.8295 -1.5350
  974MOL0     H28542   4.270  -0.339   3.723 -1.8711 -0.0885 -0.4522
  974MOL0     H28543   4.228  -0.467   3.846 -2.6480  0.3906 -3.8165
  974MOL0     H28544   4.473  -0.464   3.801  4.0453  1.5296  1.0791
  974MOL0     H28545   4.409  -0.443   3.970  0.8966  0.0776  0.2606
  974MOL0     H28546   4.455  -0.214   3.770  0.4693 -0.1668 -0.3342
  974MOL0     H28547   4.424  -0.201   3.935 -2.0402 -4.0330  1.4502
  974MOL0     H28548   4.665  -0.167   3.837  0.5564 -0.1017  0.3000
  974MOL0     H28549   4.683  -0.342   3.854  0.7964 -0.8886  3.3587
  974MOL0     H28550   3.703  -0.394   4.118 -3.8854  1.5510  1.4389
  974MOL0     H28551   3.552  -0.341   4.296 -2.8827 -2.5232  1.0444
  974MOL0     H28552   3.461  -0.540   4.739 -0.3120 -0.5760  2.5984
  974MOL0     H28553   3.333  -0.555   4.937  0.3209 -1.7379 -3.2074
  974MOL0     H28554   3.021   0.375   5.022 -1.7776  1.1495 -3.0648
  974MOL0     H28555   3.250   0.361   4.925 -0.5554 -0.0322 -2.8109
  974MOL0     H28556   3.461   0.053   4.565  1.5345 -4.0523  1.8886
  974MOL0     H28557   3.629  -0.022   4.453  0.4524 -3.2416  2.2532
  974MOL0     H28558   4.056   0.141   4.551 -0.6647  0.6386 -0.6432
  974MOL0     H28559   4.091   0.059   4.402  1.1096 -1.2819  0.3094
  974MOL0     H28560   4.167  -0.068   4.582 -0.5398 -0.7181  1.6810
  974MOL0     H28561   4.022  -0.045   4.679 -0.7795  2.4414 -0.5268
  974MOL0     H28562   3.888  -0.176   4.543  1.8666  3.5636  2.1556
  974MOL0     H28563   4.013  -0.281   4.596 -4.8484  1.2757  2.2940
  974MOL0     H28564   3.981  -0.347   4.384 -3.4568  0.9380  1.5113
  974MOL0     H28565   3.987  -0.181   4.311  1.8000 -1.6145 -2.1673
  974MOL0     H28566   4.377  -0.309   4.317 -0.3742 -0.7885  0.6830
  974MOL0     H28567   3.904   0.239   4.658  0.1526 -2.1697  3.3923
  974MOL0     H28568   3.709   0.317   4.798 -1.0847 -2.6565  2.1523
  975MOL0     O28569   6.635   1.877   0.441  0.7276 -0.1146  0.5451
  975MOL0     C28570   6.596   1.844   0.330  0.1046 -0.3761  0.1696
  975MOL0     O28571   6.667   1.797   0.220 -0.6831  0.5397  0.2069
  975MOL0     C28572   6.792   1.752   0.252 -0.1987  0.1276  0.4913
  975MOL0     C28573   6.814   1.653   0.341  0.0564  0.7008 -0.7265
  975MOL0     C28574   6.941   1.593   0.370 -0.4404 -0.9757  0.3801
  975MOL0     C28575   7.042   1.655   0.305 -0.1812 -0.2088  0.3484
  975MOL0     O28576   7.175   1.610   0.305  0.4115  0.6766  0.4024
  975MOL0     C28577   7.272   1.705   0.332  0.5876 -0.0737  0.4701
  975MOL0     C28578   7.343   1.675   0.461  0.5237 -0.6834  0.1913
  975MOL0     C28579   7.464   1.752   0.498 -0.3486 -0.5511  0.2577
  975MOL0     C28580   7.454   1.910   0.502  0.3282  0.0286  0.7340
  975MOL0     C28581   7.578   1.967   0.547 -1.1135 -0.3730 -0.0465
  975MOL0     C28582   7.588   2.123   0.522  0.2607 -0.0867  0.4258
  975MOL0     C28583   7.677   2.184   0.625  0.0182  0.2266 -0.9749
  975MOL0     C28584   7.819   2.129   0.614  0.1601  0.6327  0.3359
  975MOL0     N28585   7.875   2.163   0.482  0.0279  0.3809 -0.3504
  975MOL0     C28586   7.928   2.275   0.453 -0.2980  0.4847  0.1083
  975MOL0     C28587   7.942   2.266   0.322 -0.4684  0.0241  0.0318
  975MOL0     C28588   8.012   2.375   0.246 -0.2759 -0.8536  0.2383
  975MOL0     C28589   8.133   2.435   0.317 -0.7882 -0.1820 -0.2835
  975MOL0     C28590   8.238   2.506   0.233  0.5984 -0.5615 -0.2722
  975MOL0     C28591   8.373   2.432   0.254  0.2993  0.4904  0.5350
  975MOL0     O28592   8.477   2.463   0.157  0.4144  0.1724  1.0639
  975MOL0     C28593   8.532   2.579   0.182 -0.2864 -0.9801 -0.9222
  975MOL0     C28594   8.640   2.580   0.270  0.1614  0.1713  0.8401
  975MOL0     C28595   8.710   2.696   0.297  0.7757 -0.2066  0.9721
  975MOL0     C28596   8.669   2.818   0.239 -0.6195 -0.3278 -0.1369
  975MOL0     C28597   8.752   2.937   0.270  0.8593  0.2594  0.2983
  975MOL0     O28598   8.872   2.919   0.347  0.7864 -1.1420  1.1064
  975MOL0     C28599   8.953   3.029   0.351 -0.0661 -0.3124  0.0785
  975MOL0     C28600   8.919   3.153   0.407 -0.2131  1.2264 -0.0474
  975MOL0     C28601   9.006   3.260   0.423  0.3314  0.1457 -0.8263
  975MOL0     C28602   9.132   3.254   0.352 -0.8535 -0.7393 -0.4857
  975MOL0     O28603   9.230   3.354   0.340  0.0125  0.7008 -0.0097
  975MOL0     C28604   9.203   3.495   0.351 -0.0864 -0.7589 -0.4355
  975MOL0     C28605   9.110   3.539   0.242 -0.3510  0.3919  0.1650
  975MOL0     C28606   9.098   3.688   0.246  0.2167  0.8069  0.7172
  975MOL0     C28607   9.064   3.749   0.386  0.0410 -0.3914  0.0182
  975MOL0     C28608   8.993   3.885   0.373  0.2363 -0.6379  0.6557
  975MOL0     C28609   8.955   3.968   0.505  0.1842  0.4812 -0.7785
  975MOL0     C28610   8.862   3.873   0.585 -0.2763 -0.2985  0.1896
  975MOL0     C28611   8.828   3.960   0.707  0.2526 -0.2477 -0.1061
  975MOL0    Cl28612   8.748   4.107   0.669 -0.0220 -0.4425 -0.3594
  975MOL0     C28613   9.160   3.132   0.294 -0.5870 -0.4347  1.3038
  975MOL0     C28614   9.074   3.017   0.292 -0.5707 -0.6424 -0.3998
  975MOL0     O28615   8.709   3.044   0.233  0.2165  0.0318  0.8107
  975MOL0     C28616   8.554   2.824   0.154  0.5612  0.2626  0.4451
  975MOL0     C28617   8.495   2.701   0.124  0.2076 -0.0723  1.0053
  975MOL0     N28618   7.920   2.137   0.277 -0.3115 -0.7219  0.5010
  975MOL0     N28619   7.873   2.074   0.377 -0.2315 -0.4387  0.4587
  975MOL0     C28620   7.022   1.752   0.202  0.1905  0.0335  0.3477
  975MOL0     C28621   6.895   1.803   0.182  0.0949  0.8774 -0.0620
  975MOL0     C28622   6.452   1.863   0.315  0.2134  0.6481 -0.0925
  975MOL0     C28623   6.387   1.884   0.184 -0.0484 -0.3967 -0.0739
  975MOL0     C28624   6.259   1.886   0.162  0.5109  0.7313  0.1761
  975MOL0     C28625   6.173   1.881   0.277  0.0911 -0.4330  0.0854
  975MOL0     O28626   6.038   1.896   0.280 -0.4082 -0.0032 -0.1101
  975MOL0     C28627   5.967   1.956   0.172 -0.5373 -0.3231  0.3707
  975MOL0     C28628   5.826   1.980   0.207  0.5580  0.9157  0.5180
  975MOL0     C28629   5.734   2.010   0.084  0.0678 -0.3581 -0.1873
  975MOL0     C28630   5.775   2.124  -0.020 -0.5395  0.7977 -0.1320
  975MOL0     C28631   5.838   2.245   0.028  0.2661  0.0992 -0.4039
  975MOL0     C28632   5.905   2.340   0.065  0.8242  0.1174  1.3195
  975MOL0     C28633   6.232   1.874   0.405  0.2915  0.2581 -0.3030
  975MOL0     C28634   6.368   1.860   0.423 -0.3839 -0.6730 -0.5697
  975MOL0     H28635   6.734   1.610   0.400  1.5458 -2.7687 -0.9957
  975MOL0     H28636   6.971   1.508   0.430  0.0886 -0.0239  1.5069
  975MOL0     H28637   7.234   1.807   0.337 -2.6242 -1.0287 -1.3620
  975MOL0     H28638   7.356   1.717   0.262  0.8917 -0.5875  0.7355
  975MOL0     H28639   7.369   1.569   0.465 -0.4819 -0.9190  0.8597
  975MOL0     H28640   7.268   1.687   0.540 -3.3042  0.1322 -3.2182
  975MOL0     H28641   7.539   1.729   0.421 -2.3964 -0.5757 -1.8269
  975MOL0     H28642   7.495   1.724   0.599 -2.6917  1.9567  1.8248
  975MOL0     H28643   7.429   1.965   0.411  1.1710  1.8575  1.5726
  975MOL0     H28644   7.383   1.941   0.579 -0.4961  1.5459 -0.5852
  975MOL0     H28645   7.664   1.916   0.503 -1.7789  0.5089 -2.5810
  975MOL0     H28646   7.579   1.944   0.654 -2.0758 -1.8027 -0.3243
  975MOL0     H28647   7.484   2.157   0.527 -0.1220 -1.3784  3.8286
  975MOL0     H28648   7.624   2.136   0.420  1.0044 -3.4694  0.1246
  975MOL0     H28649   7.669   2.293   0.621 -5.0283  0.8119  6.0885
  975MOL0     H28650   7.640   2.155   0.724 -0.1361  0.4302 -0.9724
  975MOL0     H28651   7.823   2.021   0.631  2.9092  0.1277 -2.6438
  975MOL0     H28652   7.889   2.168   0.687 -0.1491  3.1625 -0.6057
  975MOL0     H28653   7.949   2.368   0.506  3.6093  1.2235 -2.2611
  975MOL0     H28654   7.941   2.458   0.233  0.6936  0.1214  0.9793
  975MOL0     H28655   8.031   2.321   0.153 -1.2280 -2.0303  0.7012
  975MOL0     H28656   8.177   2.354   0.376 -1.2462 -1.4840 -1.6723
  975MOL0     H28657   8.096   2.513   0.384 -3.0273  2.0191 -3.7434
  975MOL0     H28658   8.207   2.498   0.128  2.4963  0.5289 -0.9566
  975MOL0     H28659   8.237   2.615   0.240 -1.8288 -0.6497  1.8882
  975MOL0     H28660   8.351   2.330   0.222 -0.8504  2.2754 -5.6201
  975MOL0     H28661   8.403   2.425   0.359 -0.1363 -1.1124  0.5818
  975MOL0     H28662   8.673   2.487   0.315  1.9631 -0.9358 -2.4666
  975MOL0     H28663   8.794   2.700   0.366  1.4497 -0.9826  0.2188
  975MOL0     H28664   8.822   3.147   0.456 -0.7214  0.6381 -1.0965
  975MOL0     H28665   8.982   3.355   0.470  1.2072  0.4470 -0.9884
  975MOL0     H28666   9.297   3.551   0.345 -0.1926 -0.1987  1.9252
  975MOL0     H28667   9.160   3.515   0.450 -1.0638 -1.7852 -0.6422
  975MOL0     H28668   9.011   3.495   0.257 -0.2151  0.1825  0.4618
  975MOL0     H28669   9.150   3.513   0.144  2.6915  4.5666  0.0629
  975MOL0     H28670   9.032   3.727   0.168 -2.6789  0.4806  2.8455
  975MOL0     H28671   9.195   3.731   0.219 -1.0785  3.2908 -0.3469
  975MOL0     H28672   8.999   3.682   0.443  0.6250 -2.0443 -1.1593
  975MOL0     H28673   9.154   3.770   0.444  0.9438  1.1171 -1.7881
  975MOL0     H28674   8.900   3.870   0.317  2.1907 -2.5545 -2.3837
  975MOL0     H28675   9.045   3.950   0.302 -1.3142 -1.1776 -1.0372
  975MOL0     H28676   8.915   4.067   0.483  1.0390  1.2053  0.7860
  975MOL0     H28677   9.047   3.974   0.565  0.8896 -0.8756 -1.6706
  975MOL0     H28678   8.775   3.842   0.527  1.0061  0.6947 -2.4940
  975MOL0     H28679   8.914   3.782   0.614 -0.8852 -0.5899  0.3734
  975MOL0     H28680   8.916   3.977   0.770 -0.8456 -0.4886  1.5486
  975MOL0     H28681   8.757   3.904   0.767  0.2900 -1.1354 -0.8612
  975MOL0     H28682   9.255   3.118   0.243  0.3745 -1.0267  3.1480
  975MOL0     H28683   9.111   2.928   0.242 -1.3544  0.3596 -2.8734
  975MOL0     H28684   8.512   2.912   0.106  0.2242  0.1074  0.4496
  975MOL0     H28685   8.414   2.707   0.052  1.6337 -0.1604 -0.6661
  975MOL0     H28686   7.110   1.799   0.160  1.4158 -1.4884  1.1404
  975MOL0     H28687   6.888   1.870   0.098 -2.6011  0.4720 -0.2400
  975MOL0     H28688   6.455   1.878   0.099  1.7066  2.3107  1.0179
  975MOL0     H28689   6.215   1.871   0.064  1.6823 -0.4643 -0.2029
  975MOL0     H28690   5.975   1.904   0.076 -1.3230  0.1065  0.0611
  975MOL0     H28691   6.016   2.054   0.178  0.4661 -0.8798  1.7316
  975MOL0     H28692   5.795   1.890   0.260 -0.3859  0.1713 -1.2192
  975MOL0     H28693   5.812   2.070   0.268 -3.6805  1.4525 -0.9057
  975MOL0     H28694   5.641   2.046   0.129  1.3754  0.6676  1.8721
  975MOL0     H28695   5.718   1.915   0.033 -3.0900 -0.2752  0.4356
  975MOL0     H28696   5.833   2.075  -0.099 -0.6924  0.0563  0.2049
  975MOL0     H28697   5.688   2.154  -0.080  0.5947  1.4267 -1.5125
  975MOL0     H28698   5.958   2.433   0.077 -1.7922  2.0083 -0.7071
  975MOL0     H28699   6.164   1.877   0.489 -0.3791  1.6103 -0.8682
  975MOL0     H28700   6.400   1.847   0.526 -1.4065 -2.7268 -0.4635
  976MOL0     O28701   2.923   0.438   5.481  0.2462 -0.0891  0.2345
  976MOL0     C28702   3.031   0.414   5.430 -0.3479 -0.0067  0.0253
  976MOL0     O28703   3.128   0.316   5.468 -0.1430 -0.0784  0.2058
  976MOL0     C28704   3.078   0.209   5.538  0.2371  0.0228  0.6326
  976MOL0     C28705   3.098   0.201   5.670 -1.4728 -0.1720  0.5728
  976MOL0     C28706   3.065   0.083   5.741  0.1139 -0.1393 -0.5539
  976MOL0     C28707   2.995  -0.018   5.676  1.0073  0.0169  0.1359
  976MOL0     O28708   2.962  -0.129   5.735  0.1702  0.6106 -0.5974
  976MOL0     C28709   2.839  -0.198   5.725  0.0668 -0.2991  0.6055
  976MOL0     C28710   2.862  -0.344   5.735 -0.0527 -0.0903 -0.2857
  976MOL0     C28711   2.739  -0.444   5.771 -0.8082 -0.3387  0.6744
  976MOL0     C28712   2.745  -0.582   5.723 -0.7342  0.2226 -0.5985
  976MOL0     C28713   2.622  -0.645   5.661 -0.7748 -0.8045 -0.2561
  976MOL0     C28714   2.643  -0.787   5.612 -0.3738  0.7019 -0.1487
  976MOL0     C28715   2.753  -0.816   5.505  0.2107 -0.3730 -0.1204
  976MOL0     C28716   2.738  -0.728   5.382 -0.6111 -0.0779  0.9750
  976MOL0     N28717   2.853  -0.742   5.288 -0.0900  0.0234 -0.8477
  976MOL0     C28718   2.853  -0.802   5.166 -0.3770 -0.4705 -0.5307
  976MOL0     C28719   2.976  -0.781   5.118 -0.3053  0.5192 -1.2048
  976MOL0     C28720   3.026  -0.835   4.990 -0.2887 -0.1019  0.0543
  976MOL0     C28721   2.990  -0.742   4.880 -0.3965 -0.3700  0.1582
  976MOL0     C28722   2.846  -0.745   4.851  0.4224  0.3075 -0.2170
  976MOL0     C28723   2.811  -0.647   4.737  0.0792  0.4260  0.1095
  976MOL0     O28724   2.890  -0.671   4.617  0.1114  0.3390 -0.4605
  976MOL0     C28725   2.989  -0.584   4.584  0.3359 -0.1138  1.1519
  976MOL0     C28726   3.033  -0.477   4.661 -1.1454  0.0658  0.2578
  976MOL0     C28727   3.124  -0.378   4.601  0.1665 -0.2227 -0.1873
  976MOL0     C28728   3.180  -0.399   4.471 -0.3272  0.6836 -0.8314
  976MOL0     C28729   3.244  -0.305   4.384 -0.3936  0.0870 -0.4682
  976MOL0     O28730   3.291  -0.186   4.438  0.2939 -0.5375 -0.3575
  976MOL0     C28731   3.324  -0.074   4.359 -0.6048 -1.3677  0.5232
  976MOL0     C28732   3.275   0.056   4.384  0.5752  0.3836  0.4087
  976MOL0     C28733   3.312   0.172   4.317 -0.8217 -0.0861  0.5660
  976MOL0     C28734   3.396   0.166   4.207 -0.4218  0.3825 -0.1286
  976MOL0     O28735   3.457   0.278   4.151  0.2476 -0.1591  0.0409
  976MOL0     C28736   3.397   0.374   4.055 -0.1252  0.6517 -1.2334
  976MOL0     C28737   3.502   0.439   3.966 -0.2604 -0.8977 -0.1279
  976MOL0     C28738   3.598   0.337   3.915  0.3851  0.2272  0.3656
  976MOL0     C28739   3.721   0.391   3.850  0.0324  0.2069  1.0320
  976MOL0     C28740   3.693   0.428   3.704  0.5597  1.1036 -0.5721
  976MOL0     C28741   3.803   0.506   3.637 -0.7134 -0.6031  0.1692
  976MOL0     C28742   3.789   0.650   3.682  0.1437 -1.0477  0.9658
  976MOL0     C28743   3.870   0.759   3.600  0.7798  0.7435  0.8761
  976MOL0    Cl28744   3.816   0.752   3.424  0.2637 -0.1035  0.1998
  976MOL0     C28745   3.448   0.036   4.175  0.0160 -1.0974  0.4113
  976MOL0     C28746   3.413  -0.078   4.247  0.9357 -0.3715  0.6472
  976MOL0     O28747   3.248  -0.333   4.263  0.2016  0.0035  0.1667
  976MOL0     C28748   3.131  -0.508   4.407 -0.3590 -0.1556  1.0400
  976MOL0     C28749   3.046  -0.602   4.457 -0.9744  0.2497 -0.6412
  976MOL0     N28750   3.051  -0.698   5.202  1.3999  0.3453 -1.0203
  976MOL0     N28751   2.973  -0.678   5.314  0.9756 -0.4844  0.5127
  976MOL0     C28752   2.953   0.002   5.547 -0.0653 -0.1801 -0.3968
  976MOL0     C28753   3.005   0.110   5.469 -0.6924  0.7406 -0.0051
  976MOL0     C28754   3.080   0.515   5.330 -0.1132 -0.1807 -0.1390
  976MOL0     C28755   3.224   0.545   5.313  0.7401 -0.2910 -0.5610
  976MOL0     C28756   3.268   0.644   5.227  0.0779  0.0441 -0.6003
  976MOL0     C28757   3.175   0.705   5.145 -0.3940 -0.1754  0.3797
  976MOL0     O28758   3.202   0.781   5.037 -0.0467  0.4929 -0.6858
  976MOL0     C28759   3.327   0.843   5.030 -1.5006 -0.4815  0.7007
  976MOL0     C28760   3.349   0.920   4.900  0.1410  1.0404  0.7512
  976MOL0     C28761   3.282   1.057   4.900 -0.6677 -0.5320  0.4979
  976MOL0     C28762   3.201   1.064   4.770 -0.2020  0.0883 -0.0680
  976MOL0     C28763   3.263   1.040   4.641 -0.9915 -0.1801  0.5139
  976MOL0     C28764   3.313   1.018   4.529 -0.7923 -0.5172  0.5716
  976MOL0     C28765   3.043   0.666   5.147 -0.0943  0.4826  0.4190
  976MOL0     C28766   2.992   0.577   5.239  0.4892 -0.4661 -0.2582
  976MOL0     H28767   3.142   0.294   5.706 -1.1739 -0.7959  1.8506
  976MOL0     H28768   3.082   0.083   5.848 -3.3661  1.6742  0.1719
  976MOL0     H28769   2.782  -0.177   5.635  0.7087 -0.0356  0.2542
  976MOL0     H28770   2.783  -0.158   5.811 -1.4626 -0.7868 -0.1211
  976MOL0     H28771   2.946  -0.352   5.805  1.2073  0.5643 -1.6563
  976MOL0     H28772   2.908  -0.381   5.642 -2.2394 -1.9873 -0.7157
  976MOL0     H28773   2.656  -0.394   5.721 -0.0341  0.7539  0.4398
  976MOL0     H28774   2.718  -0.456   5.877 -1.5590 -0.1089  0.5549
  976MOL0     H28775   2.830  -0.595   5.656 -0.3379 -1.1953  0.1371
  976MOL0     H28776   2.766  -0.631   5.819  2.4555  1.0512 -0.7593
  976MOL0     H28777   2.574  -0.588   5.581  0.3064  1.1743  0.4163
  976MOL0     H28778   2.540  -0.653   5.733 -1.8925  0.5958 -1.3105
  976MOL0     H28779   2.555  -0.839   5.574 -0.3385  1.5424 -1.4601
  976MOL0     H28780   2.674  -0.841   5.702 -0.1484  0.9277 -0.0885
  976MOL0     H28781   2.848  -0.780   5.546  1.1879 -1.6761 -1.1440
  976MOL0     H28782   2.755  -0.921   5.473 -0.9947  0.1576 -2.0819
  976MOL0     H28783   2.745  -0.622   5.409  4.2604  0.1103 -0.0876
  976MOL0     H28784   2.649  -0.767   5.331  0.8111 -3.1724  0.6488
  976MOL0     H28785   2.773  -0.859   5.120  0.4707 -1.5533 -0.7103
  976MOL0     H28786   2.971  -0.929   4.979 -0.0081  0.0095 -3.1897
  976MOL0     H28787   3.134  -0.853   4.987 -0.7225 -2.9304 -1.8031
  976MOL0     H28788   3.038  -0.775   4.788 -1.4389 -2.3410  0.2640
  976MOL0     H28789   3.018  -0.642   4.917 -1.1140 -0.5885  1.3637
  976MOL0     H28790   2.819  -0.848   4.826 -1.4359  0.6310  0.2990
  976MOL0     H28791   2.781  -0.708   4.931 -0.7269  0.4000 -1.1617
  976MOL0     H28792   2.815  -0.541   4.764 -2.7934  0.6246  0.0856
  976MOL0     H28793   2.706  -0.666   4.712 -0.7479  3.9150  0.4339
  976MOL0     H28794   3.003  -0.472   4.765  2.5588  3.0010  1.4401
  976MOL0     H28795   3.174  -0.299   4.656  0.2813  0.4868 -1.2810
  976MOL0     H28796   3.204   0.070   4.465 -1.2991  3.6017 -1.5880
  976MOL0     H28797   3.260   0.267   4.325  1.6503  1.2184  2.3948
  976MOL0     H28798   3.356   0.464   4.102  1.9736  0.1746  1.8034
  976MOL0     H28799   3.320   0.314   4.006  0.2227  0.0738 -1.0874
  976MOL0     H28800   3.569   0.501   4.026 -0.7905 -2.3960  2.1425
  976MOL0     H28801   3.442   0.493   3.892  0.2061 -0.4267 -0.1692
  976MOL0     H28802   3.552   0.249   3.869 -0.7669 -0.0915  2.0138
  976MOL0     H28803   3.638   0.290   4.006 -0.8333  1.6551  1.7107
  976MOL0     H28804   3.770   0.472   3.906 -0.0686  3.8940 -3.6286
  976MOL0     H28805   3.789   0.305   3.848 -1.9734 -1.4460 -1.1065
  976MOL0     H28806   3.595   0.476   3.706 -0.7271 -1.2912  2.4252
  976MOL0     H28807   3.682   0.336   3.647  1.0174  1.7319 -1.6977
  976MOL0     H28808   3.781   0.515   3.530 -4.5347  1.5032  0.9159
  976MOL0     H28809   3.901   0.469   3.667  0.6912  2.1738 -0.6190
  976MOL0     H28810   3.683   0.675   3.671  0.8422  1.5215 -0.8878
  976MOL0     H28811   3.818   0.671   3.786 -0.5694 -0.1385  0.9888
  976MOL0     H28812   3.976   0.734   3.597  0.3089 -1.7677  2.0726
  976MOL0     H28813   3.858   0.858   3.644  2.2316  1.2682  0.1397
  976MOL0     H28814   3.503   0.037   4.081  0.7645  0.6573  0.8072
  976MOL0     H28815   3.442  -0.173   4.203  2.0504  0.6505 -0.9552
  976MOL0     H28816   3.164  -0.530   4.306  1.7845 -0.7006  1.7915
  976MOL0     H28817   3.026  -0.694   4.404 -0.3330  0.0120 -0.4739
  976MOL0     H28818   2.885  -0.068   5.500 -1.0548  0.3266  0.2365
  976MOL0     H28819   3.000   0.118   5.361  0.5164 -1.1195 -0.2240
  976MOL0     H28820   3.295   0.494   5.377  1.7013  0.7059 -0.8187
  976MOL0     H28821   3.373   0.667   5.244 -0.2850  0.4692  1.3473
  976MOL0     H28822   3.396   0.759   5.016 -0.2156  1.0120 -3.7280
  976MOL0     H28823   3.356   0.910   5.112  2.3742  0.8295 -1.4569
  976MOL0     H28824   3.456   0.933   4.882 -0.1764  0.0400 -2.5691
  976MOL0     H28825   3.316   0.854   4.819 -0.6397  1.0263  1.0710
  976MOL0     H28826   3.358   1.135   4.914 -0.5869 -0.0361 -2.1624
  976MOL0     H28827   3.223   1.063   4.992  1.3069 -2.1730  1.9849
  976MOL0     H28828   3.120   0.990   4.772 -0.1635 -0.0299 -1.6001
  976MOL0     H28829   3.164   1.167   4.769  1.7477  0.8363  0.1710
  976MOL0     H28830   3.341   1.020   4.425 -0.7652  1.1443  0.5758
  976MOL0     H28831   2.962   0.697   5.081 -0.2222 -0.4033  0.1414
  976MOL0     H28832   2.888   0.545   5.241  0.7600 -1.3570  1.4305
  977MOL0     O28833   6.188   8.796   6.082  0.4064  0.4500  0.5667
  977MOL0     C28834   6.281   8.811   6.157  0.5085  0.4574  0.2366
  977MOL0     O28835   6.324   8.716   6.253 -0.7037  0.2767  0.6268
  977MOL0     C28836   6.275   8.586   6.263  0.5154  0.1825 -0.1039
  977MOL0     C28837   6.234   8.508   6.152 -0.2922 -0.1141 -0.4335
  977MOL0     C28838   6.198   8.380   6.175  0.4175  0.6170  0.5328
  977MOL0     C28839   6.170   8.327   6.305  0.2908 -0.2275 -0.1933
  977MOL0     O28840   6.136   8.196   6.307  0.3698 -0.6952  0.2617
  977MOL0     C28841   6.147   8.110   6.422 -0.3596  0.0446 -0.8989
  977MOL0     C28842   6.284   8.054   6.471  0.3118 -0.3536  0.4969
  977MOL0     C28843   6.364   8.006   6.357 -0.1975 -0.0075 -0.3307
  977MOL0     C28844   6.302   7.903   6.269  0.6020  0.3719  0.3009
  977MOL0     C28845   6.396   7.838   6.163 -0.1983  0.1614 -0.6494
  977MOL0     C28846   6.409   7.915   6.035  1.4327 -0.1896 -0.1496
  977MOL0     C28847   6.489   7.847   5.931 -0.0946 -0.6876  0.4127
  977MOL0     C28848   6.630   7.814   5.972 -0.0261 -0.2221 -1.2227
  977MOL0     N28849   6.739   7.909   5.941  0.2197 -0.5567 -0.5941
  977MOL0     C28850   6.781   7.963   5.828  0.2255 -0.3198  0.6748
  977MOL0     C28851   6.875   8.053   5.848 -0.5157 -0.4464 -0.2795
  977MOL0     C28852   6.922   8.152   5.745 -0.3670  0.0360  0.0507
  977MOL0     C28853   7.038   8.092   5.662  0.1198  0.2768 -0.4861
  977MOL0     C28854   7.115   8.195   5.576 -0.4498 -0.9982 -0.2427
  977MOL0     C28855   7.237   8.137   5.515  0.4839  0.3850  0.7770
  977MOL0     O28856   7.352   8.115   5.601 -0.1783  0.5786 -0.2129
  977MOL0     C28857   7.455   8.026   5.556  0.4896 -0.1026 -0.6317
  977MOL0     C28858   7.524   7.955   5.650  0.6459  0.7863 -0.1247
  977MOL0     C28859   7.630   7.867   5.612 -0.5291  0.0796  0.4832
  977MOL0     C28860   7.670   7.854   5.478  0.8144 -0.5688 -0.4380
  977MOL0     C28861   7.790   7.781   5.444  0.7441 -0.1504 -0.5411
  977MOL0     O28862   7.826   7.682   5.525  0.7725  0.2228  0.3580
  977MOL0     C28863   7.938   7.600   5.508  0.0117  0.5223  1.1359
  977MOL0     C28864   7.991   7.559   5.388 -0.1928  0.5806 -0.2479
  977MOL0     C28865   8.123   7.501   5.388  0.4382  0.4893  0.0253
  977MOL0     C28866   8.203   7.492   5.499  0.5686  1.3190  0.2265
  977MOL0     O28867   8.329   7.440   5.492  0.4535  0.4026  0.2579
  977MOL0     C28868   8.402   7.454   5.368 -0.3309  0.2121 -0.7435
  977MOL0     C28869   8.556   7.417   5.383  0.8938 -0.2664 -0.5587
  977MOL0     C28870   8.585   7.304   5.478 -0.9984 -0.2179  0.0365
  977MOL0     C28871   8.732   7.292   5.492 -0.0917  0.9413  0.2245
  977MOL0     C28872   8.760   7.164   5.583 -0.2575  0.3723  0.2146
  977MOL0     C28873   8.908   7.152   5.631  1.0277 -0.5242 -0.3283
  977MOL0     C28874   8.955   7.259   5.729  0.1480  0.4052  0.3469
  977MOL0     C28875   8.887   7.242   5.862 -0.6472 -0.6936 -1.1776
  977MOL0    Cl28876   8.940   7.367   5.978 -0.4963 -0.2361 -0.4681
  977MOL0     C28877   8.144   7.539   5.617  0.6344  0.2045 -0.6386
  977MOL0     C28878   8.016   7.599   5.615  0.2482  0.1891 -0.1440
  977MOL0     O28879   7.842   7.820   5.340 -0.6721  0.1129  0.4083
  977MOL0     C28880   7.605   7.934   5.385  0.1773  0.0087 -0.1238
  977MOL0     C28881   7.497   8.017   5.422 -0.1833  0.9689 -0.0318
  977MOL0     N28882   6.908   8.053   5.981  0.5058 -0.0585 -1.4305
  977MOL0     N28883   6.827   7.971   6.031 -0.1678 -0.3219 -0.3043
  977MOL0     C28884   6.214   8.405   6.416 -0.5521  0.9277 -0.4277
  977MOL0     C28885   6.272   8.535   6.396  0.9116 -1.0989  0.2947
  977MOL0     C28886   6.360   8.937   6.153 -0.4561  0.8606  0.0419
  977MOL0     C28887   6.338   9.032   6.046 -0.2767  0.1361  0.4147
  977MOL0     C28888   6.420   9.139   6.054  0.4345 -0.8483 -0.0175
  977MOL0     C28889   6.506   9.173   6.164 -0.2121  0.5857 -0.2031
  977MOL0     O28890   6.597   9.271   6.148  0.2113  2.2039  1.0672
  977MOL0     C28891   6.630   9.329   6.019 -0.0656 -0.2472 -0.6383
  977MOL0     C28892   6.722   9.247   5.940 -0.9337 -0.1446  0.5765
  977MOL0     C28893   6.872   9.273   5.976 -0.0858  0.0142 -0.3761
  977MOL0     C28894   6.962   9.167   5.901  0.5852 -0.1891  1.0295
  977MOL0     C28895   6.919   9.141   5.766 -0.7172  0.1203  0.2262
  977MOL0     C28896   6.870   9.127   5.658 -0.5186  0.5884  0.2657
  977MOL0     C28897   6.523   9.083   6.263 -0.2786  0.1486 -0.0736
  977MOL0     C28898   6.448   8.963   6.265  0.3971 -0.3340  0.8383
  977MOL0     H28899   6.239   8.541   6.049 -1.5239  1.8068  0.0801
  977MOL0     H28900   6.192   8.318   6.086  0.4276  2.5209 -0.8461
  977MOL0     H28901   6.087   8.028   6.381 -1.2044  0.9742 -1.5913
  977MOL0     H28902   6.090   8.155   6.504 -2.4082  1.3347 -2.9077
  977MOL0     H28903   6.272   7.981   6.551 -0.1767  1.9510  2.6774
  977MOL0     H28904   6.337   8.134   6.524 -2.9689  0.8246  2.3044
  977MOL0     H28905   6.457   7.962   6.394 -1.7741 -2.5458  0.8761
  977MOL0     H28906   6.390   8.100   6.308  3.4410 -1.4600 -1.5260
  977MOL0     H28907   6.249   7.834   6.335 -1.7517  1.5951 -0.2351
  977MOL0     H28908   6.216   7.948   6.219  0.5571 -1.5691 -1.5538
  977MOL0     H28909   6.349   7.740   6.147 -4.6565  1.3357  3.0728
  977MOL0     H28910   6.486   7.820   6.223 -1.0451 -1.6133  0.1679
  977MOL0     H28911   6.448   8.016   6.048 -2.5387  1.4968  0.2885
  977MOL0     H28912   6.310   7.926   5.988  2.4840  3.3776 -1.9282
  977MOL0     H28913   6.433   7.759   5.897  1.7317 -1.2926 -1.2071
  977MOL0     H28914   6.496   7.900   5.835 -0.7359 -2.2165 -0.5234
  977MOL0     H28915   6.647   7.721   5.917  3.2784  0.1694 -1.0799
  977MOL0     H28916   6.639   7.793   6.079 -2.5258  4.3080  0.1584
  977MOL0     H28917   6.719   7.949   5.739  1.3297 -2.5569  0.1790
  977MOL0     H28918   6.969   8.234   5.801 -2.5356  0.9702  0.5763
  977MOL0     H28919   6.844   8.187   5.677  0.0497 -0.4062 -0.6705
  977MOL0     H28920   6.998   8.011   5.601  0.8554  0.2861 -0.9923
  977MOL0     H28921   7.112   8.032   5.716 -0.1721 -1.4272 -1.8713
  977MOL0     H28922   7.051   8.244   5.501  3.1415  1.4524 -1.9820
  977MOL0     H28923   7.152   8.279   5.635  0.8905 -1.2595 -0.6785
  977MOL0     H28924   7.260   8.203   5.431 -1.4729  3.1889  2.2819
  977MOL0     H28925   7.208   8.038   5.476 -0.7516  0.7328  0.7723
  977MOL0     H28926   7.490   7.951   5.752  1.5082  3.0464  0.3177
  977MOL0     H28927   7.675   7.812   5.694 -2.5586  1.6150  2.7570
  977MOL0     H28928   7.934   7.569   5.296  1.8126  3.3811 -1.3396
  977MOL0     H28929   8.154   7.467   5.290 -0.3116  0.2062 -0.1195
  977MOL0     H28930   8.378   7.553   5.328 -1.5147  1.1277  2.0115
  977MOL0     H28931   8.347   7.378   5.312 -1.0450  0.4831 -0.4225
  977MOL0     H28932   8.612   7.507   5.411  2.2051 -0.4945 -2.2752
  977MOL0     H28933   8.595   7.397   5.283  2.1693 -0.5022 -0.0341
  977MOL0     H28934   8.538   7.219   5.427 -4.4380  0.3953  1.8526
  977MOL0     H28935   8.550   7.311   5.582 -0.9424 -0.6873  0.0892
  977MOL0     H28936   8.776   7.280   5.393 -2.3344 -1.4942 -0.6202
  977MOL0     H28937   8.774   7.380   5.542 -0.9364  2.8842 -2.2946
  977MOL0     H28938   8.732   7.071   5.532  0.7695  0.3969 -0.4091
  977MOL0     H28939   8.705   7.154   5.677  1.5506 -3.5226  1.0528
  977MOL0     H28940   8.985   7.150   5.553  0.4665 -2.5136 -0.8931
  977MOL0     H28941   8.922   7.053   5.675  0.5852 -0.0598  0.8784
  977MOL0     H28942   9.064   7.249   5.737 -0.0439 -0.0786  4.9814
  977MOL0     H28943   8.942   7.362   5.694 -0.0015  1.0793  2.2664
  977MOL0     H28944   8.910   7.139   5.892  2.1989  0.4007  0.8507
  977MOL0     H28945   8.778   7.248   5.857 -0.6537 -1.0015 -1.3645
  977MOL0     H28946   8.197   7.527   5.711  0.3550  1.4157 -0.3093
  977MOL0     H28947   7.983   7.642   5.709  2.5897  1.2595  0.2796
  977MOL0     H28948   7.649   7.951   5.287 -3.5832 -1.6232 -2.2940
  977MOL0     H28949   7.443   8.068   5.344 -0.0394  1.7585  0.3778
  977MOL0     H28950   6.208   8.362   6.515 -0.0629  0.2713 -0.6729
  977MOL0     H28951   6.308   8.586   6.484 -0.5955 -0.5232  0.6136
  977MOL0     H28952   6.258   9.034   5.972 -0.8760 -2.6652  0.8604
  977MOL0     H28953   6.395   9.211   5.977 -1.4795 -2.3937 -0.9421
  977MOL0     H28954   6.676   9.424   6.048 -1.5448  0.3283 -0.0611
  977MOL0     H28955   6.541   9.346   5.958 -0.8979 -0.2120  0.5552
  977MOL0     H28956   6.683   9.145   5.940 -0.8097 -0.1919  0.6867
  977MOL0     H28957   6.710   9.281   5.837 -1.5454 -2.8634 -0.3291
  977MOL0     H28958   6.890   9.266   6.084  0.9452 -0.9193 -0.5852
  977MOL0     H28959   6.897   9.369   5.931 -0.8119 -0.1604 -1.1677
  977MOL0     H28960   7.065   9.201   5.894 -0.0895  1.7619 -0.5926
  977MOL0     H28961   6.960   9.066   5.943  0.3629 -0.4440  0.4234
  977MOL0     H28962   6.825   9.118   5.561 -1.3880  1.3394  0.5822
  977MOL0     H28963   6.597   9.100   6.340 -1.6059  0.5210  1.1619
  977MOL0     H28964   6.470   8.885   6.338 -1.3780 -3.5492 -1.7782
  978MOL0     O28965  10.682   0.050   5.959 -0.0085 -0.7015  0.7093
  978MOL0     C28966  10.715   0.150   5.899  0.1903  0.1993 -0.3713
  978MOL0     O28967  10.652   0.207   5.787 -0.4034  0.2944 -0.6192
  978MOL0     C28968  10.533   0.147   5.744  0.1473  0.3797  0.0610
  978MOL0     C28969  10.540   0.108   5.609 -1.0545  0.1656 -0.3182
  978MOL0     C28970  10.435   0.039   5.539 -0.8397  0.3070 -0.3609
  978MOL0     C28971  10.322   0.001   5.617  0.1832 -0.1563  0.3704
  978MOL0     O28972  10.214  -0.061   5.554  0.0285  0.4019 -0.0933
  978MOL0     C28973  10.084  -0.028   5.621 -0.5507 -0.1726  0.6648
  978MOL0     C28974  10.042   0.125   5.610 -0.3719 -0.2549 -0.4738
  978MOL0     C28975  10.049   0.191   5.472 -0.8150 -0.0111 -0.6863
  978MOL0     C28976   9.949   0.137   5.372  0.2483  0.2655 -0.1076
  978MOL0     C28977   9.979   0.162   5.227  0.2996 -0.2713  0.2921
  978MOL0     C28978  10.078   0.279   5.199  0.0522 -0.0712  0.9311
  978MOL0     C28979  10.073   0.291   5.042 -0.7086 -0.7004  1.1692
  978MOL0     C28980  10.219   0.345   4.998 -0.5853  0.8608 -1.0321
  978MOL0     N28981  10.316   0.245   5.003  0.2128  0.9207  0.5858
  978MOL0     C28982  10.452   0.268   5.041 -0.0320 -0.2947  0.0311
  978MOL0     C28983  10.508   0.152   5.042  1.5523 -0.1546 -0.4029
  978MOL0     C28984  10.649   0.133   5.080 -0.7903  0.6977  0.4193
  978MOL0     C28985  10.675   0.008   5.173  0.9332 -0.7475  0.5809
  978MOL0     C28986  10.724  -0.126   5.106  0.0263 -0.6700 -0.4430
  978MOL0     C28987  10.660  -0.171   4.969  0.8088  0.0621 -0.2009
  978MOL0     O28988  10.698  -0.108   4.853  0.1088 -0.0448 -0.2931
  978MOL0     C28989  10.673  -0.177   4.736  1.1084 -0.4853 -0.5051
  978MOL0     C28990  10.585  -0.289   4.723  0.5677 -0.5924  0.2382
  978MOL0     C28991  10.547  -0.334   4.596  0.1185  1.0228 -0.6354
  978MOL0     C28992  10.603  -0.283   4.480  0.1107  0.1145 -0.6080
  978MOL0     C28993  10.560  -0.343   4.348  0.0697 -0.1412 -0.1190
  978MOL0     O28994  10.480  -0.461   4.345 -0.0160  0.1420  0.2814
  978MOL0     C28995  10.445  -0.493   4.219 -0.1825  0.6563  0.2104
  978MOL0     C28996  10.535  -0.589   4.152  0.3011  0.4686 -0.2463
  978MOL0     C28997  10.499  -0.648   4.032 -0.0272 -0.6602 -0.3614
  978MOL0     C28998  10.380  -0.603   3.967  0.5947  0.2098  1.0319
  978MOL0     O28999  10.336  -0.675   3.852  0.6759 -0.8821 -0.2921
  978MOL0     C29000  10.226  -0.622   3.779  0.1706 -0.6036  0.2033
  978MOL0     C29001  10.232  -0.675   3.635  0.7208 -0.9108  0.1257
  978MOL0     C29002  10.267  -0.819   3.616 -0.5276 -0.0761 -0.3467
  978MOL0     C29003  10.210  -0.882   3.482  1.0481  1.1692  0.4463
  978MOL0     C29004  10.252  -1.035   3.480  0.7713  0.4096  0.4813
  978MOL0     C29005  10.181  -1.119   3.363  0.5277  0.2158 -0.8661
  978MOL0     C29006  10.235  -1.268   3.367 -0.6153  0.6884  0.4510
  978MOL0     C29007  10.162  -1.349   3.260 -0.9813  0.9267  0.2912
  978MOL0    Cl29008  10.222  -1.321   3.097  0.5112 -0.2054 -0.2052
  978MOL0     C29009  10.292  -0.514   4.038  0.2747 -0.2075  0.5378
  978MOL0     C29010  10.327  -0.450   4.158 -0.8146 -0.4938 -0.4471
  978MOL0     O29011  10.600  -0.293   4.250 -0.5758 -0.4736  0.5128
  978MOL0     C29012  10.688  -0.173   4.492  0.5958  0.0194 -0.2627
  978MOL0     C29013  10.722  -0.119   4.621 -0.2281 -0.0825  0.4408
  978MOL0     N29014  10.407   0.056   5.015  1.4081  0.0396  0.2651
  978MOL0     N29015  10.295   0.109   4.995  0.0978 -0.1520 -0.2519
  978MOL0     C29016  10.330   0.009   5.760 -1.1493  0.0919  0.1358
  978MOL0     C29017  10.433   0.080   5.816 -0.3042 -0.6046  0.3505
  978MOL0     C29018  10.840   0.214   5.943 -0.1942 -0.2979 -0.1693
  978MOL0     C29019  10.890   0.317   5.863 -0.5676  0.3256  0.7914
  978MOL0     C29020  10.997   0.399   5.897  0.1967  0.3714  0.0109
  978MOL0     C29021  11.067   0.377   6.017  0.1447 -0.4424  0.4216
  978MOL0     O29022  11.163   0.461   6.039 -0.2328 -0.0163  0.0969
  978MOL0     C29023  11.257   0.434   6.144  0.0283  0.5092 -0.2911
  978MOL0     C29024  11.223   0.507   6.273  0.7717 -0.4526  0.2762
  978MOL0     C29025  11.214   0.662   6.257 -1.1999  0.4677  0.5722
  978MOL0     C29026  11.174   0.724   6.384 -0.5250 -0.7402 -1.0531
  978MOL0     C29027  11.234   0.675   6.512 -0.2881  0.0093  0.4833
  978MOL0     C29028  11.307   0.637   6.600 -0.3675 -0.2615  0.1924
  978MOL0     C29029  11.023   0.280   6.106  0.5280 -0.8409 -0.4029
  978MOL0     C29030  10.915   0.197   6.070  0.3795  0.1084  0.8951
  978MOL0     H29031  10.633   0.139   5.561  0.7053 -4.2711 -0.2472
  978MOL0     H29032  10.436   0.018   5.433 -3.3229 -1.1584 -0.1594
  978MOL0     H29033  10.089  -0.067   5.723  0.5638 -3.1534 -0.4407
  978MOL0     H29034  10.009  -0.082   5.563  0.5545  0.8481 -1.8863
  978MOL0     H29035  10.110   0.184   5.672  2.1872 -0.9595 -2.4325
  978MOL0     H29036   9.939   0.125   5.646 -0.0385 -1.2070  0.5613
  978MOL0     H29037  10.155   0.186   5.446  0.6797  4.0759  3.1641
  978MOL0     H29038  10.035   0.299   5.482  1.7391  0.2321  1.8322
  978MOL0     H29039   9.935   0.029   5.381  1.3805  0.1052 -0.1805
  978MOL0     H29040   9.850   0.184   5.385  0.2232 -0.1105  1.2152
  978MOL0     H29041   9.885   0.198   5.182 -1.7376 -3.9186  1.2619
  978MOL0     H29042  10.008   0.066   5.182  1.2739  1.7981 -4.1030
  978MOL0     H29043  10.182   0.278   5.234  0.4761  2.8796  0.1057
  978MOL0     H29044  10.039   0.372   5.243  4.0353  3.2674 -1.8340
  978MOL0     H29045  10.047   0.201   4.985 -1.2092  1.9587 -3.1897
  978MOL0     H29046  10.003   0.369   5.011 -0.8834 -1.1569  0.3888
  978MOL0     H29047  10.257   0.425   5.061 -2.8994  0.6590  0.7385
  978MOL0     H29048  10.223   0.389   4.898  1.4896  1.9897 -0.5052
  978MOL0     H29049  10.501   0.363   5.057  1.5694 -0.6841 -2.1243
  978MOL0     H29050  10.690   0.218   5.136  1.7867 -0.1510 -0.0444
  978MOL0     H29051  10.713   0.108   4.995 -2.2744  0.6074 -0.7012
  978MOL0     H29052  10.583   0.007   5.233 -0.3603  3.9531 -0.8499
  978MOL0     H29053  10.740   0.044   5.253 -0.5805 -0.3539  1.7033
  978MOL0     H29054  10.833  -0.125   5.105  0.0429  0.8952  0.0935
  978MOL0     H29055  10.697  -0.196   5.186  0.2313  1.9510  2.0695
  978MOL0     H29056  10.551  -0.160   4.971  0.6576 -1.3620  0.4454
  978MOL0     H29057  10.685  -0.277   4.970 -1.1055 -0.4515  1.9811
  978MOL0     H29058  10.524  -0.327   4.805  0.1021 -0.0944  0.1273
  978MOL0     H29059  10.465  -0.405   4.596  0.2245  0.8997 -0.8609
  978MOL0     H29060  10.629  -0.620   4.196  1.0722  0.8847 -1.5412
  978MOL0     H29061  10.563  -0.728   3.996 -0.1040 -0.4122 -1.0692
  978MOL0     H29062  10.227  -0.513   3.773 -1.7388 -0.4770  1.2070
  978MOL0     H29063  10.129  -0.648   3.825 -1.1771  1.3980 -1.3258
  978MOL0     H29064  10.306  -0.619   3.577  2.2509 -1.7575  1.1836
  978MOL0     H29065  10.137  -0.661   3.583 -1.2806 -2.4499  3.0471
  978MOL0     H29066  10.212  -0.863   3.699  2.0732 -1.1278  0.9452
  978MOL0     H29067  10.373  -0.839   3.638 -0.7409  1.0710  2.0927
  978MOL0     H29068  10.102  -0.880   3.468  1.3463 -0.3675 -3.5013
  978MOL0     H29069  10.252  -0.831   3.394  0.7879 -1.1479 -1.1128
  978MOL0     H29070  10.235  -1.076   3.580  2.6355  0.8941  1.0341
  978MOL0     H29071  10.360  -1.047   3.477  0.6122 -1.0810 -0.6408
  978MOL0     H29072  10.205  -1.068   3.269 -2.8041  1.5987 -1.1124
  978MOL0     H29073  10.074  -1.116   3.388  1.2999  0.2459  3.0475
  978MOL0     H29074  10.344  -1.273   3.366 -0.6433 -0.3655  0.9234
  978MOL0     H29075  10.207  -1.316   3.461  0.4377  0.9229  0.8882
  978MOL0     H29076  10.054  -1.345   3.272 -1.5515 -2.1695 -2.4069
  978MOL0     H29077  10.189  -1.455   3.266 -1.5833  0.4213 -3.4474
  978MOL0     H29078  10.197  -0.484   3.994  1.5341  1.9217 -0.9201
  978MOL0     H29079  10.261  -0.394   4.224  2.0897  1.2917  1.1498
  978MOL0     H29080  10.725  -0.147   4.393 -2.0194 -1.7336 -1.8504
  978MOL0     H29081  10.791  -0.035   4.619 -1.1238  0.7113 -2.4880
  978MOL0     H29082  10.270  -0.043   5.834 -1.2324 -0.2297 -0.1552
  978MOL0     H29083  10.432   0.088   5.924  1.6141  2.6967  0.2562
  978MOL0     H29084  10.855   0.349   5.765 -0.3500 -0.8317  0.3089
  978MOL0     H29085  11.039   0.481   5.839  2.4033 -0.3149  0.5201
  978MOL0     H29086  11.356   0.466   6.109 -0.4252  0.9158 -1.2177
  978MOL0     H29087  11.269   0.326   6.160 -0.2729  0.1441 -2.2500
  978MOL0     H29088  11.130   0.467   6.313  0.8917  0.6511  1.7798
  978MOL0     H29089  11.297   0.483   6.350  0.1953 -0.7398  0.7401
  978MOL0     H29090  11.154   0.695   6.172  3.1861  1.5248 -2.4556
  978MOL0     H29091  11.318   0.689   6.237 -0.6529  2.2007  4.7522
  978MOL0     H29092  11.211   0.826   6.369  2.1464 -1.2704  1.0635
  978MOL0     H29093  11.064   0.724   6.388 -0.7465 -4.1593 -3.2290
  978MOL0     H29094  11.368   0.600   6.680 -0.5653  0.5355  0.7190
  978MOL0     H29095  11.067   0.266   6.204  0.3849  0.0243 -0.2012
  978MOL0     H29096  10.879   0.140   6.155  1.3383  2.4804  3.0226
  979MOL0     O29097   5.236   3.009   5.586 -0.4684  0.2265 -0.1812
  979MOL0     C29098   5.273   3.068   5.483  0.4239  1.2525  0.6036
  979MOL0     O29099   5.403   3.076   5.437 -0.1850  0.7609 -0.3747
  979MOL0     C29100   5.501   3.010   5.513 -0.3690 -0.6226  0.5440
  979MOL0     C29101   5.526   2.875   5.489  0.7208 -0.1073  0.3885
  979MOL0     C29102   5.636   2.816   5.540 -0.4628 -0.2177  0.4706
  979MOL0     C29103   5.731   2.889   5.616  0.8302  0.2426  0.3598
  979MOL0     O29104   5.841   2.832   5.667 -0.9240 -0.4334  0.5070
  979MOL0     C29105   5.835   2.813   5.807 -0.8165 -0.0264 -0.1292
  979MOL0     C29106   5.949   2.727   5.838 -0.4350  1.6412  0.2908
  979MOL0     C29107   5.974   2.695   5.984 -1.0260  0.0628 -0.3082
  979MOL0     C29108   6.084   2.595   6.002  0.4558  0.2488  0.2360
  979MOL0     C29109   6.033   2.447   5.993 -0.8878 -0.2061  1.2686
  979MOL0     C29110   6.127   2.337   5.974 -0.3007  1.1851  0.4840
  979MOL0     C29111   6.043   2.210   5.977 -0.9070  0.6591  0.3131
  979MOL0     C29112   5.980   2.182   5.838  0.4975  0.0546 -1.2005
  979MOL0     N29113   5.929   2.052   5.830 -0.3031  0.6680  0.4363
  979MOL0     C29114   6.002   1.931   5.820 -0.4694 -0.5698  0.0707
  979MOL0     C29115   5.920   1.838   5.860  0.5538  0.6564  0.6370
  979MOL0     C29116   5.946   1.688   5.881 -0.0984 -0.3984 -0.2040
  979MOL0     C29117   5.836   1.608   5.798 -0.5420 -0.3393  0.4104
  979MOL0     C29118   5.702   1.587   5.875  0.2905  0.0010  0.8252
  979MOL0     C29119   5.723   1.473   5.975  0.2128 -0.3062 -0.0762
  979MOL0     O29120   5.592   1.426   6.014 -0.0864  0.3211 -0.1621
  979MOL0     C29121   5.510   1.510   6.083  0.7316 -0.5221 -0.5380
  979MOL0     C29122   5.560   1.604   6.178 -0.4181  0.0277  0.3360
  979MOL0     C29123   5.465   1.681   6.246  0.4660 -1.3210  0.1422
  979MOL0     C29124   5.322   1.663   6.246 -0.1893 -0.1735  0.5386
  979MOL0     C29125   5.236   1.743   6.340  0.6145  0.3547 -0.0530
  979MOL0     O29126   5.305   1.827   6.416  0.7812 -0.8775 -1.0186
  979MOL0     C29127   5.249   1.913   6.510  0.3488  0.3898  0.1765
  979MOL0     C29128   5.163   1.877   6.616 -0.4461 -0.8029 -0.4260
  979MOL0     C29129   5.097   1.981   6.686 -0.3589  0.0733  0.0436
  979MOL0     C29130   5.129   2.120   6.668  0.4143  0.1457  0.1495
  979MOL0     O29131   5.055   2.217   6.739  0.5514  0.7160  0.4493
  979MOL0     C29132   5.031   2.337   6.677 -0.0647  0.0499  0.5048
  979MOL0     C29133   4.960   2.429   6.783 -0.2473 -0.3745  0.0254
  979MOL0     C29134   4.818   2.379   6.803 -0.5117  0.7715  0.5549
  979MOL0     C29135   4.763   2.391   6.941 -0.5150  0.4249 -0.2304
  979MOL0     C29136   4.614   2.345   6.946  0.0221 -0.2004  0.2915
  979MOL0     C29137   4.547   2.370   7.078  0.1313  0.9210  0.4854
  979MOL0     C29138   4.411   2.320   7.113 -0.6446  0.2415  0.3188
  979MOL0     C29139   4.388   2.175   7.108  0.7036  1.1490 -0.7264
  979MOL0    Cl29140   4.428   2.103   7.266  0.2080 -0.3315 -0.2505
  979MOL0     C29141   5.220   2.143   6.561  0.3708 -0.0671  0.2370
  979MOL0     C29142   5.285   2.041   6.489 -0.4022 -0.0340  0.5057
  979MOL0     O29143   5.114   1.745   6.330 -0.1115  0.3518  0.4251
  979MOL0     C29144   5.277   1.561   6.159 -0.1420  0.0339 -0.5654
  979MOL0     C29145   5.364   1.492   6.077 -0.2700 -0.1587  0.5555
  979MOL0     N29146   5.792   1.898   5.889 -0.5187  1.1013 -0.2667
  979MOL0     N29147   5.801   2.022   5.855 -0.2531 -0.2526 -1.0412
  979MOL0     C29148   5.699   3.023   5.640 -0.4315 -0.5533  1.2085
  979MOL0     C29149   5.586   3.090   5.591  0.7821  0.0313 -0.6145
  979MOL0     C29150   5.166   3.128   5.399 -0.0015 -0.3573 -0.5731
  979MOL0     C29151   5.200   3.167   5.270 -0.1797  0.7216 -0.0655
  979MOL0     C29152   5.116   3.231   5.185 -1.6239 -0.2198  0.0471
  979MOL0     C29153   4.987   3.266   5.244  0.3931 -0.0037  0.0354
  979MOL0     O29154   4.899   3.361   5.194 -0.1986 -0.0089  0.9654
  979MOL0     C29155   4.927   3.452   5.088  0.3449  0.1082 -0.2381
  979MOL0     C29156   4.894   3.377   4.951 -0.3724  0.4892 -0.3047
  979MOL0     C29157   4.740   3.363   4.948  0.0212 -0.2699  0.4062
  979MOL0     C29158   4.705   3.275   4.823  0.5118 -0.6013  0.2995
  979MOL0     C29159   4.556   3.285   4.799 -0.3409 -0.2142 -0.3573
  979MOL0     C29160   4.436   3.278   4.769  0.7070  0.8452 -0.0048
  979MOL0     C29161   4.948   3.216   5.369 -0.4554  0.0338 -0.2769
  979MOL0     C29162   5.036   3.147   5.449 -0.5804  0.0688 -0.2465
  979MOL0     H29163   5.457   2.820   5.426 -0.4568  1.8599 -0.1122
  979MOL0     H29164   5.653   2.710   5.523 -1.8077 -0.4228  0.3397
  979MOL0     H29165   5.747   2.756   5.839 -0.1640 -0.9539  0.0468
  979MOL0     H29166   5.838   2.909   5.858  1.6084  0.2560 -0.7113
  979MOL0     H29167   6.038   2.776   5.797 -2.5481  3.6507 -2.3214
  979MOL0     H29168   5.927   2.634   5.786  3.0260  1.9111 -1.9964
  979MOL0     H29169   5.882   2.666   6.035 -1.2820  1.1934 -0.0901
  979MOL0     H29170   5.994   2.794   6.026 -3.3516  0.2449  0.5078
  979MOL0     H29171   6.166   2.613   5.932 -0.5415 -1.1907 -1.3934
  979MOL0     H29172   6.117   2.610   6.105  0.2268 -3.4160  1.0000
  979MOL0     H29173   5.955   2.428   5.918  1.8773  1.1187 -2.2770
  979MOL0     H29174   5.972   2.436   6.083 -1.5380  0.2569  0.8886
  979MOL0     H29175   6.197   2.345   6.057 -1.2504  3.3086  1.1662
  979MOL0     H29176   6.188   2.345   5.883 -1.4866 -0.1663 -0.4815
  979MOL0     H29177   6.118   2.136   6.008  0.1300  1.6474  0.2182
  979MOL0     H29178   5.963   2.225   6.049  0.0008  3.7894  0.7936
  979MOL0     H29179   6.052   2.199   5.757  3.5825 -0.0277  1.2965
  979MOL0     H29180   5.894   2.248   5.828  0.1280 -0.6428 -2.8717
  979MOL0     H29181   6.109   1.923   5.801  0.1944  3.1155  1.3729
  979MOL0     H29182   5.943   1.668   5.988  2.2474  0.1777  0.0198
  979MOL0     H29183   6.046   1.658   5.848 -0.8725  0.0566 -3.3875
  979MOL0     H29184   5.887   1.513   5.778  2.4228  1.9362 -5.2169
  979MOL0     H29185   5.812   1.639   5.695 -1.3990  1.3514  1.0761
  979MOL0     H29186   5.669   1.682   5.919  1.3958  0.0992  1.4892
  979MOL0     H29187   5.625   1.563   5.801  2.9803  0.0573 -2.2446
  979MOL0     H29188   5.778   1.510   6.062 -0.3850  1.4225 -0.3889
  979MOL0     H29189   5.774   1.395   5.918 -1.2230  1.0255 -3.4775
  979MOL0     H29190   5.666   1.619   6.199 -0.6107 -0.0094  1.4251
  979MOL0     H29191   5.507   1.768   6.295 -2.2696 -0.9296  2.0358
  979MOL0     H29192   5.125   1.775   6.617 -1.1608 -0.5417 -0.2626
  979MOL0     H29193   5.017   1.964   6.757 -1.4721  0.0304 -1.1970
  979MOL0     H29194   4.966   2.323   6.589  2.7964  1.7831 -2.0822
  979MOL0     H29195   5.121   2.391   6.644 -0.5432  0.7568  0.3095
  979MOL0     H29196   4.969   2.534   6.755 -0.5679 -0.3815 -0.1090
  979MOL0     H29197   5.014   2.427   6.877  2.9579 -0.9031 -1.7008
  979MOL0     H29198   4.819   2.274   6.773  1.2756  1.0584 -0.5505
  979MOL0     H29199   4.753   2.437   6.737 -1.2731 -1.0295 -0.3359
  979MOL0     H29200   4.826   2.330   7.007 -1.5713 -0.4728 -0.0438
  979MOL0     H29201   4.783   2.491   6.983 -0.1491  0.3111 -0.1274
  979MOL0     H29202   4.624   2.239   6.923 -0.9786 -0.2246 -0.0949
  979MOL0     H29203   4.550   2.383   6.866  1.6086 -1.3203 -1.5992
  979MOL0     H29204   4.543   2.480   7.078  2.7149  1.0907 -0.8536
  979MOL0     H29205   4.621   2.348   7.156  0.8359  1.4334 -0.0251
  979MOL0     H29206   4.392   2.364   7.212  0.4095  3.2005 -0.7237
  979MOL0     H29207   4.342   2.359   7.038 -1.1721 -0.6272  0.3361
  979MOL0     H29208   4.458   2.118   7.047 -0.0221 -0.6900  0.0805
  979MOL0     H29209   4.292   2.145   7.067 -0.7356  1.7159  1.9887
  979MOL0     H29210   5.254   2.246   6.553 -3.1750  1.1899 -0.1386
  979MOL0     H29211   5.340   2.074   6.401  1.8678 -3.4266  0.4778
  979MOL0     H29212   5.171   1.550   6.138 -0.3163 -1.0223  0.7594
  979MOL0     H29213   5.333   1.432   5.992 -2.4425 -0.3321  1.4042
  979MOL0     H29214   5.756   3.073   5.718 -0.5419  0.1577  0.8456
  979MOL0     H29215   5.570   3.197   5.599  0.9713  0.0863 -0.9397
  979MOL0     H29216   5.300   3.141   5.238  1.0981  1.2095  3.1555
  979MOL0     H29217   5.141   3.256   5.083  1.1316 -2.4948  0.0509
  979MOL0     H29218   5.031   3.484   5.099  0.6347 -0.6210 -0.7686
  979MOL0     H29219   4.867   3.543   5.100  0.1707 -0.1247  0.7501
  979MOL0     H29220   4.923   3.427   4.858 -1.1310 -1.6422 -1.7526
  979MOL0     H29221   4.949   3.282   4.949 -2.1888 -0.5941 -1.7732
  979MOL0     H29222   4.694   3.461   4.933 -0.0385 -0.1606  1.2846
  979MOL0     H29223   4.707   3.318   5.042 -0.3366  2.8396  1.8804
  979MOL0     H29224   4.754   3.326   4.739  0.0641  1.4951  1.2601
  979MOL0     H29225   4.743   3.175   4.845  1.7880 -0.0320  0.7342
  979MOL0     H29226   4.333   3.251   4.766  0.2279  2.2032  2.0352
  979MOL0     H29227   4.842   3.230   5.391 -0.5942  2.3314 -2.0425
  979MOL0     H29228   5.011   3.100   5.544 -0.1202 -3.8353 -1.8480
  980MOL0     O29229   2.927   5.129   0.872  0.1467 -0.3605 -0.5914
  980MOL0     C29230   2.937   5.111   0.753 -0.5139  0.0525  0.0352
  980MOL0     O29231   2.965   4.993   0.692  0.1022 -0.6824 -0.2025
  980MOL0     C29232   2.994   4.869   0.748  0.5028 -0.7657  0.9621
  980MOL0     C29233   2.938   4.763   0.679 -0.2070  0.3119 -0.0775
  980MOL0     C29234   2.965   4.633   0.710  1.1161 -0.4840  1.3466
  980MOL0     C29235   3.059   4.611   0.810 -0.4998  0.0575 -0.0815
  980MOL0     O29236   3.097   4.483   0.840 -0.4793 -0.3170  0.1609
  980MOL0     C29237   3.233   4.460   0.887 -1.1929 -0.0932 -0.0735
  980MOL0     C29238   3.340   4.480   0.777 -0.1560  0.3338  0.1991
  980MOL0     C29239   3.468   4.409   0.827  0.1724 -1.3479  0.2232
  980MOL0     C29240   3.578   4.403   0.720 -0.7977 -0.4780  0.1577
  980MOL0     C29241   3.616   4.525   0.643 -0.0747  0.3754  0.3726
  980MOL0     C29242   3.650   4.655   0.720  0.4643  0.2276 -0.3542
  980MOL0     C29243   3.771   4.649   0.814 -0.0461  0.5382 -0.0680
  980MOL0     C29244   3.783   4.775   0.912  0.4685 -0.5050 -0.9061
  980MOL0     N29245   3.869   4.873   0.852  0.3123 -0.8398  0.8047
  980MOL0     C29246   3.811   4.976   0.785  0.2183  1.0974 -0.1344
  980MOL0     C29247   3.903   5.051   0.727 -0.7316  0.0208  0.6310
  980MOL0     C29248   3.911   5.183   0.645  0.1741 -0.5184 -0.2020
  980MOL0     C29249   4.034   5.194   0.557 -0.6395  0.8147  0.4259
  980MOL0     C29250   4.042   5.086   0.440 -0.1484  0.3300 -0.9439
  980MOL0     C29251   4.174   5.116   0.369  0.5155 -0.3952 -0.4651
  980MOL0     O29252   4.280   5.043   0.431 -0.7625 -0.2716 -0.0222
  980MOL0     C29253   4.381   5.110   0.496 -1.0932  0.1610 -0.0881
  980MOL0     C29254   4.456   5.026   0.579  0.1065  0.1863 -1.0480
  980MOL0     C29255   4.556   5.086   0.668  0.6504 -0.8291  0.9618
  980MOL0     C29256   4.588   5.224   0.663  0.1372 -0.3121  0.2635
  980MOL0     C29257   4.701   5.291   0.739 -0.0365  0.6165  0.5747
  980MOL0     O29258   4.803   5.219   0.778  0.0749 -0.2230 -1.1846
  980MOL0     C29259   4.915   5.274   0.839 -1.2115 -0.1554  0.3496
  980MOL0     C29260   4.958   5.226   0.962  0.2798 -0.3103  1.0646
  980MOL0     C29261   5.072   5.268   1.024  0.1101  0.4117 -0.4115
  980MOL0     C29262   5.148   5.379   0.965 -0.1170  0.4155  0.1154
  980MOL0     O29263   5.264   5.438   1.012 -0.4417  0.0095 -0.4363
  980MOL0     C29264   5.276   5.472   1.151 -0.4952  1.0752  0.2542
  980MOL0     C29265   5.419   5.491   1.195 -0.1003  0.0298 -1.0845
  980MOL0     C29266   5.445   5.419   1.328  0.4133 -0.4374  0.2094
  980MOL0     C29267   5.588   5.418   1.369 -0.5106 -0.2766  1.6489
  980MOL0     C29268   5.609   5.348   1.505  1.0430 -0.2537 -0.2328
  980MOL0     C29269   5.727   5.401   1.580  0.3128 -0.1172  0.0174
  980MOL0     C29270   5.717   5.552   1.622  0.7569  0.8156  0.1193
  980MOL0     C29271   5.861   5.606   1.630 -0.0767 -0.0415 -0.2558
  980MOL0    Cl29272   5.944   5.531   1.773  0.2238  0.0530  0.1651
  980MOL0     C29273   5.097   5.434   0.836 -0.1958  0.3777 -0.0647
  980MOL0     C29274   4.989   5.376   0.775  0.3778 -0.0543 -0.1708
  980MOL0     O29275   4.690   5.413   0.757  0.0567 -0.4099  0.6239
  980MOL0     C29276   4.505   5.297   0.578  0.4443  0.0130  0.2669
  980MOL0     C29277   4.396   5.245   0.510  0.3973 -0.9574 -0.9964
  980MOL0     N29278   4.024   4.988   0.768  0.9867  0.3643  0.3364
  980MOL0     N29279   4.005   4.888   0.844 -0.2088  0.2099 -0.2703
  980MOL0     C29280   3.095   4.713   0.893 -0.0664  0.3994 -0.7023
  980MOL0     C29281   3.074   4.844   0.863  0.3102 -0.1417  0.5315
  980MOL0     C29282   2.890   5.223   0.664 -0.4161  0.0482 -0.4792
  980MOL0     C29283   2.806   5.322   0.713 -0.4322 -0.3970  0.4967
  980MOL0     C29284   2.773   5.418   0.618 -0.4954 -0.3923 -0.2489
  980MOL0     C29285   2.817   5.422   0.490 -0.5566 -0.6711 -0.6946
  980MOL0     O29286   2.783   5.532   0.418 -0.3819  0.1972  1.0048
  980MOL0     C29287   2.854   5.561   0.297  0.8297 -0.8198  0.8366
  980MOL0     C29288   2.837   5.715   0.273 -0.3223 -0.1468 -0.0282
  980MOL0     C29289   2.905   5.766   0.145  0.4337 -0.4508  0.1691
  980MOL0     C29290   2.820   5.706   0.031 -0.4887 -0.0368 -0.5399
  980MOL0     C29291   2.716   5.801   0.007 -0.1413 -1.2718  0.3810
  980MOL0     C29292   2.620   5.886   0.010  0.3627  0.9460 -0.7615
  980MOL0     C29293   2.899   5.320   0.446 -0.0321  0.3635  0.4027
  980MOL0     C29294   2.927   5.211   0.531 -0.0546 -0.3820  0.0635
  980MOL0     H29295   2.858   4.764   0.605  0.3869  0.6147 -0.7291
  980MOL0     H29296   2.927   4.546   0.658 -0.1713 -1.4052  3.6562
  980MOL0     H29297   3.230   4.361   0.932  2.2279 -1.9240 -3.2641
  980MOL0     H29298   3.262   4.519   0.974  1.6822 -1.9466  0.3958
  980MOL0     H29299   3.366   4.585   0.760 -2.7771  1.0346  0.0106
  980MOL0     H29300   3.290   4.446   0.686 -2.0692  1.1911  0.8847
  980MOL0     H29301   3.436   4.306   0.845 -0.9359 -0.9651  0.4886
  980MOL0     H29302   3.501   4.464   0.916 -2.5427  3.6746 -1.4840
  980MOL0     H29303   3.666   4.360   0.767 -1.0342  2.2548  3.5254
  980MOL0     H29304   3.539   4.336   0.642 -2.3270  1.5252 -0.8925
  980MOL0     H29305   3.538   4.539   0.568  0.4700 -3.9098 -1.3303
  980MOL0     H29306   3.692   4.490   0.572  0.3176  1.4872  0.2230
  980MOL0     H29307   3.565   4.690   0.780 -0.9293 -2.9318 -0.2704
  980MOL0     H29308   3.680   4.736   0.653  2.7537 -0.1589  0.1471
  980MOL0     H29309   3.762   4.574   0.893 -3.9978  2.1895  1.2940
  980MOL0     H29310   3.855   4.631   0.747  0.8353 -3.3375  1.7988
  980MOL0     H29311   3.839   4.747   1.002 -1.0704 -2.0883 -0.3986
  980MOL0     H29312   3.691   4.817   0.952  2.0527  2.9475 -0.4518
  980MOL0     H29313   3.705   4.985   0.763  0.1139 -2.2867 -1.7542
  980MOL0     H29314   3.919   5.266   0.716  0.1119  1.0195 -1.9249
  980MOL0     H29315   3.819   5.198   0.587  0.4176 -0.9127 -0.6962
  980MOL0     H29316   4.133   5.186   0.602  0.5815 -1.9249 -2.3537
  980MOL0     H29317   4.029   5.293   0.509 -0.4890  0.8972  0.5825
  980MOL0     H29318   4.027   4.980   0.465 -1.0735  0.8928  1.1709
  980MOL0     H29319   3.958   5.099   0.371 -1.7387 -2.2790  0.2926
  980MOL0     H29320   4.189   5.223   0.352 -2.4021  0.1038 -0.4921
  980MOL0     H29321   4.161   5.060   0.275  0.7465 -1.1313 -0.0699
  980MOL0     H29322   4.441   4.918   0.578 -0.6896  0.2898 -0.8874
  980MOL0     H29323   4.603   5.018   0.738 -1.0117 -0.8552  2.1134
  980MOL0     H29324   4.901   5.142   0.999  0.5855 -1.0882 -0.1629
  980MOL0     H29325   5.107   5.233   1.120 -1.9292  0.4497  0.3924
  980MOL0     H29326   5.232   5.388   1.206 -1.3347  0.8697 -0.6872
  980MOL0     H29327   5.222   5.566   1.165 -1.6407  0.6863 -1.3094
  980MOL0     H29328   5.439   5.594   1.224 -1.7180 -0.6531  3.0377
  980MOL0     H29329   5.483   5.460   1.111 -0.8810 -0.4123 -1.5288
  980MOL0     H29330   5.412   5.315   1.319  0.2738 -0.4859  1.1666
  980MOL0     H29331   5.392   5.477   1.404  5.5033  2.8060  1.7848
  980MOL0     H29332   5.636   5.373   1.282 -0.8520  0.1915  1.2095
  980MOL0     H29333   5.623   5.522   1.375  1.0268 -0.6571  0.1984
  980MOL0     H29334   5.627   5.240   1.495  1.0705 -0.1447 -1.4411
  980MOL0     H29335   5.518   5.365   1.563  2.0975  3.3885  0.5876
  980MOL0     H29336   5.825   5.383   1.537 -0.1075 -4.1525  0.3453
  980MOL0     H29337   5.733   5.346   1.674  2.0189 -0.8628 -0.5057
  980MOL0     H29338   5.658   5.621   1.561  2.2139  2.4499  0.4706
  980MOL0     H29339   5.673   5.544   1.721 -2.5220  0.0932 -1.2808
  980MOL0     H29340   5.858   5.710   1.663  2.8279 -1.2699  5.1492
  980MOL0     H29341   5.928   5.603   1.544  2.0977  1.6586  1.2345
  980MOL0     H29342   5.147   5.519   0.792 -0.5199 -0.4834 -2.1971
  980MOL0     H29343   4.957   5.415   0.679  0.9730  2.5433  0.6192
  980MOL0     H29344   4.518   5.403   0.557 -1.0787  0.1471 -0.1336
  980MOL0     H29345   4.332   5.312   0.454 -1.3829 -2.3426 -0.6698
  980MOL0     H29346   3.155   4.676   0.975 -0.7118 -2.8243 -1.5470
  980MOL0     H29347   3.120   4.920   0.926 -1.0766 -1.0312  2.7264
  980MOL0     H29348   2.768   5.314   0.814 -1.9418 -0.3472 -0.0428
  980MOL0     H29349   2.702   5.497   0.641  1.8722  1.4681  1.0888
  980MOL0     H29350   2.831   5.500   0.209  2.9326 -2.6584  1.4665
  980MOL0     H29351   2.959   5.539   0.319  1.0060 -0.1737  0.6668
  980MOL0     H29352   2.732   5.734   0.295 -0.4825 -2.1400  1.1631
  980MOL0     H29353   2.887   5.756   0.361  1.8669  0.0792 -1.3004
  980MOL0     H29354   3.010   5.739   0.131 -0.1251 -1.8728 -1.6306
  980MOL0     H29355   2.903   5.875   0.153  3.4220 -0.3324  0.2586
  980MOL0     H29356   2.886   5.717  -0.056 -0.1202 -0.0324 -0.2628
  980MOL0     H29357   2.791   5.602   0.048  2.8790 -0.8598  1.0161
  980MOL0     H29358   2.531   5.946   0.008 -0.5998 -0.4503 -2.3187
  980MOL0     H29359   2.950   5.322   0.350  1.4779  1.4938  1.1801
  980MOL0     H29360   2.982   5.130   0.485 -2.4888 -2.4540  0.5880
  981MOL0     O29361   9.705  10.367   0.987  0.3505 -0.0883  0.1844
  981MOL0     C29362   9.700  10.483   1.043  0.8886  0.5838 -0.1729
  981MOL0     O29363   9.745  10.605   0.978  0.4564  0.1616  0.3441
  981MOL0     C29364   9.797  10.593   0.847  0.0336 -1.0161 -0.2497
  981MOL0     C29365   9.905  10.666   0.811  0.1148  0.1425 -0.2243
  981MOL0     C29366   9.952  10.667   0.681 -0.2222  0.1641  0.1842
  981MOL0     C29367   9.891  10.597   0.576 -0.1307  0.3555  0.5434
  981MOL0     O29368   9.933  10.589   0.448 -0.9174 -0.3277  0.1281
  981MOL0     C29369  10.064  10.613   0.410 -0.5816 -0.8246 -1.0419
  981MOL0     C29370  10.097  10.541   0.274 -0.9285  0.3290  0.5210
  981MOL0     C29371  10.206  10.617   0.202  0.2563  0.4541 -0.5591
  981MOL0     C29372  10.268  10.541   0.084  0.6743 -0.3758 -0.4353
  981MOL0     C29373  10.413  10.507   0.090  0.0108  0.4349 -1.0270
  981MOL0     C29374  10.462  10.461  -0.050  0.3068 -0.0053 -0.0077
  981MOL0     C29375  10.584  10.534  -0.098 -0.0063  0.6784  0.0662
  981MOL0     C29376  10.546  10.678  -0.132 -0.2140  0.6094 -0.6264
  981MOL0     N29377  10.660  10.762  -0.174 -0.1445  0.2156 -0.0350
  981MOL0     C29378  10.655  10.899  -0.158 -1.1282 -0.3350  0.0148
  981MOL0     C29379  10.782  10.947  -0.177 -0.0677 -0.5907 -0.2147
  981MOL0     C29380  10.825  11.097  -0.183 -0.0305  0.3076  0.2062
  981MOL0     C29381  10.827  11.156  -0.050 -0.5092 -0.1602 -0.3582
  981MOL0     C29382  10.956  11.112   0.027 -1.0679  0.6359  0.0709
  981MOL0     C29383  10.957  10.968   0.091  0.6281 -0.4636  0.2162
  981MOL0     O29384  10.833  10.942   0.154 -0.3988  0.5870  0.2237
  981MOL0     C29385  10.801  10.815   0.211 -0.8032  0.1261  0.2560
  981MOL0     C29386  10.883  10.707   0.207  0.3243  0.4670 -0.6688
  981MOL0     C29387  10.854  10.587   0.251 -0.3241  0.8375  0.8023
  981MOL0     C29388  10.730  10.555   0.315 -0.6171  0.2534  0.7196
  981MOL0     C29389  10.714  10.416   0.382 -0.4521  0.8516 -0.7778
  981MOL0     O29390  10.787  10.309   0.338 -0.2526 -0.8638 -0.0870
  981MOL0     C29391  10.777  10.200   0.419  0.9830 -0.0790  1.0577
  981MOL0     C29392  10.848  10.195   0.547  0.2257 -0.7595  0.9590
  981MOL0     C29393  10.827  10.102   0.642  0.3711  0.8045 -0.0901
  981MOL0     C29394  10.744   9.995   0.604  1.1075  1.1321  1.0535
  981MOL0     O29395  10.718   9.879   0.674  0.2397  0.2391  0.0760
  981MOL0     C29396  10.723   9.879   0.817 -0.0309  0.6727  0.0250
  981MOL0     C29397  10.860   9.824   0.854 -0.8212  0.0395 -1.1960
  981MOL0     C29398  10.880   9.804   1.002  0.2986 -0.2032  0.4612
  981MOL0     C29399  10.875   9.926   1.087  1.1142  0.0288 -0.1835
  981MOL0     C29400  10.874   9.900   1.231 -0.2054 -0.9839  0.2388
  981MOL0     C29401  10.847  10.023   1.318 -0.2750  0.5883  0.9683
  981MOL0     C29402  10.947  10.138   1.298 -0.6927  0.8642  0.2861
  981MOL0     C29403  10.963  10.222   1.427  0.7789  0.0854 -0.7354
  981MOL0    Cl29404  10.811  10.288   1.465  0.4133  0.2460  0.4750
  981MOL0     C29405  10.676   9.991   0.482 -0.3966  0.3146 -0.9163
  981MOL0     C29406  10.700  10.091   0.388  0.0797 -0.3961  0.0470
  981MOL0     O29407  10.610  10.398   0.451 -0.6079 -0.3992  0.2756
  981MOL0     C29408  10.652  10.665   0.334 -0.1810 -0.2383  0.3861
  981MOL0     C29409  10.676  10.793   0.274  0.6302  0.1928  0.1287
  981MOL0     N29410  10.860  10.839  -0.204 -0.5166 -0.4936 -0.5702
  981MOL0     N29411  10.792  10.727  -0.202  0.0941 -0.0948 -1.1938
  981MOL0     C29412   9.781  10.530   0.617 -0.4238  0.0077 -0.7099
  981MOL0     C29413   9.734  10.522   0.748  0.0958 -0.6859  0.9206
  981MOL0     C29414   9.638  10.482   1.177 -0.8908  0.8018 -0.6528
  981MOL0     C29415   9.580  10.599   1.231  0.4249 -0.3167  0.2513
  981MOL0     C29416   9.557  10.615   1.372  0.7808 -1.0293  0.5859
  981MOL0     C29417   9.591  10.517   1.457  0.7535  0.9264 -1.1045
  981MOL0     O29418   9.573  10.517   1.593 -0.1937  1.1666  0.3880
  981MOL0     C29419   9.545  10.630   1.671  0.3133  0.6911  0.1383
  981MOL0     C29420   9.679  10.691   1.714 -0.4139  0.6899 -0.8429
  981MOL0     C29421   9.748  10.604   1.815 -0.4377  0.2500  0.3386
  981MOL0     C29422   9.890  10.657   1.842 -0.5499  0.4880  0.3281
  981MOL0     C29423   9.878  10.777   1.930  0.1613  0.0184  0.2197
  981MOL0     C29424   9.871  10.876   1.992  0.0751  0.3999 -0.2786
  981MOL0     C29425   9.631  10.388   1.399  0.2659 -0.0852 -0.4276
  981MOL0     C29426   9.665  10.368   1.265 -0.5694  0.7467  0.3041
  981MOL0     H29427   9.954  10.734   0.880  3.6298 -1.5228 -0.8543
  981MOL0     H29428  10.037  10.730   0.658  1.6205 -1.8222  1.1444
  981MOL0     H29429  10.148  10.586   0.474  1.6009 -0.7495 -3.6490
  981MOL0     H29430  10.075  10.721   0.394  0.1895 -0.5445  1.0720
  981MOL0     H29431  10.012  10.531   0.205 -0.4555 -3.5598  0.2805
  981MOL0     H29432  10.132  10.441   0.300 -1.6134  0.4547  2.0457
  981MOL0     H29433  10.281  10.636   0.279 -1.2962 -2.8122  2.0209
  981MOL0     H29434  10.174  10.716   0.169 -0.6597 -0.7697 -3.7017
  981MOL0     H29435  10.214  10.449   0.062  0.6827  0.0481 -2.4904
  981MOL0     H29436  10.259  10.607  -0.003  1.9288  1.2813  0.6282
  981MOL0     H29437  10.422  10.427   0.164  0.8721  1.7187  0.3104
  981MOL0     H29438  10.459  10.598   0.128 -1.1743 -0.2264  2.2798
  981MOL0     H29439  10.386  10.468  -0.128 -0.8129 -0.1656  1.0256
  981MOL0     H29440  10.493  10.357  -0.042  1.3964  0.2569 -0.6894
  981MOL0     H29441  10.662  10.536  -0.021 -0.5213 -2.2690  0.7924
  981MOL0     H29442  10.614  10.479  -0.187 -0.3658  0.6840 -0.0603
  981MOL0     H29443  10.514  10.729  -0.041  0.4168 -1.7916  1.0650
  981MOL0     H29444  10.463  10.666  -0.202 -1.4235 -0.8331  0.9400
  981MOL0     H29445  10.567  10.959  -0.140 -1.0416  0.5252 -2.0664
  981MOL0     H29446  10.757  11.144  -0.253 -2.5649 -1.5664  1.2630
  981MOL0     H29447  10.923  11.111  -0.230 -0.3334  0.9224 -0.2435
  981MOL0     H29448  10.744  11.130   0.016  1.1935 -1.2703  1.4507
  981MOL0     H29449  10.827  11.265  -0.063 -2.0918 -0.1159 -0.1960
  981MOL0     H29450  11.039  11.130  -0.042 -0.6488  2.5172  0.9972
  981MOL0     H29451  10.978  11.168   0.118 -1.0935 -0.5501  0.8284
  981MOL0     H29452  11.047  10.962   0.153  0.3500  1.1826  0.8069
  981MOL0     H29453  10.963  10.888   0.016 -1.4701  0.3780 -0.9282
  981MOL0     H29454  10.981  10.703   0.159  0.6479  1.4226 -0.1058
  981MOL0     H29455  10.926  10.508   0.233 -2.0797 -0.6350 -0.1250
  981MOL0     H29456  10.924  10.271   0.567  0.5550 -0.0592 -2.3616
  981MOL0     H29457  10.870  10.101   0.742  0.2776 -0.9280 -0.0448
  981MOL0     H29458  10.647   9.812   0.860  0.0744 -0.3168 -1.2650
  981MOL0     H29459  10.709   9.982   0.849 -2.7308  0.5852 -0.6063
  981MOL0     H29460  10.934   9.891   0.810 -0.0410 -1.3418 -2.0463
  981MOL0     H29461  10.874   9.731   0.798  3.7554  0.3099 -0.8811
  981MOL0     H29462  10.983   9.768   1.014  0.4817  0.3518  0.5893
  981MOL0     H29463  10.814   9.719   1.023 -0.0762 -0.0576 -0.1279
  981MOL0     H29464  10.962   9.987   1.063  1.7173 -0.3696  0.9475
  981MOL0     H29465  10.790   9.986   1.053  0.3523  1.4782  3.7294
  981MOL0     H29466  10.968   9.856   1.267 -0.5656 -0.7853  1.5031
  981MOL0     H29467  10.807   9.816   1.255  0.0237 -2.1467 -2.7649
  981MOL0     H29468  10.845   9.994   1.423 -2.2189 -1.0175  0.5528
  981MOL0     H29469  10.746  10.062   1.300 -0.2759 -0.1746 -0.8895
  981MOL0     H29470  11.050  10.112   1.274  0.4125  2.9937  2.2937
  981MOL0     H29471  10.899  10.207   1.228 -0.0273  2.3578  1.2411
  981MOL0     H29472  11.031  10.304   1.403  2.1371 -0.0901  2.0860
  981MOL0     H29473  11.001  10.173   1.517 -2.6974 -0.3657  0.6815
  981MOL0     H29474  10.606   9.915   0.447  0.5215 -0.5868 -0.8357
  981MOL0     H29475  10.640  10.078   0.298  1.3525 -5.8231 -0.3559
  981MOL0     H29476  10.566  10.639   0.395 -0.4925 -0.4664 -0.1391
  981MOL0     H29477  10.620  10.885   0.289  0.4368 -0.0899  1.2396
  981MOL0     H29478   9.738  10.467   0.540 -2.0923 -1.4567  1.3143
  981MOL0     H29479   9.650  10.461   0.781 -1.7795  0.7886 -0.8639
  981MOL0     H29480   9.572  10.683   1.162  4.7278 -1.4888 -1.9997
  981MOL0     H29481   9.502  10.706   1.398 -0.6290 -1.8308  0.5188
  981MOL0     H29482   9.501  10.592   1.764 -0.2759 -2.7317 -1.4064
  981MOL0     H29483   9.469  10.697   1.629 -0.8352  1.3569  2.9976
  981MOL0     H29484   9.749  10.699   1.630 -1.5864  2.8501 -1.6977
  981MOL0     H29485   9.676  10.794   1.751  5.4272  1.1639 -0.7487
  981MOL0     H29486   9.767  10.506   1.771 -0.9015  1.3159 -2.3975
  981MOL0     H29487   9.696  10.615   1.911  2.6411  0.6506  2.1116
  981MOL0     H29488   9.937  10.578   1.901  0.0462  0.4463 -0.1895
  981MOL0     H29489   9.960  10.684   1.762  1.2404  0.5303  1.8348
  981MOL0     H29490   9.868  10.966   2.050 -0.6943  0.3397 -0.2076
  981MOL0     H29491   9.648  10.314   1.477 -4.2592 -0.8643  0.0436
  981MOL0     H29492   9.700  10.270   1.232 -2.4191  0.9511 -2.6173
  982MOL0     O29493   5.649   2.412   5.934  0.0908 -0.3363  0.0817
  982MOL0     C29494   5.577   2.491   5.867  0.0154 -0.1099  0.1690
  982MOL0     O29495   5.564   2.494   5.729  0.4135 -0.3183 -0.7294
  982MOL0     C29496   5.652   2.414   5.663  0.6667  0.3385  0.4612
  982MOL0     C29497   5.634   2.274   5.671 -0.8624 -0.0998 -0.4675
  982MOL0     C29498   5.730   2.194   5.612 -0.2158  0.8648 -0.7633
  982MOL0     C29499   5.838   2.241   5.550 -0.4117 -0.2956 -0.1755
  982MOL0     O29500   5.936   2.157   5.509 -0.1056 -0.6134 -0.3157
  982MOL0     C29501   5.902   2.040   5.448  0.2772 -0.8922 -0.5736
  982MOL0     C29502   6.024   1.999   5.367  0.2161  0.1553 -0.3531
  982MOL0     C29503   6.007   1.883   5.268 -0.5346 -0.8574 -0.3293
  982MOL0     C29504   6.134   1.806   5.254 -0.1513 -0.1362 -0.8213
  982MOL0     C29505   6.264   1.897   5.241  0.0167 -0.5212  0.4539
  982MOL0     C29506   6.388   1.818   5.205  0.7869  0.4834 -0.4985
  982MOL0     C29507   6.505   1.915   5.177 -0.7034  0.8370  0.3233
  982MOL0     C29508   6.597   1.912   5.300 -0.1326  0.5248  0.1069
  982MOL0     N29509   6.722   1.990   5.279 -1.3322  0.3866 -0.2578
  982MOL0     C29510   6.732   2.135   5.262  0.4662  0.5161 -1.4671
  982MOL0     C29511   6.870   2.149   5.276 -0.0045  0.2016 -0.1411
  982MOL0     C29512   6.938   2.294   5.292 -1.0735 -1.0854 -0.2093
  982MOL0     C29513   6.995   2.304   5.444  0.6031 -0.2115  0.0779
  982MOL0     C29514   7.058   2.435   5.478  0.5227  0.3462  1.8794
  982MOL0     C29515   7.130   2.424   5.621 -0.8331  0.1858  0.4286
  982MOL0     O29516   7.049   2.380   5.728  0.2506  0.5376 -0.5376
  982MOL0     C29517   7.104   2.339   5.851 -0.8022 -0.5481  0.4841
  982MOL0     C29518   7.019   2.293   5.952  0.3290  0.4299 -0.8145
  982MOL0     C29519   7.077   2.246   6.075  0.5867 -0.0276  1.0383
  982MOL0     C29520   7.215   2.246   6.092  0.1489  0.5048  0.0233
  982MOL0     C29521   7.269   2.184   6.217 -0.4056 -0.4193  0.8650
  982MOL0     O29522   7.405   2.177   6.233  0.5200  1.6455 -0.0167
  982MOL0     C29523   7.440   2.091   6.336  0.1717  0.8094 -0.4253
  982MOL0     C29524   7.415   1.954   6.344  0.2698  0.4327 -1.1637
  982MOL0     C29525   7.455   1.873   6.458 -0.3574 -0.0854 -0.1730
  982MOL0     C29526   7.542   1.937   6.551  0.1867  0.4772 -0.3028
  982MOL0     O29527   7.605   1.854   6.649  0.6067 -0.6604 -0.0534
  982MOL0     C29528   7.747   1.876   6.663  1.1830 -0.2906  0.0146
  982MOL0     C29529   7.827   1.747   6.651  0.0058  0.6089  0.5692
  982MOL0     C29530   7.823   1.694   6.497  0.2053  0.6765 -0.0687
  982MOL0     C29531   7.923   1.582   6.478 -0.4935 -0.6674  0.6857
  982MOL0     C29532   7.914   1.513   6.342  0.3577 -0.3867 -0.6371
  982MOL0     C29533   7.905   1.604   6.220  0.2502  0.2418  0.5037
  982MOL0     C29534   7.756   1.624   6.171  0.2852 -0.2941 -1.1426
  982MOL0     C29535   7.737   1.757   6.111 -0.1102  0.0098  0.1324
  982MOL0    Cl29536   7.569   1.762   6.060  0.0486  0.0040  0.1688
  982MOL0     C29537   7.564   2.081   6.533  0.1034 -0.5028  0.4101
  982MOL0     C29538   7.513   2.154   6.430  0.0359  0.0976  0.9123
  982MOL0     O29539   7.182   2.142   6.294  0.4986 -0.4368  0.6187
  982MOL0     C29540   7.294   2.288   5.989 -0.3120 -0.2232 -0.0134
  982MOL0     C29541   7.240   2.349   5.878 -0.5534  0.9076  0.3122
  982MOL0     N29542   6.938   2.022   5.282 -0.0877 -0.4709 -0.5243
  982MOL0     N29543   6.849   1.930   5.279  0.4201 -0.6599 -0.4486
  982MOL0     C29544   5.855   2.374   5.537  1.0038  0.0028  0.5008
  982MOL0     C29545   5.759   2.464   5.595  0.6635 -0.1183  0.4199
  982MOL0     C29546   5.500   2.603   5.927  0.1687  0.1982 -0.3927
  982MOL0     C29547   5.440   2.707   5.854 -0.3495  0.6818 -1.4041
  982MOL0     C29548   5.360   2.803   5.917 -0.8024  0.8596 -0.5980
  982MOL0     C29549   5.361   2.808   6.055  1.3384 -0.7362  1.0878
  982MOL0     O29550   5.275   2.903   6.098 -0.6507 -0.1052 -0.6152
  982MOL0     C29551   5.211   2.871   6.222  0.1767  0.4269 -0.4246
  982MOL0     C29552   5.200   2.996   6.316  0.8303  0.2093  0.2380
  982MOL0     C29553   5.071   3.087   6.290 -0.6280  0.5563 -0.0415
  982MOL0     C29554   5.092   3.202   6.382  0.8434 -0.0958 -0.2230
  982MOL0     C29555   4.968   3.278   6.370  1.1965  1.1711 -0.0276
  982MOL0     C29556   4.863   3.342   6.368  0.2697  0.1892  0.0448
  982MOL0     C29557   5.428   2.712   6.126  0.0123 -0.5966  0.0191
  982MOL0     C29558   5.498   2.611   6.065 -0.3272 -0.2073  0.4927
  982MOL0     H29559   5.555   2.225   5.727 -0.6260  0.4589  0.3789
  982MOL0     H29560   5.701   2.089   5.620 -0.9967  1.2169  2.1499
  982MOL0     H29561   5.811   2.054   5.388  1.1526 -1.2455 -2.0082
  982MOL0     H29562   5.880   1.966   5.526 -0.1716  0.3828  0.5601
  982MOL0     H29563   6.089   1.971   5.450 -3.6509 -0.3619  2.8086
  982MOL0     H29564   6.074   2.078   5.310  0.5521  0.3404  0.1935
  982MOL0     H29565   5.986   1.930   5.171  0.0032  2.0116  0.8558
  982MOL0     H29566   5.941   1.810   5.316  1.9073 -2.7727  0.3583
  982MOL0     H29567   6.152   1.752   5.347 -2.3791  3.2237  1.8331
  982MOL0     H29568   6.130   1.735   5.171  3.6013 -1.0884 -0.3555
  982MOL0     H29569   6.277   1.932   5.344 -2.4657 -4.1817  2.2383
  982MOL0     H29570   6.248   1.982   5.174  1.4324 -3.5920 -4.2718
  982MOL0     H29571   6.360   1.758   5.118 -3.3171  1.1550  0.1753
  982MOL0     H29572   6.403   1.747   5.287 -2.4890 -0.5016 -0.6329
  982MOL0     H29573   6.565   1.881   5.092  3.4468  2.8422  2.1297
  982MOL0     H29574   6.465   2.013   5.147 -2.3682  0.6221  1.6488
  982MOL0     H29575   6.622   1.806   5.313  0.2127  0.5089 -0.6001
  982MOL0     H29576   6.539   1.945   5.386 -0.3493 -0.2764  0.2826
  982MOL0     H29577   6.655   2.210   5.278  0.3184 -0.3592  3.4746
  982MOL0     H29578   6.867   2.376   5.285 -2.2411 -1.8098  2.1557
  982MOL0     H29579   7.030   2.298   5.232 -0.6372  1.8610  0.5234
  982MOL0     H29580   7.075   2.237   5.476 -1.3770 -1.5484  2.5331
  982MOL0     H29581   6.900   2.285   5.495 -0.6139  0.1083 -1.9643
  982MOL0     H29582   7.129   2.440   5.395 -2.7217 -0.6039 -1.2204
  982MOL0     H29583   6.989   2.520   5.477 -1.3886 -1.0362 -0.9069
  982MOL0     H29584   7.173   2.521   5.648 -0.1484 -0.0811  0.3218
  982MOL0     H29585   7.214   2.354   5.618 -2.9854 -2.5630 -0.2282
  982MOL0     H29586   6.911   2.284   5.952  0.4383 -1.2315 -1.2914
  982MOL0     H29587   7.013   2.196   6.146 -1.1055 -1.5904 -1.4370
  982MOL0     H29588   7.377   1.893   6.263  0.9285 -1.4895 -0.0871
  982MOL0     H29589   7.445   1.765   6.462  0.6504 -0.1680  0.3775
  982MOL0     H29590   7.758   1.922   6.761  0.9749  0.3642 -0.2661
  982MOL0     H29591   7.784   1.945   6.587 -0.7582  1.2037  0.3342
  982MOL0     H29592   7.771   1.667   6.700  0.4084 -0.5790 -0.8241
  982MOL0     H29593   7.934   1.749   6.674 -0.0120 -1.5979  0.9933
  982MOL0     H29594   7.844   1.774   6.425  0.6319 -1.1751 -2.1245
  982MOL0     H29595   7.719   1.671   6.475  1.1642 -1.3237 -3.1853
  982MOL0     H29596   8.022   1.630   6.480 -1.4483  1.5249 -0.7643
  982MOL0     H29597   7.926   1.505   6.556  2.6973 -2.1251 -0.6848
  982MOL0     H29598   7.839   1.433   6.344 -2.7891  2.3380 -1.2934
  982MOL0     H29599   8.009   1.459   6.330 -0.6254 -1.8461 -2.6075
  982MOL0     H29600   7.959   1.565   6.134  0.6840 -1.0141  1.3152
  982MOL0     H29601   7.955   1.696   6.249  0.9454 -0.6848  2.4355
  982MOL0     H29602   7.713   1.555   6.098 -0.8819  0.1146 -0.8749
  982MOL0     H29603   7.692   1.618   6.260 -1.7494  1.8033 -2.3435
  982MOL0     H29604   7.807   1.749   6.027  1.2352 -2.4775  1.3907
  982MOL0     H29605   7.772   1.842   6.170  1.2472 -0.9236  0.7264
  982MOL0     H29606   7.621   2.119   6.618 -0.4373 -1.5353  1.2693
  982MOL0     H29607   7.547   2.254   6.407 -1.9708  0.1109 -2.7252
  982MOL0     H29608   7.400   2.299   6.005 -0.5352  3.0272 -0.0273
  982MOL0     H29609   7.301   2.392   5.800 -0.8627 -0.2473 -0.5929
  982MOL0     H29610   5.947   2.405   5.489 -0.8820  2.2602 -1.9364
  982MOL0     H29611   5.787   2.568   5.583  0.9893 -0.1826  0.5949
  982MOL0     H29612   5.460   2.716   5.748 -2.2140  5.2283 -1.6148
  982MOL0     H29613   5.305   2.880   5.864  0.8343  2.6961  0.2600
  982MOL0     H29614   5.255   2.792   6.283  1.1446  1.6806  0.5886
  982MOL0     H29615   5.112   2.829   6.202  0.9973 -1.3262 -0.9529
  982MOL0     H29616   5.216   2.955   6.416 -1.0076 -1.4920 -0.0935
  982MOL0     H29617   5.285   3.056   6.281  0.9758 -1.7623 -3.3193
  982MOL0     H29618   4.983   3.023   6.307 -1.4556  1.3315 -1.2536
  982MOL0     H29619   5.063   3.123   6.187 -1.1889  0.1221 -0.1571
  982MOL0     H29620   5.115   3.175   6.486  1.7211 -0.0048 -0.3902
  982MOL0     H29621   5.171   3.272   6.354  1.6987 -1.0979 -0.3812
  982MOL0     H29622   4.773   3.398   6.352 -0.3051 -1.2949 -2.1973
  982MOL0     H29623   5.431   2.731   6.232 -0.1690  1.2189 -0.2742
  982MOL0     H29624   5.550   2.541   6.130 -3.2048 -4.0161 -0.9581
  983MOL0     O29625   6.611   7.473  11.037 -0.4051  0.8033  0.2498
  983MOL0     C29626   6.514   7.534  10.993  0.4027  0.2273 -0.8505
  983MOL0     O29627   6.512   7.665  10.951  0.5911  0.1737 -0.4246
  983MOL0     C29628   6.628   7.732  10.931 -0.4907 -0.0345  0.0366
  983MOL0     C29629   6.721   7.762  11.041 -0.3543 -0.5164 -0.4949
  983MOL0     C29630   6.835   7.829  11.011 -0.3983  0.4510  0.3377
  983MOL0     C29631   6.876   7.858  10.876  0.1970  1.0281  0.5330
  983MOL0     O29632   6.996   7.926  10.855  0.6203  0.4803 -0.0129
  983MOL0     C29633   7.106   7.905  10.946  0.7247 -0.4392 -0.3839
  983MOL0     C29634   7.232   7.940  10.881  0.1461  0.1376 -0.6144
  983MOL0     C29635   7.350   7.897  10.961  0.8245  0.1266  0.1344
  983MOL0     C29636   7.474   7.929  10.885 -0.4584  0.1135  0.0040
  983MOL0     C29637   7.594   7.925  10.974  1.0781 -0.4351  0.3424
  983MOL0     C29638   7.630   7.780  11.013 -0.0920 -0.4428  0.1744
  983MOL0     C29639   7.771   7.757  11.068  0.0373 -0.6311 -0.2686
  983MOL0     C29640   7.875   7.766  10.954 -0.1559  0.2112 -0.4704
  983MOL0     N29641   8.000   7.820  10.999 -0.0783 -0.0552 -0.2676
  983MOL0     C29642   8.105   7.855  10.910 -0.5719  0.4309 -0.2802
  983MOL0     C29643   8.199   7.917  11.000 -0.2117 -1.0812  0.3558
  983MOL0     C29644   8.317   7.992  10.948  0.8809 -0.1228  0.9758
  983MOL0     C29645   8.303   8.143  10.977 -0.9286  0.7148  0.3687
  983MOL0     C29646   8.207   8.207  10.879 -0.7470 -0.1806 -0.2926
  983MOL0     C29647   8.173   8.350  10.932  0.0276  0.4227  0.3551
  983MOL0     O29648   8.103   8.363  11.049 -0.8397 -0.1105 -0.3644
  983MOL0     C29649   7.976   8.349  11.053 -0.0409 -0.4099  0.3777
  983MOL0     C29650   7.878   8.327  10.951  0.1343  0.3965 -0.3177
  983MOL0     C29651   7.749   8.284  10.988 -0.4476  0.0687  0.6097
  983MOL0     C29652   7.691   8.303  11.118 -0.1326  0.8736 -0.3144
  983MOL0     C29653   7.558   8.258  11.149 -0.3883 -0.2490 -0.3046
  983MOL0     O29654   7.517   8.249  11.272  0.0889 -0.7175 -0.4911
  983MOL0     C29655   7.384   8.210  11.281  0.0116 -0.4990 -1.2291
  983MOL0     C29656   7.290   8.307  11.293 -0.2074 -0.1038  0.2473
  983MOL0     C29657   7.153   8.278  11.302  0.6998 -0.6691  0.8700
  983MOL0     C29658   7.100   8.145  11.306  0.1086 -0.3935 -0.3686
  983MOL0     O29659   6.970   8.106  11.319  1.1267 -0.2528  0.1137
  983MOL0     C29660   6.872   8.206  11.295  0.2847 -0.9056 -0.0984
  983MOL0     C29661   6.829   8.259  11.434 -0.2077 -1.2335  0.2769
  983MOL0     C29662   6.717   8.183  11.487 -0.1366 -0.3793 -0.5276
  983MOL0     C29663   6.660   8.234  11.618  0.4601 -1.0556  0.1410
  983MOL0     C29664   6.551   8.139  11.675 -0.0220 -0.1903 -0.0811
  983MOL0     C29665   6.492   8.223  11.786 -0.2120  0.1844  0.5349
  983MOL0     C29666   6.384   8.135  11.858 -1.0985 -0.2767  0.7347
  983MOL0     C29667   6.244   8.193  11.844 -0.1736  0.1752  0.6020
  983MOL0    Cl29668   6.108   8.099  11.907  0.0022 -0.0904  0.2245
  983MOL0     C29669   7.200   8.039  11.304  0.2316 -0.7509 -0.0834
  983MOL0     C29670   7.340   8.073  11.294  0.8140 -0.5077  0.1264
  983MOL0     O29671   7.487   8.258  11.050 -0.7737  0.4679 -0.1283
  983MOL0     C29672   7.790   8.327  11.214  0.2935  0.4536 -0.3447
  983MOL0     C29673   7.922   8.352  11.183  0.2832 -0.2637 -0.5809
  983MOL0     N29674   8.146   7.910  11.132 -0.0921  0.5035 -0.3591
  983MOL0     N29675   8.039   7.845  11.130 -0.9197  0.0904  1.0230
  983MOL0     C29676   6.793   7.819  10.775  0.4338 -0.4791 -0.3588
  983MOL0     C29677   6.669   7.760  10.802 -0.1029  0.7642 -0.0463
  983MOL0     C29678   6.386   7.469  11.026  0.8776 -0.2146 -0.1478
  983MOL0     C29679   6.276   7.520  10.956 -0.2238 -0.0678 -0.1841
  983MOL0     C29680   6.145   7.459  10.966  0.5369 -0.9373  0.4883
  983MOL0     C29681   6.119   7.359  11.056  1.2444  0.7917 -0.0502
  983MOL0     O29682   5.986   7.308  11.060 -0.1928  0.3344  0.6954
  983MOL0     C29683   5.942   7.228  11.165  0.6950 -1.0268  0.7843
  983MOL0     C29684   5.956   7.295  11.293  0.0719 -0.1942  0.3442
  983MOL0     C29685   5.905   7.437  11.284 -1.2909 -1.0609  0.0823
  983MOL0     C29686   5.935   7.531  11.413  1.0192 -0.4836  0.0970
  983MOL0     C29687   5.856   7.486  11.520  0.7261  0.5870 -0.5139
  983MOL0     C29688   5.784   7.435  11.604 -0.1087  0.5090 -0.0874
  983MOL0     C29689   6.234   7.322  11.128  0.5479 -0.8598 -0.0207
  983MOL0     C29690   6.365   7.357  11.113  0.2092  0.1370 -0.4636
  983MOL0     H29691   6.699   7.724  11.141 -0.7934 -0.7763 -0.6908
  983MOL0     H29692   6.908   7.855  11.087  1.8872 -1.3699 -1.0866
  983MOL0     H29693   7.113   7.806  10.994  0.8520  0.6671  2.0366
  983MOL0     H29694   7.108   7.975  11.030 -0.2676 -0.2119 -0.5441
  983MOL0     H29695   7.233   8.049  10.873 -2.4324  0.3525  0.6840
  983MOL0     H29696   7.240   7.896  10.781  1.6561  1.5794 -1.1703
  983MOL0     H29697   7.344   7.788  10.967  0.1878  0.2155  1.4753
  983MOL0     H29698   7.349   7.948  11.058  2.9841  1.5054 -0.4926
  983MOL0     H29699   7.501   7.860  10.805  1.1475 -0.0017  0.6166
  983MOL0     H29700   7.481   8.026  10.836  3.1516 -0.5095 -0.9881
  983MOL0     H29701   7.564   7.992  11.055  0.4990 -2.2776  1.7117
  983MOL0     H29702   7.679   7.973  10.923  0.8170  1.4475  1.5665
  983MOL0     H29703   7.630   7.709  10.931 -0.2179 -0.2125 -0.0248
  983MOL0     H29704   7.559   7.746  11.089  4.2119 -0.0058  4.9804
  983MOL0     H29705   7.788   7.831  11.148 -2.3845 -1.5431  1.1982
  983MOL0     H29706   7.789   7.660  11.114  1.1969  0.3432  1.4655
  983MOL0     H29707   7.846   7.836  10.876  1.4693 -0.1686 -1.4611
  983MOL0     H29708   7.899   7.682  10.888  5.3990  1.3176 -0.3309
  983MOL0     H29709   8.121   7.863  10.803  0.8847  2.1327  0.0169
  983MOL0     H29710   8.333   7.962  10.844 -2.1432  0.2161  0.3257
  983MOL0     H29711   8.407   7.955  10.998  2.4088  1.5855 -0.3532
  983MOL0     H29712   8.396   8.198  10.961 -1.2935  1.6809  1.4777
  983MOL0     H29713   8.269   8.151  11.080 -0.1048  0.6394  0.6518
  983MOL0     H29714   8.255   8.218  10.782 -2.9212  4.8904 -1.1206
  983MOL0     H29715   8.114   8.149  10.874 -2.1379  1.5656  2.3489
  983MOL0     H29716   8.120   8.407  10.854 -2.3473 -2.6496 -0.4938
  983MOL0     H29717   8.266   8.398  10.964 -0.7225  1.4146  1.1059
  983MOL0     H29718   7.892   8.305  10.846 -1.4119 -0.1446 -0.4352
  983MOL0     H29719   7.681   8.264  10.906 -1.0038  1.7378  0.6111
  983MOL0     H29720   7.318   8.410  11.313  0.8901 -0.9272  3.7135
  983MOL0     H29721   7.096   8.369  11.315 -2.4465 -2.5056  1.0725
  983MOL0     H29722   6.785   8.178  11.235  0.1712  1.1763 -0.9824
  983MOL0     H29723   6.908   8.295  11.242 -0.2815 -1.5440 -1.6012
  983MOL0     H29724   6.799   8.361  11.411  0.6813 -0.4465  2.3539
  983MOL0     H29725   6.913   8.269  11.503 -0.8497  0.4161  0.8598
  983MOL0     H29726   6.756   8.081  11.495 -0.6671 -0.4281  2.6322
  983MOL0     H29727   6.632   8.177  11.418 -0.9474 -0.1851  0.4328
  983MOL0     H29728   6.737   8.244  11.695 -1.4750  1.6955  1.9357
  983MOL0     H29729   6.614   8.332  11.602  2.0245 -0.5732 -1.8807
  983MOL0     H29730   6.593   8.041  11.699  1.1482  0.2143 -0.4547
  983MOL0     H29731   6.471   8.125  11.600 -1.7967 -2.3643  2.0294
  983MOL0     H29732   6.449   8.313  11.741 -1.3750 -1.6418 -2.2376
  983MOL0     H29733   6.560   8.262  11.863 -1.9861  2.5994  0.9940
  983MOL0     H29734   6.394   8.033  11.818  1.1066  1.0509 -2.5822
  983MOL0     H29735   6.409   8.126  11.964  2.0196  0.5887  0.1565
  983MOL0     H29736   6.226   8.223  11.740 -1.3647  1.5394  1.1496
  983MOL0     H29737   6.251   8.291  11.892  2.6658  2.0783 -3.0839
  983MOL0     H29738   7.176   7.933  11.316 -0.2782 -0.4786  1.6108
  983MOL0     H29739   7.413   7.994  11.305 -0.7892 -2.1300 -0.3953
  983MOL0     H29740   7.760   8.306  11.316 -2.4504 -1.8218 -1.4973
  983MOL0     H29741   7.985   8.352  11.271  0.5270  0.8159 -0.7448
  983MOL0     H29742   6.838   7.835  10.678  1.5524  2.1524  0.4891
  983MOL0     H29743   6.606   7.735  10.717  0.0802 -0.8611  0.2596
  983MOL0     H29744   6.272   7.606  10.890 -3.0999  0.3728  0.4199
  983MOL0     H29745   6.068   7.494  10.899  1.5841 -3.4363 -2.2341
  983MOL0     H29746   6.003   7.137  11.166  1.8364 -0.3638 -1.5420
  983MOL0     H29747   5.834   7.217  11.156  0.4258  2.0249 -1.1539
  983MOL0     H29748   5.907   7.239  11.374 -0.3367  1.0522  0.9946
  983MOL0     H29749   6.063   7.292  11.314  0.6552 -4.6491 -2.1938
  983MOL0     H29750   5.799   7.421  11.263 -1.6091  0.6607  0.1866
  983MOL0     H29751   5.934   7.493  11.194 -1.6307 -1.0952 -0.0480
  983MOL0     H29752   6.043   7.532  11.426  1.2593 -1.3022 -1.5396
  983MOL0     H29753   5.906   7.634  11.392 -1.0912 -0.9767  0.3769
  983MOL0     H29754   5.716   7.415  11.684  1.3432  1.1370  1.3467
  983MOL0     H29755   6.232   7.245  11.204  1.8158 -1.2565 -0.3593
  983MOL0     H29756   6.449   7.308  11.161  1.7459  1.2630 -1.9051
  984MOL0     O29757   4.888   9.986  10.301 -0.5482  0.2549  0.3170
  984MOL0     C29758   4.872  10.098  10.247 -0.8518  0.1699  0.0847
  984MOL0     O29759   4.754  10.147  10.197 -0.3220  0.9543  0.0138
  984MOL0     C29760   4.653  10.053  10.172 -0.1204  0.8006 -0.0487
  984MOL0     C29761   4.590   9.974  10.269 -0.9968 -0.3367 -1.1069
  984MOL0     C29762   4.481   9.885  10.250 -0.4101 -0.4571  0.5613
  984MOL0     C29763   4.433   9.868  10.118  0.0030 -0.7271  1.0388
  984MOL0     O29764   4.348   9.765  10.077  0.4590 -0.4437 -0.4406
  984MOL0     C29765   4.244   9.722  10.165  0.4262  0.8263 -0.5946
  984MOL0     C29766   4.155   9.614  10.106  0.1279  1.1399  0.2421
  984MOL0     C29767   4.238   9.490  10.075  0.1834  0.1934  1.2208
  984MOL0     C29768   4.161   9.397   9.979  0.3863 -0.5041 -0.1512
  984MOL0     C29769   4.263   9.321   9.886 -0.4584 -0.4083  0.3439
  984MOL0     C29770   4.192   9.214   9.799  0.4933  0.0633 -0.2484
  984MOL0     C29771   4.077   9.246   9.704  0.3479  0.1819  0.5094
  984MOL0     C29772   4.100   9.371   9.615  0.4065  0.0587 -1.5215
  984MOL0     N29773   4.204   9.360   9.514  0.0304 -0.7661 -0.2337
  984MOL0     C29774   4.176   9.323   9.386 -0.4289  0.2981  0.0258
  984MOL0     C29775   4.292   9.323   9.320 -0.1861  0.0694  0.7224
  984MOL0     C29776   4.322   9.269   9.181  1.2944 -0.4701 -0.9648
  984MOL0     C29777   4.311   9.392   9.088 -0.1128  0.1788  0.5766
  984MOL0     C29778   4.303   9.356   8.937 -0.6941 -0.6565 -0.0142
  984MOL0     C29779   4.433   9.280   8.889 -0.0095 -0.0388 -0.0633
  984MOL0     O29780   4.437   9.316   8.748 -0.3306  0.3952  0.4470
  984MOL0     C29781   4.514   9.245   8.661  0.6928  0.3008  0.1031
  984MOL0     C29782   4.622   9.160   8.688  0.3923 -0.4094 -0.4014
  984MOL0     C29783   4.714   9.116   8.596  0.1285 -0.0816 -0.2494
  984MOL0     C29784   4.685   9.149   8.463  1.2021 -0.7810  0.0794
  984MOL0     C29785   4.779   9.120   8.349  0.7209 -0.4564  0.7599
  984MOL0     O29786   4.750   9.145   8.222 -0.2370  0.4479  0.7197
  984MOL0     C29787   4.828   9.105   8.114 -0.3374  0.4729  0.3888
  984MOL0     C29788   4.882   9.197   8.020 -0.6585 -0.0369 -0.6455
  984MOL0     C29789   4.960   9.160   7.914 -0.1742 -0.0650  0.3074
  984MOL0     C29790   4.987   9.026   7.887 -1.4226  0.3745 -0.7278
  984MOL0     O29791   5.074   9.007   7.782  0.3868 -0.0801 -0.2509
  984MOL0     C29792   5.041   8.891   7.695  1.3625 -0.7010  0.2854
  984MOL0     C29793   4.971   8.937   7.562 -0.2255 -0.7333 -0.6043
  984MOL0     C29794   4.834   9.015   7.581  0.1013  0.1080 -0.1986
  984MOL0     C29795   4.716   8.914   7.580 -0.1553 -0.2391  0.7378
  984MOL0     C29796   4.608   8.932   7.692 -1.4106  0.3263 -0.2246
  984MOL0     C29797   4.548   9.072   7.711 -0.7387 -0.6676 -0.5288
  984MOL0     C29798   4.434   9.081   7.822 -0.6697 -0.7405  0.0166
  984MOL0     C29799   4.486   9.014   7.948 -0.5199 -0.2490 -0.2574
  984MOL0    Cl29800   4.410   9.067   8.099 -0.0458 -0.1313  0.2011
  984MOL0     C29801   4.929   8.937   7.962 -0.0668  0.1215  0.7547
  984MOL0     C29802   4.854   8.970   8.075  0.3663  0.7547  0.1496
  984MOL0     O29803   4.886   9.069   8.379  0.1758  0.1270 -0.1955
  984MOL0     C29804   4.562   9.215   8.436 -0.1890  0.0750 -1.0202
  984MOL0     C29805   4.477   9.267   8.532 -0.5329 -0.0296 -0.6803
  984MOL0     N29806   4.379   9.387   9.402  0.1544  0.1259  0.2919
  984MOL0     N29807   4.326   9.412   9.516 -0.2498  0.8146  0.0460
  984MOL0     C29808   4.487   9.955  10.022  0.7793 -0.8130  0.2450
  984MOL0     C29809   4.590  10.048  10.047  0.2578 -0.2080  0.2843
  984MOL0     C29810   4.989  10.193  10.272  1.1607  0.0741 -0.9299
  984MOL0     C29811   4.984  10.330  10.232  0.1547 -0.7817 -0.1759
  984MOL0     C29812   5.094  10.414  10.248 -0.0642 -0.4898 -0.0607
  984MOL0     C29813   5.201  10.376  10.326 -0.4540  0.1191 -0.7968
  984MOL0     O29814   5.286  10.473  10.379 -0.6094  0.0385  0.3212
  984MOL0     C29815   5.404  10.441  10.449  0.2722  0.7515  0.3256
  984MOL0     C29816   5.507  10.386  10.348 -0.2485  0.0677  0.6224
  984MOL0     C29817   5.624  10.483  10.328  0.5589 -0.1528  0.2240
  984MOL0     C29818   5.605  10.600  10.228  0.5478 -0.7378 -0.0602
  984MOL0     C29819   5.741  10.650  10.197 -0.2752 -0.3439  0.0021
  984MOL0     C29820   5.859  10.689  10.186 -0.1389 -0.0410 -0.2023
  984MOL0     C29821   5.202  10.236  10.368 -0.0419 -0.0682  0.2017
  984MOL0     C29822   5.102  10.148  10.339 -0.5336  0.4362  0.4305
  984MOL0     H29823   4.630  10.004  10.365  1.8743  0.0450 -2.3177
  984MOL0     H29824   4.442   9.828  10.333 -3.5563 -0.8634 -1.0416
  984MOL0     H29825   4.185   9.812  10.185 -2.4663 -1.0559 -0.0412
  984MOL0     H29826   4.290   9.688  10.258  0.5540  0.1828 -0.8900
  984MOL0     H29827   4.117   9.639  10.007  1.4624  0.4465 -0.4665
  984MOL0     H29828   4.062   9.610  10.163 -0.8867  0.6042 -1.3915
  984MOL0     H29829   4.255   9.446  10.173  1.6970 -0.7538  0.5698
  984MOL0     H29830   4.336   9.511  10.030  0.3506 -0.6970  1.1614
  984MOL0     H29831   4.091   9.322  10.018 -1.1690  0.3845 -1.1008
  984MOL0     H29832   4.097   9.448   9.906 -2.7606 -3.4324  0.2887
  984MOL0     H29833   4.339   9.281   9.954  0.3075 -1.2544 -0.9753
  984MOL0     H29834   4.311   9.378   9.807 -2.1080  1.1743  0.4016
  984MOL0     H29835   4.159   9.134   9.866  0.0193 -0.9890 -1.6933
  984MOL0     H29836   4.261   9.170   9.726 -1.8783 -3.1983 -0.7609
  984MOL0     H29837   4.064   9.155   9.644 -0.5514  0.8805 -0.3937
  984MOL0     H29838   3.984   9.240   9.762  0.1564 -1.2278  0.1178
  984MOL0     H29839   4.120   9.465   9.667  4.4859 -0.7117 -1.3649
  984MOL0     H29840   4.002   9.376   9.567 -0.8444  0.5657  0.8788
  984MOL0     H29841   4.082   9.279   9.355 -0.7203 -0.0749  1.3920
  984MOL0     H29842   4.254   9.193   9.142  1.6329 -0.4636 -1.5932
  984MOL0     H29843   4.425   9.233   9.179  1.6889  0.6169 -1.9502
  984MOL0     H29844   4.400   9.454   9.097 -0.4750  0.7318  0.4264
  984MOL0     H29845   4.225   9.457   9.107 -1.5380 -0.1589 -3.7100
  984MOL0     H29846   4.215   9.293   8.923 -0.2961 -1.1874 -0.1473
  984MOL0     H29847   4.298   9.446   8.875 -0.1948  0.2194  1.1683
  984MOL0     H29848   4.429   9.172   8.903  2.2273  0.1188  2.7113
  984MOL0     H29849   4.518   9.320   8.944  0.8868 -1.5946 -0.2644
  984MOL0     H29850   4.653   9.134   8.789 -0.0768  0.4112 -0.0317
  984MOL0     H29851   4.812   9.079   8.625 -1.2645 -1.4450  3.2461
  984MOL0     H29852   4.869   9.301   8.046 -0.4852 -0.4270  1.1410
  984MOL0     H29853   5.001   9.234   7.846  1.3144  1.4907  2.7230
  984MOL0     H29854   4.980   8.816   7.745  2.3670 -2.5919 -1.2094
  984MOL0     H29855   5.136   8.843   7.673  2.3202  0.4575  1.7095
  984MOL0     H29856   4.944   8.853   7.496 -2.9429 -0.5783  0.1906
  984MOL0     H29857   5.047   9.002   7.517 -0.9732  1.3036  0.9452
  984MOL0     H29858   4.824   9.069   7.486 -0.9631 -2.1217 -1.4319
  984MOL0     H29859   4.824   9.085   7.664  0.2756 -0.9621  0.7395
  984MOL0     H29860   4.654   8.930   7.491 -2.5026  0.5769  2.4020
  984MOL0     H29861   4.747   8.809   7.580 -1.0193 -0.5339 -1.2110
  984MOL0     H29862   4.678   8.914   7.774  1.7146  1.4541 -2.4424
  984MOL0     H29863   4.539   8.852   7.665 -0.1532  0.4316 -4.3991
  984MOL0     H29864   4.516   9.122   7.620 -1.8867 -2.5022 -1.1812
  984MOL0     H29865   4.634   9.132   7.744 -2.7856  0.5136  3.3343
  984MOL0     H29866   4.425   9.189   7.839 -1.0854 -0.3197 -2.5214
  984MOL0     H29867   4.339   9.037   7.791 -1.2261  0.0397  0.5764
  984MOL0     H29868   4.595   9.022   7.956 -0.6033 -1.1693  3.1617
  984MOL0     H29869   4.475   8.906   7.942 -0.5673 -0.2196 -0.8029
  984MOL0     H29870   4.950   8.835   7.932  0.5660  0.6629 -0.7216
  984MOL0     H29871   4.803   8.896   8.136  0.6332  1.2662  1.0042
  984MOL0     H29872   4.532   9.221   8.331 -0.8721 -2.7837 -1.0721
  984MOL0     H29873   4.387   9.320   8.504 -0.6176 -0.0896 -0.5274
  984MOL0     H29874   4.446   9.950   9.922 -1.5178  0.1172  1.0842
  984MOL0     H29875   4.625  10.112   9.967 -5.0406  2.3892 -0.3983
  984MOL0     H29876   4.893  10.369  10.187  1.5486  1.9260 -0.8384
  984MOL0     H29877   5.093  10.521  10.234  1.7391 -0.6631 -2.1323
  984MOL0     H29878   5.396  10.363  10.525  0.7024 -0.2197 -0.5904
  984MOL0     H29879   5.445  10.532  10.494  0.1565  0.3207  1.3033
  984MOL0     H29880   5.546  10.288  10.374  0.1816  0.2365  0.6219
  984MOL0     H29881   5.458  10.371  10.251  2.0169  0.2197 -0.6329
  984MOL0     H29882   5.700  10.413  10.293  0.8633  0.9368 -1.3746
  984MOL0     H29883   5.655  10.523  10.425  0.8817 -0.9844  0.4758
  984MOL0     H29884   5.545  10.574  10.140  1.3159 -1.6597 -0.3380
  984MOL0     H29885   5.550  10.678  10.281 -0.1971 -1.3177  0.0494
  984MOL0     H29886   5.958  10.719  10.159  0.4946 -1.7694  0.0544
  984MOL0     H29887   5.272  10.182  10.431 -1.8179 -2.3004  0.3775
  984MOL0     H29888   5.112  10.047  10.376 -0.2681  1.2548  2.8436
  985MOL0     O29889   8.390   6.855   0.704 -0.5916 -0.1432  0.4516
  985MOL0     C29890   8.443   6.950   0.643  0.2190  0.0422  0.1008
  985MOL0     O29891   8.578   6.975   0.639 -0.2472 -0.2667 -0.6231
  985MOL0     C29892   8.653   6.874   0.696 -0.2272  0.8022  0.5755
  985MOL0     C29893   8.671   6.869   0.834 -0.0995 -0.8327  0.2158
  985MOL0     C29894   8.761   6.786   0.891  0.0542 -0.2587 -0.0230
  985MOL0     C29895   8.849   6.715   0.807 -0.1293  0.1119 -0.8923
  985MOL0     O29896   8.942   6.625   0.842  0.5305  0.0880  0.1148
  985MOL0     C29897   8.983   6.606   0.977 -0.6812 -0.4526 -0.5698
  985MOL0     C29898   9.111   6.524   0.968 -0.6416  0.2650  0.2952
  985MOL0     C29899   9.231   6.609   0.938 -0.9340 -0.6929  0.1037
  985MOL0     C29900   9.365   6.530   0.940 -0.1321 -1.0397  0.1738
  985MOL0     C29901   9.483   6.603   0.885 -0.0772  0.7493  0.2736
  985MOL0     C29902   9.580   6.664   0.990 -0.3858 -0.2506  0.0573
  985MOL0     C29903   9.684   6.757   0.930 -0.5303 -0.5369  1.2888
  985MOL0     C29904   9.793   6.797   1.035  0.2544 -0.3483  0.3730
  985MOL0     N29905   9.914   6.712   1.020 -0.9493  0.0002 -0.0765
  985MOL0     C29906   9.998   6.705   0.911  0.2637  0.2383 -0.8068
  985MOL0     C29907  10.111   6.631   0.946  0.2944 -0.9550 -0.0154
  985MOL0     C29908  10.232   6.585   0.867  0.1250 -0.3351 -0.3981
  985MOL0     C29909  10.315   6.713   0.845 -0.2113 -0.8707  1.7712
  985MOL0     C29910  10.387   6.758   0.972 -0.1066  0.2750  0.1261
  985MOL0     C29911  10.499   6.867   0.936  0.5136  0.2669  0.4487
  985MOL0     O29912  10.600   6.801   0.866 -0.6100  0.5305  0.9444
  985MOL0     C29913  10.692   6.871   0.790 -0.0306  0.7674 -0.7650
  985MOL0     C29914  10.720   7.008   0.802  0.1998 -0.1183 -0.8151
  985MOL0     C29915  10.826   7.058   0.717 -0.3174 -0.2740  0.0771
  985MOL0     C29916  10.902   6.969   0.628 -0.0078  0.1872 -0.0727
  985MOL0     C29917  11.027   7.024   0.558  0.2674 -0.0062  0.6419
  985MOL0     O29918  11.032   7.048   0.421  0.5738  0.2872 -0.0236
  985MOL0     C29919  11.151   7.079   0.361  0.3079 -0.8759 -0.4644
  985MOL0     C29920  11.202   6.996   0.267 -0.2639 -0.6252 -0.1291
  985MOL0     C29921  11.334   7.006   0.213  0.5094  0.2135  0.0649
  985MOL0     C29922  11.400   7.120   0.239 -0.0220 -0.3254 -0.0982
  985MOL0     O29923  11.520   7.135   0.171  0.0563 -0.3766 -0.2396
  985MOL0     C29924  11.613   7.238   0.205  0.1872 -0.1135  0.2224
  985MOL0     C29925  11.676   7.237   0.345  0.6611 -0.6792  0.4718
  985MOL0     C29926  11.772   7.352   0.355 -0.2009  0.0463  0.1789
  985MOL0     C29927  11.896   7.350   0.254  0.4816 -0.4213 -0.0614
  985MOL0     C29928  12.021   7.423   0.319  0.2705  0.2547  0.1836
  985MOL0     C29929  12.011   7.570   0.324 -0.1538  0.0741 -0.2086
  985MOL0     C29930  12.011   7.650   0.193 -0.2999  1.2929  1.5690
  985MOL0     C29931  12.125   7.604   0.096  0.6795  1.2290  0.2868
  985MOL0    Cl29932  12.170   7.734  -0.017  0.3578  0.0271  0.1805
  985MOL0     C29933  11.353   7.217   0.328  0.4297 -0.0046  0.2935
  985MOL0     C29934  11.228   7.193   0.399  0.4504  0.4537 -0.3921
  985MOL0     O29935  11.128   7.029   0.636 -0.0439  0.5056  0.0049
  985MOL0     C29936  10.871   6.833   0.636 -0.8424 -0.5466 -0.6398
  985MOL0     C29937  10.771   6.790   0.707 -0.2099  0.0898 -0.0983
  985MOL0     N29938  10.086   6.597   1.080  0.2867  0.2863 -0.5561
  985MOL0     N29939   9.971   6.643   1.117  1.0591  0.7196 -0.4379
  985MOL0     C29940   8.844   6.722   0.673  0.1550  0.9565  0.0753
  985MOL0     C29941   8.745   6.800   0.617 -0.9874  0.0572  0.2883
  985MOL0     C29942   8.371   7.049   0.558 -0.9230 -0.6664 -0.0580
  985MOL0     C29943   8.447   7.155   0.494 -0.5937 -0.0267  0.2886
  985MOL0     C29944   8.384   7.221   0.390  1.0848  0.3659  0.1947
  985MOL0     C29945   8.246   7.203   0.363  0.7196 -0.0579  0.8587
  985MOL0     O29946   8.210   7.289   0.255 -0.1134 -0.8357 -0.2083
  985MOL0     C29947   8.074   7.307   0.219 -0.6049 -0.3607 -0.3353
  985MOL0     C29948   8.011   7.421   0.301  0.9589  0.9173 -0.3997
  985MOL0     C29949   7.862   7.448   0.258  0.3572  0.1635  0.0423
  985MOL0     C29950   7.807   7.578   0.301  0.0764 -0.5245  0.5780
  985MOL0     C29951   7.866   7.695   0.232  0.2636 -0.3477 -0.1834
  985MOL0     C29952   7.932   7.799   0.201  0.1426  0.1580  0.7022
  985MOL0     C29953   8.168   7.123   0.448 -0.0386 -0.5955 -0.2275
  985MOL0     C29954   8.234   7.045   0.544  0.6633  0.5208 -0.5568
  985MOL0     H29955   8.600   6.933   0.886 -0.0528  0.3695 -1.1172
  985MOL0     H29956   8.777   6.820   0.993 -0.7981 -0.9234  0.3459
  985MOL0     H29957   8.909   6.555   1.039 -0.0667  2.2514  2.7390
  985MOL0     H29958   8.984   6.699   1.035 -0.1253 -0.0864 -1.1598
  985MOL0     H29959   9.095   6.439   0.902 -1.4642  1.0827 -0.5932
  985MOL0     H29960   9.121   6.494   1.072 -2.4464 -0.3000  0.3350
  985MOL0     H29961   9.239   6.679   1.022 -0.3286  1.7244 -1.8655
  985MOL0     H29962   9.220   6.668   0.847  0.6862  3.8571  2.5206
  985MOL0     H29963   9.393   6.501   1.041  1.0570  3.9220  1.5113
  985MOL0     H29964   9.350   6.450   0.867 -0.7934 -1.4185  0.7195
  985MOL0     H29965   9.453   6.671   0.805  1.6120 -1.1028 -2.0700
  985MOL0     H29966   9.551   6.546   0.822  2.2947  3.6938 -0.0705
  985MOL0     H29967   9.626   6.582   1.045 -2.3126 -0.9335  0.7256
  985MOL0     H29968   9.518   6.725   1.056  0.1811  0.9969 -0.5251
  985MOL0     H29969   9.731   6.697   0.851  3.2771  2.4261  1.0455
  985MOL0     H29970   9.632   6.847   0.899 -0.0872 -0.1365  1.6902
  985MOL0     H29971   9.756   6.803   1.138  0.9043 -1.5387  0.6925
  985MOL0     H29972   9.809   6.903   1.013 -2.5100 -0.4529 -2.8019
  985MOL0     H29973   9.985   6.757   0.817 -0.6691  4.1760  1.2665
  985MOL0     H29974  10.191   6.557   0.770  0.7360 -2.2313 -0.1386
  985MOL0     H29975  10.287   6.500   0.907  0.6108 -2.0102 -4.2261
  985MOL0     H29976  10.248   6.791   0.809  2.3971  0.6189 -0.1622
  985MOL0     H29977  10.383   6.698   0.761 -1.2496  1.5132  0.4161
  985MOL0     H29978  10.315   6.806   1.038 -0.1190 -1.9542  1.8560
  985MOL0     H29979  10.434   6.675   1.026 -0.8072 -1.3069 -1.5886
  985MOL0     H29980  10.538   6.917   1.025  0.2534  2.2718 -0.5060
  985MOL0     H29981  10.449   6.948   0.880  0.8303  0.7900  0.9115
  985MOL0     H29982  10.686   7.065   0.887  1.3141 -2.2235  1.1645
  985MOL0     H29983  10.844   7.165   0.712 -2.4184  0.1422  0.6037
  985MOL0     H29984  11.148   6.908   0.234 -1.1613  1.2047 -4.0807
  985MOL0     H29985  11.363   6.956   0.121  1.0693  0.4425  0.1133
  985MOL0     H29986  11.564   7.334   0.186 -1.8676 -0.3680  3.5097
  985MOL0     H29987  11.698   7.239   0.135 -0.5612 -0.0054 -0.7067
  985MOL0     H29988  11.728   7.141   0.351  0.7680 -0.7138 -0.6607
  985MOL0     H29989  11.602   7.239   0.426 -1.2005 -0.9256 -1.1308
  985MOL0     H29990  11.822   7.339   0.452 -2.9485 -1.5575  1.5225
  985MOL0     H29991  11.720   7.446   0.373 -2.2160 -1.3312  2.1198
  985MOL0     H29992  11.933   7.248   0.236  0.8572 -0.1923 -0.6478
  985MOL0     H29993  11.856   7.381   0.157 -0.1711  0.4927  0.4952
  985MOL0     H29994  12.107   7.403   0.255 -0.0546 -1.2211  0.1730
  985MOL0     H29995  12.057   7.393   0.418  1.3849 -0.7138 -0.4893
  985MOL0     H29996  12.098   7.603   0.382 -0.2434 -0.3078  0.1502
  985MOL0     H29997  11.918   7.593   0.377  0.8409  1.8703  0.8433
  985MOL0     H29998  11.918   7.626   0.141  0.8754  0.8665 -0.4445
  985MOL0     H29999  12.016   7.755   0.220  0.1157  1.2668  1.5968
  985MOL0     H30000  12.088   7.516   0.043  1.6224  1.2362 -0.4079
  985MOL0     H30001  12.211   7.561   0.148  1.0701  0.2085 -1.1329
  985MOL0     H30002  11.395   7.317   0.330 -4.8094  2.6329  4.0239
  985MOL0     H30003  11.198   7.270   0.470  2.3469  0.2204  0.7304
  985MOL0     H30004  10.952   6.774   0.595  2.2087  1.8679  1.4560
  985MOL0     H30005  10.764   6.682   0.711 -1.0221  0.1266 -0.4104
  985MOL0     H30006   8.917   6.671   0.612  1.4404  0.6951  1.7620
  985MOL0     H30007   8.740   6.817   0.509 -1.5126 -1.9292 -0.0281
  985MOL0     H30008   8.552   7.178   0.508 -0.5150  0.1855 -0.5660
  985MOL0     H30009   8.447   7.287   0.331  0.4880  1.8100  1.0928
  985MOL0     H30010   8.020   7.214   0.241 -1.8233  0.8772  2.3929
  985MOL0     H30011   8.080   7.332   0.113  0.8098  0.0488 -0.1743
  985MOL0     H30012   8.013   7.393   0.407 -0.8814  2.8483  0.2099
  985MOL0     H30013   8.073   7.511   0.295 -0.0339  1.6763  0.4202
  985MOL0     H30014   7.801   7.370   0.303 -0.4007  0.4230 -0.5055
  985MOL0     H30015   7.854   7.448   0.148 -1.1551 -0.7096  0.1241
  985MOL0     H30016   7.699   7.581   0.283 -0.0980  0.7350  1.6626
  985MOL0     H30017   7.813   7.577   0.411  0.8747 -1.9010  0.5607
  985MOL0     H30018   7.994   7.886   0.191 -1.5119  1.6862  2.8106
  985MOL0     H30019   8.060   7.119   0.433  0.1984 -1.1547 -2.0799
  985MOL0     H30020   8.174   6.982   0.609 -1.6748  3.2984  0.1976
  986MOL0     O30021   6.454  10.262   0.155 -0.0477  0.1050  0.3026
  986MOL0     C30022   6.433  10.163   0.210 -0.0532 -0.9561 -1.2556
  986MOL0     O30023   6.534  10.089   0.267 -0.6317 -0.2267  0.2287
  986MOL0     C30024   6.663  10.140   0.256  0.6624  0.0536 -0.3165
  986MOL0     C30025   6.702  10.254   0.302 -0.5689 -0.2910  0.5806
  986MOL0     C30026   6.826  10.305   0.269  0.1394  0.9201 -0.1480
  986MOL0     C30027   6.903  10.238   0.184 -0.0561 -0.0852 -0.4473
  986MOL0     O30028   7.028  10.277   0.143  0.4243  0.0154  0.4656
  986MOL0     C30029   7.034  10.407   0.090  1.4908 -0.7369  0.9455
  986MOL0     C30030   7.174  10.424   0.025  0.2076 -0.0852  0.3394
  986MOL0     C30031   7.194  10.328  -0.087 -0.6213  0.1459 -0.1841
  986MOL0     C30032   7.313  10.366  -0.171  0.6613 -0.8031 -0.7728
  986MOL0     C30033   7.326  10.261  -0.281  0.5159 -1.2613 -0.4956
  986MOL0     C30034   7.469  10.254  -0.341 -0.7852 -0.4378 -0.1153
  986MOL0     C30035   7.524  10.378  -0.408  0.0727  1.0479  0.0004
  986MOL0     C30036   7.665  10.370  -0.458 -0.1750 -0.4390  0.7051
  986MOL0     N30037   7.704  10.478  -0.554 -0.3106 -0.2666  0.5275
  986MOL0     C30038   7.727  10.605  -0.519 -0.6034 -0.0862 -0.5021
  986MOL0     C30039   7.786  10.655  -0.623 -0.6973 -0.9119 -0.9346
  986MOL0     C30040   7.827  10.803  -0.625  0.1370 -0.6466 -0.4336
  986MOL0     C30041   7.950  10.832  -0.714  0.7291  0.1110  0.2424
  986MOL0     C30042   8.043  10.939  -0.661 -0.1292  0.4702  0.8449
  986MOL0     C30043   8.148  10.981  -0.756  0.7368 -0.1578  0.4575
  986MOL0     O30044   8.256  11.031  -0.674 -0.5814  0.0588  0.4548
  986MOL0     C30045   8.373  11.049  -0.743 -0.6337 -0.0519  0.9729
  986MOL0     C30046   8.495  11.047  -0.682 -0.3708  0.3894 -0.3614
  986MOL0     C30047   8.622  11.065  -0.744 -0.0779  0.4750 -1.2077
  986MOL0     C30048   8.634  11.081  -0.882  0.2061 -0.1733  0.4695
  986MOL0     C30049   8.760  11.089  -0.948 -0.4925  1.2286  0.0852
  986MOL0     O30050   8.764  11.115  -1.080 -0.4333  0.8525 -0.0277
  986MOL0     C30051   8.890  11.125  -1.150  0.3246  0.1622  0.0121
  986MOL0     C30052   8.928  11.038  -1.251  0.3230 -0.0362  0.6238
  986MOL0     C30053   9.040  11.065  -1.324  0.0796 -0.4328  0.5415
  986MOL0     C30054   9.116  11.182  -1.294 -0.1183 -0.3825 -0.5414
  986MOL0     O30055   9.231  11.200  -1.360 -0.5227  0.3547 -0.1162
  986MOL0     C30056   9.337  11.100  -1.322  0.3724  0.2633  0.5290
  986MOL0     C30057   9.371  11.090  -1.171 -0.4092 -0.4829  0.1487
  986MOL0     C30058   9.472  10.980  -1.147 -0.8177  0.5455  0.0284
  986MOL0     C30059   9.502  10.967  -0.998  0.7821 -0.1314  0.5814
  986MOL0     C30060   9.623  10.867  -0.980  0.3398 -0.0785 -0.1809
  986MOL0     C30061   9.636  10.799  -0.849  0.6955 -0.0746 -0.3193
  986MOL0     C30062   9.638  10.650  -0.872 -0.2368 -0.1432 -0.5448
  986MOL0     C30063   9.621  10.565  -0.748  0.5127  0.3073 -0.5028
  986MOL0    Cl30064   9.735  10.628  -0.627 -0.4342  0.5945 -0.1280
  986MOL0     C30065   9.085  11.263  -1.176  0.8291 -0.6122 -0.1249
  986MOL0     C30066   8.980  11.224  -1.100  0.8229  0.2598  0.0686
  986MOL0     O30067   8.850  11.041  -0.877 -0.2995  0.6629  0.2268
  986MOL0     C30068   8.515  11.068  -0.952 -0.4473 -0.3538  0.9887
  986MOL0     C30069   8.393  11.066  -0.890 -0.1431 -1.4673 -0.3091
  986MOL0     N30070   7.789  10.564  -0.728 -0.2181  0.2080 -0.4254
  986MOL0     N30071   7.754  10.453  -0.679  0.0557  0.3725 -0.0395
  986MOL0     C30072   6.869  10.119   0.136 -0.1349  0.6288 -0.0268
  986MOL0     C30073   6.746  10.071   0.170 -0.5765 -1.3019 -0.2187
  986MOL0     C30074   6.294  10.128   0.227  0.0962  0.1350 -1.0046
  986MOL0     C30075   6.256  10.011   0.296 -0.5301 -0.2750  0.4295
  986MOL0     C30076   6.118   9.990   0.313 -0.2885  0.1805  0.1913
  986MOL0     C30077   6.021  10.088   0.269  0.0217  0.2008  0.1288
  986MOL0     O30078   5.879  10.056   0.276 -0.4449  0.0305 -0.0283
  986MOL0     C30079   5.793  10.095   0.163 -0.5162  0.3507 -0.9089
  986MOL0     C30080   5.667   9.996   0.155 -0.7128 -0.3394 -0.2965
  986MOL0     C30081   5.691   9.891   0.044  0.3323 -0.0959  0.2286
  986MOL0     C30082   5.603   9.763   0.065  0.6949  0.6442 -0.1881
  986MOL0     C30083   5.606   9.663  -0.051  0.5208 -0.0835  0.1220
  986MOL0     C30084   5.608   9.594  -0.150  0.8476  0.1011  0.0677
  986MOL0     C30085   6.061  10.202   0.206 -0.2554 -0.1813 -0.3588
  986MOL0     C30086   6.196  10.229   0.182  0.4735  0.5494  0.5581
  986MOL0     H30087   6.634  10.306   0.370  0.8286  1.3882  0.7533
  986MOL0     H30088   6.873  10.391   0.316 -0.4281  0.3234  1.5736
  986MOL0     H30089   7.014  10.488   0.161 -2.0666  2.6808 -3.3398
  986MOL0     H30090   6.963  10.421   0.008  2.0253  0.2533  0.6353
  986MOL0     H30091   7.262  10.421   0.090  1.2116 -0.7984 -1.0190
  986MOL0     H30092   7.167  10.520  -0.027  1.0585 -1.8957 -3.4633
  986MOL0     H30093   7.098  10.329  -0.140 -1.1768  3.1201  0.6870
  986MOL0     H30094   7.201  10.227  -0.044 -0.5334  0.7197  1.1975
  986MOL0     H30095   7.300  10.464  -0.218  3.0399 -0.5201 -0.9562
  986MOL0     H30096   7.406  10.373  -0.113  0.9549  0.1710 -1.3312
  986MOL0     H30097   7.260  10.287  -0.365  0.9354 -1.4526 -0.8890
  986MOL0     H30098   7.295  10.167  -0.235 -1.3380 -1.0480 -1.2348
  986MOL0     H30099   7.487  10.164  -0.401 -0.5873 -2.0770  2.2351
  986MOL0     H30100   7.530  10.222  -0.256 -2.1198  0.6492  1.3171
  986MOL0     H30101   7.454  10.388  -0.491 -0.2474 -4.7507 -0.7930
  986MOL0     H30102   7.510  10.456  -0.333 -0.6113 -0.9176  2.0008
  986MOL0     H30103   7.683  10.273  -0.505  0.6481  1.8992 -4.4367
  986MOL0     H30104   7.731  10.370  -0.370 -0.7151 -1.4989  1.1415
  986MOL0     H30105   7.714  10.650  -0.421  4.6743 -4.6528  2.8593
  986MOL0     H30106   7.867  10.819  -0.524 -1.1219  0.0846 -0.0293
  986MOL0     H30107   7.732  10.852  -0.645 -0.7326 -2.7686 -1.8496
  986MOL0     H30108   7.902  10.878  -0.801 -1.0515 -0.1263  1.0574
  986MOL0     H30109   7.995  10.738  -0.746  1.6144  1.0454 -1.3730
  986MOL0     H30110   7.977  11.022  -0.633 -1.5720  0.1007 -1.2227
  986MOL0     H30111   8.087  10.890  -0.573 -0.9699 -1.2653  0.3445
  986MOL0     H30112   8.110  11.064  -0.816  2.5758 -0.9988 -2.0867
  986MOL0     H30113   8.179  10.902  -0.826 -1.6322 -1.0950  0.3778
  986MOL0     H30114   8.497  11.025  -0.576  0.1012  1.5977 -0.1082
  986MOL0     H30115   8.705  11.045  -0.677 -2.6947 -2.5837  1.4888
  986MOL0     H30116   8.860  10.956  -1.273 -1.3244  1.6625 -0.9766
  986MOL0     H30117   9.074  10.987  -1.391  1.3188  0.0144  0.6208
  986MOL0     H30118   9.419  11.125  -1.390 -1.3100 -0.2535 -1.8041
  986MOL0     H30119   9.299  11.003  -1.355  1.8055 -0.5857  1.2787
  986MOL0     H30120   9.282  11.075  -1.110 -1.2045 -0.3085 -0.9427
  986MOL0     H30121   9.411  11.190  -1.149 -2.0053  0.4323 -0.8998
  986MOL0     H30122   9.568  10.993  -1.199 -1.1665 -0.2860 -0.8615
  986MOL0     H30123   9.419  10.891  -1.181 -3.3124  2.1938 -0.6361
  986MOL0     H30124   9.540  11.063  -0.962 -0.8906  1.0201 -0.5590
  986MOL0     H30125   9.406  10.942  -0.953  1.2985 -0.9898  1.2172
  986MOL0     H30126   9.711  10.927  -1.005  2.7171 -2.8095  1.0578
  986MOL0     H30127   9.618  10.790  -1.057 -2.6909  0.8735 -1.0663
  986MOL0     H30128   9.549  10.824  -0.787  1.8723  1.8062  0.6614
  986MOL0     H30129   9.724  10.830  -0.793  1.3308  0.1825 -1.4274
  986MOL0     H30130   9.564  10.605  -0.940  0.9428 -1.0397 -1.2734
  986MOL0     H30131   9.726  10.617  -0.928  1.3411 -1.6867  2.6279
  986MOL0     H30132   9.648  10.461  -0.769  0.7583 -0.3440  2.5480
  986MOL0     H30133   9.518  10.570  -0.712  0.4412  1.2257 -0.8345
  986MOL0     H30134   9.156  11.338  -1.144  1.1647 -1.7377  1.9518
  986MOL0     H30135   8.953  11.284  -1.014 -0.3827  1.2511 -0.9492
  986MOL0     H30136   8.526  11.059  -1.060 -0.0346 -1.0207  1.0772
  986MOL0     H30137   8.314  11.052  -0.962  1.8751 -2.9101 -2.3897
  986MOL0     H30138   6.934  10.061   0.070 -2.0076  1.5111 -2.8087
  986MOL0     H30139   6.693   9.985   0.131 -2.4726 -0.5136  0.4844
  986MOL0     H30140   6.319   9.925   0.318 -1.9085 -1.3291  0.4207
  986MOL0     H30141   6.087   9.890   0.342  5.0991 -1.8059  0.4341
  986MOL0     H30142   5.844  10.096   0.067 -1.8789 -0.6468 -1.6718
  986MOL0     H30143   5.738  10.188   0.178  0.7704  0.6938  2.8211
  986MOL0     H30144   5.649   9.963   0.257 -1.7300 -0.1208 -0.3930
  986MOL0     H30145   5.591  10.070   0.129  0.6256  1.4588  0.6930
  986MOL0     H30146   5.797   9.875   0.066 -0.4847 -1.3452  4.1170
  986MOL0     H30147   5.678   9.935  -0.055  2.9404  0.1706 -0.0816
  986MOL0     H30148   5.642   9.708   0.151  0.3209 -0.2483 -0.5747
  986MOL0     H30149   5.497   9.784   0.085  1.0169 -0.4317  3.4527
  986MOL0     H30150   5.623   9.533  -0.236  2.3009  1.3552 -0.6167
  986MOL0     H30151   5.988  10.276   0.174  1.0851  1.5216  0.3406
  986MOL0     H30152   6.227  10.323   0.138  0.2539  1.0197  1.3808
  987MOL0     O30153   8.360   7.613   5.040 -0.5549  1.0904 -0.6828
  987MOL0     C30154   8.336   7.494   5.028  0.3677 -0.4377 -0.1359
  987MOL0     O30155   8.214   7.438   5.019  0.0019 -0.5600 -0.0585
  987MOL0     C30156   8.108   7.522   4.997 -0.2482  0.4160  1.0607
  987MOL0     C30157   8.070   7.624   5.076  1.0356 -0.2846 -0.1060
  987MOL0     C30158   7.966   7.706   5.037  0.7394  0.5628 -0.8214
  987MOL0     C30159   7.872   7.674   4.934 -0.1640 -0.1282  0.1455
  987MOL0     O30160   7.752   7.741   4.920  0.1890  0.8688  0.6014
  987MOL0     C30161   7.658   7.720   5.025  0.4129  0.0407 -0.1126
  987MOL0     C30162   7.541   7.818   5.024 -1.5473  0.2817  0.0127
  987MOL0     C30163   7.427   7.773   5.113  0.4439 -0.5062 -0.3716
  987MOL0     C30164   7.301   7.867   5.134  0.0550 -0.1608  0.3152
  987MOL0     C30165   7.217   7.806   5.255 -0.2720  0.3747  0.2756
  987MOL0     C30166   7.085   7.870   5.267  0.6578 -0.3517 -0.0953
  987MOL0     C30167   6.992   7.841   5.145  0.6315 -0.7524 -0.0028
  987MOL0     C30168   6.853   7.901   5.153  0.1754 -0.2422  1.7240
  987MOL0     N30169   6.777   7.874   5.280  0.1837 -0.0568  0.5517
  987MOL0     C30170   6.709   7.754   5.278 -0.0760  0.9417 -0.4168
  987MOL0     C30171   6.690   7.738   5.415  0.2870 -0.0816  0.6855
  987MOL0     C30172   6.640   7.603   5.472  0.3428  0.8090  0.0753
  987MOL0     C30173   6.482   7.603   5.506 -0.6422  0.6188  0.5390
  987MOL0     C30174   6.394   7.613   5.379 -0.0017  1.0182  0.3076
  987MOL0     C30175   6.271   7.692   5.409 -0.5244  0.8500 -0.2465
  987MOL0     O30176   6.164   7.616   5.468  0.8586 -0.0723  0.3668
  987MOL0     C30177   6.041   7.676   5.490  0.2054 -0.1200  0.6198
  987MOL0     C30178   5.960   7.601   5.580  0.2210 -0.2108 -0.0357
  987MOL0     C30179   5.847   7.659   5.637 -0.1554  0.4889 -0.4821
  987MOL0     C30180   5.807   7.792   5.604  1.2043  0.0443  0.0160
  987MOL0     C30181   5.685   7.849   5.654  0.1296 -1.3488 -0.3053
  987MOL0     O30182   5.658   7.977   5.619  0.2265 -0.1729  0.3704
  987MOL0     C30183   5.550   8.048   5.675  0.0747  0.2378 -0.9210
  987MOL0     C30184   5.487   8.146   5.594  0.4927 -0.0169  0.2987
  987MOL0     C30185   5.368   8.206   5.634  0.1823  0.1273 -0.8464
  987MOL0     C30186   5.304   8.174   5.759  0.4953 -0.1147  0.3906
  987MOL0     O30187   5.192   8.242   5.808 -1.0746  0.9433  0.4846
  987MOL0     C30188   5.077   8.267   5.730  0.0179 -0.2797 -0.4625
  987MOL0     C30189   4.959   8.308   5.820  0.6718  0.5573 -0.0523
  987MOL0     C30190   4.993   8.426   5.913 -0.0276 -1.0650  0.3019
  987MOL0     C30191   4.888   8.474   6.005  0.2932  0.4958  0.1703
  987MOL0     C30192   4.921   8.582   6.114  0.3849  0.8764  1.0184
  987MOL0     C30193   5.037   8.550   6.218  0.3551  0.5888 -0.4165
  987MOL0     C30194   5.016   8.404   6.263  0.5218 -0.2291  0.8579
  987MOL0     C30195   4.880   8.392   6.333  0.6241  0.3648 -0.2934
  987MOL0    Cl30196   4.813   8.214   6.312 -0.3962 -0.4970  0.3372
  987MOL0     C30197   5.379   8.084   5.845 -0.5649  1.1806 -0.4240
  987MOL0     C30198   5.497   8.022   5.809  0.8753  0.6635 -0.3770
  987MOL0     O30199   5.603   7.772   5.712  0.3983 -0.4913  0.9144
  987MOL0     C30200   5.887   7.857   5.510  0.5675  0.1144 -0.2289
  987MOL0     C30201   6.004   7.808   5.459  0.8390  0.8175 -0.1917
  987MOL0     N30202   6.725   7.851   5.482  0.2384  0.2236 -0.7737
  987MOL0     N30203   6.780   7.938   5.403  0.9050  0.3965  1.1895
  987MOL0     C30204   7.906   7.563   4.863  0.8105  1.2578 -1.3530
  987MOL0     C30205   8.024   7.483   4.889 -0.3934  0.8559 -0.5804
  987MOL0     C30206   8.446   7.396   5.043  0.4228  0.4263  0.3452
  987MOL0     C30207   8.580   7.439   5.028 -0.9108  1.0695  0.2176
  987MOL0     C30208   8.682   7.347   5.052 -0.5456  0.3823 -0.0947
  987MOL0     C30209   8.661   7.216   5.095  0.4753  0.4361 -0.7960
  987MOL0     O30210   8.756   7.130   5.138  0.5485  0.7090  0.5117
  987MOL0     C30211   8.901   7.159   5.125  0.4572 -0.3952 -0.5115
  987MOL0     C30212   8.978   7.036   5.174 -0.2372 -0.1614  0.3014
  987MOL0     C30213   8.955   6.979   5.314 -0.4302  1.4392  0.7491
  987MOL0     C30214   9.044   6.864   5.358 -0.1029 -0.3100 -0.5447
  987MOL0     C30215   9.185   6.898   5.371  1.2620 -1.3975  0.2176
  987MOL0     C30216   9.289   6.946   5.379 -0.3010  1.1054  0.1911
  987MOL0     C30217   8.532   7.169   5.109 -0.1912  0.1436  0.7698
  987MOL0     C30218   8.425   7.256   5.074  0.3944 -0.0111  0.0325
  987MOL0     H30219   8.135   7.649   5.159  2.8381  0.3012 -1.6190
  987MOL0     H30220   7.925   7.787   5.096 -2.2020  0.5615 -2.6652
  987MOL0     H30221   7.689   7.730   5.129  2.4076 -0.9779 -0.5590
  987MOL0     H30222   7.623   7.621   4.994 -2.7105  1.0581 -0.2261
  987MOL0     H30223   7.508   7.820   4.920  1.9561 -0.3922 -1.2273
  987MOL0     H30224   7.578   7.918   5.052  0.8977 -1.4954  4.1256
  987MOL0     H30225   7.476   7.755   5.209 -0.2021 -1.2687 -0.1754
  987MOL0     H30226   7.390   7.687   5.057 -1.2231  0.4542 -0.8288
  987MOL0     H30227   7.333   7.968   5.162 -0.6655 -0.3777  2.0346
  987MOL0     H30228   7.242   7.881   5.043  0.2825  0.8557  0.3084
  987MOL0     H30229   7.268   7.820   5.351  0.1417 -0.8667  0.2488
  987MOL0     H30230   7.203   7.698   5.246 -1.4959  0.5035  0.4004
  987MOL0     H30231   7.078   7.978   5.286 -1.2375 -0.4230 -0.1985
  987MOL0     H30232   7.045   7.830   5.360  1.9533 -2.5384 -0.4023
  987MOL0     H30233   7.022   7.887   5.050 -1.1367 -1.4273 -0.9292
  987MOL0     H30234   6.979   7.732   5.139 -1.4848 -0.9742  4.6963
  987MOL0     H30235   6.795   7.873   5.064  2.2104  2.0623 -0.5030
  987MOL0     H30236   6.863   8.007   5.126  0.4020 -0.7536 -0.4047
  987MOL0     H30237   6.702   7.681   5.198  1.1351 -0.6947  0.9087
  987MOL0     H30238   6.681   7.581   5.571 -0.9103  1.2845  0.7246
  987MOL0     H30239   6.678   7.520   5.412  0.4647  1.3721 -0.6375
  987MOL0     H30240   6.472   7.692   5.568  1.4915  3.1329 -2.4621
  987MOL0     H30241   6.461   7.519   5.573  0.4743 -0.8082 -0.8383
  987MOL0     H30242   6.446   7.663   5.296 -0.2597 -1.2991 -1.3465
  987MOL0     H30243   6.362   7.517   5.339 -0.1672  1.2380 -0.0901
  987MOL0     H30244   6.230   7.733   5.316 -2.2323 -1.0877 -0.4230
  987MOL0     H30245   6.290   7.778   5.473 -2.8831  5.7522 -5.3076
  987MOL0     H30246   5.981   7.497   5.602 -1.6183 -0.6496 -0.1641
  987MOL0     H30247   5.797   7.597   5.711  0.5461  0.3356 -0.1276
  987MOL0     H30248   5.512   8.170   5.491  2.4860  1.6695  1.0893
  987MOL0     H30249   5.330   8.273   5.557 -0.6493 -2.6041 -2.9745
  987MOL0     H30250   5.051   8.177   5.674 -1.2113  0.1026 -0.5372
  987MOL0     H30251   5.095   8.350   5.662  1.7669 -1.2214 -1.1827
  987MOL0     H30252   4.945   8.215   5.876  1.8374 -0.7469 -1.7708
  987MOL0     H30253   4.862   8.329   5.774  1.7269  3.7210 -1.0799
  987MOL0     H30254   5.016   8.518   5.858  0.2403 -0.4156  1.4645
  987MOL0     H30255   5.083   8.417   5.975 -0.0321 -3.6622  0.0558
  987MOL0     H30256   4.803   8.519   5.952 -2.5135 -0.8285  3.2339
  987MOL0     H30257   4.844   8.386   6.052 -3.1466  0.9282 -1.8570
  987MOL0     H30258   4.826   8.613   6.158  0.3447  4.3103 -1.0855
  987MOL0     H30259   4.962   8.673   6.068  1.8444 -0.1933  0.1303
  987MOL0     H30260   5.020   8.618   6.303  1.0988  0.9314 -0.5340
  987MOL0     H30261   5.139   8.575   6.189 -0.1917  1.3561 -1.7512
  987MOL0     H30262   5.013   8.335   6.177  0.4410 -1.4325  1.7988
  987MOL0     H30263   5.103   8.368   6.317  2.0498  0.3960 -1.0812
  987MOL0     H30264   4.805   8.461   6.292  1.4538 -0.4356 -3.4538
  987MOL0     H30265   4.887   8.417   6.439  0.4028  0.3714 -0.2793
  987MOL0     H30266   5.329   8.067   5.940 -1.1916  3.2271 -0.3501
  987MOL0     H30267   5.550   7.967   5.887 -2.1229  1.0458  2.1395
  987MOL0     H30268   5.861   7.960   5.488 -0.3347  0.1231  0.7881
  987MOL0     H30269   6.075   7.873   5.410 -0.0820  0.0991 -2.6783
  987MOL0     H30270   7.843   7.542   4.776 -3.7048  1.3461  1.5667
  987MOL0     H30271   8.057   7.396   4.833 -3.2942 -1.1189  0.5566
  987MOL0     H30272   8.619   7.535   4.997  1.0000  0.7304  1.3776
  987MOL0     H30273   8.781   7.388   5.068 -0.9686  0.7528  1.8498
  987MOL0     H30274   8.917   7.237   5.201 -6.1436  0.2983  0.8164
  987MOL0     H30275   8.933   7.198   5.028 -0.3048  1.8782  0.0887
  987MOL0     H30276   8.956   6.974   5.087  0.9069  1.1777 -0.9990
  987MOL0     H30277   9.085   7.058   5.165 -0.5899  0.7010 -3.3427
  987MOL0     H30278   8.851   6.947   5.324 -0.4518  0.7505 -1.1752
  987MOL0     H30279   8.957   7.067   5.380  0.6311  2.5100 -0.6378
  987MOL0     H30280   9.013   6.833   5.458  3.1223  0.5658  0.8289
  987MOL0     H30281   9.026   6.779   5.292 -3.2380 -0.9364  0.8998
  987MOL0     H30282   9.388   6.985   5.386  0.5740 -0.0798 -3.4276
  987MOL0     H30283   8.521   7.066   5.143 -0.6996 -0.7851 -1.9516
  987MOL0     H30284   8.327   7.210   5.076 -1.0341  2.2215  6.3024
  988MOL0     O30285  10.036   5.841   5.126 -0.1431 -0.1937 -0.7826
  988MOL0     C30286  10.151   5.799   5.113  0.6843  0.1479 -0.3458
  988MOL0     O30287  10.193   5.711   5.014 -0.6038 -0.2002 -1.2301
  988MOL0     C30288  10.141   5.697   4.891 -0.0216 -0.6340 -0.1436
  988MOL0     C30289  10.132   5.573   4.842 -0.1422 -0.5128 -1.4164
  988MOL0     C30290  10.084   5.550   4.715  0.0788  0.0489 -0.3121
  988MOL0     C30291  10.032   5.659   4.640  0.2301 -0.3326 -1.0838
  988MOL0     O30292   9.968   5.654   4.520  0.3214 -0.3283 -0.5542
  988MOL0     C30293   9.953   5.534   4.454  0.9615 -0.3177 -0.8469
  988MOL0     C30294   9.927   5.546   4.303  0.0466 -0.6944  0.4413
  988MOL0     C30295  10.050   5.583   4.224 -0.7649  0.1484 -0.3472
  988MOL0     C30296  10.032   5.563   4.075 -0.9975 -0.7274 -0.5461
  988MOL0     C30297  10.118   5.666   3.994 -0.3686  0.8690  0.3513
  988MOL0     C30298  10.120   5.651   3.842  0.3578  0.4097  0.0488
  988MOL0     C30299  10.185   5.771   3.782  0.4935  0.1273 -0.9915
  988MOL0     C30300  10.172   5.773   3.622 -0.7846 -0.0939 -0.6337
  988MOL0     N30301  10.267   5.675   3.570  0.0735 -0.2784 -0.4247
  988MOL0     C30302  10.386   5.709   3.516 -0.0420 -0.3099  0.1764
  988MOL0     C30303  10.451   5.596   3.477 -0.4285  0.5591  0.2895
  988MOL0     C30304  10.576   5.585   3.396  0.3407 -0.2642  0.3988
  988MOL0     C30305  10.677   5.478   3.441 -0.0867 -1.0229  0.1156
  988MOL0     C30306  10.752   5.517   3.570  0.3082 -0.5672  0.8436
  988MOL0     C30307  10.864   5.414   3.600 -0.5575  0.1541  0.4463
  988MOL0     O30308  10.985   5.456   3.552 -0.5420 -0.2265  0.3615
  988MOL0     C30309  11.077   5.351   3.543  0.5295  0.0609  0.0236
  988MOL0     C30310  11.170   5.328   3.652  1.0940  1.2323  0.6266
  988MOL0     C30311  11.268   5.229   3.643 -0.1655  0.1927  0.8069
  988MOL0     C30312  11.270   5.152   3.524  0.3488  0.4016  0.1926
  988MOL0     C30313  11.374   5.045   3.499  0.0874 -0.3964 -1.0973
  988MOL0     O30314  11.441   5.006   3.609 -0.0332  0.0910  0.3274
  988MOL0     C30315  11.549   4.917   3.617 -0.1022  0.4781  0.2756
  988MOL0     C30316  11.648   4.942   3.713  0.4785 -0.1746  0.1480
  988MOL0     C30317  11.749   4.848   3.729 -0.7450  0.1415 -0.5844
  988MOL0     C30318  11.766   4.732   3.652 -0.0889  0.5197  0.7854
  988MOL0     O30319  11.878   4.653   3.656  0.1762  0.4607 -0.5957
  988MOL0     C30320  11.950   4.629   3.783  1.4692 -0.1073  0.6698
  988MOL0     C30321  12.098   4.647   3.768 -0.1592  0.2276  0.4119
  988MOL0     C30322  12.164   4.631   3.904  0.1228  0.1654 -0.4194
  988MOL0     C30323  12.144   4.734   4.014 -0.9047 -0.7091 -0.1234
  988MOL0     C30324  12.114   4.671   4.151 -1.0016 -0.1424 -0.7012
  988MOL0     C30325  12.247   4.631   4.212 -0.2134  0.1079 -0.3162
  988MOL0     C30326  12.223   4.536   4.327  0.0027  0.0560 -0.7132
  988MOL0     C30327  12.348   4.492   4.399 -0.3389  0.6083  0.6420
  988MOL0    Cl30328  12.309   4.388   4.546  0.7662  0.3650  0.4164
  988MOL0     C30329  11.667   4.714   3.554 -0.1746 -0.0933  0.0561
  988MOL0     C30330  11.569   4.803   3.538 -0.1976 -0.0589  0.1087
  988MOL0     O30331  11.411   5.009   3.390  0.0972  0.8883 -0.4789
  988MOL0     C30332  11.172   5.171   3.421 -0.2000 -0.4881 -0.9911
  988MOL0     C30333  11.081   5.274   3.434 -0.4140  0.9275  1.5849
  988MOL0     N30334  10.365   5.496   3.511  0.4879  0.4170  0.0635
  988MOL0     N30335  10.261   5.538   3.575  0.4077  0.6287  0.0316
  988MOL0     C30336  10.039   5.788   4.693  0.0596  0.7107  0.3936
  988MOL0     C30337  10.090   5.806   4.819 -0.7975 -0.7376  0.1685
  988MOL0     C30338  10.224   5.816   5.243 -0.4264 -0.8711  0.5586
  988MOL0     C30339  10.355   5.765   5.268  0.6270  0.8647  0.1989
  988MOL0     C30340  10.420   5.780   5.385 -0.3773  0.4037  0.1405
  988MOL0     C30341  10.363   5.841   5.497  0.2549  0.5506 -0.0802
  988MOL0     O30342  10.416   5.841   5.625  0.6714 -0.5405  0.7590
  988MOL0     C30343  10.547   5.794   5.648 -0.2123 -0.5878  0.2492
  988MOL0     C30344  10.573   5.783   5.799 -1.4331  0.0871  0.3438
  988MOL0     C30345  10.629   5.913   5.871 -0.2474  0.1021  1.2759
  988MOL0     C30346  10.527   6.028   5.895 -1.0045  0.2912  0.1050
  988MOL0     C30347  10.422   5.999   5.990 -1.1147  0.6725  0.5172
  988MOL0     C30348  10.343   5.987   6.079 -0.7623 -0.2631 -0.1528
  988MOL0     C30349  10.246   5.905   5.467 -0.6993  0.0050  0.3481
  988MOL0     C30350  10.177   5.896   5.348  0.3281  0.6728 -0.3239
  988MOL0     H30351  10.188   5.506   4.907  0.6769  0.1346 -1.4358
  988MOL0     H30352  10.089   5.451   4.672  1.4086  1.0386 -2.6149
  988MOL0     H30353   9.868   5.485   4.503  3.0949 -2.2931  1.2012
  988MOL0     H30354  10.042   5.473   4.474  1.3437  0.4999  0.0357
  988MOL0     H30355   9.843   5.614   4.289  1.4095  1.2839  1.4330
  988MOL0     H30356   9.902   5.452   4.253  0.2032  0.6531 -2.3967
  988MOL0     H30357  10.137   5.525   4.255 -3.2769 -3.2106  0.9780
  988MOL0     H30358  10.070   5.690   4.231  0.2564 -0.0669  0.2742
  988MOL0     H30359  10.065   5.461   4.055  0.8021 -0.3764  0.3781
  988MOL0     H30360   9.926   5.565   4.048 -1.7711  1.3437  2.1927
  988MOL0     H30361  10.219   5.658   4.037 -0.2992  0.4905  0.1153
  988MOL0     H30362  10.090   5.769   4.019  0.8379  0.9465  1.5214
  988MOL0     H30363  10.021   5.641   3.798  0.4114  0.1296 -0.0105
  988MOL0     H30364  10.174   5.558   3.820 -1.7300 -0.9568  0.4507
  988MOL0     H30365  10.151   5.865   3.825  0.4659 -2.1149  4.6206
  988MOL0     H30366  10.293   5.769   3.799  0.5751 -0.0835 -1.5035
  988MOL0     H30367  10.189   5.871   3.577 -0.0508  1.2780  2.3776
  988MOL0     H30368  10.070   5.741   3.596 -1.1825  1.8249 -1.6116
  988MOL0     H30369  10.420   5.808   3.488  1.1739 -0.8646 -0.4081
  988MOL0     H30370  10.609   5.689   3.393 -1.1494  0.3360  2.5891
  988MOL0     H30371  10.558   5.556   3.292 -0.7095  0.9592  0.2071
  988MOL0     H30372  10.758   5.468   3.369  0.1124 -0.3921  0.2457
  988MOL0     H30373  10.632   5.379   3.432  4.0018 -3.2411  1.5922
  988MOL0     H30374  10.786   5.618   3.549 -0.4173 -0.4253  0.2949
  988MOL0     H30375  10.681   5.520   3.653 -0.4004  0.5923  0.2259
  988MOL0     H30376  10.827   5.316   3.567 -3.2023  0.0407  3.3153
  988MOL0     H30377  10.866   5.400   3.708  2.1727 -0.9416  0.3465
  988MOL0     H30378  11.155   5.398   3.734 -0.6416  2.4379 -0.6479
  988MOL0     H30379  11.340   5.205   3.721  3.6369  0.8719 -2.2271
  988MOL0     H30380  11.634   5.022   3.785 -0.0636  0.9508 -1.1622
  988MOL0     H30381  11.817   4.863   3.812 -0.6883 -0.8750 -0.4318
  988MOL0     H30382  11.912   4.535   3.824 -0.1363  0.2360  0.0178
  988MOL0     H30383  11.923   4.709   3.853  3.6103  0.5417  0.8202
  988MOL0     H30384  12.104   4.749   3.729  0.3565 -1.5345 -4.9864
  988MOL0     H30385  12.121   4.569   3.694  2.3999  2.0964 -0.9303
  988MOL0     H30386  12.273   4.624   3.898  0.4828  1.2890  2.7948
  988MOL0     H30387  12.135   4.530   3.933  1.5543 -0.2721 -0.3880
  988MOL0     H30388  12.225   4.807   4.013 -1.1140 -0.4770 -0.2843
  988MOL0     H30389  12.058   4.793   3.980 -0.1458  1.2044  1.1068
  988MOL0     H30390  12.053   4.580   4.145 -2.8980  1.1303 -4.9047
  988MOL0     H30391  12.066   4.742   4.219 -2.3706  1.4051 -3.1360
  988MOL0     H30392  12.300   4.721   4.245  0.9344 -0.3487 -0.8782
  988MOL0     H30393  12.298   4.575   4.133 -3.7162  2.0077 -4.3549
  988MOL0     H30394  12.141   4.559   4.396  1.6926 -1.6148  2.0379
  988MOL0     H30395  12.187   4.444   4.281 -0.0340 -0.5121  0.4317
  988MOL0     H30396  12.400   4.582   4.433  1.8425 -0.0547 -0.7573
  988MOL0     H30397  12.406   4.440   4.322 -0.3190  0.2637  0.8881
  988MOL0     H30398  11.680   4.640   3.476  0.7021  1.9857 -1.8956
  988MOL0     H30399  11.492   4.773   3.467 -0.0051 -2.2691  0.7529
  988MOL0     H30400  11.175   5.113   3.330  1.8730  1.5045 -2.3168
  988MOL0     H30401  11.006   5.287   3.356 -1.9645  2.4391  3.2585
  988MOL0     H30402   9.997   5.868   4.633 -1.4667  0.2484  0.7909
  988MOL0     H30403  10.098   5.902   4.870  0.8820 -1.2923  0.9918
  988MOL0     H30404  10.396   5.701   5.190 -1.4998 -0.8450  0.3925
  988MOL0     H30405  10.520   5.740   5.391 -0.6153 -0.1739  0.3209
  988MOL0     H30406  10.622   5.852   5.595 -0.6603  0.6293  0.8996
  988MOL0     H30407  10.540   5.691   5.612 -0.1914  0.2417 -2.3581
  988MOL0     H30408  10.479   5.750   5.844  0.1358 -0.0732  3.8171
  988MOL0     H30409  10.645   5.705   5.820 -2.5984 -0.1717  4.0367
  988MOL0     H30410  10.714   5.949   5.811 -1.9781  2.6244  0.1616
  988MOL0     H30411  10.675   5.887   5.967 -1.2361  1.7271  2.2468
  988MOL0     H30412  10.570   6.120   5.936 -2.4079  0.2257  1.9018
  988MOL0     H30413  10.492   6.050   5.794  0.5296 -1.5348 -0.8708
  988MOL0     H30414  10.262   6.011   6.146 -1.0173  0.7999 -0.8162
  988MOL0     H30415  10.197   5.955   5.551  0.9392 -1.0048  1.9845
  988MOL0     H30416  10.078   5.939   5.344  0.0410  0.5195  2.7687
  989MOL0     O30417   9.523   2.860   7.833 -0.2530  0.0917 -0.1233
  989MOL0     C30418   9.489   2.850   7.714  0.2520 -0.6737 -0.3221
  989MOL0     O30419   9.383   2.774   7.666  0.0778  0.6689  0.4647
  989MOL0     C30420   9.366   2.662   7.752 -0.6979  0.9756 -0.1963
  989MOL0     C30421   9.429   2.534   7.730 -0.9976 -0.2786 -0.0944
  989MOL0     C30422   9.419   2.440   7.834 -0.3491  0.0736  1.0483
  989MOL0     C30423   9.364   2.465   7.954  0.5478  0.1552 -0.2784
  989MOL0     O30424   9.367   2.360   8.045 -0.3112  0.3606  0.4119
  989MOL0     C30425   9.275   2.335   8.152 -0.5432  0.0751 -0.9158
  989MOL0     C30426   9.134   2.343   8.123  0.0580  0.4364  0.0070
  989MOL0     C30427   9.038   2.259   8.213 -0.1794 -0.1031 -0.6501
  989MOL0     C30428   9.051   2.110   8.189 -0.9097  0.4081  0.4027
  989MOL0     C30429   8.919   2.027   8.195  0.4063  0.6077  0.4289
  989MOL0     C30430   8.844   2.041   8.067 -0.2318  0.1967 -1.4197
  989MOL0     C30431   8.921   1.942   7.967  0.0350  0.4899  0.4184
  989MOL0     C30432   8.851   1.963   7.833 -0.2162 -0.4764  0.2501
  989MOL0     N30433   8.912   1.879   7.723 -0.6914 -0.1620  0.4607
  989MOL0     C30434   8.945   1.935   7.600  0.1115  0.4450 -0.1165
  989MOL0     C30435   9.016   1.837   7.544  0.0642 -0.3057  0.8233
  989MOL0     C30436   9.083   1.848   7.408  0.1728  0.2278  0.4344
  989MOL0     C30437   8.985   1.828   7.295  0.7413 -0.4053  1.3976
  989MOL0     C30438   9.061   1.828   7.151 -0.0369  0.1710  0.0186
  989MOL0     C30439   9.198   1.761   7.140 -0.3064  0.5270 -0.1924
  989MOL0     O30440   9.304   1.820   7.207  0.0555 -0.5603 -0.5610
  989MOL0     C30441   9.431   1.763   7.219 -1.3772  0.5354  0.0360
  989MOL0     C30442   9.532   1.847   7.281  0.8417 -0.4587 -0.1239
  989MOL0     C30443   9.656   1.792   7.275 -0.3501 -1.1158  0.3427
  989MOL0     C30444   9.687   1.664   7.221 -0.1974  0.5582 -1.3754
  989MOL0     C30445   9.826   1.594   7.243 -0.1365 -0.7444  0.0994
  989MOL0     O30446   9.830   1.457   7.235 -0.2871 -0.3360 -0.1859
  989MOL0     C30447   9.953   1.394   7.204 -0.6109 -0.3069 -0.4691
  989MOL0     C30448  10.071   1.451   7.138 -0.4337 -0.1920 -1.1500
  989MOL0     C30449  10.173   1.368   7.097  0.9878  0.2684  0.5115
  989MOL0     C30450  10.183   1.230   7.113  1.0477  0.3388 -0.1623
  989MOL0     O30451  10.293   1.161   7.071  0.1887  0.6838 -0.9929
  989MOL0     C30452  10.328   1.178   6.935  0.1632 -0.8165 -0.1641
  989MOL0     C30453  10.463   1.114   6.926 -0.6353  0.8374 -0.0115
  989MOL0     C30454  10.547   1.135   6.794 -0.2726  0.5816 -0.6342
  989MOL0     C30455  10.460   1.089   6.679  0.6653  0.2400 -0.0468
  989MOL0     C30456  10.533   1.106   6.543  0.5297  0.6590 -0.3602
  989MOL0     C30457  10.441   1.059   6.422  0.4207  0.6972  0.3357
  989MOL0     C30458  10.399   0.901   6.430 -0.5466 -0.2351 -0.0612
  989MOL0     C30459  10.381   0.846   6.286 -0.5082  0.4748 -0.5921
  989MOL0    Cl30460  10.231   0.899   6.213  0.0069  0.2265 -0.1282
  989MOL0     C30461  10.064   1.170   7.170  0.2842  0.1713 -0.4518
  989MOL0     C30462   9.952   1.254   7.208 -0.0656 -0.1952 -0.3129
  989MOL0     O30463   9.922   1.667   7.282 -0.7419  0.5144 -0.7449
  989MOL0     C30464   9.585   1.581   7.174 -0.1206 -0.8477 -0.3525
  989MOL0     C30465   9.456   1.634   7.164  0.0811 -0.4845  0.1304
  989MOL0     N30466   9.033   1.731   7.635 -0.1697 -0.6156  0.0073
  989MOL0     N30467   8.968   1.756   7.742  1.1881 -0.0116 -0.3104
  989MOL0     C30468   9.291   2.583   7.969  0.6394  0.0624 -0.3089
  989MOL0     C30469   9.291   2.685   7.872  0.3122  0.3158  0.4725
  989MOL0     C30470   9.552   2.927   7.612  0.0911 -0.1038  0.5473
  989MOL0     C30471   9.689   2.965   7.616  0.6566  0.6043  0.0723
  989MOL0     C30472   9.743   3.040   7.517 -0.4720  0.1167 -0.1425
  989MOL0     C30473   9.673   3.094   7.410 -0.2696 -0.7759 -0.2798
  989MOL0     O30474   9.744   3.163   7.314  0.1800 -0.5948  0.3397
  989MOL0     C30475   9.684   3.192   7.187 -1.4721  0.1420  0.2052
  989MOL0     C30476   9.615   3.330   7.180 -0.1736 -0.3321  0.0997
  989MOL0     C30477   9.676   3.408   7.060 -0.4013  0.2335  0.6971
  989MOL0     C30478   9.700   3.556   7.099  0.0660  0.0262 -1.1105
  989MOL0     C30479   9.711   3.648   6.987  0.8679  0.5731 -1.2714
  989MOL0     C30480   9.728   3.714   6.894  0.1072 -1.1488  1.1922
  989MOL0     C30481   9.530   3.065   7.404  0.5737  0.7630 -1.1308
  989MOL0     C30482   9.474   2.980   7.506 -0.4441 -0.6216 -0.2309
  989MOL0     H30483   9.469   2.514   7.631  0.9898 -2.2036  1.0219
  989MOL0     H30484   9.455   2.339   7.820 -3.4678 -1.4452  2.8998
  989MOL0     H30485   9.296   2.411   8.228 -0.8676 -0.6424 -0.0935
  989MOL0     H30486   9.293   2.235   8.194  2.1233  0.3340 -1.2997
  989MOL0     H30487   9.113   2.303   8.024 -0.2580  1.0299 -0.1676
  989MOL0     H30488   9.108   2.446   8.147 -0.3644 -0.2205  2.7648
  989MOL0     H30489   8.931   2.281   8.211 -0.6517 -2.2184 -1.4361
  989MOL0     H30490   9.080   2.290   8.308 -1.9930  3.4865 -0.8645
  989MOL0     H30491   9.090   2.097   8.087 -1.7187 -1.0508  0.2579
  989MOL0     H30492   9.117   2.065   8.264  1.2116 -0.2843 -1.7350
  989MOL0     H30493   8.853   2.055   8.278  2.1068  2.4065  1.2501
  989MOL0     H30494   8.948   1.924   8.216  1.6230  0.4812 -1.6627
  989MOL0     H30495   8.834   2.145   8.033  2.6450  0.5339 -1.4240
  989MOL0     H30496   8.742   2.003   8.081 -0.5914  2.1504  2.5424
  989MOL0     H30497   9.024   1.967   7.943 -0.9869  0.9330 -4.6610
  989MOL0     H30498   8.931   1.838   7.999  1.0134  1.1946  2.5196
  989MOL0     H30499   8.872   2.069   7.817  0.4841 -0.6854 -0.2715
  989MOL0     H30500   8.744   1.941   7.840 -0.7371  1.6298 -0.4319
  989MOL0     H30501   8.924   2.033   7.560  1.4536  0.4747 -0.8069
  989MOL0     H30502   9.154   1.765   7.404  0.7336  0.7475 -1.2732
  989MOL0     H30503   9.140   1.942   7.407  2.2014 -0.8847 -2.8544
  989MOL0     H30504   8.915   1.912   7.289  0.0962 -1.0473 -0.6131
  989MOL0     H30505   8.920   1.741   7.299  1.1524 -0.7519  0.6877
  989MOL0     H30506   8.997   1.777   7.078  0.3558  1.9597 -1.6807
  989MOL0     H30507   9.074   1.933   7.123  0.1879  0.4537  1.1405
  989MOL0     H30508   9.229   1.738   7.038 -1.8412 -2.0887 -0.1422
  989MOL0     H30509   9.172   1.666   7.187  2.0893  0.3875  0.9977
  989MOL0     H30510   9.521   1.940   7.336  1.0832 -1.6315  2.0212
  989MOL0     H30511   9.741   1.854   7.300  0.4443 -0.6469 -3.0493
  989MOL0     H30512  10.085   1.559   7.129  1.0007 -0.4615 -2.6752
  989MOL0     H30513  10.252   1.405   7.032 -0.6081 -0.2697 -1.8692
  989MOL0     H30514  10.342   1.282   6.906 -3.3173 -0.2883 -0.3951
  989MOL0     H30515  10.259   1.134   6.862 -2.2313  0.1473  1.3901
  989MOL0     H30516  10.449   1.006   6.944  0.4324  0.7401  0.2580
  989MOL0     H30517  10.530   1.149   7.005 -1.5653 -1.9870  2.2405
  989MOL0     H30518  10.637   1.074   6.805 -0.9382 -0.4212 -0.6754
  989MOL0     H30519  10.574   1.241   6.781  0.0944  0.3200 -2.2279
  989MOL0     H30520  10.434   0.983   6.678 -2.6295  0.9541 -0.1062
  989MOL0     H30521  10.376   1.159   6.670  0.8917  0.7551  1.5450
  989MOL0     H30522  10.622   1.042   6.540 -0.7024 -1.3419  2.0317
  989MOL0     H30523  10.573   1.207   6.529  2.0476  0.4351  1.7811
  989MOL0     H30524  10.493   1.067   6.326 -0.8876  1.0258 -0.3631
  989MOL0     H30525  10.347   1.115   6.416 -0.8494 -1.4675 -2.1143
  989MOL0     H30526  10.477   0.848   6.487 -0.2239  0.5905  0.2856
  989MOL0     H30527  10.311   0.875   6.490  0.2224 -1.0513  0.7749
  989MOL0     H30528  10.384   0.737   6.292  0.0352  0.4535 -1.1355
  989MOL0     H30529  10.463   0.875   6.220 -0.1339 -1.7581 -1.1928
  989MOL0     H30530  10.069   1.063   7.186  4.0966  0.4696  1.5608
  989MOL0     H30531   9.860   1.208   7.242 -0.3941  1.2418  0.8129
  989MOL0     H30532   9.598   1.482   7.132  0.8224 -0.0242 -2.1239
  989MOL0     H30533   9.374   1.584   7.112  0.1281 -0.9222  0.4683
  989MOL0     H30534   9.235   2.580   8.062 -1.8535 -0.8698 -1.7419
  989MOL0     H30535   9.250   2.782   7.898  4.9904  2.6971 -0.0461
  989MOL0     H30536   9.763   2.942   7.693 -1.6810 -1.2689  1.9130
  989MOL0     H30537   9.842   3.081   7.536 -0.9097  1.4209 -0.5736
  989MOL0     H30538   9.621   3.110   7.150 -1.0820  0.0850 -0.3481
  989MOL0     H30539   9.772   3.198   7.123 -1.6589 -2.5877 -0.4443
  989MOL0     H30540   9.508   3.318   7.162 -0.1012  0.1962 -0.7872
  989MOL0     H30541   9.625   3.395   7.267  1.0860 -0.2919 -0.0481
  989MOL0     H30542   9.608   3.390   6.976  0.7531 -1.4146  0.0684
  989MOL0     H30543   9.775   3.379   7.024 -0.0173 -0.1942  2.0461
  989MOL0     H30544   9.621   3.587   7.168  1.3868  1.2770 -0.1171
  989MOL0     H30545   9.791   3.564   7.158 -0.3672 -0.0016 -0.4318
  989MOL0     H30546   9.731   3.797   6.826 -1.3861  0.9987  3.5314
  989MOL0     H30547   9.465   3.097   7.322  0.0843 -0.2473 -1.1435
  989MOL0     H30548   9.368   2.955   7.498 -0.1865 -1.5947 -0.6419
  990MOL0     O30549   3.710   0.162   6.561  0.1422 -0.6614  0.5957
  990MOL0     C30550   3.677   0.262   6.499 -0.3467 -0.0380 -0.5026
  990MOL0     O30551   3.589   0.267   6.390  0.2569  0.2001 -0.1236
  990MOL0     C30552   3.554   0.147   6.333  0.8437  0.8638 -0.9259
  990MOL0     C30553   3.610   0.092   6.208 -0.0195  0.1667 -0.5338
  990MOL0     C30554   3.576  -0.043   6.178 -0.6065  0.5128 -0.1018
  990MOL0     C30555   3.486  -0.115   6.254 -1.0916 -0.7424  1.0869
  990MOL0     O30556   3.450  -0.230   6.193  0.0282  0.3892  0.2291
  990MOL0     C30557   3.309  -0.270   6.211 -0.0555 -0.3061 -1.1057
  990MOL0     C30558   3.204  -0.183   6.133  0.0120  0.1588 -0.2821
  990MOL0     C30559   3.094  -0.140   6.227  0.3481 -0.4026 -0.2178
  990MOL0     C30560   3.002  -0.052   6.148 -0.2099 -0.2361 -0.3206
  990MOL0     C30561   2.869  -0.010   6.199 -0.3413  0.4164  0.2804
  990MOL0     C30562   2.779   0.073   6.104 -0.7503 -1.1825  0.5653
  990MOL0     C30563   2.629   0.080   6.157 -0.0989 -0.5214  0.1138
  990MOL0     C30564   2.605   0.133   6.314 -0.0248 -0.9097  1.0505
  990MOL0     N30565   2.687   0.256   6.339 -0.2438 -0.2853  0.0805
  990MOL0     C30566   2.675   0.383   6.279  0.2656 -0.3179  0.4429
  990MOL0     C30567   2.762   0.461   6.336  0.4672 -0.4123  0.0747
  990MOL0     C30568   2.794   0.612   6.319  0.2420 -0.9393  0.0161
  990MOL0     C30569   2.685   0.715   6.349  0.1949 -0.5773  1.5798
  990MOL0     C30570   2.655   0.722   6.504  0.7802 -0.3256  0.8725
  990MOL0     C30571   2.629   0.864   6.548  0.1056  0.0949 -0.2488
  990MOL0     O30572   2.505   0.910   6.519  0.2764  0.7555 -0.2789
  990MOL0     C30573   2.480   1.044   6.501  1.0065  1.2918  0.3278
  990MOL0     C30574   2.349   1.092   6.518  0.5467  0.4192 -0.0444
  990MOL0     C30575   2.320   1.230   6.515 -0.3159  0.8405  0.4931
  990MOL0     C30576   2.418   1.320   6.476  0.1441 -0.5401 -0.3470
  990MOL0     C30577   2.383   1.464   6.494 -0.0938  0.2315  0.7657
  990MOL0     O30578   2.248   1.498   6.478 -0.1573 -0.4330  0.1401
  990MOL0     C30579   2.217   1.639   6.468  0.2452 -0.5428 -0.1279
  990MOL0     C30580   2.204   1.725   6.579 -0.4838 -0.7646 -0.6815
  990MOL0     C30581   2.170   1.864   6.569  0.1634 -0.5849  0.4808
  990MOL0     C30582   2.137   1.921   6.444 -1.1445 -0.6835 -0.1810
  990MOL0     O30583   2.096   2.055   6.437 -0.3366  0.2113  0.3489
  990MOL0     C30584   2.073   2.120   6.311  0.0295  0.1694 -0.3645
  990MOL0     C30585   2.201   2.198   6.284 -0.4368  0.5684 -0.6748
  990MOL0     C30586   2.161   2.310   6.193  0.8130  0.0475 -0.1234
  990MOL0     C30587   2.288   2.384   6.153  0.1377  0.3889  0.7284
  990MOL0     C30588   2.246   2.528   6.107  0.8192  0.3886  0.9562
  990MOL0     C30589   2.362   2.612   6.062 -0.5435 -0.4517  0.8090
  990MOL0     C30590   2.335   2.762   6.084 -0.1499 -0.7187  0.4146
  990MOL0     C30591   2.236   2.836   5.989  0.0126  0.1672  0.0681
  990MOL0    Cl30592   2.062   2.800   6.023  0.1834  0.1241 -0.5016
  990MOL0     C30593   2.172   1.839   6.333  0.3721  0.3795  0.2027
  990MOL0     C30594   2.210   1.702   6.348 -0.2598 -0.3062  0.1642
  990MOL0     O30595   2.480   1.537   6.516  0.2478  0.1939 -0.3738
  990MOL0     C30596   2.550   1.275   6.453 -0.2825  0.4224  0.9433
  990MOL0     C30597   2.569   1.139   6.455  0.5975 -0.7670  1.0064
  990MOL0     N30598   2.822   0.391   6.433  0.2265  0.2662  0.6317
  990MOL0     N30599   2.771   0.272   6.444 -0.0188 -0.7677  0.3034
  990MOL0     C30600   3.426  -0.057   6.366 -0.1791 -1.5845 -0.6344
  990MOL0     C30601   3.462   0.070   6.408 -0.6443 -0.2327 -0.1585
  990MOL0     C30602   3.718   0.395   6.552  0.5436  0.6429 -1.0101
  990MOL0     C30603   3.717   0.507   6.477 -0.0650 -0.4767  1.4545
  990MOL0     C30604   3.738   0.638   6.530 -0.0767  0.0135 -0.3104
  990MOL0     C30605   3.757   0.652   6.666 -0.1193  0.4396  0.5029
  990MOL0     O30606   3.779   0.769   6.742 -0.6122  0.5763  0.5944
  990MOL0     C30607   3.879   0.856   6.689  0.0313  0.5144 -0.0138
  990MOL0     C30608   4.012   0.829   6.753 -0.0725 -0.3831  0.4635
  990MOL0     C30609   4.001   0.873   6.901  0.4966 -0.4559  0.1276
  990MOL0     C30610   4.116   0.795   6.970  0.3761  0.2359 -0.0661
  990MOL0     C30611   4.113   0.786   7.113  0.1015 -0.0237  0.4463
  990MOL0     C30612   4.113   0.776   7.236  0.0066 -0.3963  1.4659
  990MOL0     C30613   3.753   0.533   6.743  0.0587 -0.0132  0.4682
  990MOL0     C30614   3.740   0.409   6.686  0.1813 -0.6211 -0.3612
  990MOL0     H30615   3.680   0.152   6.150  1.9145 -3.1372 -1.9043
  990MOL0     H30616   3.626  -0.099   6.099 -2.4390 -2.2596  0.5409
  990MOL0     H30617   3.279  -0.294   6.314 -0.4149 -1.5941 -1.4925
  990MOL0     H30618   3.311  -0.373   6.176 -0.8154 -0.4390 -0.7745
  990MOL0     H30619   3.166  -0.235   6.045 -0.1262  0.5222 -0.4386
  990MOL0     H30620   3.251  -0.088   6.104  0.8192 -0.3435 -0.6541
  990MOL0     H30621   3.128  -0.092   6.318  0.6664  0.0589 -0.5783
  990MOL0     H30622   3.036  -0.226   6.262 -0.2138 -0.1116 -0.4215
  990MOL0     H30623   3.039   0.041   6.103 -2.5006  0.2396 -1.4189
  990MOL0     H30624   2.972  -0.096   6.053 -3.0959  0.6251  0.0828
  990MOL0     H30625   2.905   0.049   6.283  1.9335  1.7040 -1.4761
  990MOL0     H30626   2.817  -0.095   6.243  1.4626 -0.4616  0.8235
  990MOL0     H30627   2.761   0.018   6.011 -1.2108 -1.2793  0.7074
  990MOL0     H30628   2.831   0.168   6.090  0.1307 -1.5740  1.0989
  990MOL0     H30629   2.571   0.153   6.100  0.1214  0.9753  1.7426
  990MOL0     H30630   2.594  -0.019   6.125 -0.2821  0.3451 -2.6736
  990MOL0     H30631   2.630   0.054   6.385  0.7071 -0.9251  0.7817
  990MOL0     H30632   2.496   0.144   6.324 -0.0663 -1.6486  1.4488
  990MOL0     H30633   2.626   0.416   6.188  1.9836  2.3079  0.3586
  990MOL0     H30634   2.828   0.616   6.215 -2.7303  0.4340 -1.0308
  990MOL0     H30635   2.876   0.638   6.386 -0.4412  3.9830 -0.6396
  990MOL0     H30636   2.586   0.696   6.307 -0.7008  1.1139  2.7859
  990MOL0     H30637   2.712   0.811   6.304 -1.5357 -0.9850 -0.5010
  990MOL0     H30638   2.572   0.653   6.522  2.1010 -2.3273 -0.3065
  990MOL0     H30639   2.735   0.683   6.568 -2.2795 -5.0528  2.4261
  990MOL0     H30640   2.707   0.936   6.522 -0.0720  0.8518  1.2101
  990MOL0     H30641   2.632   0.863   6.657 -1.3614  3.0076 -0.0752
  990MOL0     H30642   2.264   1.033   6.553  0.6338  1.1114  1.3898
  990MOL0     H30643   2.225   1.256   6.562  1.1107  2.1627  2.8441
  990MOL0     H30644   2.238   1.689   6.676 -0.0155 -1.3251 -1.0469
  990MOL0     H30645   2.160   1.929   6.655 -1.6749  0.6752 -0.6058
  990MOL0     H30646   1.983   2.180   6.328  0.3008  0.7953 -1.0837
  990MOL0     H30647   2.073   2.060   6.219 -3.7149 -0.0948 -0.3625
  990MOL0     H30648   2.278   2.131   6.245  0.0355 -1.1503  2.8474
  990MOL0     H30649   2.240   2.250   6.372  0.9789  0.2738 -1.0982
  990MOL0     H30650   2.101   2.371   6.261  2.0709 -1.7970  2.8169
  990MOL0     H30651   2.101   2.288   6.104  2.3448  1.5511 -1.6225
  990MOL0     H30652   2.340   2.392   6.249  3.6500 -2.1066 -0.7258
  990MOL0     H30653   2.354   2.324   6.089  0.9122  0.3462  1.5462
  990MOL0     H30654   2.195   2.587   6.185 -1.4778  0.9326 -0.8489
  990MOL0     H30655   2.186   2.525   6.015  2.4043  0.3238 -0.1091
  990MOL0     H30656   2.402   2.582   5.964  0.7716 -0.0812  1.2059
  990MOL0     H30657   2.441   2.590   6.134  0.7656  1.8490  0.1827
  990MOL0     H30658   2.307   2.791   6.186  0.2632 -2.3805  1.0376
  990MOL0     H30659   2.436   2.802   6.070 -0.3710  0.5562  2.0871
  990MOL0     H30660   2.263   2.818   5.885 -0.0896  3.9609 -0.7625
  990MOL0     H30661   2.255   2.943   6.006  0.8881  0.4041 -2.0564
  990MOL0     H30662   2.146   1.862   6.230  0.1946  0.9710  0.3755
  990MOL0     H30663   2.220   1.636   6.262 -1.3857  1.5024 -1.4386
  990MOL0     H30664   2.636   1.337   6.431 -0.0548 -0.4527 -0.8046
  990MOL0     H30665   2.669   1.115   6.420  1.2796  0.7751  1.7857
  990MOL0     H30666   3.381  -0.114   6.447  2.2590 -4.3838 -1.0736
  990MOL0     H30667   3.421   0.114   6.498 -2.3131 -0.5353 -0.7399
  990MOL0     H30668   3.709   0.476   6.374 -4.3265 -1.1440  1.7855
  990MOL0     H30669   3.745   0.723   6.463 -1.7010  0.8451  0.5200
  990MOL0     H30670   3.846   0.958   6.709 -0.3714  0.4592 -0.3863
  990MOL0     H30671   3.882   0.834   6.582 -1.9505 -0.0696  0.0072
  990MOL0     H30672   4.057   0.730   6.741 -2.1057 -1.2558 -0.3174
  990MOL0     H30673   4.078   0.891   6.691 -0.0245  0.2015  1.0881
  990MOL0     H30674   3.907   0.833   6.941 -0.8692  0.2607 -2.2154
  990MOL0     H30675   4.011   0.980   6.922  1.3298  0.1006 -2.7035
  990MOL0     H30676   4.125   0.693   6.933 -3.3769  0.2442 -1.4238
  990MOL0     H30677   4.209   0.844   6.940 -2.0060  5.3358 -0.1901
  990MOL0     H30678   4.122   0.751   7.339  1.5735 -1.8541  1.0149
  990MOL0     H30679   3.769   0.558   6.847  0.5031  0.5923  0.2580
  990MOL0     H30680   3.745   0.328   6.758  0.7626  0.6342  1.0745
  991MOL0     O30681   2.954   2.598   0.898 -0.0254  0.1825 -0.3213
  991MOL0     C30682   2.902   2.690   0.837  0.0867  0.1226 -0.2218
  991MOL0     O30683   2.932   2.729   0.709 -0.5356  0.5344  0.8533
  991MOL0     C30684   3.009   2.648   0.627 -0.1012 -0.4742 -0.2053
  991MOL0     C30685   2.951   2.563   0.533 -0.3771  0.1071 -0.6510
  991MOL0     C30686   3.031   2.497   0.438  1.0354  0.3270 -0.4623
  991MOL0     C30687   3.174   2.505   0.440 -0.0652  0.1989 -0.7688
  991MOL0     O30688   3.256   2.462   0.342 -0.8225  0.3661 -0.7189
  991MOL0     C30689   3.196   2.426   0.222  0.6274 -0.0406 -0.3979
  991MOL0     C30690   3.309   2.402   0.128 -0.5009  0.8341 -0.3602
  991MOL0     C30691   3.400   2.285   0.187 -0.0380 -0.2499  0.5473
  991MOL0     C30692   3.495   2.236   0.079 -0.3296 -0.0111 -0.3329
  991MOL0     C30693   3.628   2.230   0.152  0.4969 -0.4708  0.3619
  991MOL0     C30694   3.741   2.171   0.059  0.3978 -0.6095  0.2096
  991MOL0     C30695   3.884   2.166   0.123  0.3101  0.2730  0.1903
  991MOL0     C30696   3.985   2.128   0.005 -0.7080  0.0155 -0.5043
  991MOL0     N30697   4.105   2.055   0.049 -0.7652  0.4111  0.0124
  991MOL0     C30698   4.216   2.020  -0.029 -0.1029 -0.6040 -0.2818
  991MOL0     C30699   4.318   1.983   0.056  0.6023  1.0675  0.1246
  991MOL0     C30700   4.450   1.927   0.037 -0.0614 -0.0823 -0.0541
  991MOL0     C30701   4.502   1.906  -0.110 -0.1372  0.1508 -0.2425
  991MOL0     C30702   4.638   1.837  -0.127 -0.4537  0.6538  0.4186
  991MOL0     C30703   4.673   1.765  -0.257 -0.1775 -0.1401 -1.2092
  991MOL0     O30704   4.612   1.810  -0.369  0.1287 -0.7020  0.7909
  991MOL0     C30705   4.651   1.923  -0.433  0.1472  0.0437  1.0418
  991MOL0     C30706   4.751   2.017  -0.397 -0.0065  0.3894  0.9990
  991MOL0     C30707   4.788   2.130  -0.475 -0.1817 -0.2182  1.4674
  991MOL0     C30708   4.701   2.162  -0.586  1.0300  0.8201 -0.6478
  991MOL0     C30709   4.722   2.281  -0.674  0.9191  0.1594  0.1939
  991MOL0     O30710   4.631   2.296  -0.780  0.4304  0.0373  0.9022
  991MOL0     C30711   4.609   2.418  -0.846 -0.0147 -0.4603 -0.4923
  991MOL0     C30712   4.581   2.537  -0.771 -0.2417  0.0464  0.0193
  991MOL0     C30713   4.540   2.651  -0.840  1.2719 -0.6071  0.8443
  991MOL0     C30714   4.522   2.654  -0.986 -0.1254  0.6101 -0.2587
  991MOL0     O30715   4.495   2.769  -1.048  0.0474 -0.2585 -0.0985
  991MOL0     C30716   4.403   2.773  -1.165  0.4016 -0.7162 -0.7991
  991MOL0     C30717   4.412   2.915  -1.221  0.4014 -0.1678 -0.7442
  991MOL0     C30718   4.300   2.931  -1.327 -0.6644  0.4839 -0.3374
  991MOL0     C30719   4.341   2.869  -1.460 -0.2001  0.2330  0.1720
  991MOL0     C30720   4.210   2.828  -1.526  0.7425  0.3076 -0.0255
  991MOL0     C30721   4.241   2.735  -1.652  0.2254  0.5977  0.4084
  991MOL0     C30722   4.108   2.684  -1.719 -0.5939  0.2164 -0.0511
  991MOL0     C30723   4.122   2.697  -1.869 -0.2421  0.2018 -0.2561
  991MOL0    Cl30724   4.251   2.576  -1.935  0.5613  0.1801 -0.1977
  991MOL0     C30725   4.546   2.537  -1.060  0.7886 -0.6599  0.2518
  991MOL0     C30726   4.589   2.427  -0.985  0.0916 -0.4607  0.3636
  991MOL0     O30727   4.801   2.367  -0.631 -1.3842 -0.6952 -0.4473
  991MOL0     C30728   4.600   2.079  -0.615 -0.6928  0.4133  0.3062
  991MOL0     C30729   4.580   1.955  -0.548  0.4071  0.1906  0.4876
  991MOL0     N30730   4.258   1.984   0.179 -0.5547  0.7931 -1.0852
  991MOL0     N30731   4.133   2.016   0.178  0.3948 -0.2216  0.6863
  991MOL0     C30732   3.237   2.569   0.553 -0.5295  0.1597  0.3886
  991MOL0     C30733   3.150   2.636   0.640 -0.8808  0.3663 -0.1156
  991MOL0     C30734   2.780   2.758   0.905  1.1110 -0.4878  0.2941
  991MOL0     C30735   2.697   2.684   0.993  0.5494 -0.8424  0.0919
  991MOL0     C30736   2.577   2.744   1.041 -0.2275  0.3822 -0.0656
  991MOL0     C30737   2.547   2.884   1.028  0.4809  0.2551  0.0973
  991MOL0     O30738   2.431   2.936   1.073  0.6873  0.0291  0.4780
  991MOL0     C30739   2.423   3.069   1.122 -0.7770  0.4357 -0.9609
  991MOL0     C30740   2.289   3.096   1.202  0.6026  0.7509 -0.2357
  991MOL0     C30741   2.284   3.230   1.271 -0.8018 -0.4249 -0.1289
  991MOL0     C30742   2.152   3.276   1.320 -0.7234  0.7018  0.4845
  991MOL0     C30743   2.173   3.421   1.357 -1.4112  0.5035 -0.0394
  991MOL0     C30744   2.196   3.537   1.392  0.1575 -0.7718  0.6396
  991MOL0     C30745   2.640   2.961   0.956  0.1177 -0.1358 -0.3402
  991MOL0     C30746   2.749   2.901   0.892  0.5967  0.3367  1.0062
  991MOL0     H30747   2.843   2.572   0.524 -0.9050 -2.2259  2.1101
  991MOL0     H30748   2.974   2.462   0.353  2.4620  1.5538 -1.9675
  991MOL0     H30749   3.125   2.501   0.186  0.0309 -0.2920  0.2371
  991MOL0     H30750   3.132   2.340   0.244 -5.6022  4.4154  1.7797
  991MOL0     H30751   3.367   2.494   0.119 -3.5901  2.8017 -1.5614
  991MOL0     H30752   3.268   2.370   0.032 -0.2912  0.6561 -0.3920
  991MOL0     H30753   3.344   2.196   0.216 -0.8723  0.2624  0.5280
  991MOL0     H30754   3.454   2.324   0.275 -0.2817  1.7428 -0.1411
  991MOL0     H30755   3.456   2.138   0.050  2.1746 -0.8081 -1.2449
  991MOL0     H30756   3.493   2.297  -0.012 -3.3063 -3.8532 -3.1581
  991MOL0     H30757   3.624   2.161   0.237  0.2072 -0.8648  0.0348
  991MOL0     H30758   3.652   2.327   0.196  3.4490 -0.9620  0.0263
  991MOL0     H30759   3.746   2.216  -0.040  4.2078 -0.9607  0.1062
  991MOL0     H30760   3.708   2.070   0.034  0.1674 -0.7877  1.1705
  991MOL0     H30761   3.903   2.258   0.179 -2.1235  1.9275 -1.4900
  991MOL0     H30762   3.872   2.087   0.197 -3.1344  0.6484  0.2091
  991MOL0     H30763   4.021   2.219  -0.045  3.0241 -0.1415  1.5670
  991MOL0     H30764   3.934   2.063  -0.067 -0.1350  2.1616 -2.9979
  991MOL0     H30765   4.225   2.025  -0.137  0.2797  1.9498 -0.2005
  991MOL0     H30766   4.468   1.836   0.095  1.5940 -0.1052 -0.5555
  991MOL0     H30767   4.514   1.994   0.095  1.5460 -2.2946  0.8784
  991MOL0     H30768   4.513   1.994  -0.174 -1.6011  1.3301  1.0311
  991MOL0     H30769   4.428   1.838  -0.153 -1.8045  1.4670  0.4235
  991MOL0     H30770   4.715   1.913  -0.110  1.5746 -0.0264 -4.2312
  991MOL0     H30771   4.639   1.765  -0.045 -1.0638 -0.6459 -0.6651
  991MOL0     H30772   4.651   1.658  -0.247  3.4970 -0.8701  1.1736
  991MOL0     H30773   4.782   1.755  -0.263 -0.1606 -2.6645  1.2100
  991MOL0     H30774   4.821   1.977  -0.324  1.1494  0.6516  0.0752
  991MOL0     H30775   4.887   2.169  -0.452  1.0603 -3.7057  2.7586
  991MOL0     H30776   4.593   2.545  -0.664  1.1043  2.6892 -0.2585
  991MOL0     H30777   4.521   2.735  -0.774  1.6057  2.8727 -3.1164
  991MOL0     H30778   4.299   2.759  -1.134  1.1426 -1.4268  1.5810
  991MOL0     H30779   4.443   2.702  -1.239  3.7130 -1.4590  1.4603
  991MOL0     H30780   4.505   2.940  -1.272  1.3229 -3.7109 -1.0540
  991MOL0     H30781   4.382   2.977  -1.136 -0.4901  0.4431 -1.4782
  991MOL0     H30782   4.274   3.036  -1.345 -2.3789 -0.1656 -1.9947
  991MOL0     H30783   4.202   2.891  -1.301 -1.0109  0.0649 -2.1473
  991MOL0     H30784   4.406   2.929  -1.525 -1.2654 -1.6073 -2.8121
  991MOL0     H30785   4.400   2.779  -1.440 -0.4170  0.3082  1.1880
  991MOL0     H30786   4.160   2.917  -1.565 -0.4960  0.2393  1.3424
  991MOL0     H30787   4.142   2.774  -1.460 -0.3426 -0.5500 -1.7718
  991MOL0     H30788   4.299   2.649  -1.620  2.7999  2.6542  1.5996
  991MOL0     H30789   4.302   2.798  -1.718  0.8438  0.3541  0.7438
  991MOL0     H30790   4.098   2.579  -1.691  1.0743  0.7684  3.0811
  991MOL0     H30791   4.026   2.742  -1.676 -3.9549 -2.5669 -2.1649
  991MOL0     H30792   4.151   2.801  -1.884  1.0384  0.3066  2.4688
  991MOL0     H30793   4.023   2.670  -1.909 -1.5867  0.9421  2.3710
  991MOL0     H30794   4.545   2.522  -1.168 -2.5094 -1.4775  0.3123
  991MOL0     H30795   4.597   2.341  -1.051 -2.2247  0.4702 -1.2809
  991MOL0     H30796   4.532   2.113  -0.693 -0.8866  0.3933  0.4664
  991MOL0     H30797   4.510   1.887  -0.594 -1.0818  0.6122  2.0255
  991MOL0     H30798   3.346   2.568   0.560 -0.1958 -1.8272 -3.0454
  991MOL0     H30799   3.204   2.708   0.701 -2.3028  2.0673 -0.7888
  991MOL0     H30800   2.706   2.578   1.013  0.7488 -0.3447  3.0067
  991MOL0     H30801   2.508   2.684   1.100  1.8553  0.0577  2.2187
  991MOL0     H30802   2.435   3.137   1.037  4.0304 -0.6418 -1.4042
  991MOL0     H30803   2.511   3.093   1.182  0.1941  0.5687 -2.3957
  991MOL0     H30804   2.212   3.103   1.124 -0.1532  1.8784  0.5844
  991MOL0     H30805   2.281   3.025   1.284  3.6012 -0.9935 -1.3049
  991MOL0     H30806   2.334   3.313   1.221 -4.1647  2.1368  0.4510
  991MOL0     H30807   2.338   3.219   1.365  0.1434 -0.3733 -0.6486
  991MOL0     H30808   2.077   3.286   1.241 -1.2207 -0.9372  0.7272
  991MOL0     H30809   2.122   3.202   1.394  1.0877  1.1485  1.7362
  991MOL0     H30810   2.218   3.638   1.423 -2.5754  0.8133 -2.0280
  991MOL0     H30811   2.614   3.063   0.929 -0.8599 -0.5413 -1.0126
  991MOL0     H30812   2.804   2.968   0.827  0.5521 -1.6242 -1.1592
  992MOL0     O30813   7.280   6.190   2.072 -0.0418 -0.1516  0.0675
  992MOL0     C30814   7.219   6.153   2.170 -0.2107 -0.0058 -0.8350
  992MOL0     O30815   7.167   6.240   2.264  0.9557  0.3335 -0.1523
  992MOL0     C30816   7.213   6.366   2.269 -2.5773 -0.1849  1.5115
  992MOL0     C30817   7.310   6.414   2.364  1.2651 -0.6397  0.6246
  992MOL0     C30818   7.340   6.548   2.379  0.7086  1.2846 -0.5478
  992MOL0     C30819   7.283   6.636   2.290  0.5637 -0.6208  0.1543
  992MOL0     O30820   7.308   6.767   2.323 -0.4303  0.2640  0.7345
  992MOL0     C30821   7.289   6.874   2.222  0.0385 -0.1358 -0.5911
  992MOL0     C30822   7.363   6.997   2.259  0.7331  0.7240  0.1791
  992MOL0     C30823   7.387   7.084   2.139 -0.1301 -0.6380 -0.1757
  992MOL0     C30824   7.515   7.168   2.171  0.3805  0.2599  0.3728
  992MOL0     C30825   7.549   7.272   2.060  0.1663  0.5116 -0.1454
  992MOL0     C30826   7.555   7.213   1.906  0.3722 -0.2707 -1.1386
  992MOL0     C30827   7.620   7.328   1.829 -0.1766 -0.6424 -0.6430
  992MOL0     C30828   7.776   7.316   1.836 -0.9988 -0.1352 -0.0264
  992MOL0     N30829   7.827   7.366   1.707  0.3650 -0.5775 -0.8056
  992MOL0     C30830   7.935   7.319   1.630  0.3104 -0.4389  0.3947
  992MOL0     C30831   7.943   7.399   1.522 -0.8926  0.3885 -0.1567
  992MOL0     C30832   8.025   7.377   1.396  0.2964 -0.3406 -0.0133
  992MOL0     C30833   8.160   7.455   1.395 -0.6000  0.6480  0.2128
  992MOL0     C30834   8.271   7.394   1.310  0.4269  0.7839 -0.4724
  992MOL0     C30835   8.402   7.468   1.327 -0.1155 -0.5820  0.2681
  992MOL0     O30836   8.484   7.443   1.212  0.4918 -0.4723 -0.0283
  992MOL0     C30837   8.589   7.353   1.218  0.2188 -0.4497 -0.7087
  992MOL0     C30838   8.635   7.277   1.327  0.7109 -1.0559 -0.1974
  992MOL0     C30839   8.728   7.172   1.311  0.6233 -0.8467  0.1868
  992MOL0     C30840   8.796   7.163   1.190 -0.5827  0.2189  0.4420
  992MOL0     C30841   8.903   7.073   1.177 -0.3479 -0.5952 -0.9128
  992MOL0     O30842   8.961   7.038   1.293  0.0813  0.5289  0.3675
  992MOL0     C30843   9.071   6.955   1.296  0.9829  0.0361 -0.6884
  992MOL0     C30844   9.050   6.818   1.289 -0.1547  1.6691  0.3753
  992MOL0     C30845   9.155   6.729   1.285  0.5262 -0.9741 -1.0600
  992MOL0     C30846   9.282   6.787   1.324 -0.1362 -0.4754 -0.5370
  992MOL0     O30847   9.387   6.700   1.309  0.3336 -1.1778  0.5217
  992MOL0     C30848   9.506   6.723   1.381 -0.9914  0.1176 -0.1816
  992MOL0     C30849   9.594   6.600   1.373 -0.2384 -0.2030 -0.4669
  992MOL0     C30850   9.516   6.472   1.454 -1.3971 -0.3254 -0.3047
  992MOL0     C30851   9.590   6.339   1.417  0.4986 -0.8023 -1.0036
  992MOL0     C30852   9.536   6.214   1.490 -0.9661  0.2044 -0.1020
  992MOL0     C30853   9.607   6.094   1.437  0.8248 -0.2122 -0.2795
  992MOL0     C30854   9.574   5.970   1.519  0.8473 -0.4865  0.1333
  992MOL0     C30855   9.682   5.941   1.611  0.7306 -0.9226 -0.3770
  992MOL0    Cl30856   9.835   5.906   1.529 -0.5358  0.1162 -0.0278
  992MOL0     C30857   9.301   6.922   1.350 -0.2404 -0.5342 -0.9816
  992MOL0     C30858   9.199   7.008   1.343  0.8072 -0.7181 -0.0213
  992MOL0     O30859   8.933   7.027   1.073 -0.1298  0.2749  0.4806
  992MOL0     C30860   8.764   7.252   1.092 -1.5568 -0.3620  1.1640
  992MOL0     C30861   8.661   7.339   1.102  0.3937 -0.5133 -0.7396
  992MOL0     N30862   7.851   7.499   1.536 -0.4269  0.2452  0.2540
  992MOL0     N30863   7.794   7.484   1.646 -0.5134 -0.6761 -0.0920
  992MOL0     C30864   7.203   6.592   2.181 -0.7253  0.6219 -0.8818
  992MOL0     C30865   7.178   6.455   2.170  0.1659  0.8468 -0.7680
  992MOL0     C30866   7.188   6.013   2.188  0.0263  0.5400  0.6261
  992MOL0     C30867   7.144   5.952   2.311  1.3756 -0.7498 -0.0151
  992MOL0     C30868   7.105   5.820   2.327  0.5958  0.7797 -0.0219
  992MOL0     C30869   7.118   5.744   2.208 -0.1464 -0.6082  0.0993
  992MOL0     O30870   7.112   5.610   2.212 -0.3653  0.2889  0.4814
  992MOL0     C30871   7.023   5.542   2.303 -0.3675 -0.8049  0.8262
  992MOL0     C30872   7.042   5.396   2.252  0.0211 -0.5987  0.3839
  992MOL0     C30873   6.986   5.396   2.109 -0.1417  1.0544  0.0797
  992MOL0     C30874   6.999   5.260   2.050 -0.0624 -0.0214 -0.5360
  992MOL0     C30875   6.890   5.171   2.083 -0.2569 -0.6063 -0.9011
  992MOL0     C30876   6.793   5.100   2.085  0.0049  0.5701 -1.4449
  992MOL0     C30877   7.166   5.793   2.093  1.2097  0.5392  0.3250
  992MOL0     C30878   7.197   5.923   2.080  0.1608 -0.8115 -0.0534
  992MOL0     H30879   7.360   6.347   2.434 -0.4662  0.3448  2.9494
  992MOL0     H30880   7.402   6.592   2.457  0.0539  1.8812 -0.3612
  992MOL0     H30881   7.188   6.909   2.202 -0.4503 -0.5047  1.0785
  992MOL0     H30882   7.335   6.840   2.128  1.2416  2.9940 -1.2610
  992MOL0     H30883   7.457   6.972   2.308  0.6387 -1.8812 -0.8202
  992MOL0     H30884   7.302   7.045   2.336 -0.9600  2.6456 -2.1725
  992MOL0     H30885   7.304   7.153   2.122  0.1016 -0.4238 -0.4342
  992MOL0     H30886   7.395   7.035   2.042  0.0327  1.2671 -1.1681
  992MOL0     H30887   7.513   7.235   2.256  2.9805 -0.9350  1.4848
  992MOL0     H30888   7.600   7.100   2.182 -0.6942 -1.1316  0.5126
  992MOL0     H30889   7.640   7.331   2.077  1.7026 -1.4750 -1.1240
  992MOL0     H30890   7.465   7.342   2.055 -1.2025 -1.0174  0.3536
  992MOL0     H30891   7.451   7.186   1.885 -0.4947  1.1741  0.9162
  992MOL0     H30892   7.615   7.121   1.908 -1.6362 -1.6510 -0.9147
  992MOL0     H30893   7.590   7.339   1.724  2.9841  2.5586 -1.4341
  992MOL0     H30894   7.591   7.423   1.874  2.5108  0.9168 -1.9127
  992MOL0     H30895   7.806   7.213   1.859 -0.5826  0.0453  0.2523
  992MOL0     H30896   7.821   7.370   1.920 -0.7740  1.1262 -0.9290
  992MOL0     H30897   7.994   7.230   1.646 -1.2507 -1.7639 -0.8993
  992MOL0     H30898   7.964   7.414   1.314  1.1144  0.7750 -0.1486
  992MOL0     H30899   8.046   7.274   1.367  1.5787  0.9158 -4.4624
  992MOL0     H30900   8.193   7.468   1.498  1.3876  1.1516 -0.4385
  992MOL0     H30901   8.137   7.556   1.361  1.6037 -0.1268 -4.3045
  992MOL0     H30902   8.300   7.296   1.348 -0.4642  0.7887  0.2613
  992MOL0     H30903   8.235   7.388   1.207 -4.9397 -1.2700  1.1688
  992MOL0     H30904   8.450   7.439   1.421  1.4438  3.7551  1.0079
  992MOL0     H30905   8.399   7.577   1.333 -1.4205 -0.4677 -1.6052
  992MOL0     H30906   8.594   7.287   1.427 -0.8355 -3.0608 -0.5611
  992MOL0     H30907   8.750   7.090   1.378  4.8779 -0.5617 -0.5988
  992MOL0     H30908   8.947   6.791   1.266 -0.3594  2.7488 -0.0156
  992MOL0     H30909   9.149   6.622   1.268 -1.6836 -1.2195  0.8653
  992MOL0     H30910   9.474   6.734   1.485 -0.0670  1.1751  0.0074
  992MOL0     H30911   9.563   6.815   1.365 -0.9925  0.3021  0.8174
  992MOL0     H30912   9.682   6.631   1.429 -0.0284  1.8376 -1.8145
  992MOL0     H30913   9.606   6.567   1.270 -2.3358 -2.5993 -0.0382
  992MOL0     H30914   9.409   6.466   1.432 -1.9993 -0.4433  2.2961
  992MOL0     H30915   9.548   6.475   1.558  3.3747 -1.0534 -1.5138
  992MOL0     H30916   9.574   6.332   1.309 -2.2683  0.8702 -0.7975
  992MOL0     H30917   9.697   6.336   1.436  0.3474 -0.4833 -0.0386
  992MOL0     H30918   9.431   6.197   1.468 -1.5775 -0.4928  2.8634
  992MOL0     H30919   9.551   6.223   1.598  1.3843 -1.4965 -0.2141
  992MOL0     H30920   9.714   6.116   1.431  1.0779 -0.6650  2.0027
  992MOL0     H30921   9.568   6.067   1.338 -3.1403 -1.1638  1.3386
  992MOL0     H30922   9.472   5.978   1.559  1.8985  1.3246  2.6574
  992MOL0     H30923   9.572   5.888   1.446  2.3530  0.0966 -0.6145
  992MOL0     H30924   9.657   5.860   1.680  1.0448 -0.6353  0.0845
  992MOL0     H30925   9.696   6.022   1.683 -0.0300 -0.8714 -0.2847
  992MOL0     H30926   9.397   6.962   1.382 -0.4361 -1.1385  0.3888
  992MOL0     H30927   9.206   7.116   1.357  1.9948 -0.8681  0.6508
  992MOL0     H30928   8.817   7.255   0.997  1.1644 -0.4474  2.5711
  992MOL0     H30929   8.634   7.403   1.018 -1.1008 -1.0974 -0.7385
  992MOL0     H30930   7.173   6.668   2.109  1.8597  3.1718  0.5062
  992MOL0     H30931   7.106   6.418   2.098  2.3579  1.0630 -3.2271
  992MOL0     H30932   7.131   6.019   2.395  2.9126  0.4470 -0.6733
  992MOL0     H30933   7.061   5.791   2.422 -0.2139 -0.0228 -0.6165
  992MOL0     H30934   6.922   5.584   2.307  0.4771  1.7358 -1.1378
  992MOL0     H30935   7.056   5.547   2.407  1.1787 -1.6292  0.4160
  992MOL0     H30936   7.146   5.363   2.262 -0.2148 -0.8501  2.3311
  992MOL0     H30937   6.981   5.338   2.322  0.6158 -2.2790 -0.4256
  992MOL0     H30938   7.055   5.450   2.044 -1.0004  1.0367 -0.8667
  992MOL0     H30939   6.881   5.424   2.105 -0.9109 -1.5323  0.6063
  992MOL0     H30940   6.988   5.250   1.941 -1.8178 -1.3067 -0.2845
  992MOL0     H30941   7.097   5.222   2.082  1.5425  3.4679 -0.8154
  992MOL0     H30942   6.707   5.037   2.094 -0.0579  0.8785  0.2903
  992MOL0     H30943   7.177   5.720   2.013  1.2697 -1.0411  1.7365
  992MOL0     H30944   7.228   5.968   1.986  1.6738  2.5732  1.8766
  993MOL0     O30945   8.545   8.003   4.009 -0.0395 -0.2999  0.3029
  993MOL0     C30946   8.600   8.100   3.957 -0.3046  0.5321 -0.3591
  993MOL0     O30947   8.578   8.140   3.824  0.0401 -0.5440  0.6988
  993MOL0     C30948   8.557   8.040   3.732  0.0604 -0.8966 -0.6546
  993MOL0     C30949   8.447   7.947   3.742  0.6293 -0.2837 -0.1987
  993MOL0     C30950   8.421   7.855   3.640 -0.2921 -0.2132  0.0656
  993MOL0     C30951   8.483   7.871   3.517 -0.4594  0.1878 -1.2894
  993MOL0     O30952   8.435   7.782   3.413  0.7617  0.1883 -0.5321
  993MOL0     C30953   8.368   7.833   3.305 -0.3920 -0.9044  0.6929
  993MOL0     C30954   8.358   7.742   3.192 -0.4796  0.8592  0.2613
  993MOL0     C30955   8.315   7.805   3.067  0.8224  0.0897  0.3773
  993MOL0     C30956   8.252   7.722   2.963  0.4147  0.4824  0.9511
  993MOL0     C30957   8.114   7.670   2.999  0.4648  0.1782 -0.0943
  993MOL0     C30958   8.111   7.534   3.077 -0.5950  0.1295  0.0449
  993MOL0     C30959   8.114   7.414   2.982 -0.4199  0.2039 -0.4463
  993MOL0     C30960   7.975   7.357   2.934 -0.1574 -1.4582 -0.0860
  993MOL0     N30961   7.903   7.277   3.036  1.0356 -0.5412  0.8254
  993MOL0     C30962   7.970   7.172   3.093  0.6386 -0.2992  0.7042
  993MOL0     C30963   7.881   7.143   3.193 -0.6675  0.1031 -1.1238
  993MOL0     C30964   7.922   7.058   3.303 -0.0129  0.1253 -0.0501
  993MOL0     C30965   7.824   7.042   3.418 -0.0450  0.5669 -0.3366
  993MOL0     C30966   7.670   7.006   3.367  0.0731 -1.0363 -0.2633
  993MOL0     C30967   7.585   6.908   3.457 -0.5307 -0.3082  0.0002
  993MOL0     O30968   7.599   6.771   3.428  0.3676  0.8049 -0.1133
  993MOL0     C30969   7.504   6.676   3.474 -0.0918  0.5590 -0.8739
  993MOL0     C30970   7.508   6.535   3.437  0.0969 -0.5576  0.4956
  993MOL0     C30971   7.433   6.439   3.507  0.5431  1.0050  0.3634
  993MOL0     C30972   7.335   6.478   3.603 -0.6028  0.1583  0.2533
  993MOL0     C30973   7.257   6.392   3.695  0.0204  0.8989  0.1258
  993MOL0     O30974   7.148   6.450   3.762 -0.5710  0.5342 -0.3754
  993MOL0     C30975   7.065   6.363   3.839  0.3516  0.1759 -0.4761
  993MOL0     C30976   7.116   6.340   3.963 -0.6036 -0.0406  0.3716
  993MOL0     C30977   7.052   6.251   4.048  0.5707  0.5268  0.5527
  993MOL0     C30978   6.941   6.184   4.014  0.9392  0.6383 -1.0731
  993MOL0     O30979   6.908   6.089   4.099  0.3405 -0.3234 -0.5443
  993MOL0     C30980   6.791   6.013   4.072  0.0782 -0.2574 -0.1739
  993MOL0     C30981   6.784   5.897   4.181 -1.0958 -0.0276 -0.3867
  993MOL0     C30982   6.653   5.821   4.168  0.2546 -0.6442  0.0576
  993MOL0     C30983   6.644   5.708   4.266  1.3450 -0.1061 -0.5121
  993MOL0     C30984   6.496   5.662   4.303 -0.1077  0.8187  0.2990
  993MOL0     C30985   6.494   5.536   4.397  0.1514 -0.9236 -1.0538
  993MOL0     C30986   6.548   5.560   4.543  0.9797  0.3658  0.7054
  993MOL0     C30987   6.544   5.435   4.633  0.1018  0.3092 -1.0320
  993MOL0    Cl30988   6.382   5.368   4.642  0.2730 -0.2312  0.5760
  993MOL0     C30989   6.883   6.209   3.888  0.1282  0.0624  0.9375
  993MOL0     C30990   6.946   6.301   3.797  0.0059  0.4353  0.0162
  993MOL0     O30991   7.283   6.270   3.696  0.0271 -0.1131  0.1649
  993MOL0     C30992   7.328   6.612   3.620 -0.8249  0.1371  0.7571
  993MOL0     C30993   7.401   6.709   3.558 -0.2130 -0.9316 -1.1464
  993MOL0     N30994   7.772   7.227   3.187 -0.0266  0.2773  0.1924
  993MOL0     N30995   7.781   7.313   3.090  0.2356  0.1631 -0.0840
  993MOL0     C30996   8.594   7.961   3.504 -0.6480 -0.1293  0.7766
  993MOL0     C30997   8.636   8.039   3.610 -0.3330 -0.4053  0.8998
  993MOL0     C30998   8.681   8.190   4.047  0.7524  1.1798  0.0489
  993MOL0     C30999   8.691   8.178   4.187  0.6144  0.6262  1.1511
  993MOL0     C31000   8.770   8.262   4.269  0.5293  1.0080 -0.3192
  993MOL0     C31001   8.827   8.376   4.215  0.3624 -0.1955  0.1949
  993MOL0     O31002   8.888   8.481   4.278  0.1421 -0.8366 -0.5346
  993MOL0     C31003   8.909   8.478   4.417  0.2912 -0.7523 -0.2212
  993MOL0     C31004   8.816   8.579   4.486 -0.4397 -0.6038  0.1862
  993MOL0     C31005   8.818   8.578   4.637 -1.0235 -0.2339  0.4675
  993MOL0     C31006   8.763   8.454   4.714  1.1989  0.3282 -0.6104
  993MOL0     C31007   8.856   8.356   4.730 -1.4253  0.9433  0.1334
  993MOL0     C31008   8.960   8.288   4.741  0.4118  0.2937  0.9968
  993MOL0     C31009   8.820   8.395   4.078 -0.9155 -1.1320  0.0105
  993MOL0     C31010   8.752   8.299   4.000 -0.6053  0.0280 -0.4484
  993MOL0     H31011   8.381   7.932   3.826  4.1384 -1.0713  2.6614
  993MOL0     H31012   8.339   7.783   3.636  2.1736 -3.1545 -0.7398
  993MOL0     H31013   8.424   7.923   3.277 -2.2754  0.7000  1.8863
  993MOL0     H31014   8.275   7.875   3.342  1.9792  2.4487  3.4862
  993MOL0     H31015   8.302   7.656   3.230  1.7111 -0.8651 -0.1979
  993MOL0     H31016   8.452   7.695   3.165  0.3395  3.7637 -2.6335
  993MOL0     H31017   8.400   7.847   3.013  1.1751 -0.0332  0.8233
  993MOL0     H31018   8.246   7.888   3.082  1.5330  0.9403 -0.9329
  993MOL0     H31019   8.251   7.787   2.875  2.3145 -2.2985 -1.3068
  993MOL0     H31020   8.297   7.627   2.931 -2.9918 -1.0664  0.2993
  993MOL0     H31021   8.054   7.656   2.909 -0.4856  0.3385  0.4983
  993MOL0     H31022   8.061   7.751   3.050  0.7081  0.2154  0.0985
  993MOL0     H31023   8.022   7.527   3.141  0.4298 -3.1317  1.3277
  993MOL0     H31024   8.193   7.521   3.147  0.2942 -0.1182 -1.0214
  993MOL0     H31025   8.162   7.447   2.890  0.2953 -2.5173 -1.1245
  993MOL0     H31026   8.172   7.340   3.037  0.3823  0.0677 -1.4490
  993MOL0     H31027   7.972   7.296   2.844  1.6586 -0.9087 -0.5772
  993MOL0     H31028   7.914   7.444   2.906 -1.8279 -2.9036 -1.1133
  993MOL0     H31029   8.057   7.111   3.073  0.3615 -1.2213  2.1801
  993MOL0     H31030   8.021   7.095   3.335  0.3026 -1.3303  0.7151
  993MOL0     H31031   7.942   6.958   3.263 -0.3602  0.4186 -0.9906
  993MOL0     H31032   7.821   7.134   3.477 -2.8737  2.8662 -3.6292
  993MOL0     H31033   7.869   6.973   3.490 -1.4637  3.1515  3.3348
  993MOL0     H31034   7.622   7.103   3.380  2.5199  0.1429  0.6856
  993MOL0     H31035   7.667   6.968   3.265 -0.0242  0.9594 -1.0443
  993MOL0     H31036   7.485   6.948   3.445 -0.2555 -0.0280 -1.4795
  993MOL0     H31037   7.622   6.914   3.560  1.7858  1.0364 -0.8245
  993MOL0     H31038   7.577   6.508   3.359  0.8832  0.7642  0.7019
  993MOL0     H31039   7.447   6.337   3.472 -0.4028  1.2612 -0.8210
  993MOL0     H31040   7.214   6.382   3.981 -0.9931  3.3748 -3.8219
  993MOL0     H31041   7.098   6.242   4.146  0.2685  1.9347  0.8521
  993MOL0     H31042   6.818   5.975   3.973  1.4534  1.3177 -0.4438
  993MOL0     H31043   6.699   6.071   4.061  1.4206  1.8611 -0.6564
  993MOL0     H31044   6.795   5.936   4.283 -0.7352  0.3910 -0.5822
  993MOL0     H31045   6.870   5.830   4.171  0.5250  0.9855  4.2581
  993MOL0     H31046   6.638   5.775   4.069  3.8669  1.7393 -1.8091
  993MOL0     H31047   6.575   5.898   4.167 -1.0478 -1.7968 -3.5110
  993MOL0     H31048   6.687   5.613   4.233 -2.8507 -2.7145  0.6785
  993MOL0     H31049   6.690   5.742   4.359 -1.8004  0.6659  0.9210
  993MOL0     H31050   6.421   5.645   4.225  0.2549 -0.6411  0.2482
  993MOL0     H31051   6.449   5.744   4.358 -1.3463  1.4153 -1.5690
  993MOL0     H31052   6.554   5.457   4.350  1.1295 -1.2424  0.6402
  993MOL0     H31053   6.395   5.492   4.415 -0.4006  0.8204  0.4277
  993MOL0     H31054   6.651   5.594   4.527  1.0760 -0.3271 -0.2329
  993MOL0     H31055   6.501   5.640   4.601 -0.3707 -1.2746  2.0286
  993MOL0     H31056   6.577   5.470   4.731 -1.2923  0.2504 -0.5270
  993MOL0     H31057   6.617   5.364   4.592 -0.1917 -1.3148  1.0610
  993MOL0     H31058   6.781   6.176   3.868 -0.6393  3.2674 -1.2465
  993MOL0     H31059   6.896   6.331   3.705  0.7315 -2.8235 -1.5957
  993MOL0     H31060   7.250   6.651   3.685 -0.4029  2.6171 -0.1226
  993MOL0     H31061   7.390   6.812   3.590 -1.3926 -2.0330  2.6106
  993MOL0     H31062   8.642   7.972   3.407 -0.7886 -3.1328  0.2524
  993MOL0     H31063   8.725   8.101   3.600 -1.1333  0.7040  0.4414
  993MOL0     H31064   8.653   8.086   4.229  2.2299 -1.2501 -1.2127
  993MOL0     H31065   8.773   8.242   4.376  0.3879 -0.7483 -0.6020
  993MOL0     H31066   9.010   8.517   4.427 -0.7485  2.0165  0.4347
  993MOL0     H31067   8.910   8.378   4.462  2.8832 -0.4585  0.4974
  993MOL0     H31068   8.845   8.682   4.463 -0.2925 -1.1337 -2.2549
  993MOL0     H31069   8.713   8.557   4.456  0.2816  0.0745 -3.1987
  993MOL0     H31070   8.758   8.666   4.665  2.0496  3.3048 -2.8653
  993MOL0     H31071   8.917   8.605   4.673 -0.5577  0.2334 -1.1126
  993MOL0     H31072   8.738   8.490   4.814 -1.1302 -0.4724 -0.8467
  993MOL0     H31073   8.671   8.414   4.670 -0.4613 -2.6283  4.7444
  993MOL0     H31074   9.056   8.248   4.716  0.0564 -0.7106  1.1971
  993MOL0     H31075   8.871   8.481   4.036  2.0389 -1.2394  2.9740
  993MOL0     H31076   8.754   8.320   3.894 -2.1106 -0.4747 -0.6018
  994MOL0     O31077   5.009   9.535   2.478  0.1983 -0.2931  0.5644
  994MOL0     C31078   5.067   9.528   2.590  0.0807  0.1119  0.6474
  994MOL0     O31079   5.144   9.623   2.646  0.5322  0.4787  0.0523
  994MOL0     C31080   5.155   9.745   2.589  0.1807 -0.9272 -0.1744
  994MOL0     C31081   5.291   9.793   2.563 -0.5503 -0.9667  0.0487
  994MOL0     C31082   5.310   9.916   2.502  0.0823  1.0482 -0.9740
  994MOL0     C31083   5.198   9.997   2.485  0.7641 -0.0595  0.3871
  994MOL0     O31084   5.210  10.133   2.440  0.2789  0.1795  0.0516
  994MOL0     C31085   5.333  10.169   2.380  0.1441  0.6472 -0.5736
  994MOL0     C31086   5.323  10.306   2.310 -0.9307 -0.1131 -0.7852
  994MOL0     C31087   5.441  10.331   2.222  0.9161 -0.0983  0.5757
  994MOL0     C31088   5.582  10.344   2.287  0.4909 -0.1533 -0.4068
  994MOL0     C31089   5.662  10.434   2.187  0.1534  0.4003 -0.9981
  994MOL0     C31090   5.663  10.390   2.049 -0.5552 -0.9403 -0.1716
  994MOL0     C31091   5.724  10.257   2.034 -0.2642  0.1988  0.3304
  994MOL0     C31092   5.780  10.228   1.900  0.2417 -0.8833  1.2278
  994MOL0     N31093   5.787  10.086   1.864  0.0553  0.5420  0.0060
  994MOL0     C31094   5.716  10.007   1.776 -0.2673 -0.1599 -0.1359
  994MOL0     C31095   5.798   9.904   1.746  0.3196 -0.5704  0.3543
  994MOL0     C31096   5.770   9.785   1.649 -0.1667 -0.0130 -0.0855
  994MOL0     C31097   5.708   9.662   1.707  0.5324 -0.3379  0.2174
  994MOL0     C31098   5.787   9.584   1.808  0.4946 -0.7736  0.1701
  994MOL0     C31099   5.699   9.472   1.867 -0.6369 -0.8377  0.3316
  994MOL0     O31100   5.760   9.436   1.988 -0.1647  0.3244  0.8248
  994MOL0     C31101   5.833   9.320   1.980  0.6997  0.6579 -0.4599
  994MOL0     C31102   5.855   9.234   1.870  1.0147  0.4696 -0.4881
  994MOL0     C31103   5.889   9.097   1.893 -0.4098 -0.3525  0.7472
  994MOL0     C31104   5.917   9.045   2.017  0.6467  0.3478  0.0050
  994MOL0     C31105   5.957   8.900   2.037  0.1493 -0.2005  0.1082
  994MOL0     O31106   5.947   8.820   1.914 -1.0475  0.2989  0.0183
  994MOL0     C31107   5.971   8.686   1.938  0.1991 -0.0417 -0.0671
  994MOL0     C31108   5.877   8.592   1.909  0.2736 -0.4845 -0.0883
  994MOL0     C31109   5.894   8.453   1.931 -0.0079 -0.8259  0.4251
  994MOL0     C31110   6.020   8.415   1.993  0.0826  0.4745  0.0465
  994MOL0     O31111   6.038   8.281   2.036 -0.5007  1.0056  0.0671
  994MOL0     C31112   6.150   8.254   2.119  0.3135  0.0619 -0.8849
  994MOL0     C31113   6.148   8.108   2.181  0.2424 -0.8062 -0.5911
  994MOL0     C31114   6.171   7.999   2.079 -0.9030 -0.5042  0.2260
  994MOL0     C31115   6.238   7.864   2.137 -0.4435 -1.0360 -0.0405
  994MOL0     C31116   6.123   7.777   2.212 -0.6756 -0.2349  1.0565
  994MOL0     C31117   6.202   7.690   2.313 -0.6011  0.2957 -0.2265
  994MOL0     C31118   6.240   7.749   2.449 -0.4268 -0.6348  0.2709
  994MOL0     C31119   6.282   7.640   2.551  0.7640 -0.0981  1.1040
  994MOL0    Cl31120   6.407   7.532   2.494  0.0751  0.2136 -0.1665
  994MOL0     C31121   6.122   8.506   2.016  1.4134 -0.0207  0.0670
  994MOL0     C31122   6.092   8.639   1.985 -0.0909 -0.7036  0.2492
  994MOL0     O31123   5.982   8.854   2.147  1.1129  0.2784  0.5819
  994MOL0     C31124   5.904   9.134   2.126  0.2981 -1.1420  0.2282
  994MOL0     C31125   5.859   9.266   2.106 -0.3760  0.1155  0.2295
  994MOL0     N31126   5.911   9.919   1.825  1.8753  0.2107 -0.2082
  994MOL0     N31127   5.904  10.025   1.894 -0.6138 -0.1175 -0.0208
  994MOL0     C31128   5.066   9.953   2.505  0.2282 -0.7048  0.1010
  994MOL0     C31129   5.045   9.828   2.555 -0.4949  0.2569 -0.4789
  994MOL0     C31130   5.042   9.408   2.674 -0.2237  0.5463  0.1666
  994MOL0     C31131   4.935   9.325   2.634 -0.3708  0.7377  0.8080
  994MOL0     C31132   4.888   9.218   2.701  0.4939  0.6999 -0.5117
  994MOL0     C31133   4.964   9.176   2.812  0.2442 -0.2899  0.0533
  994MOL0     O31134   4.940   9.066   2.891 -0.5484  0.9287  0.5535
  994MOL0     C31135   4.821   8.996   2.884  0.4651 -0.7860  0.1563
  994MOL0     C31136   4.790   8.908   3.010 -0.1206  1.0501 -1.0016
  994MOL0     C31137   4.893   8.802   3.036  0.0696 -0.2698 -0.2321
  994MOL0     C31138   4.864   8.704   3.148  0.1220  0.4029  0.1234
  994MOL0     C31139   4.742   8.634   3.144 -0.3956 -0.5950  0.2779
  994MOL0     C31140   4.645   8.569   3.159  0.4712 -0.4631 -1.0821
  994MOL0     C31141   5.078   9.252   2.844  0.0325  0.1134 -0.4036
  994MOL0     C31142   5.114   9.371   2.785 -0.4653  0.1030 -0.3614
  994MOL0     H31143   5.361   9.711   2.579 -0.9018 -1.9108 -2.7622
  994MOL0     H31144   5.411   9.931   2.466  1.5077 -4.9652 -0.6317
  994MOL0     H31145   5.357  10.098   2.300 -2.8572  0.7146 -1.6670
  994MOL0     H31146   5.418  10.165   2.449  0.2803  2.0128 -0.6338
  994MOL0     H31147   5.323  10.392   2.376 -0.0192  0.0575 -0.9862
  994MOL0     H31148   5.226  10.315   2.260  0.0745 -1.0187 -3.0526
  994MOL0     H31149   5.415  10.422   2.167  3.1415  1.5541  2.0599
  994MOL0     H31150   5.458  10.253   2.147  2.4764  2.5342 -2.0710
  994MOL0     H31151   5.582  10.402   2.379 -1.7637 -0.8673  0.1115
  994MOL0     H31152   5.624  10.247   2.315 -0.3453 -0.7536 -1.1724
  994MOL0     H31153   5.762  10.429   2.230  0.3486  0.1532 -1.4708
  994MOL0     H31154   5.620  10.535   2.189  1.0152  0.7521 -0.1135
  994MOL0     H31155   5.732  10.455   1.994  1.4456 -3.8753 -1.3696
  994MOL0     H31156   5.563  10.408   2.008 -1.0310  2.0552  1.9986
  994MOL0     H31157   5.802  10.245   2.110  0.6640  1.4079 -0.3845
  994MOL0     H31158   5.648  10.182   2.056  2.0510 -1.7292  2.2928
  994MOL0     H31159   5.875  10.275   1.871 -1.0834  0.0898 -2.0152
  994MOL0     H31160   5.708  10.278   1.835  2.5208 -0.2518 -0.9462
  994MOL0     H31161   5.618  10.016   1.730  0.2226 -0.1396 -1.2142
  994MOL0     H31162   5.863   9.744   1.608  0.4363 -0.3383  1.5080
  994MOL0     H31163   5.700   9.814   1.571 -0.5065 -1.1360 -0.2114
  994MOL0     H31164   5.681   9.594   1.625  0.8253  0.3794 -0.4947
  994MOL0     H31165   5.612   9.691   1.750  0.4870 -4.1961  3.2735
  994MOL0     H31166   5.874   9.541   1.759  0.1337 -1.3025 -0.0140
  994MOL0     H31167   5.827   9.634   1.897 -0.3141 -0.5222  0.4041
  994MOL0     H31168   5.679   9.392   1.796  1.6053 -2.3938  1.3512
  994MOL0     H31169   5.598   9.501   1.900 -0.4531 -0.3338  0.4563
  994MOL0     H31170   5.830   9.243   1.765 -2.3452 -1.5597 -0.0189
  994MOL0     H31171   5.894   9.031   1.807  0.4444 -2.0969  2.0787
  994MOL0     H31172   5.777   8.620   1.879  0.0832 -2.2005 -1.1971
  994MOL0     H31173   5.811   8.389   1.903 -2.7765  2.7960 -0.4109
  994MOL0     H31174   6.164   8.328   2.198  4.4220  3.4715 -4.3117
  994MOL0     H31175   6.248   8.258   2.071  2.3020 -2.5651  2.4590
  994MOL0     H31176   6.045   8.102   2.217  0.1796 -0.0006 -0.6262
  994MOL0     H31177   6.214   8.103   2.268  0.1357  1.0986 -0.3538
  994MOL0     H31178   6.250   8.044   2.019 -0.1437 -0.5284  1.1915
  994MOL0     H31179   6.085   7.978   2.014 -0.8602  0.4090 -0.1354
  994MOL0     H31180   6.273   7.811   2.048  1.5573 -0.5550  0.4008
  994MOL0     H31181   6.329   7.879   2.197 -0.7908 -0.6331  0.3946
  994MOL0     H31182   6.079   7.720   2.130 -1.3255  4.3179 -2.1161
  994MOL0     H31183   6.046   7.833   2.265  0.4763  0.1495  2.4000
  994MOL0     H31184   6.291   7.647   2.265 -1.6846 -1.1155 -1.0582
  994MOL0     H31185   6.130   7.613   2.341  0.0702  0.0605  0.9308
  994MOL0     H31186   6.333   7.806   2.438  0.8060 -1.9561  2.9018
  994MOL0     H31187   6.159   7.815   2.482 -0.8214 -1.1504  0.3428
  994MOL0     H31188   6.198   7.571   2.563 -0.8729  0.5290 -4.2959
  994MOL0     H31189   6.311   7.673   2.651  1.7300 -0.3956  0.9329
  994MOL0     H31190   6.223   8.488   2.051  1.5962 -1.0074 -0.9038
  994MOL0     H31191   6.164   8.720   1.995  0.5820 -1.0468 -1.4330
  994MOL0     H31192   5.933   9.090   2.221  3.0316 -0.1971 -0.0736
  994MOL0     H31193   5.850   9.317   2.201 -0.3682 -1.9986  1.4442
  994MOL0     H31194   4.982  10.012   2.471 -0.5713 -1.3997  0.8143
  994MOL0     H31195   4.946   9.793   2.584  0.9734 -4.0662  0.0819
  994MOL0     H31196   4.876   9.357   2.549  0.6589  3.5683  1.0159
  994MOL0     H31197   4.811   9.155   2.659  0.6048 -0.1468  0.5287
  994MOL0     H31198   4.826   8.928   2.798 -1.4986  1.3375 -1.7689
  994MOL0     H31199   4.741   9.071   2.878  2.1075  0.9954 -0.6327
  994MOL0     H31200   4.762   8.967   3.098 -1.3832 -0.7490 -0.1477
  994MOL0     H31201   4.698   8.861   2.974 -0.6755  2.5708 -1.6609
  994MOL0     H31202   4.974   8.866   3.073 -0.9589  1.2994 -0.6013
  994MOL0     H31203   4.924   8.745   2.948  0.0229  1.3753 -1.3604
  994MOL0     H31204   4.935   8.622   3.145 -1.5330 -1.0741 -1.2736
  994MOL0     H31205   4.868   8.756   3.244  1.2964  0.1284  0.2353
  994MOL0     H31206   4.564   8.509   3.196  0.3073  0.0821 -0.5542
  994MOL0     H31207   5.146   9.209   2.917  0.4557  0.3103 -0.6714
  994MOL0     H31208   5.199   9.418   2.833  0.2615 -1.3393 -0.2046
  995MOL0     O31209   3.461   9.888   5.586 -0.3566 -0.1627 -0.1025
  995MOL0     C31210   3.545   9.948   5.657  0.1749  0.2695  0.7066
  995MOL0     O31211   3.636   9.884   5.731 -0.5556 -0.2318 -0.2640
  995MOL0     C31212   3.638   9.743   5.731  0.2918 -0.2730  0.3947
  995MOL0     C31213   3.617   9.674   5.851  0.2799  0.1906  0.5801
  995MOL0     C31214   3.645   9.534   5.860  0.3500  0.2830  0.0120
  995MOL0     C31215   3.667   9.458   5.746  0.6395 -0.1139 -0.0238
  995MOL0     O31216   3.672   9.318   5.749 -0.0658 -0.0561 -1.0800
  995MOL0     C31217   3.671   9.247   5.619 -0.2778 -0.7676 -1.4916
  995MOL0     C31218   3.680   9.098   5.632  0.4757 -0.4676 -0.0850
  995MOL0     C31219   3.575   9.019   5.712 -0.4283 -0.4550 -0.1203
  995MOL0     C31220   3.569   8.868   5.667  0.0172  0.3893 -0.5571
  995MOL0     C31221   3.487   8.778   5.753  0.1238 -0.8704  0.7600
  995MOL0     C31222   3.490   8.641   5.700  0.6635 -0.3121  0.5341
  995MOL0     C31223   3.414   8.568   5.805 -0.6238 -0.1443 -0.2544
  995MOL0     C31224   3.361   8.432   5.748  0.5193  0.0897 -1.4135
  995MOL0     N31225   3.283   8.362   5.858 -0.3080  1.1666 -0.1133
  995MOL0     C31226   3.176   8.413   5.931 -1.4187 -0.1388  0.6044
  995MOL0     C31227   3.119   8.308   5.990  0.0958  0.2327  0.2498
  995MOL0     C31228   3.027   8.303   6.101  0.7132 -0.3657  0.1854
  995MOL0     C31229   2.891   8.332   6.038  0.1610 -0.3249  0.2645
  995MOL0     C31230   2.884   8.492   6.026 -0.3448  0.3866  0.2879
  995MOL0     C31231   2.757   8.547   6.020  0.4853  1.4825 -0.6765
  995MOL0     O31232   2.698   8.583   6.150 -0.1439 -0.0173  0.5399
  995MOL0     C31233   2.696   8.718   6.188  0.5805  0.3356  0.7186
  995MOL0     C31234   2.583   8.752   6.262 -0.1040 -1.0889 -0.1669
  995MOL0     C31235   2.576   8.884   6.309  0.9079  0.3079 -0.5493
  995MOL0     C31236   2.685   8.974   6.299  0.3173  0.3787 -0.8559
  995MOL0     C31237   2.668   9.112   6.351 -0.6898  1.2576 -0.9055
  995MOL0     O31238   2.745   9.207   6.285  0.3575 -0.4278 -0.8656
  995MOL0     C31239   2.734   9.339   6.337 -0.5194  0.5853  0.4614
  995MOL0     C31240   2.839   9.380   6.417 -0.7124  0.9800  0.4532
  995MOL0     C31241   2.852   9.513   6.472  0.7232  0.0545  0.4272
  995MOL0     C31242   2.741   9.594   6.462  1.3016  0.8121 -0.9634
  995MOL0     O31243   2.727   9.720   6.531 -0.7757  0.0455  0.0078
  995MOL0     C31244   2.856   9.790   6.540  0.2000 -0.5069 -0.1450
  995MOL0     C31245   2.827   9.945   6.528 -0.0885  0.6377 -0.1724
  995MOL0     C31246   2.948  10.031   6.521  0.9382  1.6641  0.4643
  995MOL0     C31247   2.905  10.178   6.477 -0.5074  0.0500  0.3565
  995MOL0     C31248   3.021  10.278   6.430 -0.3088  0.5873  0.4286
  995MOL0     C31249   2.965  10.394   6.343  0.0255 -0.2210 -1.5700
  995MOL0     C31250   2.871  10.481   6.418 -0.0019  0.7881  0.1838
  995MOL0     C31251   2.728  10.454   6.374  1.2188  0.2209  0.0237
  995MOL0    Cl31252   2.607  10.565   6.436 -0.1700  0.0446  0.0293
  995MOL0     C31253   2.628   9.551   6.384 -0.3975 -0.8077 -0.1087
  995MOL0     C31254   2.628   9.427   6.319  0.4332  0.1194 -1.1646
  995MOL0     O31255   2.581   9.130   6.441 -0.4915 -1.3842 -0.3371
  995MOL0     C31256   2.782   8.939   6.211  1.4269  0.2464  0.0802
  995MOL0     C31257   2.787   8.807   6.157  0.6407 -0.3515  0.1899
  995MOL0     N31258   3.193   8.198   5.948  0.6729  1.0572 -0.0322
  995MOL0     N31259   3.276   8.222   5.863 -0.4138  0.0282  0.2596
  995MOL0     C31260   3.676   9.537   5.627 -1.1125  0.7529 -0.6522
  995MOL0     C31261   3.670   9.674   5.616  1.1385 -0.4922 -0.3038
  995MOL0     C31262   3.524  10.092   5.670 -0.2424  0.4454 -0.8385
  995MOL0     C31263   3.436  10.166   5.589  0.6529  0.2031  0.5762
  995MOL0     C31264   3.428  10.301   5.593  0.7256  0.9164 -0.3802
  995MOL0     C31265   3.496  10.367   5.701  0.0047  0.3172  0.3828
  995MOL0     O31266   3.482  10.496   5.749  0.6628  0.3116 -0.1452
  995MOL0     C31267   3.391  10.590   5.682  0.4965  0.1440 -0.4362
  995MOL0     C31268   3.385  10.721   5.744  0.1516  0.7393  0.1059
  995MOL0     C31269   3.517  10.790   5.753 -0.4897 -0.8994  0.1574
  995MOL0     C31270   3.540  10.890   5.865 -0.0673 -0.0183 -0.9276
  995MOL0     C31271   3.577  10.820   5.985  0.1810  0.3779 -0.0196
  995MOL0     C31272   3.621  10.737   6.064 -0.2051 -0.3348 -0.2971
  995MOL0     C31273   3.578  10.289   5.798 -0.6303  0.3753 -0.2176
  995MOL0     C31274   3.589  10.152   5.773  0.0646 -0.3838 -0.3599
  995MOL0     H31275   3.588   9.738   5.934  0.8196 -0.2519  1.1260
  995MOL0     H31276   3.620   9.477   5.949 -2.6027  1.0601 -0.2370
  995MOL0     H31277   3.770   9.270   5.579  1.2173 -1.5348  1.4554
  995MOL0     H31278   3.582   9.287   5.570 -1.4645  0.1843  1.2150
  995MOL0     H31279   3.781   9.065   5.658 -0.4546 -4.2672 -0.7336
  995MOL0     H31280   3.674   9.079   5.524 -0.2496  1.5946 -0.4509
  995MOL0     H31281   3.480   9.071   5.701  0.0796  0.4534 -0.3168
  995MOL0     H31282   3.597   9.025   5.819  1.7924  3.0727 -0.6003
  995MOL0     H31283   3.519   8.871   5.570  0.4261  1.4615 -0.7484
  995MOL0     H31284   3.665   8.817   5.658 -1.0975 -2.1000  0.6641
  995MOL0     H31285   3.381   8.807   5.757 -0.2485 -2.0625  5.2485
  995MOL0     H31286   3.527   8.785   5.855 -0.5715 -1.1141  1.0607
  995MOL0     H31287   3.588   8.593   5.689  1.3626  1.4052 -1.3175
  995MOL0     H31288   3.443   8.632   5.602 -1.4027 -2.8914  1.6605
  995MOL0     H31289   3.486   8.547   5.885  0.8485 -0.5900 -1.6501
  995MOL0     H31290   3.330   8.627   5.841  0.8572  0.9095  1.6507
  995MOL0     H31291   3.444   8.370   5.714  2.4268  1.6671  0.0898
  995MOL0     H31292   3.293   8.439   5.662  0.0218  0.5702 -0.9925
  995MOL0     H31293   3.160   8.519   5.949 -4.7408 -0.1333 -1.5855
  995MOL0     H31294   3.057   8.376   6.178  1.2624 -1.5031  1.0827
  995MOL0     H31295   3.023   8.208   6.155 -2.2699  0.4574  1.6415
  995MOL0     H31296   2.813   8.294   6.105 -0.6747  0.1658 -0.4123
  995MOL0     H31297   2.856   8.280   5.948 -1.7560  2.7906 -0.9389
  995MOL0     H31298   2.942   8.543   6.104  0.7352  2.1127 -1.5517
  995MOL0     H31299   2.938   8.525   5.937 -0.8819  2.7199  0.7518
  995MOL0     H31300   2.690   8.480   5.966 -0.6677  0.3894  1.9016
  995MOL0     H31301   2.761   8.641   5.963 -1.5218  0.8119 -2.0374
  995MOL0     H31302   2.499   8.689   6.288 -2.6194  2.0413 -0.0947
  995MOL0     H31303   2.486   8.913   6.363  0.5701 -0.4034 -0.7171
  995MOL0     H31304   2.913   9.305   6.444 -1.1892  0.9135  1.6541
  995MOL0     H31305   2.938   9.549   6.529  1.3813 -0.0655 -0.4764
  995MOL0     H31306   2.934   9.781   6.464  2.6625  4.0033  1.4578
  995MOL0     H31307   2.903   9.792   6.638 -0.3492  0.2508  0.1196
  995MOL0     H31308   2.761   9.963   6.613  2.2601 -4.3506  3.1955
  995MOL0     H31309   2.767   9.958   6.437  1.1840 -1.6902 -1.4459
  995MOL0     H31310   3.004   9.984   6.440 -2.3355 -0.0850 -0.9917
  995MOL0     H31311   3.005  10.026   6.614 -0.8124  1.6713  1.5919
  995MOL0     H31312   2.831  10.165   6.397 -0.7125 -3.6459  0.9889
  995MOL0     H31313   2.849  10.231   6.555  0.8922  1.1309  0.6772
  995MOL0     H31314   3.096  10.217   6.379  3.6645 -0.0463  6.0871
  995MOL0     H31315   3.079  10.317   6.514  1.7988  0.5058 -0.9196
  995MOL0     H31316   2.928  10.361   6.245  0.4019  2.1914 -2.5906
  995MOL0     H31317   3.053  10.457   6.328  1.4083 -1.4962  0.6815
  995MOL0     H31318   2.870  10.461   6.525  0.2794 -3.5108 -0.4035
  995MOL0     H31319   2.894  10.586   6.397 -1.9853  1.7020  2.2015
  995MOL0     H31320   2.691  10.352   6.389 -0.9935  0.7781 -1.2326
  995MOL0     H31321   2.715  10.468   6.266 -4.4914 -0.4018  0.3215
  995MOL0     H31322   2.544   9.619   6.379  1.5820  1.7286 -0.8982
  995MOL0     H31323   2.540   9.392   6.266 -0.8829 -0.0110  0.9715
  995MOL0     H31324   2.846   9.013   6.165  0.6513  2.4252  2.3111
  995MOL0     H31325   2.865   8.783   6.085  0.4417 -1.3000  0.2721
  995MOL0     H31326   3.696   9.492   5.530 -0.4022 -2.8789  1.0143
  995MOL0     H31327   3.696   9.718   5.520  1.6016 -3.3048 -1.5813
  995MOL0     H31328   3.400  10.120   5.497  1.8190  1.0284 -0.3331
  995MOL0     H31329   3.354  10.343   5.524  0.8982  2.3142  0.2570
  995MOL0     H31330   3.288  10.555   5.698 -0.5753  3.3577  0.4379
  995MOL0     H31331   3.395  10.596   5.573 -1.5926 -1.2814 -0.6699
  995MOL0     H31332   3.306  10.777   5.693  1.3010  0.3335 -2.2500
  995MOL0     H31333   3.345  10.691   5.842  0.0257  0.4412 -0.0346
  995MOL0     H31334   3.545  10.844   5.663 -2.1505 -1.3076 -0.6317
  995MOL0     H31335   3.585  10.704   5.759 -1.0688 -1.6369 -2.6276
  995MOL0     H31336   3.617  10.960   5.831  0.3216 -0.5593 -1.1695
  995MOL0     H31337   3.454  10.956   5.878 -0.4619  0.1375 -3.6564
  995MOL0     H31338   3.655  10.663   6.132 -0.2150  1.5789  1.9187
  995MOL0     H31339   3.638  10.347   5.867 -0.5268  1.5758 -1.2809
  995MOL0     H31340   3.670  10.099   5.821  3.2952  2.4869 -2.2499
  996MOL0     O31341   9.268   3.064   9.334 -0.8025  1.0400 -0.0850
  996MOL0     C31342   9.237   3.188   9.339 -0.2408 -0.5449  0.1943
  996MOL0     O31343   9.107   3.231   9.346  0.7196 -0.0300 -0.4123
  996MOL0     C31344   9.004   3.171   9.286  1.0041  1.1008 -0.4256
  996MOL0     C31345   9.021   3.092   9.177  0.3619  0.3373 -0.9785
  996MOL0     C31346   8.914   3.009   9.126  0.0215 -0.2994 -0.0648
  996MOL0     C31347   8.788   3.014   9.182 -0.8132 -0.0534  1.4311
  996MOL0     O31348   8.697   2.925   9.123  0.3489  0.2572  0.4233
  996MOL0     C31349   8.565   2.927   9.192 -0.0348  0.0049  0.1178
  996MOL0     C31350   8.465   2.847   9.096 -0.4433  0.3156  0.0125
  996MOL0     C31351   8.318   2.849   9.153 -0.3836  0.7196  0.6755
  996MOL0     C31352   8.211   2.864   9.044  0.1720  0.0370  0.7066
  996MOL0     C31353   8.073   2.829   9.093 -0.4070 -0.0978 -0.3021
  996MOL0     C31354   7.958   2.838   8.987  0.0030  0.2617 -1.1526
  996MOL0     C31355   7.902   2.977   8.983  0.2395 -0.4930  0.7452
  996MOL0     C31356   7.769   2.980   8.896 -0.2784 -0.3832  0.8145
  996MOL0     N31357   7.717   3.126   8.903  0.2392  0.1577  0.6417
  996MOL0     C31358   7.660   3.196   8.798 -0.7559 -0.1316 -0.5682
  996MOL0     C31359   7.616   3.313   8.848  0.7938  0.2811  0.7525
  996MOL0     C31360   7.553   3.422   8.762 -0.2601 -0.3364  0.5660
  996MOL0     C31361   7.408   3.391   8.741  0.9424 -0.6597 -0.2819
  996MOL0     C31362   7.336   3.386   8.871  0.3521  0.5509  0.9079
  996MOL0     C31363   7.190   3.413   8.871  0.8242 -0.3481 -0.6729
  996MOL0     O31364   7.124   3.301   8.812 -0.3730  0.0171  0.9240
  996MOL0     C31365   6.984   3.309   8.777 -0.1192  0.3180  0.1770
  996MOL0     C31366   6.934   3.191   8.710 -0.0740 -1.1638 -0.3732
  996MOL0     C31367   6.801   3.175   8.693 -0.4726 -0.4833  0.4012
  996MOL0     C31368   6.710   3.277   8.729 -0.4210  0.5554 -0.5378
  996MOL0     C31369   6.572   3.247   8.692 -0.5726 -0.7424 -0.7850
  996MOL0     O31370   6.488   3.351   8.722 -0.4581  0.3733 -0.0125
  996MOL0     C31371   6.355   3.329   8.720 -0.1893 -0.0014 -0.2790
  996MOL0     C31372   6.278   3.321   8.606 -0.8989 -0.9077  1.1224
  996MOL0     C31373   6.137   3.301   8.616 -0.5797 -0.1165  0.6301
  996MOL0     C31374   6.081   3.273   8.744 -0.2016  0.1995  0.2669
  996MOL0     O31375   5.948   3.234   8.758 -1.2905 -0.3000 -0.4290
  996MOL0     C31376   5.888   3.173   8.639  0.3948 -0.1649 -0.8258
  996MOL0     C31377   5.741   3.136   8.644 -0.9955 -0.4542  0.3058
  996MOL0     C31378   5.634   3.241   8.658  0.3904  0.1259  0.4534
  996MOL0     C31379   5.670   3.344   8.764  0.1654  0.6572  0.2533
  996MOL0     C31380   5.575   3.463   8.787  0.0451  0.7123 -0.2405
  996MOL0     C31381   5.429   3.424   8.786  0.0986 -0.4091  0.1867
  996MOL0     C31382   5.349   3.473   8.913 -0.1388  0.3623  0.6472
  996MOL0     C31383   5.351   3.358   9.021 -0.3365 -0.4144 -0.1128
  996MOL0    Cl31384   5.281   3.431   9.174 -0.5215 -0.1902 -0.0834
  996MOL0     C31385   6.150   3.286   8.864 -0.1646 -0.4997  0.0849
  996MOL0     C31386   6.288   3.303   8.851 -0.2904  0.3048  1.0213
  996MOL0     O31387   6.543   3.136   8.640 -0.3070 -0.0926 -0.1458
  996MOL0     C31388   6.747   3.396   8.795 -0.1188 -0.2304 -0.7617
  996MOL0     C31389   6.884   3.401   8.822  0.3482 -0.2519  0.3012
  996MOL0     N31390   7.636   3.304   8.985  0.3093 -0.2274  0.2861
  996MOL0     N31391   7.694   3.200   9.015  0.1295 -0.5255  0.3288
  996MOL0     C31392   8.770   3.106   9.292  0.1555 -0.4532  0.0799
  996MOL0     C31393   8.875   3.188   9.336  0.2970  0.8675 -0.3436
  996MOL0     C31394   9.350   3.293   9.346  0.1390 -0.1779 -1.2976
  996MOL0     C31395   9.479   3.265   9.300 -0.5706 -0.2728 -1.4087
  996MOL0     C31396   9.580   3.369   9.317 -0.1206  0.7133 -0.7502
  996MOL0     C31397   9.539   3.495   9.361  1.1567 -0.4533  0.1547
  996MOL0     O31398   9.638   3.583   9.394  1.1967  0.5875 -0.3241
  996MOL0     C31399   9.618   3.704   9.469 -0.4272 -0.3280 -0.5584
  996MOL0     C31400   9.605   3.683   9.621 -0.2859  0.6379  0.1575
  996MOL0     C31401   9.734   3.731   9.702  0.0997 -1.3821  0.0810
  996MOL0     C31402   9.724   3.667   9.832 -1.0929  0.2357 -0.3659
  996MOL0     C31403   9.807   3.730   9.933 -0.6402 -0.7670 -0.3475
  996MOL0     C31404   9.873   3.752  10.040 -0.4668 -0.4290 -0.0848
  996MOL0     C31405   9.411   3.520   9.401  0.8819 -0.3229  0.1281
  996MOL0     C31406   9.317   3.423   9.398  0.2297  0.4541 -0.2082
  996MOL0     H31407   9.118   3.109   9.132  0.5115 -0.9975 -1.1873
  996MOL0     H31408   8.928   2.950   9.036  2.1501  0.7345 -0.4755
  996MOL0     H31409   8.531   3.031   9.193  1.7564  0.6262  1.0607
  996MOL0     H31410   8.567   2.898   9.297  2.1328 -1.0096 -0.1415
  996MOL0     H31411   8.503   2.747   9.075 -0.0417 -0.1846  2.8322
  996MOL0     H31412   8.460   2.896   8.998 -2.1261 -1.2897 -0.7651
  996MOL0     H31413   8.301   2.932   9.222  2.0431  1.4832  0.4469
  996MOL0     H31414   8.312   2.754   9.207 -1.1796 -0.4990 -1.4408
  996MOL0     H31415   8.205   2.963   8.998 -0.9829 -0.2080  0.3088
  996MOL0     H31416   8.224   2.793   8.962 -2.0017  0.6783 -0.2627
  996MOL0     H31417   8.054   2.897   9.176 -0.0061  1.2569 -1.2789
  996MOL0     H31418   8.078   2.730   9.139 -2.2378 -0.0676  0.0116
  996MOL0     H31419   7.873   2.778   9.020  0.0380  0.3239 -0.9511
  996MOL0     H31420   7.991   2.808   8.887 -0.8255 -0.5032 -1.2116
  996MOL0     H31421   7.877   3.011   9.084  0.0854  2.4142 -0.1877
  996MOL0     H31422   7.969   3.051   8.939 -0.3736  0.1951  0.9502
  996MOL0     H31423   7.684   2.919   8.927 -0.8479  0.0984  0.2482
  996MOL0     H31424   7.791   2.950   8.793 -0.3109  0.0684  0.6724
  996MOL0     H31425   7.660   3.149   8.701  1.6329 -0.8807 -0.2568
  996MOL0     H31426   7.606   3.416   8.667 -1.9310 -3.5578 -0.3121
  996MOL0     H31427   7.559   3.524   8.801 -0.7392 -0.6981  1.6056
  996MOL0     H31428   7.398   3.297   8.685  1.5612  1.1848 -3.7768
  996MOL0     H31429   7.361   3.457   8.668 -1.9562 -1.2195  0.9193
  996MOL0     H31430   7.347   3.285   8.910  0.6322  0.8820  1.7232
  996MOL0     H31431   7.385   3.450   8.946  0.9523  1.7850 -0.4787
  996MOL0     H31432   7.173   3.511   8.826  0.1686  0.8446  1.9427
  996MOL0     H31433   7.151   3.437   8.971 -0.6127 -2.6210 -0.6084
  996MOL0     H31434   7.007   3.114   8.688  1.8284 -0.2868  2.3100
  996MOL0     H31435   6.767   3.084   8.645  0.2956 -0.0738 -0.9844
  996MOL0     H31436   6.328   3.334   8.510 -1.9294 -0.4988  0.6283
  996MOL0     H31437   6.089   3.299   8.519 -0.6547  1.2321  0.6222
  996MOL0     H31438   5.961   3.100   8.602  2.3899  0.1407  2.2060
  996MOL0     H31439   5.885   3.251   8.562 -1.2523 -0.0388 -0.6641
  996MOL0     H31440   5.743   3.059   8.722 -0.0723 -1.7744 -0.9584
  996MOL0     H31441   5.711   3.099   8.545 -0.9372  0.5792 -0.1061
  996MOL0     H31442   5.545   3.190   8.696  0.7811  0.7860  2.3761
  996MOL0     H31443   5.624   3.274   8.555  0.5047 -0.4189  0.2639
  996MOL0     H31444   5.686   3.282   8.854 -0.7208  1.5136  1.0244
  996MOL0     H31445   5.768   3.390   8.744 -0.0249  0.0928 -2.2754
  996MOL0     H31446   5.587   3.533   8.704  0.3437 -0.7264 -1.4472
  996MOL0     H31447   5.619   3.485   8.885 -0.2046  0.9695 -0.1846
  996MOL0     H31448   5.420   3.315   8.781  0.7616 -0.4239 -0.9265
  996MOL0     H31449   5.362   3.460   8.707  0.7951  1.8108  0.5519
  996MOL0     H31450   5.401   3.554   8.965 -3.1569  0.5719  3.7030
  996MOL0     H31451   5.250   3.516   8.895  0.7685  3.1027  1.7182
  996MOL0     H31452   5.455   3.333   9.042 -0.5954 -0.3364  1.3193
  996MOL0     H31453   5.288   3.277   8.983  2.5359 -1.9730 -1.9469
  996MOL0     H31454   6.109   3.263   8.962  0.2221  3.7418  1.4562
  996MOL0     H31455   6.352   3.310   8.939 -0.4255  0.0020  1.1478
  996MOL0     H31456   6.674   3.466   8.834  1.9491  1.0177  1.1290
  996MOL0     H31457   6.916   3.474   8.896  0.3226 -0.2549  0.3156
  996MOL0     H31458   8.674   3.122   9.341 -0.8061 -1.1633 -1.4889
  996MOL0     H31459   8.850   3.259   9.414 -2.5726  0.8291 -1.1100
  996MOL0     H31460   9.507   3.166   9.265 -1.0523 -1.1206  0.4669
  996MOL0     H31461   9.686   3.361   9.299 -0.0494 -0.4488  0.0876
  996MOL0     H31462   9.526   3.744   9.426  0.6814  3.1572 -0.0360
  996MOL0     H31463   9.705   3.765   9.444  0.3402 -1.2594 -0.2326
  996MOL0     H31464   9.519   3.734   9.666 -1.7724 -1.4295 -0.1771
  996MOL0     H31465   9.587   3.577   9.643  5.3541 -0.1359  2.7597
  996MOL0     H31466   9.739   3.838   9.684 -2.2522 -1.3374 -0.7168
  996MOL0     H31467   9.821   3.687   9.654  0.0985 -1.6780  0.3432
  996MOL0     H31468   9.621   3.684   9.864 -1.9240 -4.0300 -0.1636
  996MOL0     H31469   9.741   3.562   9.807 -1.9516  0.1848 -0.7415
  996MOL0     H31470   9.909   3.790  10.134 -2.1147  3.5010 -0.8178
  996MOL0     H31471   9.373   3.609   9.451 -2.4316 -1.4045 -0.1743
  996MOL0     H31472   9.216   3.442   9.434  0.7296 -1.5042  2.4253
  997MOL0     O31473   5.555   9.452   6.398  0.5343 -0.5401  0.6864
  997MOL0     C31474   5.622   9.374   6.470 -0.4430  0.0776  0.5258
  997MOL0     O31475   5.719   9.411   6.545  0.1957  0.4707  0.6855
  997MOL0     C31476   5.784   9.532   6.533 -0.0903 -0.0853 -0.1875
  997MOL0     C31477   5.731   9.660   6.530  0.4686  0.4685 -0.5527
  997MOL0     C31478   5.810   9.765   6.502 -0.3392 -0.2845  1.1312
  997MOL0     C31479   5.948   9.763   6.492  0.1517  1.3616 -0.1814
  997MOL0     O31480   6.030   9.866   6.474 -0.2835 -0.1146  0.0573
  997MOL0     C31481   6.079   9.886   6.337  0.1114  0.3116  0.2304
  997MOL0     C31482   6.181  10.002   6.320 -0.4496 -0.0829 -0.4601
  997MOL0     C31483   6.134  10.129   6.394  1.0752  0.0580 -0.1714
  997MOL0     C31484   6.180  10.250   6.308 -0.2644 -0.1950 -0.6213
  997MOL0     C31485   6.149  10.382   6.394 -0.5703  0.6154 -0.4835
  997MOL0     C31486   6.227  10.384   6.534  0.3668  0.0167 -0.3270
  997MOL0     C31487   6.203  10.518   6.601 -0.0851 -0.3413  0.0247
  997MOL0     C31488   6.273  10.641   6.544  0.6327 -0.5960  0.4065
  997MOL0     N31489   6.205  10.765   6.574 -0.0134  0.1788 -0.7807
  997MOL0     C31490   6.121  10.823   6.483  1.0573  1.2448 -0.0949
  997MOL0     C31491   6.037  10.887   6.561 -0.5752 -0.3144 -0.2846
  997MOL0     C31492   5.946  10.994   6.506  0.1040  1.1567 -0.9869
  997MOL0     C31493   5.802  10.982   6.560 -0.2073  0.4473  0.4394
  997MOL0     C31494   5.708  11.093   6.517 -0.0567  0.0662 -0.3010
  997MOL0     C31495   5.571  11.076   6.560  0.3065  0.2069 -0.3219
  997MOL0     O31496   5.517  11.212   6.560 -0.2824 -0.2455 -0.4438
  997MOL0     C31497   5.383  11.227   6.529  0.6872  0.3316  0.1631
  997MOL0     C31498   5.355  11.348   6.468  0.2644 -0.4867  0.0135
  997MOL0     C31499   5.224  11.376   6.441 -0.8232  0.0025 -0.1448
  997MOL0     C31500   5.115  11.287   6.455 -1.2792  0.0609  0.4569
  997MOL0     C31501   4.981  11.314   6.424 -0.0734  0.1470  0.6389
  997MOL0     O31502   4.969  11.440   6.363 -0.6505  0.2387  1.0387
  997MOL0     C31503   4.851  11.465   6.290 -0.7418 -0.6990 -1.3550
  997MOL0     C31504   4.878  11.528   6.166  0.1044  0.4670 -1.2169
  997MOL0     C31505   4.772  11.578   6.087  0.1338  0.3784 -0.9399
  997MOL0     C31506   4.638  11.562   6.128 -0.8657  0.0789  0.4668
  997MOL0     O31507   4.528  11.605   6.067 -0.0477  0.4243  0.6158
  997MOL0     C31508   4.434  11.690   6.142  0.3407  0.6695  0.9039
  997MOL0     C31509   4.489  11.828   6.156 -0.1110 -0.0764  0.0820
  997MOL0     C31510   4.466  11.913   6.035 -1.0408 -0.8668  0.0597
  997MOL0     C31511   4.489  12.061   6.068  1.0884 -0.2988  0.3533
  997MOL0     C31512   4.353  12.143   6.082  0.5918  0.7589 -0.5059
  997MOL0     C31513   4.299  12.158   5.939 -0.5491  0.4449 -0.0368
  997MOL0     C31514   4.167  12.237   5.944 -0.1877  0.0229 -1.1684
  997MOL0     C31515   4.127  12.279   5.807 -0.2372 -0.3938  0.0322
  997MOL0    Cl31516   4.218  12.419   5.748 -0.1452  0.4763  0.1987
  997MOL0     C31517   4.618  11.493   6.250  0.2231 -0.2604 -1.2806
  997MOL0     C31518   4.723  11.451   6.331  0.4678 -0.1128  0.2016
  997MOL0     O31519   4.895  11.228   6.430 -0.4258  0.1774  0.4099
  997MOL0     C31520   5.142  11.162   6.516 -0.1804  0.8692  0.1062
  997MOL0     C31521   5.279  11.133   6.539 -0.2269 -0.9207  0.8168
  997MOL0     N31522   6.076  10.873   6.696 -0.2031  0.8223 -1.0241
  997MOL0     N31523   6.178  10.799   6.704  0.1602 -0.0728 -0.0864
  997MOL0     C31524   6.005   9.638   6.487  0.0248 -0.1818  0.6513
  997MOL0     C31525   5.926   9.522   6.522  0.3502 -0.0908  0.0084
  997MOL0     C31526   5.588   9.237   6.484  0.3226  0.2411  0.2278
  997MOL0     C31527   5.652   9.149   6.562 -0.2609  0.2588 -1.3165
  997MOL0     C31528   5.609   9.014   6.579 -0.3731 -0.8206  0.2879
  997MOL0     C31529   5.500   8.962   6.496 -0.9329  0.3053 -0.4829
  997MOL0     O31530   5.480   8.826   6.499 -0.2649 -0.0651  0.6114
  997MOL0     C31531   5.386   8.780   6.414  0.5641  0.0800  0.5222
  997MOL0     C31532   5.376   8.630   6.416 -0.9110  0.8106 -0.0823
  997MOL0     C31533   5.398   8.559   6.547 -0.6321  0.0733  0.5976
  997MOL0     C31534   5.333   8.418   6.559 -0.5992 -0.0895 -0.1677
  997MOL0     C31535   5.371   8.338   6.444 -1.0990 -1.3063 -1.0037
  997MOL0     C31536   5.402   8.280   6.349 -1.0245  0.2461  0.6159
  997MOL0     C31537   5.436   9.054   6.415  0.0666 -0.6305 -0.4063
  997MOL0     C31538   5.481   9.192   6.406  0.3447  0.4482  0.2702
  997MOL0     H31539   5.626   9.685   6.538  0.7706  2.0596 -1.2336
  997MOL0     H31540   5.756   9.859   6.493  0.1914 -0.1365 -1.1273
  997MOL0     H31541   6.002   9.904   6.261  1.5342  1.4023 -1.0190
  997MOL0     H31542   6.118   9.792   6.296 -1.7310 -0.2933 -0.2435
  997MOL0     H31543   6.208  10.029   6.218  3.9020 -1.7214  0.0428
  997MOL0     H31544   6.281   9.978   6.358  1.3426 -0.0634 -4.6568
  997MOL0     H31545   6.151  10.137   6.502  1.4934  0.6174 -0.2739
  997MOL0     H31546   6.025  10.127   6.403  1.0360  1.5276 -0.0616
  997MOL0     H31547   6.289  10.234   6.310 -0.3886 -1.3138  2.6700
  997MOL0     H31548   6.148  10.240   6.204 -1.3524 -1.3178 -0.1965
  997MOL0     H31549   6.042  10.390   6.411 -0.3701  2.2632  0.2683
  997MOL0     H31550   6.181  10.470   6.338  0.1877 -0.0653 -1.1509
  997MOL0     H31551   6.335  10.383   6.515 -0.0978  1.7394 -3.8845
  997MOL0     H31552   6.199  10.305   6.605  0.9903  0.1291  0.0538
  997MOL0     H31553   6.096  10.542   6.597  0.5635  2.8522 -1.3672
  997MOL0     H31554   6.253  10.503   6.697 -1.1606  1.6950  0.9607
  997MOL0     H31555   6.280  10.642   6.435  1.0510 -1.7300  0.4113
  997MOL0     H31556   6.378  10.644   6.575 -0.2893 -0.1898  3.8361
  997MOL0     H31557   6.125  10.813   6.375 -2.5958  1.1106 -0.3328
  997MOL0     H31558   5.942  10.999   6.397 -2.6792 -3.2582 -1.3567
  997MOL0     H31559   5.981  11.081   6.561  2.6585 -2.3094  3.5775
  997MOL0     H31560   5.801  10.970   6.668 -2.2897 -0.2025  0.3933
  997MOL0     H31561   5.760  10.889   6.522  1.4322 -0.2540  0.2836
  997MOL0     H31562   5.747  11.188   6.557 -2.5528  2.2862 -2.6711
  997MOL0     H31563   5.707  11.104   6.408 -4.6688 -1.5663 -0.6387
  997MOL0     H31564   5.578  11.036   6.661 -0.7730  3.0248  0.9383
  997MOL0     H31565   5.517  11.004   6.498  0.1360  2.4117 -2.9041
  997MOL0     H31566   5.443  11.409   6.452  0.7787 -1.4436 -0.8999
  997MOL0     H31567   5.209  11.471   6.391  2.8284  1.4630  1.1601
  997MOL0     H31568   4.983  11.527   6.140  0.3423  2.7981 -0.5147
  997MOL0     H31569   4.772  11.619   5.986  0.9903 -3.7899 -2.9000
  997MOL0     H31570   4.406  11.659   6.243 -3.5742  0.2150 -0.1501
  997MOL0     H31571   4.341  11.695   6.085  0.4071  1.2468  0.8325
  997MOL0     H31572   4.597  11.835   6.176 -0.2813  1.6496  0.5167
  997MOL0     H31573   4.435  11.869   6.242 -0.6081  0.5150 -0.5074
  997MOL0     H31574   4.362  11.902   6.003 -1.4584  4.1270 -1.1233
  997MOL0     H31575   4.544  11.888   5.962  3.1922 -2.5483  4.6203
  997MOL0     H31576   4.533  12.074   6.168  1.5822  1.8123 -0.0973
  997MOL0     H31577   4.553  12.101   5.990  0.4621 -0.0863 -0.0585
  997MOL0     H31578   4.364  12.238   6.133 -1.5954  1.0002 -0.4323
  997MOL0     H31579   4.282  12.095   6.149 -0.8970  0.4149 -2.2351
  997MOL0     H31580   4.284  12.058   5.897 -1.5213  0.0134  1.2647
  997MOL0     H31581   4.372  12.216   5.882  1.8569 -4.4701 -2.5255
  997MOL0     H31582   4.088  12.173   5.986 -0.4549  1.4548  0.6419
  997MOL0     H31583   4.179  12.322   6.011 -0.0988 -1.3364  0.6064
  997MOL0     H31584   4.018  12.287   5.798 -0.2142  0.2939  0.3265
  997MOL0     H31585   4.157  12.212   5.726  0.6526  0.0211  0.0036
  997MOL0     H31586   4.520  11.454   6.275  0.5099 -0.3506 -0.2563
  997MOL0     H31587   4.695  11.400   6.422 -1.4718 -1.1186 -0.8860
  997MOL0     H31588   5.070  11.083   6.535 -0.5292  0.9182 -0.9243
  997MOL0     H31589   5.305  11.037   6.583 -2.0803 -1.0917  1.6013
  997MOL0     H31590   6.111   9.629   6.467  0.1703 -0.2905  1.4308
  997MOL0     H31591   5.977   9.426   6.525 -0.4862 -0.6715 -2.4389
  997MOL0     H31592   5.741   9.166   6.622 -0.4564 -1.8888 -0.3040
  997MOL0     H31593   5.675   8.955   6.641  0.9166  0.5637  0.2737
  997MOL0     H31594   5.408   8.822   6.315 -0.0126  0.9733  0.7635
  997MOL0     H31595   5.288   8.816   6.446  0.6304  0.7538 -0.0023
  997MOL0     H31596   5.277   8.609   6.373 -0.0802  3.4382 -3.8629
  997MOL0     H31597   5.453   8.603   6.344 -0.9702  1.6274 -0.4720
  997MOL0     H31598   5.341   8.623   6.614 -2.1740 -1.2799  0.6582
  997MOL0     H31599   5.505   8.556   6.568 -0.3836  1.3192 -0.3977
  997MOL0     H31600   5.384   8.363   6.640  2.1944 -0.3040 -1.9332
  997MOL0     H31601   5.226   8.424   6.581 -0.3877  0.2118  0.8438
  997MOL0     H31602   5.427   8.215   6.268  0.2425  2.0101 -0.4831
  997MOL0     H31603   5.352   9.029   6.350 -0.7531  0.7878  0.0555
  997MOL0     H31604   5.430   9.247   6.328 -1.4074 -0.7884  0.4858
  998MOL0     O31605   2.924  11.360   3.262  0.2820  0.2928  0.2875
  998MOL0     C31606   2.848  11.456   3.232 -0.1367 -0.5318  0.3892
  998MOL0     O31607   2.894  11.574   3.180  0.0694 -0.0597  0.0541
  998MOL0     C31608   3.022  11.586   3.130 -0.2411 -0.0235 -0.2535
  998MOL0     C31609   3.061  11.717   3.130  0.6596 -0.4135  1.1225
  998MOL0     C31610   3.186  11.752   3.084  0.0592  0.7446  0.3293
  998MOL0     C31611   3.285  11.657   3.031 -0.7446 -0.2989 -0.5716
  998MOL0     O31612   3.416  11.711   3.006 -0.8708  0.1736 -0.2676
  998MOL0     C31613   3.519  11.621   2.963 -0.1013  0.3013 -0.8483
  998MOL0     C31614   3.637  11.708   2.914  0.4939  0.3022  0.0670
  998MOL0     C31615   3.689  11.802   3.030  0.1900 -0.8052  0.3194
  998MOL0     C31616   3.802  11.878   2.970 -0.2697  0.4081 -0.5260
  998MOL0     C31617   3.875  11.963   3.073  0.0567 -0.3003  0.3177
  998MOL0     C31618   4.005  12.021   3.003 -0.6165 -0.6146 -0.1145
  998MOL0     C31619   4.061  12.142   3.096  0.4765  0.8559  0.6987
  998MOL0     C31620   4.204  12.144   3.102 -0.1850 -1.1245  0.0930
  998MOL0     N31621   4.259  12.238   3.204 -0.1740 -0.6562 -0.5330
  998MOL0     C31622   4.266  12.221   3.339  0.3235 -0.5441 -0.4777
  998MOL0     C31623   4.320  12.338   3.389 -0.7793  0.5187  0.1259
  998MOL0     C31624   4.363  12.364   3.520 -0.2894  0.3628 -0.5436
  998MOL0     C31625   4.506  12.403   3.532  0.2405 -0.7674 -0.5310
  998MOL0     C31626   4.538  12.470   3.668  0.1024 -0.9328  0.0292
  998MOL0     C31627   4.682  12.528   3.681  0.1471  0.6411 -0.1209
  998MOL0     O31628   4.774  12.466   3.577  0.1007 -0.3833 -0.7656
  998MOL0     C31629   4.893  12.527   3.557  0.3185 -0.2174  0.1999
  998MOL0     C31630   4.921  12.661   3.593  1.4625 -0.1175  0.0244
  998MOL0     C31631   5.045  12.709   3.561  0.3045 -0.6528  0.5336
  998MOL0     C31632   5.149  12.642   3.493  0.0552  0.0818 -0.1932
  998MOL0     C31633   5.284  12.702   3.460 -0.5123  1.0689 -0.3425
  998MOL0     O31634   5.308  12.829   3.484 -0.2939 -0.0253 -0.4150
  998MOL0     C31635   5.439  12.866   3.475 -0.2183 -0.3621 -0.2091
  998MOL0     C31636   5.522  12.857   3.361  0.0964 -0.3910  0.0616
  998MOL0     C31637   5.648  12.912   3.352  0.2672 -0.4574  0.8194
  998MOL0     C31638   5.697  12.999   3.450 -1.1351  0.3057  0.4673
  998MOL0     O31639   5.813  13.070   3.435  0.0294 -0.5293 -0.1200
  998MOL0     C31640   5.835  13.144   3.314 -0.1124  0.9809 -0.5637
  998MOL0     C31641   5.901  13.272   3.342 -0.8297  0.2505 -0.6783
  998MOL0     C31642   5.969  13.344   3.226 -0.0496  0.9322  0.4350
  998MOL0     C31643   5.999  13.483   3.283 -0.2312  0.0028  1.0747
  998MOL0     C31644   6.047  13.589   3.180  0.7456 -0.0004 -0.2399
  998MOL0     C31645   6.132  13.528   3.064 -0.4995 -1.1735 -0.5281
  998MOL0     C31646   6.221  13.634   2.996  0.3422  0.2508  0.6482
  998MOL0     C31647   6.154  13.706   2.887  0.1168 -0.5540 -0.4936
  998MOL0    Cl31648   6.258  13.855   2.847  0.3249 -0.0458  0.4534
  998MOL0     C31649   5.607  13.015   3.556 -0.4615 -0.3315 -0.3064
  998MOL0     C31650   5.480  12.951   3.573  1.0035 -0.3797  0.0258
  998MOL0     O31651   5.365  12.625   3.404  1.4086 -0.1114  0.6586
  998MOL0     C31652   5.119  12.508   3.455 -0.1907 -0.4415  0.5728
  998MOL0     C31653   4.996  12.452   3.487 -0.1634  1.1535  0.0436
  998MOL0     N31654   4.324  12.433   3.278  0.1817 -0.3228  0.3750
  998MOL0     N31655   4.278  12.373   3.172  0.5381  0.2349  0.2219
  998MOL0     C31656   3.242  11.530   3.035 -1.0208  0.2614 -0.2351
  998MOL0     C31657   3.120  11.496   3.081 -0.2633  0.4468  0.0168
  998MOL0     C31658   2.705  11.433   3.260  0.0881  0.0065 -1.2879
  998MOL0     C31659   2.665  11.375   3.384 -0.7076  0.2939 -0.0462
  998MOL0     C31660   2.538  11.334   3.426  0.0145 -0.6525 -1.1308
  998MOL0     C31661   2.437  11.367   3.339  0.7823  1.0627 -0.6889
  998MOL0     O31662   2.316  11.308   3.367  0.1612  0.3431  0.1643
  998MOL0     C31663   2.195  11.378   3.332 -0.2158  0.1065 -0.6831
  998MOL0     C31664   2.199  11.527   3.371  0.3514  0.5283  0.6554
  998MOL0     C31665   2.192  11.544   3.523 -0.4845 -0.4427 -0.4864
  998MOL0     C31666   2.120  11.674   3.563  0.0380  0.1094  0.4034
  998MOL0     C31667   2.195  11.789   3.510 -0.1893 -0.2099 -0.1599
  998MOL0     C31668   2.272  11.865   3.458 -0.4970 -0.1827 -0.5603
  998MOL0     C31669   2.464  11.424   3.213 -0.7008 -1.0446  0.9852
  998MOL0     C31670   2.598  11.464   3.171  0.0912 -0.1343 -0.3292
  998MOL0     H31671   3.002  11.796   3.177  1.7435  0.3909  1.1858
  998MOL0     H31672   3.215  11.857   3.077  0.2500  0.6218 -1.0217
  998MOL0     H31673   3.493  11.553   2.881  3.5923 -1.5469 -0.6618
  998MOL0     H31674   3.530  11.554   3.048 -1.3668 -1.9215 -2.3176
  998MOL0     H31675   3.603  11.765   2.828  0.4798  1.0971  0.5876
  998MOL0     H31676   3.725  11.645   2.896  0.5558  0.3111  0.3335
  998MOL0     H31677   3.727  11.740   3.112 -0.8994 -1.6005  0.2520
  998MOL0     H31678   3.618  11.873   3.073  2.2238  0.4316  1.8411
  998MOL0     H31679   3.871  11.821   2.907  1.4687  0.7636  0.9753
  998MOL0     H31680   3.771  11.947   2.891 -0.8250 -0.9179 -1.4831
  998MOL0     H31681   3.906  11.898   3.155  1.5501  1.7394  1.4669
  998MOL0     H31682   3.805  12.042   3.102 -0.3879 -0.4835 -0.2496
  998MOL0     H31683   3.979  12.064   2.906 -1.6036 -0.5648  0.1570
  998MOL0     H31684   4.074  11.941   2.977  0.4942  1.1313 -3.0251
  998MOL0     H31685   4.035  12.240   3.055  0.3959  0.9229  0.9103
  998MOL0     H31686   4.021  12.128   3.196  1.3622 -2.4950  0.7056
  998MOL0     H31687   4.245  12.172   3.005  0.5343  0.7408  0.8981
  998MOL0     H31688   4.242  12.047   3.133 -0.8722 -1.4818 -0.1562
  998MOL0     H31689   4.242  12.135   3.401  0.6092 -0.1656  0.1571
  998MOL0     H31690   4.347  12.275   3.582  3.0680 -0.5096 -0.7555
  998MOL0     H31691   4.303  12.446   3.562  1.1251 -0.7012  4.2473
  998MOL0     H31692   4.531  12.466   3.446 -2.3796 -1.8638 -2.2208
  998MOL0     H31693   4.569  12.313   3.526  0.6844 -0.6104  1.1947
  998MOL0     H31694   4.463  12.543   3.699 -0.8270 -1.6593 -0.4744
  998MOL0     H31695   4.516  12.388   3.738 -2.6462  0.4038  0.8608
  998MOL0     H31696   4.720  12.499   3.780  1.2975 -1.6117 -1.1413
  998MOL0     H31697   4.677  12.637   3.679  3.2247  0.9038  0.9395
  998MOL0     H31698   4.863  12.730   3.654  1.5978  1.1018 -1.1783
  998MOL0     H31699   5.063  12.813   3.588 -0.7968 -0.2681 -0.1415
  998MOL0     H31700   5.491  12.793   3.279 -1.0369  1.0807 -0.6879
  998MOL0     H31701   5.710  12.882   3.268 -1.9617 -0.2768 -0.9828
  998MOL0     H31702   5.735  13.169   3.277 -0.4536  0.4419 -0.0099
  998MOL0     H31703   5.892  13.086   3.241  0.3597 -1.1965  1.4366
  998MOL0     H31704   5.972  13.251   3.423 -2.1266 -1.0184  0.1743
  998MOL0     H31705   5.825  13.341   3.382 -0.7811 -2.2689  4.6471
  998MOL0     H31706   5.908  13.356   3.136 -1.2282 -0.1717  1.0635
  998MOL0     H31707   6.060  13.289   3.200 -0.1740  1.3578 -1.0273
  998MOL0     H31708   5.912  13.524   3.335 -1.4854 -0.3635 -0.6570
  998MOL0     H31709   6.082  13.469   3.353 -0.9721  1.1915  2.2364
  998MOL0     H31710   6.090  13.664   3.247 -3.5598  0.3793  2.4874
  998MOL0     H31711   5.967  13.649   3.136  1.3356  2.9772  2.4552
  998MOL0     H31712   6.067  13.473   2.995 -2.1367  4.2697 -4.0092
  998MOL0     H31713   6.205  13.468   3.117  1.3455 -0.0058 -1.6136
  998MOL0     H31714   6.249  13.712   3.068  0.7760  0.7170 -0.0152
  998MOL0     H31715   6.316  13.598   2.957  1.8023  0.9964  3.2910
  998MOL0     H31716   6.056  13.741   2.923  1.9631  3.1804  1.5193
  998MOL0     H31717   6.163  13.630   2.809  2.2897  0.7874 -1.6450
  998MOL0     H31718   5.637  13.086   3.632 -0.2333 -0.0063 -0.6972
  998MOL0     H31719   5.420  12.972   3.661 -3.3803 -0.1037 -2.6826
  998MOL0     H31720   5.195  12.465   3.390  0.2195 -0.7337  1.2361
  998MOL0     H31721   4.961  12.360   3.442 -0.2469  2.2123 -2.2618
  998MOL0     H31722   3.298  11.445   2.998 -0.5277  0.8010 -0.7571
  998MOL0     H31723   3.104  11.388   3.074 -1.9444  0.6779 -0.1163
  998MOL0     H31724   2.753  11.357   3.444 -0.9937 -0.5099  0.1488
  998MOL0     H31725   2.532  11.278   3.519  2.2277  0.9214  0.0803
  998MOL0     H31726   2.113  11.323   3.379 -1.0567 -0.3644 -2.5704
  998MOL0     H31727   2.178  11.356   3.226 -1.0708 -4.4598  0.1925
  998MOL0     H31728   2.286  11.580   3.333 -0.8941  3.4701  1.6384
  998MOL0     H31729   2.115  11.585   3.331  0.0481  0.9622  1.8714
  998MOL0     H31730   2.289  11.541   3.573  1.7185  1.9967 -4.1574
  998MOL0     H31731   2.136  11.461   3.568 -1.5649 -0.1400 -1.2414
  998MOL0     H31732   2.017  11.670   3.525  0.2505 -3.8068 -0.1754
  998MOL0     H31733   2.105  11.686   3.670  0.7760 -0.8779  0.6340
  998MOL0     H31734   2.342  11.937   3.418  2.1298 -2.5551 -0.5322
  998MOL0     H31735   2.393  11.454   3.137  0.9964  0.1335 -0.2091
  998MOL0     H31736   2.602  11.505   3.070 -1.2571  2.0430  0.4158
  999MOL0     O31737   9.779   8.292   2.916  0.2954 -0.1313 -0.1703
  999MOL0     C31738   9.676   8.357   2.900  0.6385 -0.9705  0.3102
  999MOL0     O31739   9.658   8.483   2.951  0.8937 -0.4732 -0.9060
  999MOL0     C31740   9.769   8.554   2.999  0.1325  0.3400  0.6985
  999MOL0     C31741   9.769   8.600   3.129 -0.1061 -1.1893 -0.3210
  999MOL0     C31742   9.879   8.669   3.178 -0.3028  0.6406 -0.1653
  999MOL0     C31743   9.991   8.693   3.095  0.0653  1.5297  1.4024
  999MOL0     O31744  10.106   8.759   3.132  0.0109 -0.3982  0.2546
  999MOL0     C31745  10.095   8.846   3.244  0.2508  0.8153 -0.9278
  999MOL0     C31746  10.231   8.898   3.292 -0.8187  1.4081  0.1247
  999MOL0     C31747  10.302   8.991   3.192 -0.1312  0.5191 -0.1794
  999MOL0     C31748  10.400   9.090   3.250  0.6192  0.0120  0.4136
  999MOL0     C31749  10.492   9.156   3.149  0.2896 -0.2532 -0.9000
  999MOL0     C31750  10.422   9.263   3.058 -0.1018 -0.9058  0.1071
  999MOL0     C31751  10.510   9.297   2.934  0.3081  0.4037  0.6220
  999MOL0     C31752  10.632   9.363   2.980 -0.1920  0.6798 -0.1056
  999MOL0     N31753  10.731   9.398   2.874  0.5967  0.4461  0.2067
  999MOL0     C31754  10.694   9.432   2.748 -0.5515  0.1109  0.5990
  999MOL0     C31755  10.804   9.450   2.676  0.1550 -0.0921  0.5208
  999MOL0     C31756  10.821   9.485   2.536  0.0059  0.7275 -0.4565
  999MOL0     C31757  10.909   9.382   2.465  0.1773  0.4592 -0.6591
  999MOL0     C31758  10.954   9.437   2.330 -0.6426  1.3293 -0.0603
  999MOL0     C31759  11.068   9.351   2.263  0.7241 -0.3484 -0.1103
  999MOL0     O31760  11.095   9.394   2.123  0.0349  0.0883  0.2421
  999MOL0     C31761  11.214   9.368   2.062  0.0841 -0.8673 -0.2462
  999MOL0     C31762  11.212   9.400   1.930 -1.6161 -0.7107  0.2925
  999MOL0     C31763  11.318   9.356   1.848  0.7408 -0.4454 -0.0173
  999MOL0     C31764  11.427   9.293   1.912 -0.2944 -0.3800 -0.4028
  999MOL0     C31765  11.541   9.256   1.823 -0.3672 -0.3590  0.1173
  999MOL0     O31766  11.533   9.306   1.693  0.5677 -0.0919 -0.1790
  999MOL0     C31767  11.628   9.262   1.594  0.3060  0.3658 -1.1528
  999MOL0     C31768  11.604   9.314   1.467  0.2243 -0.1108  0.3752
  999MOL0     C31769  11.700   9.278   1.371  1.0669 -0.4313  0.5125
  999MOL0     C31770  11.807   9.205   1.406  0.8685 -0.6344 -0.0626
  999MOL0     O31771  11.883   9.175   1.295 -0.1780 -0.3222  0.7040
  999MOL0     C31772  11.944   9.046   1.277 -0.7525  0.4461  0.5439
  999MOL0     C31773  12.013   9.031   1.141 -0.9134  0.6445 -0.3090
  999MOL0     C31774  12.060   8.887   1.120 -1.0077  1.0652 -0.5796
  999MOL0     C31775  12.146   8.868   0.992  0.9041 -0.5118  0.1646
  999MOL0     C31776  12.185   8.726   0.949  0.3821  0.5222 -0.1455
  999MOL0     C31777  12.069   8.638   0.902 -0.4494 -0.3844 -0.1036
  999MOL0     C31778  12.108   8.491   0.915 -0.0726  0.8673  0.1925
  999MOL0     C31779  11.988   8.407   0.889 -0.4964  0.2907  0.5334
  999MOL0    Cl31780  12.024   8.249   0.946 -0.0226  0.1428  0.1254
  999MOL0     C31781  11.822   9.142   1.525 -0.2109  0.1996  0.2312
  999MOL0     C31782  11.730   9.174   1.620 -0.6161  0.2018 -0.5440
  999MOL0     O31783  11.642   9.208   1.882  0.1648 -0.5482 -0.2219
  999MOL0     C31784  11.422   9.264   2.042 -0.3527 -0.5839  0.8763
  999MOL0     C31785  11.316   9.296   2.120  0.4108  0.2776  0.2318
  999MOL0     N31786  10.913   9.431   2.763 -0.2076 -0.1736 -0.6226
  999MOL0     N31787  10.862   9.401   2.881 -0.0694 -0.5196  0.2071
  999MOL0     C31788   9.991   8.643   2.963 -0.1472  0.1303 -0.4323
  999MOL0     C31789   9.880   8.579   2.908 -0.0019  1.2510 -0.4644
  999MOL0     C31790   9.582   8.282   2.812 -0.5701 -0.5562  0.7187
  999MOL0     C31791   9.469   8.344   2.761  0.1567 -0.1823 -0.5956
  999MOL0     C31792   9.379   8.280   2.679 -0.0300 -0.2323 -0.8170
  999MOL0     C31793   9.385   8.142   2.658 -0.1635  0.0390  0.4342
  999MOL0     O31794   9.280   8.075   2.596 -0.2700  0.0034 -0.6927
  999MOL0     C31795   9.316   7.947   2.548 -0.5546  0.2462  0.2200
  999MOL0     C31796   9.197   7.897   2.463  0.4964  0.2325  0.1990
  999MOL0     C31797   9.061   7.935   2.542 -0.2325 -0.3630 -0.1962
  999MOL0     C31798   8.945   7.903   2.453  0.3193 -0.3143 -0.1820
  999MOL0     C31799   8.828   7.939   2.526 -1.2713  0.3360 -0.3321
  999MOL0     C31800   8.732   7.965   2.585 -0.2449  1.0203 -0.6580
  999MOL0     C31801   9.503   8.074   2.706 -0.0697  0.5225 -0.1724
  999MOL0     C31802   9.598   8.146   2.781 -0.5258 -0.5370  0.1188
  999MOL0     H31803   9.682   8.592   3.195 -0.1385  1.0774 -0.0264
  999MOL0     H31804   9.874   8.702   3.281  1.4381 -1.4862  0.6856
  999MOL0     H31805  10.049   8.794   3.328  2.7506 -3.0808 -1.7041
  999MOL0     H31806  10.045   8.940   3.220  4.3483  3.3999 -0.3604
  999MOL0     H31807  10.306   8.822   3.316  0.7118  2.9014  0.2295
  999MOL0     H31808  10.214   8.950   3.387  0.3640 -1.5257  2.1296
  999MOL0     H31809  10.224   9.050   3.143 -0.2483  0.7956  0.3375
  999MOL0     H31810  10.353   8.929   3.117  1.8029  1.1684  0.5441
  999MOL0     H31811  10.333   9.164   3.296 -3.2503 -2.6824 -0.3943
  999MOL0     H31812  10.460   9.036   3.323  0.9013  2.7531  2.3624
  999MOL0     H31813  10.541   9.079   3.089 -0.3665 -1.3595 -0.0609
  999MOL0     H31814  10.569   9.211   3.205 -0.2667  0.4775 -0.8273
  999MOL0     H31815  10.401   9.350   3.120 -0.3235 -3.1467  3.4224
  999MOL0     H31816  10.327   9.224   3.019 -1.0871 -0.2180  1.7670
  999MOL0     H31817  10.531   9.216   2.864 -0.7125  3.4138 -3.5031
  999MOL0     H31818  10.455   9.365   2.869  2.6600  1.7001 -0.1402
  999MOL0     H31819  10.694   9.295   3.040 -0.1706  0.1897 -0.6690
  999MOL0     H31820  10.612   9.447   3.047 -0.5613  1.6397 -1.3920
  999MOL0     H31821  10.593   9.439   2.708 -1.2730  0.0413  2.3214
  999MOL0     H31822  10.861   9.587   2.530  1.7359  0.0909 -0.4477
  999MOL0     H31823  10.722   9.485   2.491  1.1205 -0.2919 -3.1490
  999MOL0     H31824  10.861   9.286   2.443  0.4821 -0.0999  1.0205
  999MOL0     H31825  10.995   9.364   2.530 -0.5372  5.4789  2.1494
  999MOL0     H31826  10.871   9.442   2.260  0.6131  0.4703 -1.6760
  999MOL0     H31827  10.998   9.535   2.345 -1.0223  2.1995 -3.7010
  999MOL0     H31828  11.041   9.247   2.283 -1.6211  0.0982 -0.6923
  999MOL0     H31829  11.155   9.371   2.326 -0.1757  1.2457  0.6898
  999MOL0     H31830  11.137   9.464   1.884 -1.9811  1.2767  3.3278
  999MOL0     H31831  11.317   9.394   1.746 -2.2333 -2.9357 -1.0828
  999MOL0     H31832  11.516   9.374   1.446  0.9961  0.7193 -0.5624
  999MOL0     H31833  11.693   9.301   1.265 -0.5695  0.2680  0.7409
  999MOL0     H31834  11.866   8.970   1.261 -0.7112  0.8954 -2.2690
  999MOL0     H31835  12.011   9.017   1.358  1.2710  0.4872 -1.0536
  999MOL0     H31836  12.105   9.091   1.138 -0.2497 -0.4156 -1.7749
  999MOL0     H31837  11.946   9.060   1.060  0.1481  0.7420 -1.1637
  999MOL0     H31838  11.970   8.828   1.098 -2.3519  2.0633  1.8354
  999MOL0     H31839  12.115   8.853   1.208 -0.1198  3.9020  0.0631
  999MOL0     H31840  12.087   8.892   0.903 -0.6358 -1.6679  0.8183
  999MOL0     H31841  12.232   8.934   0.985 -0.8376  1.8614 -0.0651
  999MOL0     H31842  12.237   8.682   1.034  0.6108  0.8448 -0.1176
  999MOL0     H31843  12.241   8.737   0.855 -3.1031  1.0366 -2.3655
  999MOL0     H31844  12.031   8.657   0.802 -0.3258 -0.7445 -0.2206
  999MOL0     H31845  11.991   8.667   0.972 -0.8756  0.9628 -1.0947
  999MOL0     H31846  12.183   8.477   0.836 -0.7496  0.1545 -0.3347
  999MOL0     H31847  12.148   8.465   1.013 -1.4877  1.5597  0.9792
  999MOL0     H31848  11.964   8.407   0.782 -3.2062  0.8659  1.0735
  999MOL0     H31849  11.912   8.451   0.953  2.8874  0.8752  4.6073
  999MOL0     H31850  11.913   9.085   1.542  0.4302 -0.3262 -3.9710
  999MOL0     H31851  11.749   9.134   1.719 -1.9128  1.3778  0.2383
  999MOL0     H31852  11.499   9.215   2.101 -0.7530  0.1126  1.9914
  999MOL0     H31853  11.315   9.279   2.227  1.3561 -1.3604 -0.0020
  999MOL0     H31854  10.078   8.663   2.901  0.7110  1.4086  1.1001
  999MOL0     H31855   9.878   8.552   2.803  0.9530  0.3488 -0.2719
  999MOL0     H31856   9.439   8.448   2.769 -1.7950 -0.7822  0.7574
  999MOL0     H31857   9.319   8.345   2.616  0.1194  1.7006  0.9271
  999MOL0     H31858   9.346   7.881   2.630  2.0280 -1.1803 -1.7162
  999MOL0     H31859   9.408   7.950   2.488 -1.1659 -0.1931 -0.7624
  999MOL0     H31860   9.186   7.952   2.369  0.6126  0.0727  0.0904
  999MOL0     H31861   9.205   7.788   2.452 -0.4554  0.2947 -1.3229
  999MOL0     H31862   9.045   8.040   2.569 -0.0572  0.4214 -2.8625
  999MOL0     H31863   9.053   7.873   2.632 -0.4647  0.7833  0.5976
  999MOL0     H31864   8.945   7.966   2.363 -1.4329 -1.3750 -0.9685
  999MOL0     H31865   8.941   7.798   2.424  1.1186 -0.1235 -1.0420
  999MOL0     H31866   8.653   7.986   2.654 -1.5403 -0.8530 -1.5019
  999MOL0     H31867   9.534   7.975   2.675  1.7594  1.1777 -0.5710
  999MOL0     H31868   9.682   8.088   2.818 -1.5496 -5.1011 -3.6603
 1000MOL0     O31869   7.985   8.689   2.651  0.0134  0.1429 -0.3530
 1000MOL0     C31870   7.994   8.799   2.601  0.4303 -0.0517 -1.1300
 1000MOL0     O31871   7.938   8.912   2.652 -0.3641  0.7289 -0.4316
 1000MOL0     C31872   7.900   8.904   2.782  0.6304 -0.0474 -0.5709
 1000MOL0     C31873   7.977   8.875   2.893  1.1477 -0.5191 -0.6804
 1000MOL0     C31874   7.919   8.869   3.022 -0.4393  0.1461 -0.2596
 1000MOL0     C31875   7.783   8.895   3.046 -0.5187 -1.1306  0.8441
 1000MOL0     O31876   7.738   8.884   3.168  0.3741 -0.2103  0.0857
 1000MOL0     C31877   7.609   8.937   3.204 -0.0350 -1.1933  0.4064
 1000MOL0     C31878   7.607   9.069   3.290 -0.9620  0.5163  0.3629
 1000MOL0     C31879   7.722   9.084   3.386 -0.5270  0.7431  0.7974
 1000MOL0     C31880   7.721   9.210   3.466  0.2243 -1.0579  0.3996
 1000MOL0     C31881   7.728   9.187   3.617  0.2591 -0.3945 -0.5725
 1000MOL0     C31882   7.729   9.320   3.692 -0.1510 -0.8172 -0.3142
 1000MOL0     C31883   7.724   9.285   3.841  0.4859  0.0830 -0.0677
 1000MOL0     C31884   7.689   9.415   3.925  0.9355 -0.9580 -0.2067
 1000MOL0     N31885   7.727   9.400   4.069 -0.1434 -0.2021  0.2269
 1000MOL0     C31886   7.856   9.412   4.118 -0.5052 -0.4348  1.0112
 1000MOL0     C31887   7.847   9.375   4.242 -0.3656  0.5337 -0.2846
 1000MOL0     C31888   7.954   9.401   4.345 -1.1169  0.2500 -0.6619
 1000MOL0     C31889   7.927   9.370   4.494  0.0320  0.1980 -0.5090
 1000MOL0     C31890   8.043   9.426   4.585 -0.3489 -0.5090  0.6073
 1000MOL0     C31891   8.026   9.415   4.742 -0.3607  0.9644  0.8176
 1000MOL0     O31892   8.138   9.482   4.797  0.1394  0.5939 -0.4877
 1000MOL0     C31893   8.105   9.554   4.906  1.3796 -1.3411 -0.1866
 1000MOL0     C31894   8.085   9.485   5.023 -0.3136  0.5245 -0.9260
 1000MOL0     C31895   8.048   9.546   5.144  0.1243 -0.5910  0.8755
 1000MOL0     C31896   8.031   9.682   5.144 -0.2575  0.0606  0.0432
 1000MOL0     C31897   7.982   9.754   5.264 -0.4503 -0.0764  0.3977
 1000MOL0     O31898   8.018   9.888   5.269 -0.4925  0.7867  0.0160
 1000MOL0     C31899   7.972   9.970   5.368  0.0657  0.0940 -0.3959
 1000MOL0     C31900   7.936  10.103   5.327 -0.5699 -0.3567  0.1670
 1000MOL0     C31901   7.880  10.193   5.428 -0.0329  1.1969  0.1496
 1000MOL0     C31902   7.849  10.150   5.563 -0.3133  0.5214 -1.4937
 1000MOL0     O31903   7.798  10.235   5.666  0.2368  0.0664 -0.1080
 1000MOL0     C31904   7.743  10.179   5.789 -0.8608 -0.0607  0.2985
 1000MOL0     C31905   7.621  10.269   5.831 -0.7481 -0.1453  0.0177
 1000MOL0     C31906   7.662  10.412   5.862  0.6225  0.0261  0.2825
 1000MOL0     C31907   7.531  10.488   5.893  0.0031 -0.7473  0.2618
 1000MOL0     C31908   7.551  10.630   5.942 -0.6055  0.0069 -0.4072
 1000MOL0     C31909   7.410  10.686   5.958  0.5358 -0.5585  0.2162
 1000MOL0     C31910   7.417  10.815   6.043 -0.8457  0.4872 -0.6423
 1000MOL0     C31911   7.290  10.891   6.014  0.1474  0.5229 -0.3734
 1000MOL0    Cl31912   7.274  11.028   6.116  0.0782  0.2762 -0.5838
 1000MOL0     C31913   7.908  10.025   5.606 -0.0683  0.7265 -0.7219
 1000MOL0     C31914   7.963   9.939   5.504 -0.2767  0.7300 -0.7517
 1000MOL0     O31915   7.925   9.693   5.346 -0.1564 -0.1326 -0.3103
 1000MOL0     C31916   8.058   9.750   5.022 -0.0786 -0.1483  0.1086
 1000MOL0     C31917   8.075   9.693   4.903  0.7877 -0.6771  0.9363
 1000MOL0     N31918   7.719   9.341   4.264  0.5071  0.1311  0.1051
 1000MOL0     N31919   7.642   9.361   4.162  0.4518  0.0461 -0.7979
 1000MOL0     C31920   7.702   8.927   2.925  0.1819 -0.5232  0.5265
 1000MOL0     C31921   7.765   8.939   2.803 -0.4845  0.0072 -0.2806
 1000MOL0     C31922   8.044   8.805   2.459 -0.3899 -0.1450 -0.1132
 1000MOL0     C31923   8.119   8.702   2.400  0.1461  0.0213 -0.3163
 1000MOL0     C31924   8.144   8.701   2.265  1.0262 -0.5427 -0.1608
 1000MOL0     C31925   8.092   8.805   2.181 -0.0489 -0.0997 -0.4626
 1000MOL0     O31926   8.106   8.816   2.045 -0.5871  0.4150 -0.0818
 1000MOL0     C31927   8.088   8.688   1.979 -0.5335  0.4563 -0.9339
 1000MOL0     C31928   7.963   8.696   1.889  0.3116  0.4277 -0.1403
 1000MOL0     C31929   7.905   8.560   1.837  0.3548  0.6986  0.4780
 1000MOL0     C31930   7.803   8.573   1.724  0.2881 -0.4148 -0.2146
 1000MOL0     C31931   7.672   8.634   1.752  0.0937  1.0387 -0.3265
 1000MOL0     C31932   7.567   8.677   1.796 -0.4321 -0.1249  0.5472
 1000MOL0     C31933   8.029   8.915   2.245  0.1301  0.5259  0.1158
 1000MOL0     C31934   8.005   8.911   2.382  0.3723 -0.4308 -1.4952
 1000MOL0     H31935   8.076   8.836   2.874  1.2350 -1.1301  0.8869
 1000MOL0     H31936   7.984   8.834   3.103 -0.7256  0.1025 -0.0473
 1000MOL0     H31937   7.577   8.860   3.276 -0.6903 -1.9264 -0.6450
 1000MOL0     H31938   7.537   8.942   3.122  2.2901  1.4945 -1.6652
 1000MOL0     H31939   7.513   9.062   3.346 -0.6673  0.2477  0.8229
 1000MOL0     H31940   7.601   9.145   3.210  0.4469  0.2716 -0.0048
 1000MOL0     H31941   7.810   9.077   3.320 -0.2468  2.5035  0.9394
 1000MOL0     H31942   7.722   9.000   3.455  1.9813  0.7022  0.8457
 1000MOL0     H31943   7.810   9.267   3.438 -1.6005  0.5392 -2.6656
 1000MOL0     H31944   7.639   9.278   3.442 -0.4638 -1.0018  2.6583
 1000MOL0     H31945   7.821   9.137   3.645  0.4997  0.9741  1.2719
 1000MOL0     H31946   7.644   9.127   3.652  1.4030 -1.2129  0.8725
 1000MOL0     H31947   7.634   9.369   3.668 -1.4418  0.4381  5.7490
 1000MOL0     H31948   7.811   9.386   3.663  2.5421 -2.7918  2.1995
 1000MOL0     H31949   7.651   9.204   3.851  2.3765 -1.6694  0.2106
 1000MOL0     H31950   7.822   9.246   3.872  0.2877 -0.4750 -0.1464
 1000MOL0     H31951   7.586   9.447   3.908  0.2929 -2.5786  0.3999
 1000MOL0     H31952   7.754   9.496   3.891  0.9676 -0.9112 -0.0331
 1000MOL0     H31953   7.936   9.455   4.058  1.6917 -3.1644  1.7643
 1000MOL0     H31954   7.964   9.510   4.335 -0.5798  0.1250 -1.6873
 1000MOL0     H31955   8.041   9.341   4.315 -0.8719  0.2703 -0.0111
 1000MOL0     H31956   7.916   9.262   4.507  0.9237  0.1670  0.0489
 1000MOL0     H31957   7.831   9.415   4.524  1.2762  1.9662  1.0973
 1000MOL0     H31958   8.130   9.362   4.573 -1.5391 -2.2615  0.9977
 1000MOL0     H31959   8.060   9.530   4.557  2.8012 -0.6838  1.5268
 1000MOL0     H31960   8.029   9.308   4.762 -0.8847  0.4399 -1.5417
 1000MOL0     H31961   7.926   9.456   4.755 -1.4535 -1.0327 -0.7595
 1000MOL0     H31962   8.098   9.379   5.005 -1.8451  0.6738 -3.3647
 1000MOL0     H31963   8.028   9.488   5.234 -0.6518 -2.2573 -0.3238
 1000MOL0     H31964   7.954  10.125   5.222  1.0789 -0.4650  0.3924
 1000MOL0     H31965   7.868  10.294   5.389  0.1697  0.4535 -1.9619
 1000MOL0     H31966   7.830  10.183   5.855 -0.5828 -2.0444  0.1196
 1000MOL0     H31967   7.712  10.074   5.784  1.9880 -0.9879 -3.5856
 1000MOL0     H31968   7.597  10.234   5.932  1.6271  1.1259  1.1194
 1000MOL0     H31969   7.532  10.256   5.769 -0.6583 -2.5352  0.3135
 1000MOL0     H31970   7.721  10.459   5.782  2.5846 -3.3239 -0.4362
 1000MOL0     H31971   7.725  10.413   5.951  2.1719 -1.1390 -0.7442
 1000MOL0     H31972   7.469  10.483   5.802 -0.3284 -2.2350  0.5446
 1000MOL0     H31973   7.479  10.431   5.970  0.8306  1.0766  2.2496
 1000MOL0     H31974   7.614  10.686   5.872  1.8066 -2.0858 -0.0561
 1000MOL0     H31975   7.597  10.641   6.040  0.4599  2.1635 -1.0960
 1000MOL0     H31976   7.343  10.620   6.015 -1.5300  1.4999  0.3508
 1000MOL0     H31977   7.362  10.703   5.861  1.2342  1.2507  0.1547
 1000MOL0     H31978   7.415  10.793   6.151 -6.0222 -2.4488 -0.9823
 1000MOL0     H31979   7.493  10.880   6.000 -0.2945  0.2332 -0.0663
 1000MOL0     H31980   7.213  10.814   6.031  2.4075 -1.9253 -0.5145
 1000MOL0     H31981   7.291  10.929   5.912 -2.1607 -2.4851 -1.7033
 1000MOL0     H31982   7.904   9.989   5.708  3.8077 -1.0320 -1.0200
 1000MOL0     H31983   7.983   9.835   5.529  0.3868  1.3273  1.3943
 1000MOL0     H31984   8.044   9.858   5.016 -1.1475 -0.2137  1.1080
 1000MOL0     H31985   8.061   9.736   4.805  2.6148 -1.9647  0.0413
 1000MOL0     H31986   7.594   8.925   2.922  0.1517 -3.1740  0.9193
 1000MOL0     H31987   7.698   8.959   2.720  0.2462 -0.1262 -0.9139
 1000MOL0     H31988   8.165   8.628   2.464 -0.2940 -1.1381 -1.2956
 1000MOL0     H31989   8.211   8.630   2.218  0.2900 -0.5568 -1.2359
 1000MOL0     H31990   8.092   8.602   2.046 -0.3832  0.9555 -0.2985
 1000MOL0     H31991   8.167   8.658   1.909 -1.5004  1.0354 -2.3343
 1000MOL0     H31992   7.886   8.730   1.959  0.6735 -3.2407  2.2756
 1000MOL0     H31993   7.985   8.765   1.807  0.7333 -1.1329 -1.3910
 1000MOL0     H31994   7.852   8.512   1.920  0.5155  1.5674  1.1026
 1000MOL0     H31995   7.985   8.493   1.803 -1.3694 -0.6438 -1.1427
 1000MOL0     H31996   7.867   8.612   1.645 -0.6383 -1.2174 -1.3826
 1000MOL0     H31997   7.782   8.470   1.696 -0.1012  0.4746 -3.5266
 1000MOL0     H31998   7.476   8.708   1.842 -1.5789 -0.4938 -1.3488
 1000MOL0     H31999   7.996   9.001   2.188 -0.8388 -0.3404 -0.6838
 1000MOL0     H32000   7.937   8.987   2.419 -0.0084 -1.3930 -0.1574
 1001MOL0     O32001   5.082   2.928   8.724  0.0569 -0.6243 -0.3859
 1001MOL0     C32002   5.053   3.050   8.713  0.1098  1.3653  0.5095
 1001MOL0     O32003   5.121   3.149   8.633  0.3188  0.0610  0.4499
 1001MOL0     C32004   5.195   3.103   8.532 -0.3103 -1.0548 -0.0600
 1001MOL0     C32005   5.325   3.142   8.514 -0.8512 -0.1693 -0.6206
 1001MOL0     C32006   5.404   3.088   8.405  0.2387 -0.5456  0.2218
 1001MOL0     C32007   5.339   3.009   8.308  0.0104  0.9142 -0.1302
 1001MOL0     O32008   5.430   2.963   8.215  0.5262  0.4285 -0.0650
 1001MOL0     C32009   5.410   3.018   8.080  0.0174 -0.2521 -1.5997
 1001MOL0     C32010   5.497   2.952   7.974  0.6166  0.0464  0.3588
 1001MOL0     C32011   5.641   2.929   8.012 -0.1857  0.5161 -0.9092
 1001MOL0     C32012   5.688   2.807   7.939 -0.2741 -0.1674  0.5912
 1001MOL0     C32013   5.836   2.763   7.984 -0.0621  0.2152 -0.2092
 1001MOL0     C32014   5.863   2.614   7.962  0.1715  0.3828  0.6101
 1001MOL0     C32015   5.977   2.565   8.046 -0.5069 -0.1650 -0.0708
 1001MOL0     C32016   5.990   2.410   8.035 -0.0873 -0.3167 -1.0878
 1001MOL0     N32017   6.084   2.377   8.145 -0.0980  0.1132 -0.2801
 1001MOL0     C32018   6.217   2.365   8.134  0.5405  1.2845  0.1293
 1001MOL0     C32019   6.263   2.324   8.248  0.1577  0.5002  0.5313
 1001MOL0     C32020   6.404   2.295   8.281  0.4514  0.3332  0.0490
 1001MOL0     C32021   6.472   2.430   8.289 -0.9460  0.2513 -0.3625
 1001MOL0     C32022   6.630   2.430   8.299 -0.2287  0.3501  0.1375
 1001MOL0     C32023   6.709   2.306   8.246 -0.3960 -0.5061 -0.0025
 1001MOL0     O32024   6.691   2.304   8.098 -0.4885  0.2688 -0.0037
 1001MOL0     C32025   6.722   2.188   8.032  0.6346  0.2838 -0.2721
 1001MOL0     C32026   6.779   2.075   8.091 -0.6666  0.1039 -0.2630
 1001MOL0     C32027   6.824   1.967   8.018 -0.3678  0.8507  0.0011
 1001MOL0     C32028   6.794   1.951   7.879 -0.7911 -0.2409 -0.4768
 1001MOL0     C32029   6.838   1.838   7.803 -0.6621 -0.3640  1.1808
 1001MOL0     O32030   6.939   1.769   7.864 -0.7010  0.1909  0.7892
 1001MOL0     C32031   6.992   1.654   7.805 -0.8567  0.5784 -0.3434
 1001MOL0     C32032   6.957   1.585   7.688 -0.2135 -0.0702  0.3602
 1001MOL0     C32033   7.011   1.463   7.641  0.9240  0.3046 -0.1433
 1001MOL0     C32034   7.128   1.408   7.707  0.4318 -0.5251  0.5844
 1001MOL0     O32035   7.195   1.294   7.680 -0.4670  0.5354  0.2605
 1001MOL0     C32036   7.139   1.196   7.587  0.6007  0.8899 -0.2938
 1001MOL0     C32037   7.254   1.105   7.547  0.4366  0.4209 -0.2083
 1001MOL0     C32038   7.228   1.040   7.412 -0.7302  0.3795  0.4884
 1001MOL0     C32039   7.352   0.961   7.365  0.6059 -0.7664 -0.7675
 1001MOL0     C32040   7.332   0.898   7.222 -0.8907 -0.1121  0.4241
 1001MOL0     C32041   7.311   1.003   7.108  0.1606  0.1662  0.7211
 1001MOL0     C32042   7.275   0.927   6.980  0.0868 -0.6205 -0.3569
 1001MOL0     C32043   7.393   0.878   6.894 -0.6803  0.5258 -0.9666
 1001MOL0    Cl32044   7.464   1.018   6.791 -0.7761 -0.2514 -0.1313
 1001MOL0     C32045   7.168   1.477   7.819 -0.1831 -0.4097  0.0973
 1001MOL0     C32046   7.106   1.595   7.866  0.1583 -0.1254  0.1988
 1001MOL0     O32047   6.782   1.815   7.701  0.2358 -0.4443  0.4285
 1001MOL0     C32048   6.718   2.061   7.826 -0.0361 -0.2336 -0.0196
 1001MOL0     C32049   6.689   2.174   7.900 -0.6764 -0.3815 -0.0857
 1001MOL0     N32050   6.155   2.326   8.338  0.0428 -0.3961 -0.0193
 1001MOL0     N32051   6.042   2.348   8.273  0.5017  0.3375  0.3943
 1001MOL0     C32052   5.206   2.964   8.322 -0.2255 -0.7383 -0.5345
 1001MOL0     C32053   5.132   3.018   8.426 -0.3008 -0.0495 -0.5382
 1001MOL0     C32054   4.936   3.092   8.786  1.1761  0.3862 -1.5343
 1001MOL0     C32055   4.892   3.023   8.908 -1.2927  0.0395  1.1565
 1001MOL0     C32056   4.778   3.068   8.966  0.4158  0.2123  0.4985
 1001MOL0     C32057   4.704   3.171   8.907 -0.3815 -0.2632 -0.2775
 1001MOL0     O32058   4.593   3.183   8.981  0.0454 -0.3838  0.0708
 1001MOL0     C32059   4.523   3.299   8.964 -0.3079  0.0008  0.2405
 1001MOL0     C32060   4.604   3.404   9.039  0.3929  1.1632 -0.1624
 1001MOL0     C32061   4.538   3.546   9.022  0.2165  0.9193 -0.5235
 1001MOL0     C32062   4.574   3.643   9.132 -0.4591 -0.6148  0.3707
 1001MOL0     C32063   4.524   3.774   9.112  0.0283  0.3499  1.0658
 1001MOL0     C32064   4.471   3.882   9.090  0.6894 -0.5404 -0.1645
 1001MOL0     C32065   4.744   3.233   8.788  0.1883 -0.4614  0.3078
 1001MOL0     C32066   4.860   3.195   8.733 -0.2868  0.2145 -0.6596
 1001MOL0     H32067   5.362   3.223   8.575 -2.4765  0.5783 -0.5787
 1001MOL0     H32068   5.510   3.114   8.401 -0.2778  1.6494 -2.7695
 1001MOL0     H32069   5.441   3.123   8.089 -0.2676 -0.2040 -1.0969
 1001MOL0     H32070   5.303   3.022   8.055 -0.3864  1.7908  0.1196
 1001MOL0     H32071   5.502   3.013   7.883 -1.6970 -1.4450 -0.8575
 1001MOL0     H32072   5.444   2.859   7.951  2.2562 -0.5325 -1.2730
 1001MOL0     H32073   5.655   2.902   8.117  3.2308 -0.0068 -1.3895
 1001MOL0     H32074   5.715   3.003   7.981  0.0826  1.7236  2.2749
 1001MOL0     H32075   5.626   2.724   7.973  1.9698 -1.5697  1.3946
 1001MOL0     H32076   5.676   2.819   7.830 -1.2720  0.4962  0.7562
 1001MOL0     H32077   5.848   2.781   8.091 -0.1075 -0.8722 -0.0088
 1001MOL0     H32078   5.910   2.823   7.930  0.5798 -0.0607  0.3376
 1001MOL0     H32079   5.876   2.597   7.854 -2.6291 -2.8328  0.6038
 1001MOL0     H32080   5.774   2.551   7.977 -0.4513  0.6352 -1.5495
 1001MOL0     H32081   6.077   2.597   8.013  0.4908 -1.9585  1.0658
 1001MOL0     H32082   5.959   2.594   8.150 -3.1725  3.1593 -1.2416
 1001MOL0     H32083   6.019   2.376   7.936  3.7360 -3.2153  0.7494
 1001MOL0     H32084   5.893   2.360   8.051  0.7449 -3.3278 -4.3168
 1001MOL0     H32085   6.291   2.361   8.055  0.4074 -3.4267 -0.0812
 1001MOL0     H32086   6.441   2.215   8.216 -1.7147 -0.0489 -0.7931
 1001MOL0     H32087   6.407   2.254   8.382  2.5396 -0.0648 -0.1238
 1001MOL0     H32088   6.429   2.484   8.373 -2.3032 -1.4217  0.0893
 1001MOL0     H32089   6.459   2.482   8.194  1.1322  1.7771  0.1204
 1001MOL0     H32090   6.666   2.525   8.260 -3.1464  1.2695 -0.6183
 1001MOL0     H32091   6.655   2.442   8.405 -2.1577  1.7874  0.4765
 1001MOL0     H32092   6.676   2.222   8.309  0.8045  1.3776  3.4136
 1001MOL0     H32093   6.815   2.313   8.273 -0.8143 -1.7048  2.2541
 1001MOL0     H32094   6.810   2.071   8.195 -0.4560 -3.0407 -0.3570
 1001MOL0     H32095   6.889   1.891   8.062 -0.9876  1.0488  1.2903
 1001MOL0     H32096   6.875   1.613   7.622 -1.1993 -1.9408  0.7126
 1001MOL0     H32097   6.958   1.403   7.568 -1.0631 -0.4692  1.7966
 1001MOL0     H32098   7.076   1.242   7.510 -1.5705 -2.4320 -0.7069
 1001MOL0     H32099   7.066   1.139   7.645  0.0346 -0.2003 -2.0050
 1001MOL0     H32100   7.267   1.026   7.621  1.8767  1.3209  0.5412
 1001MOL0     H32101   7.345   1.165   7.545 -0.4094  1.8773  1.6394
 1001MOL0     H32102   7.216   1.124   7.344  0.8559 -1.1207 -1.7805
 1001MOL0     H32103   7.140   0.975   7.410 -0.3776 -0.1107  0.7122
 1001MOL0     H32104   7.433   1.035   7.369 -1.0108  1.0209  1.9428
 1001MOL0     H32105   7.371   0.879   7.435  2.0761  1.4291  1.5733
 1001MOL0     H32106   7.236   0.845   7.230 -0.4478 -1.7715 -3.3890
 1001MOL0     H32107   7.416   0.834   7.195 -1.0503  0.2836 -1.0849
 1001MOL0     H32108   7.392   1.077   7.110 -2.2281  2.9732  0.2287
 1001MOL0     H32109   7.224   1.066   7.129  0.8026  0.8146  1.5195
 1001MOL0     H32110   7.213   0.841   7.007 -0.3502 -0.2654 -0.2164
 1001MOL0     H32111   7.200   0.981   6.923 -1.8881 -0.3260  2.3229
 1001MOL0     H32112   7.358   0.801   6.825 -2.5013 -0.1911  0.6586
 1001MOL0     H32113   7.459   0.816   6.957 -0.9047  0.8486 -0.4110
 1001MOL0     H32114   7.254   1.440   7.875 -1.3123 -0.6139  1.7723
 1001MOL0     H32115   7.159   1.642   7.949  0.7642  3.2592 -1.8678
 1001MOL0     H32116   6.691   2.061   7.721 -3.1605  0.0029  0.6629
 1001MOL0     H32117   6.631   2.254   7.854  1.1279  1.9185  1.4228
 1001MOL0     H32118   5.168   2.898   8.244 -0.8928 -0.4136 -0.4915
 1001MOL0     H32119   5.030   2.985   8.439 -0.4614  0.8271  0.5845
 1001MOL0     H32120   4.935   2.927   8.934 -1.3121  0.5912  3.3980
 1001MOL0     H32121   4.745   3.018   9.057  1.2993  2.3968  2.1142
 1001MOL0     H32122   4.427   3.284   9.015  1.3580 -3.2826  2.7419
 1001MOL0     H32123   4.506   3.336   8.862  0.5473  2.5846  0.9452
 1001MOL0     H32124   4.599   3.364   9.141  0.4991 -0.0120 -0.6039
 1001MOL0     H32125   4.708   3.408   9.007 -0.1619  2.8176 -1.9826
 1001MOL0     H32126   4.429   3.533   9.028  0.4228 -2.1594 -1.3342
 1001MOL0     H32127   4.576   3.575   8.924  1.1245 -3.3829 -1.6596
 1001MOL0     H32128   4.537   3.607   9.228 -2.6614 -3.1219 -1.3016
 1001MOL0     H32129   4.683   3.650   9.145 -0.8292  1.3992  3.0921
 1001MOL0     H32130   4.434   3.981   9.072 -0.8483 -0.4096  3.0222
 1001MOL0     H32131   4.690   3.321   8.753  0.2098  0.0730  1.5542
 1001MOL0     H32132   4.889   3.270   8.661  1.6883  0.2062  0.0682
 1002MOL0     O32133   5.517   5.735   6.603 -0.0970  0.6541  0.8335
 1002MOL0     C32134   5.401   5.693   6.567 -0.1079  0.7396 -0.4812
 1002MOL0     O32135   5.376   5.633   6.450  0.4956  0.7372  0.1640
 1002MOL0     C32136   5.472   5.627   6.355  0.3979  0.0821 -0.5759
 1002MOL0     C32137   5.455   5.701   6.235 -0.4165 -0.1753  0.2798
 1002MOL0     C32138   5.553   5.698   6.133 -0.5972  0.2171 -0.3194
 1002MOL0     C32139   5.675   5.628   6.157  0.1042  0.3829 -0.3079
 1002MOL0     O32140   5.764   5.629   6.054  0.9269 -0.9051 -0.0852
 1002MOL0     C32141   5.894   5.568   6.080  0.2653 -0.2724 -0.6787
 1002MOL0     C32142   5.982   5.590   5.955 -0.2569  1.0471  0.5412
 1002MOL0     C32143   6.024   5.722   5.915 -1.2447  0.2167 -0.0850
 1002MOL0     C32144   6.130   5.773   6.020 -1.4309 -0.7377 -0.4351
 1002MOL0     C32145   6.233   5.883   5.948 -0.1961 -1.0913 -1.1870
 1002MOL0     C32146   6.217   6.030   5.987 -0.2283 -0.0138 -0.4169
 1002MOL0     C32147   6.342   6.121   5.976 -0.1261 -0.2965  0.4977
 1002MOL0     C32148   6.309   6.234   5.880 -0.1571  0.1834  1.0480
 1002MOL0     N32149   6.429   6.321   5.855  0.9700  0.6611  0.7229
 1002MOL0     C32150   6.402   6.455   5.859  0.6107  1.4651  0.5535
 1002MOL0     C32151   6.511   6.510   5.804 -1.1110  0.0978  0.8552
 1002MOL0     C32152   6.551   6.656   5.798  0.2415  0.7340  1.0104
 1002MOL0     C32153   6.424   6.744   5.801 -0.4225 -0.7725 -0.0085
 1002MOL0     C32154   6.456   6.888   5.812  0.5772 -0.3719  0.3763
 1002MOL0     C32155   6.486   6.935   5.947  0.5932 -0.0566 -0.2436
 1002MOL0     O32156   6.615   6.912   5.993  0.5340  0.1648 -0.6181
 1002MOL0     C32157   6.662   6.954   6.115  0.2456 -0.1980  0.0929
 1002MOL0     C32158   6.800   6.940   6.127 -0.7218  0.2561 -0.9537
 1002MOL0     C32159   6.858   6.980   6.250 -0.0466  0.5875  0.1148
 1002MOL0     C32160   6.784   7.006   6.363 -0.3852  0.2963 -0.8134
 1002MOL0     C32161   6.865   7.016   6.483  0.7823  0.0744  0.0251
 1002MOL0     O32162   6.798   7.042   6.594 -0.3869 -0.6932 -0.1664
 1002MOL0     C32163   6.861   7.025   6.711  0.3437 -0.2092  0.3265
 1002MOL0     C32164   6.924   6.902   6.745  0.3395 -0.8789 -0.5936
 1002MOL0     C32165   7.012   6.908   6.856  0.4688  0.1535  0.6096
 1002MOL0     C32166   7.033   7.016   6.945  0.0566 -0.6553  0.6744
 1002MOL0     O32167   7.112   6.986   7.057 -0.4854  0.7901 -0.0991
 1002MOL0     C32168   7.117   7.079   7.170 -0.8697  0.3063 -0.5144
 1002MOL0     C32169   7.089   7.007   7.304  0.2179  0.2581  0.3453
 1002MOL0     C32170   7.030   7.096   7.419 -0.2154  1.2165  1.4589
 1002MOL0     C32171   7.140   7.181   7.491  0.1331 -0.7619  0.8318
 1002MOL0     C32172   7.148   7.147   7.640  1.0704  0.5757  0.1533
 1002MOL0     C32173   7.015   7.158   7.729 -0.8373 -0.1876  0.1100
 1002MOL0     C32174   7.047   7.140   7.879  0.4165  0.6162 -1.4067
 1002MOL0     C32175   6.913   7.135   7.950 -0.3858  0.1764  0.6852
 1002MOL0    Cl32176   6.849   6.972   7.938 -0.2828  0.1564 -0.2644
 1002MOL0     C32177   6.961   7.134   6.916  0.0438 -0.0920  0.2684
 1002MOL0     C32178   6.879   7.132   6.797  0.5827 -0.7061  0.1826
 1002MOL0     O32179   6.982   6.974   6.474  0.7248  0.2571  0.1156
 1002MOL0     C32180   6.644   7.011   6.348 -0.6902  0.1600  0.6215
 1002MOL0     C32181   6.586   6.994   6.225 -0.0584 -0.9763 -0.3475
 1002MOL0     N32182   6.591   6.412   5.753  0.0991 -1.2383  0.1731
 1002MOL0     N32183   6.536   6.298   5.782 -0.4269 -0.2831  0.8015
 1002MOL0     C32184   5.688   5.549   6.273  0.1958  0.2497  1.0219
 1002MOL0     C32185   5.586   5.559   6.374 -0.4992  0.4087  0.1093
 1002MOL0     C32186   5.289   5.718   6.658 -0.3489 -0.4816  0.3079
 1002MOL0     C32187   5.302   5.818   6.755  0.3727  0.7659  0.7059
 1002MOL0     C32188   5.191   5.862   6.819  0.9953 -0.0480  0.8234
 1002MOL0     C32189   5.062   5.808   6.799  0.1576 -0.1489 -0.2548
 1002MOL0     O32190   4.951   5.838   6.869 -0.5858 -0.2819 -0.3592
 1002MOL0     C32191   4.923   5.983   6.911 -0.2197  0.6262  0.8668
 1002MOL0     C32192   4.948   5.991   7.060  0.4247  0.1039 -0.8035
 1002MOL0     C32193   4.823   5.966   7.149  0.5959 -0.2405  0.5083
 1002MOL0     C32194   4.807   6.065   7.274 -0.9694 -0.5869  0.2583
 1002MOL0     C32195   4.922   6.048   7.367 -0.8039  1.6232  0.0474
 1002MOL0     C32196   5.016   6.053   7.445 -0.2711  0.2170  0.8923
 1002MOL0     C32197   5.047   5.709   6.704  0.0349  0.3343  0.4098
 1002MOL0     C32198   5.162   5.658   6.640 -0.0429 -0.1372 -0.5516
 1002MOL0     H32199   5.364   5.760   6.227  0.2360  1.1135  1.8631
 1002MOL0     H32200   5.548   5.747   6.036  2.3994 -0.4979 -0.9272
 1002MOL0     H32201   5.892   5.459   6.085  1.4808 -0.2854  0.1588
 1002MOL0     H32202   5.946   5.604   6.169 -0.6827  1.3601 -0.7505
 1002MOL0     H32203   5.918   5.545   5.879 -2.5014  0.3032  2.7060
 1002MOL0     H32204   6.068   5.524   5.946 -0.8532  0.4892 -7.2572
 1002MOL0     H32205   5.944   5.795   5.901  0.8920  2.2983 -2.4703
 1002MOL0     H32206   6.072   5.710   5.817 -0.1768 -0.8229  0.5529
 1002MOL0     H32207   6.078   5.812   6.108  1.9273 -0.7511  1.7510
 1002MOL0     H32208   6.193   5.687   6.044  0.5573  0.6790 -0.2800
 1002MOL0     H32209   6.247   5.871   5.840  1.7608 -0.1283 -1.0983
 1002MOL0     H32210   6.327   5.849   5.992 -0.0155  0.0634 -0.6231
 1002MOL0     H32211   6.197   6.042   6.094  0.3190  0.2314 -0.3353
 1002MOL0     H32212   6.125   6.067   5.942 -1.5650 -0.2610  1.9518
 1002MOL0     H32213   6.369   6.161   6.074  2.8398 -1.0043  0.0732
 1002MOL0     H32214   6.423   6.055   5.944  0.2849  0.7485 -0.7240
 1002MOL0     H32215   6.228   6.291   5.928 -3.0987  1.0270 -4.1676
 1002MOL0     H32216   6.274   6.209   5.780  0.3404  0.8525  0.7010
 1002MOL0     H32217   6.318   6.500   5.911  0.0068 -0.4602  1.3273
 1002MOL0     H32218   6.629   6.670   5.723  1.5129 -0.7021  2.0037
 1002MOL0     H32219   6.609   6.671   5.890 -0.8272  0.4720  1.7359
 1002MOL0     H32220   6.371   6.716   5.893  0.3196  0.7938  0.9445
 1002MOL0     H32221   6.364   6.732   5.711 -1.0117  1.1963  0.0824
 1002MOL0     H32222   6.531   6.917   5.738  1.5484 -0.5467  1.2777
 1002MOL0     H32223   6.367   6.948   5.792  1.1653  1.2213  2.2565
 1002MOL0     H32224   6.404   6.901   6.011 -1.2116 -0.5413 -2.6478
 1002MOL0     H32225   6.483   7.045   5.944  3.2460  0.0949  0.2282
 1002MOL0     H32226   6.862   6.927   6.039  1.4018 -0.1719  0.5383
 1002MOL0     H32227   6.966   6.986   6.241  0.0541  0.1104  0.8881
 1002MOL0     H32228   6.907   6.807   6.696 -5.3034 -1.4485  1.7789
 1002MOL0     H32229   7.078   6.825   6.884 -0.7039 -0.6246  1.1535
 1002MOL0     H32230   7.033   7.149   7.174 -2.0159 -1.0733  0.8041
 1002MOL0     H32231   7.219   7.114   7.150 -0.3235 -0.9895 -0.0990
 1002MOL0     H32232   7.175   6.956   7.349  0.5536  0.1400 -0.4065
 1002MOL0     H32233   7.021   6.922   7.292 -1.5241  1.5406  0.8850
 1002MOL0     H32234   6.976   7.027   7.485 -1.2008  1.3467  0.8148
 1002MOL0     H32235   6.952   7.162   7.381 -2.3561 -1.6732  0.3913
 1002MOL0     H32236   7.240   7.174   7.447  1.6189  0.7221  3.7196
 1002MOL0     H32237   7.099   7.281   7.474 -1.8342 -1.5659  0.5772
 1002MOL0     H32238   7.227   7.207   7.686  1.7162 -0.4800  0.4564
 1002MOL0     H32239   7.180   7.043   7.653  0.3333  0.2433 -0.5598
 1002MOL0     H32240   6.940   7.090   7.687  0.8721 -0.7176 -2.2749
 1002MOL0     H32241   6.982   7.262   7.714  2.7747  1.3041  1.4757
 1002MOL0     H32242   7.104   7.049   7.898  0.9141  0.8344 -1.8386
 1002MOL0     H32243   7.102   7.230   7.905  1.3863 -0.8149  2.0355
 1002MOL0     H32244   6.854   7.221   7.918 -0.5022  0.7262  2.2996
 1002MOL0     H32245   6.918   7.155   8.057  0.8168  1.7150  0.3783
 1002MOL0     H32246   6.978   7.221   6.979 -1.4629  0.7583 -0.4171
 1002MOL0     H32247   6.832   7.225   6.767  2.0655  0.2630  0.7989
 1002MOL0     H32248   6.577   7.024   6.433 -3.9943  1.3115 -1.9415
 1002MOL0     H32249   6.478   7.001   6.229 -0.0401  0.5458 -1.3785
 1002MOL0     H32250   5.775   5.486   6.291 -0.5953 -1.8533 -1.8576
 1002MOL0     H32251   5.614   5.510   6.466  2.2925  0.0115 -0.8638
 1002MOL0     H32252   5.396   5.865   6.783  1.1630 -1.4417  2.0404
 1002MOL0     H32253   5.213   5.929   6.902  1.9204 -0.4336  0.9063
 1002MOL0     H32254   4.831   6.024   6.869  1.3475  2.3455 -1.0646
 1002MOL0     H32255   4.999   6.043   6.861 -0.4099 -0.6377 -1.0173
 1002MOL0     H32256   5.023   5.923   7.102  1.8934  0.6201 -2.5020
 1002MOL0     H32257   4.966   6.098   7.075 -3.8571  0.9963 -0.7946
 1002MOL0     H32258   4.821   5.861   7.181  0.1557 -0.9771 -1.7554
 1002MOL0     H32259   4.735   5.969   7.084 -1.2387 -1.2616  2.8388
 1002MOL0     H32260   4.805   6.171   7.247 -0.8198 -0.0098  2.3044
 1002MOL0     H32261   4.712   6.057   7.327 -0.0193  2.3173  2.7363
 1002MOL0     H32262   5.094   6.046   7.519 -0.2619  1.8603  1.0649
 1002MOL0     H32263   4.951   5.666   6.679  0.8021 -2.8337  2.2955
 1002MOL0     H32264   5.151   5.578   6.567  0.4877 -2.8457  2.1387
 1003MOL0     O32265   7.314   8.779   3.930 -0.5192  0.2876  0.5685
 1003MOL0     C32266   7.407   8.861   3.946  0.0439 -0.3707  0.0086
 1003MOL0     O32267   7.478   8.924   3.853  0.1686  0.7829  0.7699
 1003MOL0     C32268   7.453   8.870   3.729  0.7307  0.0380  0.1961
 1003MOL0     C32269   7.338   8.891   3.646 -0.3272 -0.5024 -0.4130
 1003MOL0     C32270   7.319   8.831   3.517  0.4198 -0.5145  0.4107
 1003MOL0     C32271   7.424   8.748   3.464  0.9405 -0.2333  0.1084
 1003MOL0     O32272   7.425   8.692   3.336 -0.3824  0.0820 -0.2407
 1003MOL0     C32273   7.295   8.700   3.272  0.1268 -0.6366 -0.4383
 1003MOL0     C32274   7.284   8.629   3.132 -0.0785 -0.6421 -0.2094
 1003MOL0     C32275   7.404   8.672   3.048 -0.4626  1.4524  0.0541
 1003MOL0     C32276   7.399   8.605   2.914  0.3845  0.2918 -0.3032
 1003MOL0     C32277   7.537   8.605   2.845 -0.5350 -0.1019  0.1492
 1003MOL0     C32278   7.561   8.496   2.731 -0.1093 -0.1331  0.1041
 1003MOL0     C32279   7.690   8.533   2.651  0.5055  0.2527 -0.1602
 1003MOL0     C32280   7.789   8.421   2.653 -0.4391 -0.1607  0.7393
 1003MOL0     N32281   7.834   8.402   2.795 -0.5976  0.2637 -0.5766
 1003MOL0     C32282   7.893   8.494   2.879  1.5032 -0.2998  0.1936
 1003MOL0     C32283   7.908   8.445   3.001 -0.2928 -0.1698 -0.1215
 1003MOL0     C32284   7.967   8.513   3.125  0.5846  0.2978  0.0573
 1003MOL0     C32285   7.875   8.557   3.233 -0.1903 -0.6939 -0.6532
 1003MOL0     C32286   7.948   8.537   3.367  0.1492  0.8368 -0.0129
 1003MOL0     C32287   8.072   8.619   3.380 -0.2166 -0.4165 -0.2321
 1003MOL0     O32288   8.060   8.762   3.351 -0.0896 -1.2892 -0.7053
 1003MOL0     C32289   8.138   8.853   3.421  0.1681  0.3616 -0.0297
 1003MOL0     C32290   8.082   8.974   3.476  0.9126 -0.5375 -0.5103
 1003MOL0     C32291   8.137   9.052   3.581 -0.1444  0.1157 -0.0047
 1003MOL0     C32292   8.257   9.002   3.631 -0.1306  0.0255  0.2224
 1003MOL0     C32293   8.310   9.062   3.749  0.2693  0.1249 -0.6455
 1003MOL0     O32294   8.221   9.136   3.826 -1.0468  0.2590 -0.5094
 1003MOL0     C32295   8.267   9.149   3.957  0.8943  0.3692 -0.0974
 1003MOL0     C32296   8.226   9.063   4.069 -0.5818  0.6502  0.1424
 1003MOL0     C32297   8.246   9.110   4.196  0.4528  1.0195  0.1213
 1003MOL0     C32298   8.309   9.237   4.216  0.4872  0.4949 -0.9183
 1003MOL0     O32299   8.360   9.289   4.337  0.0556 -0.2973 -0.0520
 1003MOL0     C32300   8.469   9.213   4.381 -0.3899  0.0391 -0.2826
 1003MOL0     C32301   8.579   9.304   4.442  1.0870  0.3243  0.1659
 1003MOL0     C32302   8.570   9.303   4.591  0.4704  0.1440 -0.0536
 1003MOL0     C32303   8.442   9.369   4.656 -1.0958  1.0906  0.6063
 1003MOL0     C32304   8.465   9.370   4.809  0.0034 -0.8756  0.4727
 1003MOL0     C32305   8.532   9.501   4.856 -0.7900 -0.3972  0.1641
 1003MOL0     C32306   8.546   9.492   5.004  0.4500 -0.1493  0.4957
 1003MOL0     C32307   8.538   9.629   5.073 -0.0315  0.4570  0.5949
 1003MOL0    Cl32308   8.684   9.733   5.049  0.3616 -0.1478 -0.4766
 1003MOL0     C32309   8.328   9.321   4.111 -0.4276 -0.1194  0.1945
 1003MOL0     C32310   8.304   9.275   3.986  0.7717 -0.0025  0.7544
 1003MOL0     O32311   8.425   9.021   3.788  0.4066 -0.1218  0.1320
 1003MOL0     C32312   8.325   8.897   3.571 -0.1713  0.1980  0.8640
 1003MOL0     C32313   8.269   8.823   3.463  0.4529 -0.0048 -0.3400
 1003MOL0     N32314   7.852   8.320   2.993 -0.8509 -0.0639  0.0504
 1003MOL0     N32315   7.809   8.292   2.873 -0.1704 -0.1191 -0.1197
 1003MOL0     C32316   7.535   8.737   3.538 -0.4111 -0.2675 -0.4992
 1003MOL0     C32317   7.546   8.792   3.674  0.5697 -0.1263  0.6674
 1003MOL0     C32318   7.438   8.879   4.084  0.0324 -0.0863 -0.5669
 1003MOL0     C32319   7.528   8.993   4.132 -0.5665 -0.3882 -0.0159
 1003MOL0     C32320   7.549   9.016   4.266 -0.2674  0.0590  0.0889
 1003MOL0     C32321   7.503   8.928   4.356 -1.0291  0.4746 -0.0136
 1003MOL0     O32322   7.532   8.933   4.489  0.5774  0.3149 -0.1084
 1003MOL0     C32323   7.590   9.042   4.549  0.4093  0.0891 -0.1737
 1003MOL0     C32324   7.476   9.136   4.594 -0.3725 -1.0231 -1.2519
 1003MOL0     C32325   7.376   9.078   4.691 -0.6947  0.1564  0.2425
 1003MOL0     C32326   7.278   9.199   4.735 -0.0591 -0.1761  0.1200
 1003MOL0     C32327   7.160   9.137   4.795  1.0379 -0.6946  0.1360
 1003MOL0     C32328   7.063   9.092   4.841 -0.0685  1.1048 -0.6302
 1003MOL0     C32329   7.423   8.820   4.309  0.4149 -0.2353 -0.3625
 1003MOL0     C32330   7.398   8.789   4.178 -0.1699  0.5683 -1.4262
 1003MOL0     H32331   7.256   8.954   3.679 -0.1641  0.3724 -1.6114
 1003MOL0     H32332   7.229   8.852   3.460  3.3988  1.2997 -4.2029
 1003MOL0     H32333   7.288   8.806   3.248  1.1134 -0.6683 -0.9259
 1003MOL0     H32334   7.221   8.662   3.343 -0.1099 -1.1172 -0.9376
 1003MOL0     H32335   7.193   8.655   3.078  0.2536 -1.6412 -1.2893
 1003MOL0     H32336   7.281   8.521   3.148  2.9586 -0.7102  0.6010
 1003MOL0     H32337   7.490   8.641   3.108 -1.5626 -0.9094  0.5333
 1003MOL0     H32338   7.418   8.780   3.041  1.9940  1.2612  1.1577
 1003MOL0     H32339   7.368   8.503   2.936 -1.9749  1.3531  1.8007
 1003MOL0     H32340   7.328   8.657   2.849  2.2354  1.4137 -1.5372
 1003MOL0     H32341   7.609   8.581   2.924 -1.2739  1.7816  1.4798
 1003MOL0     H32342   7.558   8.703   2.801 -1.8639  0.6528  1.1090
 1003MOL0     H32343   7.471   8.497   2.669 -0.2754  1.7407  0.3327
 1003MOL0     H32344   7.561   8.396   2.776  1.9846 -0.8385 -1.3078
 1003MOL0     H32345   7.650   8.554   2.551 -3.6469  0.2043  1.2925
 1003MOL0     H32346   7.743   8.616   2.697  2.6664 -2.4172  2.6162
 1003MOL0     H32347   7.871   8.449   2.588 -1.7269 -2.9372 -2.3600
 1003MOL0     H32348   7.737   8.330   2.621  1.8541 -0.1748 -3.6693
 1003MOL0     H32349   7.915   8.596   2.850  0.1930 -1.2312 -5.1797
 1003MOL0     H32350   8.032   8.596   3.093 -0.2216  0.7855 -0.3649
 1003MOL0     H32351   8.019   8.431   3.176  0.0632 -1.6255 -2.3130
 1003MOL0     H32352   7.782   8.500   3.219  0.7256 -2.1560 -1.0249
 1003MOL0     H32353   7.848   8.663   3.231 -1.9030 -1.1025 -0.7892
 1003MOL0     H32354   7.881   8.576   3.443  0.2128  1.4476 -0.2672
 1003MOL0     H32355   7.972   8.432   3.388  1.8075  0.9297 -1.1983
 1003MOL0     H32356   8.136   8.578   3.302 -2.2109 -0.7907 -1.7549
 1003MOL0     H32357   8.122   8.602   3.476  2.7432  2.4729 -1.0619
 1003MOL0     H32358   7.979   8.997   3.449  1.4541  0.8589 -1.5276
 1003MOL0     H32359   8.091   9.143   3.620 -2.5878 -1.1855  0.3271
 1003MOL0     H32360   8.163   8.976   4.055 -0.7768  1.0129 -1.3767
 1003MOL0     H32361   8.202   9.050   4.276 -3.4904  0.7693 -2.0234
 1003MOL0     H32362   8.515   9.144   4.309 -0.8635 -2.2371  1.4917
 1003MOL0     H32363   8.429   9.157   4.465 -0.7365 -0.5346 -0.8269
 1003MOL0     H32364   8.565   9.407   4.407 -0.2530 -1.0532 -3.9329
 1003MOL0     H32365   8.672   9.258   4.407 -1.3584 -2.8417 -2.9341
 1003MOL0     H32366   8.663   9.349   4.626  0.2297  0.7431 -0.1907
 1003MOL0     H32367   8.578   9.201   4.631 -0.1963  0.3930  0.7491
 1003MOL0     H32368   8.422   9.467   4.611 -0.7488  1.2027  0.6905
 1003MOL0     H32369   8.362   9.296   4.647  0.3563 -0.6717  1.2737
 1003MOL0     H32370   8.510   9.278   4.847 -0.7646 -1.1713  0.6895
 1003MOL0     H32371   8.366   9.378   4.856 -0.4099  1.7629 -0.6851
 1003MOL0     H32372   8.482   9.593   4.825  2.4664  1.7988  0.8562
 1003MOL0     H32373   8.631   9.517   4.813  0.0657  2.8875  2.8921
 1003MOL0     H32374   8.461   9.433   5.038 -0.5718 -0.3080 -2.1102
 1003MOL0     H32375   8.634   9.432   5.030  1.1230  0.5867 -0.0327
 1003MOL0     H32376   8.521   9.611   5.180 -2.6058  1.7449  0.4949
 1003MOL0     H32377   8.458   9.690   5.031 -0.4743 -0.0406  0.6993
 1003MOL0     H32378   8.373   9.416   4.138  0.1963  0.8152 -3.6440
 1003MOL0     H32379   8.327   9.341   3.903  3.7137 -1.9506 -0.1342
 1003MOL0     H32380   8.419   8.863   3.614  0.6324  2.3367  0.9207
 1003MOL0     H32381   8.323   8.734   3.432 -0.9451 -1.7528  1.9377
 1003MOL0     H32382   7.614   8.673   3.502 -0.8013 -0.2876 -1.3561
 1003MOL0     H32383   7.635   8.779   3.736 -0.0467 -0.5900  1.4758
 1003MOL0     H32384   7.568   9.066   4.063  0.5420 -1.8688 -0.9883
 1003MOL0     H32385   7.600   9.112   4.280 -0.6895  0.5939 -1.7626
 1003MOL0     H32386   7.651   9.098   4.477 -4.1102  0.9255 -3.8547
 1003MOL0     H32387   7.647   8.991   4.626  0.7501 -1.2366 -1.2700
 1003MOL0     H32388   7.521   9.221   4.646 -1.0910 -1.5276  0.2409
 1003MOL0     H32389   7.430   9.172   4.502  4.5124  0.4402 -3.5119
 1003MOL0     H32390   7.433   9.048   4.779 -1.0265  1.0779  0.7892
 1003MOL0     H32391   7.326   8.993   4.644 -1.5860 -0.2358  1.8248
 1003MOL0     H32392   7.332   9.268   4.801  0.2725  0.9581 -1.2825
 1003MOL0     H32393   7.240   9.245   4.644 -1.6416 -0.3695  0.6539
 1003MOL0     H32394   6.973   9.065   4.894  1.3382 -4.5080 -0.4681
 1003MOL0     H32395   7.389   8.757   4.391 -3.6100 -0.7745 -2.2085
 1003MOL0     H32396   7.352   8.694   4.152  1.6371  0.4618 -4.7851
 1004MOL0     O32397   6.406   2.000   9.550  0.2109  0.1961 -0.6605
 1004MOL0     C32398   6.299   1.956   9.497 -0.8793 -0.1825 -0.2150
 1004MOL0     O32399   6.174   2.009   9.533 -0.1556  0.5059  0.5088
 1004MOL0     C32400   6.160   2.120   9.614  0.0130  1.1521  0.4181
 1004MOL0     C32401   6.208   2.246   9.581  0.0237 -0.0830  0.5032
 1004MOL0     C32402   6.171   2.353   9.667  0.4438  0.0470  0.0539
 1004MOL0     C32403   6.130   2.331   9.799 -0.0305 -0.3594  0.1212
 1004MOL0     O32404   6.119   2.447   9.880 -0.1136  0.2047 -0.0513
 1004MOL0     C32405   6.073   2.449  10.004 -0.1600 -0.0086 -1.0750
 1004MOL0     C32406   6.190   2.435  10.102  0.3514  0.5303 -0.4611
 1004MOL0     C32407   6.281   2.557  10.118  1.1881 -0.8704 -0.7087
 1004MOL0     C32408   6.365   2.536  10.242  0.3041 -0.2232 -0.0652
 1004MOL0     C32409   6.468   2.646  10.253 -0.4101 -0.9324  0.1165
 1004MOL0     C32410   6.514   2.668  10.392 -0.6624 -0.6807 -0.4208
 1004MOL0     C32411   6.611   2.795  10.405 -0.5279  0.0199 -1.0201
 1004MOL0     C32412   6.607   2.860  10.548  0.2612 -0.7827  0.3828
 1004MOL0     N32413   6.551   2.772  10.648  0.4533 -0.0135 -0.9913
 1004MOL0     C32414   6.589   2.647  10.683 -0.4269 -0.3768  0.5814
 1004MOL0     C32415   6.503   2.600  10.774 -0.2068 -0.1696 -0.0937
 1004MOL0     C32416   6.498   2.467  10.847  0.1429  0.1783  0.5844
 1004MOL0     C32417   6.519   2.468  10.998  1.0388 -0.6859  0.0255
 1004MOL0     C32418   6.552   2.338  11.066 -0.1236 -0.0872  0.4584
 1004MOL0     C32419   6.687   2.285  11.031 -0.1943  1.3874 -0.0730
 1004MOL0     O32420   6.796   2.341  11.096  0.3673 -1.1292 -0.4268
 1004MOL0     C32421   6.830   2.302  11.221 -1.1647  0.5483  0.0365
 1004MOL0     C32422   6.782   2.194  11.295 -0.1036 -0.5988  0.6504
 1004MOL0     C32423   6.831   2.169  11.423  0.1974 -0.2808 -0.4830
 1004MOL0     C32424   6.924   2.259  11.481 -0.6347  0.3086 -0.0476
 1004MOL0     C32425   6.988   2.225  11.608  0.3891  0.3230 -0.4704
 1004MOL0     O32426   7.003   2.101  11.662 -0.7433 -0.4472  0.5711
 1004MOL0     C32427   7.030   2.089  11.792 -1.0034  0.1375  0.1239
 1004MOL0     C32428   7.160   2.144  11.841 -0.3667  0.1979 -0.3823
 1004MOL0     C32429   7.187   2.150  11.978 -0.6472  0.0236 -0.4866
 1004MOL0     C32430   7.112   2.063  12.056 -0.5011 -0.5763 -0.9356
 1004MOL0     O32431   7.139   2.035  12.190 -0.6796 -0.2512 -0.4527
 1004MOL0     C32432   7.171   1.903  12.231  0.4249  0.9212  0.7703
 1004MOL0     C32433   7.274   1.899  12.349  0.0198 -0.4647 -0.2435
 1004MOL0     C32434   7.225   1.963  12.479  1.0531  0.6366  0.7727
 1004MOL0     C32435   7.316   1.932  12.590  0.5311  0.9145 -0.0339
 1004MOL0     C32436   7.250   1.841  12.700  0.8452  0.6441 -0.3106
 1004MOL0     C32437   7.144   1.900  12.805  0.0546 -0.4942  0.3230
 1004MOL0     C32438   7.072   1.788  12.876 -0.0281  0.8406  0.3515
 1004MOL0     C32439   7.018   1.831  13.016  0.1863 -0.5949  1.3308
 1004MOL0    Cl32440   6.910   1.968  12.994 -0.0106  0.1909 -0.4883
 1004MOL0     C32441   7.001   1.998  12.010 -0.2221  0.1390 -0.7046
 1004MOL0     C32442   6.951   2.018  11.886  0.4303 -0.6719 -0.1227
 1004MOL0     O32443   7.036   2.322  11.666 -0.4211 -0.3103 -0.0097
 1004MOL0     C32444   6.966   2.379  11.409 -0.7057 -0.1899 -0.4379
 1004MOL0     C32445   6.915   2.391  11.282 -1.1360 -0.8520 -0.3443
 1004MOL0     N32446   6.403   2.701  10.779  0.0755  0.0663 -0.3746
 1004MOL0     N32447   6.435   2.803  10.706  0.1826 -0.3215 -0.0637
 1004MOL0     C32448   6.100   2.199   9.839  0.4636 -0.2945  0.0168
 1004MOL0     C32449   6.108   2.093   9.744 -0.0771 -0.1191  0.4702
 1004MOL0     C32450   6.295   1.830   9.420 -0.3984  1.0988 -0.1377
 1004MOL0     C32451   6.417   1.769   9.384 -0.1983 -0.1407  0.0136
 1004MOL0     C32452   6.421   1.652   9.301  0.1443 -0.8130 -0.5306
 1004MOL0     C32453   6.301   1.608   9.245 -0.3190  0.6226  0.3815
 1004MOL0     O32454   6.283   1.508   9.157  0.4730 -0.3283  0.2056
 1004MOL0     C32455   6.388   1.430   9.105 -0.0722  0.6357 -0.2478
 1004MOL0     C32456   6.340   1.388   8.964  0.5053 -0.2089  0.0760
 1004MOL0     C32457   6.447   1.294   8.895 -0.0233 -1.3588  0.5094
 1004MOL0     C32458   6.494   1.167   8.970 -0.0648 -0.9680 -0.6783
 1004MOL0     C32459   6.382   1.085   9.018 -1.2909  0.4806  0.0822
 1004MOL0     C32460   6.278   1.051   9.065 -0.0299 -0.2255 -0.1224
 1004MOL0     C32461   6.180   1.671   9.282  0.1756 -1.0044 -0.1611
 1004MOL0     C32462   6.169   1.778   9.365 -0.1252 -0.6106 -0.5621
 1004MOL0     H32463   6.257   2.247   9.484 -0.8342 -0.2345  0.0526
 1004MOL0     H32464   6.188   2.454   9.631  5.5346 -0.8188 -0.8295
 1004MOL0     H32465   5.993   2.375  10.013  0.6047 -0.9862 -2.0864
 1004MOL0     H32466   6.022   2.545  10.019 -0.8661 -0.1164 -2.6258
 1004MOL0     H32467   6.246   2.343  10.080 -1.4780 -0.9028  0.5374
 1004MOL0     H32468   6.149   2.417  10.202  2.2215  0.4995  0.3433
 1004MOL0     H32469   6.234   2.654  10.136  1.1059 -0.9923 -0.2538
 1004MOL0     H32470   6.345   2.562  10.029 -0.7521  1.9165 -2.0901
 1004MOL0     H32471   6.300   2.542  10.330  0.6931  0.9707  0.1697
 1004MOL0     H32472   6.416   2.440  10.252  0.0305 -0.3279  0.3657
 1004MOL0     H32473   6.402   2.729  10.224  2.4685  2.6459  2.7781
 1004MOL0     H32474   6.559   2.646  10.192  2.1396  0.3346  3.5877
 1004MOL0     H32475   6.555   2.571  10.423 -2.9032 -1.5204  0.0656
 1004MOL0     H32476   6.425   2.675  10.454  2.1800 -2.6714  4.4732
 1004MOL0     H32477   6.712   2.761  10.380  1.3586  3.1127  1.5988
 1004MOL0     H32478   6.577   2.872  10.336 -1.6242 -2.5235 -3.5169
 1004MOL0     H32479   6.546   2.951  10.549 -2.0030 -2.2048  0.2209
 1004MOL0     H32480   6.708   2.892  10.575 -1.1855  3.9327  0.9832
 1004MOL0     H32481   6.687   2.602  10.669 -0.6556 -0.7684  0.2017
 1004MOL0     H32482   6.571   2.396  10.807  0.8791  2.1093 -1.7105
 1004MOL0     H32483   6.399   2.426  10.826  1.2562 -0.6322 -4.0408
 1004MOL0     H32484   6.427   2.506  11.043  1.2084  0.1894 -0.3405
 1004MOL0     H32485   6.596   2.540  11.028 -0.6370  2.2017 -2.0748
 1004MOL0     H32486   6.551   2.349  11.175  2.3672  0.1270  0.5219
 1004MOL0     H32487   6.477   2.264  11.037  1.0551 -0.6816 -1.1737
 1004MOL0     H32488   6.707   2.305  10.926  1.9119  0.0619  0.0270
 1004MOL0     H32489   6.702   2.177  11.044  2.3546  1.7004  0.0174
 1004MOL0     H32490   6.731   2.103  11.265 -0.0798 -0.7030  0.9216
 1004MOL0     H32491   6.800   2.082  11.479  1.5837  0.3487  1.3470
 1004MOL0     H32492   7.228   2.191  11.771  1.7946 -0.9411  0.8595
 1004MOL0     H32493   7.263   2.211  12.025  0.1839 -2.1400  1.1567
 1004MOL0     H32494   7.216   1.846  12.149 -0.6348  0.7397  0.2961
 1004MOL0     H32495   7.085   1.848  12.272 -2.7683  3.0804 -2.3995
 1004MOL0     H32496   7.362   1.952  12.313 -0.2823 -1.6301 -2.9707
 1004MOL0     H32497   7.289   1.792  12.368  1.0412 -0.3104 -0.1473
 1004MOL0     H32498   7.117   1.952  12.496  0.5403  2.7642 -0.7251
 1004MOL0     H32499   7.244   2.070  12.464  2.1946  0.4533  0.8355
 1004MOL0     H32500   7.408   1.884  12.555  0.3361 -0.6603  1.4576
 1004MOL0     H32501   7.346   2.029  12.630  4.8025 -0.9773  2.1038
 1004MOL0     H32502   7.328   1.793  12.761 -1.6480  0.5192  3.1286
 1004MOL0     H32503   7.193   1.765  12.646 -0.9453  1.0252  0.9328
 1004MOL0     H32504   7.069   1.946  12.740  1.4297  2.1917  0.4721
 1004MOL0     H32505   7.183   1.982  12.867  2.8798  0.4482 -2.4045
 1004MOL0     H32506   6.982   1.766  12.818  1.8300 -0.6064 -2.1574
 1004MOL0     H32507   7.121   1.693  12.898  2.6992  2.1177  0.2471
 1004MOL0     H32508   7.104   1.866  13.073  1.3902 -1.0982 -0.1224
 1004MOL0     H32509   6.970   1.745  13.064 -3.0009 -1.8369 -3.3793
 1004MOL0     H32510   6.950   1.933  12.081  1.8544 -0.1561  0.5924
 1004MOL0     H32511   6.858   1.978  11.845 -0.9077  2.4309 -0.4409
 1004MOL0     H32512   7.037   2.453  11.444 -0.1699  0.5185 -2.8519
 1004MOL0     H32513   6.960   2.476  11.232 -1.9863 -0.1914  0.0073
 1004MOL0     H32514   6.062   2.187   9.940 -4.0896  6.1652 -0.2634
 1004MOL0     H32515   6.066   1.994   9.762 -1.7751  0.3664 -0.5730
 1004MOL0     H32516   6.507   1.799   9.437 -0.4407 -3.4351  2.6201
 1004MOL0     H32517   6.518   1.603   9.295 -0.6126 -2.3574 -0.6168
 1004MOL0     H32518   6.405   1.341   9.165 -0.3123 -1.7096 -3.4250
 1004MOL0     H32519   6.477   1.492   9.088 -0.7745  1.1676 -2.2145
 1004MOL0     H32520   6.247   1.333   8.949  1.4077 -1.4993 -1.1071
 1004MOL0     H32521   6.333   1.477   8.902  3.8409  1.9239  2.4162
 1004MOL0     H32522   6.525   1.364   8.864 -2.5148  1.9774  1.1573
 1004MOL0     H32523   6.404   1.257   8.801 -1.9460 -1.0159  1.2031
 1004MOL0     H32524   6.566   1.107   8.914  0.3121 -0.9604 -0.2053
 1004MOL0     H32525   6.555   1.213   9.048 -0.7632 -1.5264  0.2058
 1004MOL0     H32526   6.188   1.013   9.108  2.0815 -1.5416  3.6793
 1004MOL0     H32527   6.085   1.631   9.246 -0.9409  1.5978 -0.3167
 1004MOL0     H32528   6.073   1.830   9.370 -0.0090 -0.4838  0.5469
 1005MOL0     O32529   4.212   1.310   0.983  0.3565 -0.2194 -1.1613
 1005MOL0     C32530   4.325   1.343   1.016 -0.4200 -1.0751  0.1074
 1005MOL0     O32531   4.371   1.354   1.140 -0.3381  0.0925  0.1547
 1005MOL0     C32532   4.300   1.309   1.248 -0.8010 -0.7252  0.4178
 1005MOL0     C32533   4.160   1.308   1.258  0.9250  0.0480 -1.1811
 1005MOL0     C32534   4.104   1.259   1.376  0.3710 -0.3946 -0.6258
 1005MOL0     C32535   4.182   1.228   1.484 -0.4249  0.4356 -0.0842
 1005MOL0     O32536   4.113   1.174   1.583 -0.4796 -0.4137 -0.1338
 1005MOL0     C32537   4.174   1.150   1.710 -0.1131  0.5052  0.2522
 1005MOL0     C32538   4.086   1.092   1.826 -0.6368 -0.8616  0.5399
 1005MOL0     C32539   3.978   1.194   1.875 -0.5288 -1.1928 -0.2534
 1005MOL0     C32540   3.890   1.249   1.765  0.0150  0.2663  0.1559
 1005MOL0     C32541   3.749   1.292   1.825 -1.0146 -0.2081  0.4196
 1005MOL0     C32542   3.647   1.180   1.856 -1.0821  0.3535  0.1831
 1005MOL0     C32543   3.521   1.236   1.925 -0.3055 -0.3004  0.7181
 1005MOL0     C32544   3.413   1.132   1.934  0.1732  0.2663  1.0528
 1005MOL0     N32545   3.284   1.181   1.889  0.4134  0.3311 -0.0978
 1005MOL0     C32546   3.233   1.178   1.758  0.7912 -0.5340 -0.9979
 1005MOL0     C32547   3.112   1.232   1.773  0.3562  1.1843 -0.5873
 1005MOL0     C32548   3.009   1.237   1.670  0.7361  0.0897  0.1437
 1005MOL0     C32549   3.004   1.099   1.599  0.3463 -0.6638  0.1322
 1005MOL0     C32550   2.874   1.064   1.549 -0.1319 -1.3384  0.2810
 1005MOL0     C32551   2.795   1.173   1.473  0.0618 -0.1099 -0.3763
 1005MOL0     O32552   2.878   1.246   1.375  0.8607  0.1827  0.4948
 1005MOL0     C32553   2.805   1.311   1.274  0.0465 -0.7232 -1.2927
 1005MOL0     C32554   2.876   1.352   1.166 -0.1209  1.0038 -0.0903
 1005MOL0     C32555   2.820   1.404   1.049  0.4693 -0.1604  0.3050
 1005MOL0     C32556   2.686   1.442   1.051 -0.1296 -0.2272 -1.1045
 1005MOL0     C32557   2.620   1.496   0.935 -0.0214 -0.0765 -0.3251
 1005MOL0     O32558   2.711   1.541   0.844 -0.7223 -0.0501  0.4018
 1005MOL0     C32559   2.669   1.591   0.722 -0.3556  0.6262 -0.3260
 1005MOL0     C32560   2.745   1.697   0.673 -0.2308  0.1353  0.1885
 1005MOL0     C32561   2.699   1.778   0.574 -0.0287  0.6330  0.6398
 1005MOL0     C32562   2.589   1.726   0.499  0.3785  0.3693  0.4765
 1005MOL0     O32563   2.532   1.788   0.392  0.8586  0.0670 -0.4195
 1005MOL0     C32564   2.567   1.919   0.357  0.8732 -0.9089 -0.4563
 1005MOL0     C32565   2.469   1.970   0.255 -0.3827  0.0395 -0.4030
 1005MOL0     C32566   2.519   2.098   0.177 -0.5854  0.2839 -0.5755
 1005MOL0     C32567   2.415   2.135   0.081 -0.5876 -0.1277  0.9856
 1005MOL0     C32568   2.469   2.266   0.022  0.2614 -0.2211 -0.1956
 1005MOL0     C32569   2.368   2.303  -0.091 -0.0461  0.7339 -0.5655
 1005MOL0     C32570   2.388   2.446  -0.141  0.0604  0.4759 -0.0937
 1005MOL0     C32571   2.531   2.452  -0.207  0.0438  0.0536 -0.5098
 1005MOL0    Cl32572   2.537   2.604  -0.315  0.4061 -0.1019 -0.1903
 1005MOL0     C32573   2.524   1.608   0.538 -0.3603  1.3838  0.6854
 1005MOL0     C32574   2.566   1.545   0.652  0.0889 -0.4090  1.1695
 1005MOL0     O32575   2.499   1.509   0.937  0.4351 -0.1447  0.5462
 1005MOL0     C32576   2.616   1.423   1.175 -0.4720 -0.2972 -1.3820
 1005MOL0     C32577   2.676   1.355   1.288 -0.4001 -0.5906 -0.0729
 1005MOL0     N32578   3.082   1.252   1.906  0.0663  0.4717  0.0765
 1005MOL0     N32579   3.186   1.209   1.971  0.0534  0.2625 -0.6380
 1005MOL0     C32580   4.325   1.245   1.479 -0.0140  0.0011 -0.4590
 1005MOL0     C32581   4.377   1.284   1.357  0.5655  0.1529  0.2497
 1005MOL0     C32582   4.417   1.363   0.906 -0.6904  0.6288  0.1064
 1005MOL0     C32583   4.384   1.365   0.771 -0.7660  0.3283 -0.3750
 1005MOL0     C32584   4.482   1.363   0.674 -0.1854 -0.0220 -1.2475
 1005MOL0     C32585   4.616   1.359   0.710 -0.5667  1.5569  0.2212
 1005MOL0     O32586   4.703   1.370   0.600  0.0964 -0.3178 -0.1534
 1005MOL0     C32587   4.847   1.354   0.612 -0.3574  1.2076  0.0551
 1005MOL0     C32588   4.929   1.483   0.629  0.2748  0.6119  0.5496
 1005MOL0     C32589   4.894   1.566   0.752  0.5256 -0.0069 -0.0755
 1005MOL0     C32590   4.956   1.711   0.743  0.2456  1.2653 -0.1179
 1005MOL0     C32591   5.102   1.712   0.732  0.2133 -0.0870 -0.6466
 1005MOL0     C32592   5.215   1.683   0.733 -1.1252 -0.2172  0.3123
 1005MOL0     C32593   4.654   1.353   0.845 -0.1228  0.4929 -0.2027
 1005MOL0     C32594   4.552   1.361   0.943  0.5346  0.3632 -0.3395
 1005MOL0     H32595   4.085   1.321   1.181 -1.9269 -0.1230  1.4063
 1005MOL0     H32596   4.002   1.225   1.375  0.1759  0.1814 -0.7682
 1005MOL0     H32597   4.211   1.249   1.738  3.6421 -0.2148 -1.6484
 1005MOL0     H32598   4.257   1.079   1.708 -0.6088 -0.3068  3.3442
 1005MOL0     H32599   4.149   1.049   1.903 -2.2310 -4.2402  0.1536
 1005MOL0     H32600   4.036   1.001   1.792 -2.5779  0.6066 -0.8437
 1005MOL0     H32601   4.031   1.277   1.923 -1.0130 -1.3965  0.6572
 1005MOL0     H32602   3.908   1.162   1.952 -0.5984 -0.9482 -0.2130
 1005MOL0     H32603   3.937   1.333   1.713  5.0903 -1.2388  1.6540
 1005MOL0     H32604   3.879   1.184   1.679 -0.3451  0.7756 -0.1890
 1005MOL0     H32605   3.689   1.350   1.754 -1.0742 -2.0705 -1.1482
 1005MOL0     H32606   3.773   1.348   1.915 -0.9066 -4.0791  3.0410
 1005MOL0     H32607   3.684   1.097   1.917 -0.9965  0.5530  0.4059
 1005MOL0     H32608   3.622   1.143   1.757 -2.5541  0.1538  0.6114
 1005MOL0     H32609   3.539   1.268   2.028 -0.6945 -2.3936  1.4789
 1005MOL0     H32610   3.498   1.332   1.876 -1.1672 -0.9964 -0.2878
 1005MOL0     H32611   3.401   1.111   2.041  1.2421  0.1579  1.1568
 1005MOL0     H32612   3.430   1.047   1.868  0.0067  0.8583  0.2340
 1005MOL0     H32613   3.281   1.137   1.670  0.6544 -0.9198 -0.8961
 1005MOL0     H32614   3.033   1.315   1.598 -0.4511 -1.2723 -1.8162
 1005MOL0     H32615   2.923   1.266   1.732  1.6209 -0.0543  1.4922
 1005MOL0     H32616   3.048   1.022   1.663  1.6398  0.2833  0.4202
 1005MOL0     H32617   3.057   1.096   1.503 -0.0966 -0.9247 -0.1082
 1005MOL0     H32618   2.888   0.980   1.479 -1.9407 -2.8922  1.6915
 1005MOL0     H32619   2.826   1.016   1.635  2.7970 -5.5339 -0.1144
 1005MOL0     H32620   2.763   1.235   1.557  3.2342 -0.6132  1.3985
 1005MOL0     H32621   2.703   1.126   1.436 -0.6174  0.9245 -0.0515
 1005MOL0     H32622   2.978   1.332   1.199  0.3427  1.4115 -1.2189
 1005MOL0     H32623   2.888   1.420   0.966  1.0662  0.0947  0.8316
 1005MOL0     H32624   2.833   1.730   0.728  1.3312 -4.0534  0.5885
 1005MOL0     H32625   2.760   1.859   0.535 -0.6833 -0.0168 -1.9248
 1005MOL0     H32626   2.664   1.930   0.307 -1.3211 -0.8844 -5.2968
 1005MOL0     H32627   2.544   1.979   0.445  0.9599 -1.3946 -0.1019
 1005MOL0     H32628   2.378   1.997   0.308 -0.1037  1.2713 -0.5246
 1005MOL0     H32629   2.448   1.891   0.182  3.0681 -3.1206  1.6661
 1005MOL0     H32630   2.618   2.091   0.130  1.4717  1.4207  3.1621
 1005MOL0     H32631   2.537   2.175   0.253  2.3732 -1.5471  0.7804
 1005MOL0     H32632   2.389   2.056   0.010 -0.0032 -0.3133  0.9689
 1005MOL0     H32633   2.328   2.171   0.137 -2.2944  0.2223 -1.7132
 1005MOL0     H32634   2.571   2.267  -0.017  1.8862 -3.0207  3.3579
 1005MOL0     H32635   2.475   2.338   0.104 -0.4266 -2.3955  1.8773
 1005MOL0     H32636   2.270   2.311  -0.043  2.1179  0.8240  4.4229
 1005MOL0     H32637   2.368   2.231  -0.173 -2.9595 -2.9073  2.3008
 1005MOL0     H32638   2.303   2.486  -0.198 -2.5152 -0.6822  2.6333
 1005MOL0     H32639   2.376   2.509  -0.052  0.8055  1.6040 -0.7669
 1005MOL0     H32640   2.551   2.366  -0.272 -1.5211  0.9598 -2.2915
 1005MOL0     H32641   2.594   2.462  -0.119 -1.8726  2.9979  0.6726
 1005MOL0     H32642   2.445   1.548   0.493  2.4016 -2.8136  0.9405
 1005MOL0     H32643   2.529   1.446   0.679 -0.3022 -0.9662 -1.1856
 1005MOL0     H32644   2.514   1.459   1.187 -0.9181 -2.0720  0.8488
 1005MOL0     H32645   2.625   1.338   1.382 -1.2973  1.2028 -0.1851
 1005MOL0     H32646   4.382   1.226   1.569  1.7141 -1.2474 -1.7467
 1005MOL0     H32647   4.484   1.296   1.340  0.1584  0.1987 -2.8380
 1005MOL0     H32648   4.279   1.373   0.746 -0.1331  1.9951 -2.8477
 1005MOL0     H32649   4.454   1.378   0.570  2.5291  2.2396 -1.7692
 1005MOL0     H32650   4.876   1.304   0.519  4.2361  0.0130  1.8634
 1005MOL0     H32651   4.866   1.289   0.697  1.3343  0.2268 -1.0275
 1005MOL0     H32652   5.037   1.465   0.623  1.5087  6.5629 -2.0261
 1005MOL0     H32653   4.901   1.553   0.550  2.3963  2.1854  1.0995
 1005MOL0     H32654   4.937   1.520   0.841  0.8215  0.4069 -0.0048
 1005MOL0     H32655   4.785   1.562   0.756  0.5162  0.9591  0.8690
 1005MOL0     H32656   4.915   1.762   0.655  2.0951  1.2267 -1.0700
 1005MOL0     H32657   4.926   1.758   0.837 -1.0812 -3.0118  1.8516
 1005MOL0     H32658   5.321   1.665   0.737 -1.0838 -0.2360 -0.5561
 1005MOL0     H32659   4.759   1.343   0.868 -0.6118 -1.9884  1.2149
 1005MOL0     H32660   4.580   1.342   1.046 -0.6544 -2.3713 -0.4336
 1006MOL0     O32661   8.691   9.105  11.454  0.5501  0.3476 -0.2913
 1006MOL0     C32662   8.742   9.215  11.453  0.2935 -0.3172  0.5911
 1006MOL0     O32663   8.697   9.323  11.530  0.0386  0.1875  0.0547
 1006MOL0     C32664   8.622   9.289  11.635 -0.5064 -0.4129 -0.3813
 1006MOL0     C32665   8.489   9.322  11.644  0.4441  0.0216  0.7997
 1006MOL0     C32666   8.401   9.264  11.738  0.9380 -0.7552  0.3182
 1006MOL0     C32667   8.453   9.181  11.840 -0.0348  0.0833  0.6800
 1006MOL0     O32668   8.373   9.131  11.944  0.2814  0.6292  0.4035
 1006MOL0     C32669   8.226   9.145  11.940  0.1221 -0.3984 -0.3258
 1006MOL0     C32670   8.168   9.268  12.013 -0.3229  0.2023 -0.4980
 1006MOL0     C32671   8.191   9.297  12.167  0.0564  0.3331  0.1600
 1006MOL0     C32672   8.149   9.440  12.190 -0.1318  0.0164  0.8938
 1006MOL0     C32673   8.119   9.455  12.334  0.0352 -0.7508 -0.2544
 1006MOL0     C32674   8.094   9.602  12.375  0.1469  0.0637  0.3970
 1006MOL0     C32675   8.043   9.603  12.513 -0.4608 -0.1477 -0.3906
 1006MOL0     C32676   8.001   9.742  12.546 -0.2918 -0.1017 -0.3753
 1006MOL0     N32677   7.939   9.761  12.677 -0.5474  0.1575 -0.2080
 1006MOL0     C32678   8.029   9.749  12.787  0.4540  0.2059 -0.5661
 1006MOL0     C32679   7.949   9.779  12.899  0.1632  0.0832  0.8885
 1006MOL0     C32680   8.016   9.791  13.034  0.6007  1.0042 -1.0264
 1006MOL0     C32681   8.055   9.658  13.095 -0.6169  0.6630 -0.1708
 1006MOL0     C32682   8.131   9.678  13.229  0.8714  0.2006 -0.5049
 1006MOL0     C32683   8.043   9.727  13.347  0.3322 -0.5039 -0.0775
 1006MOL0     O32684   8.125   9.754  13.470  0.4910  0.1140  0.2849
 1006MOL0     C32685   8.153   9.638  13.540 -0.4362  0.6419  0.0493
 1006MOL0     C32686   8.279   9.574  13.539 -0.4563 -0.3354  0.7753
 1006MOL0     C32687   8.304   9.464  13.628  0.3408 -1.2923  1.0880
 1006MOL0     C32688   8.203   9.409  13.707  0.2780  0.8525 -0.2731
 1006MOL0     C32689   8.227   9.276  13.763  0.4807  0.4158  0.0882
 1006MOL0     O32690   8.360   9.242  13.767 -0.0850  0.3617 -1.3589
 1006MOL0     C32691   8.393   9.112  13.782 -1.0902 -0.5107  0.3715
 1006MOL0     C32692   8.362   9.022  13.679 -0.4412 -0.2647  0.8880
 1006MOL0     C32693   8.402   8.891  13.687  1.4835  0.3382  0.7251
 1006MOL0     C32694   8.469   8.852  13.803  0.0144  0.0950  0.5006
 1006MOL0     O32695   8.509   8.725  13.832  0.3040  0.0769  0.1806
 1006MOL0     C32696   8.490   8.618  13.734  0.1935  1.0757  0.4557
 1006MOL0     C32697   8.557   8.491  13.783  0.6681 -0.1081 -1.6198
 1006MOL0     C32698   8.711   8.486  13.777  0.6959 -0.6181  0.9106
 1006MOL0     C32699   8.765   8.360  13.832  0.2058  1.2561 -1.2793
 1006MOL0     C32700   8.919   8.331  13.791  0.1062 -0.9527 -0.8850
 1006MOL0     C32701   9.008   8.428  13.873  0.2346  1.0292  1.0583
 1006MOL0     C32702   9.164   8.433  13.823  0.5080  0.8849  0.9925
 1006MOL0     C32703   9.200   8.301  13.761 -0.1199 -0.2555  0.7108
 1006MOL0    Cl32704   9.377   8.304  13.752  0.1152  0.4725  0.5712
 1006MOL0     C32705   8.495   8.936  13.903 -0.2520 -0.1544 -1.0685
 1006MOL0     C32706   8.468   9.071  13.896  0.2083 -0.0511  0.3389
 1006MOL0     O32707   8.133   9.210  13.810  0.3672  0.8448 -0.1490
 1006MOL0     C32708   8.074   9.472  13.707  0.6181 -0.5984  0.1110
 1006MOL0     C32709   8.055   9.591  13.629 -0.2455 -0.4100  0.6409
 1006MOL0     N32710   7.818   9.813  12.855 -0.0989 -1.0124  0.2795
 1006MOL0     N32711   7.818   9.800  12.722 -0.5490  0.1201 -0.5415
 1006MOL0     C32712   8.589   9.151  11.838  0.3637  0.7621 -0.7007
 1006MOL0     C32713   8.674   9.212  11.743  0.1889  0.8609 -0.2678
 1006MOL0     C32714   8.871   9.233  11.384 -0.1277  1.1756  0.1239
 1006MOL0     C32715   8.931   9.357  11.376 -0.1570 -1.2562 -0.8126
 1006MOL0     C32716   9.057   9.362  11.313  0.7611 -0.2840 -0.8362
 1006MOL0     C32717   9.118   9.243  11.261  0.3839 -0.2368 -0.7731
 1006MOL0     O32718   9.233   9.256  11.193  0.3728  0.5351 -0.2397
 1006MOL0     C32719   9.238   9.341  11.079 -0.8854 -0.3839  0.3821
 1006MOL0     C32720   9.365   9.341  10.990 -0.6923  0.4984  0.6547
 1006MOL0     C32721   9.347   9.428  10.866  0.8384 -0.0824  0.6321
 1006MOL0     C32722   9.431   9.368  10.755 -0.4017 -0.2057  0.4402
 1006MOL0     C32723   9.575   9.352  10.771  1.4374  0.5804  0.8163
 1006MOL0     C32724   9.686   9.345  10.791 -1.1447 -0.2920 -0.1471
 1006MOL0     C32725   9.066   9.119  11.274 -0.0564 -0.2393  0.5213
 1006MOL0     C32726   8.933   9.116  11.323  0.4386 -0.7052 -1.3209
 1006MOL0     H32727   8.458   9.389  11.564  0.7143 -0.6283  0.1421
 1006MOL0     H32728   8.296   9.290  11.740  1.2907  0.8022  0.2739
 1006MOL0     H32729   8.181   9.057  11.986  0.4769 -0.9229 -0.9680
 1006MOL0     H32730   8.188   9.139  11.838 -1.0622 -0.4238  0.1110
 1006MOL0     H32731   8.060   9.275  12.003 -0.3723 -0.7894 -0.6587
 1006MOL0     H32732   8.209   9.358  11.965  0.3188  0.3528  0.2985
 1006MOL0     H32733   8.298   9.282  12.182  0.0782 -0.5194 -0.7419
 1006MOL0     H32734   8.133   9.229  12.230 -0.3678  0.6868  0.1569
 1006MOL0     H32735   8.223   9.505  12.141 -2.9604  1.2729 -2.1002
 1006MOL0     H32736   8.057   9.460  12.133 -0.6700 -0.8569  1.4402
 1006MOL0     H32737   8.202   9.416  12.393  0.5688  0.5043 -0.1445
 1006MOL0     H32738   8.027   9.398  12.352 -0.5986  0.5993  0.8982
 1006MOL0     H32739   8.033   9.664  12.309  0.9391  1.3225  0.8298
 1006MOL0     H32740   8.191   9.651  12.382 -0.1962  0.6458  1.2285
 1006MOL0     H32741   7.951   9.544  12.519  0.2662 -1.3404 -0.5784
 1006MOL0     H32742   8.116   9.567  12.587  0.6777  0.0872 -1.3591
 1006MOL0     H32743   7.923   9.768  12.474 -1.4640  2.1735  1.5717
 1006MOL0     H32744   8.088   9.807  12.538  0.6212  0.0938  5.9865
 1006MOL0     H32745   8.134   9.724  12.785  1.6203  4.0346  1.9197
 1006MOL0     H32746   7.947   9.846  13.098  3.5167  1.1063  2.3800
 1006MOL0     H32747   8.102   9.858  13.017  0.3414  2.1361  1.6409
 1006MOL0     H32748   8.124   9.599  13.034 -1.3310 -0.5062  0.1140
 1006MOL0     H32749   7.964   9.601  13.112  0.2926 -0.4816  1.0547
 1006MOL0     H32750   8.174   9.582  13.260 -1.0653 -1.1691 -1.7908
 1006MOL0     H32751   8.218   9.744  13.218 -1.2954  3.3161 -0.2796
 1006MOL0     H32752   7.978   9.641  13.363  0.2558 -0.5646 -0.6748
 1006MOL0     H32753   7.982   9.815  13.323 -1.5228 -1.8969 -0.6484
 1006MOL0     H32754   8.343   9.600  13.455 -0.8353 -2.8246 -0.3840
 1006MOL0     H32755   8.391   9.405  13.599 -0.7844 -1.0080 -3.7861
 1006MOL0     H32756   8.297   9.042  13.595 -0.0861 -0.4759  0.5624
 1006MOL0     H32757   8.364   8.822  13.613 -2.5414  0.4949  2.3575
 1006MOL0     H32758   8.528   8.650  13.636  1.6052  1.5492  1.1317
 1006MOL0     H32759   8.384   8.592  13.735  1.0684 -3.2171  1.9746
 1006MOL0     H32760   8.517   8.417  13.714 -1.3902 -0.7948  0.2217
 1006MOL0     H32761   8.529   8.463  13.884  2.1790 -0.5535 -1.2977
 1006MOL0     H32762   8.761   8.560  13.840  2.0084  1.4732 -2.3364
 1006MOL0     H32763   8.749   8.505  13.676 -1.1823 -3.6246 -0.5177
 1006MOL0     H32764   8.735   8.336  13.934 -1.7623 -0.6059 -2.2114
 1006MOL0     H32765   8.715   8.281  13.776  0.4916  0.9734 -1.1428
 1006MOL0     H32766   8.924   8.342  13.682  3.3243 -0.0094 -0.7617
 1006MOL0     H32767   8.943   8.226  13.810 -2.1122 -1.2546  0.5563
 1006MOL0     H32768   9.012   8.399  13.978  2.0032 -1.1667  0.4643
 1006MOL0     H32769   8.974   8.532  13.869 -1.1876  0.5539  0.2608
 1006MOL0     H32770   9.178   8.517  13.754  1.6001  0.2034  0.3544
 1006MOL0     H32771   9.217   8.456  13.916 -3.5048  2.8257  3.0337
 1006MOL0     H32772   9.168   8.293  13.657 -1.4693 -2.3111  1.2321
 1006MOL0     H32773   9.161   8.211  13.809  0.9818 -2.7333 -2.6454
 1006MOL0     H32774   8.556   8.892  13.981  0.4061 -1.0491 -2.0557
 1006MOL0     H32775   8.489   9.132  13.983 -2.6390  1.0668  0.3390
 1006MOL0     H32776   7.994   9.427  13.764 -0.9220  2.8523  0.8800
 1006MOL0     H32777   7.952   9.626  13.628  1.3042  5.0361 -0.5032
 1006MOL0     H32778   8.626   9.096  11.924  0.1623 -1.4487 -1.9503
 1006MOL0     H32779   8.781   9.203  11.760 -0.1660 -1.4267  1.3174
 1006MOL0     H32780   8.881   9.438  11.428  2.3520 -0.2232  0.1302
 1006MOL0     H32781   9.107   9.459  11.317  2.6409 -1.1706 -1.6328
 1006MOL0     H32782   9.226   9.447  11.105  0.4688 -0.1908  0.2803
 1006MOL0     H32783   9.149   9.324  11.018  0.3414  0.5013 -1.7711
 1006MOL0     H32784   9.456   9.371  11.043 -1.5500  1.1757  1.7809
 1006MOL0     H32785   9.372   9.235  10.967  0.0811  0.2203  2.0929
 1006MOL0     H32786   9.373   9.534  10.877 -2.9380  0.9744  0.9911
 1006MOL0     H32787   9.242   9.423  10.834 -0.3558 -0.1576  4.0902
 1006MOL0     H32788   9.385   9.271  10.731 -1.6622 -0.6101  3.9320
 1006MOL0     H32789   9.425   9.445  10.678 -1.0762  0.6419  1.3299
 1006MOL0     H32790   9.792   9.351  10.807 -1.2602  0.5576  0.3546
 1006MOL0     H32791   9.119   9.029  11.244 -2.2364 -0.3511 -3.9490
 1006MOL0     H32792   8.886   9.019  11.330 -0.6246 -0.0595  1.8337
 1007MOL0     O32793  10.907   8.493   2.378 -0.1528  0.0325  0.6329
 1007MOL0     C32794  10.838   8.390   2.385  0.2128 -0.1910  0.5157
 1007MOL0     O32795  10.738   8.350   2.302  0.0334  0.2729 -0.3694
 1007MOL0     C32796  10.681   8.432   2.206 -0.3583 -0.6553  0.4719
 1007MOL0     C32797  10.582   8.367   2.134 -0.2778  0.4583 -0.1922
 1007MOL0     C32798  10.513   8.445   2.027  0.2757 -0.5756 -0.1964
 1007MOL0     C32799  10.533   8.583   2.008  0.4653 -0.0401  0.5184
 1007MOL0     O32800  10.483   8.643   1.898  0.2333  0.6100 -0.1092
 1007MOL0     C32801  10.430   8.779   1.927 -0.2713  0.4075 -0.4855
 1007MOL0     C32802  10.373   8.813   1.796  0.3064 -0.6972 -0.5103
 1007MOL0     C32803  10.237   8.749   1.777  0.0005 -0.4997 -0.0605
 1007MOL0     C32804  10.175   8.779   1.636  0.5697  0.5954  0.0211
 1007MOL0     C32805  10.042   8.708   1.627  0.6357  0.2329  1.0971
 1007MOL0     C32806   9.981   8.755   1.483 -0.0273  0.1199 -0.0067
 1007MOL0     C32807   9.821   8.726   1.481  0.6414 -0.0322  0.7957
 1007MOL0     C32808   9.752   8.704   1.333 -0.8623 -0.8329 -1.0278
 1007MOL0     N32809   9.739   8.828   1.252  0.9782  0.1743  0.4020
 1007MOL0     C32810   9.707   8.942   1.315 -0.6001  0.4264  0.9501
 1007MOL0     C32811   9.721   9.035   1.214  0.2406 -0.7696 -0.8985
 1007MOL0     C32812   9.710   9.187   1.232  0.8429  0.0020  0.2033
 1007MOL0     C32813   9.836   9.253   1.308 -0.2888  0.1217  0.2682
 1007MOL0     C32814   9.828   9.242   1.467  0.1321  0.3140 -0.3067
 1007MOL0     C32815   9.956   9.211   1.532 -0.4871 -0.6816  0.4922
 1007MOL0     O32816   9.948   9.234   1.682 -0.2293  0.7559  0.0280
 1007MOL0     C32817   9.938   9.367   1.719 -0.7108 -0.7936  0.2559
 1007MOL0     C32818   9.812   9.420   1.760 -0.1289  0.1967  0.8617
 1007MOL0     C32819   9.813   9.542   1.827 -0.2962  0.4278  0.5517
 1007MOL0     C32820   9.927   9.608   1.864 -0.7569 -0.1870  0.6323
 1007MOL0     C32821   9.913   9.734   1.954  0.2150  0.1403  0.0699
 1007MOL0     O32822  10.025   9.818   1.958 -0.3432  0.2482 -0.1424
 1007MOL0     C32823  10.044   9.907   2.048 -0.3408 -0.1712  0.1608
 1007MOL0     C32824  10.013   9.878   2.180 -0.5775 -0.4385 -1.3500
 1007MOL0     C32825  10.059   9.978   2.281 -0.3099  0.6403 -0.0353
 1007MOL0     C32826  10.126  10.094   2.247 -0.0162  0.1764  0.5245
 1007MOL0     O32827  10.156  10.196   2.339 -0.2934 -0.5628  0.6524
 1007MOL0     C32828  10.063  10.223   2.447  0.5478 -0.0239 -0.8118
 1007MOL0     C32829  10.125  10.166   2.575  0.2559 -0.2292  0.6984
 1007MOL0     C32830  10.277  10.205   2.603  0.6679  0.5074 -0.2624
 1007MOL0     C32831  10.325  10.115   2.719 -1.2058 -0.4333 -0.0797
 1007MOL0     C32832  10.364   9.971   2.687 -0.9041  0.3403 -0.3359
 1007MOL0     C32833  10.388   9.876   2.811  0.2451 -0.3963  0.3208
 1007MOL0     C32834  10.486   9.944   2.904 -0.1743  0.7246 -0.3377
 1007MOL0     C32835  10.525   9.846   3.018  0.6380 -0.7329  1.2598
 1007MOL0    Cl32836  10.639   9.929   3.128  0.2833 -0.1242 -0.1715
 1007MOL0     C32837  10.153  10.115   2.113  0.1809 -0.5908 -0.0230
 1007MOL0     C32838  10.122  10.025   2.010  0.4712 -1.0126 -0.4489
 1007MOL0     O32839   9.807   9.758   2.004 -0.0382 -0.3538 -0.6006
 1007MOL0     C32840  10.045   9.572   1.807  0.4928  0.6675  0.4932
 1007MOL0     C32841  10.046   9.447   1.742  0.1523  0.5714 -0.1770
 1007MOL0     N32842   9.745   8.974   1.096 -0.6006 -0.3935  0.4557
 1007MOL0     N32843   9.751   8.846   1.122 -0.0471 -0.8113 -0.3562
 1007MOL0     C32844  10.622   8.644   2.103  0.3725  0.0708  0.1033
 1007MOL0     C32845  10.702   8.574   2.189  1.8174  0.3319 -0.0553
 1007MOL0     C32846  10.871   8.301   2.494  0.3869  0.9496  0.7023
 1007MOL0     C32847  10.776   8.231   2.567  0.4476 -0.2351 -0.3268
 1007MOL0     C32848  10.823   8.147   2.673 -0.1487 -0.8367 -0.0777
 1007MOL0     C32849  10.958   8.138   2.707 -0.5160  0.6227 -0.6559
 1007MOL0     O32850  11.003   8.066   2.817 -0.1291 -0.7648  0.3587
 1007MOL0     C32851  10.906   8.018   2.912 -0.1485  0.0092 -0.5256
 1007MOL0     C32852  10.970   7.953   3.032  1.0122  0.1020 -0.3949
 1007MOL0     C32853  11.077   8.038   3.105 -0.2132 -0.0602  0.2704
 1007MOL0     C32854  11.014   8.158   3.188 -1.1254 -0.6362  0.2280
 1007MOL0     C32855  11.129   8.237   3.233  0.3335  0.8647  0.0074
 1007MOL0     C32856  11.217   8.312   3.240  0.3097  0.0393 -0.0249
 1007MOL0     C32857  11.054   8.207   2.631 -0.1004  0.7080 -0.0117
 1007MOL0     C32858  11.006   8.277   2.519  0.4200 -0.7399 -0.4306
 1007MOL0     H32859  10.558   8.263   2.152 -2.8469  0.6056 -2.2026
 1007MOL0     H32860  10.431   8.391   1.980 -1.8585  0.9712  1.5275
 1007MOL0     H32861  10.514   8.847   1.945  2.8403 -2.2976 -3.4653
 1007MOL0     H32862  10.363   8.780   2.014 -0.2843 -0.4660 -0.4770
 1007MOL0     H32863  10.432   8.773   1.712 -0.2645  0.1311 -1.3228
 1007MOL0     H32864  10.364   8.922   1.789 -1.3591 -0.4817  3.0073
 1007MOL0     H32865  10.168   8.786   1.853 -1.4327 -1.6173 -0.7724
 1007MOL0     H32866  10.248   8.641   1.790  0.2303 -0.6369 -1.2563
 1007MOL0     H32867  10.158   8.884   1.612 -2.9858  0.0923 -0.1808
 1007MOL0     H32868  10.240   8.737   1.558  1.4270  1.4594  0.2457
 1007MOL0     H32869   9.984   8.732   1.717  0.3775  0.8623  0.7713
 1007MOL0     H32870  10.046   8.599   1.620 -2.9509  0.0744 -0.9871
 1007MOL0     H32871  10.043   8.713   1.403  1.0239 -1.8833  1.7655
 1007MOL0     H32872   9.990   8.862   1.465  0.0472 -0.0344 -0.9767
 1007MOL0     H32873   9.794   8.640   1.542 -0.2539  1.1913  2.1965
 1007MOL0     H32874   9.776   8.816   1.524  0.6177  1.9533 -2.8937
 1007MOL0     H32875   9.650   8.666   1.345  0.2987 -3.2992  2.9514
 1007MOL0     H32876   9.808   8.628   1.278 -2.3508 -1.1292 -2.1937
 1007MOL0     H32877   9.710   8.955   1.422 -2.7629 -1.0136  1.2445
 1007MOL0     H32878   9.621   9.221   1.285  1.7674  2.3925  0.3745
 1007MOL0     H32879   9.710   9.237   1.134  2.2059  0.3784  0.3769
 1007MOL0     H32880   9.828   9.359   1.283 -1.1737  0.5451  2.1759
 1007MOL0     H32881   9.934   9.220   1.274 -0.1232  2.1047 -1.3891
 1007MOL0     H32882   9.786   9.339   1.496  0.6447  1.1343 -2.1710
 1007MOL0     H32883   9.760   9.158   1.485 -0.8858  0.6056 -2.4330
 1007MOL0     H32884  10.035   9.270   1.484 -1.2450  1.6652  1.9789
 1007MOL0     H32885   9.974   9.105   1.511 -1.3791 -1.2251  2.2228
 1007MOL0     H32886   9.719   9.369   1.735 -0.8838  1.8313  0.2005
 1007MOL0     H32887   9.719   9.562   1.876 -0.0341 -2.0454  2.2083
 1007MOL0     H32888   9.960   9.789   2.214  0.2177 -0.9299 -1.3732
 1007MOL0     H32889  10.047   9.962   2.387  4.0072  0.5157  0.6228
 1007MOL0     H32890   9.966  10.175   2.428  0.4706 -0.1727 -0.0533
 1007MOL0     H32891  10.041  10.328   2.469  2.0039 -0.2487  2.1152
 1007MOL0     H32892  10.125  10.057   2.577 -0.5816 -0.2583  0.0483
 1007MOL0     H32893  10.069  10.187   2.666  1.2204 -2.8886  2.0077
 1007MOL0     H32894  10.280  10.312   2.629 -0.6991  0.7228 -0.9262
 1007MOL0     H32895  10.340  10.200   2.514 -2.7532 -1.9082 -2.7622
 1007MOL0     H32896  10.412  10.169   2.757 -0.4729  0.8739 -3.2916
 1007MOL0     H32897  10.246  10.112   2.795  0.0181 -2.1958  1.1852
 1007MOL0     H32898  10.447   9.965   2.616 -0.1449  0.6152  0.5130
 1007MOL0     H32899  10.277   9.925   2.638 -3.5676  0.4314  3.8756
 1007MOL0     H32900  10.420   9.775   2.785 -3.6681 -1.2698 -1.9964
 1007MOL0     H32901  10.291   9.867   2.861  0.5933  1.3819  1.3846
 1007MOL0     H32902  10.575   9.979   2.852 -1.5929  2.1945 -1.9042
 1007MOL0     H32903  10.436  10.031   2.948 -0.9909 -0.8221  2.0212
 1007MOL0     H32904  10.568   9.753   2.979 -0.4603 -1.3727  1.5175
 1007MOL0     H32905  10.440   9.815   3.080 -2.0550 -0.3628 -1.9094
 1007MOL0     H32906  10.199  10.210   2.086  0.5352 -1.7930 -4.2673
 1007MOL0     H32907  10.144  10.045   1.906 -0.4288 -0.7047 -0.5832
 1007MOL0     H32908  10.137   9.629   1.821 -0.0346  1.8641 -0.6501
 1007MOL0     H32909  10.144   9.403   1.722 -0.4460 -1.8881  1.8311
 1007MOL0     H32910  10.644   8.750   2.108 -0.8783  0.3261  0.5129
 1007MOL0     H32911  10.779   8.620   2.251  2.7199 -1.1950  0.0140
 1007MOL0     H32912  10.669   8.252   2.564  0.7013  1.0271 -1.9296
 1007MOL0     H32913  10.741   8.098   2.724  1.3657 -1.3053  2.0186
 1007MOL0     H32914  10.859   7.931   2.865 -0.3145 -0.5927  0.7039
 1007MOL0     H32915  10.832   8.091   2.946  0.1164 -0.2507  0.6467
 1007MOL0     H32916  10.894   7.933   3.108  1.1146 -0.0498 -0.3327
 1007MOL0     H32917  11.013   7.855   3.014  1.4866  0.4136 -0.9970
 1007MOL0     H32918  11.145   8.067   3.024 -3.5447 -1.0704 -3.1984
 1007MOL0     H32919  11.131   7.966   3.167  1.0292 -1.0946 -1.9178
 1007MOL0     H32920  10.962   8.223   3.117  4.9791  1.7128 -2.7869
 1007MOL0     H32921  10.943   8.130   3.267  0.8707 -0.5230  2.1688
 1007MOL0     H32922  11.307   8.367   3.223  0.4914 -1.0914 -3.4907
 1007MOL0     H32923  11.162   8.198   2.632 -0.0392  1.3714  0.9013
 1007MOL0     H32924  11.085   8.328   2.465  1.6141 -0.0226  1.8670
 1008MOL0     O32925   5.150   1.379   8.604  0.2040  0.5030  0.2425
 1008MOL0     C32926   5.049   1.411   8.667  0.6023 -0.5536  0.8673
 1008MOL0     O32927   4.926   1.338   8.660 -0.3037 -0.7868  0.1750
 1008MOL0     C32928   4.931   1.208   8.611 -0.5498  0.3032  0.0984
 1008MOL0     C32929   4.920   1.100   8.698  1.7671 -0.4081 -0.5513
 1008MOL0     C32930   4.938   0.971   8.659  0.4087 -0.5108 -0.4612
 1008MOL0     C32931   4.969   0.941   8.522 -1.2863 -0.0389 -0.3547
 1008MOL0     O32932   4.997   0.814   8.473 -0.5639  0.3158 -0.2411
 1008MOL0     C32933   4.962   0.697   8.551 -1.2021  0.7410  0.7352
 1008MOL0     C32934   5.002   0.590   8.448  0.5270 -0.5281  0.2677
 1008MOL0     C32935   4.904   0.597   8.331  0.3554  0.3812  0.3199
 1008MOL0     C32936   4.921   0.476   8.245  0.4350  0.0375 -0.0157
 1008MOL0     C32937   4.834   0.465   8.120  0.3191  0.1930 -0.5708
 1008MOL0     C32938   4.842   0.583   8.032  0.3181 -0.7069 -0.1638
 1008MOL0     C32939   4.782   0.549   7.896 -1.0592 -0.1074 -0.1064
 1008MOL0     C32940   4.811   0.664   7.799  0.7180  0.0445 -0.0651
 1008MOL0     N32941   4.738   0.785   7.835  1.3512 -0.1781 -0.3077
 1008MOL0     C32942   4.618   0.823   7.786  0.4403 -0.3592 -0.3516
 1008MOL0     C32943   4.598   0.948   7.835  0.2997  0.1176  1.1171
 1008MOL0     C32944   4.478   1.036   7.827 -0.6000 -0.1523 -0.4752
 1008MOL0     C32945   4.501   1.154   7.730 -0.1417  0.3781  0.0085
 1008MOL0     C32946   4.413   1.165   7.617  0.3314 -0.3519 -0.6431
 1008MOL0     C32947   4.422   1.057   7.504 -0.2464 -0.1012  0.2553
 1008MOL0     O32948   4.348   0.938   7.544 -0.3527 -0.8900  0.2143
 1008MOL0     C32949   4.366   0.822   7.487 -0.4089  0.2127  0.5353
 1008MOL0     C32950   4.438   0.794   7.368  0.8510 -0.4562  0.6840
 1008MOL0     C32951   4.456   0.670   7.321  0.3614 -1.3454  0.2799
 1008MOL0     C32952   4.383   0.566   7.371 -0.5858 -0.6414  0.2900
 1008MOL0     C32953   4.381   0.450   7.296  0.5317 -1.0044 -0.1298
 1008MOL0     O32954   4.389   0.464   7.164 -0.4129 -0.0538  0.1570
 1008MOL0     C32955   4.365   0.364   7.070  0.1448 -0.1393 -0.2098
 1008MOL0     C32956   4.272   0.399   6.984  0.9469 -0.6427 -0.3108
 1008MOL0     C32957   4.250   0.319   6.875  0.2366  0.5684 -0.0968
 1008MOL0     C32958   4.306   0.199   6.858  0.1810  0.3642  0.1397
 1008MOL0     O32959   4.267   0.117   6.750 -0.2778  0.1297 -0.3255
 1008MOL0     C32960   4.349   0.001   6.714  0.4769 -0.7483  0.4331
 1008MOL0     C32961   4.319  -0.050   6.566  0.2781  0.0226  0.0186
 1008MOL0     C32962   4.165  -0.084   6.548  0.3126  0.0695 -0.3550
 1008MOL0     C32963   4.129  -0.144   6.419 -0.0284 -0.3992 -0.3837
 1008MOL0     C32964   3.982  -0.170   6.387  0.1136  0.0028 -0.2343
 1008MOL0     C32965   3.915  -0.283   6.472  0.0646  0.1375  0.5026
 1008MOL0     C32966   3.872  -0.396   6.370  0.3061 -1.2640 -1.0467
 1008MOL0     C32967   3.857  -0.513   6.450  0.3066  1.2058  0.1759
 1008MOL0    Cl32968   3.705  -0.512   6.545 -0.0104  0.1385  0.1592
 1008MOL0     C32969   4.400   0.158   6.950  0.1981  0.0734  0.2955
 1008MOL0     C32970   4.439   0.244   7.054  0.0466  0.0897  0.0347
 1008MOL0     O32971   4.368   0.341   7.351 -0.4906  0.3529 -0.7004
 1008MOL0     C32972   4.303   0.588   7.480  0.5184  0.3581  0.4531
 1008MOL0     C32973   4.306   0.712   7.546 -0.0267 -1.3059  0.0194
 1008MOL0     N32974   4.723   0.989   7.894  0.7320 -0.7253 -0.5180
 1008MOL0     N32975   4.792   0.885   7.904  0.3392  0.1160  0.5425
 1008MOL0     C32976   4.972   1.039   8.428  0.0130  0.0718  0.3983
 1008MOL0     C32977   4.958   1.176   8.477  0.1897 -0.0587  1.1698
 1008MOL0     C32978   5.047   1.530   8.767 -0.9703  0.4721  0.3919
 1008MOL0     C32979   5.160   1.620   8.763  1.4306  0.7143 -0.6702
 1008MOL0     C32980   5.167   1.712   8.864  0.6560 -0.2088 -0.5987
 1008MOL0     C32981   5.063   1.727   8.971 -0.0415 -0.2664  0.6124
 1008MOL0     O32982   5.078   1.830   9.064 -0.3491  0.4394  0.6513
 1008MOL0     C32983   5.149   1.959   9.032  0.2657 -0.1535 -0.8289
 1008MOL0     C32984   5.112   2.051   9.154 -0.0864  0.3648  0.8197
 1008MOL0     C32985   5.143   1.987   9.290 -0.1719  0.5858 -0.7140
 1008MOL0     C32986   5.114   2.085   9.405 -0.6843  0.6250 -0.0274
 1008MOL0     C32987   5.187   2.211   9.409  0.3490 -0.7681 -1.1232
 1008MOL0     C32988   5.236   2.322   9.420  0.3056 -0.2975 -0.7615
 1008MOL0     C32989   4.953   1.638   8.965 -0.2229  0.0983  0.4888
 1008MOL0     C32990   4.946   1.536   8.866 -0.1120  0.5113 -0.6205
 1008MOL0     H32991   4.908   1.110   8.805 -0.9840 -1.2583 -0.7030
 1008MOL0     H32992   4.943   0.892   8.734  0.1617  1.8774  2.2794
 1008MOL0     H32993   4.859   0.677   8.580 -0.9093  0.9074  1.9702
 1008MOL0     H32994   5.021   0.690   8.644  1.4566  1.6559 -0.7658
 1008MOL0     H32995   4.996   0.486   8.482  0.4518 -1.2330 -1.7877
 1008MOL0     H32996   5.106   0.598   8.415  0.3749  1.1084  0.0886
 1008MOL0     H32997   4.917   0.678   8.258  1.0592 -1.1938 -1.3798
 1008MOL0     H32998   4.806   0.598   8.379  1.2273  0.3487  2.1819
 1008MOL0     H32999   5.022   0.475   8.204  0.9137  0.5961  1.1046
 1008MOL0     H33000   4.916   0.380   8.296  0.9165 -1.3974 -2.5363
 1008MOL0     H33001   4.731   0.458   8.158  0.2464 -0.2351 -0.8347
 1008MOL0     H33002   4.857   0.373   8.065 -3.4742  1.7371 -5.5329
 1008MOL0     H33003   4.946   0.617   8.019  0.1138  0.3551  0.8049
 1008MOL0     H33004   4.784   0.663   8.079 -0.4615 -1.0484 -0.5425
 1008MOL0     H33005   4.808   0.458   7.840 -2.6867  0.2127 -1.4698
 1008MOL0     H33006   4.673   0.549   7.901 -1.0208 -0.9606  1.0039
 1008MOL0     H33007   4.767   0.632   7.704 -1.4316 -0.7457  1.1240
 1008MOL0     H33008   4.918   0.681   7.791  0.5199  2.5229  1.4604
 1008MOL0     H33009   4.549   0.765   7.725 -0.3077 -0.1933  0.3169
 1008MOL0     H33010   4.457   1.065   7.931  0.3510 -1.1178  0.0049
 1008MOL0     H33011   4.393   0.974   7.799  0.3857 -1.8246  0.0545
 1008MOL0     H33012   4.602   1.161   7.689  0.2271 -1.8251  0.4107
 1008MOL0     H33013   4.472   1.236   7.797  0.1882 -1.7582  2.9737
 1008MOL0     H33014   4.309   1.163   7.651  0.2537  0.2455 -0.8435
 1008MOL0     H33015   4.440   1.263   7.578  0.0850  0.6046  1.4637
 1008MOL0     H33016   4.529   1.033   7.499 -0.6318 -1.6367 -1.9532
 1008MOL0     H33017   4.383   1.088   7.407 -1.4015 -1.7881  0.1248
 1008MOL0     H33018   4.482   0.880   7.319 -1.6130  1.0051  0.8780
 1008MOL0     H33019   4.511   0.668   7.227 -0.9584  2.3223 -0.7318
 1008MOL0     H33020   4.218   0.489   7.011  2.0931  0.4157 -1.4019
 1008MOL0     H33021   4.171   0.349   6.808  0.1118  0.6957  0.1064
 1008MOL0     H33022   4.329  -0.079   6.786 -2.4462 -1.7152 -1.3087
 1008MOL0     H33023   4.454   0.033   6.711  0.8402 -1.8968  0.4312
 1008MOL0     H33024   4.379  -0.136   6.538  2.1012  2.3240 -3.9149
 1008MOL0     H33025   4.351   0.029   6.497  1.2891 -2.0906 -2.0580
 1008MOL0     H33026   4.092  -0.007   6.574 -0.4032 -1.2468  1.8094
 1008MOL0     H33027   4.130  -0.152   6.626 -0.5899  0.4938 -0.3729
 1008MOL0     H33028   4.169  -0.078   6.342  1.0267 -2.6818 -1.9042
 1008MOL0     H33029   4.195  -0.230   6.412  0.2096 -0.2424 -0.0888
 1008MOL0     H33030   3.997  -0.194   6.282 -0.6317 -1.6351 -0.0035
 1008MOL0     H33031   3.928  -0.075   6.397 -0.2204 -0.0367 -1.4605
 1008MOL0     H33032   3.826  -0.235   6.513 -1.4405 -3.5616  1.9519
 1008MOL0     H33033   3.985  -0.316   6.549  0.1622 -4.3492 -1.2281
 1008MOL0     H33034   3.784  -0.378   6.308  0.2388  1.3499 -0.2900
 1008MOL0     H33035   3.954  -0.423   6.302  2.1074 -0.6643  0.8004
 1008MOL0     H33036   3.939  -0.525   6.522  1.0907 -1.1004 -1.0109
 1008MOL0     H33037   3.858  -0.596   6.379  2.0502  2.4106 -1.2800
 1008MOL0     H33038   4.442   0.059   6.946 -0.5813 -0.2358 -0.6987
 1008MOL0     H33039   4.516   0.212   7.123  1.2636 -2.2967 -2.2608
 1008MOL0     H33040   4.258   0.500   7.525 -0.7837  0.8515  0.1457
 1008MOL0     H33041   4.241   0.736   7.631 -0.0246  3.8985 -1.0943
 1008MOL0     H33042   4.998   1.019   8.325  3.3372  2.4071  0.6239
 1008MOL0     H33043   4.968   1.253   8.401  1.0365 -1.3111 -0.0273
 1008MOL0     H33044   5.244   1.612   8.694  1.8882  0.6325 -0.1093
 1008MOL0     H33045   5.250   1.782   8.866 -0.5172  1.2025  0.5606
 1008MOL0     H33046   5.122   1.990   8.931 -2.7326  0.3513  0.0186
 1008MOL0     H33047   5.257   1.945   9.043 -0.1655 -2.9089  0.8818
 1008MOL0     H33048   5.175   2.139   9.138 -0.3047  0.3204 -0.3686
 1008MOL0     H33049   5.006   2.072   9.172  0.6905  2.8555  3.2387
 1008MOL0     H33050   5.245   1.947   9.291 -0.2261  0.4445 -0.7431
 1008MOL0     H33051   5.075   1.903   9.311 -0.6485  0.9996 -0.5705
 1008MOL0     H33052   5.008   2.106   9.422 -0.9916  1.4316 -2.4868
 1008MOL0     H33053   5.145   2.039   9.499 -1.4947  0.2308  0.0552
 1008MOL0     H33054   5.268   2.419   9.451 -0.1908 -0.3819  0.0383
 1008MOL0     H33055   4.875   1.648   9.040  1.4066  1.6704  2.0743
 1008MOL0     H33056   4.868   1.462   8.877 -0.9326  1.0815 -2.3059
 1009MOL0     O33057   7.389   5.078   2.912  0.5699  0.0100  0.1851
 1009MOL0     C33058   7.332   4.993   2.844  0.4045  0.3656 -0.5266
 1009MOL0     O33059   7.388   4.934   2.730  0.2286 -0.3600  0.6523
 1009MOL0     C33060   7.513   4.952   2.680 -0.0327 -1.0802 -0.2215
 1009MOL0     C33061   7.514   4.948   2.545 -0.7566  0.2105  0.1706
 1009MOL0     C33062   7.633   4.975   2.472 -0.6069 -0.0537 -0.6396
 1009MOL0     C33063   7.751   5.010   2.546  0.1717  0.5160  0.0042
 1009MOL0     O33064   7.861   5.020   2.468 -0.3743 -0.3291 -0.4266
 1009MOL0     C33065   7.993   5.048   2.525  0.3286  0.3010 -0.3036
 1009MOL0     C33066   8.088   4.935   2.513 -1.5408  0.6306 -0.2269
 1009MOL0     C33067   8.118   4.888   2.364  0.3740 -0.0614 -0.8831
 1009MOL0     C33068   8.254   4.840   2.344 -0.4194  0.3228 -0.2634
 1009MOL0     C33069   8.350   4.950   2.296  0.0163 -0.9852  1.3023
 1009MOL0     C33070   8.494   4.917   2.286 -0.2140  0.6004  0.6510
 1009MOL0     C33071   8.561   4.929   2.427 -0.1826  1.3642 -0.7938
 1009MOL0     C33072   8.719   4.933   2.422  0.5701 -0.9938  0.3510
 1009MOL0     N33073   8.744   5.080   2.407 -0.3535 -0.7976  0.2175
 1009MOL0     C33074   8.749   5.173   2.511 -0.5732  0.2798  0.4834
 1009MOL0     C33075   8.797   5.287   2.449  0.2609  0.3935 -0.4013
 1009MOL0     C33076   8.849   5.403   2.523 -0.2147  0.0188  0.1969
 1009MOL0     C33077   8.748   5.466   2.622  0.5443 -0.1673  0.6501
 1009MOL0     C33078   8.657   5.571   2.565  0.1157  0.0119 -0.7096
 1009MOL0     C33079   8.577   5.513   2.455  0.1574 -0.9819 -0.7268
 1009MOL0     O33080   8.496   5.397   2.481 -0.2238  0.8400 -0.6097
 1009MOL0     C33081   8.409   5.362   2.381  0.8766  0.2814 -0.2186
 1009MOL0     C33082   8.442   5.298   2.265  0.0630  0.2458  0.7195
 1009MOL0     C33083   8.359   5.263   2.155  0.0465 -0.8511  0.2866
 1009MOL0     C33084   8.215   5.275   2.182 -0.2594  0.4488 -0.1323
 1009MOL0     C33085   8.116   5.209   2.090  0.3516  0.2235  0.3648
 1009MOL0     O33086   7.982   5.239   2.113  0.3427  0.0252 -0.5051
 1009MOL0     C33087   7.893   5.148   2.068 -0.1684  0.1835  0.4925
 1009MOL0     C33088   7.843   5.034   2.127 -0.4039 -0.5192  0.8151
 1009MOL0     C33089   7.747   4.957   2.075  0.0188  0.6642  1.5683
 1009MOL0     C33090   7.690   4.991   1.959  1.3694 -0.1937 -0.1385
 1009MOL0     O33091   7.581   4.925   1.905  0.0773 -0.4605 -0.0547
 1009MOL0     C33092   7.603   4.784   1.900 -0.2846 -0.3626 -0.1431
 1009MOL0     C33093   7.559   4.740   1.757  0.3879  0.7505 -1.3080
 1009MOL0     C33094   7.543   4.588   1.744  0.2144 -0.1112 -0.2141
 1009MOL0     C33095   7.513   4.549   1.595  0.0463 -0.7370 -0.2837
 1009MOL0     C33096   7.362   4.580   1.558 -0.3877 -0.6215 -0.1977
 1009MOL0     C33097   7.337   4.585   1.412  0.3908 -0.1573  0.2760
 1009MOL0     C33098   7.362   4.449   1.353  0.0299  0.1783 -0.4251
 1009MOL0     C33099   7.368   4.455   1.200  0.4345  0.7050  0.0128
 1009MOL0    Cl33100   7.481   4.586   1.146  0.1608  0.7212 -0.2922
 1009MOL0     C33101   7.726   5.114   1.901  0.0234  0.1281 -0.1328
 1009MOL0     C33102   7.833   5.187   1.948  0.8620  0.5980 -0.4485
 1009MOL0     O33103   8.168   5.132   2.004 -0.1117  0.1603 -0.7478
 1009MOL0     C33104   8.174   5.335   2.305 -0.6771  0.8632  0.1971
 1009MOL0     C33105   8.274   5.380   2.399  0.5255 -0.8668 -0.4672
 1009MOL0     N33106   8.801   5.263   2.313 -0.3522  0.6549 -0.7160
 1009MOL0     N33107   8.770   5.145   2.293  0.2248  0.0049  0.2543
 1009MOL0     C33108   7.748   5.007   2.683  0.8658 -0.1763  0.2861
 1009MOL0     C33109   7.630   4.978   2.751  0.2727  0.3530 -0.7374
 1009MOL0     C33110   7.195   4.975   2.886  0.3570  0.8417 -0.4376
 1009MOL0     C33111   7.115   4.905   2.796  0.1339  0.0448 -0.6913
 1009MOL0     C33112   6.991   4.878   2.832  0.7497  0.3139 -0.2992
 1009MOL0     C33113   6.939   4.921   2.959  0.3832  0.3619  0.0019
 1009MOL0     O33114   6.809   4.897   3.001 -0.3875 -0.2827 -0.8711
 1009MOL0     C33115   6.727   4.799   2.941  0.2619  0.0821  0.8557
 1009MOL0     C33116   6.648   4.869   2.831  0.0706  0.4201 -0.5551
 1009MOL0     C33117   6.564   4.993   2.870 -0.4640 -0.3756 -0.3241
 1009MOL0     C33118   6.482   5.050   2.750  0.5320 -1.3245  0.1607
 1009MOL0     C33119   6.560   5.123   2.648 -0.4011 -0.1097  0.6666
 1009MOL0     C33120   6.630   5.195   2.573 -0.0608 -0.6853  0.1337
 1009MOL0     C33121   7.016   4.991   3.048 -0.7403  0.7123  0.3843
 1009MOL0     C33122   7.141   5.025   3.008 -0.3114  0.6120  0.2033
 1009MOL0     H33123   7.429   4.924   2.482  1.9100  0.7061 -4.0147
 1009MOL0     H33124   7.636   4.967   2.364  0.2139 -2.1230 -0.4970
 1009MOL0     H33125   7.994   5.084   2.628  0.5472  0.0531 -0.2202
 1009MOL0     H33126   8.042   5.131   2.474  3.7827 -2.0214 -1.1027
 1009MOL0     H33127   8.059   4.842   2.562  1.5358 -0.6136 -0.5675
 1009MOL0     H33128   8.181   4.963   2.563 -1.6318  1.0832 -0.3000
 1009MOL0     H33129   8.105   4.976   2.300 -0.7098  0.2371 -0.2860
 1009MOL0     H33130   8.038   4.817   2.343 -1.6778  0.8160  2.9895
 1009MOL0     H33131   8.287   4.791   2.437 -0.9447 -0.8573 -0.6897
 1009MOL0     H33132   8.261   4.758   2.272 -1.1251 -1.4598  1.5703
 1009MOL0     H33133   8.340   5.027   2.373  1.3261  2.6898 -1.9072
 1009MOL0     H33134   8.305   4.992   2.206 -0.9221 -2.6701  0.9414
 1009MOL0     H33135   8.538   4.994   2.221 -1.6762 -0.8896 -2.3287
 1009MOL0     H33136   8.516   4.827   2.228  0.8292  2.0411 -1.3044
 1009MOL0     H33137   8.524   5.016   2.481 -1.9704 -1.3574  2.7460
 1009MOL0     H33138   8.538   4.848   2.496  0.2818  1.0658 -0.9767
 1009MOL0     H33139   8.755   4.884   2.332  1.0190 -0.5294  0.2705
 1009MOL0     H33140   8.756   4.892   2.517  2.8222 -0.1733 -0.1211
 1009MOL0     H33141   8.740   5.152   2.617  0.0509  1.4589  0.7804
 1009MOL0     H33142   8.881   5.475   2.448 -0.2215  0.3956  0.5488
 1009MOL0     H33143   8.926   5.378   2.598  1.0565  2.7613 -0.1005
 1009MOL0     H33144   8.796   5.505   2.712 -3.0642 -0.3871  2.8597
 1009MOL0     H33145   8.690   5.382   2.660  2.6941 -1.6704  0.7505
 1009MOL0     H33146   8.590   5.600   2.646  2.1058 -0.5657  1.2480
 1009MOL0     H33147   8.715   5.657   2.531  0.2596  0.4653  0.6436
 1009MOL0     H33148   8.630   5.501   2.360 -1.9294 -0.3201 -2.0552
 1009MOL0     H33149   8.509   5.596   2.434 -2.9145 -3.3161 -0.7173
 1009MOL0     H33150   8.545   5.271   2.247 -0.3524 -1.3077  0.5658
 1009MOL0     H33151   8.392   5.221   2.060 -0.1912 -1.1379  0.3274
 1009MOL0     H33152   7.884   5.000   2.222  2.3041 -4.3847 -1.5007
 1009MOL0     H33153   7.728   4.865   2.129  2.2775 -1.9108 -1.6373
 1009MOL0     H33154   7.544   4.727   1.972 -1.6236  0.1763 -0.7948
 1009MOL0     H33155   7.710   4.765   1.916 -0.6036 -1.8412  0.3639
 1009MOL0     H33156   7.624   4.783   1.681  0.8700  1.3666 -0.5523
 1009MOL0     H33157   7.464   4.791   1.736  0.9025  1.5233 -1.7732
 1009MOL0     H33158   7.472   4.538   1.810  0.2420 -2.8538 -2.0634
 1009MOL0     H33159   7.630   4.529   1.775 -0.1051  1.3466  4.1118
 1009MOL0     H33160   7.573   4.595   1.517 -1.1574 -0.4634 -1.0744
 1009MOL0     H33161   7.532   4.441   1.592 -4.6400 -1.7583 -1.6370
 1009MOL0     H33162   7.333   4.675   1.603 -1.0801 -1.1233  0.4319
 1009MOL0     H33163   7.297   4.507   1.605  1.5239  0.0157  3.8605
 1009MOL0     H33164   7.401   4.662   1.368  1.6308 -0.8891  0.7556
 1009MOL0     H33165   7.236   4.618   1.386  0.8701  0.4479 -0.9299
 1009MOL0     H33166   7.451   4.409   1.403 -0.3622 -1.7510 -1.1730
 1009MOL0     H33167   7.284   4.374   1.369  0.5844 -0.8641 -2.2941
 1009MOL0     H33168   7.275   4.487   1.152  1.2012 -1.9212 -3.6290
 1009MOL0     H33169   7.391   4.357   1.156 -1.3460  1.0833 -1.9133
 1009MOL0     H33170   7.678   5.165   1.818  1.4796  1.4136 -0.2511
 1009MOL0     H33171   7.856   5.286   1.910  0.6955  1.4826  1.5686
 1009MOL0     H33172   8.070   5.360   2.326 -0.0298  0.2352  5.7003
 1009MOL0     H33173   8.237   5.416   2.495  1.4352  0.8070 -0.7031
 1009MOL0     H33174   7.839   5.016   2.741  0.0881 -0.0966  1.5245
 1009MOL0     H33175   7.628   4.994   2.858  1.8674 -0.5590 -0.5433
 1009MOL0     H33176   7.157   4.872   2.702 -0.9078  0.0818 -1.1854
 1009MOL0     H33177   6.918   4.838   2.762 -0.4591 -0.0330  1.1030
 1009MOL0     H33178   6.667   4.755   3.021  2.0641 -0.7669  1.7950
 1009MOL0     H33179   6.778   4.713   2.898 -1.9293  1.0968 -4.6734
 1009MOL0     H33180   6.713   4.889   2.745  0.2135  0.7354 -0.3744
 1009MOL0     H33181   6.578   4.797   2.788 -1.8443  2.5277 -1.0865
 1009MOL0     H33182   6.626   5.068   2.922 -0.1082  2.3117 -4.1696
 1009MOL0     H33183   6.493   4.959   2.946 -0.3548 -1.0303 -0.5127
 1009MOL0     H33184   6.440   4.960   2.704  0.8783 -1.6194  0.4142
 1009MOL0     H33185   6.397   5.114   2.776  1.6444  1.2083 -2.0037
 1009MOL0     H33186   6.659   5.271   2.503 -1.1539 -0.2015  0.1798
 1009MOL0     H33187   6.977   5.042   3.136  0.1141  3.1495 -0.5440
 1009MOL0     H33188   7.211   5.074   3.075  1.6746 -1.1627 -0.4520
 1010MOL0     O33189   2.033   9.333   4.636  0.1773 -0.0025  0.6608
 1010MOL0     C33190   1.936   9.397   4.663  0.2276 -0.4956  0.5238
 1010MOL0     O33191   1.944   9.525   4.717  0.0215  0.2124  0.1609
 1010MOL0     C33192   2.059   9.565   4.776  0.5354  0.4997 -0.0366
 1010MOL0     C33193   2.040   9.607   4.911 -0.4545  0.7027 -0.3987
 1010MOL0     C33194   2.146   9.667   4.982 -0.4263  0.3065 -0.7541
 1010MOL0     C33195   2.273   9.667   4.921  0.7490  0.6448 -0.4068
 1010MOL0     O33196   2.375   9.723   4.991  1.1045 -0.3775 -0.5076
 1010MOL0     C33197   2.505   9.679   4.969  0.0066 -0.0152 -0.2408
 1010MOL0     C33198   2.591   9.759   5.072  0.0870 -0.3650 -0.2144
 1010MOL0     C33199   2.736   9.714   5.070 -1.1661 -0.8908  0.2870
 1010MOL0     C33200   2.743   9.580   5.123  0.3384 -0.1605 -0.0239
 1010MOL0     C33201   2.892   9.548   5.153  0.0314 -0.5978  0.4675
 1010MOL0     C33202   2.967   9.506   5.034  0.0706 -0.3521  0.3509
 1010MOL0     C33203   3.124   9.481   5.069 -0.6700 -1.1729  0.0667
 1010MOL0     C33204   3.198   9.497   4.939 -0.0434  0.6302  0.6051
 1010MOL0     N33205   3.347   9.484   4.937  0.4008 -0.8991 -0.2760
 1010MOL0     C33206   3.427   9.431   5.039  0.4560  0.3086 -0.8219
 1010MOL0     C33207   3.552   9.418   4.989 -0.2678  0.6211  0.0482
 1010MOL0     C33208   3.680   9.360   5.055  0.1178 -0.5112  0.0381
 1010MOL0     C33209   3.791   9.459   5.059  0.7564  0.6375  0.1846
 1010MOL0     C33210   3.807   9.549   5.189 -0.4372  0.3177 -0.5065
 1010MOL0     C33211   3.701   9.661   5.220  0.3999 -0.0705  0.0495
 1010MOL0     O33212   3.650   9.722   5.103  0.5142  0.4131 -0.1091
 1010MOL0     C33213   3.520   9.765   5.109 -0.9822  1.3799 -0.2038
 1010MOL0     C33214   3.435   9.768   5.226 -0.4180  0.0503  0.3606
 1010MOL0     C33215   3.304   9.813   5.213  0.0314  0.6293 -0.3921
 1010MOL0     C33216   3.255   9.844   5.084 -0.0475 -1.0207  0.4755
 1010MOL0     C33217   3.116   9.897   5.068  0.2128  0.0356  0.1415
 1010MOL0     O33218   3.065   9.913   4.939  0.0984  0.0297 -0.0316
 1010MOL0     C33219   2.940   9.967   4.901  0.9144 -0.4364 -0.8931
 1010MOL0     C33220   2.870  10.064   4.970 -0.1463  0.3571  0.4239
 1010MOL0     C33221   2.755  10.132   4.912 -0.3552  0.9536 -0.2018
 1010MOL0     C33222   2.706  10.093   4.786  0.2081  0.4933 -0.0693
 1010MOL0     O33223   2.585  10.143   4.737  0.0075 -0.1604 -0.3390
 1010MOL0     C33224   2.535  10.118   4.610  0.9850  0.4699 -0.8501
 1010MOL0     C33225   2.415  10.193   4.564  0.9877 -1.1435 -0.2468
 1010MOL0     C33226   2.444  10.345   4.569  0.8168 -0.1645  0.8701
 1010MOL0     C33227   2.342  10.439   4.507  0.0717 -0.5441 -0.7130
 1010MOL0     C33228   2.320  10.433   4.354  0.4448 -0.5335  0.1554
 1010MOL0     C33229   2.437  10.471   4.280  0.4779 -0.3009  0.9537
 1010MOL0     C33230   2.501  10.606   4.317  0.3796 -0.9985 -0.4096
 1010MOL0     C33231   2.654  10.611   4.343 -1.0872  0.6295 -0.8228
 1010MOL0    Cl33232   2.732  10.556   4.198  0.0875 -0.2727 -0.2638
 1010MOL0     C33233   2.778   9.992   4.714  0.3918 -0.3860 -0.2366
 1010MOL0     C33234   2.887   9.927   4.770 -0.6437 -0.4020 -1.4909
 1010MOL0     O33235   3.056   9.929   5.169  0.1535  0.4463 -0.0778
 1010MOL0     C33236   3.348   9.840   4.974 -0.7447 -0.0735  0.0331
 1010MOL0     C33237   3.485   9.812   4.988  0.0525 -1.0769 -0.6341
 1010MOL0     N33238   3.552   9.464   4.856 -0.6159  0.1500  0.8148
 1010MOL0     N33239   3.432   9.513   4.830  0.8602 -0.4466 -0.1988
 1010MOL0     C33240   2.294   9.627   4.793 -0.5573  0.1093 -0.6693
 1010MOL0     C33241   2.189   9.573   4.718  0.4217  0.6619 -0.1330
 1010MOL0     C33242   1.815   9.337   4.646  0.7536  0.4848  0.1512
 1010MOL0     C33243   1.702   9.419   4.675 -0.2549  0.5329  0.0595
 1010MOL0     C33244   1.573   9.355   4.683  0.5359 -0.0964  0.4460
 1010MOL0     C33245   1.552   9.229   4.642 -0.1948  0.7047 -0.0701
 1010MOL0     O33246   1.429   9.172   4.621 -0.2158 -0.5102 -0.0955
 1010MOL0     C33247   1.306   9.250   4.629  0.2498  0.3078 -1.1949
 1010MOL0     C33248   1.310   9.349   4.508  1.5619  0.2810 -0.6607
 1010MOL0     C33249   1.202   9.449   4.524 -0.0213 -0.1081  0.3417
 1010MOL0     C33250   1.209   9.540   4.396 -0.1970 -0.4445 -0.3416
 1010MOL0     C33251   1.100   9.628   4.416  0.1526 -0.0006 -0.5953
 1010MOL0     C33252   1.006   9.700   4.452  0.2132 -0.8719  1.2084
 1010MOL0     C33253   1.661   9.151   4.594  0.8389 -0.4124 -0.3224
 1010MOL0     C33254   1.790   9.207   4.606  0.6340 -0.2169  0.3816
 1010MOL0     H33255   1.942   9.603   4.958  0.1436 -0.6710  0.7725
 1010MOL0     H33256   2.118   9.703   5.080 -1.2218 -0.6191 -0.6321
 1010MOL0     H33257   2.534   9.715   4.870 -1.1732  0.9834 -0.2509
 1010MOL0     H33258   2.523   9.572   4.982 -2.7724 -0.2813  2.5665
 1010MOL0     H33259   2.547   9.730   5.167 -0.5661 -2.2717 -1.0500
 1010MOL0     H33260   2.596   9.867   5.053  1.5613 -0.3178  0.3472
 1010MOL0     H33261   2.795   9.781   5.134 -2.4514  0.9067 -0.3286
 1010MOL0     H33262   2.789   9.709   4.974  0.4456 -1.1265  1.1534
 1010MOL0     H33263   2.708   9.579   5.226  0.6878 -0.1110  0.0959
 1010MOL0     H33264   2.699   9.504   5.057 -0.9033  0.6509 -0.1680
 1010MOL0     H33265   2.901   9.475   5.233  0.3685  0.0861  1.0617
 1010MOL0     H33266   2.946   9.638   5.182 -0.3152  0.1676 -1.1150
 1010MOL0     H33267   2.952   9.572   4.948 -1.7030 -0.0964  0.8083
 1010MOL0     H33268   2.917   9.411   5.015  0.0523 -0.7208  2.0827
 1010MOL0     H33269   3.155   9.563   5.135  1.5631  0.5746 -2.9017
 1010MOL0     H33270   3.142   9.387   5.121 -0.3078 -1.0292  0.2027
 1010MOL0     H33271   3.170   9.592   4.893  3.3371  1.3125 -0.2786
 1010MOL0     H33272   3.159   9.417   4.875  0.3529  2.8195 -2.6155
 1010MOL0     H33273   3.395   9.390   5.134  2.7698 -3.6818 -1.5512
 1010MOL0     H33274   3.722   9.279   4.995 -0.9632 -3.3457  2.8381
 1010MOL0     H33275   3.656   9.323   5.155 -0.6440 -2.0768 -0.6944
 1010MOL0     H33276   3.789   9.524   4.971 -0.0316 -0.6561 -0.7956
 1010MOL0     H33277   3.886   9.407   5.046 -0.5889 -2.0624  0.5830
 1010MOL0     H33278   3.803   9.490   5.282 -0.5360  1.1555  0.0317
 1010MOL0     H33279   3.906   9.594   5.197 -1.0421  1.3451  2.3174
 1010MOL0     H33280   3.757   9.732   5.283  2.0148 -1.0489 -0.2258
 1010MOL0     H33281   3.618   9.616   5.275 -2.1461  3.1769 -0.7737
 1010MOL0     H33282   3.468   9.734   5.324  0.5565 -4.4403 -1.2658
 1010MOL0     H33283   3.244   9.818   5.303 -0.5476  4.8030 -0.7764
 1010MOL0     H33284   2.888  10.105   5.069  2.7099  0.5393 -0.1019
 1010MOL0     H33285   2.698  10.213   4.957 -0.5556  0.2871  0.7779
 1010MOL0     H33286   2.507  10.013   4.605  1.9811  0.0734  1.1403
 1010MOL0     H33287   2.612  10.127   4.532  0.1824  1.1727 -1.5929
 1010MOL0     H33288   2.339  10.169   4.639  1.9163  0.3081  1.2215
 1010MOL0     H33289   2.369  10.155   4.472 -0.1456 -0.5333  0.0382
 1010MOL0     H33290   2.534  10.351   4.507  0.2225 -0.9546 -0.0895
 1010MOL0     H33291   2.479  10.377   4.668 -0.0383  1.5606  0.6489
 1010MOL0     H33292   2.247  10.425   4.560  0.6885 -0.7158  0.3681
 1010MOL0     H33293   2.376  10.536   4.543 -0.6674 -1.3681  2.5721
 1010MOL0     H33294   2.237  10.499   4.329  0.6858  0.0385  0.8292
 1010MOL0     H33295   2.290  10.330   4.333  0.9963 -0.8160  0.7190
 1010MOL0     H33296   2.405  10.482   4.175 -2.5275 -0.7950  1.7025
 1010MOL0     H33297   2.510  10.391   4.291  0.1869 -0.5450  1.1339
 1010MOL0     H33298   2.476  10.670   4.233 -1.4394 -2.8882 -1.4163
 1010MOL0     H33299   2.440  10.645   4.399 -0.3001 -3.8030  0.5405
 1010MOL0     H33300   2.674  10.545   4.428 -2.0409 -0.3540 -1.3389
 1010MOL0     H33301   2.674  10.718   4.352 -2.0766  1.3056 -4.6366
 1010MOL0     H33302   2.742   9.940   4.625  0.7653 -1.5187  0.2459
 1010MOL0     H33303   2.929   9.839   4.722 -0.8043 -0.8681 -0.7823
 1010MOL0     H33304   3.322   9.849   4.868  0.5721  1.4647 -0.1952
 1010MOL0     H33305   3.551   9.812   4.902 -2.4340  0.6651 -2.6943
 1010MOL0     H33306   2.388   9.641   4.742  0.2527  0.5818  0.8899
 1010MOL0     H33307   2.206   9.557   4.612  5.5483 -1.6701  0.7270
 1010MOL0     H33308   1.701   9.520   4.714 -3.5071  0.1700  1.2006
 1010MOL0     H33309   1.496   9.417   4.728  1.4502  0.7536  0.8706
 1010MOL0     H33310   1.296   9.297   4.728 -3.2775 -1.4301 -0.5535
 1010MOL0     H33311   1.217   9.187   4.622  0.0677  0.5050 -0.7093
 1010MOL0     H33312   1.405   9.403   4.509  2.1609 -0.2853  4.9062
 1010MOL0     H33313   1.288   9.286   4.421 -1.5424 -3.6043  2.5139
 1010MOL0     H33314   1.217   9.507   4.615  0.8357  0.1901  0.0243
 1010MOL0     H33315   1.104   9.401   4.521 -1.0666  1.8352  1.4889
 1010MOL0     H33316   1.300   9.600   4.391  0.8978 -2.0831 -1.1301
 1010MOL0     H33317   1.201   9.487   4.301 -0.1932 -3.3074  1.1126
 1010MOL0     H33318   0.918   9.752   4.485  0.2331  2.0205 -2.6267
 1010MOL0     H33319   1.639   9.054   4.552  2.2160 -0.7916 -0.2051
 1010MOL0     H33320   1.866   9.136   4.575 -0.3579 -0.9079 -0.5355
 1011MOL0     O33321   7.601   3.361  10.342 -0.7681 -0.5598 -0.1622
 1011MOL0     C33322   7.623   3.431  10.239 -0.6650 -0.5152 -0.8792
 1011MOL0     O33323   7.699   3.385  10.127  0.2978 -0.0888 -0.1043
 1011MOL0     C33324   7.732   3.250  10.126 -0.4245  0.1807  1.2043
 1011MOL0     C33325   7.764   3.162  10.233  0.9050  0.1733 -0.4039
 1011MOL0     C33326   7.793   3.029  10.218 -0.3136  0.5180  0.5092
 1011MOL0     C33327   7.805   2.985  10.084  1.2844  0.8629 -0.2294
 1011MOL0     O33328   7.829   2.852  10.061  0.1712 -0.3763 -0.6337
 1011MOL0     C33329   7.922   2.809   9.960  0.0839 -0.2145 -0.6253
 1011MOL0     C33330   7.961   2.659  10.005 -0.4480 -0.1483  0.1080
 1011MOL0     C33331   8.031   2.565   9.906  0.2159  0.7396  0.0892
 1011MOL0     C33332   7.952   2.541   9.773  0.4842  0.2674  0.3290
 1011MOL0     C33333   7.808   2.484   9.789 -0.1473 -0.4513 -0.4425
 1011MOL0     C33334   7.807   2.348   9.852  0.9179 -0.6351 -0.8939
 1011MOL0     C33335   7.888   2.227   9.800  0.0168 -0.4669 -0.7823
 1011MOL0     C33336   7.855   2.204   9.649 -0.7311 -0.0470 -0.2351
 1011MOL0     N33337   7.891   2.070   9.606  0.2778 -0.4897  0.2797
 1011MOL0     C33338   7.796   1.974   9.618  0.0475 -0.6597  0.0858
 1011MOL0     C33339   7.841   1.875   9.535  0.3402  1.0678 -0.2920
 1011MOL0     C33340   7.796   1.730   9.542  0.1897  0.5222 -0.2244
 1011MOL0     C33341   7.899   1.645   9.613 -0.0223  0.6596  0.8111
 1011MOL0     C33342   7.836   1.513   9.667 -0.3869 -0.0794 -0.7480
 1011MOL0     C33343   7.801   1.393   9.570 -0.5031 -0.3104  1.2177
 1011MOL0     O33344   7.792   1.264   9.650 -0.0213  0.0511  0.3790
 1011MOL0     C33345   7.744   1.161   9.568 -0.8802 -0.0474  1.0752
 1011MOL0     C33346   7.767   1.160   9.428  0.1449  0.6873 -0.6603
 1011MOL0     C33347   7.712   1.054   9.359  0.4745 -0.3860  0.7755
 1011MOL0     C33348   7.620   0.951   9.416 -0.7255  0.2550  0.7402
 1011MOL0     C33349   7.544   0.855   9.334  0.0571 -0.1946 -0.2941
 1011MOL0     O33350   7.539   0.894   9.198 -0.2055  0.3392 -0.1730
 1011MOL0     C33351   7.484   0.814   9.103  0.5512 -0.1101  0.1717
 1011MOL0     C33352   7.535   0.680   9.085  0.2340 -0.9877  0.2377
 1011MOL0     C33353   7.486   0.610   8.977  0.3937  1.1176  0.3726
 1011MOL0     C33354   7.390   0.648   8.888 -0.3500 -0.2122 -0.2705
 1011MOL0     O33355   7.360   0.564   8.785 -0.2726  0.1684 -0.4084
 1011MOL0     C33356   7.370   0.619   8.656  0.2079 -0.2936  0.5305
 1011MOL0     C33357   7.510   0.627   8.612  0.1072  0.2405  1.1716
 1011MOL0     C33358   7.570   0.485   8.574 -0.6279 -0.1656  0.7352
 1011MOL0     C33359   7.704   0.501   8.506 -0.1679 -0.0440  0.7031
 1011MOL0     C33360   7.763   0.370   8.453  0.1815  0.4663 -0.4557
 1011MOL0     C33361   7.886   0.373   8.362  0.1091 -0.2382  0.5036
 1011MOL0     C33362   8.000   0.398   8.453 -0.3885  0.2965 -0.3501
 1011MOL0     C33363   8.136   0.407   8.385  0.1675  0.2579  0.0162
 1011MOL0    Cl33364   8.203   0.250   8.329  0.2547 -0.0713  0.3164
 1011MOL0     C33365   7.334   0.775   8.912 -1.2534 -0.4193 -0.3914
 1011MOL0     C33366   7.390   0.861   9.011  1.1231 -0.6464 -0.8845
 1011MOL0     O33367   7.495   0.757   9.381 -0.5472 -0.2241 -0.1840
 1011MOL0     C33368   7.604   0.957   9.555 -0.6102 -0.2651 -0.3993
 1011MOL0     C33369   7.667   1.063   9.618  0.2142 -0.0124 -1.0372
 1011MOL0     N33370   7.962   1.917   9.472 -0.3679 -0.2738 -0.7869
 1011MOL0     N33371   7.998   2.035   9.526  0.3072  0.2312 -0.1347
 1011MOL0     C33372   7.782   3.069   9.977 -0.1592  0.0399  0.0968
 1011MOL0     C33373   7.746   3.203   9.999 -0.2779 -0.1387  1.2970
 1011MOL0     C33374   7.572   3.572  10.240  0.4368 -0.5593 -0.0130
 1011MOL0     C33375   7.535   3.640  10.121 -0.7166  0.0584  0.2650
 1011MOL0     C33376   7.461   3.759  10.127  0.5043  0.4398  0.3803
 1011MOL0     C33377   7.419   3.805  10.255 -0.0460 -0.2218  0.8488
 1011MOL0     O33378   7.334   3.908  10.265 -0.2281  0.1759 -0.6011
 1011MOL0     C33379   7.194   3.881  10.239  0.1295  0.8511  0.8553
 1011MOL0     C33380   7.150   3.996  10.151  0.3522 -0.4675 -0.3137
 1011MOL0     C33381   7.112   4.104  10.248  1.1877 -0.5382  0.3824
 1011MOL0     C33382   7.047   4.224  10.170 -0.1025 -1.0614 -0.4676
 1011MOL0     C33383   6.933   4.185  10.075  0.3157  0.5101  0.0457
 1011MOL0     C33384   6.825   4.165  10.022  1.0723  1.1503 -0.0523
 1011MOL0     C33385   7.454   3.732  10.363 -0.3667 -0.0281  0.0559
 1011MOL0     C33386   7.532   3.621  10.356 -0.3344  0.0955  0.0537
 1011MOL0     H33387   7.780   3.205  10.332  2.7179  4.1276 -2.1821
 1011MOL0     H33388   7.805   2.960  10.301 -4.6809  1.6459  2.3727
 1011MOL0     H33389   8.006   2.877   9.940 -0.0604  0.7147  1.6681
 1011MOL0     H33390   7.869   2.806   9.865 -2.1391  1.6766  0.4541
 1011MOL0     H33391   7.872   2.614  10.049  0.7554 -0.4634  2.3566
 1011MOL0     H33392   8.043   2.669  10.077 -1.0424  1.3503  0.6269
 1011MOL0     H33393   8.034   2.466   9.951 -3.1975  0.3312 -0.3065
 1011MOL0     H33394   8.132   2.595   9.877 -0.6064  1.4812 -2.3078
 1011MOL0     H33395   7.957   2.638   9.723 -1.2918  0.6803  0.8899
 1011MOL0     H33396   7.997   2.471   9.702 -0.1490 -1.4097  1.5186
 1011MOL0     H33397   7.745   2.488   9.700 -0.3022  1.1523 -0.2915
 1011MOL0     H33398   7.757   2.557   9.852  0.3531  0.0799 -0.6392
 1011MOL0     H33399   7.702   2.319   9.864  1.4401 -1.8345  1.2846
 1011MOL0     H33400   7.846   2.361   9.953  0.8928  0.8482 -1.0459
 1011MOL0     H33401   7.993   2.252   9.820 -0.8816  2.4982  0.9836
 1011MOL0     H33402   7.870   2.135   9.855  0.4162  1.2353  2.4789
 1011MOL0     H33403   7.919   2.264   9.584  2.0432 -2.0674  0.4118
 1011MOL0     H33404   7.750   2.224   9.625 -0.1497  1.0546 -2.0863
 1011MOL0     H33405   7.719   1.984   9.694  0.3309  0.9391  0.1956
 1011MOL0     H33406   7.780   1.695   9.439  3.6246 -0.9159 -0.4073
 1011MOL0     H33407   7.704   1.728   9.600 -0.5643 -2.2119 -1.3530
 1011MOL0     H33408   7.941   1.705   9.695 -1.7067  1.4725  1.1270
 1011MOL0     H33409   7.982   1.619   9.547 -1.8394 -0.9188 -0.9660
 1011MOL0     H33410   7.905   1.473   9.742  0.6005 -0.0664 -1.6321
 1011MOL0     H33411   7.757   1.552   9.732  1.5329  2.2267  0.3475
 1011MOL0     H33412   7.886   1.385   9.502 -1.7881 -2.5925 -0.2333
 1011MOL0     H33413   7.710   1.405   9.510  0.3167  2.4019  0.3902
 1011MOL0     H33414   7.835   1.226   9.375  0.0972  0.1131 -1.4463
 1011MOL0     H33415   7.745   1.035   9.257  2.2516  1.7163  0.8811
 1011MOL0     H33416   7.607   0.631   9.151  1.2392 -0.9688 -0.8181
 1011MOL0     H33417   7.508   0.506   8.956 -0.1184  1.6008 -3.1206
 1011MOL0     H33418   7.321   0.714   8.636 -0.7272 -1.0555 -0.9710
 1011MOL0     H33419   7.310   0.562   8.585  1.5497 -2.6579  1.1786
 1011MOL0     H33420   7.570   0.678   8.688  1.6519 -0.9528  0.7989
 1011MOL0     H33421   7.507   0.694   8.525 -0.2814 -0.3839  0.6936
 1011MOL0     H33422   7.501   0.438   8.503 -1.3560  2.1271 -0.1691
 1011MOL0     H33423   7.577   0.421   8.662  1.8604  1.0144  1.4717
 1011MOL0     H33424   7.676   0.572   8.428 -2.3631 -2.3736 -0.7710
 1011MOL0     H33425   7.779   0.551   8.568  1.2668 -3.1815  1.6795
 1011MOL0     H33426   7.675   0.322   8.409 -0.7207  1.2572  0.4348
 1011MOL0     H33427   7.781   0.304   8.539  1.9125  0.7028 -0.6087
 1011MOL0     H33428   7.873   0.449   8.284  0.2880 -0.0881  0.6183
 1011MOL0     H33429   7.917   0.278   8.318  2.2316  1.0684 -1.0014
 1011MOL0     H33430   7.972   0.488   8.509 -0.1085 -0.1187  0.4845
 1011MOL0     H33431   8.009   0.315   8.524  1.8764  2.6884  2.4513
 1011MOL0     H33432   8.214   0.439   8.454  0.0652 -2.8905  1.8009
 1011MOL0     H33433   8.137   0.473   8.298  0.1231  1.9803  1.2781
 1011MOL0     H33434   7.261   0.827   8.850  0.0349  0.9931 -0.7941
 1011MOL0     H33435   7.341   0.957   9.011  1.7691 -0.3011 -0.2499
 1011MOL0     H33436   7.539   0.892   9.612  2.2537 -0.5132  2.9184
 1011MOL0     H33437   7.645   1.083   9.722  1.4259 -0.2735 -0.7169
 1011MOL0     H33438   7.782   3.037   9.873  1.9608  2.3894 -0.7383
 1011MOL0     H33439   7.748   3.259   9.906 -2.0027 -0.7760  0.8381
 1011MOL0     H33440   7.551   3.600  10.021  1.1686 -1.9053  1.2669
 1011MOL0     H33441   7.443   3.816  10.036  1.8256 -0.8862 -0.7658
 1011MOL0     H33442   7.135   3.880  10.331 -1.8311  1.0857 -0.3257
 1011MOL0     H33443   7.193   3.784  10.189 -0.7958  0.5764  1.3782
 1011MOL0     H33444   7.229   4.015  10.078  0.1955 -1.2553 -0.6954
 1011MOL0     H33445   7.056   3.964  10.104 -0.7197  2.6197 -0.5195
 1011MOL0     H33446   7.208   4.136  10.292  1.7272 -0.6015 -0.7163
 1011MOL0     H33447   7.035   4.080  10.321  1.9363  0.6718  1.6160
 1011MOL0     H33448   7.012   4.303  10.237 -0.7185  0.6335 -2.6341
 1011MOL0     H33449   7.117   4.281  10.107  0.1489  0.8572  1.4355
 1011MOL0     H33450   6.727   4.129   9.995  0.9635  0.6830  0.9037
 1011MOL0     H33451   7.411   3.752  10.460  0.0662 -2.0060  0.6826
 1011MOL0     H33452   7.547   3.577  10.454 -1.0148 -0.0613  0.0923
 1012MOL0     O33453   7.664   2.498   0.937 -0.6174  0.7809 -1.0408
 1012MOL0     C33454   7.656   2.580   0.845 -0.4705 -0.5259  0.4110
 1012MOL0     O33455   7.545   2.635   0.791  0.1175 -0.5027 -0.6882
 1012MOL0     C33456   7.423   2.592   0.831 -0.2207 -1.0760 -1.1261
 1012MOL0     C33457   7.360   2.486   0.783 -0.6152 -0.0359 -0.1712
 1012MOL0     C33458   7.233   2.446   0.826 -0.7304  0.3414 -0.2769
 1012MOL0     C33459   7.167   2.523   0.932  0.2340 -0.9165  0.4795
 1012MOL0     O33460   7.046   2.494   0.989  0.6761 -0.1848  0.3452
 1012MOL0     C33461   6.952   2.432   0.903 -0.0970  0.5486 -0.1673
 1012MOL0     C33462   6.866   2.329   0.975  0.1952  0.6802 -0.2950
 1012MOL0     C33463   6.745   2.282   0.896  0.6816 -0.0807  0.3510
 1012MOL0     C33464   6.642   2.218   0.979  0.0022 -0.3506 -0.3402
 1012MOL0     C33465   6.509   2.188   0.914  0.9679 -0.1060  0.0789
 1012MOL0     C33466   6.411   2.098   1.003 -0.1239 -0.5838  0.1195
 1012MOL0     C33467   6.275   2.056   0.933  0.0056  0.9301 -0.5019
 1012MOL0     C33468   6.296   1.967   0.807 -0.2608 -0.0761  0.1219
 1012MOL0     N33469   6.384   1.854   0.826  0.3860  0.6290 -1.5000
 1012MOL0     C33470   6.519   1.832   0.790 -0.0760 -0.2641  0.2200
 1012MOL0     C33471   6.542   1.696   0.825  0.6759 -0.5197  0.5420
 1012MOL0     C33472   6.668   1.621   0.781  0.3742 -0.3635  0.1895
 1012MOL0     C33473   6.793   1.676   0.846 -1.5747  0.9682  0.1713
 1012MOL0     C33474   6.790   1.717   0.990 -0.8151  0.0541  0.6259
 1012MOL0     C33475   6.793   1.594   1.078  0.6356  0.0736 -0.7529
 1012MOL0     O33476   6.690   1.505   1.056  0.0831 -0.2377  0.7770
 1012MOL0     C33477   6.695   1.375   1.096  0.0275 -0.0975  0.0073
 1012MOL0     C33478   6.801   1.325   1.176  0.0289  0.2328  0.3569
 1012MOL0     C33479   6.802   1.188   1.215  0.5717  0.8544 -0.4545
 1012MOL0     C33480   6.708   1.102   1.161 -0.4502  0.4580 -0.0696
 1012MOL0     C33481   6.705   0.961   1.205  0.4078  0.2542 -0.4278
 1012MOL0     O33482   6.796   0.916   1.295 -0.4015 -0.4026 -0.4655
 1012MOL0     C33483   6.777   0.785   1.347  0.6159  0.1873 -1.3966
 1012MOL0     C33484   6.756   0.786   1.490  0.4344 -0.1800 -0.6662
 1012MOL0     C33485   6.742   0.667   1.557 -0.3092  0.9005 -0.2259
 1012MOL0     C33486   6.739   0.543   1.483  0.3980  0.5734  0.0324
 1012MOL0     O33487   6.706   0.419   1.527 -0.2817  0.5235  0.0724
 1012MOL0     C33488   6.649   0.422   1.659  1.4935  0.2457 -0.2603
 1012MOL0     C33489   6.596   0.288   1.726  0.1083  0.7447 -0.1028
 1012MOL0     C33490   6.523   0.198   1.625  0.1427 -0.3444 -0.8921
 1012MOL0     C33491   6.371   0.198   1.640  0.6673 -0.7452  0.6632
 1012MOL0     C33492   6.289   0.085   1.580  0.1976  0.2571 -0.1693
 1012MOL0     C33493   6.297  -0.040   1.676 -0.4381 -0.4493  0.0910
 1012MOL0     C33494   6.235  -0.163   1.617 -0.3456 -0.1711  0.5677
 1012MOL0     C33495   6.203  -0.278   1.718 -0.2610 -0.4407 -0.4465
 1012MOL0    Cl33496   6.346  -0.386   1.722 -0.5275  0.6807  0.1747
 1012MOL0     C33497   6.746   0.544   1.344  0.8822  0.6654  0.5961
 1012MOL0     C33498   6.763   0.662   1.279  0.5694 -0.6709 -0.6781
 1012MOL0     O33499   6.622   0.884   1.153  0.0790  0.1049  0.0369
 1012MOL0     C33500   6.601   1.153   1.086 -0.0138  0.4957  0.2815
 1012MOL0     C33501   6.595   1.285   1.057 -0.1229  1.0420 -0.5657
 1012MOL0     N33502   6.428   1.654   0.893 -0.3863 -0.6071 -0.2280
 1012MOL0     N33503   6.341   1.749   0.907  0.0659  0.3332 -0.5478
 1012MOL0     C33504   7.233   2.629   0.986  0.5007 -0.6534  0.4530
 1012MOL0     C33505   7.359   2.667   0.931 -0.5902 -0.2171 -0.9020
 1012MOL0     C33506   7.781   2.603   0.758  0.3759  1.1774 -0.6853
 1012MOL0     C33507   7.890   2.503   0.758 -0.5537  0.1670  0.0428
 1012MOL0     C33508   8.014   2.534   0.693  0.5525  0.1746 -0.1780
 1012MOL0     C33509   8.019   2.650   0.615 -0.2888 -0.1224 -0.4813
 1012MOL0     O33510   8.122   2.700   0.541 -0.1130 -0.1451 -0.0563
 1012MOL0     C33511   8.229   2.750   0.619 -0.8843  0.0485 -0.0257
 1012MOL0     C33512   8.348   2.720   0.542 -0.9187 -0.5229 -0.1980
 1012MOL0     C33513   8.466   2.810   0.556 -0.2393  0.0112  0.1391
 1012MOL0     C33514   8.545   2.784   0.680 -0.7352 -0.5979 -0.6343
 1012MOL0     C33515   8.663   2.872   0.680 -1.0621  0.1417 -0.2863
 1012MOL0     C33516   8.750   2.949   0.676  0.1831 -0.3823  0.7929
 1012MOL0     C33517   7.905   2.731   0.597 -0.8487 -0.7971 -0.1612
 1012MOL0     C33518   7.792   2.710   0.673 -0.4077 -0.1450 -0.0256
 1012MOL0     H33519   7.420   2.437   0.707  0.0796 -0.5986  0.7166
 1012MOL0     H33520   7.210   2.341   0.812 -0.5179  0.3548 -0.7365
 1012MOL0     H33521   6.989   2.366   0.824  0.2146 -0.1529  0.5503
 1012MOL0     H33522   6.900   2.510   0.846  0.9074  2.1262  0.9890
 1012MOL0     H33523   6.835   2.371   1.071  0.1318  2.1131 -0.9267
 1012MOL0     H33524   6.922   2.238   1.000 -2.4114 -0.5951  1.3818
 1012MOL0     H33525   6.792   2.212   0.826 -1.7403 -1.1518 -0.3026
 1012MOL0     H33526   6.704   2.371   0.847 -2.6814 -0.1592  2.6942
 1012MOL0     H33527   6.683   2.131   1.031 -1.1028 -0.6850 -0.0034
 1012MOL0     H33528   6.621   2.282   1.065  4.4101  0.0760  0.6382
 1012MOL0     H33529   6.520   2.138   0.817  0.3028 -1.3069  0.6077
 1012MOL0     H33530   6.447   2.276   0.892  1.4188  0.4845  1.0874
 1012MOL0     H33531   6.392   2.151   1.096  1.6411 -0.8353  0.6755
 1012MOL0     H33532   6.466   2.009   1.037  0.5430 -0.5323 -0.7711
 1012MOL0     H33533   6.214   1.985   0.989  4.7833 -4.8986 -1.7224
 1012MOL0     H33534   6.211   2.140   0.904 -1.2144 -0.1298 -0.9810
 1012MOL0     H33535   6.346   2.030   0.733 -2.1035  1.2169 -0.1141
 1012MOL0     H33536   6.198   1.936   0.770 -1.0149  1.5027  0.7095
 1012MOL0     H33537   6.585   1.905   0.741  0.8784 -0.1553  1.6171
 1012MOL0     H33538   6.689   1.634   0.674 -0.2198 -0.1659  0.0935
 1012MOL0     H33539   6.642   1.515   0.792 -0.7402  0.0174  1.4562
 1012MOL0     H33540   6.829   1.763   0.791  0.5111 -0.3579 -0.6749
 1012MOL0     H33541   6.868   1.597   0.836 -2.3673  0.2373 -0.0695
 1012MOL0     H33542   6.883   1.769   1.014 -1.7171  2.6581 -1.1182
 1012MOL0     H33543   6.706   1.783   1.013  1.6172  3.7108 -0.2294
 1012MOL0     H33544   6.780   1.628   1.181  4.0887 -1.8646  0.4980
 1012MOL0     H33545   6.893   1.553   1.064  1.0778  0.5711  0.7193
 1012MOL0     H33546   6.876   1.388   1.221  2.1930 -0.8504 -1.5467
 1012MOL0     H33547   6.879   1.150   1.282  4.0104 -0.2799 -4.6497
 1012MOL0     H33548   6.766   0.886   1.530 -0.6759  0.4860 -1.9795
 1012MOL0     H33549   6.723   0.678   1.664  1.5407 -1.0547  0.3729
 1012MOL0     H33550   6.556   0.480   1.650  0.1254 -2.0278 -1.9747
 1012MOL0     H33551   6.720   0.475   1.723  1.6910 -1.1896  0.7512
 1012MOL0     H33552   6.534   0.308   1.814 -0.9473 -2.2017 -0.0890
 1012MOL0     H33553   6.684   0.236   1.763  0.6306  0.9726 -0.9987
 1012MOL0     H33554   6.554   0.095   1.646 -2.3241 -1.0112 -0.2094
 1012MOL0     H33555   6.544   0.224   1.521 -0.1981 -0.7596 -1.0645
 1012MOL0     H33556   6.334   0.224   1.739  0.1240 -0.5380  0.4140
 1012MOL0     H33557   6.342   0.287   1.584  0.6504 -0.9783  0.2979
 1012MOL0     H33558   6.315   0.061   1.476 -0.4087 -0.2938 -0.2019
 1012MOL0     H33559   6.185   0.117   1.567  0.1742  1.4582  2.4347
 1012MOL0     H33560   6.264   0.001   1.772  1.3218 -0.9341  0.9631
 1012MOL0     H33561   6.403  -0.055   1.700  0.0950  2.4427 -0.0966
 1012MOL0     H33562   6.145  -0.137   1.560 -0.1846 -2.0709 -0.6711
 1012MOL0     H33563   6.306  -0.199   1.541 -1.6311 -1.3981 -0.1114
 1012MOL0     H33564   6.120  -0.338   1.681  0.3431 -2.2836  1.0340
 1012MOL0     H33565   6.168  -0.230   1.810 -3.4037 -3.7355  0.2850
 1012MOL0     H33566   6.751   0.451   1.287 -0.1258  1.1675 -0.3403
 1012MOL0     H33567   6.781   0.655   1.172  1.1488  0.4766 -0.6733
 1012MOL0     H33568   6.514   1.096   1.055  0.0661  0.2811  0.4467
 1012MOL0     H33569   6.517   1.313   0.988 -1.4218  0.5961  0.6873
 1012MOL0     H33570   7.193   2.694   1.064 -0.1970 -0.9030  0.3061
 1012MOL0     H33571   7.405   2.754   0.977 -0.0813 -0.2215 -1.3952
 1012MOL0     H33572   7.884   2.414   0.820 -3.4051  0.5677  0.4704
 1012MOL0     H33573   8.102   2.475   0.715  0.5561  0.0352 -0.5485
 1012MOL0     H33574   8.238   2.714   0.722 -0.5955  3.4066  1.2631
 1012MOL0     H33575   8.209   2.857   0.633 -4.1956 -0.5777  1.0283
 1012MOL0     H33576   8.382   2.619   0.566  1.8217  0.1565 -0.8711
 1012MOL0     H33577   8.325   2.721   0.435  0.8326 -1.3024 -0.6212
 1012MOL0     H33578   8.416   2.907   0.562  0.4394  0.2884  1.8781
 1012MOL0     H33579   8.535   2.804   0.472 -0.7891  0.0218 -0.3214
 1012MOL0     H33580   8.486   2.797   0.772 -1.3725 -1.4474 -0.9156
 1012MOL0     H33581   8.575   2.679   0.676 -0.4612 -0.7138  2.2525
 1012MOL0     H33582   8.838   3.005   0.650  0.4500 -0.3109  1.7781
 1012MOL0     H33583   7.913   2.821   0.536 -0.5288 -1.7057 -1.4915
 1012MOL0     H33584   7.724   2.795   0.673  1.2722  1.2649  0.7299
 1013MOL0     O33585   9.907   9.440   7.947 -0.5232 -0.6681 -0.4337
 1013MOL0     C33586   9.864   9.421   8.062  0.4517  1.3995  0.9709
 1013MOL0     O33587   9.812   9.522   8.150  0.3980 -0.0978  0.7895
 1013MOL0     C33588   9.793   9.644   8.102  0.0074 -0.1631 -0.8918
 1013MOL0     C33589   9.660   9.682   8.081 -0.3567  0.5669 -0.1249
 1013MOL0     C33590   9.633   9.808   8.032 -0.8831 -0.1143  0.0724
 1013MOL0     C33591   9.728   9.896   7.998 -0.6185  0.5127 -0.3936
 1013MOL0     O33592   9.709  10.019   7.929  0.1178  0.0778  0.6618
 1013MOL0     C33593   9.578  10.065   7.889 -0.3752 -0.4075 -0.1819
 1013MOL0     C33594   9.588  10.208   7.826 -0.4280  0.5093  0.2451
 1013MOL0     C33595   9.641  10.207   7.680  0.5707  0.0457 -0.3677
 1013MOL0     C33596   9.648  10.356   7.632 -0.3770  0.2612  0.2342
 1013MOL0     C33597   9.694  10.360   7.485  0.0438  0.2057  0.5687
 1013MOL0     C33598   9.689  10.487   7.401  0.0185 -0.0555  0.5098
 1013MOL0     C33599   9.537  10.528   7.392  0.1135  0.4040 -0.2772
 1013MOL0     C33600   9.512  10.597   7.254  0.4443 -0.8863 -0.0514
 1013MOL0     N33601   9.370  10.625   7.217 -0.0790  0.2087 -0.5047
 1013MOL0     C33602   9.283  10.522   7.202 -0.7099 -0.5320  0.2714
 1013MOL0     C33603   9.161  10.572   7.201 -0.3367 -0.9013 -0.7128
 1013MOL0     C33604   9.029  10.486   7.206 -0.9234 -0.3906 -0.5183
 1013MOL0     C33605   8.902  10.542   7.138 -0.6838  1.3792  0.7005
 1013MOL0     C33606   8.801  10.419   7.102  0.3045 -0.1921  0.0350
 1013MOL0     C33607   8.679  10.469   7.030 -0.5499  0.3085 -0.1199
 1013MOL0     O33608   8.576  10.366   7.033  0.1840 -0.1658 -0.8250
 1013MOL0     C33609   8.582  10.247   6.962  0.4296 -0.6210 -0.4399
 1013MOL0     C33610   8.475  10.154   6.995 -0.6848 -1.2268  0.2010
 1013MOL0     C33611   8.479  10.030   6.941 -0.6303  0.9986  0.0797
 1013MOL0     C33612   8.575  10.003   6.844  1.2630  0.5501 -0.2496
 1013MOL0     C33613   8.599   9.857   6.807 -0.3963 -0.6954  0.4554
 1013MOL0     O33614   8.689   9.834   6.706  0.6885 -0.0366  0.1694
 1013MOL0     C33615   8.714   9.704   6.680  0.9564  0.2636  0.6001
 1013MOL0     C33616   8.764   9.609   6.769  0.4974 -0.1610 -0.5457
 1013MOL0     C33617   8.788   9.475   6.738  0.1133 -0.0297  0.2293
 1013MOL0     C33618   8.783   9.439   6.601 -0.1289 -0.8447 -0.3073
 1013MOL0     O33619   8.827   9.308   6.594  0.0356  0.2947 -1.1062
 1013MOL0     C33620   8.842   9.246   6.466  0.3362  0.7123 -0.3428
 1013MOL0     C33621   8.864   9.096   6.490 -0.7217  0.5080 -0.1029
 1013MOL0     C33622   9.000   9.057   6.564  0.1444  0.2917  0.3971
 1013MOL0     C33623   9.009   8.899   6.563  0.2849  0.6213 -0.8276
 1013MOL0     C33624   9.114   8.846   6.474 -0.8544 -0.1048 -0.9331
 1013MOL0     C33625   9.110   8.693   6.485 -0.7972  0.4345 -0.7338
 1013MOL0     C33626   9.200   8.608   6.398  0.5768 -1.2857 -0.4810
 1013MOL0     C33627   9.342   8.633   6.395 -0.1636 -1.1838  0.2096
 1013MOL0    Cl33628   9.432   8.545   6.296  0.4789  0.4192 -0.3619
 1013MOL0     C33629   8.752   9.532   6.499 -0.5051 -0.6660  1.0441
 1013MOL0     C33630   8.719   9.664   6.543 -0.2575  1.0270  0.9295
 1013MOL0     O33631   8.542   9.776   6.881 -0.4346  0.4243  0.8697
 1013MOL0     C33632   8.666  10.099   6.808 -0.0286 -0.9422  0.8798
 1013MOL0     C33633   8.680  10.219   6.874  0.8552  0.7494  0.3564
 1013MOL0     N33634   9.169  10.709   7.224 -0.2832  0.2967 -0.1274
 1013MOL0     N33635   9.295  10.733   7.223 -0.7360 -0.7027  0.1908
 1013MOL0     C33636   9.862   9.856   8.017  0.4911  0.3264 -0.1084
 1013MOL0     C33637   9.900   9.732   8.072 -0.6858 -0.7651 -0.3081
 1013MOL0     C33638   9.880   9.282   8.114 -0.0139 -0.2992 -1.5275
 1013MOL0     C33639   9.842   9.256   8.251  1.1202  0.1342  1.2938
 1013MOL0     C33640   9.878   9.131   8.307  0.3412  0.1042 -0.4526
 1013MOL0     C33641   9.948   9.039   8.231  0.6957  1.4208  0.2544
 1013MOL0     O33642   9.995   8.920   8.285 -1.1769 -0.4715 -0.3593
 1013MOL0     C33643   9.936   8.867   8.410 -0.7614  0.8692  0.6912
 1013MOL0     C33644  10.009   8.898   8.548  0.3275  0.4235 -0.1207
 1013MOL0     C33645  10.152   8.854   8.575 -0.3372  0.8367  0.4937
 1013MOL0     C33646  10.215   8.895   8.711 -0.3830  0.6580  0.3630
 1013MOL0     C33647  10.271   9.031   8.714  1.0389  0.6676 -0.3301
 1013MOL0     C33648  10.321   9.143   8.712 -0.7182 -0.1360  0.6822
 1013MOL0     C33649   9.992   9.072   8.107  0.1996 -0.0185  0.1463
 1013MOL0     C33650   9.955   9.191   8.040  0.5515 -0.5755 -0.5540
 1013MOL0     H33651   9.583   9.621   8.126  2.8278 -1.1692  3.4714
 1013MOL0     H33652   9.533   9.850   8.031 -0.1136  1.8138 -0.6142
 1013MOL0     H33653   9.513  10.072   7.976  1.4026  2.2648  1.0650
 1013MOL0     H33654   9.526  10.007   7.812 -0.8372  1.2216 -1.1609
 1013MOL0     H33655   9.642  10.279   7.889 -0.6680 -0.6156  1.7634
 1013MOL0     H33656   9.492  10.261   7.822  0.5806  2.3313 -1.3023
 1013MOL0     H33657   9.575  10.156   7.609 -1.7812  2.5107 -0.0958
 1013MOL0     H33658   9.740  10.162   7.684 -0.3299 -2.1036 -0.6627
 1013MOL0     H33659   9.548  10.400   7.632 -0.1642  0.7549  1.1146
 1013MOL0     H33660   9.711  10.422   7.692 -1.1853 -0.9598  2.5764
 1013MOL0     H33661   9.635  10.280   7.439  0.1982  0.5968 -0.3354
 1013MOL0     H33662   9.794  10.318   7.474 -1.1013 -2.8929  0.9304
 1013MOL0     H33663   9.729  10.472   7.300 -3.2898  4.1915 -1.7904
 1013MOL0     H33664   9.742  10.572   7.445 -0.5366  1.6144 -1.8484
 1013MOL0     H33665   9.480  10.435   7.385  1.9308 -0.6726 -1.5629
 1013MOL0     H33666   9.504  10.580   7.482 -0.5848 -0.1092 -0.2218
 1013MOL0     H33667   9.557  10.534   7.176 -0.0553  1.1116 -2.0361
 1013MOL0     H33668   9.570  10.690   7.256  2.8075 -2.2602 -0.7740
 1013MOL0     H33669   9.321  10.421   7.188  1.2402  0.4216 -2.1711
 1013MOL0     H33670   9.003  10.467   7.310  0.3747  0.6155  0.0180
 1013MOL0     H33671   9.058  10.391   7.160 -1.6748 -0.6098 -0.5542
 1013MOL0     H33672   8.926  10.588   7.042 -2.8405  0.1150 -0.5429
 1013MOL0     H33673   8.854  10.615   7.203 -1.8823 -0.1093  1.5618
 1013MOL0     H33674   8.853  10.351   7.033 -0.2116  1.9954 -2.7022
 1013MOL0     H33675   8.777  10.378   7.201  1.3280  3.8210  2.1642
 1013MOL0     H33676   8.708  10.500   6.929 -1.8107  6.8760  1.0195
 1013MOL0     H33677   8.649  10.561   7.082 -1.3330  0.3222 -0.5761
 1013MOL0     H33678   8.408  10.162   7.080 -2.8519 -0.9610 -1.4255
 1013MOL0     H33679   8.403   9.960   6.974  1.7216 -1.4878  0.5466
 1013MOL0     H33680   8.798   9.632   6.869 -2.4592 -3.3196  1.4290
 1013MOL0     H33681   8.830   9.417   6.820  2.2703  0.4744 -0.4489
 1013MOL0     H33682   8.924   9.284   6.404  0.6672 -0.5250 -0.6958
 1013MOL0     H33683   8.747   9.252   6.412 -0.3232 -3.3938  0.0432
 1013MOL0     H33684   8.844   9.031   6.405 -1.6380 -1.3752  1.4539
 1013MOL0     H33685   8.789   9.068   6.565 -1.0735  2.8082  0.4682
 1013MOL0     H33686   8.984   9.098   6.664 -1.5868  1.7010 -0.4025
 1013MOL0     H33687   9.080   9.115   6.516  1.3153 -1.0827  0.6112
 1013MOL0     H33688   9.017   8.856   6.663 -0.9998 -0.1587 -1.0462
 1013MOL0     H33689   8.918   8.846   6.534 -0.4394  1.0518  0.6079
 1013MOL0     H33690   9.214   8.885   6.495 -0.0165 -0.4791 -3.8490
 1013MOL0     H33691   9.094   8.861   6.367  1.8402 -1.6139 -1.7395
 1013MOL0     H33692   9.005   8.663   6.472 -0.6931  0.6623 -2.1932
 1013MOL0     H33693   9.134   8.664   6.588  1.4685  0.6940 -1.1335
 1013MOL0     H33694   9.184   8.502   6.423  1.3665 -1.5911 -1.2494
 1013MOL0     H33695   9.158   8.625   6.299  1.8304  0.7704 -0.7084
 1013MOL0     H33696   9.378   8.611   6.496  2.5061  1.4101 -0.0491
 1013MOL0     H33697   9.361   8.737   6.365  0.0561 -0.9107  1.2325
 1013MOL0     H33698   8.763   9.515   6.392  0.9723 -1.9134  1.3672
 1013MOL0     H33699   8.695   9.740   6.470  1.6290  2.1869  1.4426
 1013MOL0     H33700   8.730  10.087   6.721 -1.4618  1.4959 -0.6287
 1013MOL0     H33701   8.765  10.281   6.849  2.7187 -2.4003 -1.9729
 1013MOL0     H33702   9.933   9.935   7.995 -0.4441  0.7185 -1.9896
 1013MOL0     H33703  10.004   9.717   8.098 -0.9895 -0.0249  1.4300
 1013MOL0     H33704   9.788   9.334   8.303 -1.3400  1.2388 -2.5357
 1013MOL0     H33705   9.829   9.117   8.403  1.8923  2.7573  0.8362
 1013MOL0     H33706   9.932   8.760   8.392 -2.5818  1.2062 -1.2764
 1013MOL0     H33707   9.834   8.905   8.419 -1.0257  0.9116 -1.7731
 1013MOL0     H33708  10.005   9.007   8.557  1.3666  0.5835 -1.2542
 1013MOL0     H33709   9.946   8.850   8.624  0.5346  1.5057  0.7607
 1013MOL0     H33710  10.221   8.887   8.497 -2.4800  2.1274 -0.9760
 1013MOL0     H33711  10.158   8.744   8.577 -0.4823  0.8361  0.9552
 1013MOL0     H33712  10.136   8.874   8.784  0.4029  0.2678  1.1241
 1013MOL0     H33713  10.304   8.838   8.739  0.3563  2.0242  0.8986
 1013MOL0     H33714  10.362   9.241   8.711  2.4795 -1.3462  0.5513
 1013MOL0     H33715  10.045   8.995   8.051  1.1783  0.7694 -0.0392
 1013MOL0     H33716   9.986   9.214   7.939  1.7517 -1.5380 -0.4318
 1014MOL0     O33717   0.773   0.465  10.124 -0.0671 -0.4157 -0.0194
 1014MOL0     C33718   0.764   0.468  10.005 -0.3413 -1.0767 -0.0326
 1014MOL0     O33719   0.868   0.476   9.921 -0.0642  0.4765  0.7819
 1014MOL0     C33720   1.004   0.463   9.957  0.3011  0.2803 -0.2376
 1014MOL0     C33721   1.084   0.443   9.841 -0.2220  0.4511  0.2123
 1014MOL0     C33722   1.221   0.433   9.856 -0.0385  0.5434 -0.1205
 1014MOL0     C33723   1.278   0.431   9.982 -0.5387 -0.9649  0.0887
 1014MOL0     O33724   1.411   0.400   9.990 -0.3114 -0.3943 -0.0551
 1014MOL0     C33725   1.452   0.261   9.979 -0.6917  0.0155  0.4600
 1014MOL0     C33726   1.449   0.205  10.116 -0.2473  0.6999 -0.3292
 1014MOL0     C33727   1.552   0.266  10.212 -0.1802 -0.1252  1.1638
 1014MOL0     C33728   1.697   0.271  10.162  0.8708  0.2904 -1.1988
 1014MOL0     C33729   1.810   0.234  10.265 -0.2144  0.4637  0.1368
 1014MOL0     C33730   1.819   0.092  10.319  0.3051  0.2286  0.9609
 1014MOL0     C33731   1.939   0.076  10.412  0.0788 -0.1672 -0.6737
 1014MOL0     C33732   1.973  -0.068  10.448 -0.5627 -0.1513 -0.2078
 1014MOL0     N33733   2.019  -0.148  10.339 -0.8015  0.5143  0.4990
 1014MOL0     C33734   2.132  -0.142  10.265  0.1591  0.8000  0.1050
 1014MOL0     C33735   2.131  -0.257  10.184  0.3434 -0.3132  0.2330
 1014MOL0     C33736   2.232  -0.289  10.068 -0.5000 -0.7611  0.0419
 1014MOL0     C33737   2.207  -0.225   9.933 -0.3914 -0.0856  0.0356
 1014MOL0     C33738   2.298  -0.278   9.818  0.5762 -0.3610 -0.4638
 1014MOL0     C33739   2.287  -0.192   9.693 -0.5412  0.7910  0.3262
 1014MOL0     O33740   2.150  -0.211   9.645  1.0999  0.5294 -0.2909
 1014MOL0     C33741   2.108  -0.139   9.538 -0.6018  0.1283  0.2068
 1014MOL0     C33742   1.973  -0.137   9.516 -1.2854 -0.3499 -0.9484
 1014MOL0     C33743   1.915  -0.081   9.408 -0.0460 -0.2273  0.6484
 1014MOL0     C33744   1.997  -0.020   9.310  0.2206 -0.8401 -0.8963
 1014MOL0     C33745   1.936   0.065   9.205  0.0971 -0.0109  0.4030
 1014MOL0     O33746   1.803   0.104   9.214 -0.0452 -1.0667 -0.2011
 1014MOL0     C33747   1.748   0.197   9.134 -0.8825 -0.7638 -0.5307
 1014MOL0     C33748   1.613   0.183   9.126 -0.5202  0.0315 -0.0781
 1014MOL0     C33749   1.534   0.264   9.051 -0.7611 -0.3191 -0.0762
 1014MOL0     C33750   1.589   0.386   9.000  0.0009 -0.4872 -0.0133
 1014MOL0     O33751   1.526   0.469   8.916  0.2576 -0.1926 -0.2620
 1014MOL0     C33752   1.385   0.468   8.918 -0.4870  0.1864 -0.7285
 1014MOL0     C33753   1.338   0.538   9.042 -0.9793 -0.1720  0.2318
 1014MOL0     C33754   1.364   0.690   9.044  0.2176  0.7273  1.2279
 1014MOL0     C33755   1.493   0.758   9.007 -0.0127 -0.3478 -0.4274
 1014MOL0     C33756   1.591   0.750   9.122  0.4577  0.6672 -0.2006
 1014MOL0     C33757   1.731   0.798   9.088  1.1685  0.0390 -0.8265
 1014MOL0     C33758   1.804   0.836   9.223  0.3171  0.7048  0.3324
 1014MOL0     C33759   1.773   0.982   9.258 -0.3827 -0.4077 -0.0858
 1014MOL0    Cl33760   1.859   1.105   9.152  0.1883  0.0212 -0.7062
 1014MOL0     C33761   1.726   0.402   9.008  0.3596 -0.0425 -0.2885
 1014MOL0     C33762   1.803   0.314   9.074 -0.1608  0.8038 -0.8317
 1014MOL0     O33763   2.011   0.099   9.109 -0.4265  0.6781 -0.9818
 1014MOL0     C33764   2.140  -0.036   9.319  0.8920 -0.5401  0.1251
 1014MOL0     C33765   2.196  -0.095   9.433  0.4493 -0.5981 -0.7417
 1014MOL0     N33766   2.023  -0.337  10.217  0.6087  0.0133 -0.1724
 1014MOL0     N33767   1.966  -0.267  10.308 -0.2103 -0.2204  0.2708
 1014MOL0     C33768   1.204   0.449  10.091 -0.0606  0.2037 -0.6804
 1014MOL0     C33769   1.069   0.473  10.083 -0.1737 -1.5282 -0.2842
 1014MOL0     C33770   0.619   0.482   9.951 -0.4349 -0.3944  0.6903
 1014MOL0     C33771   0.515   0.457  10.043  0.0878 -0.6170 -0.9376
 1014MOL0     C33772   0.380   0.467   9.996 -0.2531  0.7464  0.4527
 1014MOL0     C33773   0.351   0.460   9.853 -0.3405  0.3141  0.1721
 1014MOL0     O33774   0.223   0.466   9.798  0.3042  1.4882  0.6415
 1014MOL0     C33775   0.101   0.407   9.858 -0.3199  0.1361  0.0424
 1014MOL0     C33776   0.006   0.358   9.750 -0.1449  0.6841  0.2390
 1014MOL0     C33777  -0.032   0.483   9.671 -0.0480 -0.2513  0.2174
 1014MOL0     C33778  -0.150   0.449   9.565  0.2708 -0.1297 -0.0650
 1014MOL0     C33779  -0.270   0.401   9.641 -1.1226 -0.0445  1.2830
 1014MOL0     C33780  -0.360   0.379   9.707  0.3204 -0.0698 -0.8598
 1014MOL0     C33781   0.459   0.490   9.767 -0.1600  0.7663  1.4027
 1014MOL0     C33782   0.586   0.501   9.815 -0.3397  0.6709  0.4845
 1014MOL0     H33783   1.047   0.430   9.740 -0.5073 -1.0404  0.4948
 1014MOL0     H33784   1.288   0.406   9.775 -1.5774  0.1841 -1.3334
 1014MOL0     H33785   1.554   0.260   9.939 -1.2049 -1.9085 -0.9030
 1014MOL0     H33786   1.379   0.221   9.908 -0.3939 -0.0745  0.2036
 1014MOL0     H33787   1.475   0.099  10.117 -3.4155 -0.1612 -0.1557
 1014MOL0     H33788   1.346   0.216  10.150 -0.3319  0.6867 -0.5788
 1014MOL0     H33789   1.559   0.205  10.303  1.8426 -0.6140  0.7383
 1014MOL0     H33790   1.530   0.368  10.244  0.1608  0.7866 -1.2681
 1014MOL0     H33791   1.700   0.210  10.071  3.4118  1.3000 -1.8621
 1014MOL0     H33792   1.718   0.372  10.126 -1.1484  0.1826 -2.8900
 1014MOL0     H33793   1.814   0.318  10.335  2.4744  2.8157 -2.5829
 1014MOL0     H33794   1.907   0.256  10.220  0.5098 -3.2551 -0.4752
 1014MOL0     H33795   1.828   0.025  10.233 -0.0343  0.5021  0.7097
 1014MOL0     H33796   1.726   0.083  10.376  0.0852  1.5414  0.8269
 1014MOL0     H33797   2.022   0.133  10.370 -0.4021  0.8579 -0.2685
 1014MOL0     H33798   1.923   0.134  10.504  3.8724 -2.1625  1.4891
 1014MOL0     H33799   1.903  -0.121  10.512  0.2460 -0.3936  0.4870
 1014MOL0     H33800   2.061  -0.051  10.510 -0.2920  1.5579 -0.9949
 1014MOL0     H33801   2.205  -0.063  10.251  0.7430  0.5872  1.6700
 1014MOL0     H33802   2.223  -0.397  10.054 -1.7685 -0.7374  0.5398
 1014MOL0     H33803   2.328  -0.258  10.108 -1.2774  1.3366  0.3844
 1014MOL0     H33804   2.220  -0.118   9.951 -1.3721 -0.3970  3.1163
 1014MOL0     H33805   2.101  -0.234   9.907 -0.2366 -1.1413 -0.2760
 1014MOL0     H33806   2.400  -0.278   9.859 -0.5808  1.3506  2.7840
 1014MOL0     H33807   2.273  -0.383   9.801 -1.1069 -0.5479  2.4503
 1014MOL0     H33808   2.365  -0.228   9.625  1.3304  2.2102  1.5923
 1014MOL0     H33809   2.321  -0.092   9.722  1.0964  0.4226 -0.1818
 1014MOL0     H33810   1.920  -0.190   9.595 -2.0823 -1.7729 -2.3981
 1014MOL0     H33811   1.807  -0.075   9.400  0.0590  0.7925 -0.2595
 1014MOL0     H33812   1.567   0.091   9.161 -0.3452 -1.0762 -2.5457
 1014MOL0     H33813   1.432   0.229   9.049 -0.5297 -1.4083  2.7659
 1014MOL0     H33814   1.350   0.365   8.906 -0.2747  0.1185 -0.7778
 1014MOL0     H33815   1.355   0.528   8.832 -1.3524  1.8185  0.6460
 1014MOL0     H33816   1.390   0.493   9.127  0.3873  0.8655 -0.0153
 1014MOL0     H33817   1.232   0.513   9.057 -0.3559 -2.2377  1.6103
 1014MOL0     H33818   1.326   0.741   9.133 -0.6926 -0.0771  1.3175
 1014MOL0     H33819   1.296   0.720   8.964 -0.6784 -3.6443  0.1191
 1014MOL0     H33820   1.539   0.723   8.914  2.0621 -1.5298  0.9777
 1014MOL0     H33821   1.459   0.862   9.002  2.5519  0.6581  1.3807
 1014MOL0     H33822   1.617   0.647   9.150 -0.0242  0.9391  1.3148
 1014MOL0     H33823   1.545   0.803   9.205  0.0464 -0.3302  0.2296
 1014MOL0     H33824   1.730   0.897   9.040 -1.1930  2.2127  3.1373
 1014MOL0     H33825   1.785   0.728   9.025 -2.7326 -3.7373 -0.4166
 1014MOL0     H33826   1.781   0.768   9.306 -1.0881  1.8013  0.8944
 1014MOL0     H33827   1.911   0.830   9.201  0.6754  1.6645  1.6453
 1014MOL0     H33828   1.805   1.003   9.361  1.1944 -2.2755 -0.1300
 1014MOL0     H33829   1.665   0.997   9.257 -0.8592 -2.8319  2.4262
 1014MOL0     H33830   1.772   0.491   8.965 -0.7545 -0.4361 -2.4406
 1014MOL0     H33831   1.907   0.342   9.092 -0.2615  0.4945  0.2935
 1014MOL0     H33832   2.199  -0.015   9.231  1.2775 -3.2055 -0.3457
 1014MOL0     H33833   2.301  -0.114   9.415  0.6677  0.0834 -0.2465
 1014MOL0     H33834   1.265   0.457  10.180 -3.1353 -0.8496  1.6964
 1014MOL0     H33835   1.011   0.475  10.175  0.9414 -1.4691  0.4389
 1014MOL0     H33836   0.555   0.416  10.135  3.0034  0.5437 -1.5756
 1014MOL0     H33837   0.308   0.437  10.071 -1.8346  0.8421 -0.9772
 1014MOL0     H33838   0.058   0.471   9.936  1.2446  0.2782  0.8166
 1014MOL0     H33839   0.131   0.317   9.913  0.2527 -0.8839 -1.8636
 1014MOL0     H33840   0.042   0.282   9.681 -0.4130  2.5263 -2.0813
 1014MOL0     H33841  -0.086   0.320   9.795 -0.3137 -1.9604 -2.0495
 1014MOL0     H33842   0.050   0.502   9.600 -1.1992 -0.3411 -1.1925
 1014MOL0     H33843  -0.053   0.574   9.728 -0.6800 -0.3646  0.1732
 1014MOL0     H33844  -0.178   0.543   9.517  2.0028  0.5985  0.2868
 1014MOL0     H33845  -0.119   0.382   9.484 -1.0925  0.3026 -0.9808
 1014MOL0     H33846  -0.457   0.362   9.749  0.8079 -0.9147 -0.0366
 1014MOL0     H33847   0.436   0.518   9.665  2.6431  0.3177  0.5696
 1014MOL0     H33848   0.660   0.527   9.740  0.6815 -1.6081  0.6145
 1015MOL0     O33849   7.728   3.634   3.081  0.1597  0.2593 -0.0824
 1015MOL0     C33850   7.808   3.724   3.086 -0.1200 -0.9727 -1.8132
 1015MOL0     O33851   7.799   3.830   3.175 -0.2255  0.3106 -0.1549
 1015MOL0     C33852   7.680   3.881   3.236 -0.1770  0.4989  0.3608
 1015MOL0     C33853   7.692   3.976   3.333 -0.0114  0.6171  0.1751
 1015MOL0     C33854   7.580   4.026   3.409 -0.5119 -0.9253  0.3725
 1015MOL0     C33855   7.448   4.000   3.365  0.0536  0.6386  0.9286
 1015MOL0     O33856   7.338   4.040   3.441  0.3568  0.3540  0.3934
 1015MOL0     C33857   7.241   3.938   3.471  0.1448 -0.5058 -0.6349
 1015MOL0     C33858   7.208   3.936   3.624  0.3769 -0.2171  0.8451
 1015MOL0     C33859   7.159   3.805   3.686  0.4333 -0.5260 -1.4151
 1015MOL0     C33860   7.023   3.755   3.647  0.1215  0.7391 -0.4184
 1015MOL0     C33861   7.004   3.613   3.700 -0.7988  0.2601  0.3441
 1015MOL0     C33862   6.978   3.583   3.850 -0.4753 -0.4422  0.6982
 1015MOL0     C33863   6.883   3.691   3.911  0.6804  0.6499  0.5897
 1015MOL0     C33864   6.853   3.647   4.060 -0.6376 -0.2646  0.6703
 1015MOL0     N33865   6.775   3.752   4.120  0.2454  0.0138  0.5980
 1015MOL0     C33866   6.650   3.801   4.085 -0.2226 -0.1425 -0.1877
 1015MOL0     C33867   6.608   3.874   4.199  0.4445  0.0337  0.1517
 1015MOL0     C33868   6.473   3.935   4.201 -1.1492  0.1930  1.0886
 1015MOL0     C33869   6.389   3.888   4.322 -0.6193  0.0546  0.1488
 1015MOL0     C33870   6.359   3.735   4.310  0.2166  0.2368 -0.0016
 1015MOL0     C33871   6.473   3.639   4.358 -1.0225 -0.4194  0.1655
 1015MOL0     O33872   6.429   3.499   4.367 -0.4775  0.0795 -0.7014
 1015MOL0     C33873   6.524   3.405   4.406 -0.0852 -0.4976  0.7558
 1015MOL0     C33874   6.489   3.276   4.431  0.3769  0.0735  0.2046
 1015MOL0     C33875   6.583   3.181   4.470  0.2953  0.2086  0.2883
 1015MOL0     C33876   6.724   3.203   4.480  1.1610 -0.0227 -0.3347
 1015MOL0     C33877   6.815   3.095   4.549 -1.1128 -0.6227 -0.5941
 1015MOL0     O33878   6.949   3.115   4.542 -1.2223  0.1376  0.0085
 1015MOL0     C33879   7.045   3.031   4.602 -0.4711 -0.3542  0.1113
 1015MOL0     C33880   7.167   3.094   4.631 -0.0812  0.0641 -0.1790
 1015MOL0     C33881   7.270   3.012   4.679 -0.3837 -0.1253  0.8121
 1015MOL0     C33882   7.251   2.874   4.700 -0.1345 -0.3894 -0.3649
 1015MOL0     O33883   7.366   2.804   4.732 -0.4556  0.2180  0.4865
 1015MOL0     C33884   7.453   2.739   4.635  0.1578 -0.3760 -0.2562
 1015MOL0     C33885   7.578   2.816   4.585 -0.8375  0.3362  0.3013
 1015MOL0     C33886   7.703   2.732   4.563  0.6664 -0.0120  0.8172
 1015MOL0     C33887   7.834   2.802   4.540  0.3329 -0.2338  0.4626
 1015MOL0     C33888   7.960   2.710   4.575  0.3487  0.6709 -0.3647
 1015MOL0     C33889   8.091   2.788   4.582  0.1690  0.1999  0.1282
 1015MOL0     C33890   8.193   2.715   4.674 -0.7071 -0.0575 -0.3862
 1015MOL0     C33891   8.240   2.578   4.618  0.2619 -0.0233  0.5826
 1015MOL0    Cl33892   8.365   2.618   4.496  0.3641  0.5175 -0.3650
 1015MOL0     C33893   7.132   2.816   4.664  0.0803  0.4487  0.1313
 1015MOL0     C33894   7.021   2.894   4.614  0.1252  0.2937 -1.1156
 1015MOL0     O33895   6.754   3.000   4.608  0.3458 -1.3650  0.3037
 1015MOL0     C33896   6.763   3.333   4.444  1.1218 -0.3448 -1.5512
 1015MOL0     C33897   6.667   3.434   4.414 -0.3444 -0.0726 -0.1441
 1015MOL0     N33898   6.714   3.891   4.282  0.5391 -0.4863 -0.9890
 1015MOL0     N33899   6.810   3.830   4.234  0.2156  0.3400  0.5132
 1015MOL0     C33900   7.443   3.908   3.261  0.6112  0.9524  0.1401
 1015MOL0     C33901   7.549   3.843   3.185  0.2468  0.0803  0.2399
 1015MOL0     C33902   7.919   3.721   2.985  0.1574  1.0629  0.1036
 1015MOL0     C33903   7.963   3.597   2.926  0.2148 -0.0901 -0.2835
 1015MOL0     C33904   8.085   3.579   2.855  0.4506  0.4133 -0.4565
 1015MOL0     C33905   8.169   3.690   2.839 -0.3150  0.2113 -0.0146
 1015MOL0     O33906   8.285   3.695   2.774  0.3888  1.6939  0.1815
 1015MOL0     C33907   8.342   3.565   2.735 -0.5400 -0.4074 -0.5945
 1015MOL0     C33908   8.286   3.537   2.594 -0.0115  0.2235 -0.0809
 1015MOL0     C33909   8.328   3.627   2.485 -0.3770  0.3767  0.7681
 1015MOL0     C33910   8.437   3.584   2.382 -0.2597 -0.3198  0.5276
 1015MOL0     C33911   8.414   3.450   2.336  0.2070  0.6515  0.5319
 1015MOL0     C33912   8.376   3.330   2.324  0.5468 -0.0035 -0.9940
 1015MOL0     C33913   8.127   3.812   2.904  0.4533 -0.6614 -0.0317
 1015MOL0     C33914   7.998   3.832   2.961 -0.5642 -0.9098 -0.1187
 1015MOL0     H33915   7.791   4.003   3.368 -0.2710  1.4967  0.2461
 1015MOL0     H33916   7.607   4.093   3.489  3.1371  0.0178 -1.4418
 1015MOL0     H33917   7.283   3.839   3.453  0.0035 -1.3599  2.9890
 1015MOL0     H33918   7.144   3.943   3.421  0.9268 -1.1882 -2.2760
 1015MOL0     H33919   7.129   4.010   3.640 -0.2248 -0.3349 -1.2735
 1015MOL0     H33920   7.308   3.951   3.666  1.2594  1.0932 -1.5108
 1015MOL0     H33921   7.144   3.822   3.793 -1.4291 -1.5948 -1.4588
 1015MOL0     H33922   7.233   3.727   3.667  0.4213 -1.1222  0.6618
 1015MOL0     H33923   6.941   3.815   3.686 -2.0528 -0.9012 -2.1691
 1015MOL0     H33924   7.005   3.778   3.541 -1.0158  2.0205  0.0254
 1015MOL0     H33925   7.082   3.544   3.666 -3.0249 -0.7517 -3.2166
 1015MOL0     H33926   6.917   3.583   3.641 -0.7488  2.8668 -1.2462
 1015MOL0     H33927   7.071   3.603   3.903 -2.0102  0.2111  3.2967
 1015MOL0     H33928   6.947   3.479   3.864 -0.0316 -0.3735  2.3462
 1015MOL0     H33929   6.921   3.793   3.919 -2.1442  1.7422  1.3179
 1015MOL0     H33930   6.793   3.701   3.849 -0.4281  0.4837  2.1039
 1015MOL0     H33931   6.947   3.633   4.113 -0.4115 -0.0179  0.3360
 1015MOL0     H33932   6.801   3.551   4.061  1.8790 -1.7334 -0.4766
 1015MOL0     H33933   6.584   3.774   4.004 -1.4219 -0.8146  0.9846
 1015MOL0     H33934   6.415   3.920   4.110  1.4625  1.1753 -0.8730
 1015MOL0     H33935   6.495   4.039   4.227  0.3269 -0.4252  2.5393
 1015MOL0     H33936   6.298   3.949   4.325  0.0987  1.4630 -3.3038
 1015MOL0     H33937   6.441   3.903   4.417 -0.3177  1.1187 -0.1742
 1015MOL0     H33938   6.273   3.727   4.378 -0.7727 -2.1000 -1.4095
 1015MOL0     H33939   6.323   3.710   4.209 -3.3455  0.2511  1.1097
 1015MOL0     H33940   6.533   3.665   4.446  4.1693  0.1339 -3.0971
 1015MOL0     H33941   6.539   3.637   4.271  0.1062 -1.9899  1.0134
 1015MOL0     H33942   6.386   3.245   4.417  0.4128  0.7474 -1.9193
 1015MOL0     H33943   6.541   3.084   4.495  0.8611  0.1257  0.9446
 1015MOL0     H33944   7.179   3.201   4.612 -2.9358  0.3301 -1.0315
 1015MOL0     H33945   7.366   3.057   4.705  0.4231  1.0373 -3.3643
 1015MOL0     H33946   7.392   2.700   4.553  1.1140 -1.3553 -0.5227
 1015MOL0     H33947   7.497   2.647   4.674  0.0629  0.2357  1.3529
 1015MOL0     H33948   7.607   2.886   4.663 -2.4386  0.2083  1.0415
 1015MOL0     H33949   7.549   2.879   4.500  1.1229  1.0710  0.1107
 1015MOL0     H33950   7.674   2.674   4.475 -0.7257  1.0791  0.5319
 1015MOL0     H33951   7.720   2.673   4.654 -1.7810 -2.0787  0.0577
 1015MOL0     H33952   7.839   2.832   4.435 -4.2067  1.2154  0.4488
 1015MOL0     H33953   7.849   2.891   4.602  2.6401 -0.8803  0.9196
 1015MOL0     H33954   7.968   2.629   4.502  0.3621 -0.1341  0.5046
 1015MOL0     H33955   7.942   2.671   4.676  0.9963  2.8837  0.6622
 1015MOL0     H33956   8.062   2.889   4.611 -0.6791 -0.5244  1.9848
 1015MOL0     H33957   8.144   2.787   4.486  0.5649 -4.7642  0.1148
 1015MOL0     H33958   8.286   2.773   4.665  0.4659 -2.0168 -1.8865
 1015MOL0     H33959   8.148   2.707   4.774  1.4402 -0.5483  0.6018
 1015MOL0     H33960   8.155   2.521   4.580  1.3311 -1.5229  0.3487
 1015MOL0     H33961   8.274   2.516   4.702  0.6385 -1.5642 -0.6539
 1015MOL0     H33962   7.117   2.711   4.685 -0.8334 -0.5211 -4.3790
 1015MOL0     H33963   6.928   2.843   4.592  1.1119 -1.7412 -0.8041
 1015MOL0     H33964   6.868   3.361   4.454  1.3104 -1.4686 -0.0656
 1015MOL0     H33965   6.697   3.535   4.387 -2.5761  0.5997 -0.3039
 1015MOL0     H33966   7.341   3.881   3.237  0.4144 -1.6229  3.1262
 1015MOL0     H33967   7.520   3.756   3.126  1.4265  0.1072 -0.3949
 1015MOL0     H33968   7.909   3.508   2.958 -1.4018  0.5036 -1.2093
 1015MOL0     H33969   8.107   3.475   2.834  1.7814 -0.1654  3.1344
 1015MOL0     H33970   8.312   3.488   2.807 -1.7178  0.5752  0.0115
 1015MOL0     H33971   8.451   3.570   2.731 -0.4607  1.3665  1.6846
 1015MOL0     H33972   8.314   3.436   2.563  1.9918  0.3058  1.3010
 1015MOL0     H33973   8.177   3.543   2.604 -0.3631  0.8530 -3.1512
 1015MOL0     H33974   8.368   3.720   2.527  2.6622 -0.1843 -0.6234
 1015MOL0     H33975   8.247   3.664   2.422 -0.4596 -1.3596 -0.1935
 1015MOL0     H33976   8.448   3.655   2.300  1.1636 -1.1721 -0.0625
 1015MOL0     H33977   8.532   3.556   2.428  0.8032 -0.8154 -1.8035
 1015MOL0     H33978   8.336   3.231   2.313 -1.3946  0.7012 -0.6667
 1015MOL0     H33979   8.189   3.901   2.895 -2.5686  1.5339 -0.8881
 1015MOL0     H33980   7.974   3.931   2.999  0.1982 -0.1161 -1.6183
 1016MOL0     O33981   4.253   8.102   4.086 -0.8371 -0.7538 -0.0589
 1016MOL0     C33982   4.214   8.044   3.987 -0.5630  0.2239  0.7171
 1016MOL0     O33983   4.105   8.074   3.903 -0.6166 -0.1931 -0.5132
 1016MOL0     C33984   4.020   8.176   3.940  0.3431  0.0366  0.2777
 1016MOL0     C33985   3.938   8.226   3.845  0.4195 -0.3823  0.4394
 1016MOL0     C33986   3.849   8.329   3.872 -0.1849 -0.6202  0.0667
 1016MOL0     C33987   3.831   8.384   3.994  0.5027 -0.7510 -0.5199
 1016MOL0     O33988   3.748   8.486   4.012  0.2927  0.3191 -0.1347
 1016MOL0     C33989   3.792   8.601   3.940 -0.3508 -0.7984  0.2387
 1016MOL0     C33990   3.725   8.729   4.001  0.2003 -0.1954  0.1505
 1016MOL0     C33991   3.574   8.699   4.022  0.2757  0.9975 -0.3003
 1016MOL0     C33992   3.486   8.817   4.038  0.6724  0.2294 -0.0889
 1016MOL0     C33993   3.484   8.905   3.910  0.6476  0.5105  0.0284
 1016MOL0     C33994   3.402   9.033   3.937  0.1515  0.2165  1.6154
 1016MOL0     C33995   3.380   9.129   3.818 -0.4843 -0.5924  0.5342
 1016MOL0     C33996   3.322   9.260   3.872 -0.0176 -0.5023  0.3164
 1016MOL0     N33997   3.177   9.245   3.877 -0.6350  0.1928 -0.4054
 1016MOL0     C33998   3.100   9.224   3.987  0.4764  0.6445  0.3411
 1016MOL0     C33999   2.979   9.189   3.939  0.1021 -0.1296 -0.2752
 1016MOL0     C34000   2.864   9.148   4.024 -0.4980 -0.9427 -0.2340
 1016MOL0     C34001   2.727   9.217   3.976  0.8028 -0.3972  0.0765
 1016MOL0     C34002   2.612   9.142   4.052  0.0194 -0.1883 -0.6265
 1016MOL0     C34003   2.583   8.996   4.000  0.3395  0.6813  0.7305
 1016MOL0     O34004   2.495   8.924   4.091  0.4424 -0.3350 -0.4680
 1016MOL0     C34005   2.543   8.847   4.196  0.1634 -0.9277 -0.1548
 1016MOL0     C34006   2.470   8.745   4.253 -0.1433 -0.4388 -0.5726
 1016MOL0     C34007   2.529   8.658   4.352  0.3115 -1.2488  0.4336
 1016MOL0     C34008   2.651   8.680   4.407 -0.6241 -0.3066  0.8602
 1016MOL0     C34009   2.701   8.605   4.523  0.0726 -0.6181 -0.4883
 1016MOL0     O34010   2.685   8.470   4.521  0.5090 -0.1411 -0.1211
 1016MOL0     C34011   2.700   8.399   4.638 -0.3716  0.0897 -0.7596
 1016MOL0     C34012   2.792   8.293   4.654 -0.0734 -0.0980 -0.1393
 1016MOL0     C34013   2.807   8.212   4.763  0.6888  0.9012  0.0077
 1016MOL0     C34014   2.703   8.218   4.863 -0.9187 -0.1030 -0.7026
 1016MOL0     O34015   2.703   8.121   4.966  0.4377 -0.1444 -0.3945
 1016MOL0     C34016   2.585   8.092   5.042 -0.3316  0.3063 -0.1005
 1016MOL0     C34017   2.614   7.940   5.076 -0.0876  0.2604  0.5458
 1016MOL0     C34018   2.489   7.870   5.129 -0.1644  0.3166 -0.3714
 1016MOL0     C34019   2.524   7.723   5.160 -0.5760  0.0375 -0.8574
 1016MOL0     C34020   2.395   7.641   5.182 -0.6323 -0.4534  0.1260
 1016MOL0     C34021   2.354   7.630   5.321 -0.0301  0.1281  0.2769
 1016MOL0     C34022   2.207   7.574   5.330 -0.5124 -1.1487  0.1536
 1016MOL0     C34023   2.157   7.577   5.469 -0.1611 -0.2122  0.1206
 1016MOL0    Cl34024   2.124   7.758   5.504 -0.0196  0.0465  0.3602
 1016MOL0     C34025   2.612   8.330   4.853 -0.8066  0.7569 -0.7771
 1016MOL0     C34026   2.619   8.425   4.748  0.3028 -0.2153  0.0138
 1016MOL0     O34027   2.773   8.666   4.601  1.0273  0.2802  0.4329
 1016MOL0     C34028   2.725   8.798   4.359 -0.9997  0.7456  0.8281
 1016MOL0     C34029   2.680   8.867   4.244 -0.5127 -0.1901 -0.5561
 1016MOL0     N34030   2.983   9.183   3.802  0.4784 -0.4658 -0.2871
 1016MOL0     N34031   3.095   9.239   3.767 -0.6855  0.2207 -0.2172
 1016MOL0     C34032   3.908   8.340   4.096 -0.1981  0.1620 -0.5544
 1016MOL0     C34033   4.005   8.237   4.071  0.5462 -0.1644 -0.6496
 1016MOL0     C34034   4.289   7.925   3.936  0.5614 -0.5717  0.1327
 1016MOL0     C34035   4.213   7.816   3.877 -0.2639  0.1322 -0.6392
 1016MOL0     C34036   4.292   7.704   3.850  0.3004  0.1537  0.8364
 1016MOL0     C34037   4.431   7.694   3.865  0.2797 -0.6847  0.5844
 1016MOL0     O34038   4.504   7.591   3.823 -0.1573 -0.2719  0.1484
 1016MOL0     C34039   4.484   7.487   3.912 -0.1440  0.7017  0.3577
 1016MOL0     C34040   4.595   7.386   3.872 -0.2676  0.6826 -0.4718
 1016MOL0     C34041   4.614   7.271   3.975 -0.3805  0.2989 -0.0642
 1016MOL0     C34042   4.641   7.309   4.124  1.0833 -0.5123 -0.1516
 1016MOL0     C34043   4.770   7.364   4.156 -1.0698 -0.1807  0.1106
 1016MOL0     C34044   4.884   7.400   4.171  0.7529 -0.4783  0.3638
 1016MOL0     C34045   4.495   7.806   3.926  0.0451  0.5873  0.2973
 1016MOL0     C34046   4.427   7.922   3.958 -0.1214  0.0599  0.2220
 1016MOL0     H34047   3.943   8.173   3.750 -0.3720 -1.5124  1.0081
 1016MOL0     H34048   3.787   8.364   3.789  0.0357  0.8710  0.4945
 1016MOL0     H34049   3.749   8.599   3.840 -1.0962 -2.0115  0.5719
 1016MOL0     H34050   3.901   8.615   3.936 -0.3195 -0.6387  1.3470
 1016MOL0     H34051   3.737   8.810   3.928 -0.2154 -0.5158 -0.2799
 1016MOL0     H34052   3.779   8.756   4.091  0.2586 -0.3348  0.1578
 1016MOL0     H34053   3.565   8.632   4.108 -0.5277 -0.1592 -1.2540
 1016MOL0     H34054   3.541   8.643   3.935  0.7672 -2.2065  1.4408
 1016MOL0     H34055   3.388   8.784   4.071  0.4187 -0.0420 -1.0847
 1016MOL0     H34056   3.524   8.882   4.118  1.3225  1.0065 -1.0034
 1016MOL0     H34057   3.448   8.842   3.828  4.6299 -0.5891 -1.0686
 1016MOL0     H34058   3.583   8.941   3.880  0.8444 -0.1052 -0.0606
 1016MOL0     H34059   3.446   9.101   4.010 -3.2607  3.3794  1.0019
 1016MOL0     H34060   3.308   9.003   3.985  0.5198 -1.8769  1.1338
 1016MOL0     H34061   3.479   9.145   3.773 -2.0377 -2.6654 -4.3081
 1016MOL0     H34062   3.331   9.084   3.731  0.3086 -1.3490  0.4674
 1016MOL0     H34063   3.345   9.342   3.803  2.9840  1.4903  3.3454
 1016MOL0     H34064   3.372   9.285   3.966  0.2682  3.2425 -0.6690
 1016MOL0     H34065   3.140   9.230   4.088  0.9615  2.1758  0.0753
 1016MOL0     H34066   2.875   9.180   4.128 -0.1355 -1.0306 -0.2471
 1016MOL0     H34067   2.865   9.039   4.021 -3.2086 -1.0327 -2.3997
 1016MOL0     H34068   2.718   9.208   3.867  0.8967  1.0042 -0.0560
 1016MOL0     H34069   2.728   9.325   3.990 -0.3234 -0.1233 -1.6616
 1016MOL0     H34070   2.629   9.146   4.160 -0.1671  1.0700 -0.6311
 1016MOL0     H34071   2.521   9.203   4.046  1.5405  2.1566 -1.0502
 1016MOL0     H34072   2.673   8.943   3.967 -0.3435  0.4940 -0.9070
 1016MOL0     H34073   2.531   8.998   3.904  1.2446  0.8117  0.2326
 1016MOL0     H34074   2.364   8.746   4.226 -0.1034 -0.2345 -0.7239
 1016MOL0     H34075   2.464   8.592   4.408 -3.1090 -0.0643 -1.8328
 1016MOL0     H34076   2.854   8.276   4.567  2.2432 -0.9935  1.5574
 1016MOL0     H34077   2.877   8.129   4.766  0.5702  0.7961 -0.1104
 1016MOL0     H34078   2.499   8.098   4.974 -0.4447  1.3692  0.1270
 1016MOL0     H34079   2.567   8.144   5.136 -1.0570 -2.9138  1.7018
 1016MOL0     H34080   2.709   7.935   5.130 -1.0706  2.0682  2.6007
 1016MOL0     H34081   2.625   7.886   4.981 -1.0340  2.1311 -0.6925
 1016MOL0     H34082   2.410   7.880   5.053 -0.6699 -0.4172  0.0457
 1016MOL0     H34083   2.453   7.923   5.218  0.6362  2.0736 -1.0434
 1016MOL0     H34084   2.580   7.680   5.076  1.1866  0.1709  0.2108
 1016MOL0     H34085   2.581   7.716   5.253 -1.4312  2.4840 -0.0633
 1016MOL0     H34086   2.414   7.536   5.160 -2.8389 -0.7091 -0.8228
 1016MOL0     H34087   2.319   7.664   5.107 -2.5859 -4.7309  0.4909
 1016MOL0     H34088   2.359   7.730   5.365  1.1888 -0.7315  2.2655
 1016MOL0     H34089   2.421   7.562   5.376 -2.5932 -2.1153  0.8693
 1016MOL0     H34090   2.138   7.640   5.277  0.6090 -0.9240 -1.0870
 1016MOL0     H34091   2.205   7.469   5.300 -0.5536 -0.6996 -1.5157
 1016MOL0     H34092   2.229   7.529   5.536 -0.4378 -0.7882  0.0021
 1016MOL0     H34093   2.059   7.530   5.467 -1.9066  3.1579  0.0197
 1016MOL0     H34094   2.538   8.352   4.929 -2.8050  2.0148 -2.9151
 1016MOL0     H34095   2.556   8.512   4.757  2.2460  1.0840  2.6688
 1016MOL0     H34096   2.824   8.826   4.392 -0.4403 -0.3434  0.1109
 1016MOL0     H34097   2.753   8.926   4.188 -0.6731 -1.4841 -2.2238
 1016MOL0     H34098   3.901   8.390   4.192  2.8511 -2.9917  1.5485
 1016MOL0     H34099   4.043   8.207   4.169 -1.3199  1.6564  0.7322
 1016MOL0     H34100   4.104   7.819   3.871 -0.3214  2.4672  0.3967
 1016MOL0     H34101   4.241   7.616   3.813  3.6434 -1.5026 -0.2521
 1016MOL0     H34102   4.387   7.439   3.895 -1.9483  3.4115  2.1480
 1016MOL0     H34103   4.500   7.519   4.015 -0.6324 -2.1992  1.4262
 1016MOL0     H34104   4.566   7.339   3.778  0.2942 -2.7916  0.9430
 1016MOL0     H34105   4.686   7.442   3.850 -0.2333  0.8039 -0.0144
 1016MOL0     H34106   4.692   7.203   3.940 -0.8264 -1.4080  2.0472
 1016MOL0     H34107   4.526   7.207   3.967  0.2850 -0.5032 -1.2726
 1016MOL0     H34108   4.566   7.377   4.164  1.6929  1.4705 -2.2328
 1016MOL0     H34109   4.634   7.220   4.189 -0.5439 -0.1336  0.2313
 1016MOL0     H34110   4.980   7.444   4.190  0.6988 -0.1062 -0.2000
 1016MOL0     H34111   4.602   7.792   3.939  0.5463  4.1235  0.8499
 1016MOL0     H34112   4.486   7.992   4.016  4.2502  0.0703 -3.6063
 1017MOL0     O34113   4.459   6.297   7.890 -0.3013 -0.4078  0.1775
 1017MOL0     C34114   4.420   6.198   7.826 -0.8650  0.2323 -0.0015
 1017MOL0     O34115   4.371   6.088   7.884 -0.2282  0.9085  0.9880
 1017MOL0     C34116   4.269   6.093   7.982 -0.0803  0.7518  0.8712
 1017MOL0     C34117   4.186   6.211   8.003 -0.5564 -0.8249 -0.5043
 1017MOL0     C34118   4.091   6.210   8.104 -0.2466 -0.2259  0.1052
 1017MOL0     C34119   4.067   6.086   8.174 -0.2540 -0.0338 -0.0316
 1017MOL0     O34120   3.971   6.089   8.267  0.1075 -0.1304 -0.1317
 1017MOL0     C34121   3.860   6.005   8.227  0.0479  0.8455 -0.2320
 1017MOL0     C34122   3.744   6.002   8.324  0.7918  0.1435  0.6642
 1017MOL0     C34123   3.785   5.990   8.466 -0.6531 -0.5726  0.7973
 1017MOL0     C34124   3.675   5.996   8.570  0.3729 -0.1165  0.7234
 1017MOL0     C34125   3.729   5.940   8.706 -0.3287 -0.2157  0.2842
 1017MOL0     C34126   3.849   6.008   8.764  0.6619  1.0055  0.7071
 1017MOL0     C34127   3.814   6.154   8.777 -0.1160 -0.0195  0.1130
 1017MOL0     C34128   3.934   6.227   8.837  0.8947 -1.1527  0.4321
 1017MOL0     N34129   3.900   6.372   8.852  0.2243 -0.4979  0.0405
 1017MOL0     C34130   3.897   6.463   8.749  0.2391  0.1984  0.6567
 1017MOL0     C34131   3.893   6.581   8.808 -0.0590  0.0157 -0.2423
 1017MOL0     C34132   3.919   6.720   8.754  0.4001  0.6524 -0.0217
 1017MOL0     C34133   3.796   6.780   8.675 -0.0221 -0.2989  0.9531
 1017MOL0     C34134   3.841   6.910   8.611 -0.0692 -0.0739 -0.0926
 1017MOL0     C34135   3.917   6.892   8.477  0.2336 -0.6531 -0.0881
 1017MOL0     O34136   3.971   7.014   8.432 -0.2828 -0.2461  0.0293
 1017MOL0     C34137   3.935   7.058   8.309 -0.1394  0.0654  0.7165
 1017MOL0     C34138   4.018   7.164   8.263  0.5139 -0.2978 -0.9825
 1017MOL0     C34139   4.013   7.215   8.137  1.3331 -0.0159  0.2180
 1017MOL0     C34140   3.921   7.158   8.042  0.0630  0.5034  0.3152
 1017MOL0     C34141   3.918   7.197   7.903 -0.8254  0.0914  0.3116
 1017MOL0     O34142   3.858   7.113   7.812  0.1951  0.6162 -0.3777
 1017MOL0     C34143   3.810   7.157   7.691 -0.6132 -0.8823  0.0500
 1017MOL0     C34144   3.890   7.145   7.581 -0.9181  0.9187  1.9290
 1017MOL0     C34145   3.841   7.198   7.465  1.6466  0.0582  0.9481
 1017MOL0     C34146   3.712   7.249   7.447 -0.9630 -0.4695 -0.0609
 1017MOL0     O34147   3.685   7.297   7.320  0.0074 -0.1110 -0.5586
 1017MOL0     C34148   3.557   7.288   7.276  0.4331  0.6115  0.9625
 1017MOL0     C34149   3.580   7.302   7.121  1.1622 -0.0906  0.4379
 1017MOL0     C34150   3.441   7.281   7.051 -0.3835  0.0924  0.3349
 1017MOL0     C34151   3.454   7.271   6.903 -0.1174  0.5892 -0.3515
 1017MOL0     C34152   3.323   7.279   6.826 -0.1009  0.5330 -0.3817
 1017MOL0     C34153   3.324   7.266   6.671 -0.2789 -1.1686 -0.6426
 1017MOL0     C34154   3.208   7.341   6.604 -0.6566  0.1415  0.3749
 1017MOL0     C34155   3.237   7.493   6.579 -0.2486  0.5346 -0.2879
 1017MOL0    Cl34156   3.369   7.512   6.472 -0.2859 -0.1111 -0.1100
 1017MOL0     C34157   3.641   7.275   7.561 -0.3566  0.8842  1.1937
 1017MOL0     C34158   3.689   7.228   7.682 -0.4649  0.3479 -0.6340
 1017MOL0     O34159   3.968   7.308   7.873  0.3378  0.5452  0.1224
 1017MOL0     C34160   3.832   7.057   8.084  0.3081 -0.2026 -0.5908
 1017MOL0     C34161   3.841   7.006   8.213 -0.3320 -0.3082  0.3235
 1017MOL0     N34162   3.862   6.562   8.938  0.2796  0.1033 -0.9230
 1017MOL0     N34163   3.873   6.445   8.967 -0.1068 -0.9493 -0.2445
 1017MOL0     C34164   4.142   5.972   8.147  0.9150  0.1389 -0.0318
 1017MOL0     C34165   4.251   5.981   8.056  0.0558  0.6131  0.6048
 1017MOL0     C34166   4.432   6.203   7.682  1.0370  0.7657 -0.7347
 1017MOL0     C34167   4.551   6.244   7.630  0.0770 -1.0616  0.5969
 1017MOL0     C34168   4.570   6.252   7.494 -0.7990 -0.2430 -0.5998
 1017MOL0     C34169   4.464   6.203   7.413 -1.2332  0.5339 -0.2592
 1017MOL0     O34170   4.494   6.184   7.278  0.4301  0.3109 -0.2846
 1017MOL0     C34171   4.384   6.169   7.191  0.0114  0.3741 -0.6508
 1017MOL0     C34172   4.442   6.110   7.056  0.3239  0.2818 -1.3187
 1017MOL0     C34173   4.457   5.964   7.077 -0.3918  0.2825 -1.0819
 1017MOL0     C34174   4.505   5.891   6.953  0.6879  0.5948  0.2773
 1017MOL0     C34175   4.489   5.745   6.968 -0.6120  0.6173 -0.7878
 1017MOL0     C34176   4.478   5.628   6.933 -0.0135  0.2294 -0.4739
 1017MOL0     C34177   4.340   6.169   7.471 -0.9826  0.4640  0.3748
 1017MOL0     C34178   4.322   6.174   7.605 -0.3313  1.2456  0.6276
 1017MOL0     H34179   4.192   6.305   7.949  3.2255 -0.2938  0.5484
 1017MOL0     H34180   4.029   6.295   8.131  0.7242 -0.1726  2.3152
 1017MOL0     H34181   3.879   5.903   8.193 -0.2423 -0.0705  2.1502
 1017MOL0     H34182   3.824   6.046   8.132  3.1852 -0.9184 -2.3487
 1017MOL0     H34183   3.680   5.918   8.296  3.1053 -1.5542  0.1797
 1017MOL0     H34184   3.694   6.099   8.316  0.6077 -0.0371 -0.5941
 1017MOL0     H34185   3.862   6.065   8.486 -1.9159  0.9396  0.2000
 1017MOL0     H34186   3.843   5.898   8.476 -2.4130 -1.6984  0.9883
 1017MOL0     H34187   3.651   6.102   8.583 -0.4545 -0.1264 -0.5903
 1017MOL0     H34188   3.596   5.938   8.522  1.1365  1.5038 -2.8725
 1017MOL0     H34189   3.758   5.836   8.688 -1.7130 -0.8526  1.4721
 1017MOL0     H34190   3.650   5.933   8.782 -0.3791  0.3772  0.2869
 1017MOL0     H34191   3.934   5.982   8.701 -0.5271  0.2925 -0.6690
 1017MOL0     H34192   3.876   5.963   8.860  0.2040 -1.3041 -0.1571
 1017MOL0     H34193   3.791   6.192   8.677 -3.2775 -2.4962 -0.2481
 1017MOL0     H34194   3.727   6.161   8.843  1.3537  1.3850  2.0440
 1017MOL0     H34195   4.018   6.224   8.768  2.7856 -1.2151  2.6347
 1017MOL0     H34196   3.966   6.191   8.935  0.7205  0.2887  1.0439
 1017MOL0     H34197   3.919   6.442   8.644 -1.9105  0.3242  0.1263
 1017MOL0     H34198   4.011   6.715   8.695  0.2994 -3.0366 -0.0600
 1017MOL0     H34199   3.940   6.789   8.837  1.3376 -0.1798  0.4529
 1017MOL0     H34200   3.726   6.809   8.754  0.1768 -0.7278  1.2897
 1017MOL0     H34201   3.756   6.718   8.595  2.9747 -0.5113 -0.5254
 1017MOL0     H34202   3.757   6.975   8.582  2.2506  1.1887 -5.3030
 1017MOL0     H34203   3.888   6.979   8.682 -0.4116  1.0568 -0.9219
 1017MOL0     H34204   3.860   6.841   8.398  1.0106  0.0212 -1.1135
 1017MOL0     H34205   4.006   6.829   8.482  0.8419 -0.2306 -3.3597
 1017MOL0     H34206   4.087   7.199   8.340 -4.2889  3.8659  2.0570
 1017MOL0     H34207   4.071   7.305   8.118 -0.5877  1.5222  1.3131
 1017MOL0     H34208   3.987   7.101   7.605 -1.5884  0.4900  4.0851
 1017MOL0     H34209   3.913   7.200   7.384  0.2621 -1.8002 -0.4260
 1017MOL0     H34210   3.487   7.365   7.309 -1.5938 -0.0327 -1.5475
 1017MOL0     H34211   3.507   7.192   7.291 -2.7682  1.9594 -0.2335
 1017MOL0     H34212   3.651   7.228   7.084 -0.2041 -1.0177 -0.4141
 1017MOL0     H34213   3.620   7.402   7.100  2.8435 -0.5820  1.1152
 1017MOL0     H34214   3.396   7.380   7.061  2.3232  1.3508  0.9357
 1017MOL0     H34215   3.379   7.206   7.100 -0.2250  0.4975  1.1647
 1017MOL0     H34216   3.518   7.357   6.878  1.3750 -0.3710  0.0698
 1017MOL0     H34217   3.497   7.178   6.865 -1.1042 -0.0252  0.0145
 1017MOL0     H34218   3.291   7.380   6.854 -2.3738 -0.9800  3.1556
 1017MOL0     H34219   3.243   7.216   6.865 -1.8968  2.4926 -0.7202
 1017MOL0     H34220   3.315   7.163   6.636  2.1024 -1.3734 -0.7806
 1017MOL0     H34221   3.422   7.307   6.647 -0.6035  2.0712  2.6824
 1017MOL0     H34222   3.194   7.292   6.508 -0.5833  1.4086 -0.3066
 1017MOL0     H34223   3.120   7.334   6.669 -0.3313  1.9779  1.0799
 1017MOL0     H34224   3.249   7.546   6.674 -0.0827  1.3760 -0.7665
 1017MOL0     H34225   3.147   7.545   6.547 -0.0958  0.7668 -0.3453
 1017MOL0     H34226   3.551   7.335   7.551 -0.8848  0.0619  0.9400
 1017MOL0     H34227   3.628   7.251   7.769 -0.2852  0.0327 -0.4234
 1017MOL0     H34228   3.763   7.007   8.016  0.1681 -3.2210  1.5529
 1017MOL0     H34229   3.763   6.933   8.233 -2.6409  1.3675 -1.9074
 1017MOL0     H34230   4.126   5.883   8.206 -1.0001  1.6885  1.9313
 1017MOL0     H34231   4.324   5.901   8.047  3.2150  3.2866  0.9659
 1017MOL0     H34232   4.626   6.285   7.696  0.3189  2.1511 -1.4572
 1017MOL0     H34233   4.657   6.302   7.453 -0.5275 -0.1466  0.0694
 1017MOL0     H34234   4.330   6.264   7.178 -1.9822 -0.7502 -1.0280
 1017MOL0     H34235   4.306   6.099   7.222  1.3215 -0.9097 -0.1550
 1017MOL0     H34236   4.372   6.133   6.976  0.4482  3.0047 -0.7453
 1017MOL0     H34237   4.540   6.159   7.045 -0.1623  2.3855  2.1419
 1017MOL0     H34238   4.362   5.917   7.104  0.8508 -1.7942  0.0362
 1017MOL0     H34239   4.531   5.952   7.157  0.4333  2.7714 -1.3902
 1017MOL0     H34240   4.439   5.914   6.869  1.6000  1.1355 -0.3000
 1017MOL0     H34241   4.611   5.913   6.936  1.7516 -2.8710  1.6132
 1017MOL0     H34242   4.450   5.527   6.911  0.4391  0.5806 -2.9530
 1017MOL0     H34243   4.254   6.136   7.413 -0.2748  2.3639 -1.9068
 1017MOL0     H34244   4.226   6.145   7.649 -0.8138  2.4236  0.3842
 1018MOL0     O34245  11.072   4.600   4.868  0.0938  0.0921  0.1718
 1018MOL0     C34246  11.041   4.642   4.983  0.1955 -0.0511 -0.5153
 1018MOL0     O34247  10.907   4.682   5.012  0.3611 -0.1786 -0.6550
 1018MOL0     C34248  10.817   4.694   4.911  0.2990 -0.8913  0.3501
 1018MOL0     C34249  10.859   4.761   4.790  0.4387 -0.3044 -0.6694
 1018MOL0     C34250  10.771   4.768   4.679 -0.8352  0.1561  0.1095
 1018MOL0     C34251  10.638   4.725   4.692  0.8622 -0.8423 -0.1346
 1018MOL0     O34252  10.539   4.738   4.595  0.6689 -0.4973 -0.9939
 1018MOL0     C34253  10.561   4.853   4.515 -0.4035  0.6723 -0.3997
 1018MOL0     C34254  10.439   4.904   4.441 -1.5102  0.1843 -0.6711
 1018MOL0     C34255  10.470   5.023   4.346  0.0101  1.2573 -0.2908
 1018MOL0     C34256  10.332   5.099   4.328 -0.9270 -1.3807  0.0149
 1018MOL0     C34257  10.332   5.222   4.234  0.1551 -0.3937 -0.4257
 1018MOL0     C34258  10.404   5.208   4.099 -0.1663 -0.4250  0.1566
 1018MOL0     C34259  10.417   5.352   4.030 -0.3821  0.3907 -0.7438
 1018MOL0     C34260  10.531   5.442   4.098  0.5170 -0.1165 -0.5794
 1018MOL0     N34261  10.622   5.524   4.013  0.3246 -0.4654  0.5438
 1018MOL0     C34262  10.598   5.645   3.967 -0.3078 -0.3210  0.5763
 1018MOL0     C34263  10.700   5.677   3.880  0.6576  0.6699 -0.6321
 1018MOL0     C34264  10.715   5.804   3.796 -0.5355  0.4640 -0.4741
 1018MOL0     C34265  10.787   5.910   3.878  0.8003 -0.2027 -0.0845
 1018MOL0     C34266  10.819   6.044   3.801  0.8739 -0.3522  0.0288
 1018MOL0     C34267  10.839   6.162   3.905  0.4363  0.3144 -0.1654
 1018MOL0     O34268  10.897   6.272   3.832 -0.4259  0.2197  0.4765
 1018MOL0     C34269  10.815   6.382   3.789  0.4648  0.0786 -0.5947
 1018MOL0     C34270  10.889   6.504   3.761 -0.4460 -0.0608  0.4534
 1018MOL0     C34271  10.821   6.613   3.696 -0.1623 -0.0975 -0.0032
 1018MOL0     C34272  10.684   6.620   3.670  0.3290  0.4306  0.2870
 1018MOL0     C34273  10.617   6.747   3.630  0.3347 -0.1502  0.1530
 1018MOL0     O34274  10.693   6.859   3.624 -0.5326  0.4209 -0.3205
 1018MOL0     C34275  10.648   6.976   3.574 -0.0050 -0.0452  0.0795
 1018MOL0     C34276  10.670   7.093   3.656 -0.1770 -0.2941 -1.6727
 1018MOL0     C34277  10.631   7.216   3.616  1.2622  0.2578  0.9742
 1018MOL0     C34278  10.556   7.229   3.492 -0.3091 -0.8228 -0.6813
 1018MOL0     O34279  10.502   7.351   3.460 -0.2958  0.5999 -0.2251
 1018MOL0     C34280  10.489   7.384   3.324 -0.1824  0.9642  0.4785
 1018MOL0     C34281  10.515   7.531   3.290 -0.4779  0.0595  0.4219
 1018MOL0     C34282  10.457   7.637   3.389 -0.4631 -0.0486 -0.2140
 1018MOL0     C34283  10.312   7.614   3.428  0.2493  0.2431  0.0504
 1018MOL0     C34284  10.254   7.724   3.520  0.2121  0.1248  0.6208
 1018MOL0     C34285  10.107   7.687   3.544 -0.4924 -0.6395 -1.1995
 1018MOL0     C34286  10.017   7.788   3.610 -0.4753 -0.8471 -0.0093
 1018MOL0     C34287   9.958   7.742   3.753  1.1009 -0.2563  0.0303
 1018MOL0    Cl34288   9.853   7.599   3.734  0.2037  0.1297  0.2653
 1018MOL0     C34289  10.528   7.114   3.414  0.2859  0.0270 -0.3635
 1018MOL0     C34290  10.592   6.989   3.447  0.0130  0.6635  0.0066
 1018MOL0     O34291  10.500   6.734   3.602 -0.1588  0.6840 -0.4400
 1018MOL0     C34292  10.612   6.499   3.696  0.0438 -0.2345  0.3093
 1018MOL0     C34293  10.672   6.378   3.758  0.1850 -0.0926 -1.6569
 1018MOL0     N34294  10.774   5.566   3.870 -0.8625  0.3768 -0.7073
 1018MOL0     N34295  10.727   5.474   3.953 -0.1191 -0.0018 -0.1205
 1018MOL0     C34296  10.589   4.665   4.811  0.8335  0.2603 -0.5286
 1018MOL0     C34297  10.680   4.642   4.917  0.2060  0.3419 -0.0685
 1018MOL0     C34298  11.135   4.640   5.101 -0.6820  0.0476  0.5278
 1018MOL0     C34299  11.100   4.653   5.233 -0.1454  0.1827  0.4154
 1018MOL0     C34300  11.196   4.668   5.336 -0.0711  0.4313  0.0234
 1018MOL0     C34301  11.331   4.656   5.312 -0.0574  0.7090 -1.5970
 1018MOL0     O34302  11.440   4.693   5.397 -0.7865 -0.6072 -0.0967
 1018MOL0     C34303  11.413   4.665   5.534 -0.2612  0.1018  0.6054
 1018MOL0     C34304  11.407   4.520   5.562  0.1943 -0.7008 -0.1211
 1018MOL0     C34305  11.446   4.492   5.702 -1.0587  0.3755 -1.2772
 1018MOL0     C34306  11.341   4.544   5.799 -0.4984 -0.1225  0.5582
 1018MOL0     C34307  11.393   4.502   5.927 -0.6836 -0.6788  0.7505
 1018MOL0     C34308  11.440   4.469   6.037 -0.2018  0.0229 -0.0531
 1018MOL0     C34309  11.367   4.635   5.181  0.6208  0.6732 -0.2825
 1018MOL0     C34310  11.278   4.617   5.077  0.3573  0.5292 -0.0027
 1018MOL0     H34311  10.956   4.808   4.781 -0.6163  2.2240  0.1126
 1018MOL0     H34312  10.815   4.829   4.601 -1.5133 -1.5376 -1.6743
 1018MOL0     H34313  10.632   4.830   4.435 -0.1910  0.2163 -0.0851
 1018MOL0     H34314  10.602   4.943   4.561  0.2416 -1.6743  4.2086
 1018MOL0     H34315  10.372   4.930   4.523 -2.3608 -4.5276  0.4614
 1018MOL0     H34316  10.389   4.825   4.383 -1.3267  1.3371 -2.4823
 1018MOL0     H34317  10.502   4.985   4.248 -0.9923 -0.6101  0.0606
 1018MOL0     H34318  10.552   5.079   4.392 -0.2814  0.6219  1.0594
 1018MOL0     H34319  10.258   5.024   4.297 -1.6242 -0.6590 -0.0889
 1018MOL0     H34320  10.303   5.141   4.425 -0.2826 -1.6146  0.3147
 1018MOL0     H34321  10.382   5.303   4.288 -0.8423  0.3817 -0.6354
 1018MOL0     H34322  10.228   5.257   4.233  0.4132  0.4503  0.6035
 1018MOL0     H34323  10.344   5.143   4.034 -1.1459  1.9485 -1.4379
 1018MOL0     H34324  10.504   5.166   4.115  0.9384  1.5606 -1.1158
 1018MOL0     H34325  10.437   5.336   3.924  0.5256  0.9281 -0.6645
 1018MOL0     H34326  10.324   5.409   4.031 -0.7997 -0.1404  2.6021
 1018MOL0     H34327  10.592   5.378   4.162 -3.0055 -1.0594  2.1236
 1018MOL0     H34328  10.482   5.512   4.166  2.6050  0.9210 -0.0472
 1018MOL0     H34329  10.515   5.708   3.998 -2.1614 -0.7443 -2.9309
 1018MOL0     H34330  10.623   5.842   3.752 -1.4432 -0.7789  0.3085
 1018MOL0     H34331  10.783   5.771   3.717 -0.4923 -3.6426  1.0511
 1018MOL0     H34332  10.884   5.866   3.903  2.4602  2.3236 -1.6748
 1018MOL0     H34333  10.726   5.930   3.966 -0.6422 -0.1668 -1.0495
 1018MOL0     H34334  10.915   6.030   3.751  1.4320  4.3331 -0.5721
 1018MOL0     H34335  10.741   6.072   3.730 -1.7133 -0.7467  2.5385
 1018MOL0     H34336  10.903   6.129   3.988 -0.4722  1.8732  1.2041
 1018MOL0     H34337  10.743   6.194   3.946  1.2918  3.2947 -0.2483
 1018MOL0     H34338  10.997   6.508   3.767 -0.3837  1.1566 -1.0725
 1018MOL0     H34339  10.876   6.705   3.676 -1.1162  0.1717 -1.5993
 1018MOL0     H34340  10.724   7.094   3.750  1.1716 -1.3398 -2.3858
 1018MOL0     H34341  10.628   7.305   3.679 -3.8034  0.9401  0.2484
 1018MOL0     H34342  10.386   7.348   3.307  0.0927 -1.1990  2.7552
 1018MOL0     H34343  10.557   7.325   3.262 -1.6608  0.6519 -0.9101
 1018MOL0     H34344  10.471   7.543   3.190 -2.5157  2.7973  1.5337
 1018MOL0     H34345  10.624   7.534   3.286 -0.2789 -3.1776  0.4520
 1018MOL0     H34346  10.454   7.739   3.349  0.0441 -0.0586 -0.2860
 1018MOL0     H34347  10.520   7.633   3.479  1.7355 -2.7873 -1.7188
 1018MOL0     H34348  10.245   7.606   3.341 -2.4350  3.6676  1.5446
 1018MOL0     H34349  10.309   7.517   3.477 -0.8443 -1.2869 -2.8049
 1018MOL0     H34350  10.251   7.811   3.454  1.2169 -0.9350 -0.8883
 1018MOL0     H34351  10.310   7.745   3.612 -3.0919  3.9346  2.0751
 1018MOL0     H34352  10.105   7.591   3.597  2.0740 -1.7633 -2.9325
 1018MOL0     H34353  10.053   7.655   3.455 -0.7138 -2.8694 -0.3328
 1018MOL0     H34354  10.078   7.875   3.638 -1.5785 -0.1607  0.3024
 1018MOL0     H34355   9.933   7.806   3.543 -0.9496 -2.1465  0.2041
 1018MOL0     H34356   9.890   7.821   3.789  0.2510 -1.1446  0.4197
 1018MOL0     H34357  10.036   7.734   3.829 -0.9122  1.2549  2.4439
 1018MOL0     H34358  10.457   7.120   3.332  0.3544  2.4338 -0.3165
 1018MOL0     H34359  10.555   6.900   3.397 -2.6462  0.6350  1.8770
 1018MOL0     H34360  10.503   6.494   3.692 -0.1390  2.4428 -2.8999
 1018MOL0     H34361  10.625   6.282   3.775  2.0764 -0.5246  2.3919
 1018MOL0     H34362  10.484   4.642   4.819 -0.0843  3.2491 -2.2188
 1018MOL0     H34363  10.656   4.592   5.010  1.6588 -1.5852 -0.6604
 1018MOL0     H34364  10.996   4.651   5.264  0.2079 -0.1796  1.6491
 1018MOL0     H34365  11.151   4.685   5.433  1.3132  4.3636  0.1584
 1018MOL0     H34366  11.328   4.726   5.565  1.7666  3.6377 -0.1691
 1018MOL0     H34367  11.503   4.708   5.580  3.1878 -1.7000 -3.6714
 1018MOL0     H34368  11.305   4.479   5.553 -0.6107  0.7995  1.6649
 1018MOL0     H34369  11.466   4.463   5.489  1.6351 -1.0766  1.2923
 1018MOL0     H34370  11.542   4.539   5.723 -0.2522 -0.0722 -3.6426
 1018MOL0     H34371  11.461   4.385   5.721 -0.1232  0.4867 -1.3431
 1018MOL0     H34372  11.333   4.653   5.801  0.2895 -0.0646  1.8744
 1018MOL0     H34373  11.237   4.513   5.786 -0.6805  1.3832 -2.2404
 1018MOL0     H34374  11.480   4.459   6.135  2.8126 -1.2881 -1.3003
 1018MOL0     H34375  11.470   4.632   5.148  0.5936  2.7040 -0.6730
 1018MOL0     H34376  11.325   4.605   4.980  1.1538  2.0466  0.1700
 1019MOL0     O34377   5.350   9.258   3.031  0.0612  0.1909 -0.1454
 1019MOL0     C34378   5.448   9.189   3.003  0.4466 -0.7883  1.0828
 1019MOL0     O34379   5.554   9.224   2.939 -0.3127  0.0790 -0.5011
 1019MOL0     C34380   5.552   9.360   2.902 -0.3640 -0.5683 -0.2027
 1019MOL0     C34381   5.589   9.454   3.003 -0.0852  0.4778 -0.0434
 1019MOL0     C34382   5.604   9.592   2.956  0.7696 -0.7217 -0.7168
 1019MOL0     C34383   5.595   9.629   2.820  0.0934 -0.7942 -0.2238
 1019MOL0     O34384   5.616   9.755   2.781  0.2180 -1.4015 -0.0193
 1019MOL0     C34385   5.747   9.803   2.778 -0.6593 -0.3217 -0.6162
 1019MOL0     C34386   5.763   9.924   2.685  0.4656 -0.1935 -0.1619
 1019MOL0     C34387   5.747   9.891   2.538  0.3801  0.0256  0.0545
 1019MOL0     C34388   5.743  10.011   2.450 -0.8265 -0.2540  0.4719
 1019MOL0     C34389   5.862  10.120   2.438  0.2214  1.2277  0.2768
 1019MOL0     C34390   5.975  10.080   2.340 -0.2016  0.9913  0.3204
 1019MOL0     C34391   6.069  10.199   2.323 -0.2341  0.8724  0.6089
 1019MOL0     C34392   6.218  10.166   2.298  0.9164  0.1120 -1.2397
 1019MOL0     N34393   6.244  10.211   2.162  0.3127  0.1080  0.1077
 1019MOL0     C34394   6.203  10.157   2.047  0.7738  0.0824 -0.8626
 1019MOL0     C34395   6.262  10.237   1.946  0.3535 -0.1125 -0.4001
 1019MOL0     C34396   6.281  10.208   1.801  0.3537 -0.3507 -0.3685
 1019MOL0     C34397   6.172  10.269   1.708 -0.0584  0.2404 -0.0309
 1019MOL0     C34398   6.130  10.187   1.590 -0.7459 -0.0901  0.7184
 1019MOL0     C34399   6.255  10.159   1.507 -0.1218 -0.1596  0.0432
 1019MOL0     O34400   6.244  10.056   1.414 -0.0746  0.3998 -0.2556
 1019MOL0     C34401   6.283   9.928   1.449  0.1375 -0.0973  0.1316
 1019MOL0     C34402   6.261   9.862   1.571  0.2763 -0.9365  0.3582
 1019MOL0     C34403   6.299   9.741   1.604  0.1017  0.7339 -0.6030
 1019MOL0     C34404   6.351   9.658   1.508  0.3580 -0.2542 -0.6901
 1019MOL0     C34405   6.376   9.518   1.544 -0.1017 -0.4441  0.8033
 1019MOL0     O34406   6.288   9.477   1.636  0.1748 -0.4901  0.2507
 1019MOL0     C34407   6.279   9.338   1.665  0.4990  0.5885  0.6677
 1019MOL0     C34408   6.385   9.257   1.706  0.2697 -1.3245  0.7146
 1019MOL0     C34409   6.368   9.127   1.725  1.0076  0.5646 -0.4330
 1019MOL0     C34410   6.239   9.058   1.702  0.2797 -0.6202  0.5685
 1019MOL0     O34411   6.220   8.920   1.725 -0.5031 -0.1529 -0.2814
 1019MOL0     C34412   6.333   8.834   1.691  0.3667  0.7066 -0.1618
 1019MOL0     C34413   6.378   8.830   1.547  0.7947 -1.0340  0.1721
 1019MOL0     C34414   6.258   8.802   1.454 -0.7264  0.9279  1.2814
 1019MOL0     C34415   6.241   8.908   1.340 -1.7443  0.0203 -0.4077
 1019MOL0     C34416   6.125   8.881   1.238 -0.2734 -0.2459 -0.6774
 1019MOL0     C34417   6.115   8.738   1.182  0.1689 -0.7785  0.7340
 1019MOL0     C34418   6.235   8.717   1.092 -0.1191  1.0041  0.7683
 1019MOL0     C34419   6.235   8.573   1.038  0.2827 -0.6192  0.7510
 1019MOL0    Cl34420   6.253   8.439   1.158 -0.1623  0.4213  0.5489
 1019MOL0     C34421   6.136   9.143   1.661  0.4404  1.0624 -0.5482
 1019MOL0     C34422   6.154   9.280   1.641  0.2950  0.7968  0.7258
 1019MOL0     O34423   6.468   9.454   1.488 -0.1903  0.0963  0.5674
 1019MOL0     C34424   6.376   9.714   1.382  0.3032 -0.0842  0.4993
 1019MOL0     C34425   6.335   9.848   1.345 -0.0146 -0.2831  0.4079
 1019MOL0     N34426   6.331  10.332   2.013  0.0233 -0.0886  0.1157
 1019MOL0     N34427   6.326  10.322   2.143 -0.2607 -0.3297  1.3693
 1019MOL0     C34428   5.554   9.538   2.731 -0.5913  0.0043  0.0645
 1019MOL0     C34429   5.529   9.413   2.773 -0.1857 -0.5037  0.4763
 1019MOL0     C34430   5.441   9.041   3.042  0.1432  0.0486  0.3161
 1019MOL0     C34431   5.323   8.992   3.102  0.3471  1.0872  1.2251
 1019MOL0     C34432   5.303   8.860   3.136 -0.4772  0.3570 -0.2737
 1019MOL0     C34433   5.412   8.764   3.122 -0.1181 -0.8434  0.2452
 1019MOL0     O34434   5.410   8.629   3.143  0.2756 -0.0156 -0.4179
 1019MOL0     C34435   5.286   8.579   3.186  0.5834  1.0283 -0.8012
 1019MOL0     C34436   5.286   8.430   3.216 -0.6829  1.2913  0.6474
 1019MOL0     C34437   5.370   8.408   3.345 -0.7936 -0.1463  0.9833
 1019MOL0     C34438   5.332   8.286   3.422 -0.2918 -0.2847  0.8089
 1019MOL0     C34439   5.381   8.314   3.558 -0.5317 -0.4666  0.2666
 1019MOL0     C34440   5.436   8.327   3.667  0.6774  0.7096 -0.1583
 1019MOL0     C34441   5.537   8.820   3.071 -0.3807 -0.5409  0.1589
 1019MOL0     C34442   5.547   8.955   3.027 -0.1724 -0.6519  0.2103
 1019MOL0     H34443   5.606   9.428   3.107  0.8411 -0.5626 -0.4362
 1019MOL0     H34444   5.618   9.675   3.025  2.5163 -1.8410  0.3623
 1019MOL0     H34445   5.821   9.725   2.754  0.8808  0.2187  1.9943
 1019MOL0     H34446   5.770   9.829   2.882  0.2929  0.2866 -0.9623
 1019MOL0     H34447   5.862   9.970   2.684  0.3408  0.0919  0.5131
 1019MOL0     H34448   5.688   9.999   2.712 -0.0063 -0.1373 -1.5613
 1019MOL0     H34449   5.651   9.842   2.518  0.4462  0.3121 -0.9978
 1019MOL0     H34450   5.826   9.823   2.507 -3.0819 -4.6872  0.5033
 1019MOL0     H34451   5.750   9.971   2.348  3.1085  0.8965  0.1251
 1019MOL0     H34452   5.646  10.063   2.450 -0.8418 -0.1781 -1.5174
 1019MOL0     H34453   5.904  10.138   2.538 -0.4583 -0.6796  0.9587
 1019MOL0     H34454   5.817  10.213   2.402 -0.0107  2.7890  4.1381
 1019MOL0     H34455   5.932  10.049   2.244  1.0354  1.2553 -0.3377
 1019MOL0     H34456   6.031   9.997   2.384 -0.3419  0.4538 -0.4863
 1019MOL0     H34457   6.022  10.248   2.237 -1.8448  1.2715  1.6824
 1019MOL0     H34458   6.060  10.267   2.408 -0.4962  2.3076 -0.5310
 1019MOL0     H34459   6.242  10.060   2.310  0.5612  0.2179  0.7590
 1019MOL0     H34460   6.290  10.226   2.355 -0.0549  1.0058 -0.9142
 1019MOL0     H34461   6.143  10.067   2.043 -0.4577  0.8579 -0.3450
 1019MOL0     H34462   6.278  10.099   1.789 -3.0222 -0.2874 -1.0241
 1019MOL0     H34463   6.376  10.255   1.774 -1.6380  3.0365 -2.0408
 1019MOL0     H34464   6.221  10.360   1.671 -2.1109  0.4041 -2.6751
 1019MOL0     H34465   6.084  10.275   1.772  0.0594 -1.7615  0.3643
 1019MOL0     H34466   6.084  10.096   1.630 -1.4476  1.1039  2.7928
 1019MOL0     H34467   6.059  10.237   1.524 -0.9210  3.4805  3.3436
 1019MOL0     H34468   6.352  10.150   1.555  1.8723  3.1861 -2.9041
 1019MOL0     H34469   6.269  10.255   1.456  1.6953  0.0396  0.8419
 1019MOL0     H34470   6.206   9.922   1.642  0.7080  5.0452 -3.6048
 1019MOL0     H34471   6.271   9.701   1.701  0.1306 -0.2714 -0.9983
 1019MOL0     H34472   6.481   9.301   1.733 -1.5005  2.9577  0.8463
 1019MOL0     H34473   6.441   9.062   1.773 -1.2945 -0.7082  1.5973
 1019MOL0     H34474   6.307   8.728   1.704 -2.8281  1.4282  0.2494
 1019MOL0     H34475   6.419   8.850   1.757  0.5608  2.0228 -0.6997
 1019MOL0     H34476   6.468   8.773   1.521  2.6034  1.0514  1.4342
 1019MOL0     H34477   6.405   8.934   1.526  0.3478 -0.1101  3.5634
 1019MOL0     H34478   6.164   8.793   1.508  0.2987 -0.8859  2.8777
 1019MOL0     H34479   6.287   8.709   1.405  0.8574  1.2737  1.5066
 1019MOL0     H34480   6.242   9.013   1.372 -2.1758  0.5646 -2.0658
 1019MOL0     H34481   6.334   8.907   1.281 -1.3476 -1.4433  0.2160
 1019MOL0     H34482   6.149   8.951   1.158  0.1875 -0.7068 -0.9481
 1019MOL0     H34483   6.034   8.900   1.297  0.0637 -0.0735 -0.2051
 1019MOL0     H34484   6.025   8.743   1.120 -1.2541  2.8261  2.7832
 1019MOL0     H34485   6.102   8.652   1.248 -3.0505 -2.8090 -2.1973
 1019MOL0     H34486   6.245   8.789   1.011  3.3281 -1.4905 -1.3354
 1019MOL0     H34487   6.330   8.733   1.145 -0.0791  0.6107  0.8222
 1019MOL0     H34488   6.316   8.555   0.967  0.1946  1.9539 -0.1004
 1019MOL0     H34489   6.140   8.554   0.987  0.1313 -1.0962  1.2062
 1019MOL0     H34490   6.035   9.104   1.649 -0.2408  1.9835  1.7779
 1019MOL0     H34491   6.074   9.344   1.603 -0.7597 -0.8242  0.1218
 1019MOL0     H34492   6.421   9.659   1.301  1.6216  1.7694 -0.1054
 1019MOL0     H34493   6.355   9.896   1.250 -0.6295  1.2076  0.9947
 1019MOL0     H34494   5.530   9.572   2.631  0.7189 -0.4313 -0.4129
 1019MOL0     H34495   5.489   9.350   2.694  1.2340 -0.3645 -0.3999
 1019MOL0     H34496   5.242   9.060   3.129  0.4052  1.8277 -0.3620
 1019MOL0     H34497   5.205   8.826   3.167 -0.8178 -1.5316 -3.0481
 1019MOL0     H34498   5.221   8.581   3.099 -1.8552 -3.0712  0.6373
 1019MOL0     H34499   5.252   8.634   3.274 -2.0603 -2.1099  0.3392
 1019MOL0     H34500   5.181   8.406   3.237 -0.6662  0.9912  0.4052
 1019MOL0     H34501   5.332   8.372   3.136  0.6078  0.7581  1.7365
 1019MOL0     H34502   5.364   8.502   3.401 -3.2347 -1.8275  3.8534
 1019MOL0     H34503   5.469   8.387   3.305 -1.4243 -2.3782  0.4225
 1019MOL0     H34504   5.223   8.278   3.425 -0.4881 -1.8374 -3.5717
 1019MOL0     H34505   5.375   8.196   3.378  0.0862  0.3571 -0.1680
 1019MOL0     H34506   5.488   8.358   3.755  0.6481  0.2548  0.0165
 1019MOL0     H34507   5.610   8.741   3.054 -0.7111 -1.0340  0.9710
 1019MOL0     H34508   5.646   8.996   3.008 -0.3350 -0.1593  0.3989
 1020MOL0     O34509   3.094   0.715   7.670  0.3053  0.8927 -0.4130
 1020MOL0     C34510   3.036   0.700   7.778  0.1808 -0.1734 -0.6958
 1020MOL0     O34511   2.914   0.650   7.793 -0.6836  0.2201 -0.1185
 1020MOL0     C34512   2.827   0.623   7.691 -0.2596  0.5493 -0.1049
 1020MOL0     C34513   2.824   0.702   7.579  0.0764  0.2124 -0.8922
 1020MOL0     C34514   2.768   0.666   7.461 -0.4617 -0.4595  0.0330
 1020MOL0     C34515   2.683   0.560   7.456  0.3396  1.5621 -0.0141
 1020MOL0     O34516   2.641   0.523   7.332 -0.3729  0.5246 -0.2793
 1020MOL0     C34517   2.600   0.389   7.300 -1.2811 -0.0981  0.0503
 1020MOL0     C34518   2.723   0.300   7.323 -0.9698 -0.1574 -0.2814
 1020MOL0     C34519   2.699   0.157   7.296  0.2904  0.1451 -0.4255
 1020MOL0     C34520   2.606   0.103   7.404  0.4831  1.6425 -0.2275
 1020MOL0     C34521   2.638  -0.042   7.454 -0.0847  0.6670 -0.0362
 1020MOL0     C34522   2.519  -0.105   7.521  0.7129 -0.5353  0.4500
 1020MOL0     C34523   2.523  -0.247   7.583 -0.2334 -1.0634 -0.0835
 1020MOL0     C34524   2.563  -0.356   7.482 -0.4015 -0.4945 -0.0174
 1020MOL0     N34525   2.702  -0.410   7.503  0.0210 -0.1690 -0.3035
 1020MOL0     C34526   2.731  -0.499   7.601  0.2742 -0.6189 -0.2591
 1020MOL0     C34527   2.870  -0.494   7.623 -0.2156 -0.6426 -0.1917
 1020MOL0     C34528   2.936  -0.560   7.741 -0.0316 -0.7184  0.9912
 1020MOL0     C34529   2.953  -0.702   7.717  0.1863 -0.0502  0.2353
 1020MOL0     C34530   3.093  -0.764   7.712  0.3792 -0.3544 -0.4458
 1020MOL0     C34531   3.148  -0.775   7.854 -1.3326 -0.0621  0.1875
 1020MOL0     O34532   3.073  -0.864   7.941  0.4925  0.2096  0.3233
 1020MOL0     C34533   3.105  -0.874   8.075 -0.1248  0.1309  1.1081
 1020MOL0     C34534   3.004  -0.865   8.167  0.0725  0.5986 -0.3670
 1020MOL0     C34535   3.019  -0.870   8.305  0.1459 -1.2483 -0.7618
 1020MOL0     C34536   3.152  -0.884   8.352 -0.7987  0.9006  0.4549
 1020MOL0     C34537   3.180  -0.883   8.492 -1.1358 -0.0689  0.5929
 1020MOL0     O34538   3.073  -0.883   8.580  0.4096 -0.1750  0.0281
 1020MOL0     C34539   3.080  -0.894   8.716  0.1823 -0.0244  0.6294
 1020MOL0     C34540   2.957  -0.878   8.788  0.6718 -0.4569 -0.4486
 1020MOL0     C34541   2.933  -0.910   8.928  0.6984  0.1074  0.3762
 1020MOL0     C34542   3.048  -0.961   8.993  0.1100 -0.5364  0.2233
 1020MOL0     O34543   3.037  -0.994   9.124 -0.3537  0.0304  0.5393
 1020MOL0     C34544   3.014  -1.131   9.147 -0.3227  0.2280 -0.9689
 1020MOL0     C34545   2.866  -1.165   9.136 -0.3817 -0.0811 -0.8925
 1020MOL0     C34546   2.775  -1.118   9.242  0.1040  0.7078  0.6594
 1020MOL0     C34547   2.667  -1.220   9.290  0.8216  0.2694  0.7030
 1020MOL0     C34548   2.555  -1.165   9.375  0.0132  0.2850  0.6124
 1020MOL0     C34549   2.464  -1.273   9.434 -0.3472  0.9493 -0.9782
 1020MOL0     C34550   2.370  -1.230   9.543  0.4306 -0.0415 -0.0753
 1020MOL0     C34551   2.261  -1.330   9.551 -0.5577  0.1293  0.3116
 1020MOL0    Cl34552   2.147  -1.247   9.666 -1.0047 -0.3768 -0.4317
 1020MOL0     C34553   3.171  -0.965   8.930  0.4259  0.1047 -0.2549
 1020MOL0     C34554   3.191  -0.930   8.792 -0.4667  1.1595  0.3309
 1020MOL0     O34555   3.299  -0.885   8.525 -0.4107 -0.3267  0.1861
 1020MOL0     C34556   3.258  -0.882   8.254  0.2283 -0.1896 -0.8051
 1020MOL0     C34557   3.235  -0.877   8.121  0.0930  0.5097  0.0482
 1020MOL0     N34558   2.926  -0.416   7.522  0.4832 -0.4021 -0.1743
 1020MOL0     N34559   2.826  -0.355   7.462 -0.0390 -0.0708 -0.6762
 1020MOL0     C34560   2.654   0.494   7.574  0.7072  0.7400 -0.6739
 1020MOL0     C34561   2.732   0.523   7.691  1.0746  0.1141 -0.3643
 1020MOL0     C34562   3.101   0.724   7.919  0.0315 -0.0646  1.6686
 1020MOL0     C34563   3.239   0.752   7.910  1.2878 -0.2705  0.2850
 1020MOL0     C34564   3.299   0.798   8.026  0.1458 -0.0473  0.2825
 1020MOL0     C34565   3.232   0.822   8.145 -0.6499 -0.2414 -0.6831
 1020MOL0     O34566   3.294   0.893   8.241 -0.7303 -0.1625  0.5672
 1020MOL0     C34567   3.220   0.913   8.360 -0.4214 -0.5123  0.1536
 1020MOL0     C34568   3.312   0.997   8.456 -0.0318 -0.4735 -0.1206
 1020MOL0     C34569   3.319   0.974   8.604  0.6866 -1.5447 -0.7531
 1020MOL0     C34570   3.179   0.977   8.676  0.0541 -0.2679  0.0615
 1020MOL0     C34571   3.120   1.116   8.693  0.3592 -0.1744 -0.3348
 1020MOL0     C34572   3.076   1.229   8.694  0.2498  0.2491  0.4123
 1020MOL0     C34573   3.099   0.774   8.154 -0.9070  1.2137 -0.6751
 1020MOL0     C34574   3.035   0.729   8.041  0.6137  0.5684  0.9589
 1020MOL0     H34575   2.893   0.786   7.581  3.2851 -2.2468  1.2505
 1020MOL0     H34576   2.799   0.729   7.378 -1.5620  1.9588  1.3680
 1020MOL0     H34577   2.561   0.387   7.198 -1.6512 -0.8009  0.2042
 1020MOL0     H34578   2.512   0.366   7.360  0.3279 -0.7978  2.2766
 1020MOL0     H34579   2.774   0.315   7.419 -2.7772  1.4983  0.4865
 1020MOL0     H34580   2.796   0.338   7.251  1.5378  1.7045  2.9458
 1020MOL0     H34581   2.799   0.112   7.298 -0.3765 -1.3917 -0.7455
 1020MOL0     H34582   2.666   0.139   7.193 -0.5277  1.1733 -0.3548
 1020MOL0     H34583   2.615   0.164   7.494 -0.6086  2.7492 -0.8266
 1020MOL0     H34584   2.501   0.106   7.371 -0.1413 -0.7752  1.2622
 1020MOL0     H34585   2.736  -0.058   7.499 -1.3929 -0.7925  2.5342
 1020MOL0     H34586   2.656  -0.104   7.365 -0.0323 -2.1494  1.8013
 1020MOL0     H34587   2.440  -0.087   7.447  0.3268  4.3607  1.7304
 1020MOL0     H34588   2.495  -0.026   7.593  0.2738 -0.4439  0.2101
 1020MOL0     H34589   2.574  -0.253   7.680 -0.6085 -1.4673  0.0909
 1020MOL0     H34590   2.416  -0.260   7.603 -0.6358 -1.8425 -2.4016
 1020MOL0     H34591   2.547  -0.319   7.381  3.6216  1.4196 -0.1486
 1020MOL0     H34592   2.503  -0.443   7.510 -2.8306  0.4650 -1.8606
 1020MOL0     H34593   2.650  -0.537   7.663  1.5744 -2.3692  0.4593
 1020MOL0     H34594   2.875  -0.535   7.828 -0.6327 -1.6267  0.8413
 1020MOL0     H34595   3.025  -0.510   7.780 -0.5537  0.4088  0.7602
 1020MOL0     H34596   2.902  -0.721   7.622 -3.0945  2.5086  1.2797
 1020MOL0     H34597   2.886  -0.754   7.786 -1.2225  0.8996 -0.3698
 1020MOL0     H34598   3.080  -0.863   7.667 -2.0748 -0.8781  1.2475
 1020MOL0     H34599   3.168  -0.710   7.653  0.3290  0.5619  0.2981
 1020MOL0     H34600   3.159  -0.677   7.903  2.6300  0.1422 -0.7695
 1020MOL0     H34601   3.251  -0.806   7.834  0.8641  5.5080  0.9359
 1020MOL0     H34602   2.903  -0.846   8.131 -0.0056 -1.2396 -1.2391
 1020MOL0     H34603   2.934  -0.856   8.372  1.1716 -0.9892  0.5161
 1020MOL0     H34604   2.870  -0.843   8.734  0.7361  0.6970  0.1603
 1020MOL0     H34605   2.835  -0.907   8.976  0.9433 -0.1053  0.9030
 1020MOL0     H34606   3.044  -1.155   9.249  2.4291 -2.4325 -2.2282
 1020MOL0     H34607   3.078  -1.190   9.080  3.9569  2.6894  0.5593
 1020MOL0     H34608   2.866  -1.274   9.146 -1.1035  0.0600  0.8757
 1020MOL0     H34609   2.826  -1.141   9.037 -0.3210  0.8203 -0.7008
 1020MOL0     H34610   2.728  -1.029   9.200 -2.6025 -0.8634  0.0606
 1020MOL0     H34611   2.823  -1.086   9.334  1.2087  0.3090  0.2380
 1020MOL0     H34612   2.601  -1.253   9.210 -1.4407  1.9449  1.7630
 1020MOL0     H34613   2.721  -1.302   9.338  1.9625  0.7116  0.2286
 1020MOL0     H34614   2.495  -1.105   9.306  1.1917 -0.8276 -1.4694
 1020MOL0     H34615   2.606  -1.097   9.443 -0.3092  0.7294  0.4169
 1020MOL0     H34616   2.514  -1.354   9.487 -0.7655  2.3350  1.7712
 1020MOL0     H34617   2.396  -1.310   9.357  1.2671  0.6062 -2.2724
 1020MOL0     H34618   2.413  -1.222   9.643 -2.0276 -0.3317  1.0763
 1020MOL0     H34619   2.320  -1.134   9.528 -1.3575  0.1574  5.2112
 1020MOL0     H34620   2.301  -1.425   9.585 -0.7340 -0.4324 -0.9735
 1020MOL0     H34621   2.198  -1.329   9.461  1.1963  0.7468 -0.9777
 1020MOL0     H34622   3.259  -0.986   8.989  1.8021  4.2900 -0.5009
 1020MOL0     H34623   3.295  -0.943   8.764  0.0784 -0.3477  2.6820
 1020MOL0     H34624   3.362  -0.876   8.284 -0.3736 -1.9089  1.9799
 1020MOL0     H34625   3.313  -0.871   8.045  0.8478  1.5196  0.8740
 1020MOL0     H34626   2.582   0.413   7.582  2.5241 -0.8135  0.6013
 1020MOL0     H34627   2.710   0.461   7.777  1.6012  1.4794  0.7969
 1020MOL0     H34628   3.292   0.728   7.818 -0.6281  1.8362 -1.4804
 1020MOL0     H34629   3.406   0.816   8.028 -0.1546  2.1312 -0.4567
 1020MOL0     H34630   3.204   0.813   8.403 -0.3224 -0.0713  1.2469
 1020MOL0     H34631   3.131   0.975   8.345 -0.0029  0.4075  1.3133
 1020MOL0     H34632   3.416   0.981   8.427 -0.4694 -1.5369 -1.2235
 1020MOL0     H34633   3.297   1.104   8.440 -0.3289 -0.6409 -0.9835
 1020MOL0     H34634   3.378   1.054   8.649 -0.7349 -0.4911 -0.7201
 1020MOL0     H34635   3.367   0.877   8.623  0.9410 -1.2773  0.0095
 1020MOL0     H34636   3.112   0.908   8.624 -0.7629  0.4462  0.1583
 1020MOL0     H34637   3.189   0.934   8.776 -2.9431 -0.4360  0.3700
 1020MOL0     H34638   3.040   1.330   8.700  0.7509  0.3510  5.3461
 1020MOL0     H34639   3.043   0.754   8.245  2.0156  2.1831  1.4845
 1020MOL0     H34640   2.930   0.704   8.051 -0.0322  2.1716 -1.1478
 1021MOL0     O34641   9.108  11.110   2.435 -0.4662  1.0080  0.3744
 1021MOL0     C34642   9.053  11.121   2.545 -0.2299  0.4614  0.0309
 1021MOL0     O34643   8.926  11.125   2.564 -0.2673 -0.2767 -0.5960
 1021MOL0     C34644   8.850  11.154   2.457 -0.6221 -0.5963 -0.9473
 1021MOL0     C34645   8.876  11.254   2.364  0.2765  0.0516 -0.8949
 1021MOL0     C34646   8.784  11.294   2.265  0.2693 -0.1182 -0.6219
 1021MOL0     C34647   8.657  11.236   2.263 -0.7438  1.0635 -0.1531
 1021MOL0     O34648   8.568  11.285   2.179  0.5368 -0.3007 -0.3821
 1021MOL0     C34649   8.474  11.193   2.117  0.1160  0.0190  0.3770
 1021MOL0     C34650   8.365  11.253   2.035  0.0180 -0.8370 -1.0055
 1021MOL0     C34651   8.427  11.323   1.915 -1.0333 -0.2197  0.1177
 1021MOL0     C34652   8.309  11.365   1.824  0.2805 -0.0734 -0.1413
 1021MOL0     C34653   8.357  11.409   1.685  0.2419 -0.2231 -0.7657
 1021MOL0     C34654   8.469  11.515   1.679  0.4396  0.1695  0.0422
 1021MOL0     C34655   8.413  11.656   1.724  0.2810 -0.0355 -0.3601
 1021MOL0     C34656   8.520  11.731   1.801 -0.8078 -0.0521 -0.4093
 1021MOL0     N34657   8.473  11.859   1.859 -0.1643 -0.1398  1.2976
 1021MOL0     C34658   8.397  11.867   1.972 -1.2808 -0.7652 -0.1497
 1021MOL0     C34659   8.372  12.000   1.990 -0.1071  0.3848  0.4688
 1021MOL0     C34660   8.270  12.060   2.090  0.2028  0.2737 -1.1986
 1021MOL0     C34661   8.258  11.976   2.218 -0.3227 -0.2984 -0.1160
 1021MOL0     C34662   8.150  12.029   2.314  0.3885  0.2249  0.1941
 1021MOL0     C34663   8.084  11.921   2.413 -0.6793 -0.8347  0.1372
 1021MOL0     O34664   7.997  11.832   2.334 -0.2859  0.9169  0.0138
 1021MOL0     C34665   7.947  11.714   2.396  0.2325 -0.3826 -0.1149
 1021MOL0     C34666   7.842  11.642   2.326  0.4765 -0.3834  0.2000
 1021MOL0     C34667   7.781  11.522   2.384  0.5811  0.4807  0.4291
 1021MOL0     C34668   7.832  11.453   2.490 -0.2175  0.0169 -0.0126
 1021MOL0     C34669   7.780  11.326   2.535 -0.8079  0.8329  0.3883
 1021MOL0     O34670   7.810  11.295   2.666 -0.3053 -0.1361  0.2255
 1021MOL0     C34671   7.770  11.167   2.710  0.3917  0.2905 -0.5420
 1021MOL0     C34672   7.722  11.160   2.848  0.4691 -0.0858  1.0155
 1021MOL0     C34673   7.670  11.034   2.902 -0.3249 -0.4169  0.7701
 1021MOL0     C34674   7.669  10.915   2.826  0.0340  0.6552  0.3765
 1021MOL0     O34675   7.606  10.800   2.870 -0.2778 -0.2931  0.2779
 1021MOL0     C34676   7.471  10.833   2.889  0.6503  0.7666 -0.4121
 1021MOL0     C34677   7.419  10.733   2.996  0.9025 -0.3051  0.1085
 1021MOL0     C34678   7.269  10.749   3.026  0.1577 -0.2507  0.1740
 1021MOL0     C34679   7.237  10.690   3.158  0.1100 -0.1009 -0.0138
 1021MOL0     C34680   7.209  10.541   3.148  0.3940  0.1206 -0.0836
 1021MOL0     C34681   7.179  10.468   3.278 -0.8979  0.6541 -0.0516
 1021MOL0     C34682   7.054  10.512   3.356  0.8718 -0.1941 -0.8210
 1021MOL0     C34683   6.938  10.448   3.295  0.7042  0.1948  0.0766
 1021MOL0    Cl34684   6.940  10.265   3.334 -0.0641 -0.1955 -0.1309
 1021MOL0     C34685   7.721  10.920   2.696 -0.4186  0.4818  1.2599
 1021MOL0     C34686   7.771  11.037   2.643  0.1105  0.9433 -0.0988
 1021MOL0     O34687   7.706  11.261   2.452 -0.2640  0.6274 -0.3108
 1021MOL0     C34688   7.937  11.532   2.560  0.1373  0.8176  0.9153
 1021MOL0     C34689   7.983  11.659   2.514  0.0774  0.4141 -0.2755
 1021MOL0     N34690   8.453  12.069   1.901 -0.4003  0.0133 -1.2866
 1021MOL0     N34691   8.510  11.982   1.827  0.3503 -0.3324 -0.2047
 1021MOL0     C34692   8.626  11.128   2.355 -0.4409  0.6339  0.3543
 1021MOL0     C34693   8.719  11.098   2.454  0.2504  0.2569 -0.2038
 1021MOL0     C34694   9.136  11.113   2.664 -0.2843  0.8348 -0.4904
 1021MOL0     C34695   9.075  11.076   2.784 -0.0373 -0.4667 -0.1261
 1021MOL0     C34696   9.142  11.056   2.900  0.7276 -0.2601 -0.3858
 1021MOL0     C34697   9.282  11.076   2.899 -0.1863  0.1510  0.7907
 1021MOL0     O34698   9.350  11.045   3.016 -0.4701 -0.0754 -0.1833
 1021MOL0     C34699   9.491  11.047   3.023 -0.6649 -0.3345  0.4022
 1021MOL0     C34700   9.540  10.991   3.164 -0.5718 -0.3266 -0.4948
 1021MOL0     C34701   9.497  10.834   3.175 -0.4357  0.2721  0.1156
 1021MOL0     C34702   9.367  10.826   3.253  0.1208  0.1380  0.2319
 1021MOL0     C34703   9.315  10.687   3.260 -0.8434  0.2965 -1.2620
 1021MOL0     C34704   9.284  10.571   3.277 -0.1617 -0.3210 -0.6543
 1021MOL0     C34705   9.349  11.110   2.774  0.0693  0.0569 -0.5805
 1021MOL0     C34706   9.277  11.129   2.663  1.1851  0.0357 -0.5333
 1021MOL0     H34707   8.975  11.298   2.355 -0.1279  0.7178 -2.5834
 1021MOL0     H34708   8.801  11.378   2.198 -2.2645 -0.4909 -1.8813
 1021MOL0     H34709   8.428  11.131   2.195  0.7946 -1.1849 -0.1486
 1021MOL0     H34710   8.524  11.126   2.046 -1.4001 -0.3897 -0.3633
 1021MOL0     H34711   8.311  11.322   2.101  0.8973 -1.5188  0.4882
 1021MOL0     H34712   8.297  11.177   1.998 -0.5858 -0.0753 -1.5000
 1021MOL0     H34713   8.476  11.249   1.851 -1.9395 -0.5248 -0.2371
 1021MOL0     H34714   8.490  11.410   1.937 -3.0191  1.0748  0.9963
 1021MOL0     H34715   8.242  11.281   1.803  1.3858 -1.0644  0.1616
 1021MOL0     H34716   8.251  11.445   1.871  1.3964  2.5104 -2.8024
 1021MOL0     H34717   8.278  11.437   1.616  0.1535 -0.3003 -0.6969
 1021MOL0     H34718   8.399  11.326   1.628  1.9543 -0.9228  1.3632
 1021MOL0     H34719   8.509  11.505   1.578  2.6703 -0.0221  0.8735
 1021MOL0     H34720   8.549  11.477   1.743 -3.0228 -1.9771  3.5655
 1021MOL0     H34721   8.374  11.720   1.644  0.9142 -0.5156 -1.0672
 1021MOL0     H34722   8.338  11.627   1.798  1.3553 -5.5261 -1.0308
 1021MOL0     H34723   8.607  11.755   1.739  0.5695 -1.1384  1.0034
 1021MOL0     H34724   8.568  11.677   1.883  2.0472  2.3301 -0.3438
 1021MOL0     H34725   8.354  11.784   2.028 -1.4900  1.1681  2.7257
 1021MOL0     H34726   8.179  12.065   2.030 -0.9403 -2.5391  0.1349
 1021MOL0     H34727   8.286  12.167   2.112 -0.8920  0.0766  0.8037
 1021MOL0     H34728   8.354  11.955   2.267 -1.1845 -1.8236  0.9827
 1021MOL0     H34729   8.212  11.882   2.188 -0.9836 -0.0105 -0.0169
 1021MOL0     H34730   8.202  12.103   2.375 -0.0158  1.2323 -0.6588
 1021MOL0     H34731   8.065  12.075   2.263  0.8977  2.6065  1.3924
 1021MOL0     H34732   8.034  11.969   2.498 -0.6550 -2.8444  1.3498
 1021MOL0     H34733   8.160  11.856   2.457 -0.4702 -2.0459 -1.8886
 1021MOL0     H34734   7.801  11.681   2.234  0.7953 -2.1188 -0.7266
 1021MOL0     H34735   7.700  11.483   2.322  1.5053 -1.0431  0.1256
 1021MOL0     H34736   7.714  11.251   2.907  3.4879  1.5773 -0.8916
 1021MOL0     H34737   7.636  11.036   3.005 -1.8145  1.9175  0.3154
 1021MOL0     H34738   7.434  10.810   2.788 -0.8390  0.5053  0.1739
 1021MOL0     H34739   7.448  10.930   2.933  1.6193  1.8888 -2.2306
 1021MOL0     H34740   7.472  10.755   3.090 -0.8936 -0.7707  1.2792
 1021MOL0     H34741   7.446  10.633   2.959  1.5033  0.0877 -0.5410
 1021MOL0     H34742   7.207  10.718   2.941  1.0494  5.3370 -3.0226
 1021MOL0     H34743   7.242  10.855   3.032 -0.1042 -0.1511 -1.9360
 1021MOL0     H34744   7.317  10.699   3.232  2.0771  1.0974 -2.1395
 1021MOL0     H34745   7.154  10.745   3.203 -3.0766 -4.5684  0.2646
 1021MOL0     H34746   7.285  10.484   3.094 -0.5333 -0.8351 -0.4068
 1021MOL0     H34747   7.127  10.521   3.080  1.7258 -2.8189 -1.0058
 1021MOL0     H34748   7.263  10.480   3.347 -2.7561  1.7990  2.1660
 1021MOL0     H34749   7.174  10.361   3.256 -0.7561  0.7606 -0.6253
 1021MOL0     H34750   7.055  10.486   3.462  0.2529 -0.1490 -0.8028
 1021MOL0     H34751   7.045  10.621   3.360  1.2980 -0.1920  0.2618
 1021MOL0     H34752   6.945  10.462   3.186 -1.9678 -1.7126 -0.4467
 1021MOL0     H34753   6.851  10.491   3.346  2.3464  0.2544  3.0353
 1021MOL0     H34754   7.730  10.829   2.638  0.2688  1.0972  0.3626
 1021MOL0     H34755   7.815  11.040   2.544  0.1232 -2.5231 -0.3246
 1021MOL0     H34756   7.979  11.488   2.650 -0.7878 -2.1902 -0.0041
 1021MOL0     H34757   8.040  11.715   2.587 -1.2807 -0.0423  1.2055
 1021MOL0     H34758   8.530  11.078   2.358  0.5471 -1.3733  0.3968
 1021MOL0     H34759   8.691  11.014   2.516  0.8216 -0.8989 -1.4576
 1021MOL0     H34760   8.968  11.078   2.804 -0.2223  6.2701  0.3784
 1021MOL0     H34761   9.102  11.030   2.997 -2.8938 -1.1873 -1.9778
 1021MOL0     H34762   9.534  11.147   3.011 -0.4412 -0.6869 -2.4805
 1021MOL0     H34763   9.550  10.973   2.967  2.7268  1.3344  1.5071
 1021MOL0     H34764   9.649  11.001   3.165 -0.5557  0.1247 -2.8127
 1021MOL0     H34765   9.496  11.057   3.240 -1.3567 -0.5992 -0.7026
 1021MOL0     H34766   9.577  10.781   3.227 -1.7890 -0.8066  1.1642
 1021MOL0     H34767   9.491  10.794   3.074  1.6955  0.3167 -0.0713
 1021MOL0     H34768   9.391  10.860   3.354  1.3190  2.7924 -0.8595
 1021MOL0     H34769   9.284  10.885   3.214  1.0756  1.4010  0.0588
 1021MOL0     H34770   9.240  10.476   3.300 -0.1747  0.2093  1.7585
 1021MOL0     H34771   9.457  11.118   2.775  0.0904  0.0969  1.5714
 1021MOL0     H34772   9.332  11.142   2.571  0.9097  0.8606 -0.5807
 1022MOL0     O34773   9.494   9.191   1.574  0.2214 -0.5786 -0.7140
 1022MOL0     C34774   9.414   9.188   1.480  0.3330  1.1136  0.0274
 1022MOL0     O34775   9.320   9.277   1.438 -0.5271  0.6471 -0.6303
 1022MOL0     C34776   9.322   9.395   1.512  0.6845  0.7341  0.2059
 1022MOL0     C34777   9.228   9.400   1.624  0.0570  0.6233 -0.0414
 1022MOL0     C34778   9.248   9.504   1.720 -0.2670  0.2322  0.1870
 1022MOL0     C34779   9.337   9.600   1.707  0.1847  0.1036  0.5428
 1022MOL0     O34780   9.351   9.686   1.811  0.2733 -0.3828  0.3200
 1022MOL0     C34781   9.469   9.762   1.837 -0.2462  0.9897 -0.7305
 1022MOL0     C34782   9.473   9.894   1.754 -0.0465 -0.9019  0.5798
 1022MOL0     C34783   9.406  10.021   1.811  0.0590 -0.8025 -0.2704
 1022MOL0     C34784   9.447  10.160   1.746 -0.5184  0.4725 -0.2443
 1022MOL0     C34785   9.586  10.210   1.796  0.3083 -0.4140  0.2094
 1022MOL0     C34786   9.576  10.263   1.942  0.5867 -0.0048 -0.1034
 1022MOL0     C34787   9.710  10.280   2.019  0.4813 -0.4920 -0.2429
 1022MOL0     C34788   9.772  10.144   2.055 -0.8232 -0.5211 -0.1697
 1022MOL0     N34789   9.705  10.081   2.172 -0.7439  0.2706 -1.2792
 1022MOL0     C34790   9.604   9.984   2.166 -0.8364  0.0174 -0.1969
 1022MOL0     C34791   9.597   9.946   2.299  0.7977 -0.1232 -0.6607
 1022MOL0     C34792   9.530   9.827   2.365  0.1890 -0.6816  1.1517
 1022MOL0     C34793   9.461   9.865   2.503 -0.3654  0.1292  0.0234
 1022MOL0     C34794   9.396   9.738   2.555  0.6775  0.3625 -0.1748
 1022MOL0     C34795   9.265   9.707   2.484  0.6018  1.0420  1.4448
 1022MOL0     O34796   9.267   9.562   2.459  0.9485 -0.9605  0.1226
 1022MOL0     C34797   9.209   9.515   2.344  0.2440  0.0672  0.5459
 1022MOL0     C34798   9.148   9.591   2.242  0.0350  0.6013  0.4698
 1022MOL0     C34799   9.097   9.533   2.122 -0.5695  0.2612 -0.2184
 1022MOL0     C34800   9.095   9.392   2.105  0.2853 -0.3863  0.0904
 1022MOL0     C34801   9.000   9.334   2.003 -0.9185 -0.0906 -0.6478
 1022MOL0     O34802   8.951   9.421   1.914  1.4958 -0.3510  0.3095
 1022MOL0     C34803   8.826   9.394   1.855 -0.7212  1.1313 -0.1866
 1022MOL0     C34804   8.729   9.342   1.942 -0.4985 -0.6006  0.0635
 1022MOL0     C34805   8.608   9.289   1.894 -0.3593 -0.8296  1.3511
 1022MOL0     C34806   8.576   9.287   1.753 -0.1716 -0.1465  0.9155
 1022MOL0     O34807   8.457   9.244   1.704  0.1775 -0.0360  0.4691
 1022MOL0     C34808   8.392   9.322   1.601  0.1447 -1.2554  0.4586
 1022MOL0     C34809   8.258   9.259   1.572  0.5814  0.1609  0.6501
 1022MOL0     C34810   8.142   9.289   1.676 -0.4684 -0.1206  0.2239
 1022MOL0     C34811   8.163   9.205   1.813 -0.2582 -0.5170 -0.6487
 1022MOL0     C34812   8.052   9.226   1.917 -0.8589 -0.0746  0.1899
 1022MOL0     C34813   7.910   9.200   1.869  0.1950  0.5768  0.4876
 1022MOL0     C34814   7.880   9.042   1.853  0.3639 -0.3630 -0.3923
 1022MOL0     C34815   7.754   9.003   1.786  0.3117  0.4894 -0.6289
 1022MOL0    Cl34816   7.764   9.000   1.608  0.6689 -0.3318  0.1355
 1022MOL0     C34817   8.676   9.339   1.663 -0.1208 -0.4169  0.1390
 1022MOL0     C34818   8.801   9.396   1.718  0.7299  0.3249 -0.2076
 1022MOL0     O34819   8.971   9.218   2.025 -0.2580  0.2800 -0.2005
 1022MOL0     C34820   9.153   9.315   2.205 -1.6922 -0.7783 -0.4577
 1022MOL0     C34821   9.214   9.372   2.322 -0.2641  0.1198  0.6217
 1022MOL0     N34822   9.681  10.033   2.371  0.7583 -0.4859 -0.7411
 1022MOL0     N34823   9.741  10.112   2.294  0.6788  0.6914  0.6477
 1022MOL0     C34824   9.422   9.603   1.583 -0.0381  1.3912 -1.2366
 1022MOL0     C34825   9.411   9.501   1.488  0.1722  0.0492 -0.7877
 1022MOL0     C34826   9.393   9.047   1.412 -0.2599 -0.1131 -0.6702
 1022MOL0     C34827   9.438   8.935   1.483  0.6603 -0.3610 -0.2788
 1022MOL0     C34828   9.396   8.811   1.442 -0.8029  0.6130 -0.3026
 1022MOL0     C34829   9.328   8.791   1.325  0.7924 -1.1852 -0.2995
 1022MOL0     O34830   9.307   8.665   1.282 -0.1899 -0.1371  0.3647
 1022MOL0     C34831   9.275   8.554   1.376 -0.6560 -0.5131  0.3223
 1022MOL0     C34832   9.149   8.568   1.458 -0.1226  0.1493  0.1553
 1022MOL0     C34833   9.017   8.564   1.373 -0.6375  0.5679 -0.4691
 1022MOL0     C34834   8.894   8.568   1.462  0.8196 -0.1207  0.5109
 1022MOL0     C34835   8.773   8.606   1.390 -0.6222 -0.3871 -0.2292
 1022MOL0     C34836   8.667   8.646   1.341  0.1933  0.1269  0.2514
 1022MOL0     C34837   9.284   8.897   1.255 -0.2517 -0.4703 -0.0320
 1022MOL0     C34838   9.320   9.028   1.295  0.2159  0.4063  0.8958
 1022MOL0     H34839   9.164   9.315   1.646 -0.1999  0.0583 -2.6167
 1022MOL0     H34840   9.195   9.489   1.814  0.7139  1.6602  1.0121
 1022MOL0     H34841   9.559   9.705   1.816 -1.0011 -0.5096 -0.0703
 1022MOL0     H34842   9.464   9.778   1.945  0.9099  0.2995 -0.5669
 1022MOL0     H34843   9.421   9.879   1.659 -3.0179  2.9125  1.3717
 1022MOL0     H34844   9.574   9.921   1.721  0.3418 -3.8777 -1.1152
 1022MOL0     H34845   9.410  10.032   1.919 -2.1477 -2.5412  0.0597
 1022MOL0     H34846   9.299  10.000   1.802 -0.2290  0.8237 -0.8415
 1022MOL0     H34847   9.450  10.159   1.637  0.0718  0.0441 -0.2354
 1022MOL0     H34848   9.374  10.234   1.778 -1.0088  1.9982 -4.3479
 1022MOL0     H34849   9.621  10.293   1.734  0.4577  0.4071  1.3498
 1022MOL0     H34850   9.656  10.126   1.797  1.5289  0.4509  4.1096
 1022MOL0     H34851   9.508  10.207   2.009  2.5262 -1.5223  0.6954
 1022MOL0     H34852   9.532  10.362   1.931 -2.6994 -1.5624 -3.0457
 1022MOL0     H34853   9.787  10.341   1.970 -0.5625  2.1431  1.2090
 1022MOL0     H34854   9.702  10.330   2.116  3.4857  1.7064 -0.9569
 1022MOL0     H34855   9.880  10.144   2.074 -1.1064 -0.4789  1.7076
 1022MOL0     H34856   9.760  10.078   1.968  1.9927 -1.3926  0.0002
 1022MOL0     H34857   9.560   9.964   2.069  0.2528  2.3695 -1.2736
 1022MOL0     H34858   9.608   9.754   2.392  3.4809  1.8139 -0.9087
 1022MOL0     H34859   9.460   9.792   2.289  1.9453  1.4800 -1.6623
 1022MOL0     H34860   9.397   9.952   2.493  1.2790  1.1000 -3.4581
 1022MOL0     H34861   9.541   9.885   2.576 -2.0731  0.1818  1.9701
 1022MOL0     H34862   9.473   9.660   2.549  0.5225 -0.0057  1.9728
 1022MOL0     H34863   9.366   9.742   2.660  2.9654  0.0113  0.5458
 1022MOL0     H34864   9.248   9.757   2.389 -3.1610 -1.1849  0.7651
 1022MOL0     H34865   9.175   9.732   2.541 -0.1430 -1.2943  1.3770
 1022MOL0     H34866   9.138   9.699   2.244 -1.3754  0.5238 -0.5419
 1022MOL0     H34867   9.053   9.590   2.041 -1.0239  1.0706  0.5812
 1022MOL0     H34868   8.759   9.344   2.047  1.0824  1.1725 -0.3581
 1022MOL0     H34869   8.540   9.239   1.962 -0.1125 -0.4546  1.8812
 1022MOL0     H34870   8.453   9.324   1.510 -1.0276 -0.3939 -0.3410
 1022MOL0     H34871   8.390   9.426   1.637  0.3542  0.3046 -3.4970
 1022MOL0     H34872   8.274   9.152   1.555 -0.3683  0.1437 -0.2792
 1022MOL0     H34873   8.221   9.285   1.472 -0.3858 -0.2676  0.8846
 1022MOL0     H34874   8.041   9.280   1.636 -1.1913  0.6829  1.8273
 1022MOL0     H34875   8.145   9.395   1.703 -1.7250  0.2011 -0.8072
 1022MOL0     H34876   8.156   9.098   1.794 -2.6424 -1.0213  2.4055
 1022MOL0     H34877   8.255   9.234   1.864 -0.6640 -0.6019  0.1339
 1022MOL0     H34878   8.046   9.328   1.956 -3.1153 -0.4507  1.0084
 1022MOL0     H34879   8.073   9.164   2.005 -1.7124  1.0072  1.1843
 1022MOL0     H34880   7.888   9.238   1.769  3.7251 -3.1583 -1.9991
 1022MOL0     H34881   7.844   9.241   1.947  0.4567 -0.7991  1.4772
 1022MOL0     H34882   7.955   8.986   1.796  0.0591  0.0524 -1.2246
 1022MOL0     H34883   7.877   9.013   1.958 -0.1064  0.9600 -0.0138
 1022MOL0     H34884   7.668   9.056   1.827  0.0277  0.4774 -1.1951
 1022MOL0     H34885   7.746   8.898   1.816  0.8269  0.7373  0.4064
 1022MOL0     H34886   8.669   9.329   1.555  2.6628  0.6021 -0.2158
 1022MOL0     H34887   8.874   9.429   1.645 -0.6017 -0.1940 -1.8277
 1022MOL0     H34888   9.153   9.207   2.205 -1.6788 -0.7856 -1.6268
 1022MOL0     H34889   9.240   9.311   2.409  1.6447  0.3014  0.2058
 1022MOL0     H34890   9.485   9.690   1.567 -1.3403  2.3224 -1.4888
 1022MOL0     H34891   9.483   9.501   1.406  3.9479 -2.2978  2.1800
 1022MOL0     H34892   9.487   8.953   1.578 -0.9233 -1.1900  0.7353
 1022MOL0     H34893   9.442   8.732   1.501 -3.0192 -0.7348 -0.2677
 1022MOL0     H34894   9.363   8.527   1.435  0.3050  1.4426 -0.1366
 1022MOL0     H34895   9.252   8.466   1.316 -1.2971  0.3747 -0.7717
 1022MOL0     H34896   9.141   8.484   1.528 -0.5986 -2.2052 -2.5225
 1022MOL0     H34897   9.150   8.663   1.512  1.4435  0.3667 -0.2107
 1022MOL0     H34898   9.027   8.489   1.293 -0.8685  0.6254 -0.5514
 1022MOL0     H34899   9.010   8.655   1.314  0.7448 -0.0522 -1.6481
 1022MOL0     H34900   8.882   8.472   1.512 -2.7011  0.0312  0.2350
 1022MOL0     H34901   8.915   8.638   1.544  1.1308 -1.0413  1.2323
 1022MOL0     H34902   8.582   8.682   1.288  0.4235  1.2498  0.6214
 1022MOL0     H34903   9.220   8.896   1.167 -0.2412  3.8387 -0.2886
 1022MOL0     H34904   9.299   9.118   1.238 -3.0808 -0.6218  0.3272
 1023MOL0     O34905   7.321   6.646   7.645 -0.3692 -0.2041  0.4624
 1023MOL0     C34906   7.428   6.702   7.668  0.3679 -0.5769  0.0050
 1023MOL0     O34907   7.459   6.774   7.786  0.5512  0.7474  0.2424
 1023MOL0     C34908   7.370   6.801   7.882  1.2360  0.3742 -0.1407
 1023MOL0     C34909   7.236   6.746   7.892  0.3177 -0.6351 -0.1652
 1023MOL0     C34910   7.150   6.771   7.998  0.7501 -0.6453 -0.2828
 1023MOL0     C34911   7.182   6.857   8.095  1.3991 -1.7362  1.5786
 1023MOL0     O34912   7.081   6.856   8.189 -0.4303  0.0418  0.0012
 1023MOL0     C34913   7.134   6.893   8.318  0.1274 -0.3903 -0.2260
 1023MOL0     C34914   7.019   6.865   8.426  0.8452 -0.1664  0.4273
 1023MOL0     C34915   6.911   6.978   8.434  0.1915 -1.2523 -0.6699
 1023MOL0     C34916   6.826   6.932   8.547  0.6680  0.2638 -0.0210
 1023MOL0     C34917   6.719   7.035   8.583  0.2882 -0.5422  0.1489
 1023MOL0     C34918   6.612   6.971   8.673  0.2281  0.1670  0.8857
 1023MOL0     C34919   6.511   7.073   8.722 -0.3975 -0.6234  1.6794
 1023MOL0     C34920   6.401   7.083   8.631  0.2459  0.6357  0.8341
 1023MOL0     N34921   6.308   7.194   8.656  0.3065  0.7098 -0.6598
 1023MOL0     C34922   6.184   7.210   8.603  0.5141  1.0480 -0.0576
 1023MOL0     C34923   6.144   7.334   8.650  0.1817 -0.7088 -0.1356
 1023MOL0     C34924   6.016   7.398   8.613 -0.4065  0.0501 -0.4087
 1023MOL0     C34925   6.032   7.544   8.555 -0.0045  0.0232 -0.1935
 1023MOL0     C34926   5.914   7.615   8.619  0.4858  0.3479  1.2676
 1023MOL0     C34927   5.921   7.763   8.596 -0.4774  1.1303 -0.2220
 1023MOL0     O34928   5.893   7.786   8.458  0.0568  0.6553  0.6836
 1023MOL0     C34929   5.771   7.833   8.429 -0.3474  0.0500  0.6870
 1023MOL0     C34930   5.671   7.745   8.388  0.3836  1.1927 -0.2773
 1023MOL0     C34931   5.547   7.795   8.355 -0.4361  0.9027 -0.5291
 1023MOL0     C34932   5.519   7.932   8.363  0.0930 -0.6854 -1.1986
 1023MOL0     C34933   5.389   7.985   8.319  0.3882  0.1555 -0.6366
 1023MOL0     O34934   5.291   7.889   8.282  0.2700  0.2115 -0.5783
 1023MOL0     C34935   5.156   7.909   8.279 -0.7161 -0.5136  0.2162
 1023MOL0     C34936   5.081   7.798   8.297  0.0415  0.4924 -0.4447
 1023MOL0     C34937   4.941   7.796   8.282  0.7703  0.1047  0.3387
 1023MOL0     C34938   4.873   7.924   8.257  0.5036  0.0323 -0.1154
 1023MOL0     O34939   4.739   7.931   8.234 -0.2165 -0.5790  0.9113
 1023MOL0     C34940   4.695   7.911   8.096 -0.2855  0.6724  0.2510
 1023MOL0     C34941   4.644   8.030   8.021  0.3758 -0.4931  0.7527
 1023MOL0     C34942   4.518   8.079   8.086 -0.6536  0.2887 -0.2479
 1023MOL0     C34943   4.449   8.191   7.998  0.6351 -0.5636  0.3168
 1023MOL0     C34944   4.306   8.220   8.061  0.6633  0.2704  0.7511
 1023MOL0     C34945   4.219   8.098   8.079  0.6103  0.4774 -0.1729
 1023MOL0     C34946   4.077   8.162   8.087  0.2689 -0.3364 -0.1151
 1023MOL0     C34947   3.964   8.058   8.128  0.7095  1.3792  0.7583
 1023MOL0    Cl34948   3.811   8.126   8.097  0.2487 -0.0204  0.4850
 1023MOL0     C34949   4.954   8.041   8.260  0.7348  0.2372 -0.1941
 1023MOL0     C34950   5.093   8.037   8.273  1.5084 -0.7800 -0.3985
 1023MOL0     O34951   5.375   8.102   8.354  1.0119 -0.3256  0.8389
 1023MOL0     C34952   5.624   8.016   8.412  0.0957  0.5316  0.4858
 1023MOL0     C34953   5.754   7.966   8.429  0.5411 -0.0513  0.0284
 1023MOL0     N34954   6.231   7.365   8.756 -0.6547 -0.3693  0.0411
 1023MOL0     N34955   6.326   7.284   8.762 -0.4489 -0.3566 -0.1657
 1023MOL0     C34956   7.313   6.913   8.092  1.0145 -1.1060  0.1204
 1023MOL0     C34957   7.395   6.880   7.993 -0.7892  0.6027  0.1219
 1023MOL0     C34958   7.545   6.707   7.564  0.0720  0.3872 -0.0836
 1023MOL0     C34959   7.662   6.781   7.577  0.6258 -0.2310  0.4857
 1023MOL0     C34960   7.771   6.773   7.484 -0.3871 -0.0091  0.4465
 1023MOL0     C34961   7.754   6.681   7.378  0.5191 -0.4288 -0.6475
 1023MOL0     O34962   7.858   6.675   7.287  1.6003  0.1159  0.5172
 1023MOL0     C34963   7.819   6.650   7.147  0.4609  0.2139 -0.0309
 1023MOL0     C34964   7.752   6.768   7.073 -0.9836  0.7638  0.0909
 1023MOL0     C34965   7.820   6.796   6.938 -0.5741  0.1401 -0.3776
 1023MOL0     C34966   7.747   6.916   6.870  0.4240 -0.2078 -0.5335
 1023MOL0     C34967   7.778   6.922   6.734  0.8432 -0.1066  0.4167
 1023MOL0     C34968   7.806   6.926   6.614 -0.1354  0.5433 -0.3138
 1023MOL0     C34969   7.630   6.622   7.354  0.8441  0.2353  0.4151
 1023MOL0     C34970   7.525   6.627   7.445 -0.4578 -0.2678  0.3777
 1023MOL0     H34971   7.190   6.685   7.815 -1.1292  0.6744 -0.3948
 1023MOL0     H34972   7.050   6.728   7.994 -1.1067  3.1939  0.8959
 1023MOL0     H34973   7.168   6.997   8.321 -1.0060 -0.0218  2.0974
 1023MOL0     H34974   7.220   6.832   8.347 -0.4562 -1.4901 -0.7100
 1023MOL0     H34975   7.058   6.858   8.528 -1.5486  2.9432  1.7377
 1023MOL0     H34976   6.975   6.772   8.391 -0.2095  1.1126 -1.8748
 1023MOL0     H34977   6.854   6.982   8.341 -1.8997 -2.0287  0.5196
 1023MOL0     H34978   6.951   7.076   8.463 -3.3291 -0.5173  2.4838
 1023MOL0     H34979   6.786   6.832   8.526  2.2156 -0.0777 -1.6396
 1023MOL0     H34980   6.884   6.927   8.639 -1.8084 -1.1023  1.5852
 1023MOL0     H34981   6.684   7.080   8.490  0.6113  1.0152  0.7543
 1023MOL0     H34982   6.768   7.119   8.633  3.3086 -2.3173  0.4212
 1023MOL0     H34983   6.663   6.954   8.768  0.5918  2.5344  1.1809
 1023MOL0     H34984   6.570   6.877   8.636  0.3744  0.6089 -0.4929
 1023MOL0     H34985   6.473   7.049   8.821 -0.0846 -0.8953  1.7338
 1023MOL0     H34986   6.561   7.171   8.722 -2.1566  0.3302  0.2986
 1023MOL0     H34987   6.334   6.998   8.645  1.2216  0.0135  1.9307
 1023MOL0     H34988   6.442   7.086   8.529  0.5953  1.1628  0.9830
 1023MOL0     H34989   6.140   7.139   8.534 -1.0408 -0.5372  2.4006
 1023MOL0     H34990   5.954   7.385   8.703  2.1163  0.9950  1.5834
 1023MOL0     H34991   5.984   7.347   8.522  0.9094 -0.4009 -0.6303
 1023MOL0     H34992   6.030   7.534   8.446  1.0545  0.6968 -0.2975
 1023MOL0     H34993   6.128   7.592   8.576 -0.5924  0.9608  0.4156
 1023MOL0     H34994   5.822   7.584   8.570  1.4357 -1.6780  0.6413
 1023MOL0     H34995   5.918   7.597   8.727 -0.6900  2.9463  1.8289
 1023MOL0     H34996   6.020   7.792   8.632 -0.3167 -0.8573  1.0884
 1023MOL0     H34997   5.842   7.808   8.656 -1.9140 -1.6957  0.1563
 1023MOL0     H34998   5.683   7.637   8.382  0.2349  1.2559 -1.9264
 1023MOL0     H34999   5.476   7.718   8.327 -0.7308  1.0806 -0.2751
 1023MOL0     H35000   5.144   7.715   8.328 -0.8108  0.9323  2.7996
 1023MOL0     H35001   4.898   7.698   8.300 -1.7086  0.8043 -1.3977
 1023MOL0     H35002   4.607   7.845   8.099  0.3564 -0.2501 -0.7057
 1023MOL0     H35003   4.776   7.868   8.036  0.1900  1.4153  0.3540
 1023MOL0     H35004   4.640   7.989   7.919 -1.1324 -1.9136  1.3289
 1023MOL0     H35005   4.724   8.104   8.030  0.7695 -0.4256 -2.3423
 1023MOL0     H35006   4.538   8.123   8.184  3.4557 -2.5017  0.4105
 1023MOL0     H35007   4.454   7.994   8.110 -1.7796 -0.0051 -3.7078
 1023MOL0     H35008   4.512   8.280   8.005 -3.9119  2.9151  2.7617
 1023MOL0     H35009   4.437   8.165   7.893  0.4268  1.1934 -0.1252
 1023MOL0     H35010   4.262   8.306   8.010  1.3347  1.9826  2.8973
 1023MOL0     H35011   4.321   8.255   8.164  1.8137 -1.7030  1.3079
 1023MOL0     H35012   4.246   8.037   8.165 -0.2772  0.0907 -0.1543
 1023MOL0     H35013   4.221   8.046   7.982 -1.5253  2.3504 -1.3252
 1023MOL0     H35014   4.068   8.239   8.164  2.4677 -1.6119  1.5292
 1023MOL0     H35015   4.053   8.206   7.990  0.6452 -1.8029 -0.9055
 1023MOL0     H35016   3.973   8.034   8.234 -0.0426 -0.5999  0.4067
 1023MOL0     H35017   3.968   7.958   8.085 -0.6982  1.0182  1.4066
 1023MOL0     H35018   4.900   8.133   8.238  1.3479 -0.4132 -6.2735
 1023MOL0     H35019   5.147   8.130   8.270 -2.1752  1.5768  0.3778
 1023MOL0     H35020   5.612   8.123   8.428 -0.9475  0.7984 -1.8034
 1023MOL0     H35021   5.834   8.029   8.467  0.7620  1.3194 -2.5041
 1023MOL0     H35022   7.342   6.988   8.165  0.0194  0.4422 -0.9994
 1023MOL0     H35023   7.498   6.916   7.995  0.7997 -3.3110 -1.1502
 1023MOL0     H35024   7.653   6.844   7.665  0.0070 -0.1519  0.3724
 1023MOL0     H35025   7.859   6.837   7.487 -0.6769  0.3746  0.8473
 1023MOL0     H35026   7.754   6.562   7.137  0.4670  0.3238 -1.2298
 1023MOL0     H35027   7.902   6.610   7.087 -0.1851 -2.2604  0.5974
 1023MOL0     H35028   7.651   6.732   7.056 -0.7867 -0.3632  1.1775
 1023MOL0     H35029   7.752   6.849   7.147  0.8221 -1.5683  2.8509
 1023MOL0     H35030   7.805   6.712   6.870 -0.6613 -1.2048  1.2203
 1023MOL0     H35031   7.928   6.813   6.940 -0.5976  0.3372 -0.8574
 1023MOL0     H35032   7.638   6.912   6.878  0.5501 -0.6786  4.8542
 1023MOL0     H35033   7.783   7.011   6.912  0.4511 -0.6402  0.4339
 1023MOL0     H35034   7.853   6.930   6.518  0.2553 -0.2275 -0.1695
 1023MOL0     H35035   7.617   6.561   7.265 -1.0671  1.8213 -0.4550
 1023MOL0     H35036   7.441   6.565   7.417 -0.0197 -0.5198 -0.4290
 1024MOL0     O35037   5.187  11.363   6.062  0.1876 -0.3555 -0.3636
 1024MOL0     C35038   5.297  11.388   6.024 -0.2977  0.4514  0.7169
 1024MOL0     O35039   5.337  11.502   5.959  0.0947  0.1332  0.3237
 1024MOL0     C35040   5.242  11.605   5.920 -0.3134  0.9323 -0.9464
 1024MOL0     C35041   5.119  11.578   5.864 -0.2770 -0.5333  1.1031
 1024MOL0     C35042   5.044  11.682   5.811 -0.0090  0.1838  0.7938
 1024MOL0     C35043   5.089  11.813   5.827  0.0662 -0.1125  0.5342
 1024MOL0     O35044   5.005  11.905   5.784  0.5575 -0.5257 -0.4972
 1024MOL0     C35045   5.030  12.045   5.772  0.1921 -0.2028 -0.2013
 1024MOL0     C35046   5.121  12.084   5.658  0.4183  0.0862 -0.2388
 1024MOL0     C35047   5.038  12.118   5.533  0.6934 -0.6956 -0.8052
 1024MOL0     C35048   5.128  12.120   5.404 -0.8026  0.6556  0.0475
 1024MOL0     C35049   5.029  12.132   5.288 -0.0224 -0.4206  0.1703
 1024MOL0     C35050   5.006  12.277   5.243  0.7577 -0.6499  0.1715
 1024MOL0     C35051   4.883  12.335   5.308 -0.6246  0.0643  0.5140
 1024MOL0     C35052   4.887  12.487   5.326 -1.4803  0.3313  0.7128
 1024MOL0     N35053   4.750  12.533   5.338 -0.2664 -0.0505  0.2459
 1024MOL0     C35054   4.669  12.544   5.231 -0.4543  0.7463 -0.7602
 1024MOL0     C35055   4.567  12.613   5.286 -0.2717  0.1167 -0.1404
 1024MOL0     C35056   4.439  12.655   5.215 -0.1751 -0.6512 -0.3432
 1024MOL0     C35057   4.479  12.737   5.096  0.5729 -0.4419  0.9524
 1024MOL0     C35058   4.348  12.802   5.021 -0.0899  0.9854 -0.7026
 1024MOL0     C35059   4.289  12.693   4.930 -0.5701  0.2210  0.5431
 1024MOL0     O35060   4.149  12.720   4.897 -0.4118 -1.1267 -0.5043
 1024MOL0     C35061   4.052  12.679   4.987  0.2182 -0.0534  0.6763
 1024MOL0     C35062   4.068  12.580   5.086 -0.1736 -0.5844  0.2913
 1024MOL0     C35063   3.962  12.521   5.153 -0.3193  0.2792 -0.2556
 1024MOL0     C35064   3.836  12.563   5.127  0.5992 -0.2407 -0.1255
 1024MOL0     C35065   3.716  12.532   5.197  0.1400  0.8961  0.3079
 1024MOL0     O35066   3.725  12.421   5.278 -0.3181  0.0768  0.2628
 1024MOL0     C35067   3.636  12.369   5.365 -0.0299  0.5830  0.1887
 1024MOL0     C35068   3.640  12.225   5.401 -0.3550 -0.0198  0.2916
 1024MOL0     C35069   3.546  12.169   5.497  0.8521 -0.1198  0.4718
 1024MOL0     C35070   3.450  12.259   5.558 -0.2870  0.6954  0.3617
 1024MOL0     O35071   3.360  12.225   5.652  0.1206 -0.0690 -0.1842
 1024MOL0     C35072   3.332  12.100   5.712  0.1748  0.2243  0.7575
 1024MOL0     C35073   3.197  12.109   5.787 -0.7236  0.5888  0.1818
 1024MOL0     C35074   3.207  12.212   5.894 -0.5729  0.1176  0.0852
 1024MOL0     C35075   3.069  12.243   5.955  0.5538  0.3565 -0.1938
 1024MOL0     C35076   3.078  12.333   6.078 -0.0390  0.3025  1.1707
 1024MOL0     C35077   3.142  12.464   6.041  0.1392 -0.1774  0.9019
 1024MOL0     C35078   3.109  12.569   6.148 -0.4647 -0.0635  0.7672
 1024MOL0     C35079   3.120  12.716   6.101  0.6357 -0.1168 -0.7213
 1024MOL0    Cl35080   3.100  12.823   6.238 -0.3016 -0.3687 -0.6424
 1024MOL0     C35081   3.445  12.387   5.522 -0.0941 -0.2920 -0.8771
 1024MOL0     C35082   3.538  12.435   5.427  0.3227  0.1047 -1.2072
 1024MOL0     O35083   3.609  12.582   5.172  0.2995 -0.1746  0.9371
 1024MOL0     C35084   3.818  12.662   5.015  0.3245  0.1511  0.5856
 1024MOL0     C35085   3.929  12.708   4.942  0.0227 -0.3801  0.2971
 1024MOL0     N35086   4.581  12.628   5.423 -0.7047 -0.7661  0.5878
 1024MOL0     N35087   4.685  12.574   5.442 -0.1995  0.0309 -0.7619
 1024MOL0     C35088   5.212  11.840   5.876 -1.1921  0.1741  0.3205
 1024MOL0     C35089   5.281  11.740   5.931 -0.5447 -0.4684 -0.4292
 1024MOL0     C35090   5.398  11.292   6.061 -0.9301  0.0860 -0.2425
 1024MOL0     C35091   5.530  11.314   6.013  0.0256  0.2504  0.5247
 1024MOL0     C35092   5.635  11.232   6.040 -0.6667 -1.1730  0.0329
 1024MOL0     C35093   5.611  11.123   6.122 -0.2690  0.9703  0.9536
 1024MOL0     O35094   5.723  11.044   6.148  0.3561 -0.0980 -0.2247
 1024MOL0     C35095   5.779  10.968   6.036 -0.4220  0.0202 -0.5932
 1024MOL0     C35096   5.784  10.813   6.059  0.1680 -0.2235 -0.2059
 1024MOL0     C35097   5.812  10.787   6.212 -0.6984 -0.1083 -0.1908
 1024MOL0     C35098   5.838  10.644   6.252  0.3713 -0.5607 -0.9897
 1024MOL0     C35099   5.835  10.632   6.398  0.1986 -0.5075  0.0967
 1024MOL0     C35100   5.859  10.613   6.516  0.0982 -0.2719 -0.4023
 1024MOL0     C35101   5.486  11.099   6.176  0.2537  0.6577 -0.1373
 1024MOL0     C35102   5.376  11.173   6.135  0.7776 -0.0432  1.0323
 1024MOL0     H35103   5.070  11.482   5.857 -2.9407  0.8062  0.0398
 1024MOL0     H35104   4.946  11.671   5.765  1.2239 -1.1145 -1.7201
 1024MOL0     H35105   5.076  12.074   5.867 -1.5904  0.7511  0.4272
 1024MOL0     H35106   4.932  12.091   5.755  0.3533  0.1843 -0.0961
 1024MOL0     H35107   5.180  11.997   5.628 -0.2982 -0.3505 -0.4119
 1024MOL0     H35108   5.187  12.166   5.687  2.1603  0.2306 -4.0295
 1024MOL0     H35109   4.990  12.216   5.541  4.1706  1.1201 -0.3372
 1024MOL0     H35110   4.962  12.039   5.529  0.0802 -0.1530 -0.1947
 1024MOL0     H35111   5.198  12.205   5.410  0.5771 -0.3871 -0.6936
 1024MOL0     H35112   5.195  12.035   5.389 -0.2841  1.4728 -2.7962
 1024MOL0     H35113   4.938  12.071   5.290 -0.3265 -0.1217 -2.0345
 1024MOL0     H35114   5.079  12.094   5.198 -2.9167  0.5385 -1.9974
 1024MOL0     H35115   4.977  12.283   5.137 -4.6873  0.6673  1.4634
 1024MOL0     H35116   5.095  12.340   5.250  2.3372 -2.6307 -1.0004
 1024MOL0     H35117   4.809  12.316   5.230  0.9679  1.7518 -1.5014
 1024MOL0     H35118   4.852  12.288   5.402  1.6613 -2.2176  0.2282
 1024MOL0     H35119   4.927  12.526   5.231 -0.2067 -1.0964  0.6331
 1024MOL0     H35120   4.945  12.526   5.409 -1.2941  0.6925  0.4195
 1024MOL0     H35121   4.687  12.515   5.128  0.4657  1.0654 -0.6920
 1024MOL0     H35122   4.381  12.719   5.281  3.5992  0.4306  2.2459
 1024MOL0     H35123   4.393  12.562   5.179  1.1407  0.4948 -6.0419
 1024MOL0     H35124   4.531  12.683   5.016  0.7654  1.8713 -0.5772
 1024MOL0     H35125   4.546  12.819   5.124  0.6511  0.6447 -2.1088
 1024MOL0     H35126   4.279  12.844   5.094 -0.3511  1.9557 -1.4769
 1024MOL0     H35127   4.381  12.887   4.960 -1.1712  1.4983 -0.5921
 1024MOL0     H35128   4.296  12.587   4.955 -2.7500  0.2771  1.6605
 1024MOL0     H35129   4.345  12.689   4.836 -4.1485 -0.8254 -1.7531
 1024MOL0     H35130   4.166  12.534   5.099  1.8637  2.3238 -3.1183
 1024MOL0     H35131   3.984  12.444   5.226  1.6313  1.4976  0.5331
 1024MOL0     H35132   3.712  12.160   5.352 -2.8946 -1.7615 -1.3334
 1024MOL0     H35133   3.554  12.068   5.536  1.5573  0.6051  2.2897
 1024MOL0     H35134   3.414  12.082   5.783  0.2844  2.6556  1.3469
 1024MOL0     H35135   3.314  12.031   5.629 -0.5866  2.5298 -1.0928
 1024MOL0     H35136   3.188  12.010   5.831  0.8022  1.2215  2.0623
 1024MOL0     H35137   3.124  12.129   5.708  0.2873 -1.3397 -1.3376
 1024MOL0     H35138   3.235  12.312   5.860 -1.5592  0.6676  0.8432
 1024MOL0     H35139   3.270  12.183   5.979 -0.1815 -2.0976 -0.9028
 1024MOL0     H35140   2.995  12.281   5.884 -0.0894 -1.7804 -0.7676
 1024MOL0     H35141   3.022  12.152   5.994  1.1917 -0.0627 -0.3908
 1024MOL0     H35142   3.134  12.272   6.150 -0.1555 -1.7710 -0.3940
 1024MOL0     H35143   2.980  12.343   6.127  0.0958 -0.5261  1.6399
 1024MOL0     H35144   3.117  12.498   5.940  1.7436 -1.9303 -0.1367
 1024MOL0     H35145   3.251  12.451   6.042  0.6021  2.1620 -1.9218
 1024MOL0     H35146   3.008  12.540   6.178  0.2016 -1.0348  2.1850
 1024MOL0     H35147   3.172  12.552   6.236 -0.0842  1.0188  0.7257
 1024MOL0     H35148   3.043  12.731   6.025 -0.0579 -3.9188 -0.9481
 1024MOL0     H35149   3.213  12.730   6.046 -1.6839  0.4748 -4.9087
 1024MOL0     H35150   3.368  12.444   5.572  1.1359  0.5503  0.1225
 1024MOL0     H35151   3.537  12.540   5.400  2.8282 -0.3173 -3.4468
 1024MOL0     H35152   3.715  12.687   4.993  0.1870 -1.3967 -0.8012
 1024MOL0     H35153   3.916  12.776   4.858 -3.4583 -1.9207 -0.5901
 1024MOL0     H35154   5.240  11.945   5.886 -0.9024  0.4232 -2.2730
 1024MOL0     H35155   5.375  11.770   5.978 -0.8229  2.9828 -1.7375
 1024MOL0     H35156   5.544  11.391   5.939 -3.1140  1.1904  0.7711
 1024MOL0     H35157   5.736  11.255   6.008 -0.6977  0.4580  0.9876
 1024MOL0     H35158   5.882  10.999   6.016  0.0291 -3.0359 -4.0375
 1024MOL0     H35159   5.734  10.983   5.937  0.7880 -1.0634 -1.3292
 1024MOL0     H35160   5.694  10.760   6.026  0.0220 -1.3127  1.7975
 1024MOL0     H35161   5.864  10.768   5.999 -0.1612  2.3531 -2.7407
 1024MOL0     H35162   5.736  10.824   6.281  1.0576  0.9758  1.2478
 1024MOL0     H35163   5.896  10.848   6.244  3.0195 -1.4771 -5.8167
 1024MOL0     H35164   5.764  10.580   6.204  0.4836 -2.9442  1.7140
 1024MOL0     H35165   5.928  10.595   6.213  0.0675 -1.4195 -0.6498
 1024MOL0     H35166   5.876  10.602   6.622 -1.8312  0.2787  0.0034
 1024MOL0     H35167   5.478  11.011   6.239 -0.1231  0.3616 -0.5829
 1024MOL0     H35168   5.277  11.157   6.176  0.9479 -1.5195  0.9234
  11.46046  11.46046  11.46046
